                  Welcome to Q-Chem
           with Periodic Boundary Condition
     A Quantum Leap Into The Future Of Chemistry

 Adam Rettig, Xintian Feng, Meng-Fu Chen, Hieu Dinh, Stephen Quiton,
 Anton Ni, Paul J. Robinson, Jinghong Zhang, Joonho Lee

Contributors to earlier versions of Q-Chem not listed above:
 Evgeny Epifanovsky, Leo Cunha, Jerome F. Gonthier, Kuan-Yu Liu
 Input file: /n/home02/hieudinh/rsdf_test_full_J/benchmark_nocd/mgo_co/mgo_slab_def2svp.in
 Scratch folder: /n/netscratch/joonholee_lab/Lab/hieudinh//nhome02hieudinhrsdf_test_full_Jbenchmark_nocdmgo_comgo_slab_def2svp.scratch20251118162334
 Auxillary files located at: /n/home02/hieudinh/qcpbc/qcaux
 Q-Chem begins on Tue Nov 18 16:23:35 2025

 -------------------------------------------------------------
 User input:
 -------------------------------------------------------------
 $lattice
 3
 11.9443159104 0.0000000000 0.0000000000
 0.0000000000 11.9443159104 0.0000000000
 0.0000000000 0.0000000000 21.6602222298
 $end
 
 $unitcell
 ABSOLUTE
 0 1
 C   1.4930428341    1.4930432491    5.5284856213
 Mg   0.0000000000    0.0000000000    1.0000000000
 Mg   8.9582369328    5.9721579552    1.0000000000
 Mg   2.9860789776    5.9721579552    1.0000000000
 Mg   2.9860789776    8.9582369328    1.0000000000
 Mg   5.9721579552    0.0000000000    1.0000000000
 Mg   5.9721579552    2.9860789776    1.0000000000
 Mg   5.9721579552    5.9721579552    1.0000000000
 Mg   8.9582369328    2.9860789776    1.0000000000
 Mg   5.9721579552    8.9582369328    1.0000000000
 Mg   8.9582369328    0.0000000000    1.0000000000
 Mg   2.9860789776    2.9860789776    1.0000000000
 Mg   8.9582369328    8.9582369328    1.0000000000
 Mg   0.0000000000    8.9582369328    1.0000000000
 Mg   0.0000000000    2.9860789776    1.0000000000
 Mg   0.0000000000    5.9721579552    1.0000000000
 Mg   2.9860789776    0.0000000000    1.0000000000
 Mg   1.4930343349    1.4930374153    3.1511187175
 Mg   7.4651977897   10.4517004415    3.1114386205
 Mg   7.4651969790    7.4651968898    3.1112699448
 Mg   1.4930327857    4.4811832720    3.1056362779
 Mg   7.4651966404    4.4786922443    3.1114383107
 Mg   4.4811624032    1.4930368520    3.1056318890
 Mg  10.4496839597    4.4807048989    3.1095898700
 Mg   1.4930399629    7.4651963524    3.1116080311
 Mg  10.4496925734   10.4496968378    3.1095846708
 Mg   4.4807088948   10.4496904623    3.1095885984
 Mg   4.4786954624    7.4651978298    3.1114386978
 Mg   1.4930424686   10.4492084126    3.1056383774
 Mg  10.4516980458    7.4651970662    3.1114406695
 Mg   4.4807013212    4.4807040921    3.1095854125
 Mg   7.4651986133    1.4930389816    3.1116104730
 Mg  10.4492249714    1.4930441995    3.1056280117
 O  10.4512759328    1.4930390000    1.0000000000
 O   4.4791179776   10.4512759328    1.0000000000
 O   7.4651969552    1.4930390000    1.0000000000
 O   4.4791179776    4.4791179776    1.0000000000
 O  10.4512759328    4.4791179776    1.0000000000
 O   7.4651969552    7.4651969552    1.0000000000
 O   7.4651969552   10.4512759328    1.0000000000
 O   7.4651969552    4.4791179776    1.0000000000
 O   4.4791179776    7.4651969552    1.0000000000
 O   1.4930390000   10.4512759328    1.0000000000
 O  10.4512759328    7.4651969552    1.0000000000
 O   1.4930390000    4.4791179776    1.0000000000
 O   1.4930390000    7.4651969552    1.0000000000
 O   1.4930390000    1.4930390000    1.0000000000
 O   4.4791179776    1.4930390000    1.0000000000
 O  10.4512759328   10.4512759328    1.0000000000
 O   8.9580238897    5.9723685818    3.1594644112
 O   8.9570961456    2.9857717252    3.1600752389
 O   8.9570985067    0.0003085838    3.1600738373
 O   2.9857747423    8.9570945142    3.1600737733
 O   5.9723690642    5.9723696033    3.1594610725
 O   5.9732960489    2.9857717265    3.1600713997
 O   5.9732976356    0.0003062885    3.1600713024
 O   2.9857711850    5.9732998192    3.1600740469
 O   2.9950544541    2.9950623702    3.1548459568
 O   2.9950599166   -0.0089867212    3.1548507549
 O   0.0003060319    8.9570959750    3.1600745678
 O   0.0003045736    5.9732996331    3.1600758940
 O  -0.0089879078    2.9950667318    3.1548429191
 O  -0.0089805134   -0.0089799254    3.1548482730
 O   5.9723706153    8.9580251994    3.1594625961
 O   8.9580250454    8.9580263132    3.1594616543
 O   1.4930495812    1.4930407413    6.6690780399
 $end
 
 $rem
 jobtype = sp
 method = pbe
 dft_d = 6
 scf_convergence = 5
 scf_guess = autosad
 scf_algorithm = gdm
 basis = gen !def2-svp
 aux_basis = gen !rij-def2-svp
 input_bohr = false
 is_basis_uctr = false
 
 mp_mesh = [1,1,1]
 
 integral_direct true
 bvk_cgto true
 symmetry false
 rsdf_print_level 1
 do_nonortho true
 
 thresh 14
 mem_total 500000
 threads 32
 
 MAX_SCF_CYCLES 3
 madelung = false
 omega 0.45
 do_rij_bigmem true
 automate_g true
 print_level 10
 grid_type_xc 1
 
 thresh_1e2c_sp 1e-14
 thresh_2e3c_bra_ket_sep 1e-10
 thresh_g 1e-12
 $end
 
 $rem_autosad
 incfock 1000
 scf_algorithm gdm_ls
 $end
 
 
 $basis
 C     0
 S   5   1.00
    1238.4016938              0.54568832082D-02
     186.29004992             0.40638409211D-01
      42.251176346            0.18025593888
      11.676557932            0.46315121755
       3.5930506482           0.44087173314
 S   1   1.00
       0.40245147363          1.0000000
 S   1   1.00
       0.13090182668          1.0000000
 P   3   1.00
       9.4680970621           0.38387871728D-01
       2.0103545142           0.21117025112
       0.54771004707          0.51328172114
 P   1   1.00
       0.15268613795          1.0000000
 D   1   1.00
       0.8000000              1.0000000
 ****
 O     0
 S   5   1.00
    2266.1767785             -0.53431809926D-02
     340.87010191            -0.39890039230D-01
      77.363135167           -0.17853911985
      21.479644940           -0.46427684959
       6.6589433124          -0.44309745172
 S   1   1.00
       0.80975975668          1.0000000
 S   1   1.00
       0.25530772234          1.0000000
 P   3   1.00
      17.721504317            0.43394573193D-01
       3.8635505440           0.23094120765
       1.0480920883           0.51375311064
 P   1   1.00
       0.27641544411          1.0000000
 D   1   1.00
       1.2000000              1.0000000
 ****
 Mg     0
 S   5   1.00
    4953.8339196             -0.57778967498D-02
     745.18044154            -0.43124761082D-01
     169.21604972            -0.19268216987
      47.300672019           -0.48641439116
      14.461336973           -0.42550894077
 S   3   1.00
      24.768174789            0.87956969984D-01
       2.4940945349          -0.55165058128
       0.87807584533         -0.53443294833
 S   1   1.00
       0.87212782497D-01      1.0000000
 S   1   1.00
       0.33599293780D-01      1.0000000
 P   5   1.00
      98.053010494           -0.14480564601D-01
      22.586932277           -0.95495750787D-01
       6.8391509842          -0.30787672651
       2.2332843818          -0.49936292886
       0.71606599387         -0.31503476213
 P   1   1.00
       0.18914796195          1.0000000
 P   1   1.00
       0.53768755187D-01      1.0000000
 D   1   1.00
       0.1010000              1.0000000
 ****
 $end
 
 $aux_basis
 C     0
 S   7   1.00
    1861.0916331              0.0744171
     642.9939764              0.1653957
     235.1105725              0.5576484
      90.7028894              1.3108298
      36.7794552              2.1694681
      15.6046273              1.7668846
       6.8907294              0.2930769
 S   1   1.00
       3.1478850             -0.1708702
 S   1   1.00
       1.4777287              0.1641553
 S   1   1.00
       0.7076466              0.4149941
 S   1   1.00
       0.3430122              0.1624366
 S   1   1.00
       0.1669453              0.0207675
 P   2   1.00
      13.5472892             -0.0206477
       5.4669419             -0.0115282
 P   1   1.00
       2.1751721              0.0455914
 P   1   1.00
       0.8582194              0.0028360
 P   1   1.00
       0.3376720              0.0181875
 D   2   1.00
       5.9287253             -0.0225948
       1.9809209             -0.0476827
 D   1   1.00
       0.8055417             -0.0365372
 D   1   1.00
       0.3531244             -0.0145417
 F   2   1.00
       1.6755626              0.0088798
       0.5997536              0.0069903
 G   1   1.00
       1.0024600             -0.0022192
 ****
 O     0
 S   7   1.00
    2876.8216605              0.1443558
    1004.7443032              0.2920041
     369.7579954              1.0258517
     142.9442404              2.2875516
      57.8366425              3.6080237
      24.3864983              2.3737865
      10.6622662              0.0489414
 S   1   1.00
       4.8070437             -0.1295186
 S   1   1.00
       2.2210770              0.7747158
 S   1   1.00
       1.0447795              0.7647816
 S   1   1.00
       0.4968425              0.2369803
 S   1   1.00
       0.2371384              0.0208099
 P   2   1.00
      64.2613382             -0.0126659
      16.3006076             -0.0378744
 P   1   1.00
       4.3550542              0.0638078
 P   1   1.00
       1.2019554              0.0169516
 P   1   1.00
       0.3354196              0.0065743
 D   2   1.00
       9.2146611             -0.0597914
       2.8435251             -0.0846724
 D   1   1.00
       0.9955759             -0.0466066
 D   1   1.00
       0.3649441             -0.0096978
 F   2   1.00
       2.6420115              1.0
       0.7345613              1.0
 G   1   1.00
       1.3931000             -0.0016533
 ****
 Mg     0
 S   7   1.00
    4618.7144348              0.4062037
    1715.8572368              0.7248204
     660.3662172              2.4015050
     262.7772421              5.0268089
     107.8796646              6.8807535
      45.5809298              3.0930185
      19.7676678             -0.8061330
 S   1   1.00
       8.7738606              1.2834607
 S   1   1.00
       3.9730763              2.9682392
 S   1   1.00
       1.8294222              1.2081584
 S   1   1.00
       0.8535432             -0.0228789
 S   1   1.00
       0.4020431              0.0060268
 S   1   1.00
       0.1904672              0.0852479
 S   1   1.00
       0.0904075              0.0238626
 P   2   1.00
       4.2335270             -0.0089796
       1.3598327              0.0169486
 P   1   1.00
       0.5026752             -0.0127300
 P   1   1.00
       0.2043109              0.0127291
 P   1   1.00
       0.0858908              0.0069646
 D   2   1.00
      15.3639340              0.0072298
       3.9275269              0.0022521
 D   1   1.00
       1.1824901             -0.0081411
 D   1   1.00
       0.3985299              0.0134364
 D   1   1.00
       0.1398822              0.0062003
 F   2   1.00
       2.2586461             -0.0009518
       0.4740262              0.0022316
 G   1   1.00
       0.8087604             -0.0004005
 ****
 $end
 
 -------------------------------------------------------------
 Running PBC job

 Requested Exchange Correlation Functionals: 
  DFT Exchange:  1.00000 pbe_x
  DFT Correlation:  1.00000 pbe_c
 using 32 threads for computing.
 ---------------------------------------------------------------
      Coordinates of Atoms in Central Unit Cell (Angstroms)
    I     Atom         X            Y            Z
 ---------------------------------------------------------------
    1       C      1.493043     1.493043     5.528486
    2      Mg      0.000000     0.000000     1.000000
    3      Mg      8.958237     5.972158     1.000000
    4      Mg      2.986079     5.972158     1.000000
    5      Mg      2.986079     8.958237     1.000000
    6      Mg      5.972158     0.000000     1.000000
    7      Mg      5.972158     2.986079     1.000000
    8      Mg      5.972158     5.972158     1.000000
    9      Mg      8.958237     2.986079     1.000000
   10      Mg      5.972158     8.958237     1.000000
   11      Mg      8.958237     0.000000     1.000000
   12      Mg      2.986079     2.986079     1.000000
   13      Mg      8.958237     8.958237     1.000000
   14      Mg      0.000000     8.958237     1.000000
   15      Mg      0.000000     2.986079     1.000000
   16      Mg      0.000000     5.972158     1.000000
   17      Mg      2.986079     0.000000     1.000000
   18      Mg      1.493034     1.493037     3.151119
   19      Mg      7.465198    10.451700     3.111439
   20      Mg      7.465197     7.465197     3.111270
   21      Mg      1.493033     4.481183     3.105636
   22      Mg      7.465197     4.478692     3.111438
   23      Mg      4.481162     1.493037     3.105632
   24      Mg     10.449684     4.480705     3.109590
   25      Mg      1.493040     7.465196     3.111608
   26      Mg     10.449693    10.449697     3.109585
   27      Mg      4.480709    10.449690     3.109589
   28      Mg      4.478695     7.465198     3.111439
   29      Mg      1.493042    10.449208     3.105638
   30      Mg     10.451698     7.465197     3.111441
   31      Mg      4.480701     4.480704     3.109585
   32      Mg      7.465199     1.493039     3.111610
   33      Mg     10.449225     1.493044     3.105628
   34       O     10.451276     1.493039     1.000000
   35       O      4.479118    10.451276     1.000000
   36       O      7.465197     1.493039     1.000000
   37       O      4.479118     4.479118     1.000000
   38       O     10.451276     4.479118     1.000000
   39       O      7.465197     7.465197     1.000000
   40       O      7.465197    10.451276     1.000000
   41       O      7.465197     4.479118     1.000000
   42       O      4.479118     7.465197     1.000000
   43       O      1.493039    10.451276     1.000000
   44       O     10.451276     7.465197     1.000000
   45       O      1.493039     4.479118     1.000000
   46       O      1.493039     7.465197     1.000000
   47       O      1.493039     1.493039     1.000000
   48       O      4.479118     1.493039     1.000000
   49       O     10.451276    10.451276     1.000000
   50       O      8.958024     5.972369     3.159464
   51       O      8.957096     2.985772     3.160075
   52       O      8.957099     0.000309     3.160074
   53       O      2.985775     8.957095     3.160074
   54       O      5.972369     5.972370     3.159461
   55       O      5.973296     2.985772     3.160071
   56       O      5.973298     0.000306     3.160071
   57       O      2.985771     5.973300     3.160074
   58       O      2.995054     2.995062     3.154846
   59       O      2.995060    -0.008987     3.154851
   60       O      0.000306     8.957096     3.160075
   61       O      0.000305     5.973300     3.160076
   62       O     -0.008988     2.995067     3.154843
   63       O     -0.008981    -0.008980     3.154848
   64       O      5.972371     8.958025     3.159463
   65       O      8.958025     8.958026     3.159462
   66       O      1.493050     1.493041     6.669078
 ---------------------------------------------------------------
 --------------------------------------------------
              Lattice Vectors (Angstroms)
              X            Y            Z
 --------------------------------------------------
   X      11.944316     0.000000     0.000000
   Y       0.000000    11.944316     0.000000
   Z       0.000000     0.000000    21.660222
 --------------------------------------------------
 --------------------------------------------------
       Reciprocal Lattice Vectors (Angstroms^-1)
              X            Y            Z
 --------------------------------------------------
   X       0.526040     0.000000     0.000000
   Y       0.000000     0.526040     0.000000
   Z       0.000000     0.000000     0.290079
 --------------------------------------------------

 Single point calculation requested

 Hamiltonian contributions:
 List of terms in Hamiltonian: kpts_nn, kpts_kinetic, kpts_vnuc_df, kpts_xc, kpts_rij_bigmem, kpts_dftd3

 K-Points calculation started.

 Basis set information about using solid harmonic (1) or Cartesian (0):
  c : D(1) 
  o : D(1) 
  mg : D(1) 

 Basis set information about using solid harmonic (1) or Cartesian (0):
  c : D(1) D(1) D(1) F(1) G(1) 
  o : D(1) D(1) D(1) F(1) G(1) 
  mg : D(1) D(1) D(1) D(1) F(1) G(1) 

 There are 1052 basis functions in the central unit cell.
 Print atomic basis of atoms in the central unit cell:
 -------------------------------------------------------------
66 984 984 460

  2.82144204878407e+00  2.82144283302041e+00  1.04473237081885e+01
  0.00000000000000e+00  0.00000000000000e+00  1.88972612462577e+00
  1.69286143624996e+01  1.12857429083331e+01  1.88972612462577e+00
  5.64287145416653e+00  1.12857429083331e+01  1.88972612462577e+00
  5.64287145416653e+00  1.69286143624996e+01  1.88972612462577e+00
  1.12857429083331e+01  0.00000000000000e+00  1.88972612462577e+00
  1.12857429083331e+01  5.64287145416653e+00  1.88972612462577e+00
  1.12857429083331e+01  1.12857429083331e+01  1.88972612462577e+00
  1.69286143624996e+01  5.64287145416653e+00  1.88972612462577e+00
  1.12857429083331e+01  1.69286143624996e+01  1.88972612462577e+00
  1.69286143624996e+01  0.00000000000000e+00  1.88972612462577e+00
  5.64287145416653e+00  5.64287145416653e+00  1.88972612462577e+00
  1.69286143624996e+01  1.69286143624996e+01  1.88972612462577e+00
  0.00000000000000e+00  1.69286143624996e+01  1.88972612462577e+00
  0.00000000000000e+00  5.64287145416653e+00  1.88972612462577e+00
  0.00000000000000e+00  1.12857429083331e+01  1.88972612462577e+00
  5.64287145416653e+00  0.00000000000000e+00  1.88972612462577e+00
  2.82142598762379e+00  2.82143180873615e+00  5.95475136225700e+00
  1.41071792886946e+01  1.97508513710652e+01  5.87976684632842e+00
  1.41071777566937e+01  1.41071775881301e+01  5.87944809545154e+00
  2.82142306006008e+00  8.46820909833439e+00  5.86880200793317e+00
  1.41071771168324e+01  8.46350173821253e+00  5.87976626089126e+00
  8.46816966201784e+00  2.82143074425342e+00  5.86879371411418e+00
  1.97470407727280e+01  8.46730510419000e+00  5.87627321421065e+00
  2.82143662300242e+00  1.41071765725913e+01  5.88008698596503e+00
  1.97470570502619e+01  1.97470651088100e+01  5.87626338914658e+00
  8.46731265534662e+00  1.97470530608611e+01  5.87627081123491e+00
  8.46350781954017e+00  1.41071793644727e+01  5.87976699240425e+00
  2.82144135808917e+00  1.97461421189496e+01  5.86880597541317e+00
  1.97508468438484e+01  1.41071779214778e+01  5.87977071837725e+00
  8.46729834331684e+00  8.46730357955896e+00  5.87626479075645e+00
  1.41071808450731e+01  2.82143476861417e+00  5.88009160048725e+00
  1.97461734105465e+01  2.82144462901612e+00  5.86878638707908e+00
  1.97500491658847e+01  2.82143480338514e+00  1.88972612462577e+00
  8.46430625755166e+00  1.97500491658847e+01  1.88972612462577e+00
  1.41071777117182e+01  2.82143480338514e+00  1.88972612462577e+00
  8.46430625755166e+00  8.46430625755166e+00  1.88972612462577e+00
  1.97500491658847e+01  8.46430625755166e+00  1.88972612462577e+00
  1.41071777117182e+01  1.41071777117182e+01  1.88972612462577e+00
  1.41071777117182e+01  1.97500491658847e+01  1.88972612462577e+00
  1.41071777117182e+01  8.46430625755166e+00  1.88972612462577e+00
  8.46430625755166e+00  1.41071777117182e+01  1.88972612462577e+00
  2.82143480338514e+00  1.97500491658847e+01  1.88972612462577e+00
  1.97500491658847e+01  1.41071777117182e+01  1.88972612462577e+00
  2.82143480338514e+00  8.46430625755166e+00  1.88972612462577e+00
  2.82143480338514e+00  1.41071777117182e+01  1.88972612462577e+00
  2.82143480338514e+00  2.82143480338514e+00  1.88972612462577e+00
  8.46430625755166e+00  2.82143480338514e+00  1.88972612462577e+00
  1.97500491658847e+01  1.97500491658847e+01  1.88972612462577e+00
  1.69282117693878e+01  1.12861409349216e+01  5.97052243767002e+00
  1.69264585871251e+01  5.64229083127940e+00  5.97167673473235e+00
  1.69264630489575e+01  5.83138868496294e-04  5.97167408609222e+00
  5.64229653277209e+00  1.69264555042259e+01  5.97167396514974e+00
  1.12861418465255e+01  1.12861428652769e+01  5.97051612844141e+00
  1.12878935937302e+01  5.64229083373604e+00  5.97166947969581e+00
  1.12878965921587e+01  5.78801380122440e-04  5.97166929582546e+00
  5.64228981044934e+00  1.12879007185646e+01  5.97167448217881e+00
  5.65983264658954e+00  5.65984760585052e+00  5.96179482373494e+00
  5.65984296921850e+00 -1.69824418263683e-02  5.96180389082986e+00
  5.78316476398861e-04  1.69264582647378e+01  5.97167546653715e+00
  5.75560688791319e-04  1.12879003668866e+01  5.97167797269194e+00
 -1.69846841753877e-02  5.65985584807999e+00  5.96178908331389e+00
 -1.69707107845318e-02 -1.69695996255705e-02  5.96179920071859e+00
  1.12861447776797e+01  1.69282142443622e+01  5.97051900762813e+00
  1.69282139533443e+01  1.69282163491391e+01  5.97051722788406e+00
  2.82145479895521e+00  2.82143809396524e+00  1.26027309991671e+01

  1.23840169380000e+03
  1.86290049920000e+02
  4.22511763460000e+01
  1.16765579320000e+01
  3.59305064820000e+00
  4.02451473630000e-01
  1.30901826680000e-01
  9.46809706210000e+00
  2.01035451420000e+00
  5.47710047070000e-01
  1.52686137950000e-01
  8.00000000000000e-01
  4.95383391960000e+03
  7.45180441540000e+02
  1.69216049720000e+02
  4.73006720190000e+01
  1.44613369730000e+01
  2.47681747890000e+01
  2.49409453490000e+00
  8.78075845330000e-01
  8.72127824970000e-02
  3.35992937800000e-02
  9.80530104940000e+01
  2.25869322770000e+01
  6.83915098420000e+00
  2.23328438180000e+00
  7.16065993870000e-01
  1.89147961950000e-01
  5.37687551870000e-02
  1.01000000000000e-01
  4.95383391960000e+03
  7.45180441540000e+02
  1.69216049720000e+02
  4.73006720190000e+01
  1.44613369730000e+01
  2.47681747890000e+01
  2.49409453490000e+00
  8.78075845330000e-01
  8.72127824970000e-02
  3.35992937800000e-02
  9.80530104940000e+01
  2.25869322770000e+01
  6.83915098420000e+00
  2.23328438180000e+00
  7.16065993870000e-01
  1.89147961950000e-01
  5.37687551870000e-02
  1.01000000000000e-01
  4.95383391960000e+03
  7.45180441540000e+02
  1.69216049720000e+02
  4.73006720190000e+01
  1.44613369730000e+01
  2.47681747890000e+01
  2.49409453490000e+00
  8.78075845330000e-01
  8.72127824970000e-02
  3.35992937800000e-02
  9.80530104940000e+01
  2.25869322770000e+01
  6.83915098420000e+00
  2.23328438180000e+00
  7.16065993870000e-01
  1.89147961950000e-01
  5.37687551870000e-02
  1.01000000000000e-01
  4.95383391960000e+03
  7.45180441540000e+02
  1.69216049720000e+02
  4.73006720190000e+01
  1.44613369730000e+01
  2.47681747890000e+01
  2.49409453490000e+00
  8.78075845330000e-01
  8.72127824970000e-02
  3.35992937800000e-02
  9.80530104940000e+01
  2.25869322770000e+01
  6.83915098420000e+00
  2.23328438180000e+00
  7.16065993870000e-01
  1.89147961950000e-01
  5.37687551870000e-02
  1.01000000000000e-01
  4.95383391960000e+03
  7.45180441540000e+02
  1.69216049720000e+02
  4.73006720190000e+01
  1.44613369730000e+01
  2.47681747890000e+01
  2.49409453490000e+00
  8.78075845330000e-01
  8.72127824970000e-02
  3.35992937800000e-02
  9.80530104940000e+01
  2.25869322770000e+01
  6.83915098420000e+00
  2.23328438180000e+00
  7.16065993870000e-01
  1.89147961950000e-01
  5.37687551870000e-02
  1.01000000000000e-01
  4.95383391960000e+03
  7.45180441540000e+02
  1.69216049720000e+02
  4.73006720190000e+01
  1.44613369730000e+01
  2.47681747890000e+01
  2.49409453490000e+00
  8.78075845330000e-01
  8.72127824970000e-02
  3.35992937800000e-02
  9.80530104940000e+01
  2.25869322770000e+01
  6.83915098420000e+00
  2.23328438180000e+00
  7.16065993870000e-01
  1.89147961950000e-01
  5.37687551870000e-02
  1.01000000000000e-01
  4.95383391960000e+03
  7.45180441540000e+02
  1.69216049720000e+02
  4.73006720190000e+01
  1.44613369730000e+01
  2.47681747890000e+01
  2.49409453490000e+00
  8.78075845330000e-01
  8.72127824970000e-02
  3.35992937800000e-02
  9.80530104940000e+01
  2.25869322770000e+01
  6.83915098420000e+00
  2.23328438180000e+00
  7.16065993870000e-01
  1.89147961950000e-01
  5.37687551870000e-02
  1.01000000000000e-01
  4.95383391960000e+03
  7.45180441540000e+02
  1.69216049720000e+02
  4.73006720190000e+01
  1.44613369730000e+01
  2.47681747890000e+01
  2.49409453490000e+00
  8.78075845330000e-01
  8.72127824970000e-02
  3.35992937800000e-02
  9.80530104940000e+01
  2.25869322770000e+01
  6.83915098420000e+00
  2.23328438180000e+00
  7.16065993870000e-01
  1.89147961950000e-01
  5.37687551870000e-02
  1.01000000000000e-01
  4.95383391960000e+03
  7.45180441540000e+02
  1.69216049720000e+02
  4.73006720190000e+01
  1.44613369730000e+01
  2.47681747890000e+01
  2.49409453490000e+00
  8.78075845330000e-01
  8.72127824970000e-02
  3.35992937800000e-02
  9.80530104940000e+01
  2.25869322770000e+01
  6.83915098420000e+00
  2.23328438180000e+00
  7.16065993870000e-01
  1.89147961950000e-01
  5.37687551870000e-02
  1.01000000000000e-01
  4.95383391960000e+03
  7.45180441540000e+02
  1.69216049720000e+02
  4.73006720190000e+01
  1.44613369730000e+01
  2.47681747890000e+01
  2.49409453490000e+00
  8.78075845330000e-01
  8.72127824970000e-02
  3.35992937800000e-02
  9.80530104940000e+01
  2.25869322770000e+01
  6.83915098420000e+00
  2.23328438180000e+00
  7.16065993870000e-01
  1.89147961950000e-01
  5.37687551870000e-02
  1.01000000000000e-01
  4.95383391960000e+03
  7.45180441540000e+02
  1.69216049720000e+02
  4.73006720190000e+01
  1.44613369730000e+01
  2.47681747890000e+01
  2.49409453490000e+00
  8.78075845330000e-01
  8.72127824970000e-02
  3.35992937800000e-02
  9.80530104940000e+01
  2.25869322770000e+01
  6.83915098420000e+00
  2.23328438180000e+00
  7.16065993870000e-01
  1.89147961950000e-01
  5.37687551870000e-02
  1.01000000000000e-01
  4.95383391960000e+03
  7.45180441540000e+02
  1.69216049720000e+02
  4.73006720190000e+01
  1.44613369730000e+01
  2.47681747890000e+01
  2.49409453490000e+00
  8.78075845330000e-01
  8.72127824970000e-02
  3.35992937800000e-02
  9.80530104940000e+01
  2.25869322770000e+01
  6.83915098420000e+00
  2.23328438180000e+00
  7.16065993870000e-01
  1.89147961950000e-01
  5.37687551870000e-02
  1.01000000000000e-01
  4.95383391960000e+03
  7.45180441540000e+02
  1.69216049720000e+02
  4.73006720190000e+01
  1.44613369730000e+01
  2.47681747890000e+01
  2.49409453490000e+00
  8.78075845330000e-01
  8.72127824970000e-02
  3.35992937800000e-02
  9.80530104940000e+01
  2.25869322770000e+01
  6.83915098420000e+00
  2.23328438180000e+00
  7.16065993870000e-01
  1.89147961950000e-01
  5.37687551870000e-02
  1.01000000000000e-01
  4.95383391960000e+03
  7.45180441540000e+02
  1.69216049720000e+02
  4.73006720190000e+01
  1.44613369730000e+01
  2.47681747890000e+01
  2.49409453490000e+00
  8.78075845330000e-01
  8.72127824970000e-02
  3.35992937800000e-02
  9.80530104940000e+01
  2.25869322770000e+01
  6.83915098420000e+00
  2.23328438180000e+00
  7.16065993870000e-01
  1.89147961950000e-01
  5.37687551870000e-02
  1.01000000000000e-01
  4.95383391960000e+03
  7.45180441540000e+02
  1.69216049720000e+02
  4.73006720190000e+01
  1.44613369730000e+01
  2.47681747890000e+01
  2.49409453490000e+00
  8.78075845330000e-01
  8.72127824970000e-02
  3.35992937800000e-02
  9.80530104940000e+01
  2.25869322770000e+01
  6.83915098420000e+00
  2.23328438180000e+00
  7.16065993870000e-01
  1.89147961950000e-01
  5.37687551870000e-02
  1.01000000000000e-01
  4.95383391960000e+03
  7.45180441540000e+02
  1.69216049720000e+02
  4.73006720190000e+01
  1.44613369730000e+01
  2.47681747890000e+01
  2.49409453490000e+00
  8.78075845330000e-01
  8.72127824970000e-02
  3.35992937800000e-02
  9.80530104940000e+01
  2.25869322770000e+01
  6.83915098420000e+00
  2.23328438180000e+00
  7.16065993870000e-01
  1.89147961950000e-01
  5.37687551870000e-02
  1.01000000000000e-01
  4.95383391960000e+03
  7.45180441540000e+02
  1.69216049720000e+02
  4.73006720190000e+01
  1.44613369730000e+01
  2.47681747890000e+01
  2.49409453490000e+00
  8.78075845330000e-01
  8.72127824970000e-02
  3.35992937800000e-02
  9.80530104940000e+01
  2.25869322770000e+01
  6.83915098420000e+00
  2.23328438180000e+00
  7.16065993870000e-01
  1.89147961950000e-01
  5.37687551870000e-02
  1.01000000000000e-01
  4.95383391960000e+03
  7.45180441540000e+02
  1.69216049720000e+02
  4.73006720190000e+01
  1.44613369730000e+01
  2.47681747890000e+01
  2.49409453490000e+00
  8.78075845330000e-01
  8.72127824970000e-02
  3.35992937800000e-02
  9.80530104940000e+01
  2.25869322770000e+01
  6.83915098420000e+00
  2.23328438180000e+00
  7.16065993870000e-01
  1.89147961950000e-01
  5.37687551870000e-02
  1.01000000000000e-01
  4.95383391960000e+03
  7.45180441540000e+02
  1.69216049720000e+02
  4.73006720190000e+01
  1.44613369730000e+01
  2.47681747890000e+01
  2.49409453490000e+00
  8.78075845330000e-01
  8.72127824970000e-02
  3.35992937800000e-02
  9.80530104940000e+01
  2.25869322770000e+01
  6.83915098420000e+00
  2.23328438180000e+00
  7.16065993870000e-01
  1.89147961950000e-01
  5.37687551870000e-02
  1.01000000000000e-01
  4.95383391960000e+03
  7.45180441540000e+02
  1.69216049720000e+02
  4.73006720190000e+01
  1.44613369730000e+01
  2.47681747890000e+01
  2.49409453490000e+00
  8.78075845330000e-01
  8.72127824970000e-02
  3.35992937800000e-02
  9.80530104940000e+01
  2.25869322770000e+01
  6.83915098420000e+00
  2.23328438180000e+00
  7.16065993870000e-01
  1.89147961950000e-01
  5.37687551870000e-02
  1.01000000000000e-01
  4.95383391960000e+03
  7.45180441540000e+02
  1.69216049720000e+02
  4.73006720190000e+01
  1.44613369730000e+01
  2.47681747890000e+01
  2.49409453490000e+00
  8.78075845330000e-01
  8.72127824970000e-02
  3.35992937800000e-02
  9.80530104940000e+01
  2.25869322770000e+01
  6.83915098420000e+00
  2.23328438180000e+00
  7.16065993870000e-01
  1.89147961950000e-01
  5.37687551870000e-02
  1.01000000000000e-01
  4.95383391960000e+03
  7.45180441540000e+02
  1.69216049720000e+02
  4.73006720190000e+01
  1.44613369730000e+01
  2.47681747890000e+01
  2.49409453490000e+00
  8.78075845330000e-01
  8.72127824970000e-02
  3.35992937800000e-02
  9.80530104940000e+01
  2.25869322770000e+01
  6.83915098420000e+00
  2.23328438180000e+00
  7.16065993870000e-01
  1.89147961950000e-01
  5.37687551870000e-02
  1.01000000000000e-01
  4.95383391960000e+03
  7.45180441540000e+02
  1.69216049720000e+02
  4.73006720190000e+01
  1.44613369730000e+01
  2.47681747890000e+01
  2.49409453490000e+00
  8.78075845330000e-01
  8.72127824970000e-02
  3.35992937800000e-02
  9.80530104940000e+01
  2.25869322770000e+01
  6.83915098420000e+00
  2.23328438180000e+00
  7.16065993870000e-01
  1.89147961950000e-01
  5.37687551870000e-02
  1.01000000000000e-01
  4.95383391960000e+03
  7.45180441540000e+02
  1.69216049720000e+02
  4.73006720190000e+01
  1.44613369730000e+01
  2.47681747890000e+01
  2.49409453490000e+00
  8.78075845330000e-01
  8.72127824970000e-02
  3.35992937800000e-02
  9.80530104940000e+01
  2.25869322770000e+01
  6.83915098420000e+00
  2.23328438180000e+00
  7.16065993870000e-01
  1.89147961950000e-01
  5.37687551870000e-02
  1.01000000000000e-01
  4.95383391960000e+03
  7.45180441540000e+02
  1.69216049720000e+02
  4.73006720190000e+01
  1.44613369730000e+01
  2.47681747890000e+01
  2.49409453490000e+00
  8.78075845330000e-01
  8.72127824970000e-02
  3.35992937800000e-02
  9.80530104940000e+01
  2.25869322770000e+01
  6.83915098420000e+00
  2.23328438180000e+00
  7.16065993870000e-01
  1.89147961950000e-01
  5.37687551870000e-02
  1.01000000000000e-01
  4.95383391960000e+03
  7.45180441540000e+02
  1.69216049720000e+02
  4.73006720190000e+01
  1.44613369730000e+01
  2.47681747890000e+01
  2.49409453490000e+00
  8.78075845330000e-01
  8.72127824970000e-02
  3.35992937800000e-02
  9.80530104940000e+01
  2.25869322770000e+01
  6.83915098420000e+00
  2.23328438180000e+00
  7.16065993870000e-01
  1.89147961950000e-01
  5.37687551870000e-02
  1.01000000000000e-01
  4.95383391960000e+03
  7.45180441540000e+02
  1.69216049720000e+02
  4.73006720190000e+01
  1.44613369730000e+01
  2.47681747890000e+01
  2.49409453490000e+00
  8.78075845330000e-01
  8.72127824970000e-02
  3.35992937800000e-02
  9.80530104940000e+01
  2.25869322770000e+01
  6.83915098420000e+00
  2.23328438180000e+00
  7.16065993870000e-01
  1.89147961950000e-01
  5.37687551870000e-02
  1.01000000000000e-01
  4.95383391960000e+03
  7.45180441540000e+02
  1.69216049720000e+02
  4.73006720190000e+01
  1.44613369730000e+01
  2.47681747890000e+01
  2.49409453490000e+00
  8.78075845330000e-01
  8.72127824970000e-02
  3.35992937800000e-02
  9.80530104940000e+01
  2.25869322770000e+01
  6.83915098420000e+00
  2.23328438180000e+00
  7.16065993870000e-01
  1.89147961950000e-01
  5.37687551870000e-02
  1.01000000000000e-01
  4.95383391960000e+03
  7.45180441540000e+02
  1.69216049720000e+02
  4.73006720190000e+01
  1.44613369730000e+01
  2.47681747890000e+01
  2.49409453490000e+00
  8.78075845330000e-01
  8.72127824970000e-02
  3.35992937800000e-02
  9.80530104940000e+01
  2.25869322770000e+01
  6.83915098420000e+00
  2.23328438180000e+00
  7.16065993870000e-01
  1.89147961950000e-01
  5.37687551870000e-02
  1.01000000000000e-01
  4.95383391960000e+03
  7.45180441540000e+02
  1.69216049720000e+02
  4.73006720190000e+01
  1.44613369730000e+01
  2.47681747890000e+01
  2.49409453490000e+00
  8.78075845330000e-01
  8.72127824970000e-02
  3.35992937800000e-02
  9.80530104940000e+01
  2.25869322770000e+01
  6.83915098420000e+00
  2.23328438180000e+00
  7.16065993870000e-01
  1.89147961950000e-01
  5.37687551870000e-02
  1.01000000000000e-01
  4.95383391960000e+03
  7.45180441540000e+02
  1.69216049720000e+02
  4.73006720190000e+01
  1.44613369730000e+01
  2.47681747890000e+01
  2.49409453490000e+00
  8.78075845330000e-01
  8.72127824970000e-02
  3.35992937800000e-02
  9.80530104940000e+01
  2.25869322770000e+01
  6.83915098420000e+00
  2.23328438180000e+00
  7.16065993870000e-01
  1.89147961950000e-01
  5.37687551870000e-02
  1.01000000000000e-01
  4.95383391960000e+03
  7.45180441540000e+02
  1.69216049720000e+02
  4.73006720190000e+01
  1.44613369730000e+01
  2.47681747890000e+01
  2.49409453490000e+00
  8.78075845330000e-01
  8.72127824970000e-02
  3.35992937800000e-02
  9.80530104940000e+01
  2.25869322770000e+01
  6.83915098420000e+00
  2.23328438180000e+00
  7.16065993870000e-01
  1.89147961950000e-01
  5.37687551870000e-02
  1.01000000000000e-01
  2.26617677850000e+03
  3.40870101910000e+02
  7.73631351670000e+01
  2.14796449400000e+01
  6.65894331240000e+00
  8.09759756680000e-01
  2.55307722340000e-01
  1.77215043170000e+01
  3.86355054400000e+00
  1.04809208830000e+00
  2.76415444110000e-01
  1.20000000000000e+00
  2.26617677850000e+03
  3.40870101910000e+02
  7.73631351670000e+01
  2.14796449400000e+01
  6.65894331240000e+00
  8.09759756680000e-01
  2.55307722340000e-01
  1.77215043170000e+01
  3.86355054400000e+00
  1.04809208830000e+00
  2.76415444110000e-01
  1.20000000000000e+00
  2.26617677850000e+03
  3.40870101910000e+02
  7.73631351670000e+01
  2.14796449400000e+01
  6.65894331240000e+00
  8.09759756680000e-01
  2.55307722340000e-01
  1.77215043170000e+01
  3.86355054400000e+00
  1.04809208830000e+00
  2.76415444110000e-01
  1.20000000000000e+00
  2.26617677850000e+03
  3.40870101910000e+02
  7.73631351670000e+01
  2.14796449400000e+01
  6.65894331240000e+00
  8.09759756680000e-01
  2.55307722340000e-01
  1.77215043170000e+01
  3.86355054400000e+00
  1.04809208830000e+00
  2.76415444110000e-01
  1.20000000000000e+00
  2.26617677850000e+03
  3.40870101910000e+02
  7.73631351670000e+01
  2.14796449400000e+01
  6.65894331240000e+00
  8.09759756680000e-01
  2.55307722340000e-01
  1.77215043170000e+01
  3.86355054400000e+00
  1.04809208830000e+00
  2.76415444110000e-01
  1.20000000000000e+00
  2.26617677850000e+03
  3.40870101910000e+02
  7.73631351670000e+01
  2.14796449400000e+01
  6.65894331240000e+00
  8.09759756680000e-01
  2.55307722340000e-01
  1.77215043170000e+01
  3.86355054400000e+00
  1.04809208830000e+00
  2.76415444110000e-01
  1.20000000000000e+00
  2.26617677850000e+03
  3.40870101910000e+02
  7.73631351670000e+01
  2.14796449400000e+01
  6.65894331240000e+00
  8.09759756680000e-01
  2.55307722340000e-01
  1.77215043170000e+01
  3.86355054400000e+00
  1.04809208830000e+00
  2.76415444110000e-01
  1.20000000000000e+00
  2.26617677850000e+03
  3.40870101910000e+02
  7.73631351670000e+01
  2.14796449400000e+01
  6.65894331240000e+00
  8.09759756680000e-01
  2.55307722340000e-01
  1.77215043170000e+01
  3.86355054400000e+00
  1.04809208830000e+00
  2.76415444110000e-01
  1.20000000000000e+00
  2.26617677850000e+03
  3.40870101910000e+02
  7.73631351670000e+01
  2.14796449400000e+01
  6.65894331240000e+00
  8.09759756680000e-01
  2.55307722340000e-01
  1.77215043170000e+01
  3.86355054400000e+00
  1.04809208830000e+00
  2.76415444110000e-01
  1.20000000000000e+00
  2.26617677850000e+03
  3.40870101910000e+02
  7.73631351670000e+01
  2.14796449400000e+01
  6.65894331240000e+00
  8.09759756680000e-01
  2.55307722340000e-01
  1.77215043170000e+01
  3.86355054400000e+00
  1.04809208830000e+00
  2.76415444110000e-01
  1.20000000000000e+00
  2.26617677850000e+03
  3.40870101910000e+02
  7.73631351670000e+01
  2.14796449400000e+01
  6.65894331240000e+00
  8.09759756680000e-01
  2.55307722340000e-01
  1.77215043170000e+01
  3.86355054400000e+00
  1.04809208830000e+00
  2.76415444110000e-01
  1.20000000000000e+00
  2.26617677850000e+03
  3.40870101910000e+02
  7.73631351670000e+01
  2.14796449400000e+01
  6.65894331240000e+00
  8.09759756680000e-01
  2.55307722340000e-01
  1.77215043170000e+01
  3.86355054400000e+00
  1.04809208830000e+00
  2.76415444110000e-01
  1.20000000000000e+00
  2.26617677850000e+03
  3.40870101910000e+02
  7.73631351670000e+01
  2.14796449400000e+01
  6.65894331240000e+00
  8.09759756680000e-01
  2.55307722340000e-01
  1.77215043170000e+01
  3.86355054400000e+00
  1.04809208830000e+00
  2.76415444110000e-01
  1.20000000000000e+00
  2.26617677850000e+03
  3.40870101910000e+02
  7.73631351670000e+01
  2.14796449400000e+01
  6.65894331240000e+00
  8.09759756680000e-01
  2.55307722340000e-01
  1.77215043170000e+01
  3.86355054400000e+00
  1.04809208830000e+00
  2.76415444110000e-01
  1.20000000000000e+00
  2.26617677850000e+03
  3.40870101910000e+02
  7.73631351670000e+01
  2.14796449400000e+01
  6.65894331240000e+00
  8.09759756680000e-01
  2.55307722340000e-01
  1.77215043170000e+01
  3.86355054400000e+00
  1.04809208830000e+00
  2.76415444110000e-01
  1.20000000000000e+00
  2.26617677850000e+03
  3.40870101910000e+02
  7.73631351670000e+01
  2.14796449400000e+01
  6.65894331240000e+00
  8.09759756680000e-01
  2.55307722340000e-01
  1.77215043170000e+01
  3.86355054400000e+00
  1.04809208830000e+00
  2.76415444110000e-01
  1.20000000000000e+00
  2.26617677850000e+03
  3.40870101910000e+02
  7.73631351670000e+01
  2.14796449400000e+01
  6.65894331240000e+00
  8.09759756680000e-01
  2.55307722340000e-01
  1.77215043170000e+01
  3.86355054400000e+00
  1.04809208830000e+00
  2.76415444110000e-01
  1.20000000000000e+00
  2.26617677850000e+03
  3.40870101910000e+02
  7.73631351670000e+01
  2.14796449400000e+01
  6.65894331240000e+00
  8.09759756680000e-01
  2.55307722340000e-01
  1.77215043170000e+01
  3.86355054400000e+00
  1.04809208830000e+00
  2.76415444110000e-01
  1.20000000000000e+00
  2.26617677850000e+03
  3.40870101910000e+02
  7.73631351670000e+01
  2.14796449400000e+01
  6.65894331240000e+00
  8.09759756680000e-01
  2.55307722340000e-01
  1.77215043170000e+01
  3.86355054400000e+00
  1.04809208830000e+00
  2.76415444110000e-01
  1.20000000000000e+00
  2.26617677850000e+03
  3.40870101910000e+02
  7.73631351670000e+01
  2.14796449400000e+01
  6.65894331240000e+00
  8.09759756680000e-01
  2.55307722340000e-01
  1.77215043170000e+01
  3.86355054400000e+00
  1.04809208830000e+00
  2.76415444110000e-01
  1.20000000000000e+00
  2.26617677850000e+03
  3.40870101910000e+02
  7.73631351670000e+01
  2.14796449400000e+01
  6.65894331240000e+00
  8.09759756680000e-01
  2.55307722340000e-01
  1.77215043170000e+01
  3.86355054400000e+00
  1.04809208830000e+00
  2.76415444110000e-01
  1.20000000000000e+00
  2.26617677850000e+03
  3.40870101910000e+02
  7.73631351670000e+01
  2.14796449400000e+01
  6.65894331240000e+00
  8.09759756680000e-01
  2.55307722340000e-01
  1.77215043170000e+01
  3.86355054400000e+00
  1.04809208830000e+00
  2.76415444110000e-01
  1.20000000000000e+00
  2.26617677850000e+03
  3.40870101910000e+02
  7.73631351670000e+01
  2.14796449400000e+01
  6.65894331240000e+00
  8.09759756680000e-01
  2.55307722340000e-01
  1.77215043170000e+01
  3.86355054400000e+00
  1.04809208830000e+00
  2.76415444110000e-01
  1.20000000000000e+00
  2.26617677850000e+03
  3.40870101910000e+02
  7.73631351670000e+01
  2.14796449400000e+01
  6.65894331240000e+00
  8.09759756680000e-01
  2.55307722340000e-01
  1.77215043170000e+01
  3.86355054400000e+00
  1.04809208830000e+00
  2.76415444110000e-01
  1.20000000000000e+00
  2.26617677850000e+03
  3.40870101910000e+02
  7.73631351670000e+01
  2.14796449400000e+01
  6.65894331240000e+00
  8.09759756680000e-01
  2.55307722340000e-01
  1.77215043170000e+01
  3.86355054400000e+00
  1.04809208830000e+00
  2.76415444110000e-01
  1.20000000000000e+00
  2.26617677850000e+03
  3.40870101910000e+02
  7.73631351670000e+01
  2.14796449400000e+01
  6.65894331240000e+00
  8.09759756680000e-01
  2.55307722340000e-01
  1.77215043170000e+01
  3.86355054400000e+00
  1.04809208830000e+00
  2.76415444110000e-01
  1.20000000000000e+00
  2.26617677850000e+03
  3.40870101910000e+02
  7.73631351670000e+01
  2.14796449400000e+01
  6.65894331240000e+00
  8.09759756680000e-01
  2.55307722340000e-01
  1.77215043170000e+01
  3.86355054400000e+00
  1.04809208830000e+00
  2.76415444110000e-01
  1.20000000000000e+00
  2.26617677850000e+03
  3.40870101910000e+02
  7.73631351670000e+01
  2.14796449400000e+01
  6.65894331240000e+00
  8.09759756680000e-01
  2.55307722340000e-01
  1.77215043170000e+01
  3.86355054400000e+00
  1.04809208830000e+00
  2.76415444110000e-01
  1.20000000000000e+00
  2.26617677850000e+03
  3.40870101910000e+02
  7.73631351670000e+01
  2.14796449400000e+01
  6.65894331240000e+00
  8.09759756680000e-01
  2.55307722340000e-01
  1.77215043170000e+01
  3.86355054400000e+00
  1.04809208830000e+00
  2.76415444110000e-01
  1.20000000000000e+00
  2.26617677850000e+03
  3.40870101910000e+02
  7.73631351670000e+01
  2.14796449400000e+01
  6.65894331240000e+00
  8.09759756680000e-01
  2.55307722340000e-01
  1.77215043170000e+01
  3.86355054400000e+00
  1.04809208830000e+00
  2.76415444110000e-01
  1.20000000000000e+00
  2.26617677850000e+03
  3.40870101910000e+02
  7.73631351670000e+01
  2.14796449400000e+01
  6.65894331240000e+00
  8.09759756680000e-01
  2.55307722340000e-01
  1.77215043170000e+01
  3.86355054400000e+00
  1.04809208830000e+00
  2.76415444110000e-01
  1.20000000000000e+00
  2.26617677850000e+03
  3.40870101910000e+02
  7.73631351670000e+01
  2.14796449400000e+01
  6.65894331240000e+00
  8.09759756680000e-01
  2.55307722340000e-01
  1.77215043170000e+01
  3.86355054400000e+00
  1.04809208830000e+00
  2.76415444110000e-01
  1.20000000000000e+00
  2.26617677850000e+03
  3.40870101910000e+02
  7.73631351670000e+01
  2.14796449400000e+01
  6.65894331240000e+00
  8.09759756680000e-01
  2.55307722340000e-01
  1.77215043170000e+01
  3.86355054400000e+00
  1.04809208830000e+00
  2.76415444110000e-01
  1.20000000000000e+00

  8.20895669410958e-01
  1.47664498991869e+00
  2.15261240541564e+00
  2.10817224619016e+00
  8.29099993344712e-01
  3.60118335141541e-01
  1.55102705167793e-01
  1.34676451509605e+00
  1.06780709307136e+00
  5.10873571389181e-01
  1.36047197699030e-01
  1.11382492806461e+00
 -2.41155510664628e+00
 -4.34754533639739e+00
 -6.38989945415292e+00
 -6.20123558645160e+00
 -2.23041848741379e+00
  6.89329009754862e-01
 -7.72831038735158e-01
 -3.42198452089929e-01
  1.14378711358884e-01
  5.59316593651876e-02
 -6.36871403187631e+00
 -6.70263696777189e+00
 -4.85366376571172e+00
 -1.94328465977958e+00
 -2.95794352475873e-01
  1.77804263529115e-01
  3.69064748804282e-02
  2.97832344563160e-02
 -2.41155510664628e+00
 -4.34754533639739e+00
 -6.38989945415292e+00
 -6.20123558645160e+00
 -2.23041848741379e+00
  6.89329009754862e-01
 -7.72831038735158e-01
 -3.42198452089929e-01
  1.14378711358884e-01
  5.59316593651876e-02
 -6.36871403187631e+00
 -6.70263696777189e+00
 -4.85366376571172e+00
 -1.94328465977958e+00
 -2.95794352475873e-01
  1.77804263529115e-01
  3.69064748804282e-02
  2.97832344563160e-02
 -2.41155510664628e+00
 -4.34754533639739e+00
 -6.38989945415292e+00
 -6.20123558645160e+00
 -2.23041848741379e+00
  6.89329009754862e-01
 -7.72831038735158e-01
 -3.42198452089929e-01
  1.14378711358884e-01
  5.59316593651876e-02
 -6.36871403187631e+00
 -6.70263696777189e+00
 -4.85366376571172e+00
 -1.94328465977958e+00
 -2.95794352475873e-01
  1.77804263529115e-01
  3.69064748804282e-02
  2.97832344563160e-02
 -2.41155510664628e+00
 -4.34754533639739e+00
 -6.38989945415292e+00
 -6.20123558645160e+00
 -2.23041848741379e+00
  6.89329009754862e-01
 -7.72831038735158e-01
 -3.42198452089929e-01
  1.14378711358884e-01
  5.59316593651876e-02
 -6.36871403187631e+00
 -6.70263696777189e+00
 -4.85366376571172e+00
 -1.94328465977958e+00
 -2.95794352475873e-01
  1.77804263529115e-01
  3.69064748804282e-02
  2.97832344563160e-02
 -2.41155510664628e+00
 -4.34754533639739e+00
 -6.38989945415292e+00
 -6.20123558645160e+00
 -2.23041848741379e+00
  6.89329009754862e-01
 -7.72831038735158e-01
 -3.42198452089929e-01
  1.14378711358884e-01
  5.59316593651876e-02
 -6.36871403187631e+00
 -6.70263696777189e+00
 -4.85366376571172e+00
 -1.94328465977958e+00
 -2.95794352475873e-01
  1.77804263529115e-01
  3.69064748804282e-02
  2.97832344563160e-02
 -2.41155510664628e+00
 -4.34754533639739e+00
 -6.38989945415292e+00
 -6.20123558645160e+00
 -2.23041848741379e+00
  6.89329009754862e-01
 -7.72831038735158e-01
 -3.42198452089929e-01
  1.14378711358884e-01
  5.59316593651876e-02
 -6.36871403187631e+00
 -6.70263696777189e+00
 -4.85366376571172e+00
 -1.94328465977958e+00
 -2.95794352475873e-01
  1.77804263529115e-01
  3.69064748804282e-02
  2.97832344563160e-02
 -2.41155510664628e+00
 -4.34754533639739e+00
 -6.38989945415292e+00
 -6.20123558645160e+00
 -2.23041848741379e+00
  6.89329009754862e-01
 -7.72831038735158e-01
 -3.42198452089929e-01
  1.14378711358884e-01
  5.59316593651876e-02
 -6.36871403187631e+00
 -6.70263696777189e+00
 -4.85366376571172e+00
 -1.94328465977958e+00
 -2.95794352475873e-01
  1.77804263529115e-01
  3.69064748804282e-02
  2.97832344563160e-02
 -2.41155510664628e+00
 -4.34754533639739e+00
 -6.38989945415292e+00
 -6.20123558645160e+00
 -2.23041848741379e+00
  6.89329009754862e-01
 -7.72831038735158e-01
 -3.42198452089929e-01
  1.14378711358884e-01
  5.59316593651876e-02
 -6.36871403187631e+00
 -6.70263696777189e+00
 -4.85366376571172e+00
 -1.94328465977958e+00
 -2.95794352475873e-01
  1.77804263529115e-01
  3.69064748804282e-02
  2.97832344563160e-02
 -2.41155510664628e+00
 -4.34754533639739e+00
 -6.38989945415292e+00
 -6.20123558645160e+00
 -2.23041848741379e+00
  6.89329009754862e-01
 -7.72831038735158e-01
 -3.42198452089929e-01
  1.14378711358884e-01
  5.59316593651876e-02
 -6.36871403187631e+00
 -6.70263696777189e+00
 -4.85366376571172e+00
 -1.94328465977958e+00
 -2.95794352475873e-01
  1.77804263529115e-01
  3.69064748804282e-02
  2.97832344563160e-02
 -2.41155510664628e+00
 -4.34754533639739e+00
 -6.38989945415292e+00
 -6.20123558645160e+00
 -2.23041848741379e+00
  6.89329009754862e-01
 -7.72831038735158e-01
 -3.42198452089929e-01
  1.14378711358884e-01
  5.59316593651876e-02
 -6.36871403187631e+00
 -6.70263696777189e+00
 -4.85366376571172e+00
 -1.94328465977958e+00
 -2.95794352475873e-01
  1.77804263529115e-01
  3.69064748804282e-02
  2.97832344563160e-02
 -2.41155510664628e+00
 -4.34754533639739e+00
 -6.38989945415292e+00
 -6.20123558645160e+00
 -2.23041848741379e+00
  6.89329009754862e-01
 -7.72831038735158e-01
 -3.42198452089929e-01
  1.14378711358884e-01
  5.59316593651876e-02
 -6.36871403187631e+00
 -6.70263696777189e+00
 -4.85366376571172e+00
 -1.94328465977958e+00
 -2.95794352475873e-01
  1.77804263529115e-01
  3.69064748804282e-02
  2.97832344563160e-02
 -2.41155510664628e+00
 -4.34754533639739e+00
 -6.38989945415292e+00
 -6.20123558645160e+00
 -2.23041848741379e+00
  6.89329009754862e-01
 -7.72831038735158e-01
 -3.42198452089929e-01
  1.14378711358884e-01
  5.59316593651876e-02
 -6.36871403187631e+00
 -6.70263696777189e+00
 -4.85366376571172e+00
 -1.94328465977958e+00
 -2.95794352475873e-01
  1.77804263529115e-01
  3.69064748804282e-02
  2.97832344563160e-02
 -2.41155510664628e+00
 -4.34754533639739e+00
 -6.38989945415292e+00
 -6.20123558645160e+00
 -2.23041848741379e+00
  6.89329009754862e-01
 -7.72831038735158e-01
 -3.42198452089929e-01
  1.14378711358884e-01
  5.59316593651876e-02
 -6.36871403187631e+00
 -6.70263696777189e+00
 -4.85366376571172e+00
 -1.94328465977958e+00
 -2.95794352475873e-01
  1.77804263529115e-01
  3.69064748804282e-02
  2.97832344563160e-02
 -2.41155510664628e+00
 -4.34754533639739e+00
 -6.38989945415292e+00
 -6.20123558645160e+00
 -2.23041848741379e+00
  6.89329009754862e-01
 -7.72831038735158e-01
 -3.42198452089929e-01
  1.14378711358884e-01
  5.59316593651876e-02
 -6.36871403187631e+00
 -6.70263696777189e+00
 -4.85366376571172e+00
 -1.94328465977958e+00
 -2.95794352475873e-01
  1.77804263529115e-01
  3.69064748804282e-02
  2.97832344563160e-02
 -2.41155510664628e+00
 -4.34754533639739e+00
 -6.38989945415292e+00
 -6.20123558645160e+00
 -2.23041848741379e+00
  6.89329009754862e-01
 -7.72831038735158e-01
 -3.42198452089929e-01
  1.14378711358884e-01
  5.59316593651876e-02
 -6.36871403187631e+00
 -6.70263696777189e+00
 -4.85366376571172e+00
 -1.94328465977958e+00
 -2.95794352475873e-01
  1.77804263529115e-01
  3.69064748804282e-02
  2.97832344563160e-02
 -2.41155510664628e+00
 -4.34754533639739e+00
 -6.38989945415292e+00
 -6.20123558645160e+00
 -2.23041848741379e+00
  6.89329009754862e-01
 -7.72831038735158e-01
 -3.42198452089929e-01
  1.14378711358884e-01
  5.59316593651876e-02
 -6.36871403187631e+00
 -6.70263696777189e+00
 -4.85366376571172e+00
 -1.94328465977958e+00
 -2.95794352475873e-01
  1.77804263529115e-01
  3.69064748804282e-02
  2.97832344563160e-02
 -2.41155510664628e+00
 -4.34754533639739e+00
 -6.38989945415292e+00
 -6.20123558645160e+00
 -2.23041848741379e+00
  6.89329009754862e-01
 -7.72831038735158e-01
 -3.42198452089929e-01
  1.14378711358884e-01
  5.59316593651876e-02
 -6.36871403187631e+00
 -6.70263696777189e+00
 -4.85366376571172e+00
 -1.94328465977958e+00
 -2.95794352475873e-01
  1.77804263529115e-01
  3.69064748804282e-02
  2.97832344563160e-02
 -2.41155510664628e+00
 -4.34754533639739e+00
 -6.38989945415292e+00
 -6.20123558645160e+00
 -2.23041848741379e+00
  6.89329009754862e-01
 -7.72831038735158e-01
 -3.42198452089929e-01
  1.14378711358884e-01
  5.59316593651876e-02
 -6.36871403187631e+00
 -6.70263696777189e+00
 -4.85366376571172e+00
 -1.94328465977958e+00
 -2.95794352475873e-01
  1.77804263529115e-01
  3.69064748804282e-02
  2.97832344563160e-02
 -2.41155510664628e+00
 -4.34754533639739e+00
 -6.38989945415292e+00
 -6.20123558645160e+00
 -2.23041848741379e+00
  6.89329009754862e-01
 -7.72831038735158e-01
 -3.42198452089929e-01
  1.14378711358884e-01
  5.59316593651876e-02
 -6.36871403187631e+00
 -6.70263696777189e+00
 -4.85366376571172e+00
 -1.94328465977958e+00
 -2.95794352475873e-01
  1.77804263529115e-01
  3.69064748804282e-02
  2.97832344563160e-02
 -2.41155510664628e+00
 -4.34754533639739e+00
 -6.38989945415292e+00
 -6.20123558645160e+00
 -2.23041848741379e+00
  6.89329009754862e-01
 -7.72831038735158e-01
 -3.42198452089929e-01
  1.14378711358884e-01
  5.59316593651876e-02
 -6.36871403187631e+00
 -6.70263696777189e+00
 -4.85366376571172e+00
 -1.94328465977958e+00
 -2.95794352475873e-01
  1.77804263529115e-01
  3.69064748804282e-02
  2.97832344563160e-02
 -2.41155510664628e+00
 -4.34754533639739e+00
 -6.38989945415292e+00
 -6.20123558645160e+00
 -2.23041848741379e+00
  6.89329009754862e-01
 -7.72831038735158e-01
 -3.42198452089929e-01
  1.14378711358884e-01
  5.59316593651876e-02
 -6.36871403187631e+00
 -6.70263696777189e+00
 -4.85366376571172e+00
 -1.94328465977958e+00
 -2.95794352475873e-01
  1.77804263529115e-01
  3.69064748804282e-02
  2.97832344563160e-02
 -2.41155510664628e+00
 -4.34754533639739e+00
 -6.38989945415292e+00
 -6.20123558645160e+00
 -2.23041848741379e+00
  6.89329009754862e-01
 -7.72831038735158e-01
 -3.42198452089929e-01
  1.14378711358884e-01
  5.59316593651876e-02
 -6.36871403187631e+00
 -6.70263696777189e+00
 -4.85366376571172e+00
 -1.94328465977958e+00
 -2.95794352475873e-01
  1.77804263529115e-01
  3.69064748804282e-02
  2.97832344563160e-02
 -2.41155510664628e+00
 -4.34754533639739e+00
 -6.38989945415292e+00
 -6.20123558645160e+00
 -2.23041848741379e+00
  6.89329009754862e-01
 -7.72831038735158e-01
 -3.42198452089929e-01
  1.14378711358884e-01
  5.59316593651876e-02
 -6.36871403187631e+00
 -6.70263696777189e+00
 -4.85366376571172e+00
 -1.94328465977958e+00
 -2.95794352475873e-01
  1.77804263529115e-01
  3.69064748804282e-02
  2.97832344563160e-02
 -2.41155510664628e+00
 -4.34754533639739e+00
 -6.38989945415292e+00
 -6.20123558645160e+00
 -2.23041848741379e+00
  6.89329009754862e-01
 -7.72831038735158e-01
 -3.42198452089929e-01
  1.14378711358884e-01
  5.59316593651876e-02
 -6.36871403187631e+00
 -6.70263696777189e+00
 -4.85366376571172e+00
 -1.94328465977958e+00
 -2.95794352475873e-01
  1.77804263529115e-01
  3.69064748804282e-02
  2.97832344563160e-02
 -2.41155510664628e+00
 -4.34754533639739e+00
 -6.38989945415292e+00
 -6.20123558645160e+00
 -2.23041848741379e+00
  6.89329009754862e-01
 -7.72831038735158e-01
 -3.42198452089929e-01
  1.14378711358884e-01
  5.59316593651876e-02
 -6.36871403187631e+00
 -6.70263696777189e+00
 -4.85366376571172e+00
 -1.94328465977958e+00
 -2.95794352475873e-01
  1.77804263529115e-01
  3.69064748804282e-02
  2.97832344563160e-02
 -2.41155510664628e+00
 -4.34754533639739e+00
 -6.38989945415292e+00
 -6.20123558645160e+00
 -2.23041848741379e+00
  6.89329009754862e-01
 -7.72831038735158e-01
 -3.42198452089929e-01
  1.14378711358884e-01
  5.59316593651876e-02
 -6.36871403187631e+00
 -6.70263696777189e+00
 -4.85366376571172e+00
 -1.94328465977958e+00
 -2.95794352475873e-01
  1.77804263529115e-01
  3.69064748804282e-02
  2.97832344563160e-02
 -2.41155510664628e+00
 -4.34754533639739e+00
 -6.38989945415292e+00
 -6.20123558645160e+00
 -2.23041848741379e+00
  6.89329009754862e-01
 -7.72831038735158e-01
 -3.42198452089929e-01
  1.14378711358884e-01
  5.59316593651876e-02
 -6.36871403187631e+00
 -6.70263696777189e+00
 -4.85366376571172e+00
 -1.94328465977958e+00
 -2.95794352475873e-01
  1.77804263529115e-01
  3.69064748804282e-02
  2.97832344563160e-02
 -2.41155510664628e+00
 -4.34754533639739e+00
 -6.38989945415292e+00
 -6.20123558645160e+00
 -2.23041848741379e+00
  6.89329009754862e-01
 -7.72831038735158e-01
 -3.42198452089929e-01
  1.14378711358884e-01
  5.59316593651876e-02
 -6.36871403187631e+00
 -6.70263696777189e+00
 -4.85366376571172e+00
 -1.94328465977958e+00
 -2.95794352475873e-01
  1.77804263529115e-01
  3.69064748804282e-02
  2.97832344563160e-02
 -2.41155510664628e+00
 -4.34754533639739e+00
 -6.38989945415292e+00
 -6.20123558645160e+00
 -2.23041848741379e+00
  6.89329009754862e-01
 -7.72831038735158e-01
 -3.42198452089929e-01
  1.14378711358884e-01
  5.59316593651876e-02
 -6.36871403187631e+00
 -6.70263696777189e+00
 -4.85366376571172e+00
 -1.94328465977958e+00
 -2.95794352475873e-01
  1.77804263529115e-01
  3.69064748804282e-02
  2.97832344563160e-02
 -2.41155510664628e+00
 -4.34754533639739e+00
 -6.38989945415292e+00
 -6.20123558645160e+00
 -2.23041848741379e+00
  6.89329009754862e-01
 -7.72831038735158e-01
 -3.42198452089929e-01
  1.14378711358884e-01
  5.59316593651876e-02
 -6.36871403187631e+00
 -6.70263696777189e+00
 -4.85366376571172e+00
 -1.94328465977958e+00
 -2.95794352475873e-01
  1.77804263529115e-01
  3.69064748804282e-02
  2.97832344563160e-02
 -2.41155510664628e+00
 -4.34754533639739e+00
 -6.38989945415292e+00
 -6.20123558645160e+00
 -2.23041848741379e+00
  6.89329009754862e-01
 -7.72831038735158e-01
 -3.42198452089929e-01
  1.14378711358884e-01
  5.59316593651876e-02
 -6.36871403187631e+00
 -6.70263696777189e+00
 -4.85366376571172e+00
 -1.94328465977958e+00
 -2.95794352475873e-01
  1.77804263529115e-01
  3.69064748804282e-02
  2.97832344563160e-02
 -2.41155510664628e+00
 -4.34754533639739e+00
 -6.38989945415292e+00
 -6.20123558645160e+00
 -2.23041848741379e+00
  6.89329009754862e-01
 -7.72831038735158e-01
 -3.42198452089929e-01
  1.14378711358884e-01
  5.59316593651876e-02
 -6.36871403187631e+00
 -6.70263696777189e+00
 -4.85366376571172e+00
 -1.94328465977958e+00
 -2.95794352475873e-01
  1.77804263529115e-01
  3.69064748804282e-02
  2.97832344563160e-02
 -1.26158597249017e+00
 -2.27485004274182e+00
 -3.34796232864976e+00
 -3.32999805309706e+00
 -1.32038282889920e+00
  6.08383230068131e-01
  2.55981191146438e-01
  3.24601076418758e+00
  2.57349591726613e+00
  1.12083728924890e+00
  2.85688638066086e-01
  2.26452248250699e+00
 -1.26158597249017e+00
 -2.27485004274182e+00
 -3.34796232864976e+00
 -3.32999805309706e+00
 -1.32038282889920e+00
  6.08383230068131e-01
  2.55981191146438e-01
  3.24601076418758e+00
  2.57349591726613e+00
  1.12083728924890e+00
  2.85688638066086e-01
  2.26452248250699e+00
 -1.26158597249017e+00
 -2.27485004274182e+00
 -3.34796232864976e+00
 -3.32999805309706e+00
 -1.32038282889920e+00
  6.08383230068131e-01
  2.55981191146438e-01
  3.24601076418758e+00
  2.57349591726613e+00
  1.12083728924890e+00
  2.85688638066086e-01
  2.26452248250699e+00
 -1.26158597249017e+00
 -2.27485004274182e+00
 -3.34796232864976e+00
 -3.32999805309706e+00
 -1.32038282889920e+00
  6.08383230068131e-01
  2.55981191146438e-01
  3.24601076418758e+00
  2.57349591726613e+00
  1.12083728924890e+00
  2.85688638066086e-01
  2.26452248250699e+00
 -1.26158597249017e+00
 -2.27485004274182e+00
 -3.34796232864976e+00
 -3.32999805309706e+00
 -1.32038282889920e+00
  6.08383230068131e-01
  2.55981191146438e-01
  3.24601076418758e+00
  2.57349591726613e+00
  1.12083728924890e+00
  2.85688638066086e-01
  2.26452248250699e+00
 -1.26158597249017e+00
 -2.27485004274182e+00
 -3.34796232864976e+00
 -3.32999805309706e+00
 -1.32038282889920e+00
  6.08383230068131e-01
  2.55981191146438e-01
  3.24601076418758e+00
  2.57349591726613e+00
  1.12083728924890e+00
  2.85688638066086e-01
  2.26452248250699e+00
 -1.26158597249017e+00
 -2.27485004274182e+00
 -3.34796232864976e+00
 -3.32999805309706e+00
 -1.32038282889920e+00
  6.08383230068131e-01
  2.55981191146438e-01
  3.24601076418758e+00
  2.57349591726613e+00
  1.12083728924890e+00
  2.85688638066086e-01
  2.26452248250699e+00
 -1.26158597249017e+00
 -2.27485004274182e+00
 -3.34796232864976e+00
 -3.32999805309706e+00
 -1.32038282889920e+00
  6.08383230068131e-01
  2.55981191146438e-01
  3.24601076418758e+00
  2.57349591726613e+00
  1.12083728924890e+00
  2.85688638066086e-01
  2.26452248250699e+00
 -1.26158597249017e+00
 -2.27485004274182e+00
 -3.34796232864976e+00
 -3.32999805309706e+00
 -1.32038282889920e+00
  6.08383230068131e-01
  2.55981191146438e-01
  3.24601076418758e+00
  2.57349591726613e+00
  1.12083728924890e+00
  2.85688638066086e-01
  2.26452248250699e+00
 -1.26158597249017e+00
 -2.27485004274182e+00
 -3.34796232864976e+00
 -3.32999805309706e+00
 -1.32038282889920e+00
  6.08383230068131e-01
  2.55981191146438e-01
  3.24601076418758e+00
  2.57349591726613e+00
  1.12083728924890e+00
  2.85688638066086e-01
  2.26452248250699e+00
 -1.26158597249017e+00
 -2.27485004274182e+00
 -3.34796232864976e+00
 -3.32999805309706e+00
 -1.32038282889920e+00
  6.08383230068131e-01
  2.55981191146438e-01
  3.24601076418758e+00
  2.57349591726613e+00
  1.12083728924890e+00
  2.85688638066086e-01
  2.26452248250699e+00
 -1.26158597249017e+00
 -2.27485004274182e+00
 -3.34796232864976e+00
 -3.32999805309706e+00
 -1.32038282889920e+00
  6.08383230068131e-01
  2.55981191146438e-01
  3.24601076418758e+00
  2.57349591726613e+00
  1.12083728924890e+00
  2.85688638066086e-01
  2.26452248250699e+00
 -1.26158597249017e+00
 -2.27485004274182e+00
 -3.34796232864976e+00
 -3.32999805309706e+00
 -1.32038282889920e+00
  6.08383230068131e-01
  2.55981191146438e-01
  3.24601076418758e+00
  2.57349591726613e+00
  1.12083728924890e+00
  2.85688638066086e-01
  2.26452248250699e+00
 -1.26158597249017e+00
 -2.27485004274182e+00
 -3.34796232864976e+00
 -3.32999805309706e+00
 -1.32038282889920e+00
  6.08383230068131e-01
  2.55981191146438e-01
  3.24601076418758e+00
  2.57349591726613e+00
  1.12083728924890e+00
  2.85688638066086e-01
  2.26452248250699e+00
 -1.26158597249017e+00
 -2.27485004274182e+00
 -3.34796232864976e+00
 -3.32999805309706e+00
 -1.32038282889920e+00
  6.08383230068131e-01
  2.55981191146438e-01
  3.24601076418758e+00
  2.57349591726613e+00
  1.12083728924890e+00
  2.85688638066086e-01
  2.26452248250699e+00
 -1.26158597249017e+00
 -2.27485004274182e+00
 -3.34796232864976e+00
 -3.32999805309706e+00
 -1.32038282889920e+00
  6.08383230068131e-01
  2.55981191146438e-01
  3.24601076418758e+00
  2.57349591726613e+00
  1.12083728924890e+00
  2.85688638066086e-01
  2.26452248250699e+00
 -1.26158597249017e+00
 -2.27485004274182e+00
 -3.34796232864976e+00
 -3.32999805309706e+00
 -1.32038282889920e+00
  6.08383230068131e-01
  2.55981191146438e-01
  3.24601076418758e+00
  2.57349591726613e+00
  1.12083728924890e+00
  2.85688638066086e-01
  2.26452248250699e+00
 -1.26158597249017e+00
 -2.27485004274182e+00
 -3.34796232864976e+00
 -3.32999805309706e+00
 -1.32038282889920e+00
  6.08383230068131e-01
  2.55981191146438e-01
  3.24601076418758e+00
  2.57349591726613e+00
  1.12083728924890e+00
  2.85688638066086e-01
  2.26452248250699e+00
 -1.26158597249017e+00
 -2.27485004274182e+00
 -3.34796232864976e+00
 -3.32999805309706e+00
 -1.32038282889920e+00
  6.08383230068131e-01
  2.55981191146438e-01
  3.24601076418758e+00
  2.57349591726613e+00
  1.12083728924890e+00
  2.85688638066086e-01
  2.26452248250699e+00
 -1.26158597249017e+00
 -2.27485004274182e+00
 -3.34796232864976e+00
 -3.32999805309706e+00
 -1.32038282889920e+00
  6.08383230068131e-01
  2.55981191146438e-01
  3.24601076418758e+00
  2.57349591726613e+00
  1.12083728924890e+00
  2.85688638066086e-01
  2.26452248250699e+00
 -1.26158597249017e+00
 -2.27485004274182e+00
 -3.34796232864976e+00
 -3.32999805309706e+00
 -1.32038282889920e+00
  6.08383230068131e-01
  2.55981191146438e-01
  3.24601076418758e+00
  2.57349591726613e+00
  1.12083728924890e+00
  2.85688638066086e-01
  2.26452248250699e+00
 -1.26158597249017e+00
 -2.27485004274182e+00
 -3.34796232864976e+00
 -3.32999805309706e+00
 -1.32038282889920e+00
  6.08383230068131e-01
  2.55981191146438e-01
  3.24601076418758e+00
  2.57349591726613e+00
  1.12083728924890e+00
  2.85688638066086e-01
  2.26452248250699e+00
 -1.26158597249017e+00
 -2.27485004274182e+00
 -3.34796232864976e+00
 -3.32999805309706e+00
 -1.32038282889920e+00
  6.08383230068131e-01
  2.55981191146438e-01
  3.24601076418758e+00
  2.57349591726613e+00
  1.12083728924890e+00
  2.85688638066086e-01
  2.26452248250699e+00
 -1.26158597249017e+00
 -2.27485004274182e+00
 -3.34796232864976e+00
 -3.32999805309706e+00
 -1.32038282889920e+00
  6.08383230068131e-01
  2.55981191146438e-01
  3.24601076418758e+00
  2.57349591726613e+00
  1.12083728924890e+00
  2.85688638066086e-01
  2.26452248250699e+00
 -1.26158597249017e+00
 -2.27485004274182e+00
 -3.34796232864976e+00
 -3.32999805309706e+00
 -1.32038282889920e+00
  6.08383230068131e-01
  2.55981191146438e-01
  3.24601076418758e+00
  2.57349591726613e+00
  1.12083728924890e+00
  2.85688638066086e-01
  2.26452248250699e+00
 -1.26158597249017e+00
 -2.27485004274182e+00
 -3.34796232864976e+00
 -3.32999805309706e+00
 -1.32038282889920e+00
  6.08383230068131e-01
  2.55981191146438e-01
  3.24601076418758e+00
  2.57349591726613e+00
  1.12083728924890e+00
  2.85688638066086e-01
  2.26452248250699e+00
 -1.26158597249017e+00
 -2.27485004274182e+00
 -3.34796232864976e+00
 -3.32999805309706e+00
 -1.32038282889920e+00
  6.08383230068131e-01
  2.55981191146438e-01
  3.24601076418758e+00
  2.57349591726613e+00
  1.12083728924890e+00
  2.85688638066086e-01
  2.26452248250699e+00
 -1.26158597249017e+00
 -2.27485004274182e+00
 -3.34796232864976e+00
 -3.32999805309706e+00
 -1.32038282889920e+00
  6.08383230068131e-01
  2.55981191146438e-01
  3.24601076418758e+00
  2.57349591726613e+00
  1.12083728924890e+00
  2.85688638066086e-01
  2.26452248250699e+00
 -1.26158597249017e+00
 -2.27485004274182e+00
 -3.34796232864976e+00
 -3.32999805309706e+00
 -1.32038282889920e+00
  6.08383230068131e-01
  2.55981191146438e-01
  3.24601076418758e+00
  2.57349591726613e+00
  1.12083728924890e+00
  2.85688638066086e-01
  2.26452248250699e+00
 -1.26158597249017e+00
 -2.27485004274182e+00
 -3.34796232864976e+00
 -3.32999805309706e+00
 -1.32038282889920e+00
  6.08383230068131e-01
  2.55981191146438e-01
  3.24601076418758e+00
  2.57349591726613e+00
  1.12083728924890e+00
  2.85688638066086e-01
  2.26452248250699e+00
 -1.26158597249017e+00
 -2.27485004274182e+00
 -3.34796232864976e+00
 -3.32999805309706e+00
 -1.32038282889920e+00
  6.08383230068131e-01
  2.55981191146438e-01
  3.24601076418758e+00
  2.57349591726613e+00
  1.12083728924890e+00
  2.85688638066086e-01
  2.26452248250699e+00
 -1.26158597249017e+00
 -2.27485004274182e+00
 -3.34796232864976e+00
 -3.32999805309706e+00
 -1.32038282889920e+00
  6.08383230068131e-01
  2.55981191146438e-01
  3.24601076418758e+00
  2.57349591726613e+00
  1.12083728924890e+00
  2.85688638066086e-01
  2.26452248250699e+00
 -1.26158597249017e+00
 -2.27485004274182e+00
 -3.34796232864976e+00
 -3.32999805309706e+00
 -1.32038282889920e+00
  6.08383230068131e-01
  2.55981191146438e-01
  3.24601076418758e+00
  2.57349591726613e+00
  1.12083728924890e+00
  2.85688638066086e-01
  2.26452248250699e+00

0 0 0 0 1 1 1
0 0 
5 0

0 1 1 5 1 1 1
5 0 
1 0

0 2 2 6 1 1 1
6 0 
1 0

0 3 3 7 1 3 3
7 1 
3 0

0 6 6 10 1 3 3
10 1 
1 0

0 9 9 11 1 5 6
11 2 
1 1

1 14 14 12 1 1 1
12 0 
5 0

1 15 15 17 1 1 1
17 0 
3 0

1 16 16 20 1 1 1
20 0 
1 0

1 17 17 21 1 1 1
21 0 
1 0

1 18 18 22 1 3 3
22 1 
5 0

1 21 21 27 1 3 3
27 1 
1 0

1 24 24 28 1 3 3
28 1 
1 0

1 27 27 29 1 5 6
29 2 
1 1

2 32 32 30 1 1 1
30 0 
5 0

2 33 33 35 1 1 1
35 0 
3 0

2 34 34 38 1 1 1
38 0 
1 0

2 35 35 39 1 1 1
39 0 
1 0

2 36 36 40 1 3 3
40 1 
5 0

2 39 39 45 1 3 3
45 1 
1 0

2 42 42 46 1 3 3
46 1 
1 0

2 45 45 47 1 5 6
47 2 
1 1

3 50 50 48 1 1 1
48 0 
5 0

3 51 51 53 1 1 1
53 0 
3 0

3 52 52 56 1 1 1
56 0 
1 0

3 53 53 57 1 1 1
57 0 
1 0

3 54 54 58 1 3 3
58 1 
5 0

3 57 57 63 1 3 3
63 1 
1 0

3 60 60 64 1 3 3
64 1 
1 0

3 63 63 65 1 5 6
65 2 
1 1

4 68 68 66 1 1 1
66 0 
5 0

4 69 69 71 1 1 1
71 0 
3 0

4 70 70 74 1 1 1
74 0 
1 0

4 71 71 75 1 1 1
75 0 
1 0

4 72 72 76 1 3 3
76 1 
5 0

4 75 75 81 1 3 3
81 1 
1 0

4 78 78 82 1 3 3
82 1 
1 0

4 81 81 83 1 5 6
83 2 
1 1

5 86 86 84 1 1 1
84 0 
5 0

5 87 87 89 1 1 1
89 0 
3 0

5 88 88 92 1 1 1
92 0 
1 0

5 89 89 93 1 1 1
93 0 
1 0

5 90 90 94 1 3 3
94 1 
5 0

5 93 93 99 1 3 3
99 1 
1 0

5 96 96 100 1 3 3
100 1 
1 0

5 99 99 101 1 5 6
101 2 
1 1

6 104 104 102 1 1 1
102 0 
5 0

6 105 105 107 1 1 1
107 0 
3 0

6 106 106 110 1 1 1
110 0 
1 0

6 107 107 111 1 1 1
111 0 
1 0

6 108 108 112 1 3 3
112 1 
5 0

6 111 111 117 1 3 3
117 1 
1 0

6 114 114 118 1 3 3
118 1 
1 0

6 117 117 119 1 5 6
119 2 
1 1

7 122 122 120 1 1 1
120 0 
5 0

7 123 123 125 1 1 1
125 0 
3 0

7 124 124 128 1 1 1
128 0 
1 0

7 125 125 129 1 1 1
129 0 
1 0

7 126 126 130 1 3 3
130 1 
5 0

7 129 129 135 1 3 3
135 1 
1 0

7 132 132 136 1 3 3
136 1 
1 0

7 135 135 137 1 5 6
137 2 
1 1

8 140 140 138 1 1 1
138 0 
5 0

8 141 141 143 1 1 1
143 0 
3 0

8 142 142 146 1 1 1
146 0 
1 0

8 143 143 147 1 1 1
147 0 
1 0

8 144 144 148 1 3 3
148 1 
5 0

8 147 147 153 1 3 3
153 1 
1 0

8 150 150 154 1 3 3
154 1 
1 0

8 153 153 155 1 5 6
155 2 
1 1

9 158 158 156 1 1 1
156 0 
5 0

9 159 159 161 1 1 1
161 0 
3 0

9 160 160 164 1 1 1
164 0 
1 0

9 161 161 165 1 1 1
165 0 
1 0

9 162 162 166 1 3 3
166 1 
5 0

9 165 165 171 1 3 3
171 1 
1 0

9 168 168 172 1 3 3
172 1 
1 0

9 171 171 173 1 5 6
173 2 
1 1

10 176 176 174 1 1 1
174 0 
5 0

10 177 177 179 1 1 1
179 0 
3 0

10 178 178 182 1 1 1
182 0 
1 0

10 179 179 183 1 1 1
183 0 
1 0

10 180 180 184 1 3 3
184 1 
5 0

10 183 183 189 1 3 3
189 1 
1 0

10 186 186 190 1 3 3
190 1 
1 0

10 189 189 191 1 5 6
191 2 
1 1

11 194 194 192 1 1 1
192 0 
5 0

11 195 195 197 1 1 1
197 0 
3 0

11 196 196 200 1 1 1
200 0 
1 0

11 197 197 201 1 1 1
201 0 
1 0

11 198 198 202 1 3 3
202 1 
5 0

11 201 201 207 1 3 3
207 1 
1 0

11 204 204 208 1 3 3
208 1 
1 0

11 207 207 209 1 5 6
209 2 
1 1

12 212 212 210 1 1 1
210 0 
5 0

12 213 213 215 1 1 1
215 0 
3 0

12 214 214 218 1 1 1
218 0 
1 0

12 215 215 219 1 1 1
219 0 
1 0

12 216 216 220 1 3 3
220 1 
5 0

12 219 219 225 1 3 3
225 1 
1 0

12 222 222 226 1 3 3
226 1 
1 0

12 225 225 227 1 5 6
227 2 
1 1

13 230 230 228 1 1 1
228 0 
5 0

13 231 231 233 1 1 1
233 0 
3 0

13 232 232 236 1 1 1
236 0 
1 0

13 233 233 237 1 1 1
237 0 
1 0

13 234 234 238 1 3 3
238 1 
5 0

13 237 237 243 1 3 3
243 1 
1 0

13 240 240 244 1 3 3
244 1 
1 0

13 243 243 245 1 5 6
245 2 
1 1

14 248 248 246 1 1 1
246 0 
5 0

14 249 249 251 1 1 1
251 0 
3 0

14 250 250 254 1 1 1
254 0 
1 0

14 251 251 255 1 1 1
255 0 
1 0

14 252 252 256 1 3 3
256 1 
5 0

14 255 255 261 1 3 3
261 1 
1 0

14 258 258 262 1 3 3
262 1 
1 0

14 261 261 263 1 5 6
263 2 
1 1

15 266 266 264 1 1 1
264 0 
5 0

15 267 267 269 1 1 1
269 0 
3 0

15 268 268 272 1 1 1
272 0 
1 0

15 269 269 273 1 1 1
273 0 
1 0

15 270 270 274 1 3 3
274 1 
5 0

15 273 273 279 1 3 3
279 1 
1 0

15 276 276 280 1 3 3
280 1 
1 0

15 279 279 281 1 5 6
281 2 
1 1

16 284 284 282 1 1 1
282 0 
5 0

16 285 285 287 1 1 1
287 0 
3 0

16 286 286 290 1 1 1
290 0 
1 0

16 287 287 291 1 1 1
291 0 
1 0

16 288 288 292 1 3 3
292 1 
5 0

16 291 291 297 1 3 3
297 1 
1 0

16 294 294 298 1 3 3
298 1 
1 0

16 297 297 299 1 5 6
299 2 
1 1

17 302 302 300 1 1 1
300 0 
5 0

17 303 303 305 1 1 1
305 0 
3 0

17 304 304 308 1 1 1
308 0 
1 0

17 305 305 309 1 1 1
309 0 
1 0

17 306 306 310 1 3 3
310 1 
5 0

17 309 309 315 1 3 3
315 1 
1 0

17 312 312 316 1 3 3
316 1 
1 0

17 315 315 317 1 5 6
317 2 
1 1

18 320 320 318 1 1 1
318 0 
5 0

18 321 321 323 1 1 1
323 0 
3 0

18 322 322 326 1 1 1
326 0 
1 0

18 323 323 327 1 1 1
327 0 
1 0

18 324 324 328 1 3 3
328 1 
5 0

18 327 327 333 1 3 3
333 1 
1 0

18 330 330 334 1 3 3
334 1 
1 0

18 333 333 335 1 5 6
335 2 
1 1

19 338 338 336 1 1 1
336 0 
5 0

19 339 339 341 1 1 1
341 0 
3 0

19 340 340 344 1 1 1
344 0 
1 0

19 341 341 345 1 1 1
345 0 
1 0

19 342 342 346 1 3 3
346 1 
5 0

19 345 345 351 1 3 3
351 1 
1 0

19 348 348 352 1 3 3
352 1 
1 0

19 351 351 353 1 5 6
353 2 
1 1

20 356 356 354 1 1 1
354 0 
5 0

20 357 357 359 1 1 1
359 0 
3 0

20 358 358 362 1 1 1
362 0 
1 0

20 359 359 363 1 1 1
363 0 
1 0

20 360 360 364 1 3 3
364 1 
5 0

20 363 363 369 1 3 3
369 1 
1 0

20 366 366 370 1 3 3
370 1 
1 0

20 369 369 371 1 5 6
371 2 
1 1

21 374 374 372 1 1 1
372 0 
5 0

21 375 375 377 1 1 1
377 0 
3 0

21 376 376 380 1 1 1
380 0 
1 0

21 377 377 381 1 1 1
381 0 
1 0

21 378 378 382 1 3 3
382 1 
5 0

21 381 381 387 1 3 3
387 1 
1 0

21 384 384 388 1 3 3
388 1 
1 0

21 387 387 389 1 5 6
389 2 
1 1

22 392 392 390 1 1 1
390 0 
5 0

22 393 393 395 1 1 1
395 0 
3 0

22 394 394 398 1 1 1
398 0 
1 0

22 395 395 399 1 1 1
399 0 
1 0

22 396 396 400 1 3 3
400 1 
5 0

22 399 399 405 1 3 3
405 1 
1 0

22 402 402 406 1 3 3
406 1 
1 0

22 405 405 407 1 5 6
407 2 
1 1

23 410 410 408 1 1 1
408 0 
5 0

23 411 411 413 1 1 1
413 0 
3 0

23 412 412 416 1 1 1
416 0 
1 0

23 413 413 417 1 1 1
417 0 
1 0

23 414 414 418 1 3 3
418 1 
5 0

23 417 417 423 1 3 3
423 1 
1 0

23 420 420 424 1 3 3
424 1 
1 0

23 423 423 425 1 5 6
425 2 
1 1

24 428 428 426 1 1 1
426 0 
5 0

24 429 429 431 1 1 1
431 0 
3 0

24 430 430 434 1 1 1
434 0 
1 0

24 431 431 435 1 1 1
435 0 
1 0

24 432 432 436 1 3 3
436 1 
5 0

24 435 435 441 1 3 3
441 1 
1 0

24 438 438 442 1 3 3
442 1 
1 0

24 441 441 443 1 5 6
443 2 
1 1

25 446 446 444 1 1 1
444 0 
5 0

25 447 447 449 1 1 1
449 0 
3 0

25 448 448 452 1 1 1
452 0 
1 0

25 449 449 453 1 1 1
453 0 
1 0

25 450 450 454 1 3 3
454 1 
5 0

25 453 453 459 1 3 3
459 1 
1 0

25 456 456 460 1 3 3
460 1 
1 0

25 459 459 461 1 5 6
461 2 
1 1

26 464 464 462 1 1 1
462 0 
5 0

26 465 465 467 1 1 1
467 0 
3 0

26 466 466 470 1 1 1
470 0 
1 0

26 467 467 471 1 1 1
471 0 
1 0

26 468 468 472 1 3 3
472 1 
5 0

26 471 471 477 1 3 3
477 1 
1 0

26 474 474 478 1 3 3
478 1 
1 0

26 477 477 479 1 5 6
479 2 
1 1

27 482 482 480 1 1 1
480 0 
5 0

27 483 483 485 1 1 1
485 0 
3 0

27 484 484 488 1 1 1
488 0 
1 0

27 485 485 489 1 1 1
489 0 
1 0

27 486 486 490 1 3 3
490 1 
5 0

27 489 489 495 1 3 3
495 1 
1 0

27 492 492 496 1 3 3
496 1 
1 0

27 495 495 497 1 5 6
497 2 
1 1

28 500 500 498 1 1 1
498 0 
5 0

28 501 501 503 1 1 1
503 0 
3 0

28 502 502 506 1 1 1
506 0 
1 0

28 503 503 507 1 1 1
507 0 
1 0

28 504 504 508 1 3 3
508 1 
5 0

28 507 507 513 1 3 3
513 1 
1 0

28 510 510 514 1 3 3
514 1 
1 0

28 513 513 515 1 5 6
515 2 
1 1

29 518 518 516 1 1 1
516 0 
5 0

29 519 519 521 1 1 1
521 0 
3 0

29 520 520 524 1 1 1
524 0 
1 0

29 521 521 525 1 1 1
525 0 
1 0

29 522 522 526 1 3 3
526 1 
5 0

29 525 525 531 1 3 3
531 1 
1 0

29 528 528 532 1 3 3
532 1 
1 0

29 531 531 533 1 5 6
533 2 
1 1

30 536 536 534 1 1 1
534 0 
5 0

30 537 537 539 1 1 1
539 0 
3 0

30 538 538 542 1 1 1
542 0 
1 0

30 539 539 543 1 1 1
543 0 
1 0

30 540 540 544 1 3 3
544 1 
5 0

30 543 543 549 1 3 3
549 1 
1 0

30 546 546 550 1 3 3
550 1 
1 0

30 549 549 551 1 5 6
551 2 
1 1

31 554 554 552 1 1 1
552 0 
5 0

31 555 555 557 1 1 1
557 0 
3 0

31 556 556 560 1 1 1
560 0 
1 0

31 557 557 561 1 1 1
561 0 
1 0

31 558 558 562 1 3 3
562 1 
5 0

31 561 561 567 1 3 3
567 1 
1 0

31 564 564 568 1 3 3
568 1 
1 0

31 567 567 569 1 5 6
569 2 
1 1

32 572 572 570 1 1 1
570 0 
5 0

32 573 573 575 1 1 1
575 0 
3 0

32 574 574 578 1 1 1
578 0 
1 0

32 575 575 579 1 1 1
579 0 
1 0

32 576 576 580 1 3 3
580 1 
5 0

32 579 579 585 1 3 3
585 1 
1 0

32 582 582 586 1 3 3
586 1 
1 0

32 585 585 587 1 5 6
587 2 
1 1

33 590 590 588 1 1 1
588 0 
5 0

33 591 591 593 1 1 1
593 0 
1 0

33 592 592 594 1 1 1
594 0 
1 0

33 593 593 595 1 3 3
595 1 
3 0

33 596 596 598 1 3 3
598 1 
1 0

33 599 599 599 1 5 6
599 2 
1 1

34 604 604 600 1 1 1
600 0 
5 0

34 605 605 605 1 1 1
605 0 
1 0

34 606 606 606 1 1 1
606 0 
1 0

34 607 607 607 1 3 3
607 1 
3 0

34 610 610 610 1 3 3
610 1 
1 0

34 613 613 611 1 5 6
611 2 
1 1

35 618 618 612 1 1 1
612 0 
5 0

35 619 619 617 1 1 1
617 0 
1 0

35 620 620 618 1 1 1
618 0 
1 0

35 621 621 619 1 3 3
619 1 
3 0

35 624 624 622 1 3 3
622 1 
1 0

35 627 627 623 1 5 6
623 2 
1 1

36 632 632 624 1 1 1
624 0 
5 0

36 633 633 629 1 1 1
629 0 
1 0

36 634 634 630 1 1 1
630 0 
1 0

36 635 635 631 1 3 3
631 1 
3 0

36 638 638 634 1 3 3
634 1 
1 0

36 641 641 635 1 5 6
635 2 
1 1

37 646 646 636 1 1 1
636 0 
5 0

37 647 647 641 1 1 1
641 0 
1 0

37 648 648 642 1 1 1
642 0 
1 0

37 649 649 643 1 3 3
643 1 
3 0

37 652 652 646 1 3 3
646 1 
1 0

37 655 655 647 1 5 6
647 2 
1 1

38 660 660 648 1 1 1
648 0 
5 0

38 661 661 653 1 1 1
653 0 
1 0

38 662 662 654 1 1 1
654 0 
1 0

38 663 663 655 1 3 3
655 1 
3 0

38 666 666 658 1 3 3
658 1 
1 0

38 669 669 659 1 5 6
659 2 
1 1

39 674 674 660 1 1 1
660 0 
5 0

39 675 675 665 1 1 1
665 0 
1 0

39 676 676 666 1 1 1
666 0 
1 0

39 677 677 667 1 3 3
667 1 
3 0

39 680 680 670 1 3 3
670 1 
1 0

39 683 683 671 1 5 6
671 2 
1 1

40 688 688 672 1 1 1
672 0 
5 0

40 689 689 677 1 1 1
677 0 
1 0

40 690 690 678 1 1 1
678 0 
1 0

40 691 691 679 1 3 3
679 1 
3 0

40 694 694 682 1 3 3
682 1 
1 0

40 697 697 683 1 5 6
683 2 
1 1

41 702 702 684 1 1 1
684 0 
5 0

41 703 703 689 1 1 1
689 0 
1 0

41 704 704 690 1 1 1
690 0 
1 0

41 705 705 691 1 3 3
691 1 
3 0

41 708 708 694 1 3 3
694 1 
1 0

41 711 711 695 1 5 6
695 2 
1 1

42 716 716 696 1 1 1
696 0 
5 0

42 717 717 701 1 1 1
701 0 
1 0

42 718 718 702 1 1 1
702 0 
1 0

42 719 719 703 1 3 3
703 1 
3 0

42 722 722 706 1 3 3
706 1 
1 0

42 725 725 707 1 5 6
707 2 
1 1

43 730 730 708 1 1 1
708 0 
5 0

43 731 731 713 1 1 1
713 0 
1 0

43 732 732 714 1 1 1
714 0 
1 0

43 733 733 715 1 3 3
715 1 
3 0

43 736 736 718 1 3 3
718 1 
1 0

43 739 739 719 1 5 6
719 2 
1 1

44 744 744 720 1 1 1
720 0 
5 0

44 745 745 725 1 1 1
725 0 
1 0

44 746 746 726 1 1 1
726 0 
1 0

44 747 747 727 1 3 3
727 1 
3 0

44 750 750 730 1 3 3
730 1 
1 0

44 753 753 731 1 5 6
731 2 
1 1

45 758 758 732 1 1 1
732 0 
5 0

45 759 759 737 1 1 1
737 0 
1 0

45 760 760 738 1 1 1
738 0 
1 0

45 761 761 739 1 3 3
739 1 
3 0

45 764 764 742 1 3 3
742 1 
1 0

45 767 767 743 1 5 6
743 2 
1 1

46 772 772 744 1 1 1
744 0 
5 0

46 773 773 749 1 1 1
749 0 
1 0

46 774 774 750 1 1 1
750 0 
1 0

46 775 775 751 1 3 3
751 1 
3 0

46 778 778 754 1 3 3
754 1 
1 0

46 781 781 755 1 5 6
755 2 
1 1

47 786 786 756 1 1 1
756 0 
5 0

47 787 787 761 1 1 1
761 0 
1 0

47 788 788 762 1 1 1
762 0 
1 0

47 789 789 763 1 3 3
763 1 
3 0

47 792 792 766 1 3 3
766 1 
1 0

47 795 795 767 1 5 6
767 2 
1 1

48 800 800 768 1 1 1
768 0 
5 0

48 801 801 773 1 1 1
773 0 
1 0

48 802 802 774 1 1 1
774 0 
1 0

48 803 803 775 1 3 3
775 1 
3 0

48 806 806 778 1 3 3
778 1 
1 0

48 809 809 779 1 5 6
779 2 
1 1

49 814 814 780 1 1 1
780 0 
5 0

49 815 815 785 1 1 1
785 0 
1 0

49 816 816 786 1 1 1
786 0 
1 0

49 817 817 787 1 3 3
787 1 
3 0

49 820 820 790 1 3 3
790 1 
1 0

49 823 823 791 1 5 6
791 2 
1 1

50 828 828 792 1 1 1
792 0 
5 0

50 829 829 797 1 1 1
797 0 
1 0

50 830 830 798 1 1 1
798 0 
1 0

50 831 831 799 1 3 3
799 1 
3 0

50 834 834 802 1 3 3
802 1 
1 0

50 837 837 803 1 5 6
803 2 
1 1

51 842 842 804 1 1 1
804 0 
5 0

51 843 843 809 1 1 1
809 0 
1 0

51 844 844 810 1 1 1
810 0 
1 0

51 845 845 811 1 3 3
811 1 
3 0

51 848 848 814 1 3 3
814 1 
1 0

51 851 851 815 1 5 6
815 2 
1 1

52 856 856 816 1 1 1
816 0 
5 0

52 857 857 821 1 1 1
821 0 
1 0

52 858 858 822 1 1 1
822 0 
1 0

52 859 859 823 1 3 3
823 1 
3 0

52 862 862 826 1 3 3
826 1 
1 0

52 865 865 827 1 5 6
827 2 
1 1

53 870 870 828 1 1 1
828 0 
5 0

53 871 871 833 1 1 1
833 0 
1 0

53 872 872 834 1 1 1
834 0 
1 0

53 873 873 835 1 3 3
835 1 
3 0

53 876 876 838 1 3 3
838 1 
1 0

53 879 879 839 1 5 6
839 2 
1 1

54 884 884 840 1 1 1
840 0 
5 0

54 885 885 845 1 1 1
845 0 
1 0

54 886 886 846 1 1 1
846 0 
1 0

54 887 887 847 1 3 3
847 1 
3 0

54 890 890 850 1 3 3
850 1 
1 0

54 893 893 851 1 5 6
851 2 
1 1

55 898 898 852 1 1 1
852 0 
5 0

55 899 899 857 1 1 1
857 0 
1 0

55 900 900 858 1 1 1
858 0 
1 0

55 901 901 859 1 3 3
859 1 
3 0

55 904 904 862 1 3 3
862 1 
1 0

55 907 907 863 1 5 6
863 2 
1 1

56 912 912 864 1 1 1
864 0 
5 0

56 913 913 869 1 1 1
869 0 
1 0

56 914 914 870 1 1 1
870 0 
1 0

56 915 915 871 1 3 3
871 1 
3 0

56 918 918 874 1 3 3
874 1 
1 0

56 921 921 875 1 5 6
875 2 
1 1

57 926 926 876 1 1 1
876 0 
5 0

57 927 927 881 1 1 1
881 0 
1 0

57 928 928 882 1 1 1
882 0 
1 0

57 929 929 883 1 3 3
883 1 
3 0

57 932 932 886 1 3 3
886 1 
1 0

57 935 935 887 1 5 6
887 2 
1 1

58 940 940 888 1 1 1
888 0 
5 0

58 941 941 893 1 1 1
893 0 
1 0

58 942 942 894 1 1 1
894 0 
1 0

58 943 943 895 1 3 3
895 1 
3 0

58 946 946 898 1 3 3
898 1 
1 0

58 949 949 899 1 5 6
899 2 
1 1

59 954 954 900 1 1 1
900 0 
5 0

59 955 955 905 1 1 1
905 0 
1 0

59 956 956 906 1 1 1
906 0 
1 0

59 957 957 907 1 3 3
907 1 
3 0

59 960 960 910 1 3 3
910 1 
1 0

59 963 963 911 1 5 6
911 2 
1 1

60 968 968 912 1 1 1
912 0 
5 0

60 969 969 917 1 1 1
917 0 
1 0

60 970 970 918 1 1 1
918 0 
1 0

60 971 971 919 1 3 3
919 1 
3 0

60 974 974 922 1 3 3
922 1 
1 0

60 977 977 923 1 5 6
923 2 
1 1

61 982 982 924 1 1 1
924 0 
5 0

61 983 983 929 1 1 1
929 0 
1 0

61 984 984 930 1 1 1
930 0 
1 0

61 985 985 931 1 3 3
931 1 
3 0

61 988 988 934 1 3 3
934 1 
1 0

61 991 991 935 1 5 6
935 2 
1 1

62 996 996 936 1 1 1
936 0 
5 0

62 997 997 941 1 1 1
941 0 
1 0

62 998 998 942 1 1 1
942 0 
1 0

62 999 999 943 1 3 3
943 1 
3 0

62 1002 1002 946 1 3 3
946 1 
1 0

62 1005 1005 947 1 5 6
947 2 
1 1

63 1010 1010 948 1 1 1
948 0 
5 0

63 1011 1011 953 1 1 1
953 0 
1 0

63 1012 1012 954 1 1 1
954 0 
1 0

63 1013 1013 955 1 3 3
955 1 
3 0

63 1016 1016 958 1 3 3
958 1 
1 0

63 1019 1019 959 1 5 6
959 2 
1 1

64 1024 1024 960 1 1 1
960 0 
5 0

64 1025 1025 965 1 1 1
965 0 
1 0

64 1026 1026 966 1 1 1
966 0 
1 0

64 1027 1027 967 1 3 3
967 1 
3 0

64 1030 1030 970 1 3 3
970 1 
1 0

64 1033 1033 971 1 5 6
971 2 
1 1

65 1038 1038 972 1 1 1
972 0 
5 0

65 1039 1039 977 1 1 1
977 0 
1 0

65 1040 1040 978 1 1 1
978 0 
1 0

65 1041 1041 979 1 3 3
979 1 
3 0

65 1044 1044 982 1 3 3
982 1 
1 0

65 1047 1047 983 1 5 6
983 2 
1 1

 -------------------------------------------------------------
 Allocate 18336512 B from available memory: 524288000000 B
 There are 245 image cells after screening.
 There are 140 image cells for CGTO evaluation after screening.
 Real-Space grid for FFT initialized based on kinetic energy cutoff (eV) = 500.0
 Real-Space grid for FFT: (31,31,56)
 There are 448497 real-space grid points.
 There are 2197 batches of real-space grid points. 
 Size of each grid batch is around 128
 Grid for AFT initialized based on kinetic energy cutoff (eV) = 500.0
 Real-Space grid for AFT: (31,31,56)
 There are 448497 real-space grid points.

 There are 184876 atom-centered grid points.

 Adding empirical dispersion correction 
 ----------------------------------------------------------------
 Doing -D3(BJ) with
 s6  =   1.00000e+00
 s8  =   7.87500e-01
 a1  =   4.28900e-01
 a2  =   4.44070e+00
 ----------------------------------------------------------------
 Spacegroup symmetry group: P4mm
 Reducing spacegroup symmetry to symmorphic group: C m = C 1 m 1
 Monkhorst-Pack mesh is [1,1,1]
 There are 1 k points.
kpoints in Bohr
0.0000000000 0.0000000000 0.0000000000
 There are 327 alpha and 327 beta electrons
 Start computing overlap matrix
 Allocate 17707264 B from available memory: 524269663488 B
 Time for computing overlap matrix: 13.7380000000 s
 ====== Initialize compute kernels for all-electron RI-J (kpts) ====== 
 ==== The unitcell is non-orthorombic! => Use AFT non-orthorombic code ==== 
 ========================================================== 
 Range-separated parameter omega        = 0.450000000000000011
 Threshold for 1e2c shellpair           = 0.000000000000010000
 Threshold for 2e2c SR integral         = 0.000000000000000001
 Threshold for 2e3c SR integral         = 0.000000000100000000
 Threshold for AFT G-space screening is = 0.000000000001000000
 The exponent cutoff for C/D classification (omega2 / 2) is  = 0.000010000000000000
 ========================================================== 
 === Process the basis set for RI calculation (exp_cutoff = 0.000010000000000000 ) === 
nshells_b1 before uncontraction = 460
nshells_b1 after uncontraction = 460
nshells_baux before uncontraction = 1086
nshells_baux after uncontraction = 1086
===============================================
nbsf total   = 1052
nbsf compact = 1052
nbsf diffuse = 0
naux total   = 3458
naux compact = 3458
naux diffuse = 0
nshells_bnuc = 66

 Number of unique atoms is 3
 Unique atom #0 (c) has 6 shells.
 Unique atom #1 (o) has 6 shells.
 Unique atom #2 (mg) has 8 shells.

Shell 0 to 5 belongs to atom c
Shell 6 to 13 belongs to atom mg
Shell 14 to 21 belongs to atom mg
Shell 22 to 29 belongs to atom mg
Shell 30 to 37 belongs to atom mg
Shell 38 to 45 belongs to atom mg
Shell 46 to 53 belongs to atom mg
Shell 54 to 61 belongs to atom mg
Shell 62 to 69 belongs to atom mg
Shell 70 to 77 belongs to atom mg
Shell 78 to 85 belongs to atom mg
Shell 86 to 93 belongs to atom mg
Shell 94 to 101 belongs to atom mg
Shell 102 to 109 belongs to atom mg
Shell 110 to 117 belongs to atom mg
Shell 118 to 125 belongs to atom mg
Shell 126 to 133 belongs to atom mg
Shell 134 to 141 belongs to atom mg
Shell 142 to 149 belongs to atom mg
Shell 150 to 157 belongs to atom mg
Shell 158 to 165 belongs to atom mg
Shell 166 to 173 belongs to atom mg
Shell 174 to 181 belongs to atom mg
Shell 182 to 189 belongs to atom mg
Shell 190 to 197 belongs to atom mg
Shell 198 to 205 belongs to atom mg
Shell 206 to 213 belongs to atom mg
Shell 214 to 221 belongs to atom mg
Shell 222 to 229 belongs to atom mg
Shell 230 to 237 belongs to atom mg
Shell 238 to 245 belongs to atom mg
Shell 246 to 253 belongs to atom mg
Shell 254 to 261 belongs to atom mg
Shell 262 to 267 belongs to atom o
Shell 268 to 273 belongs to atom o
Shell 274 to 279 belongs to atom o
Shell 280 to 285 belongs to atom o
Shell 286 to 291 belongs to atom o
Shell 292 to 297 belongs to atom o
Shell 298 to 303 belongs to atom o
Shell 304 to 309 belongs to atom o
Shell 310 to 315 belongs to atom o
Shell 316 to 321 belongs to atom o
Shell 322 to 327 belongs to atom o
Shell 328 to 333 belongs to atom o
Shell 334 to 339 belongs to atom o
Shell 340 to 345 belongs to atom o
Shell 346 to 351 belongs to atom o
Shell 352 to 357 belongs to atom o
Shell 358 to 363 belongs to atom o
Shell 364 to 369 belongs to atom o
Shell 370 to 375 belongs to atom o
Shell 376 to 381 belongs to atom o
Shell 382 to 387 belongs to atom o
Shell 388 to 393 belongs to atom o
Shell 394 to 399 belongs to atom o
Shell 400 to 405 belongs to atom o
Shell 406 to 411 belongs to atom o
Shell 412 to 417 belongs to atom o
Shell 418 to 423 belongs to atom o
Shell 424 to 429 belongs to atom o
Shell 430 to 435 belongs to atom o
Shell 436 to 441 belongs to atom o
Shell 442 to 447 belongs to atom o
Shell 448 to 453 belongs to atom o
Shell 454 to 459 belongs to atom o

 Number of unique atom is 3
 Unique atom #0 (c) has 15 auxiliary shells.
 Unique atom #1 (o) has 15 auxiliary shells.
 Unique atom #2 (mg) has 18 auxiliary shells.

Auxiliary Shell 0 to 14 belongs to atom c
Auxiliary Shell 15 to 32 belongs to atom mg
Auxiliary Shell 33 to 50 belongs to atom mg
Auxiliary Shell 51 to 68 belongs to atom mg
Auxiliary Shell 69 to 86 belongs to atom mg
Auxiliary Shell 87 to 104 belongs to atom mg
Auxiliary Shell 105 to 122 belongs to atom mg
Auxiliary Shell 123 to 140 belongs to atom mg
Auxiliary Shell 141 to 158 belongs to atom mg
Auxiliary Shell 159 to 176 belongs to atom mg
Auxiliary Shell 177 to 194 belongs to atom mg
Auxiliary Shell 195 to 212 belongs to atom mg
Auxiliary Shell 213 to 230 belongs to atom mg
Auxiliary Shell 231 to 248 belongs to atom mg
Auxiliary Shell 249 to 266 belongs to atom mg
Auxiliary Shell 267 to 284 belongs to atom mg
Auxiliary Shell 285 to 302 belongs to atom mg
Auxiliary Shell 303 to 320 belongs to atom mg
Auxiliary Shell 321 to 338 belongs to atom mg
Auxiliary Shell 339 to 356 belongs to atom mg
Auxiliary Shell 357 to 374 belongs to atom mg
Auxiliary Shell 375 to 392 belongs to atom mg
Auxiliary Shell 393 to 410 belongs to atom mg
Auxiliary Shell 411 to 428 belongs to atom mg
Auxiliary Shell 429 to 446 belongs to atom mg
Auxiliary Shell 447 to 464 belongs to atom mg
Auxiliary Shell 465 to 482 belongs to atom mg
Auxiliary Shell 483 to 500 belongs to atom mg
Auxiliary Shell 501 to 518 belongs to atom mg
Auxiliary Shell 519 to 536 belongs to atom mg
Auxiliary Shell 537 to 554 belongs to atom mg
Auxiliary Shell 555 to 572 belongs to atom mg
Auxiliary Shell 573 to 590 belongs to atom mg
Auxiliary Shell 591 to 605 belongs to atom o
Auxiliary Shell 606 to 620 belongs to atom o
Auxiliary Shell 621 to 635 belongs to atom o
Auxiliary Shell 636 to 650 belongs to atom o
Auxiliary Shell 651 to 665 belongs to atom o
Auxiliary Shell 666 to 680 belongs to atom o
Auxiliary Shell 681 to 695 belongs to atom o
Auxiliary Shell 696 to 710 belongs to atom o
Auxiliary Shell 711 to 725 belongs to atom o
Auxiliary Shell 726 to 740 belongs to atom o
Auxiliary Shell 741 to 755 belongs to atom o
Auxiliary Shell 756 to 770 belongs to atom o
Auxiliary Shell 771 to 785 belongs to atom o
Auxiliary Shell 786 to 800 belongs to atom o
Auxiliary Shell 801 to 815 belongs to atom o
Auxiliary Shell 816 to 830 belongs to atom o
Auxiliary Shell 831 to 845 belongs to atom o
Auxiliary Shell 846 to 860 belongs to atom o
Auxiliary Shell 861 to 875 belongs to atom o
Auxiliary Shell 876 to 890 belongs to atom o
Auxiliary Shell 891 to 905 belongs to atom o
Auxiliary Shell 906 to 920 belongs to atom o
Auxiliary Shell 921 to 935 belongs to atom o
Auxiliary Shell 936 to 950 belongs to atom o
Auxiliary Shell 951 to 965 belongs to atom o
Auxiliary Shell 966 to 980 belongs to atom o
Auxiliary Shell 981 to 995 belongs to atom o
Auxiliary Shell 996 to 1010 belongs to atom o
Auxiliary Shell 1011 to 1025 belongs to atom o
Auxiliary Shell 1026 to 1040 belongs to atom o
Auxiliary Shell 1041 to 1055 belongs to atom o
Auxiliary Shell 1056 to 1070 belongs to atom o
Auxiliary Shell 1071 to 1085 belongs to atom o

================= Automatically determine grid size for reciprocal space summation =================
 Range-separated parameter = 0.45000000000000 and G-space screening threshold = 0.00000000000100
The number of grid points along each axis dimension is (18, 18, 33)
Total number of grid points = 91723

======== Initializing relevant kernel for RIJ (CC type) ========
There are 81144 shellpairs in the reference unit cell
There are 519 images and we expect to have 42113736 in total
There are 223756 shellpairs in the lattice sum after screening
****** AFT -> SR ******
Maximum bra distance cutoff is 39.000000000000
Maximum bra ket distance cutoff is 40.635136018672
Maximum bra ket screening distance is 31.593750000000
Number of auxiliary image is 75
There are 81144 shellpairs in the reference unit cell
There are 75 images and we expect to have 6085800 in total
There are 223756 shellpairs in the lattice sum after screening
Available memory per thread for 2e3c calculation is 16.382873632000Gb
Finish initializing 2e3c SR with the lattice sum!
=================================================
======== Initialize the SR component for Vnuc (CC type) ========
Maximum bra distance cutoff is 39.000000000000
Maximum bra ket distance cutoff is 32.218997012991
Maximum bra ket screening distance is 22.555355382244
Number of auxiliary image is 75
There are 81144 shellpairs in the reference unit cell
There are 75 images and we expect to have 6085800 in total
There are 223756 shellpairs in the lattice sum after screening
Available memory per thread for 2e3c calculation is 16.382873632000Gb
Finish initializing 2e3c SR with the lattice sum!
=================================================
 Aufbau occupation scheme, occupation determined by eigenvalue
 == 0-th k-point nmo = 1052 (0.00000,0.00000,0.00000) ==

 Generate autoSAD guess
backing up fragment data
Atom # 0: c, charge: 0, multiplicity: 3.000000
Atom # 1: mg, charge: 0, multiplicity: 1.000000
Atom # 2: o, charge: 0, multiplicity: 3.000000
writing autosad to fragment context
Settings for isolated fragments: 
  frgm_gamma: TRUE
  frgm_center: FALSE

    Running SCF for isolated atom #0
    Fragment Input file: /n/netscratch/joonholee_lab/Lab/hieudinh//nhome02hieudinhrsdf_test_full_Jbenchmark_nocdmgo_comgo_slab_def2svp.scratch20251118162334/autosad_frgmt_0/frgmt_input.in
    Fragment Output file: /n/netscratch/joonholee_lab/Lab/hieudinh//nhome02hieudinhrsdf_test_full_Jbenchmark_nocdmgo_comgo_slab_def2svp.scratch20251118162334/autosad_frgmt_0/frgmt_job.out
    Fragment job begins at Tue Nov 18 16:24:01 2025

 Integrated density by DFT XC:
   Numerical integral  =     6.000000002176
   Relative error      =     0.0000000363 %
Final energy components:
 DFT Correlation                 Energy =  -0.14532738445468
 DFT Exchange                    Energy =  -5.02264750651854
 Empirical Dispersion Correction Energy =   0.00000000000000
 Kinetic (alpha)                 Energy =  20.12410565071042
 Kinetic (beta)                  Energy =  17.49640931060176
 Nuclear Attraction (alpha)      Energy = -48.81829168296002
 Nuclear Attraction (beta)       Energy = -39.20965588575080
 Nuclear Repulsion               Energy =   0.00000000000000
 SEOQF                           Energy =  -0.00000000042164
 Total Coulomb                   Energy =  17.82417095098061
----------------------------------------------
    SCF Energy: -37.7512365478
   Total fragment job time:  0.34 s.
    Running SCF for isolated atom #1
    Fragment Input file: /n/netscratch/joonholee_lab/Lab/hieudinh//nhome02hieudinhrsdf_test_full_Jbenchmark_nocdmgo_comgo_slab_def2svp.scratch20251118162334/autosad_frgmt_1/frgmt_input.in
    Fragment Output file: /n/netscratch/joonholee_lab/Lab/hieudinh//nhome02hieudinhrsdf_test_full_Jbenchmark_nocdmgo_comgo_slab_def2svp.scratch20251118162334/autosad_frgmt_1/frgmt_job.out
    Fragment job begins at Tue Nov 18 16:24:02 2025

 Integrated density by DFT XC:
   Numerical integral  =    12.000000648350
   Relative error      =     0.0000054029 %
Final energy components:
 DFT Correlation                 Energy =  -0.41049897243827
 DFT Exchange                    Energy = -15.87154382739442
 Empirical Dispersion Correction Energy =   0.00000000000000
 Kinetic (alpha)                 Energy =  99.51554838631623
 Kinetic (beta)                  Energy =  99.51554838631623
 Nuclear Attraction (alpha)      Energy = -239.08208201227029
 Nuclear Attraction (beta)       Energy = -239.08208201227029
 Nuclear Repulsion               Energy =   0.00000000000000
 SEOQF                           Energy =  -0.00000000000000
 Total Coulomb                   Energy =  95.54340512139977
----------------------------------------------
    SCF Energy: -199.8717049303
   Total fragment job time:  0.30 s.
    Running SCF for isolated atom #2
    Fragment Input file: /n/netscratch/joonholee_lab/Lab/hieudinh//nhome02hieudinhrsdf_test_full_Jbenchmark_nocdmgo_comgo_slab_def2svp.scratch20251118162334/autosad_frgmt_2/frgmt_input.in
    Fragment Output file: /n/netscratch/joonholee_lab/Lab/hieudinh//nhome02hieudinhrsdf_test_full_Jbenchmark_nocdmgo_comgo_slab_def2svp.scratch20251118162334/autosad_frgmt_2/frgmt_job.out
    Fragment job begins at Tue Nov 18 16:24:02 2025

 Integrated density by DFT XC:
   Numerical integral  =     7.999999995188
   Relative error      =     0.0000000602 %
Final energy components:
 DFT Correlation                 Energy =  -0.23677347464322
 DFT Exchange                    Energy =  -8.15775966359636
 Empirical Dispersion Correction Energy =   0.00000000000000
 Kinetic (alpha)                 Energy =  40.07669694079213
 Kinetic (beta)                  Energy =  34.55200220930121
 Nuclear Attraction (alpha)      Energy = -98.17226592768682
 Nuclear Attraction (beta)       Energy = -79.62660872545189
 Nuclear Repulsion               Energy =   0.00000000000000
 SEOQF                           Energy =  -0.00000000016385
 Total Coulomb                   Energy =  36.65004754183520
----------------------------------------------
    SCF Energy: -74.9146610996
   Total fragment job time:  0.31 s.
restoring fragment data

 ------------------------------------------------------------------------
 Allocate 53124032 B from available memory: 524251956224 B
 Time for generating SCF guess: 1.00 s

 Allocate 7652552 B from available memory: 524198832192 B
 Selected algorithms for each term:
  kpts_dftd3 -> @0x15070dd04740
  kpts_kinetic -> @0x15070dd04680
  kpts_nn -> @0x15070dd04800
  kpts_rij_bigmem -> @0x15070dd043e0
  kpts_vnuc_df -> @0x15070dd04380
  kpts_xc -> @0x15070dd042c0

 Time for computing kinetic matrix is 17.15 s
Start calculating Vnuc CC type!
 Time for computing nuclear attraction matrix is 24.26 s
Compute (P|Q) and solve linear equation on the fly!
Maximum distance between P and Q is 39.81354735111212
Number of images for (P|Qn) is 75
 Time for computing 2e2c SR integral without init time is 1.81 s
 Time for computing 2e2c SR integral is 1.85 s
Maximum dynamic memory per thread for 2e3c SR integrals: 0.211 GiB
Batch size for basis function pair is 442778 out of 442778
 === bvk cell = 0 has 100.000 % of the basis function pairs === 
Static memory requirement for 2e3c SR integrals: 11.408 GB
There are 1 munu batches for computing 2e3c SR integrals with latsum
There are 59 Q batches for computing 2e3c SR integrals with latsum
 Time for computing 2e3c SR integral (CC) is 18.68 s
 Time for RI-J this SCF iteration is 29.83 s
 Time for RI-J this SCF iteration is 9.04 s
 ----------------------------------------------
 Guess energy: -8914.7909176781
 ----------------------------------------------
 Guess energy components:
 D3 correction      Energy =  -0.37163756227835
 DFT Correlation    Energy = -23.60885753354455
 DFT Exchange       Energy = -799.79173415293280
 Kinetic            Energy = 8918.26163606069713
 Nuclear Attraction Energy = -40639.66662650057697
 Nuclear Repulsion  Energy = 9554.80820245332143
 Total Coulomb      Energy = 14075.57809955722405
 ----------------------------------------------
  Cycle       Energy        RMS Gradient
 ----------------------------------------------
 Time for RI-J this SCF iteration is 9.04 s
    1   -8916.8531407781      3.95e-01   Descent step
 Energy components after cycle 1:
 D3 correction      Energy =  -0.37163756227835
 DFT Correlation    Energy = -23.56194203374243
 DFT Exchange       Energy = -795.93231748012101
 Kinetic            Energy = 8896.82101059917659
 Nuclear Attraction Energy = -40569.26427327602869
 Nuclear Repulsion  Energy = 9554.80820245332143
 Total Coulomb      Energy = 14020.64781652160491
 Time for RI-J this SCF iteration is 9.00 s
    2   -8917.8993550653      1.75e-01   Descent step
 Energy components after cycle 2:
 D3 correction      Energy =  -0.37163756227835
 DFT Correlation    Energy = -23.55378831201814
 DFT Exchange       Energy = -792.37228334594147
 Kinetic            Energy = 8876.37187403116513
 Nuclear Attraction Energy = -40507.04496526721050
 Nuclear Repulsion  Energy = 9554.80820245332143
 Total Coulomb      Energy = 13974.26324293762082
 Time for RI-J this SCF iteration is 9.00 s
    3   -8918.1823207450      8.07e-02   Descent step
 Energy components after cycle 3:
 D3 correction      Energy =  -0.37163756227835
 DFT Correlation    Energy = -23.58284716712662
 DFT Exchange       Energy = -789.28047767091368
 Kinetic            Energy = 8857.74509171142381
 Nuclear Attraction Energy = -40461.96164059736475
 Nuclear Repulsion  Energy = 9554.80820245332143
 Total Coulomb      Energy = 13944.46098808796523
    3   -8918.1823207450      8.07e-02
 ----------------------------------------------
 Final energy components:
 D3 correction      Energy =  -0.37163756227835
 DFT Correlation    Energy = -23.58284716712662
 DFT Exchange       Energy = -789.28047767091368
 Kinetic            Energy = 8857.74509171142381
 Nuclear Attraction Energy = -40461.96164059736475
 Nuclear Repulsion  Energy = 9554.80820245332143
 Total Coulomb      Energy = 13944.46098808796523
 ----------------------------------------------
