                  Welcome to Q-Chem
           with Periodic Boundary Condition
     A Quantum Leap Into The Future Of Chemistry

 Adam Rettig, Xintian Feng, Meng-Fu Chen, Hieu Dinh, Stephen Quiton,
 Anton Ni, Paul J. Robinson, Jinghong Zhang, Joonho Lee

Contributors to earlier versions of Q-Chem not listed above:
 Evgeny Epifanovsky, Leo Cunha, Jerome F. Gonthier, Kuan-Yu Liu
 Input file: /scratch/bdxq/hdinh//benzene_crystal_ccpvtz_omega_0.4_111.scratch20250709190419/benzene_crystal_ccpvtz_omega_0.4_111.0
 Scratch folder: /scratch/bdxq/hdinh//benzene_crystal_ccpvtz_omega_0.4_111.scratch20250709190419
 Auxillary files located at: /u/hdinh/qcpbc/qcaux
 Q-Chem begins on Wed Jul  9 19:04:19 2025

 -------------------------------------------------------------
 User input:
 -------------------------------------------------------------
 $lattice
 3
 6.8100000000 	0.0000000000 	0.0000000000
 0.0000000000 	7.3900000000 	0.0000000000
 0.0000000000 	0.0000000000 	9.4200000000
 $end
 
 $unitcell
 ABSOLUTE
 0 1
  C 	6.7630110000 	6.9414270000 	1.3122060000
  C 	6.7630110000 	4.1435730000 	6.0222060000
  C 	3.3580110000 	6.9414270000 	3.3977940000
  C 	3.3580110000 	4.1435730000 	8.1077940000
  C 	0.0469890000 	0.4485730000 	8.1077940000
  C 	0.0469890000 	3.2464270000 	3.3977940000
  C 	3.4519890000 	0.4485730000 	6.0222060000
  C 	3.4519890000 	3.2464270000 	1.3122060000
  C 	0.8580600000 	6.3723970000 	0.4210740000
  C 	0.8580600000 	4.7126030000 	5.1310740000
  C 	4.2630600000 	6.3723970000 	4.2889260000
  C 	4.2630600000 	4.7126030000 	8.9989260000
  C 	5.9519400000 	1.0176030000 	8.9989260000
  C 	5.9519400000 	2.6773970000 	4.2889260000
  C 	2.5469400000 	1.0176030000 	5.1310740000
  C 	2.5469400000 	2.6773970000 	0.4210740000
  C 	5.9076750000 	0.5690300000 	0.9024360000
  C 	5.9076750000 	3.1259700000 	5.6124360000
  C 	2.5026750000 	0.5690300000 	3.8075640000
  C 	2.5026750000 	3.1259700000 	8.5175640000
  C 	0.9023250000 	6.8209700000 	8.5175640000
  C 	0.9023250000 	4.2640300000 	3.8075640000
  C 	4.3073250000 	6.8209700000 	5.6124360000
  C 	4.3073250000 	4.2640300000 	0.9024360000
  H 	6.7262370000 	6.6170060000 	2.3568840000
  H 	6.7262370000 	4.4679940000 	7.0668840000
  H 	3.3212370000 	6.6170060000 	2.3531160000
  H 	3.3212370000 	4.4679940000 	7.0631160000
  H 	0.0837630000 	0.7729940000 	7.0631160000
  H 	0.0837630000 	2.9220060000 	2.3531160000
  H 	3.4887630000 	0.7729940000 	7.0668840000
  H 	3.4887630000 	2.9220060000 	2.3568840000
  H 	1.5261210000 	5.5735380000 	0.7357020000
  H 	1.5261210000 	5.5114620000 	5.4457020000
  H 	4.9311210000 	5.5735380000 	3.9742980000
  H 	4.9311210000 	5.5114620000 	8.6842980000
  H 	5.2838790000 	1.8164620000 	8.6842980000
  H 	5.2838790000 	1.8785380000 	3.9742980000
  H 	1.8788790000 	1.8164620000 	5.4457020000
  H 	1.8788790000 	1.8785380000 	0.7357020000
  H 	5.2028400000 	1.0131690000 	1.5835020000
  H 	5.2028400000 	2.6818310000 	6.2935020000
  H 	1.7978400000 	1.0131690000 	3.1264980000
  H 	1.7978400000 	2.6818310000 	7.8364980000
  H 	1.6071600000 	6.3768310000 	7.8364980000
  H 	1.6071600000 	4.7081690000 	3.1264980000
  H 	5.0121600000 	6.3768310000 	6.2935020000
  H 	5.0121600000 	4.7081690000 	1.5835020000
 $end
 
 $rem
 jobtype = sp
 method = pbe
 dft_d = 6
 scf_convergence = 5
 scf_guess = autosad
 scf_algorithm = gdm
 basis = cc-pvtz
 aux_basis = cc-pvtz-jk
 input_bohr = false
 
 mp_mesh = [1,1,1]
 
 integral_direct true
 bvk_cgto true
 
 thresh 14
 mem_total 500000
 threads 32
 
 MAX_SCF_CYCLES 500
 madelung = false
 omega 0.4
 do_rij_bigmem true
 automate_g true
 print_level 10
 grid_type_xc 1
 
 thresh_1e2c_sp 1e-14
 thresh_2e3c_bra_ket_sep 1e-10
 thresh_g 1e-10
 $end
 
 $rem_autosad
 incfock 1000
 scf_algorithm gdm_ls
 $end
 
 -------------------------------------------------------------
 Running PBC job

 Requested Exchange Correlation Functionals: 
  DFT Exchange:  1.00000 pbe_x
  DFT Correlation:  1.00000 pbe_c
 using 32 threads for computing.
 ---------------------------------------------------------------
      Coordinates of Atoms in Central Unit Cell (Angstroms)
    I     Atom         X            Y            Z
 ---------------------------------------------------------------
    1       C      6.763011     6.941427     1.312206
    2       C      6.763011     4.143573     6.022206
    3       C      3.358011     6.941427     3.397794
    4       C      3.358011     4.143573     8.107794
    5       C      0.046989     0.448573     8.107794
    6       C      0.046989     3.246427     3.397794
    7       C      3.451989     0.448573     6.022206
    8       C      3.451989     3.246427     1.312206
    9       C      0.858060     6.372397     0.421074
   10       C      0.858060     4.712603     5.131074
   11       C      4.263060     6.372397     4.288926
   12       C      4.263060     4.712603     8.998926
   13       C      5.951940     1.017603     8.998926
   14       C      5.951940     2.677397     4.288926
   15       C      2.546940     1.017603     5.131074
   16       C      2.546940     2.677397     0.421074
   17       C      5.907675     0.569030     0.902436
   18       C      5.907675     3.125970     5.612436
   19       C      2.502675     0.569030     3.807564
   20       C      2.502675     3.125970     8.517564
   21       C      0.902325     6.820970     8.517564
   22       C      0.902325     4.264030     3.807564
   23       C      4.307325     6.820970     5.612436
   24       C      4.307325     4.264030     0.902436
   25       H      6.726237     6.617006     2.356884
   26       H      6.726237     4.467994     7.066884
   27       H      3.321237     6.617006     2.353116
   28       H      3.321237     4.467994     7.063116
   29       H      0.083763     0.772994     7.063116
   30       H      0.083763     2.922006     2.353116
   31       H      3.488763     0.772994     7.066884
   32       H      3.488763     2.922006     2.356884
   33       H      1.526121     5.573538     0.735702
   34       H      1.526121     5.511462     5.445702
   35       H      4.931121     5.573538     3.974298
   36       H      4.931121     5.511462     8.684298
   37       H      5.283879     1.816462     8.684298
   38       H      5.283879     1.878538     3.974298
   39       H      1.878879     1.816462     5.445702
   40       H      1.878879     1.878538     0.735702
   41       H      5.202840     1.013169     1.583502
   42       H      5.202840     2.681831     6.293502
   43       H      1.797840     1.013169     3.126498
   44       H      1.797840     2.681831     7.836498
   45       H      1.607160     6.376831     7.836498
   46       H      1.607160     4.708169     3.126498
   47       H      5.012160     6.376831     6.293502
   48       H      5.012160     4.708169     1.583502
 ---------------------------------------------------------------
 --------------------------------------------------
              Lattice Vectors (Angstroms)
              X            Y            Z
 --------------------------------------------------
   X       6.810000     0.000000     0.000000
   Y       0.000000     7.390000     0.000000
   Z       0.000000     0.000000     9.420000
 --------------------------------------------------
 --------------------------------------------------
       Reciprocal Lattice Vectors (Angstroms^-1)
              X            Y            Z
 --------------------------------------------------
   X       0.922641     0.000000     0.000000
   Y       0.000000     0.850228     0.000000
   Z       0.000000     0.000000     0.667005
 --------------------------------------------------

 Single point calculation requested

 Hamiltonian contributions:
 List of terms in Hamiltonian: kpts_nn, kpts_kinetic, kpts_vnuc_df, kpts_xc, kpts_rij_bigmem, kpts_dftd3

 K-Points calculation started.

 Basis set information about using solid harmonic (1) or Cartesian (0):
  h : D(1) 
  c : D(1) D(1) F(1) 

 Basis set information about using solid harmonic (1) or Cartesian (0):
  h : D(1) D(1) F(1) 
  c : D(1) D(1) D(1) D(1) D(1) F(1) F(1) G(1) 

 There are 1056 basis functions in the central unit cell.
 Print atomic basis of atoms in the central unit cell:
 -------------------------------------------------------------
48 768 768 384

  1.27802385678315e+01  1.31173959440827e+01  2.47970995909068e+00
  1.27802385678315e+01  7.83021814739398e+00  1.13803200060781e+01
  6.34572111348071e+00  1.31173959440827e+01  6.42090008789669e+00
  6.34572111348071e+00  7.83021814739398e+00  1.53215101348841e+01
  8.87963408700403e-02  8.47680116901756e-01  1.53215101348841e+01
  8.87963408700403e-02  6.13485791359047e+00  6.42090008789669e+00
  6.52331379522079e+00  8.47680116901756e-01  1.13803200060781e+01
  6.52331379522079e+00  6.13485791359047e+00  2.47970995909068e+00
  1.62149839849639e+00  1.20420850873869e+01  7.95714538200672e-01
  1.62149839849639e+00  8.90552900408978e+00  9.69632458518805e+00
  8.05601585284714e+00  1.20420850873869e+01  8.10489550878671e+00
  8.05601585284714e+00  8.90552900408978e+00  1.70055055557741e+01
  1.12475365102051e+01  1.92299097359756e+00  1.70055055557741e+01
  1.12475365102051e+01  5.05954705689466e+00  8.10489550878671e+00
  4.81301905585436e+00  1.92299097359756e+00  9.69632458518805e+00
  4.81301905585436e+00  5.05954705689466e+00  7.95714538200672e-01
  1.11638877832985e+01  1.07531085669580e+00  1.70535688500278e+00
  1.11638877832985e+01  5.90722717379642e+00  1.06059669319902e+01
  4.72937032894780e+00  1.07531085669580e+00  7.19525316198460e+00
  4.72937032894780e+00  5.90722717379642e+00  1.60958632089720e+01
  1.70514712540295e+00  1.28897652042886e+01  1.60958632089720e+01
  1.70514712540295e+00  8.05784888718802e+00  7.19525316198460e+00
  8.13966457975370e+00  1.28897652042886e+01  1.06059669319902e+01
  8.13966457975370e+00  8.05784888718802e+00  1.70535688500278e+00
  1.27107457793245e+01  1.25043291050055e+01  4.45386526751248e+00
  1.27107457793245e+01  8.44328498647119e+00  1.33544753144999e+01
  6.27622832497372e+00  1.25043291050055e+01  4.44674477947489e+00
  6.27622832497372e+00  8.44328498647119e+00  1.33473548264623e+01
  1.58289129377028e-01  1.46074695597897e+00  1.33473548264623e+01
  1.58289129377028e-01  5.52179107451325e+00  4.44674477947489e+00
  6.59280658372778e+00  1.46074695597897e+00  1.33544753144999e+01
  6.59280658372778e+00  5.52179107451325e+00  4.45386526751248e+00
  2.88395072304001e+00  1.05324603651945e+01  1.39027528933943e+00
  2.88395072304001e+00  1.04151537262822e+01  1.02908853363268e+01
  9.31846817739075e+00  1.05324603651945e+01  7.51033475764795e+00
  9.31846817739075e+00  1.04151537262822e+01  1.64109448046353e+01
  9.98508418566149e+00  3.43261569578998e+00  1.64109448046353e+01
  9.98508418566149e+00  3.54992233470225e+00  7.51033475764795e+00
  3.55056673131074e+00  3.43261569578998e+00  1.02908853363268e+01
  3.55056673131074e+00  3.54992233470225e+00  1.39027528933943e+00
  9.83194267024794e+00  1.91461192796097e+00  2.99238509779716e+00
  9.83194267024794e+00  5.06792610253125e+00  1.18929951447845e+01
  3.39742521589719e+00  1.91461192796097e+00  5.90822494919022e+00
  3.39742521589719e+00  5.06792610253125e+00  1.48088349961776e+01
  3.03709223845355e+00  1.20504641330235e+01  1.48088349961776e+01
  3.03709223845355e+00  8.89714995845319e+00  5.90822494919022e+00
  9.47160969280430e+00  1.20504641330235e+01  1.18929951447845e+01
  9.47160969280430e+00  8.89714995845319e+00  2.99238509779716e+00

  8.23600000000000e+03
  1.23500000000000e+03
  2.80800000000000e+02
  7.92700000000000e+01
  2.55900000000000e+01
  8.99700000000000e+00
  3.31900000000000e+00
  8.23600000000000e+03
  1.23500000000000e+03
  7.92700000000000e+01
  2.55900000000000e+01
  8.99700000000000e+00
  3.31900000000000e+00
  3.64300000000000e-01
  9.05900000000000e-01
  1.28500000000000e-01
  1.87100000000000e+01
  4.13300000000000e+00
  1.20000000000000e+00
  3.82700000000000e-01
  1.20900000000000e-01
  1.09700000000000e+00
  3.18000000000000e-01
  7.61000000000000e-01
  8.23600000000000e+03
  1.23500000000000e+03
  2.80800000000000e+02
  7.92700000000000e+01
  2.55900000000000e+01
  8.99700000000000e+00
  3.31900000000000e+00
  8.23600000000000e+03
  1.23500000000000e+03
  7.92700000000000e+01
  2.55900000000000e+01
  8.99700000000000e+00
  3.31900000000000e+00
  3.64300000000000e-01
  9.05900000000000e-01
  1.28500000000000e-01
  1.87100000000000e+01
  4.13300000000000e+00
  1.20000000000000e+00
  3.82700000000000e-01
  1.20900000000000e-01
  1.09700000000000e+00
  3.18000000000000e-01
  7.61000000000000e-01
  8.23600000000000e+03
  1.23500000000000e+03
  2.80800000000000e+02
  7.92700000000000e+01
  2.55900000000000e+01
  8.99700000000000e+00
  3.31900000000000e+00
  8.23600000000000e+03
  1.23500000000000e+03
  7.92700000000000e+01
  2.55900000000000e+01
  8.99700000000000e+00
  3.31900000000000e+00
  3.64300000000000e-01
  9.05900000000000e-01
  1.28500000000000e-01
  1.87100000000000e+01
  4.13300000000000e+00
  1.20000000000000e+00
  3.82700000000000e-01
  1.20900000000000e-01
  1.09700000000000e+00
  3.18000000000000e-01
  7.61000000000000e-01
  8.23600000000000e+03
  1.23500000000000e+03
  2.80800000000000e+02
  7.92700000000000e+01
  2.55900000000000e+01
  8.99700000000000e+00
  3.31900000000000e+00
  8.23600000000000e+03
  1.23500000000000e+03
  7.92700000000000e+01
  2.55900000000000e+01
  8.99700000000000e+00
  3.31900000000000e+00
  3.64300000000000e-01
  9.05900000000000e-01
  1.28500000000000e-01
  1.87100000000000e+01
  4.13300000000000e+00
  1.20000000000000e+00
  3.82700000000000e-01
  1.20900000000000e-01
  1.09700000000000e+00
  3.18000000000000e-01
  7.61000000000000e-01
  8.23600000000000e+03
  1.23500000000000e+03
  2.80800000000000e+02
  7.92700000000000e+01
  2.55900000000000e+01
  8.99700000000000e+00
  3.31900000000000e+00
  8.23600000000000e+03
  1.23500000000000e+03
  7.92700000000000e+01
  2.55900000000000e+01
  8.99700000000000e+00
  3.31900000000000e+00
  3.64300000000000e-01
  9.05900000000000e-01
  1.28500000000000e-01
  1.87100000000000e+01
  4.13300000000000e+00
  1.20000000000000e+00
  3.82700000000000e-01
  1.20900000000000e-01
  1.09700000000000e+00
  3.18000000000000e-01
  7.61000000000000e-01
  8.23600000000000e+03
  1.23500000000000e+03
  2.80800000000000e+02
  7.92700000000000e+01
  2.55900000000000e+01
  8.99700000000000e+00
  3.31900000000000e+00
  8.23600000000000e+03
  1.23500000000000e+03
  7.92700000000000e+01
  2.55900000000000e+01
  8.99700000000000e+00
  3.31900000000000e+00
  3.64300000000000e-01
  9.05900000000000e-01
  1.28500000000000e-01
  1.87100000000000e+01
  4.13300000000000e+00
  1.20000000000000e+00
  3.82700000000000e-01
  1.20900000000000e-01
  1.09700000000000e+00
  3.18000000000000e-01
  7.61000000000000e-01
  8.23600000000000e+03
  1.23500000000000e+03
  2.80800000000000e+02
  7.92700000000000e+01
  2.55900000000000e+01
  8.99700000000000e+00
  3.31900000000000e+00
  8.23600000000000e+03
  1.23500000000000e+03
  7.92700000000000e+01
  2.55900000000000e+01
  8.99700000000000e+00
  3.31900000000000e+00
  3.64300000000000e-01
  9.05900000000000e-01
  1.28500000000000e-01
  1.87100000000000e+01
  4.13300000000000e+00
  1.20000000000000e+00
  3.82700000000000e-01
  1.20900000000000e-01
  1.09700000000000e+00
  3.18000000000000e-01
  7.61000000000000e-01
  8.23600000000000e+03
  1.23500000000000e+03
  2.80800000000000e+02
  7.92700000000000e+01
  2.55900000000000e+01
  8.99700000000000e+00
  3.31900000000000e+00
  8.23600000000000e+03
  1.23500000000000e+03
  7.92700000000000e+01
  2.55900000000000e+01
  8.99700000000000e+00
  3.31900000000000e+00
  3.64300000000000e-01
  9.05900000000000e-01
  1.28500000000000e-01
  1.87100000000000e+01
  4.13300000000000e+00
  1.20000000000000e+00
  3.82700000000000e-01
  1.20900000000000e-01
  1.09700000000000e+00
  3.18000000000000e-01
  7.61000000000000e-01
  8.23600000000000e+03
  1.23500000000000e+03
  2.80800000000000e+02
  7.92700000000000e+01
  2.55900000000000e+01
  8.99700000000000e+00
  3.31900000000000e+00
  8.23600000000000e+03
  1.23500000000000e+03
  7.92700000000000e+01
  2.55900000000000e+01
  8.99700000000000e+00
  3.31900000000000e+00
  3.64300000000000e-01
  9.05900000000000e-01
  1.28500000000000e-01
  1.87100000000000e+01
  4.13300000000000e+00
  1.20000000000000e+00
  3.82700000000000e-01
  1.20900000000000e-01
  1.09700000000000e+00
  3.18000000000000e-01
  7.61000000000000e-01
  8.23600000000000e+03
  1.23500000000000e+03
  2.80800000000000e+02
  7.92700000000000e+01
  2.55900000000000e+01
  8.99700000000000e+00
  3.31900000000000e+00
  8.23600000000000e+03
  1.23500000000000e+03
  7.92700000000000e+01
  2.55900000000000e+01
  8.99700000000000e+00
  3.31900000000000e+00
  3.64300000000000e-01
  9.05900000000000e-01
  1.28500000000000e-01
  1.87100000000000e+01
  4.13300000000000e+00
  1.20000000000000e+00
  3.82700000000000e-01
  1.20900000000000e-01
  1.09700000000000e+00
  3.18000000000000e-01
  7.61000000000000e-01
  8.23600000000000e+03
  1.23500000000000e+03
  2.80800000000000e+02
  7.92700000000000e+01
  2.55900000000000e+01
  8.99700000000000e+00
  3.31900000000000e+00
  8.23600000000000e+03
  1.23500000000000e+03
  7.92700000000000e+01
  2.55900000000000e+01
  8.99700000000000e+00
  3.31900000000000e+00
  3.64300000000000e-01
  9.05900000000000e-01
  1.28500000000000e-01
  1.87100000000000e+01
  4.13300000000000e+00
  1.20000000000000e+00
  3.82700000000000e-01
  1.20900000000000e-01
  1.09700000000000e+00
  3.18000000000000e-01
  7.61000000000000e-01
  8.23600000000000e+03
  1.23500000000000e+03
  2.80800000000000e+02
  7.92700000000000e+01
  2.55900000000000e+01
  8.99700000000000e+00
  3.31900000000000e+00
  8.23600000000000e+03
  1.23500000000000e+03
  7.92700000000000e+01
  2.55900000000000e+01
  8.99700000000000e+00
  3.31900000000000e+00
  3.64300000000000e-01
  9.05900000000000e-01
  1.28500000000000e-01
  1.87100000000000e+01
  4.13300000000000e+00
  1.20000000000000e+00
  3.82700000000000e-01
  1.20900000000000e-01
  1.09700000000000e+00
  3.18000000000000e-01
  7.61000000000000e-01
  8.23600000000000e+03
  1.23500000000000e+03
  2.80800000000000e+02
  7.92700000000000e+01
  2.55900000000000e+01
  8.99700000000000e+00
  3.31900000000000e+00
  8.23600000000000e+03
  1.23500000000000e+03
  7.92700000000000e+01
  2.55900000000000e+01
  8.99700000000000e+00
  3.31900000000000e+00
  3.64300000000000e-01
  9.05900000000000e-01
  1.28500000000000e-01
  1.87100000000000e+01
  4.13300000000000e+00
  1.20000000000000e+00
  3.82700000000000e-01
  1.20900000000000e-01
  1.09700000000000e+00
  3.18000000000000e-01
  7.61000000000000e-01
  8.23600000000000e+03
  1.23500000000000e+03
  2.80800000000000e+02
  7.92700000000000e+01
  2.55900000000000e+01
  8.99700000000000e+00
  3.31900000000000e+00
  8.23600000000000e+03
  1.23500000000000e+03
  7.92700000000000e+01
  2.55900000000000e+01
  8.99700000000000e+00
  3.31900000000000e+00
  3.64300000000000e-01
  9.05900000000000e-01
  1.28500000000000e-01
  1.87100000000000e+01
  4.13300000000000e+00
  1.20000000000000e+00
  3.82700000000000e-01
  1.20900000000000e-01
  1.09700000000000e+00
  3.18000000000000e-01
  7.61000000000000e-01
  8.23600000000000e+03
  1.23500000000000e+03
  2.80800000000000e+02
  7.92700000000000e+01
  2.55900000000000e+01
  8.99700000000000e+00
  3.31900000000000e+00
  8.23600000000000e+03
  1.23500000000000e+03
  7.92700000000000e+01
  2.55900000000000e+01
  8.99700000000000e+00
  3.31900000000000e+00
  3.64300000000000e-01
  9.05900000000000e-01
  1.28500000000000e-01
  1.87100000000000e+01
  4.13300000000000e+00
  1.20000000000000e+00
  3.82700000000000e-01
  1.20900000000000e-01
  1.09700000000000e+00
  3.18000000000000e-01
  7.61000000000000e-01
  8.23600000000000e+03
  1.23500000000000e+03
  2.80800000000000e+02
  7.92700000000000e+01
  2.55900000000000e+01
  8.99700000000000e+00
  3.31900000000000e+00
  8.23600000000000e+03
  1.23500000000000e+03
  7.92700000000000e+01
  2.55900000000000e+01
  8.99700000000000e+00
  3.31900000000000e+00
  3.64300000000000e-01
  9.05900000000000e-01
  1.28500000000000e-01
  1.87100000000000e+01
  4.13300000000000e+00
  1.20000000000000e+00
  3.82700000000000e-01
  1.20900000000000e-01
  1.09700000000000e+00
  3.18000000000000e-01
  7.61000000000000e-01
  8.23600000000000e+03
  1.23500000000000e+03
  2.80800000000000e+02
  7.92700000000000e+01
  2.55900000000000e+01
  8.99700000000000e+00
  3.31900000000000e+00
  8.23600000000000e+03
  1.23500000000000e+03
  7.92700000000000e+01
  2.55900000000000e+01
  8.99700000000000e+00
  3.31900000000000e+00
  3.64300000000000e-01
  9.05900000000000e-01
  1.28500000000000e-01
  1.87100000000000e+01
  4.13300000000000e+00
  1.20000000000000e+00
  3.82700000000000e-01
  1.20900000000000e-01
  1.09700000000000e+00
  3.18000000000000e-01
  7.61000000000000e-01
  8.23600000000000e+03
  1.23500000000000e+03
  2.80800000000000e+02
  7.92700000000000e+01
  2.55900000000000e+01
  8.99700000000000e+00
  3.31900000000000e+00
  8.23600000000000e+03
  1.23500000000000e+03
  7.92700000000000e+01
  2.55900000000000e+01
  8.99700000000000e+00
  3.31900000000000e+00
  3.64300000000000e-01
  9.05900000000000e-01
  1.28500000000000e-01
  1.87100000000000e+01
  4.13300000000000e+00
  1.20000000000000e+00
  3.82700000000000e-01
  1.20900000000000e-01
  1.09700000000000e+00
  3.18000000000000e-01
  7.61000000000000e-01
  8.23600000000000e+03
  1.23500000000000e+03
  2.80800000000000e+02
  7.92700000000000e+01
  2.55900000000000e+01
  8.99700000000000e+00
  3.31900000000000e+00
  8.23600000000000e+03
  1.23500000000000e+03
  7.92700000000000e+01
  2.55900000000000e+01
  8.99700000000000e+00
  3.31900000000000e+00
  3.64300000000000e-01
  9.05900000000000e-01
  1.28500000000000e-01
  1.87100000000000e+01
  4.13300000000000e+00
  1.20000000000000e+00
  3.82700000000000e-01
  1.20900000000000e-01
  1.09700000000000e+00
  3.18000000000000e-01
  7.61000000000000e-01
  8.23600000000000e+03
  1.23500000000000e+03
  2.80800000000000e+02
  7.92700000000000e+01
  2.55900000000000e+01
  8.99700000000000e+00
  3.31900000000000e+00
  8.23600000000000e+03
  1.23500000000000e+03
  7.92700000000000e+01
  2.55900000000000e+01
  8.99700000000000e+00
  3.31900000000000e+00
  3.64300000000000e-01
  9.05900000000000e-01
  1.28500000000000e-01
  1.87100000000000e+01
  4.13300000000000e+00
  1.20000000000000e+00
  3.82700000000000e-01
  1.20900000000000e-01
  1.09700000000000e+00
  3.18000000000000e-01
  7.61000000000000e-01
  8.23600000000000e+03
  1.23500000000000e+03
  2.80800000000000e+02
  7.92700000000000e+01
  2.55900000000000e+01
  8.99700000000000e+00
  3.31900000000000e+00
  8.23600000000000e+03
  1.23500000000000e+03
  7.92700000000000e+01
  2.55900000000000e+01
  8.99700000000000e+00
  3.31900000000000e+00
  3.64300000000000e-01
  9.05900000000000e-01
  1.28500000000000e-01
  1.87100000000000e+01
  4.13300000000000e+00
  1.20000000000000e+00
  3.82700000000000e-01
  1.20900000000000e-01
  1.09700000000000e+00
  3.18000000000000e-01
  7.61000000000000e-01
  8.23600000000000e+03
  1.23500000000000e+03
  2.80800000000000e+02
  7.92700000000000e+01
  2.55900000000000e+01
  8.99700000000000e+00
  3.31900000000000e+00
  8.23600000000000e+03
  1.23500000000000e+03
  7.92700000000000e+01
  2.55900000000000e+01
  8.99700000000000e+00
  3.31900000000000e+00
  3.64300000000000e-01
  9.05900000000000e-01
  1.28500000000000e-01
  1.87100000000000e+01
  4.13300000000000e+00
  1.20000000000000e+00
  3.82700000000000e-01
  1.20900000000000e-01
  1.09700000000000e+00
  3.18000000000000e-01
  7.61000000000000e-01
  8.23600000000000e+03
  1.23500000000000e+03
  2.80800000000000e+02
  7.92700000000000e+01
  2.55900000000000e+01
  8.99700000000000e+00
  3.31900000000000e+00
  8.23600000000000e+03
  1.23500000000000e+03
  7.92700000000000e+01
  2.55900000000000e+01
  8.99700000000000e+00
  3.31900000000000e+00
  3.64300000000000e-01
  9.05900000000000e-01
  1.28500000000000e-01
  1.87100000000000e+01
  4.13300000000000e+00
  1.20000000000000e+00
  3.82700000000000e-01
  1.20900000000000e-01
  1.09700000000000e+00
  3.18000000000000e-01
  7.61000000000000e-01
  8.23600000000000e+03
  1.23500000000000e+03
  2.80800000000000e+02
  7.92700000000000e+01
  2.55900000000000e+01
  8.99700000000000e+00
  3.31900000000000e+00
  8.23600000000000e+03
  1.23500000000000e+03
  7.92700000000000e+01
  2.55900000000000e+01
  8.99700000000000e+00
  3.31900000000000e+00
  3.64300000000000e-01
  9.05900000000000e-01
  1.28500000000000e-01
  1.87100000000000e+01
  4.13300000000000e+00
  1.20000000000000e+00
  3.82700000000000e-01
  1.20900000000000e-01
  1.09700000000000e+00
  3.18000000000000e-01
  7.61000000000000e-01
  3.38700000000000e+01
  5.09500000000000e+00
  1.15900000000000e+00
  3.25800000000000e-01
  1.02700000000000e-01
  1.40700000000000e+00
  3.88000000000000e-01
  1.05700000000000e+00
  3.38700000000000e+01
  5.09500000000000e+00
  1.15900000000000e+00
  3.25800000000000e-01
  1.02700000000000e-01
  1.40700000000000e+00
  3.88000000000000e-01
  1.05700000000000e+00
  3.38700000000000e+01
  5.09500000000000e+00
  1.15900000000000e+00
  3.25800000000000e-01
  1.02700000000000e-01
  1.40700000000000e+00
  3.88000000000000e-01
  1.05700000000000e+00
  3.38700000000000e+01
  5.09500000000000e+00
  1.15900000000000e+00
  3.25800000000000e-01
  1.02700000000000e-01
  1.40700000000000e+00
  3.88000000000000e-01
  1.05700000000000e+00
  3.38700000000000e+01
  5.09500000000000e+00
  1.15900000000000e+00
  3.25800000000000e-01
  1.02700000000000e-01
  1.40700000000000e+00
  3.88000000000000e-01
  1.05700000000000e+00
  3.38700000000000e+01
  5.09500000000000e+00
  1.15900000000000e+00
  3.25800000000000e-01
  1.02700000000000e-01
  1.40700000000000e+00
  3.88000000000000e-01
  1.05700000000000e+00
  3.38700000000000e+01
  5.09500000000000e+00
  1.15900000000000e+00
  3.25800000000000e-01
  1.02700000000000e-01
  1.40700000000000e+00
  3.88000000000000e-01
  1.05700000000000e+00
  3.38700000000000e+01
  5.09500000000000e+00
  1.15900000000000e+00
  3.25800000000000e-01
  1.02700000000000e-01
  1.40700000000000e+00
  3.88000000000000e-01
  1.05700000000000e+00
  3.38700000000000e+01
  5.09500000000000e+00
  1.15900000000000e+00
  3.25800000000000e-01
  1.02700000000000e-01
  1.40700000000000e+00
  3.88000000000000e-01
  1.05700000000000e+00
  3.38700000000000e+01
  5.09500000000000e+00
  1.15900000000000e+00
  3.25800000000000e-01
  1.02700000000000e-01
  1.40700000000000e+00
  3.88000000000000e-01
  1.05700000000000e+00
  3.38700000000000e+01
  5.09500000000000e+00
  1.15900000000000e+00
  3.25800000000000e-01
  1.02700000000000e-01
  1.40700000000000e+00
  3.88000000000000e-01
  1.05700000000000e+00
  3.38700000000000e+01
  5.09500000000000e+00
  1.15900000000000e+00
  3.25800000000000e-01
  1.02700000000000e-01
  1.40700000000000e+00
  3.88000000000000e-01
  1.05700000000000e+00
  3.38700000000000e+01
  5.09500000000000e+00
  1.15900000000000e+00
  3.25800000000000e-01
  1.02700000000000e-01
  1.40700000000000e+00
  3.88000000000000e-01
  1.05700000000000e+00
  3.38700000000000e+01
  5.09500000000000e+00
  1.15900000000000e+00
  3.25800000000000e-01
  1.02700000000000e-01
  1.40700000000000e+00
  3.88000000000000e-01
  1.05700000000000e+00
  3.38700000000000e+01
  5.09500000000000e+00
  1.15900000000000e+00
  3.25800000000000e-01
  1.02700000000000e-01
  1.40700000000000e+00
  3.88000000000000e-01
  1.05700000000000e+00
  3.38700000000000e+01
  5.09500000000000e+00
  1.15900000000000e+00
  3.25800000000000e-01
  1.02700000000000e-01
  1.40700000000000e+00
  3.88000000000000e-01
  1.05700000000000e+00
  3.38700000000000e+01
  5.09500000000000e+00
  1.15900000000000e+00
  3.25800000000000e-01
  1.02700000000000e-01
  1.40700000000000e+00
  3.88000000000000e-01
  1.05700000000000e+00
  3.38700000000000e+01
  5.09500000000000e+00
  1.15900000000000e+00
  3.25800000000000e-01
  1.02700000000000e-01
  1.40700000000000e+00
  3.88000000000000e-01
  1.05700000000000e+00
  3.38700000000000e+01
  5.09500000000000e+00
  1.15900000000000e+00
  3.25800000000000e-01
  1.02700000000000e-01
  1.40700000000000e+00
  3.88000000000000e-01
  1.05700000000000e+00
  3.38700000000000e+01
  5.09500000000000e+00
  1.15900000000000e+00
  3.25800000000000e-01
  1.02700000000000e-01
  1.40700000000000e+00
  3.88000000000000e-01
  1.05700000000000e+00
  3.38700000000000e+01
  5.09500000000000e+00
  1.15900000000000e+00
  3.25800000000000e-01
  1.02700000000000e-01
  1.40700000000000e+00
  3.88000000000000e-01
  1.05700000000000e+00
  3.38700000000000e+01
  5.09500000000000e+00
  1.15900000000000e+00
  3.25800000000000e-01
  1.02700000000000e-01
  1.40700000000000e+00
  3.88000000000000e-01
  1.05700000000000e+00
  3.38700000000000e+01
  5.09500000000000e+00
  1.15900000000000e+00
  3.25800000000000e-01
  1.02700000000000e-01
  1.40700000000000e+00
  3.88000000000000e-01
  1.05700000000000e+00
  3.38700000000000e+01
  5.09500000000000e+00
  1.15900000000000e+00
  3.25800000000000e-01
  1.02700000000000e-01
  1.40700000000000e+00
  3.88000000000000e-01
  1.05700000000000e+00

  3.33945329699303e-01
  6.22547446698276e-01
  1.05218920946014e+00
  1.58163648610788e+00
  1.94275715851415e+00
  1.63961854174412e+00
  6.16539390604916e-01
  1.46174282413811e-03
  1.72069387457792e-03
 -1.73621540030168e-02
 -7.58521053508670e-02
 -2.22062510987470e-01
 -3.01869042573189e-01
  3.58462876731022e-01
  6.61790131839668e-01
  1.52963368174496e-01
  2.18685155893849e+00
  2.05031234128050e+00
  1.45994452971031e+00
  4.29055195884351e-01
  1.01618543054798e-01
  1.93540141597197e+00
  2.21644478159161e-01
  7.96287553418135e-01
  3.33945329699303e-01
  6.22547446698276e-01
  1.05218920946014e+00
  1.58163648610788e+00
  1.94275715851415e+00
  1.63961854174412e+00
  6.16539390604916e-01
  1.46174282413811e-03
  1.72069387457792e-03
 -1.73621540030168e-02
 -7.58521053508670e-02
 -2.22062510987470e-01
 -3.01869042573189e-01
  3.58462876731022e-01
  6.61790131839668e-01
  1.52963368174496e-01
  2.18685155893849e+00
  2.05031234128050e+00
  1.45994452971031e+00
  4.29055195884351e-01
  1.01618543054798e-01
  1.93540141597197e+00
  2.21644478159161e-01
  7.96287553418135e-01
  3.33945329699303e-01
  6.22547446698276e-01
  1.05218920946014e+00
  1.58163648610788e+00
  1.94275715851415e+00
  1.63961854174412e+00
  6.16539390604916e-01
  1.46174282413811e-03
  1.72069387457792e-03
 -1.73621540030168e-02
 -7.58521053508670e-02
 -2.22062510987470e-01
 -3.01869042573189e-01
  3.58462876731022e-01
  6.61790131839668e-01
  1.52963368174496e-01
  2.18685155893849e+00
  2.05031234128050e+00
  1.45994452971031e+00
  4.29055195884351e-01
  1.01618543054798e-01
  1.93540141597197e+00
  2.21644478159161e-01
  7.96287553418135e-01
  3.33945329699303e-01
  6.22547446698276e-01
  1.05218920946014e+00
  1.58163648610788e+00
  1.94275715851415e+00
  1.63961854174412e+00
  6.16539390604916e-01
  1.46174282413811e-03
  1.72069387457792e-03
 -1.73621540030168e-02
 -7.58521053508670e-02
 -2.22062510987470e-01
 -3.01869042573189e-01
  3.58462876731022e-01
  6.61790131839668e-01
  1.52963368174496e-01
  2.18685155893849e+00
  2.05031234128050e+00
  1.45994452971031e+00
  4.29055195884351e-01
  1.01618543054798e-01
  1.93540141597197e+00
  2.21644478159161e-01
  7.96287553418135e-01
  3.33945329699303e-01
  6.22547446698276e-01
  1.05218920946014e+00
  1.58163648610788e+00
  1.94275715851415e+00
  1.63961854174412e+00
  6.16539390604916e-01
  1.46174282413811e-03
  1.72069387457792e-03
 -1.73621540030168e-02
 -7.58521053508670e-02
 -2.22062510987470e-01
 -3.01869042573189e-01
  3.58462876731022e-01
  6.61790131839668e-01
  1.52963368174496e-01
  2.18685155893849e+00
  2.05031234128050e+00
  1.45994452971031e+00
  4.29055195884351e-01
  1.01618543054798e-01
  1.93540141597197e+00
  2.21644478159161e-01
  7.96287553418135e-01
  3.33945329699303e-01
  6.22547446698276e-01
  1.05218920946014e+00
  1.58163648610788e+00
  1.94275715851415e+00
  1.63961854174412e+00
  6.16539390604916e-01
  1.46174282413811e-03
  1.72069387457792e-03
 -1.73621540030168e-02
 -7.58521053508670e-02
 -2.22062510987470e-01
 -3.01869042573189e-01
  3.58462876731022e-01
  6.61790131839668e-01
  1.52963368174496e-01
  2.18685155893849e+00
  2.05031234128050e+00
  1.45994452971031e+00
  4.29055195884351e-01
  1.01618543054798e-01
  1.93540141597197e+00
  2.21644478159161e-01
  7.96287553418135e-01
  3.33945329699303e-01
  6.22547446698276e-01
  1.05218920946014e+00
  1.58163648610788e+00
  1.94275715851415e+00
  1.63961854174412e+00
  6.16539390604916e-01
  1.46174282413811e-03
  1.72069387457792e-03
 -1.73621540030168e-02
 -7.58521053508670e-02
 -2.22062510987470e-01
 -3.01869042573189e-01
  3.58462876731022e-01
  6.61790131839668e-01
  1.52963368174496e-01
  2.18685155893849e+00
  2.05031234128050e+00
  1.45994452971031e+00
  4.29055195884351e-01
  1.01618543054798e-01
  1.93540141597197e+00
  2.21644478159161e-01
  7.96287553418135e-01
  3.33945329699303e-01
  6.22547446698276e-01
  1.05218920946014e+00
  1.58163648610788e+00
  1.94275715851415e+00
  1.63961854174412e+00
  6.16539390604916e-01
  1.46174282413811e-03
  1.72069387457792e-03
 -1.73621540030168e-02
 -7.58521053508670e-02
 -2.22062510987470e-01
 -3.01869042573189e-01
  3.58462876731022e-01
  6.61790131839668e-01
  1.52963368174496e-01
  2.18685155893849e+00
  2.05031234128050e+00
  1.45994452971031e+00
  4.29055195884351e-01
  1.01618543054798e-01
  1.93540141597197e+00
  2.21644478159161e-01
  7.96287553418135e-01
  3.33945329699303e-01
  6.22547446698276e-01
  1.05218920946014e+00
  1.58163648610788e+00
  1.94275715851415e+00
  1.63961854174412e+00
  6.16539390604916e-01
  1.46174282413811e-03
  1.72069387457792e-03
 -1.73621540030168e-02
 -7.58521053508670e-02
 -2.22062510987470e-01
 -3.01869042573189e-01
  3.58462876731022e-01
  6.61790131839668e-01
  1.52963368174496e-01
  2.18685155893849e+00
  2.05031234128050e+00
  1.45994452971031e+00
  4.29055195884351e-01
  1.01618543054798e-01
  1.93540141597197e+00
  2.21644478159161e-01
  7.96287553418135e-01
  3.33945329699303e-01
  6.22547446698276e-01
  1.05218920946014e+00
  1.58163648610788e+00
  1.94275715851415e+00
  1.63961854174412e+00
  6.16539390604916e-01
  1.46174282413811e-03
  1.72069387457792e-03
 -1.73621540030168e-02
 -7.58521053508670e-02
 -2.22062510987470e-01
 -3.01869042573189e-01
  3.58462876731022e-01
  6.61790131839668e-01
  1.52963368174496e-01
  2.18685155893849e+00
  2.05031234128050e+00
  1.45994452971031e+00
  4.29055195884351e-01
  1.01618543054798e-01
  1.93540141597197e+00
  2.21644478159161e-01
  7.96287553418135e-01
  3.33945329699303e-01
  6.22547446698276e-01
  1.05218920946014e+00
  1.58163648610788e+00
  1.94275715851415e+00
  1.63961854174412e+00
  6.16539390604916e-01
  1.46174282413811e-03
  1.72069387457792e-03
 -1.73621540030168e-02
 -7.58521053508670e-02
 -2.22062510987470e-01
 -3.01869042573189e-01
  3.58462876731022e-01
  6.61790131839668e-01
  1.52963368174496e-01
  2.18685155893849e+00
  2.05031234128050e+00
  1.45994452971031e+00
  4.29055195884351e-01
  1.01618543054798e-01
  1.93540141597197e+00
  2.21644478159161e-01
  7.96287553418135e-01
  3.33945329699303e-01
  6.22547446698276e-01
  1.05218920946014e+00
  1.58163648610788e+00
  1.94275715851415e+00
  1.63961854174412e+00
  6.16539390604916e-01
  1.46174282413811e-03
  1.72069387457792e-03
 -1.73621540030168e-02
 -7.58521053508670e-02
 -2.22062510987470e-01
 -3.01869042573189e-01
  3.58462876731022e-01
  6.61790131839668e-01
  1.52963368174496e-01
  2.18685155893849e+00
  2.05031234128050e+00
  1.45994452971031e+00
  4.29055195884351e-01
  1.01618543054798e-01
  1.93540141597197e+00
  2.21644478159161e-01
  7.96287553418135e-01
  3.33945329699303e-01
  6.22547446698276e-01
  1.05218920946014e+00
  1.58163648610788e+00
  1.94275715851415e+00
  1.63961854174412e+00
  6.16539390604916e-01
  1.46174282413811e-03
  1.72069387457792e-03
 -1.73621540030168e-02
 -7.58521053508670e-02
 -2.22062510987470e-01
 -3.01869042573189e-01
  3.58462876731022e-01
  6.61790131839668e-01
  1.52963368174496e-01
  2.18685155893849e+00
  2.05031234128050e+00
  1.45994452971031e+00
  4.29055195884351e-01
  1.01618543054798e-01
  1.93540141597197e+00
  2.21644478159161e-01
  7.96287553418135e-01
  3.33945329699303e-01
  6.22547446698276e-01
  1.05218920946014e+00
  1.58163648610788e+00
  1.94275715851415e+00
  1.63961854174412e+00
  6.16539390604916e-01
  1.46174282413811e-03
  1.72069387457792e-03
 -1.73621540030168e-02
 -7.58521053508670e-02
 -2.22062510987470e-01
 -3.01869042573189e-01
  3.58462876731022e-01
  6.61790131839668e-01
  1.52963368174496e-01
  2.18685155893849e+00
  2.05031234128050e+00
  1.45994452971031e+00
  4.29055195884351e-01
  1.01618543054798e-01
  1.93540141597197e+00
  2.21644478159161e-01
  7.96287553418135e-01
  3.33945329699303e-01
  6.22547446698276e-01
  1.05218920946014e+00
  1.58163648610788e+00
  1.94275715851415e+00
  1.63961854174412e+00
  6.16539390604916e-01
  1.46174282413811e-03
  1.72069387457792e-03
 -1.73621540030168e-02
 -7.58521053508670e-02
 -2.22062510987470e-01
 -3.01869042573189e-01
  3.58462876731022e-01
  6.61790131839668e-01
  1.52963368174496e-01
  2.18685155893849e+00
  2.05031234128050e+00
  1.45994452971031e+00
  4.29055195884351e-01
  1.01618543054798e-01
  1.93540141597197e+00
  2.21644478159161e-01
  7.96287553418135e-01
  3.33945329699303e-01
  6.22547446698276e-01
  1.05218920946014e+00
  1.58163648610788e+00
  1.94275715851415e+00
  1.63961854174412e+00
  6.16539390604916e-01
  1.46174282413811e-03
  1.72069387457792e-03
 -1.73621540030168e-02
 -7.58521053508670e-02
 -2.22062510987470e-01
 -3.01869042573189e-01
  3.58462876731022e-01
  6.61790131839668e-01
  1.52963368174496e-01
  2.18685155893849e+00
  2.05031234128050e+00
  1.45994452971031e+00
  4.29055195884351e-01
  1.01618543054798e-01
  1.93540141597197e+00
  2.21644478159161e-01
  7.96287553418135e-01
  3.33945329699303e-01
  6.22547446698276e-01
  1.05218920946014e+00
  1.58163648610788e+00
  1.94275715851415e+00
  1.63961854174412e+00
  6.16539390604916e-01
  1.46174282413811e-03
  1.72069387457792e-03
 -1.73621540030168e-02
 -7.58521053508670e-02
 -2.22062510987470e-01
 -3.01869042573189e-01
  3.58462876731022e-01
  6.61790131839668e-01
  1.52963368174496e-01
  2.18685155893849e+00
  2.05031234128050e+00
  1.45994452971031e+00
  4.29055195884351e-01
  1.01618543054798e-01
  1.93540141597197e+00
  2.21644478159161e-01
  7.96287553418135e-01
  3.33945329699303e-01
  6.22547446698276e-01
  1.05218920946014e+00
  1.58163648610788e+00
  1.94275715851415e+00
  1.63961854174412e+00
  6.16539390604916e-01
  1.46174282413811e-03
  1.72069387457792e-03
 -1.73621540030168e-02
 -7.58521053508670e-02
 -2.22062510987470e-01
 -3.01869042573189e-01
  3.58462876731022e-01
  6.61790131839668e-01
  1.52963368174496e-01
  2.18685155893849e+00
  2.05031234128050e+00
  1.45994452971031e+00
  4.29055195884351e-01
  1.01618543054798e-01
  1.93540141597197e+00
  2.21644478159161e-01
  7.96287553418135e-01
  3.33945329699303e-01
  6.22547446698276e-01
  1.05218920946014e+00
  1.58163648610788e+00
  1.94275715851415e+00
  1.63961854174412e+00
  6.16539390604916e-01
  1.46174282413811e-03
  1.72069387457792e-03
 -1.73621540030168e-02
 -7.58521053508670e-02
 -2.22062510987470e-01
 -3.01869042573189e-01
  3.58462876731022e-01
  6.61790131839668e-01
  1.52963368174496e-01
  2.18685155893849e+00
  2.05031234128050e+00
  1.45994452971031e+00
  4.29055195884351e-01
  1.01618543054798e-01
  1.93540141597197e+00
  2.21644478159161e-01
  7.96287553418135e-01
  3.33945329699303e-01
  6.22547446698276e-01
  1.05218920946014e+00
  1.58163648610788e+00
  1.94275715851415e+00
  1.63961854174412e+00
  6.16539390604916e-01
  1.46174282413811e-03
  1.72069387457792e-03
 -1.73621540030168e-02
 -7.58521053508670e-02
 -2.22062510987470e-01
 -3.01869042573189e-01
  3.58462876731022e-01
  6.61790131839668e-01
  1.52963368174496e-01
  2.18685155893849e+00
  2.05031234128050e+00
  1.45994452971031e+00
  4.29055195884351e-01
  1.01618543054798e-01
  1.93540141597197e+00
  2.21644478159161e-01
  7.96287553418135e-01
  3.33945329699303e-01
  6.22547446698276e-01
  1.05218920946014e+00
  1.58163648610788e+00
  1.94275715851415e+00
  1.63961854174412e+00
  6.16539390604916e-01
  1.46174282413811e-03
  1.72069387457792e-03
 -1.73621540030168e-02
 -7.58521053508670e-02
 -2.22062510987470e-01
 -3.01869042573189e-01
  3.58462876731022e-01
  6.61790131839668e-01
  1.52963368174496e-01
  2.18685155893849e+00
  2.05031234128050e+00
  1.45994452971031e+00
  4.29055195884351e-01
  1.01618543054798e-01
  1.93540141597197e+00
  2.21644478159161e-01
  7.96287553418135e-01
  3.33945329699303e-01
  6.22547446698276e-01
  1.05218920946014e+00
  1.58163648610788e+00
  1.94275715851415e+00
  1.63961854174412e+00
  6.16539390604916e-01
  1.46174282413811e-03
  1.72069387457792e-03
 -1.73621540030168e-02
 -7.58521053508670e-02
 -2.22062510987470e-01
 -3.01869042573189e-01
  3.58462876731022e-01
  6.61790131839668e-01
  1.52963368174496e-01
  2.18685155893849e+00
  2.05031234128050e+00
  1.45994452971031e+00
  4.29055195884351e-01
  1.01618543054798e-01
  1.93540141597197e+00
  2.21644478159161e-01
  7.96287553418135e-01
  3.33945329699303e-01
  6.22547446698276e-01
  1.05218920946014e+00
  1.58163648610788e+00
  1.94275715851415e+00
  1.63961854174412e+00
  6.16539390604916e-01
  1.46174282413811e-03
  1.72069387457792e-03
 -1.73621540030168e-02
 -7.58521053508670e-02
 -2.22062510987470e-01
 -3.01869042573189e-01
  3.58462876731022e-01
  6.61790131839668e-01
  1.52963368174496e-01
  2.18685155893849e+00
  2.05031234128050e+00
  1.45994452971031e+00
  4.29055195884351e-01
  1.01618543054798e-01
  1.93540141597197e+00
  2.21644478159161e-01
  7.96287553418135e-01
  3.33945329699303e-01
  6.22547446698276e-01
  1.05218920946014e+00
  1.58163648610788e+00
  1.94275715851415e+00
  1.63961854174412e+00
  6.16539390604916e-01
  1.46174282413811e-03
  1.72069387457792e-03
 -1.73621540030168e-02
 -7.58521053508670e-02
 -2.22062510987470e-01
 -3.01869042573189e-01
  3.58462876731022e-01
  6.61790131839668e-01
  1.52963368174496e-01
  2.18685155893849e+00
  2.05031234128050e+00
  1.45994452971031e+00
  4.29055195884351e-01
  1.01618543054798e-01
  1.93540141597197e+00
  2.21644478159161e-01
  7.96287553418135e-01
  2.55108057741981e-01
  4.60097888065188e-01
  6.78414067127930e-01
  3.07343053830611e-01
  1.29296844174819e-01
  2.18427698452683e+00
  4.36495473997198e-01
  1.81359656261779e+00
  2.55108057741981e-01
  4.60097888065188e-01
  6.78414067127930e-01
  3.07343053830611e-01
  1.29296844174819e-01
  2.18427698452683e+00
  4.36495473997198e-01
  1.81359656261779e+00
  2.55108057741981e-01
  4.60097888065188e-01
  6.78414067127930e-01
  3.07343053830611e-01
  1.29296844174819e-01
  2.18427698452683e+00
  4.36495473997198e-01
  1.81359656261779e+00
  2.55108057741981e-01
  4.60097888065188e-01
  6.78414067127930e-01
  3.07343053830611e-01
  1.29296844174819e-01
  2.18427698452683e+00
  4.36495473997198e-01
  1.81359656261779e+00
  2.55108057741981e-01
  4.60097888065188e-01
  6.78414067127930e-01
  3.07343053830611e-01
  1.29296844174819e-01
  2.18427698452683e+00
  4.36495473997198e-01
  1.81359656261779e+00
  2.55108057741981e-01
  4.60097888065188e-01
  6.78414067127930e-01
  3.07343053830611e-01
  1.29296844174819e-01
  2.18427698452683e+00
  4.36495473997198e-01
  1.81359656261779e+00
  2.55108057741981e-01
  4.60097888065188e-01
  6.78414067127930e-01
  3.07343053830611e-01
  1.29296844174819e-01
  2.18427698452683e+00
  4.36495473997198e-01
  1.81359656261779e+00
  2.55108057741981e-01
  4.60097888065188e-01
  6.78414067127930e-01
  3.07343053830611e-01
  1.29296844174819e-01
  2.18427698452683e+00
  4.36495473997198e-01
  1.81359656261779e+00
  2.55108057741981e-01
  4.60097888065188e-01
  6.78414067127930e-01
  3.07343053830611e-01
  1.29296844174819e-01
  2.18427698452683e+00
  4.36495473997198e-01
  1.81359656261779e+00
  2.55108057741981e-01
  4.60097888065188e-01
  6.78414067127930e-01
  3.07343053830611e-01
  1.29296844174819e-01
  2.18427698452683e+00
  4.36495473997198e-01
  1.81359656261779e+00
  2.55108057741981e-01
  4.60097888065188e-01
  6.78414067127930e-01
  3.07343053830611e-01
  1.29296844174819e-01
  2.18427698452683e+00
  4.36495473997198e-01
  1.81359656261779e+00
  2.55108057741981e-01
  4.60097888065188e-01
  6.78414067127930e-01
  3.07343053830611e-01
  1.29296844174819e-01
  2.18427698452683e+00
  4.36495473997198e-01
  1.81359656261779e+00
  2.55108057741981e-01
  4.60097888065188e-01
  6.78414067127930e-01
  3.07343053830611e-01
  1.29296844174819e-01
  2.18427698452683e+00
  4.36495473997198e-01
  1.81359656261779e+00
  2.55108057741981e-01
  4.60097888065188e-01
  6.78414067127930e-01
  3.07343053830611e-01
  1.29296844174819e-01
  2.18427698452683e+00
  4.36495473997198e-01
  1.81359656261779e+00
  2.55108057741981e-01
  4.60097888065188e-01
  6.78414067127930e-01
  3.07343053830611e-01
  1.29296844174819e-01
  2.18427698452683e+00
  4.36495473997198e-01
  1.81359656261779e+00
  2.55108057741981e-01
  4.60097888065188e-01
  6.78414067127930e-01
  3.07343053830611e-01
  1.29296844174819e-01
  2.18427698452683e+00
  4.36495473997198e-01
  1.81359656261779e+00
  2.55108057741981e-01
  4.60097888065188e-01
  6.78414067127930e-01
  3.07343053830611e-01
  1.29296844174819e-01
  2.18427698452683e+00
  4.36495473997198e-01
  1.81359656261779e+00
  2.55108057741981e-01
  4.60097888065188e-01
  6.78414067127930e-01
  3.07343053830611e-01
  1.29296844174819e-01
  2.18427698452683e+00
  4.36495473997198e-01
  1.81359656261779e+00
  2.55108057741981e-01
  4.60097888065188e-01
  6.78414067127930e-01
  3.07343053830611e-01
  1.29296844174819e-01
  2.18427698452683e+00
  4.36495473997198e-01
  1.81359656261779e+00
  2.55108057741981e-01
  4.60097888065188e-01
  6.78414067127930e-01
  3.07343053830611e-01
  1.29296844174819e-01
  2.18427698452683e+00
  4.36495473997198e-01
  1.81359656261779e+00
  2.55108057741981e-01
  4.60097888065188e-01
  6.78414067127930e-01
  3.07343053830611e-01
  1.29296844174819e-01
  2.18427698452683e+00
  4.36495473997198e-01
  1.81359656261779e+00
  2.55108057741981e-01
  4.60097888065188e-01
  6.78414067127930e-01
  3.07343053830611e-01
  1.29296844174819e-01
  2.18427698452683e+00
  4.36495473997198e-01
  1.81359656261779e+00
  2.55108057741981e-01
  4.60097888065188e-01
  6.78414067127930e-01
  3.07343053830611e-01
  1.29296844174819e-01
  2.18427698452683e+00
  4.36495473997198e-01
  1.81359656261779e+00
  2.55108057741981e-01
  4.60097888065188e-01
  6.78414067127930e-01
  3.07343053830611e-01
  1.29296844174819e-01
  2.18427698452683e+00
  4.36495473997198e-01
  1.81359656261779e+00

0 0 0 0 1 1 1
0 0 
7 0

0 1 1 7 1 1 1
7 0 
7 0

0 2 2 14 1 1 1
14 0 
1 0

0 3 3 15 1 1 1
15 0 
1 0

0 4 4 16 1 3 3
16 1 
3 0

0 7 7 19 1 3 3
19 1 
1 0

0 10 10 20 1 3 3
20 1 
1 0

0 13 13 21 1 5 6
21 2 
1 1

0 18 18 22 1 5 6
22 2 
1 1

0 23 23 23 1 7 10
23 3 
1 1

1 30 30 24 1 1 1
24 0 
7 0

1 31 31 31 1 1 1
31 0 
7 0

1 32 32 38 1 1 1
38 0 
1 0

1 33 33 39 1 1 1
39 0 
1 0

1 34 34 40 1 3 3
40 1 
3 0

1 37 37 43 1 3 3
43 1 
1 0

1 40 40 44 1 3 3
44 1 
1 0

1 43 43 45 1 5 6
45 2 
1 1

1 48 48 46 1 5 6
46 2 
1 1

1 53 53 47 1 7 10
47 3 
1 1

2 60 60 48 1 1 1
48 0 
7 0

2 61 61 55 1 1 1
55 0 
7 0

2 62 62 62 1 1 1
62 0 
1 0

2 63 63 63 1 1 1
63 0 
1 0

2 64 64 64 1 3 3
64 1 
3 0

2 67 67 67 1 3 3
67 1 
1 0

2 70 70 68 1 3 3
68 1 
1 0

2 73 73 69 1 5 6
69 2 
1 1

2 78 78 70 1 5 6
70 2 
1 1

2 83 83 71 1 7 10
71 3 
1 1

3 90 90 72 1 1 1
72 0 
7 0

3 91 91 79 1 1 1
79 0 
7 0

3 92 92 86 1 1 1
86 0 
1 0

3 93 93 87 1 1 1
87 0 
1 0

3 94 94 88 1 3 3
88 1 
3 0

3 97 97 91 1 3 3
91 1 
1 0

3 100 100 92 1 3 3
92 1 
1 0

3 103 103 93 1 5 6
93 2 
1 1

3 108 108 94 1 5 6
94 2 
1 1

3 113 113 95 1 7 10
95 3 
1 1

4 120 120 96 1 1 1
96 0 
7 0

4 121 121 103 1 1 1
103 0 
7 0

4 122 122 110 1 1 1
110 0 
1 0

4 123 123 111 1 1 1
111 0 
1 0

4 124 124 112 1 3 3
112 1 
3 0

4 127 127 115 1 3 3
115 1 
1 0

4 130 130 116 1 3 3
116 1 
1 0

4 133 133 117 1 5 6
117 2 
1 1

4 138 138 118 1 5 6
118 2 
1 1

4 143 143 119 1 7 10
119 3 
1 1

5 150 150 120 1 1 1
120 0 
7 0

5 151 151 127 1 1 1
127 0 
7 0

5 152 152 134 1 1 1
134 0 
1 0

5 153 153 135 1 1 1
135 0 
1 0

5 154 154 136 1 3 3
136 1 
3 0

5 157 157 139 1 3 3
139 1 
1 0

5 160 160 140 1 3 3
140 1 
1 0

5 163 163 141 1 5 6
141 2 
1 1

5 168 168 142 1 5 6
142 2 
1 1

5 173 173 143 1 7 10
143 3 
1 1

6 180 180 144 1 1 1
144 0 
7 0

6 181 181 151 1 1 1
151 0 
7 0

6 182 182 158 1 1 1
158 0 
1 0

6 183 183 159 1 1 1
159 0 
1 0

6 184 184 160 1 3 3
160 1 
3 0

6 187 187 163 1 3 3
163 1 
1 0

6 190 190 164 1 3 3
164 1 
1 0

6 193 193 165 1 5 6
165 2 
1 1

6 198 198 166 1 5 6
166 2 
1 1

6 203 203 167 1 7 10
167 3 
1 1

7 210 210 168 1 1 1
168 0 
7 0

7 211 211 175 1 1 1
175 0 
7 0

7 212 212 182 1 1 1
182 0 
1 0

7 213 213 183 1 1 1
183 0 
1 0

7 214 214 184 1 3 3
184 1 
3 0

7 217 217 187 1 3 3
187 1 
1 0

7 220 220 188 1 3 3
188 1 
1 0

7 223 223 189 1 5 6
189 2 
1 1

7 228 228 190 1 5 6
190 2 
1 1

7 233 233 191 1 7 10
191 3 
1 1

8 240 240 192 1 1 1
192 0 
7 0

8 241 241 199 1 1 1
199 0 
7 0

8 242 242 206 1 1 1
206 0 
1 0

8 243 243 207 1 1 1
207 0 
1 0

8 244 244 208 1 3 3
208 1 
3 0

8 247 247 211 1 3 3
211 1 
1 0

8 250 250 212 1 3 3
212 1 
1 0

8 253 253 213 1 5 6
213 2 
1 1

8 258 258 214 1 5 6
214 2 
1 1

8 263 263 215 1 7 10
215 3 
1 1

9 270 270 216 1 1 1
216 0 
7 0

9 271 271 223 1 1 1
223 0 
7 0

9 272 272 230 1 1 1
230 0 
1 0

9 273 273 231 1 1 1
231 0 
1 0

9 274 274 232 1 3 3
232 1 
3 0

9 277 277 235 1 3 3
235 1 
1 0

9 280 280 236 1 3 3
236 1 
1 0

9 283 283 237 1 5 6
237 2 
1 1

9 288 288 238 1 5 6
238 2 
1 1

9 293 293 239 1 7 10
239 3 
1 1

10 300 300 240 1 1 1
240 0 
7 0

10 301 301 247 1 1 1
247 0 
7 0

10 302 302 254 1 1 1
254 0 
1 0

10 303 303 255 1 1 1
255 0 
1 0

10 304 304 256 1 3 3
256 1 
3 0

10 307 307 259 1 3 3
259 1 
1 0

10 310 310 260 1 3 3
260 1 
1 0

10 313 313 261 1 5 6
261 2 
1 1

10 318 318 262 1 5 6
262 2 
1 1

10 323 323 263 1 7 10
263 3 
1 1

11 330 330 264 1 1 1
264 0 
7 0

11 331 331 271 1 1 1
271 0 
7 0

11 332 332 278 1 1 1
278 0 
1 0

11 333 333 279 1 1 1
279 0 
1 0

11 334 334 280 1 3 3
280 1 
3 0

11 337 337 283 1 3 3
283 1 
1 0

11 340 340 284 1 3 3
284 1 
1 0

11 343 343 285 1 5 6
285 2 
1 1

11 348 348 286 1 5 6
286 2 
1 1

11 353 353 287 1 7 10
287 3 
1 1

12 360 360 288 1 1 1
288 0 
7 0

12 361 361 295 1 1 1
295 0 
7 0

12 362 362 302 1 1 1
302 0 
1 0

12 363 363 303 1 1 1
303 0 
1 0

12 364 364 304 1 3 3
304 1 
3 0

12 367 367 307 1 3 3
307 1 
1 0

12 370 370 308 1 3 3
308 1 
1 0

12 373 373 309 1 5 6
309 2 
1 1

12 378 378 310 1 5 6
310 2 
1 1

12 383 383 311 1 7 10
311 3 
1 1

13 390 390 312 1 1 1
312 0 
7 0

13 391 391 319 1 1 1
319 0 
7 0

13 392 392 326 1 1 1
326 0 
1 0

13 393 393 327 1 1 1
327 0 
1 0

13 394 394 328 1 3 3
328 1 
3 0

13 397 397 331 1 3 3
331 1 
1 0

13 400 400 332 1 3 3
332 1 
1 0

13 403 403 333 1 5 6
333 2 
1 1

13 408 408 334 1 5 6
334 2 
1 1

13 413 413 335 1 7 10
335 3 
1 1

14 420 420 336 1 1 1
336 0 
7 0

14 421 421 343 1 1 1
343 0 
7 0

14 422 422 350 1 1 1
350 0 
1 0

14 423 423 351 1 1 1
351 0 
1 0

14 424 424 352 1 3 3
352 1 
3 0

14 427 427 355 1 3 3
355 1 
1 0

14 430 430 356 1 3 3
356 1 
1 0

14 433 433 357 1 5 6
357 2 
1 1

14 438 438 358 1 5 6
358 2 
1 1

14 443 443 359 1 7 10
359 3 
1 1

15 450 450 360 1 1 1
360 0 
7 0

15 451 451 367 1 1 1
367 0 
7 0

15 452 452 374 1 1 1
374 0 
1 0

15 453 453 375 1 1 1
375 0 
1 0

15 454 454 376 1 3 3
376 1 
3 0

15 457 457 379 1 3 3
379 1 
1 0

15 460 460 380 1 3 3
380 1 
1 0

15 463 463 381 1 5 6
381 2 
1 1

15 468 468 382 1 5 6
382 2 
1 1

15 473 473 383 1 7 10
383 3 
1 1

16 480 480 384 1 1 1
384 0 
7 0

16 481 481 391 1 1 1
391 0 
7 0

16 482 482 398 1 1 1
398 0 
1 0

16 483 483 399 1 1 1
399 0 
1 0

16 484 484 400 1 3 3
400 1 
3 0

16 487 487 403 1 3 3
403 1 
1 0

16 490 490 404 1 3 3
404 1 
1 0

16 493 493 405 1 5 6
405 2 
1 1

16 498 498 406 1 5 6
406 2 
1 1

16 503 503 407 1 7 10
407 3 
1 1

17 510 510 408 1 1 1
408 0 
7 0

17 511 511 415 1 1 1
415 0 
7 0

17 512 512 422 1 1 1
422 0 
1 0

17 513 513 423 1 1 1
423 0 
1 0

17 514 514 424 1 3 3
424 1 
3 0

17 517 517 427 1 3 3
427 1 
1 0

17 520 520 428 1 3 3
428 1 
1 0

17 523 523 429 1 5 6
429 2 
1 1

17 528 528 430 1 5 6
430 2 
1 1

17 533 533 431 1 7 10
431 3 
1 1

18 540 540 432 1 1 1
432 0 
7 0

18 541 541 439 1 1 1
439 0 
7 0

18 542 542 446 1 1 1
446 0 
1 0

18 543 543 447 1 1 1
447 0 
1 0

18 544 544 448 1 3 3
448 1 
3 0

18 547 547 451 1 3 3
451 1 
1 0

18 550 550 452 1 3 3
452 1 
1 0

18 553 553 453 1 5 6
453 2 
1 1

18 558 558 454 1 5 6
454 2 
1 1

18 563 563 455 1 7 10
455 3 
1 1

19 570 570 456 1 1 1
456 0 
7 0

19 571 571 463 1 1 1
463 0 
7 0

19 572 572 470 1 1 1
470 0 
1 0

19 573 573 471 1 1 1
471 0 
1 0

19 574 574 472 1 3 3
472 1 
3 0

19 577 577 475 1 3 3
475 1 
1 0

19 580 580 476 1 3 3
476 1 
1 0

19 583 583 477 1 5 6
477 2 
1 1

19 588 588 478 1 5 6
478 2 
1 1

19 593 593 479 1 7 10
479 3 
1 1

20 600 600 480 1 1 1
480 0 
7 0

20 601 601 487 1 1 1
487 0 
7 0

20 602 602 494 1 1 1
494 0 
1 0

20 603 603 495 1 1 1
495 0 
1 0

20 604 604 496 1 3 3
496 1 
3 0

20 607 607 499 1 3 3
499 1 
1 0

20 610 610 500 1 3 3
500 1 
1 0

20 613 613 501 1 5 6
501 2 
1 1

20 618 618 502 1 5 6
502 2 
1 1

20 623 623 503 1 7 10
503 3 
1 1

21 630 630 504 1 1 1
504 0 
7 0

21 631 631 511 1 1 1
511 0 
7 0

21 632 632 518 1 1 1
518 0 
1 0

21 633 633 519 1 1 1
519 0 
1 0

21 634 634 520 1 3 3
520 1 
3 0

21 637 637 523 1 3 3
523 1 
1 0

21 640 640 524 1 3 3
524 1 
1 0

21 643 643 525 1 5 6
525 2 
1 1

21 648 648 526 1 5 6
526 2 
1 1

21 653 653 527 1 7 10
527 3 
1 1

22 660 660 528 1 1 1
528 0 
7 0

22 661 661 535 1 1 1
535 0 
7 0

22 662 662 542 1 1 1
542 0 
1 0

22 663 663 543 1 1 1
543 0 
1 0

22 664 664 544 1 3 3
544 1 
3 0

22 667 667 547 1 3 3
547 1 
1 0

22 670 670 548 1 3 3
548 1 
1 0

22 673 673 549 1 5 6
549 2 
1 1

22 678 678 550 1 5 6
550 2 
1 1

22 683 683 551 1 7 10
551 3 
1 1

23 690 690 552 1 1 1
552 0 
7 0

23 691 691 559 1 1 1
559 0 
7 0

23 692 692 566 1 1 1
566 0 
1 0

23 693 693 567 1 1 1
567 0 
1 0

23 694 694 568 1 3 3
568 1 
3 0

23 697 697 571 1 3 3
571 1 
1 0

23 700 700 572 1 3 3
572 1 
1 0

23 703 703 573 1 5 6
573 2 
1 1

23 708 708 574 1 5 6
574 2 
1 1

23 713 713 575 1 7 10
575 3 
1 1

24 720 720 576 1 1 1
576 0 
3 0

24 721 721 579 1 1 1
579 0 
1 0

24 722 722 580 1 1 1
580 0 
1 0

24 723 723 581 1 3 3
581 1 
1 0

24 726 726 582 1 3 3
582 1 
1 0

24 729 729 583 1 5 6
583 2 
1 1

25 734 734 584 1 1 1
584 0 
3 0

25 735 735 587 1 1 1
587 0 
1 0

25 736 736 588 1 1 1
588 0 
1 0

25 737 737 589 1 3 3
589 1 
1 0

25 740 740 590 1 3 3
590 1 
1 0

25 743 743 591 1 5 6
591 2 
1 1

26 748 748 592 1 1 1
592 0 
3 0

26 749 749 595 1 1 1
595 0 
1 0

26 750 750 596 1 1 1
596 0 
1 0

26 751 751 597 1 3 3
597 1 
1 0

26 754 754 598 1 3 3
598 1 
1 0

26 757 757 599 1 5 6
599 2 
1 1

27 762 762 600 1 1 1
600 0 
3 0

27 763 763 603 1 1 1
603 0 
1 0

27 764 764 604 1 1 1
604 0 
1 0

27 765 765 605 1 3 3
605 1 
1 0

27 768 768 606 1 3 3
606 1 
1 0

27 771 771 607 1 5 6
607 2 
1 1

28 776 776 608 1 1 1
608 0 
3 0

28 777 777 611 1 1 1
611 0 
1 0

28 778 778 612 1 1 1
612 0 
1 0

28 779 779 613 1 3 3
613 1 
1 0

28 782 782 614 1 3 3
614 1 
1 0

28 785 785 615 1 5 6
615 2 
1 1

29 790 790 616 1 1 1
616 0 
3 0

29 791 791 619 1 1 1
619 0 
1 0

29 792 792 620 1 1 1
620 0 
1 0

29 793 793 621 1 3 3
621 1 
1 0

29 796 796 622 1 3 3
622 1 
1 0

29 799 799 623 1 5 6
623 2 
1 1

30 804 804 624 1 1 1
624 0 
3 0

30 805 805 627 1 1 1
627 0 
1 0

30 806 806 628 1 1 1
628 0 
1 0

30 807 807 629 1 3 3
629 1 
1 0

30 810 810 630 1 3 3
630 1 
1 0

30 813 813 631 1 5 6
631 2 
1 1

31 818 818 632 1 1 1
632 0 
3 0

31 819 819 635 1 1 1
635 0 
1 0

31 820 820 636 1 1 1
636 0 
1 0

31 821 821 637 1 3 3
637 1 
1 0

31 824 824 638 1 3 3
638 1 
1 0

31 827 827 639 1 5 6
639 2 
1 1

32 832 832 640 1 1 1
640 0 
3 0

32 833 833 643 1 1 1
643 0 
1 0

32 834 834 644 1 1 1
644 0 
1 0

32 835 835 645 1 3 3
645 1 
1 0

32 838 838 646 1 3 3
646 1 
1 0

32 841 841 647 1 5 6
647 2 
1 1

33 846 846 648 1 1 1
648 0 
3 0

33 847 847 651 1 1 1
651 0 
1 0

33 848 848 652 1 1 1
652 0 
1 0

33 849 849 653 1 3 3
653 1 
1 0

33 852 852 654 1 3 3
654 1 
1 0

33 855 855 655 1 5 6
655 2 
1 1

34 860 860 656 1 1 1
656 0 
3 0

34 861 861 659 1 1 1
659 0 
1 0

34 862 862 660 1 1 1
660 0 
1 0

34 863 863 661 1 3 3
661 1 
1 0

34 866 866 662 1 3 3
662 1 
1 0

34 869 869 663 1 5 6
663 2 
1 1

35 874 874 664 1 1 1
664 0 
3 0

35 875 875 667 1 1 1
667 0 
1 0

35 876 876 668 1 1 1
668 0 
1 0

35 877 877 669 1 3 3
669 1 
1 0

35 880 880 670 1 3 3
670 1 
1 0

35 883 883 671 1 5 6
671 2 
1 1

36 888 888 672 1 1 1
672 0 
3 0

36 889 889 675 1 1 1
675 0 
1 0

36 890 890 676 1 1 1
676 0 
1 0

36 891 891 677 1 3 3
677 1 
1 0

36 894 894 678 1 3 3
678 1 
1 0

36 897 897 679 1 5 6
679 2 
1 1

37 902 902 680 1 1 1
680 0 
3 0

37 903 903 683 1 1 1
683 0 
1 0

37 904 904 684 1 1 1
684 0 
1 0

37 905 905 685 1 3 3
685 1 
1 0

37 908 908 686 1 3 3
686 1 
1 0

37 911 911 687 1 5 6
687 2 
1 1

38 916 916 688 1 1 1
688 0 
3 0

38 917 917 691 1 1 1
691 0 
1 0

38 918 918 692 1 1 1
692 0 
1 0

38 919 919 693 1 3 3
693 1 
1 0

38 922 922 694 1 3 3
694 1 
1 0

38 925 925 695 1 5 6
695 2 
1 1

39 930 930 696 1 1 1
696 0 
3 0

39 931 931 699 1 1 1
699 0 
1 0

39 932 932 700 1 1 1
700 0 
1 0

39 933 933 701 1 3 3
701 1 
1 0

39 936 936 702 1 3 3
702 1 
1 0

39 939 939 703 1 5 6
703 2 
1 1

40 944 944 704 1 1 1
704 0 
3 0

40 945 945 707 1 1 1
707 0 
1 0

40 946 946 708 1 1 1
708 0 
1 0

40 947 947 709 1 3 3
709 1 
1 0

40 950 950 710 1 3 3
710 1 
1 0

40 953 953 711 1 5 6
711 2 
1 1

41 958 958 712 1 1 1
712 0 
3 0

41 959 959 715 1 1 1
715 0 
1 0

41 960 960 716 1 1 1
716 0 
1 0

41 961 961 717 1 3 3
717 1 
1 0

41 964 964 718 1 3 3
718 1 
1 0

41 967 967 719 1 5 6
719 2 
1 1

42 972 972 720 1 1 1
720 0 
3 0

42 973 973 723 1 1 1
723 0 
1 0

42 974 974 724 1 1 1
724 0 
1 0

42 975 975 725 1 3 3
725 1 
1 0

42 978 978 726 1 3 3
726 1 
1 0

42 981 981 727 1 5 6
727 2 
1 1

43 986 986 728 1 1 1
728 0 
3 0

43 987 987 731 1 1 1
731 0 
1 0

43 988 988 732 1 1 1
732 0 
1 0

43 989 989 733 1 3 3
733 1 
1 0

43 992 992 734 1 3 3
734 1 
1 0

43 995 995 735 1 5 6
735 2 
1 1

44 1000 1000 736 1 1 1
736 0 
3 0

44 1001 1001 739 1 1 1
739 0 
1 0

44 1002 1002 740 1 1 1
740 0 
1 0

44 1003 1003 741 1 3 3
741 1 
1 0

44 1006 1006 742 1 3 3
742 1 
1 0

44 1009 1009 743 1 5 6
743 2 
1 1

45 1014 1014 744 1 1 1
744 0 
3 0

45 1015 1015 747 1 1 1
747 0 
1 0

45 1016 1016 748 1 1 1
748 0 
1 0

45 1017 1017 749 1 3 3
749 1 
1 0

45 1020 1020 750 1 3 3
750 1 
1 0

45 1023 1023 751 1 5 6
751 2 
1 1

46 1028 1028 752 1 1 1
752 0 
3 0

46 1029 1029 755 1 1 1
755 0 
1 0

46 1030 1030 756 1 1 1
756 0 
1 0

46 1031 1031 757 1 3 3
757 1 
1 0

46 1034 1034 758 1 3 3
758 1 
1 0

46 1037 1037 759 1 5 6
759 2 
1 1

47 1042 1042 760 1 1 1
760 0 
3 0

47 1043 1043 763 1 1 1
763 0 
1 0

47 1044 1044 764 1 1 1
764 0 
1 0

47 1045 1045 765 1 3 3
765 1 
1 0

47 1048 1048 766 1 3 3
766 1 
1 0

47 1051 1051 767 1 5 6
767 2 
1 1

 -------------------------------------------------------------
 Allocate 9936184 B from available memory: 524288000000 B
 There are 343 image cells after screening.
 There are 187 image cells for CGTO evaluation after screening.
 Real-Space grid for FFT initialized based on kinetic energy cutoff (eV) = 500.0
 Real-Space grid for FFT: (25,27,35)
 There are 199155 real-space grid points.
 There are 1331 batches of real-space grid points. 
 Size of each grid batch is around 128
 Grid for AFT initialized based on kinetic energy cutoff (eV) = 200.0
 Real-Space grid for AFT: (16,18,22)
 There are 54945 real-space grid points.

 There are 142416 atom-centered grid points.

 Adding empirical dispersion correction 
 ----------------------------------------------------------------
 Doing -D3(BJ) with
 s6  =   1.00000e+00
 s8  =   7.87500e-01
 a1  =   4.28900e-01
 a2  =   4.44070e+00
 ----------------------------------------------------------------
 Monkhorst-Pack mesh is [1,1,1]
 There are 1 k points.
kpoints in Bohr
0.0000000000 0.0000000000 0.0000000000
 There are 84 alpha and 84 beta electrons
 Start computing overlap matrix
 Allocate 17842176 B from available memory: 524278063840 B
 Time for computing overlap matrix: 14.3680000000 s
 ====== Initialize compute kernels for all-electron RI-J (kpts) ====== 
 ==== The unitcell is orthorombic! => Use orthorombic code ==== 
 ========================================================== 
 Range-separated parameter omega        = 0.400000000000000022
 Threshold for 1e2c shellpair           = 0.000000000000010000
 Threshold for 2e2c SR integral         = 0.000000000000000001
 Threshold for 2e3c SR integral         = 0.000000000100000000
 Threshold for AFT G-space screening is = 0.000000000100000000
 The exponent cutoff for C/D classification (omega2 / 2) is  = 0.080000000000000016
 ========================================================== 
 === Post process the basis set for RI calculation (exp_cutoff = 0.080000000000000016 ) === 
nshells_b1 before uncontraction = 384
nshells_b1 after uncontraction = 384
nshells_baux before uncontraction = 840
nshells_baux after uncontraction = 840
===============================================
nbsf total   = 1056
nbsf compact = 1056
nbsf diffuse = 0
naux total   = 2616
naux compact = 2616
naux diffuse = 0
nshells_bnuc = 48
================= Automatically determine grid size for reciprocal space summation =================
 Range-separated parameter = 0.40000000000000 and G-space screening threshold = 0.00000000010000
The number of grid points along each axis dimension is (9, 10, 12)
The total number of grid points is 9975
======== Initializing relevant kernel for RIJ (CC type) ========
There are 64048 shellpairs in the reference unit cell
There are 157 images and we expect to have 10055536 in total
There are 262044 shellpairs in the lattice sum after screening
****** AFT -> SR ******
Maximum bra distance cutoff is 23.000000000000
Maximum bra ket distance cutoff is 26.843750000000
Number of auxiliary image is 331
There are 64048 shellpairs in the reference unit cell
There are 259 images and we expect to have 16588432 in total
There are 262044 shellpairs in the lattice sum after screening
Available memory for 2e3c calculation is 16383131927
Batch size for auxiliary basis is 2616 out of 2616
Batch size for basis function pair is 475344 out of 475344
Finish initializing 2e3c SR with the lattice sum!
=================================================
======== Initialize the SR component for Vnuc (CC type) ========
Maximum bra distance cutoff is 23.000000000000
Maximum bra ket distance cutoff is 21.003846166574
Number of auxiliary image is 239
There are 64048 shellpairs in the reference unit cell
There are 259 images and we expect to have 16588432 in total
There are 262044 shellpairs in the lattice sum after screening
Available memory for 2e3c calculation is 16383131927
Batch size for auxiliary basis is 48 out of 48
Batch size for basis function pair is 475344 out of 475344
Finish initializing 2e3c SR with the lattice sum!
=================================================
 Aufbau occupation scheme, occupation determined by eigenvalue
 == 0-th k-point nmo = 1056 (0.00000,0.00000,0.00000) ==

 Generate autoSAD guess
backing up fragment data
Atom # 0: c, charge: 0, multiplicity: 3.000000
Atom # 1: h, charge: 0, multiplicity: 2.000000
writing autosad to fragment context
Settings for isolated fragments: 
  BSSE: FALSE
  frgm_gamma: TRUE
  frgm_center: FALSE

    Running SCF for isolated atom #0
    Fragment Input file: /scratch/bdxq/hdinh//benzene_crystal_ccpvtz_omega_0.4_111.scratch20250709190419/autosad_frgmt_0/frgmt_input.in
    Fragment Output file: /scratch/bdxq/hdinh//benzene_crystal_ccpvtz_omega_0.4_111.scratch20250709190419/autosad_frgmt_0/frgmt_job.out
    Fragment job begins at Wed Jul  9 19:04:47 2025

 Integrated density by DFT XC:
   Numerical integral  =     6.000000028259
   Relative error      =     0.0000004710 %
Final energy components:
 DFT Correlation                 Energy =  -0.14423436283118
 DFT Exchange                    Energy =  -5.01556245885024
 Empirical Dispersion Correction Energy =   0.00000000000000
 Kinetic (alpha)                 Energy =  20.06581719802645
 Kinetic (beta)                  Energy =  17.48562587928552
 Nuclear Attraction (alpha)      Energy = -48.76912356295932
 Nuclear Attraction (beta)       Energy = -39.23746431261215
 Nuclear Repulsion               Energy =   0.00000000000000
 SEOQF                           Energy =  -0.00000000043259
 Total Coulomb                   Energy =  17.82001804842332
----------------------------------------------
    SCF Energy: -37.7949235720
   Total fragment job time:  0.96 s.
    Running SCF for isolated atom #1
    Fragment Input file: /scratch/bdxq/hdinh//benzene_crystal_ccpvtz_omega_0.4_111.scratch20250709190419/autosad_frgmt_1/frgmt_input.in
    Fragment Output file: /scratch/bdxq/hdinh//benzene_crystal_ccpvtz_omega_0.4_111.scratch20250709190419/autosad_frgmt_1/frgmt_job.out
    Fragment job begins at Wed Jul  9 19:04:48 2025

 Integrated density by DFT XC:
   Numerical integral  =     1.000000000312
   Relative error      =     0.0000000312 %
Final energy components:
 DFT Correlation                 Energy =  -0.00568454171571
 DFT Exchange                    Energy =  -0.30207112713322
 Empirical Dispersion Correction Energy =   0.00000000000000
 Kinetic (alpha)                 Energy =   0.49678953465410
 Kinetic (beta)                  Energy =   0.00000000000000
 Nuclear Attraction (alpha)      Energy =  -0.99587214033245
 Nuclear Attraction (beta)       Energy =   0.00000000000000
 Nuclear Repulsion               Energy =   0.00000000000000
 SEOQF                           Energy =  -0.00000000000000
 Total Coulomb                   Energy =   0.30725039235798
----------------------------------------------
    SCF Energy: -0.4995878822
   Total fragment job time:  0.92 s.
restoring fragment data

 ------------------------------------------------------------------------
 Allocate 53529520 B from available memory: 524260221664 B
 Time for generating SCF guess: 1.95 s

 Allocate 5224072 B from available memory: 524206692160 B
 Selected algorithms for each term:
  kpts_dftd3 -> @0x7fcd3532a6a0
  kpts_kinetic -> @0x7fcd3532a5e0
  kpts_nn -> @0x7fcd3532a760
  kpts_rij_bigmem -> @0x7fcd3532a340
  kpts_vnuc_df -> @0x7fcd3532a2e0
  kpts_xc -> @0x7fcd3532a220

 Time for computing kinetic matrix is 15.11 s
Start calculating Vnuc CC type!
 Time for computing nuclear attraction matrix is 19.62 s
Maximum distance between P and Q is 48.46736674611299
Number of images for (P|Qn) is 157
 Time for computing 2e2c SR integral is 1.60 s
 === bvk cell = 0 has 100.00 % of the basis function pairs === 
Static memory requirement for 2e3c SR integrals: 9.265 GB
Dynamic memory requirement for 2e3c SR integrals: 0.032 GB
There are 1884 munu batches for computing 2e3c SR integrals with latsum
There are 42 Q batches for computing 2e3c SR integrals with latsum
 Time for computing 2e3c SR integral (CC) is 598.07 s
 ----------------------------------------------
 Guess energy components:
 D3 correction      Energy =  -0.12328073067621
 DFT Correlation    Energy =  -5.58006528585036
 DFT Exchange       Energy = -134.66445965189061
 Kinetic            Energy = 935.52408200017305
 Nuclear Attraction Energy = -1961.69203801448634
 Nuclear Repulsion  Energy = -128.08132826085716
 Total Coulomb      Energy = 367.09199563679300
 ----------------------------------------------
  Cycle       Energy        RMS Gradient
 ----------------------------------------------
    1    -928.0852815187      1.55e-01   Descent step
 Energy components after cycle 1:
 D3 correction      Energy =  -0.12328073067621
 DFT Correlation    Energy =  -5.54646384796547
 DFT Exchange       Energy = -133.36707068860787
 Kinetic            Energy = 927.50642630035532
 Nuclear Attraction Energy = -1942.49903838086811
 Nuclear Repulsion  Energy = -128.08132826085716
 Total Coulomb      Energy = 354.02547408994116
    2    -928.1821077513      5.17e-02   Normal BFGS step
 Energy components after cycle 2:
 D3 correction      Energy =  -0.12328073067621
 DFT Correlation    Energy =  -5.54732523406115
 DFT Exchange       Energy = -132.28153486640934
 Kinetic            Energy = 921.45473799078638
 Nuclear Attraction Energy = -1929.27175308139704
 Nuclear Repulsion  Energy = -128.08132826085716
 Total Coulomb      Energy = 345.66837643135074
    3    -928.1895595130      1.15e-02   Normal BFGS step
 Energy components after cycle 3:
 D3 correction      Energy =  -0.12328073067621
 DFT Correlation    Energy =  -5.54298122891059
 DFT Exchange       Energy = -132.42920430347382
 Kinetic            Energy = 922.28761671952293
 Nuclear Attraction Energy = -1930.22880086251644
 Nuclear Repulsion  Energy = -128.08132826085716
 Total Coulomb      Energy = 345.92841915389118
    4    -928.1907248735      1.08e-02   Normal BFGS step
 Energy components after cycle 4:
 D3 correction      Energy =  -0.12328073067621
 DFT Correlation    Energy =  -5.54376543650017
 DFT Exchange       Energy = -132.46914873624056
 Kinetic            Energy = 922.42476246104422
 Nuclear Attraction Energy = -1930.81211245478289
 Nuclear Repulsion  Energy = -128.08132826085716
 Total Coulomb      Energy = 346.41414828451968
    5    -928.1912191086      9.40e-03   Normal BFGS step
 Energy components after cycle 5:
 D3 correction      Energy =  -0.12328073067621
 DFT Correlation    Energy =  -5.54463253992565
 DFT Exchange       Energy = -132.44935517095001
 Kinetic            Energy = 922.30429923591009
 Nuclear Attraction Energy = -1930.73604944149747
 Nuclear Repulsion  Energy = -128.08132826085716
 Total Coulomb      Energy = 346.43912779941309
    6    -928.1914690954      2.63e-03   Normal BFGS step
 Energy components after cycle 6:
 D3 correction      Energy =  -0.12328073067621
 DFT Correlation    Energy =  -5.54412232289826
 DFT Exchange       Energy = -132.44285394377548
 Kinetic            Energy = 922.30646214849196
 Nuclear Attraction Energy = -1930.58181496443967
 Nuclear Repulsion  Energy = -128.08132826085716
 Total Coulomb      Energy = 346.27546897875465
    7    -928.1914757226      4.60e-04   Normal BFGS step
 Energy components after cycle 7:
 D3 correction      Energy =  -0.12328073067621
 DFT Correlation    Energy =  -5.54413861820757
 DFT Exchange       Energy = -132.44729683408099
 Kinetic            Energy = 922.32003413143002
 Nuclear Attraction Energy = -1930.63310575222567
 Nuclear Repulsion  Energy = -128.08132826085716
 Total Coulomb      Energy = 346.31764034197568
    8    -928.1914758874      9.95e-05   Normal BFGS step
 Energy components after cycle 8:
 D3 correction      Energy =  -0.12328073067621
 DFT Correlation    Energy =  -5.54415146010369
 DFT Exchange       Energy = -132.44657115879167
 Kinetic            Energy = 922.31750302694491
 Nuclear Attraction Energy = -1930.62716525091832
 Nuclear Repulsion  Energy = -128.08132826085716
 Total Coulomb      Energy = 346.31351794697537
    9    -928.1914758814      2.38e-05   Normal BFGS step
 Energy components after cycle 9:
 D3 correction      Energy =  -0.12328073067621
 DFT Correlation    Energy =  -5.54414960667299
 DFT Exchange       Energy = -132.44653909805609
 Kinetic            Energy = 922.31739789280095
 Nuclear Attraction Energy = -1930.62656085408867
 Nuclear Repulsion  Energy = -128.08132826085716
 Total Coulomb      Energy = 346.31298477614911
   10    -928.1914758932      3.80e-05   Normal BFGS step
 Energy components after cycle 10:
 D3 correction      Energy =  -0.12328073067621
 DFT Correlation    Energy =  -5.54414883922912
 DFT Exchange       Energy = -132.44659385673339
 Kinetic            Energy = 922.31759419695584
 Nuclear Attraction Energy = -1930.62704070687801
 Nuclear Repulsion  Energy = -128.08132826085716
 Total Coulomb      Energy = 346.31332230418752
   11    -928.1914758930      8.46e-07   Normal BFGS step
 Energy components after cycle 11:
 D3 correction      Energy =  -0.12328073067621
 DFT Correlation    Energy =  -5.54414931837949
 DFT Exchange       Energy = -132.44659221644099
 Kinetic            Energy = 922.31758946761067
 Nuclear Attraction Energy = -1930.62708688561588
 Nuclear Repulsion  Energy = -128.08132826085716
 Total Coulomb      Energy = 346.31337205132007
   11    -928.1914758930      8.46e-07  Convergence criterion met
 ----------------------------------------------
 Final energy components:
 D3 correction      Energy =  -0.12328073067621
 DFT Correlation    Energy =  -5.54414931837949
 DFT Exchange       Energy = -132.44659221644099
 Kinetic            Energy = 922.31758946761067
 Nuclear Attraction Energy = -1930.62708688561588
 Nuclear Repulsion  Energy = -128.08132826085716
 Total Coulomb      Energy = 346.31337205132007
 ----------------------------------------------
 Final energy is -928.1914758930

 SCF time:   CPU 21053.19s  wall 839.00s 
 Total wall time for computing Kinetic: 0.11 s (13)
 Total wall time for computing RIJ-BIGMEM: 667.92 s (13)
 Total wall time for computing RSDF Vnuc: 0.11 s (13)
 Total wall time for computing DFT XC: 65.80 s (13)
 ---------------------------------------------------------------------------
                        Orbital Energies (a.u.)
 ---------------------------------------------------------------------------
 == 0-th k-point (0.00000,0.00000,0.00000) occupation: 84==
 -9.68259 -9.68259 -9.68259 -9.68258 -9.68258 -9.68257 -9.68257 -9.68257 -9.68220 -9.68219
 -9.68219 -9.68219 -9.68213 -9.68213 -9.68213 -9.68213 -9.68052 -9.68051 -9.68051 -9.68051
 -9.68050 -9.68050 -9.68050 -9.68049 -0.57663 -0.57303 -0.57059 -0.57014 -0.47604 -0.47069
 -0.47014 -0.46831 -0.46796 -0.46687 -0.46605 -0.46524 -0.34057 -0.34036 -0.33699 -0.33514
 -0.33482 -0.33390 -0.33364 -0.32701 -0.27786 -0.26280 -0.26257 -0.25273 -0.21137 -0.20434
 -0.19795 -0.19497 -0.19338 -0.19325 -0.19077 -0.19059 -0.17873 -0.17801 -0.17612 -0.16268
 -0.16233 -0.16067 -0.16028 -0.15407 -0.12442 -0.12198 -0.11847 -0.11700 -0.10195 -0.10038
 -0.09902 -0.09290 -0.09119 -0.09075 -0.08554 -0.07950 -0.03676 -0.03615 -0.03289 -0.02879
 -0.02266 -0.01881 -0.01457 -0.01298 0.15160 0.15310 0.15735 0.16395 0.16512 0.16668
 0.17416 0.17669 0.19549 0.23985 0.24967 0.26776 0.27574 0.28063 0.28896 0.29043
 0.29410 0.29465 0.29596 0.30071 0.30802 0.31950 0.32483 0.32618 0.33514 0.34054
 0.34408 0.35310 0.36089 0.36251 0.36490 0.37095 0.37154 0.37753 0.38137 0.38368
 0.39402 0.39653 0.40545 0.40721 0.42664 0.42805 0.43322 0.44111 0.44142 0.44695
 0.45503 0.45778 0.45805 0.46035 0.46566 0.46753 0.47787 0.48503 0.48908 0.48937
 0.50338 0.50575 0.52910 0.53095 0.53471 0.54158 0.54641 0.55430 0.55666 0.55815
 0.56490 0.56529 0.57719 0.58433 0.58996 0.59472 0.59800 0.60173 0.60698 0.62285
 0.62433 0.62517 0.62614 0.63067 0.63254 0.63336 0.64253 0.65182 0.65713 0.66578
 0.66593 0.66753 0.66828 0.67962 0.68162 0.68166 0.68371 0.69707 0.70140 0.70191
 0.70588 0.71844 0.71874 0.72214 0.72462 0.73018 0.74090 0.75031 0.75340 0.75781
 0.76382 0.76396 0.76496 0.76859 0.77126 0.77613 0.78336 0.78406 0.78959 0.79528
 0.80453 0.80758 0.80892 0.81631 0.82205 0.82302 0.82537 0.83248 0.83537 0.84395
 0.84747 0.84818 0.85011 0.85115 0.85205 0.85216 0.86915 0.87184 0.87584 0.89077
 0.89436 0.89516 0.89682 0.90017 0.90071 0.91474 0.92496 0.92683 0.92966 0.92972
 0.93493 0.93633 0.95089 0.95280 0.96210 0.96316 0.96536 0.97683 0.98550 0.98712
 0.99126 0.99215 1.00301 1.00832 1.01260 1.02041 1.02235 1.02237 1.02510 1.02948
 1.02952 1.02992 1.04669 1.04852 1.05271 1.05276 1.05625 1.05882 1.06138 1.06623
 1.07167 1.08182 1.09177 1.09528 1.10323 1.10706 1.11013 1.11744 1.12171 1.12260
 1.13334 1.14435 1.15819 1.16204 1.16464 1.17154 1.17354 1.17841 1.18627 1.18973
 1.19008 1.19143 1.19735 1.20187 1.21611 1.22297 1.22431 1.23227 1.23998 1.24035
 1.24769 1.24797 1.24973 1.25743 1.25848 1.26315 1.27104 1.27495 1.27761 1.29256
 1.29727 1.29816 1.30132 1.30220 1.31317 1.32035 1.32381 1.32759 1.33346 1.33493
 1.34164 1.34399 1.36252 1.37280 1.37903 1.38489 1.38768 1.39020 1.39580 1.40000
 1.41245 1.41519 1.41721 1.42726 1.42769 1.43608 1.43681 1.44235 1.44247 1.44435
 1.44659 1.45304 1.45424 1.46237 1.46380 1.47420 1.50086 1.50305 1.50409 1.50853
 1.51605 1.51647 1.51775 1.52604 1.52750 1.53548 1.53724 1.53727 1.54941 1.55068
 1.55845 1.56792 1.57234 1.57291 1.57980 1.58048 1.58400 1.59358 1.59884 1.60288
 1.61050 1.61954 1.62752 1.63366 1.63600 1.63609 1.64102 1.65572 1.66018 1.66269
 1.66364 1.66386 1.66631 1.67344 1.68901 1.68931 1.69313 1.70007 1.70832 1.71016
 1.71561 1.71587 1.72117 1.73170 1.73228 1.73562 1.74357 1.76780 1.77317 1.78031
 1.78035 1.78873 1.80217 1.81247 1.81582 1.81589 1.81814 1.81937 1.82827 1.84084
 1.84641 1.87455 1.87545 1.88982 1.89246 1.91310 1.92243 1.92382 1.93468 1.94052
 1.95962 1.96663 1.96983 1.98140 1.98282 1.98416 1.98977 2.01443 2.01565 2.02595
 2.02925 2.03916 2.04078 2.04690 2.05408 2.06558 2.09030 2.11309 2.11620 2.11788
 2.12602 2.13083 2.13634 2.14653 2.15392 2.17165 2.17271 2.19581 2.19685 2.19894
 2.20106 2.20418 2.20800 2.23743 2.24311 2.24772 2.25257 2.26012 2.29358 2.29411
 2.29667 2.29988 2.31226 2.31995 2.33873 2.34705 2.35840 2.37697 2.38755 2.39979
 2.41405 2.41635 2.42057 2.43098 2.43442 2.44582 2.45167 2.46025 2.47165 2.48950
 2.49566 2.49707 2.50067 2.50383 2.51004 2.51776 2.52250 2.52612 2.53268 2.54003
 2.54339 2.55563 2.56103 2.56116 2.56169 2.57490 2.57605 2.59704 2.60577 2.61063
 2.63508 2.63954 2.64295 2.65075 2.66524 2.66642 2.67069 2.68026 2.70013 2.70136
 2.70873 2.71022 2.71669 2.72386 2.72541 2.73694 2.73796 2.74613 2.75230 2.75244
 2.75858 2.77329 2.77406 2.77649 2.78906 2.79215 2.79391 2.79632 2.79639 2.80226
 2.81056 2.81833 2.81900 2.82523 2.83629 2.84021 2.84536 2.85135 2.85352 2.85666
 2.86170 2.86281 2.86287 2.86405 2.87852 2.88399 2.88434 2.89028 2.89165 2.89398
 2.89530 2.89665 2.89763 2.90366 2.90527 2.91468 2.91506 2.93658 2.94050 2.94156
 2.94337 2.94435 2.94919 2.94980 2.95785 2.97878 2.97928 2.98119 2.98177 2.98497
 2.99214 3.00290 3.00298 3.00315 3.00846 3.01813 3.01860 3.02959 3.03570 3.03847
 3.04173 3.04395 3.05950 3.05984 3.06275 3.07412 3.07848 3.07934 3.08123 3.08979
 3.10037 3.10477 3.11289 3.11981 3.12308 3.12390 3.12752 3.13581 3.13790 3.14028
 3.15039 3.15569 3.16373 3.16404 3.16866 3.16987 3.17439 3.17503 3.17896 3.19846
 3.20119 3.20711 3.20904 3.21336 3.21620 3.22008 3.22115 3.22133 3.22477 3.23185
 3.23441 3.23497 3.23780 3.23845 3.24017 3.24285 3.24317 3.24582 3.24920 3.25729
 3.25753 3.25757 3.26216 3.26408 3.28025 3.28632 3.28955 3.29077 3.29251 3.29302
 3.29351 3.29599 3.29643 3.30566 3.30639 3.30979 3.31398 3.32196 3.32465 3.32988
 3.33211 3.33261 3.33408 3.34667 3.35679 3.37058 3.37828 3.38117 3.38452 3.39895
 3.40559 3.40655 3.40847 3.40927 3.41062 3.41742 3.43217 3.44665 3.44731 3.44752
 3.46704 3.47142 3.47186 3.47769 3.48296 3.48437 3.48749 3.49391 3.49554 3.49671
 3.50137 3.50329 3.52402 3.52879 3.53123 3.53417 3.53924 3.54755 3.54794 3.55321
 3.56264 3.56644 3.57410 3.57932 3.58869 3.58975 3.59180 3.59268 3.59486 3.60476
 3.60769 3.60791 3.60797 3.62560 3.63359 3.63880 3.64120 3.64340 3.64614 3.65149
 3.65692 3.66553 3.66960 3.67191 3.67283 3.68618 3.69474 3.70460 3.71049 3.71762
 3.72616 3.72839 3.73247 3.73628 3.74082 3.74449 3.75637 3.76550 3.77468 3.78514
 3.78557 3.78957 3.80261 3.80833 3.81973 3.82141 3.82682 3.82745 3.83371 3.84309
 3.84871 3.86790 3.87035 3.87244 3.88625 3.88977 3.89071 3.89944 3.90151 3.90196
 3.90709 3.90850 3.91356 3.92148 3.92301 3.92612 3.93115 3.93122 3.93397 3.94005
 3.94006 3.94297 3.94479 3.95914 3.97322 3.98159 3.98233 3.98526 3.98694 3.99501
 3.99971 4.00148 4.00515 4.00601 4.00776 4.02412 4.02743 4.02744 4.03248 4.03634
 4.03669 4.03823 4.03831 4.04953 4.05248 4.05580 4.05829 4.06430 4.06722 4.08015
 4.08313 4.08748 4.08756 4.09629 4.09824 4.10218 4.11256 4.11806 4.11928 4.13399
 4.13438 4.13999 4.14320 4.17216 4.17731 4.18301 4.18516 4.19434 4.20293 4.20557
 4.21347 4.21882 4.22118 4.23612 4.24180 4.24318 4.24615 4.25306 4.25840 4.26250
 4.27780 4.27852 4.28139 4.30663 4.31322 4.31619 4.31821 4.32165 4.32543 4.32681
 4.33568 4.33595 4.34143 4.34506 4.34649 4.35208 4.36604 4.37388 4.38458 4.38586
 4.39053 4.39202 4.39969 4.40083 4.41088 4.41411 4.41698 4.41963 4.42721 4.43092
 4.43495 4.43629 4.44062 4.44316 4.44835 4.45020 4.45580 4.45710 4.46110 4.46711
 4.47008 4.47177 4.48154 4.48721 4.49230 4.49320 4.50882 4.51136 4.51348 4.51499
 4.51592 4.51651 4.51727 4.51986 4.52574 4.53921 4.54136 4.56516 4.57121 4.58078
 4.58174 4.58704 4.58752 4.59329 4.59516 4.60255 4.61622 4.62406 4.62508 4.63391
 4.63701 4.63850 4.64917 4.65556 4.66402 4.66576 4.66876 4.67664 4.67911 4.69975
 4.70602 4.71752 4.74305 4.74721 4.75976 4.77241 4.79516 4.80147 4.80486 4.81888
 4.82884 4.83329 4.83877 4.84583 4.85160 4.87040 4.87061 4.87543 4.87727 4.88203
 4.88562 4.89216 4.89919 4.90161 4.90465 4.90904 4.91300 4.91359 4.91514 4.92625
 4.92751 4.92758 4.92872 4.92977 4.94718 4.94995 4.95461 4.95602 4.96671 5.01044
 5.01501 5.02950 5.03314 5.03531 5.03661 5.04430 5.04880 5.05039 5.06624 5.07652
 5.11337 5.11399 5.12882 5.13969 5.16217 5.16259 5.16766 5.17311 5.17373 5.17695
 5.18021 5.18148 5.18464 5.19559 5.19574 5.20591 5.21442 5.23097 5.26033 5.26427
 5.27659 5.29320 5.29460 5.32932 5.33013 5.33030 5.33998 5.34131 5.35460 5.38569
 5.38861 5.40460 5.40627 5.41330 5.42660 5.44107 5.44847 5.46722 5.47648 5.51314
 5.58070 5.58142 5.59394 5.60341 5.63734 5.64599 5.65464 5.67026 5.71418 5.74673
 5.76900 5.81996 5.83957 5.84313 5.86388 5.87003 5.87120 5.88187 5.88937 5.91010
 5.95535 6.03080 6.03245 6.03771 6.06804 6.09798 6.10429 6.11459 6.13265 6.13291
 6.16325 6.18442 6.21163 6.22163 6.23668 6.25952 6.26331 6.26558 6.27053 6.29463
 6.30596 6.30769 6.31158 6.32052 6.71167 6.71462 6.73408 6.74099 7.02802 7.03215
 7.03721 7.03775 9.85244 9.85356 10.80748 11.56736 12.67845 12.89447 12.89517 12.89758
 13.04777 13.12540 13.18866 13.24765 13.52737 13.54308 13.56140 13.63511 13.67842 13.87557
 13.94805 14.15328 16.05100 16.12930 16.17792 16.38941
 ---------------------------------------------------------------------------
 VBM is at 0-th k-point with -0.35329 eV
 CBM is at 0-th k-point with 4.12512 eV
 Band gap is 4.47841 eV


           Ground-State Mulliken Net Atomic Charges

      Atom                 Charge (a.u.)          Spin (a.u.)
   --------------------------------------------------------
      1  C              (-0.213137,-0.000000)    (0.000000,0.000000)
      2  C              (-0.213137,-0.000000)    (0.000000,0.000000)
      3  C              (-0.213137,-0.000000)    (0.000000,0.000000)
      4  C              (-0.213137,-0.000000)    (0.000000,0.000000)
      5  C              (-0.213137,-0.000000)    (0.000000,0.000000)
      6  C              (-0.213137,-0.000000)    (0.000000,0.000000)
      7  C              (-0.213137,-0.000000)    (0.000000,0.000000)
      8  C              (-0.213137,-0.000000)    (0.000000,0.000000)
      9  C              (-0.034061,-0.000000)    (0.000000,0.000000)
     10  C              (-0.034061,-0.000000)    (0.000000,0.000000)
     11  C              (-0.034061,-0.000000)    (0.000000,0.000000)
     12  C              (-0.034061,-0.000000)    (0.000000,0.000000)
     13  C              (-0.034061,-0.000000)    (0.000000,0.000000)
     14  C              (-0.034061,-0.000000)    (0.000000,0.000000)
     15  C              (-0.034061,-0.000000)    (0.000000,0.000000)
     16  C              (-0.034061,-0.000000)    (0.000000,0.000000)
     17  C              (-0.120490,-0.000000)    (0.000000,0.000000)
     18  C              (-0.120490,-0.000000)    (0.000000,0.000000)
     19  C              (-0.120490,-0.000000)    (0.000000,0.000000)
     20  C              (-0.120490,-0.000000)    (0.000000,0.000000)
     21  C              (-0.120490,-0.000000)    (0.000000,0.000000)
     22  C              (-0.120490,-0.000000)    (0.000000,0.000000)
     23  C              (-0.120490,-0.000000)    (0.000000,0.000000)
     24  C              (-0.120490,-0.000000)    (0.000000,0.000000)
     25  H               (0.131589,-0.000000)    (0.000000,0.000000)
     26  H               (0.131589,-0.000000)    (0.000000,0.000000)
     27  H               (0.131589,-0.000000)    (0.000000,0.000000)
     28  H               (0.131589,-0.000000)    (0.000000,0.000000)
     29  H               (0.131589,-0.000000)    (0.000000,0.000000)
     30  H               (0.131589,-0.000000)    (0.000000,0.000000)
     31  H               (0.131589,-0.000000)    (0.000000,0.000000)
     32  H               (0.131589,-0.000000)    (0.000000,0.000000)
     33  H               (0.108518,-0.000000)    (0.000000,0.000000)
     34  H               (0.108518,-0.000000)    (0.000000,0.000000)
     35  H               (0.108518,-0.000000)    (0.000000,0.000000)
     36  H               (0.108518,-0.000000)    (0.000000,0.000000)
     37  H               (0.108518,-0.000000)    (0.000000,0.000000)
     38  H               (0.108518,-0.000000)    (0.000000,0.000000)
     39  H               (0.108518,-0.000000)    (0.000000,0.000000)
     40  H               (0.108518,-0.000000)    (0.000000,0.000000)
     41  H               (0.127581,-0.000000)    (0.000000,0.000000)
     42  H               (0.127581,-0.000000)    (0.000000,0.000000)
     43  H               (0.127581,-0.000000)    (0.000000,0.000000)
     44  H               (0.127581,-0.000000)    (0.000000,0.000000)
     45  H               (0.127581,-0.000000)    (0.000000,0.000000)
     46  H               (0.127581,-0.000000)    (0.000000,0.000000)
     47  H               (0.127581,-0.000000)    (0.000000,0.000000)
     48  H               (0.127581,-0.000000)    (0.000000,0.000000)
   --------------------------------------------------------
  Sum of atomic charges =     (-0.000000,-0.000000)
  Sum of spin   charges =       (0.000000,0.000000)



 Total job time:  840.93 s.
 Wed Jul  9 19:18:20 2025


        *************************************************************
        *                                                           *
        *  Thank you very much for using QCPBC. Have a nice day.    *
        *                                                           *
        *************************************************************

Running job 1 of 1
