                  Welcome to Q-Chem
           with Periodic Boundary Condition
     A Quantum Leap Into The Future Of Chemistry

 Adam Rettig, Xintian Feng, Meng-Fu Chen, Hieu Dinh, Stephen Quiton,
 Anton Ni, Paul J. Robinson, Jinghong Zhang, Joonho Lee

Contributors to earlier versions of Q-Chem not listed above:
 Evgeny Epifanovsky, Leo Cunha, Jerome F. Gonthier, Kuan-Yu Liu
 Input file: /scratch/bdxq/hdinh//benzene_crystal_ccpvdz_omega_0.4_222.scratch20250709185025/benzene_crystal_ccpvdz_omega_0.4_222.0
 Scratch folder: /scratch/bdxq/hdinh//benzene_crystal_ccpvdz_omega_0.4_222.scratch20250709185025
 Auxillary files located at: /u/hdinh/qcpbc/qcaux
 Q-Chem begins on Wed Jul  9 18:50:29 2025

 -------------------------------------------------------------
 User input:
 -------------------------------------------------------------
 $lattice
 3
 6.8100000000 	0.0000000000 	0.0000000000
 0.0000000000 	7.3900000000 	0.0000000000
 0.0000000000 	0.0000000000 	9.4200000000
 $end
 
 $unitcell
 ABSOLUTE
 0 1
  C 	6.7630110000 	6.9414270000 	1.3122060000
  C 	6.7630110000 	4.1435730000 	6.0222060000
  C 	3.3580110000 	6.9414270000 	3.3977940000
  C 	3.3580110000 	4.1435730000 	8.1077940000
  C 	0.0469890000 	0.4485730000 	8.1077940000
  C 	0.0469890000 	3.2464270000 	3.3977940000
  C 	3.4519890000 	0.4485730000 	6.0222060000
  C 	3.4519890000 	3.2464270000 	1.3122060000
  C 	0.8580600000 	6.3723970000 	0.4210740000
  C 	0.8580600000 	4.7126030000 	5.1310740000
  C 	4.2630600000 	6.3723970000 	4.2889260000
  C 	4.2630600000 	4.7126030000 	8.9989260000
  C 	5.9519400000 	1.0176030000 	8.9989260000
  C 	5.9519400000 	2.6773970000 	4.2889260000
  C 	2.5469400000 	1.0176030000 	5.1310740000
  C 	2.5469400000 	2.6773970000 	0.4210740000
  C 	5.9076750000 	0.5690300000 	0.9024360000
  C 	5.9076750000 	3.1259700000 	5.6124360000
  C 	2.5026750000 	0.5690300000 	3.8075640000
  C 	2.5026750000 	3.1259700000 	8.5175640000
  C 	0.9023250000 	6.8209700000 	8.5175640000
  C 	0.9023250000 	4.2640300000 	3.8075640000
  C 	4.3073250000 	6.8209700000 	5.6124360000
  C 	4.3073250000 	4.2640300000 	0.9024360000
  H 	6.7262370000 	6.6170060000 	2.3568840000
  H 	6.7262370000 	4.4679940000 	7.0668840000
  H 	3.3212370000 	6.6170060000 	2.3531160000
  H 	3.3212370000 	4.4679940000 	7.0631160000
  H 	0.0837630000 	0.7729940000 	7.0631160000
  H 	0.0837630000 	2.9220060000 	2.3531160000
  H 	3.4887630000 	0.7729940000 	7.0668840000
  H 	3.4887630000 	2.9220060000 	2.3568840000
  H 	1.5261210000 	5.5735380000 	0.7357020000
  H 	1.5261210000 	5.5114620000 	5.4457020000
  H 	4.9311210000 	5.5735380000 	3.9742980000
  H 	4.9311210000 	5.5114620000 	8.6842980000
  H 	5.2838790000 	1.8164620000 	8.6842980000
  H 	5.2838790000 	1.8785380000 	3.9742980000
  H 	1.8788790000 	1.8164620000 	5.4457020000
  H 	1.8788790000 	1.8785380000 	0.7357020000
  H 	5.2028400000 	1.0131690000 	1.5835020000
  H 	5.2028400000 	2.6818310000 	6.2935020000
  H 	1.7978400000 	1.0131690000 	3.1264980000
  H 	1.7978400000 	2.6818310000 	7.8364980000
  H 	1.6071600000 	6.3768310000 	7.8364980000
  H 	1.6071600000 	4.7081690000 	3.1264980000
  H 	5.0121600000 	6.3768310000 	6.2935020000
  H 	5.0121600000 	4.7081690000 	1.5835020000
 $end
 
 $rem
 jobtype = sp
 method = pbe
 dft_d = 6
 scf_convergence = 5
 scf_guess = autosad
 scf_algorithm = gdm
 basis = cc-pvdz
 aux_basis = cc-pvtz-jk
 input_bohr = false
 
 mp_mesh = [2,2,2]
 
 integral_direct true
 bvk_cgto true
 
 thresh 14
 mem_total 500000
 threads 32
 
 MAX_SCF_CYCLES 500
 madelung = false
 omega 0.4
 do_rij_bigmem true
 automate_g true
 print_level 10
 grid_type_xc 1
 
 thresh_1e2c_sp 1e-14
 thresh_2e3c_bra_ket_sep 1e-10
 thresh_g 1e-10
 $end
 
 $rem_autosad
 incfock 1000
 scf_algorithm gdm_ls
 $end
 
 -------------------------------------------------------------
 Running PBC job

 Requested Exchange Correlation Functionals: 
  DFT Exchange:  1.00000 pbe_x
  DFT Correlation:  1.00000 pbe_c
 using 32 threads for computing.
 ---------------------------------------------------------------
      Coordinates of Atoms in Central Unit Cell (Angstroms)
    I     Atom         X            Y            Z
 ---------------------------------------------------------------
    1       C      6.763011     6.941427     1.312206
    2       C      6.763011     4.143573     6.022206
    3       C      3.358011     6.941427     3.397794
    4       C      3.358011     4.143573     8.107794
    5       C      0.046989     0.448573     8.107794
    6       C      0.046989     3.246427     3.397794
    7       C      3.451989     0.448573     6.022206
    8       C      3.451989     3.246427     1.312206
    9       C      0.858060     6.372397     0.421074
   10       C      0.858060     4.712603     5.131074
   11       C      4.263060     6.372397     4.288926
   12       C      4.263060     4.712603     8.998926
   13       C      5.951940     1.017603     8.998926
   14       C      5.951940     2.677397     4.288926
   15       C      2.546940     1.017603     5.131074
   16       C      2.546940     2.677397     0.421074
   17       C      5.907675     0.569030     0.902436
   18       C      5.907675     3.125970     5.612436
   19       C      2.502675     0.569030     3.807564
   20       C      2.502675     3.125970     8.517564
   21       C      0.902325     6.820970     8.517564
   22       C      0.902325     4.264030     3.807564
   23       C      4.307325     6.820970     5.612436
   24       C      4.307325     4.264030     0.902436
   25       H      6.726237     6.617006     2.356884
   26       H      6.726237     4.467994     7.066884
   27       H      3.321237     6.617006     2.353116
   28       H      3.321237     4.467994     7.063116
   29       H      0.083763     0.772994     7.063116
   30       H      0.083763     2.922006     2.353116
   31       H      3.488763     0.772994     7.066884
   32       H      3.488763     2.922006     2.356884
   33       H      1.526121     5.573538     0.735702
   34       H      1.526121     5.511462     5.445702
   35       H      4.931121     5.573538     3.974298
   36       H      4.931121     5.511462     8.684298
   37       H      5.283879     1.816462     8.684298
   38       H      5.283879     1.878538     3.974298
   39       H      1.878879     1.816462     5.445702
   40       H      1.878879     1.878538     0.735702
   41       H      5.202840     1.013169     1.583502
   42       H      5.202840     2.681831     6.293502
   43       H      1.797840     1.013169     3.126498
   44       H      1.797840     2.681831     7.836498
   45       H      1.607160     6.376831     7.836498
   46       H      1.607160     4.708169     3.126498
   47       H      5.012160     6.376831     6.293502
   48       H      5.012160     4.708169     1.583502
 ---------------------------------------------------------------
 --------------------------------------------------
              Lattice Vectors (Angstroms)
              X            Y            Z
 --------------------------------------------------
   X       6.810000     0.000000     0.000000
   Y       0.000000     7.390000     0.000000
   Z       0.000000     0.000000     9.420000
 --------------------------------------------------
 --------------------------------------------------
       Reciprocal Lattice Vectors (Angstroms^-1)
              X            Y            Z
 --------------------------------------------------
   X       0.922641     0.000000     0.000000
   Y       0.000000     0.850228     0.000000
   Z       0.000000     0.000000     0.667005
 --------------------------------------------------

 Single point calculation requested

 Hamiltonian contributions:
 List of terms in Hamiltonian: kpts_nn, kpts_kinetic, kpts_vnuc_df, kpts_xc, kpts_rij_bigmem, kpts_dftd3

 K-Points calculation started.

 Basis set information about using solid harmonic (1) or Cartesian (0):
  h : 
  c : D(1) 

 Basis set information about using solid harmonic (1) or Cartesian (0):
  h : D(1) D(1) F(1) 
  c : D(1) D(1) D(1) D(1) D(1) F(1) F(1) G(1) 

 There are 456 basis functions in the central unit cell.
 Print atomic basis of atoms in the central unit cell:
 -------------------------------------------------------------
48 600 600 216

  1.27802385678315e+01  1.31173959440827e+01  2.47970995909068e+00
  1.27802385678315e+01  7.83021814739398e+00  1.13803200060781e+01
  6.34572111348071e+00  1.31173959440827e+01  6.42090008789669e+00
  6.34572111348071e+00  7.83021814739398e+00  1.53215101348841e+01
  8.87963408700403e-02  8.47680116901756e-01  1.53215101348841e+01
  8.87963408700403e-02  6.13485791359047e+00  6.42090008789669e+00
  6.52331379522079e+00  8.47680116901756e-01  1.13803200060781e+01
  6.52331379522079e+00  6.13485791359047e+00  2.47970995909068e+00
  1.62149839849639e+00  1.20420850873869e+01  7.95714538200672e-01
  1.62149839849639e+00  8.90552900408978e+00  9.69632458518805e+00
  8.05601585284714e+00  1.20420850873869e+01  8.10489550878671e+00
  8.05601585284714e+00  8.90552900408978e+00  1.70055055557741e+01
  1.12475365102051e+01  1.92299097359756e+00  1.70055055557741e+01
  1.12475365102051e+01  5.05954705689466e+00  8.10489550878671e+00
  4.81301905585436e+00  1.92299097359756e+00  9.69632458518805e+00
  4.81301905585436e+00  5.05954705689466e+00  7.95714538200672e-01
  1.11638877832985e+01  1.07531085669580e+00  1.70535688500278e+00
  1.11638877832985e+01  5.90722717379642e+00  1.06059669319902e+01
  4.72937032894780e+00  1.07531085669580e+00  7.19525316198460e+00
  4.72937032894780e+00  5.90722717379642e+00  1.60958632089720e+01
  1.70514712540295e+00  1.28897652042886e+01  1.60958632089720e+01
  1.70514712540295e+00  8.05784888718802e+00  7.19525316198460e+00
  8.13966457975370e+00  1.28897652042886e+01  1.06059669319902e+01
  8.13966457975370e+00  8.05784888718802e+00  1.70535688500278e+00
  1.27107457793245e+01  1.25043291050055e+01  4.45386526751248e+00
  1.27107457793245e+01  8.44328498647119e+00  1.33544753144999e+01
  6.27622832497372e+00  1.25043291050055e+01  4.44674477947489e+00
  6.27622832497372e+00  8.44328498647119e+00  1.33473548264623e+01
  1.58289129377028e-01  1.46074695597897e+00  1.33473548264623e+01
  1.58289129377028e-01  5.52179107451325e+00  4.44674477947489e+00
  6.59280658372778e+00  1.46074695597897e+00  1.33544753144999e+01
  6.59280658372778e+00  5.52179107451325e+00  4.45386526751248e+00
  2.88395072304001e+00  1.05324603651945e+01  1.39027528933943e+00
  2.88395072304001e+00  1.04151537262822e+01  1.02908853363268e+01
  9.31846817739075e+00  1.05324603651945e+01  7.51033475764795e+00
  9.31846817739075e+00  1.04151537262822e+01  1.64109448046353e+01
  9.98508418566149e+00  3.43261569578998e+00  1.64109448046353e+01
  9.98508418566149e+00  3.54992233470225e+00  7.51033475764795e+00
  3.55056673131074e+00  3.43261569578998e+00  1.02908853363268e+01
  3.55056673131074e+00  3.54992233470225e+00  1.39027528933943e+00
  9.83194267024794e+00  1.91461192796097e+00  2.99238509779716e+00
  9.83194267024794e+00  5.06792610253125e+00  1.18929951447845e+01
  3.39742521589719e+00  1.91461192796097e+00  5.90822494919022e+00
  3.39742521589719e+00  5.06792610253125e+00  1.48088349961776e+01
  3.03709223845355e+00  1.20504641330235e+01  1.48088349961776e+01
  3.03709223845355e+00  8.89714995845319e+00  5.90822494919022e+00
  9.47160969280430e+00  1.20504641330235e+01  1.18929951447845e+01
  9.47160969280430e+00  8.89714995845319e+00  2.99238509779716e+00

  6.66500000000000e+03
  1.00000000000000e+03
  2.28000000000000e+02
  6.47100000000000e+01
  2.10600000000000e+01
  7.49500000000000e+00
  2.79700000000000e+00
  6.66500000000000e+03
  1.00000000000000e+03
  6.47100000000000e+01
  2.10600000000000e+01
  7.49500000000000e+00
  2.79700000000000e+00
  5.21500000000000e-01
  1.59600000000000e-01
  9.43900000000000e+00
  2.00200000000000e+00
  5.45600000000000e-01
  1.51700000000000e-01
  5.50000000000000e-01
  6.66500000000000e+03
  1.00000000000000e+03
  2.28000000000000e+02
  6.47100000000000e+01
  2.10600000000000e+01
  7.49500000000000e+00
  2.79700000000000e+00
  6.66500000000000e+03
  1.00000000000000e+03
  6.47100000000000e+01
  2.10600000000000e+01
  7.49500000000000e+00
  2.79700000000000e+00
  5.21500000000000e-01
  1.59600000000000e-01
  9.43900000000000e+00
  2.00200000000000e+00
  5.45600000000000e-01
  1.51700000000000e-01
  5.50000000000000e-01
  6.66500000000000e+03
  1.00000000000000e+03
  2.28000000000000e+02
  6.47100000000000e+01
  2.10600000000000e+01
  7.49500000000000e+00
  2.79700000000000e+00
  6.66500000000000e+03
  1.00000000000000e+03
  6.47100000000000e+01
  2.10600000000000e+01
  7.49500000000000e+00
  2.79700000000000e+00
  5.21500000000000e-01
  1.59600000000000e-01
  9.43900000000000e+00
  2.00200000000000e+00
  5.45600000000000e-01
  1.51700000000000e-01
  5.50000000000000e-01
  6.66500000000000e+03
  1.00000000000000e+03
  2.28000000000000e+02
  6.47100000000000e+01
  2.10600000000000e+01
  7.49500000000000e+00
  2.79700000000000e+00
  6.66500000000000e+03
  1.00000000000000e+03
  6.47100000000000e+01
  2.10600000000000e+01
  7.49500000000000e+00
  2.79700000000000e+00
  5.21500000000000e-01
  1.59600000000000e-01
  9.43900000000000e+00
  2.00200000000000e+00
  5.45600000000000e-01
  1.51700000000000e-01
  5.50000000000000e-01
  6.66500000000000e+03
  1.00000000000000e+03
  2.28000000000000e+02
  6.47100000000000e+01
  2.10600000000000e+01
  7.49500000000000e+00
  2.79700000000000e+00
  6.66500000000000e+03
  1.00000000000000e+03
  6.47100000000000e+01
  2.10600000000000e+01
  7.49500000000000e+00
  2.79700000000000e+00
  5.21500000000000e-01
  1.59600000000000e-01
  9.43900000000000e+00
  2.00200000000000e+00
  5.45600000000000e-01
  1.51700000000000e-01
  5.50000000000000e-01
  6.66500000000000e+03
  1.00000000000000e+03
  2.28000000000000e+02
  6.47100000000000e+01
  2.10600000000000e+01
  7.49500000000000e+00
  2.79700000000000e+00
  6.66500000000000e+03
  1.00000000000000e+03
  6.47100000000000e+01
  2.10600000000000e+01
  7.49500000000000e+00
  2.79700000000000e+00
  5.21500000000000e-01
  1.59600000000000e-01
  9.43900000000000e+00
  2.00200000000000e+00
  5.45600000000000e-01
  1.51700000000000e-01
  5.50000000000000e-01
  6.66500000000000e+03
  1.00000000000000e+03
  2.28000000000000e+02
  6.47100000000000e+01
  2.10600000000000e+01
  7.49500000000000e+00
  2.79700000000000e+00
  6.66500000000000e+03
  1.00000000000000e+03
  6.47100000000000e+01
  2.10600000000000e+01
  7.49500000000000e+00
  2.79700000000000e+00
  5.21500000000000e-01
  1.59600000000000e-01
  9.43900000000000e+00
  2.00200000000000e+00
  5.45600000000000e-01
  1.51700000000000e-01
  5.50000000000000e-01
  6.66500000000000e+03
  1.00000000000000e+03
  2.28000000000000e+02
  6.47100000000000e+01
  2.10600000000000e+01
  7.49500000000000e+00
  2.79700000000000e+00
  6.66500000000000e+03
  1.00000000000000e+03
  6.47100000000000e+01
  2.10600000000000e+01
  7.49500000000000e+00
  2.79700000000000e+00
  5.21500000000000e-01
  1.59600000000000e-01
  9.43900000000000e+00
  2.00200000000000e+00
  5.45600000000000e-01
  1.51700000000000e-01
  5.50000000000000e-01
  6.66500000000000e+03
  1.00000000000000e+03
  2.28000000000000e+02
  6.47100000000000e+01
  2.10600000000000e+01
  7.49500000000000e+00
  2.79700000000000e+00
  6.66500000000000e+03
  1.00000000000000e+03
  6.47100000000000e+01
  2.10600000000000e+01
  7.49500000000000e+00
  2.79700000000000e+00
  5.21500000000000e-01
  1.59600000000000e-01
  9.43900000000000e+00
  2.00200000000000e+00
  5.45600000000000e-01
  1.51700000000000e-01
  5.50000000000000e-01
  6.66500000000000e+03
  1.00000000000000e+03
  2.28000000000000e+02
  6.47100000000000e+01
  2.10600000000000e+01
  7.49500000000000e+00
  2.79700000000000e+00
  6.66500000000000e+03
  1.00000000000000e+03
  6.47100000000000e+01
  2.10600000000000e+01
  7.49500000000000e+00
  2.79700000000000e+00
  5.21500000000000e-01
  1.59600000000000e-01
  9.43900000000000e+00
  2.00200000000000e+00
  5.45600000000000e-01
  1.51700000000000e-01
  5.50000000000000e-01
  6.66500000000000e+03
  1.00000000000000e+03
  2.28000000000000e+02
  6.47100000000000e+01
  2.10600000000000e+01
  7.49500000000000e+00
  2.79700000000000e+00
  6.66500000000000e+03
  1.00000000000000e+03
  6.47100000000000e+01
  2.10600000000000e+01
  7.49500000000000e+00
  2.79700000000000e+00
  5.21500000000000e-01
  1.59600000000000e-01
  9.43900000000000e+00
  2.00200000000000e+00
  5.45600000000000e-01
  1.51700000000000e-01
  5.50000000000000e-01
  6.66500000000000e+03
  1.00000000000000e+03
  2.28000000000000e+02
  6.47100000000000e+01
  2.10600000000000e+01
  7.49500000000000e+00
  2.79700000000000e+00
  6.66500000000000e+03
  1.00000000000000e+03
  6.47100000000000e+01
  2.10600000000000e+01
  7.49500000000000e+00
  2.79700000000000e+00
  5.21500000000000e-01
  1.59600000000000e-01
  9.43900000000000e+00
  2.00200000000000e+00
  5.45600000000000e-01
  1.51700000000000e-01
  5.50000000000000e-01
  6.66500000000000e+03
  1.00000000000000e+03
  2.28000000000000e+02
  6.47100000000000e+01
  2.10600000000000e+01
  7.49500000000000e+00
  2.79700000000000e+00
  6.66500000000000e+03
  1.00000000000000e+03
  6.47100000000000e+01
  2.10600000000000e+01
  7.49500000000000e+00
  2.79700000000000e+00
  5.21500000000000e-01
  1.59600000000000e-01
  9.43900000000000e+00
  2.00200000000000e+00
  5.45600000000000e-01
  1.51700000000000e-01
  5.50000000000000e-01
  6.66500000000000e+03
  1.00000000000000e+03
  2.28000000000000e+02
  6.47100000000000e+01
  2.10600000000000e+01
  7.49500000000000e+00
  2.79700000000000e+00
  6.66500000000000e+03
  1.00000000000000e+03
  6.47100000000000e+01
  2.10600000000000e+01
  7.49500000000000e+00
  2.79700000000000e+00
  5.21500000000000e-01
  1.59600000000000e-01
  9.43900000000000e+00
  2.00200000000000e+00
  5.45600000000000e-01
  1.51700000000000e-01
  5.50000000000000e-01
  6.66500000000000e+03
  1.00000000000000e+03
  2.28000000000000e+02
  6.47100000000000e+01
  2.10600000000000e+01
  7.49500000000000e+00
  2.79700000000000e+00
  6.66500000000000e+03
  1.00000000000000e+03
  6.47100000000000e+01
  2.10600000000000e+01
  7.49500000000000e+00
  2.79700000000000e+00
  5.21500000000000e-01
  1.59600000000000e-01
  9.43900000000000e+00
  2.00200000000000e+00
  5.45600000000000e-01
  1.51700000000000e-01
  5.50000000000000e-01
  6.66500000000000e+03
  1.00000000000000e+03
  2.28000000000000e+02
  6.47100000000000e+01
  2.10600000000000e+01
  7.49500000000000e+00
  2.79700000000000e+00
  6.66500000000000e+03
  1.00000000000000e+03
  6.47100000000000e+01
  2.10600000000000e+01
  7.49500000000000e+00
  2.79700000000000e+00
  5.21500000000000e-01
  1.59600000000000e-01
  9.43900000000000e+00
  2.00200000000000e+00
  5.45600000000000e-01
  1.51700000000000e-01
  5.50000000000000e-01
  6.66500000000000e+03
  1.00000000000000e+03
  2.28000000000000e+02
  6.47100000000000e+01
  2.10600000000000e+01
  7.49500000000000e+00
  2.79700000000000e+00
  6.66500000000000e+03
  1.00000000000000e+03
  6.47100000000000e+01
  2.10600000000000e+01
  7.49500000000000e+00
  2.79700000000000e+00
  5.21500000000000e-01
  1.59600000000000e-01
  9.43900000000000e+00
  2.00200000000000e+00
  5.45600000000000e-01
  1.51700000000000e-01
  5.50000000000000e-01
  6.66500000000000e+03
  1.00000000000000e+03
  2.28000000000000e+02
  6.47100000000000e+01
  2.10600000000000e+01
  7.49500000000000e+00
  2.79700000000000e+00
  6.66500000000000e+03
  1.00000000000000e+03
  6.47100000000000e+01
  2.10600000000000e+01
  7.49500000000000e+00
  2.79700000000000e+00
  5.21500000000000e-01
  1.59600000000000e-01
  9.43900000000000e+00
  2.00200000000000e+00
  5.45600000000000e-01
  1.51700000000000e-01
  5.50000000000000e-01
  6.66500000000000e+03
  1.00000000000000e+03
  2.28000000000000e+02
  6.47100000000000e+01
  2.10600000000000e+01
  7.49500000000000e+00
  2.79700000000000e+00
  6.66500000000000e+03
  1.00000000000000e+03
  6.47100000000000e+01
  2.10600000000000e+01
  7.49500000000000e+00
  2.79700000000000e+00
  5.21500000000000e-01
  1.59600000000000e-01
  9.43900000000000e+00
  2.00200000000000e+00
  5.45600000000000e-01
  1.51700000000000e-01
  5.50000000000000e-01
  6.66500000000000e+03
  1.00000000000000e+03
  2.28000000000000e+02
  6.47100000000000e+01
  2.10600000000000e+01
  7.49500000000000e+00
  2.79700000000000e+00
  6.66500000000000e+03
  1.00000000000000e+03
  6.47100000000000e+01
  2.10600000000000e+01
  7.49500000000000e+00
  2.79700000000000e+00
  5.21500000000000e-01
  1.59600000000000e-01
  9.43900000000000e+00
  2.00200000000000e+00
  5.45600000000000e-01
  1.51700000000000e-01
  5.50000000000000e-01
  6.66500000000000e+03
  1.00000000000000e+03
  2.28000000000000e+02
  6.47100000000000e+01
  2.10600000000000e+01
  7.49500000000000e+00
  2.79700000000000e+00
  6.66500000000000e+03
  1.00000000000000e+03
  6.47100000000000e+01
  2.10600000000000e+01
  7.49500000000000e+00
  2.79700000000000e+00
  5.21500000000000e-01
  1.59600000000000e-01
  9.43900000000000e+00
  2.00200000000000e+00
  5.45600000000000e-01
  1.51700000000000e-01
  5.50000000000000e-01
  6.66500000000000e+03
  1.00000000000000e+03
  2.28000000000000e+02
  6.47100000000000e+01
  2.10600000000000e+01
  7.49500000000000e+00
  2.79700000000000e+00
  6.66500000000000e+03
  1.00000000000000e+03
  6.47100000000000e+01
  2.10600000000000e+01
  7.49500000000000e+00
  2.79700000000000e+00
  5.21500000000000e-01
  1.59600000000000e-01
  9.43900000000000e+00
  2.00200000000000e+00
  5.45600000000000e-01
  1.51700000000000e-01
  5.50000000000000e-01
  6.66500000000000e+03
  1.00000000000000e+03
  2.28000000000000e+02
  6.47100000000000e+01
  2.10600000000000e+01
  7.49500000000000e+00
  2.79700000000000e+00
  6.66500000000000e+03
  1.00000000000000e+03
  6.47100000000000e+01
  2.10600000000000e+01
  7.49500000000000e+00
  2.79700000000000e+00
  5.21500000000000e-01
  1.59600000000000e-01
  9.43900000000000e+00
  2.00200000000000e+00
  5.45600000000000e-01
  1.51700000000000e-01
  5.50000000000000e-01
  6.66500000000000e+03
  1.00000000000000e+03
  2.28000000000000e+02
  6.47100000000000e+01
  2.10600000000000e+01
  7.49500000000000e+00
  2.79700000000000e+00
  6.66500000000000e+03
  1.00000000000000e+03
  6.47100000000000e+01
  2.10600000000000e+01
  7.49500000000000e+00
  2.79700000000000e+00
  5.21500000000000e-01
  1.59600000000000e-01
  9.43900000000000e+00
  2.00200000000000e+00
  5.45600000000000e-01
  1.51700000000000e-01
  5.50000000000000e-01
  1.30100000000000e+01
  1.96200000000000e+00
  4.44600000000000e-01
  1.22000000000000e-01
  7.27000000000000e-01
  1.30100000000000e+01
  1.96200000000000e+00
  4.44600000000000e-01
  1.22000000000000e-01
  7.27000000000000e-01
  1.30100000000000e+01
  1.96200000000000e+00
  4.44600000000000e-01
  1.22000000000000e-01
  7.27000000000000e-01
  1.30100000000000e+01
  1.96200000000000e+00
  4.44600000000000e-01
  1.22000000000000e-01
  7.27000000000000e-01
  1.30100000000000e+01
  1.96200000000000e+00
  4.44600000000000e-01
  1.22000000000000e-01
  7.27000000000000e-01
  1.30100000000000e+01
  1.96200000000000e+00
  4.44600000000000e-01
  1.22000000000000e-01
  7.27000000000000e-01
  1.30100000000000e+01
  1.96200000000000e+00
  4.44600000000000e-01
  1.22000000000000e-01
  7.27000000000000e-01
  1.30100000000000e+01
  1.96200000000000e+00
  4.44600000000000e-01
  1.22000000000000e-01
  7.27000000000000e-01
  1.30100000000000e+01
  1.96200000000000e+00
  4.44600000000000e-01
  1.22000000000000e-01
  7.27000000000000e-01
  1.30100000000000e+01
  1.96200000000000e+00
  4.44600000000000e-01
  1.22000000000000e-01
  7.27000000000000e-01
  1.30100000000000e+01
  1.96200000000000e+00
  4.44600000000000e-01
  1.22000000000000e-01
  7.27000000000000e-01
  1.30100000000000e+01
  1.96200000000000e+00
  4.44600000000000e-01
  1.22000000000000e-01
  7.27000000000000e-01
  1.30100000000000e+01
  1.96200000000000e+00
  4.44600000000000e-01
  1.22000000000000e-01
  7.27000000000000e-01
  1.30100000000000e+01
  1.96200000000000e+00
  4.44600000000000e-01
  1.22000000000000e-01
  7.27000000000000e-01
  1.30100000000000e+01
  1.96200000000000e+00
  4.44600000000000e-01
  1.22000000000000e-01
  7.27000000000000e-01
  1.30100000000000e+01
  1.96200000000000e+00
  4.44600000000000e-01
  1.22000000000000e-01
  7.27000000000000e-01
  1.30100000000000e+01
  1.96200000000000e+00
  4.44600000000000e-01
  1.22000000000000e-01
  7.27000000000000e-01
  1.30100000000000e+01
  1.96200000000000e+00
  4.44600000000000e-01
  1.22000000000000e-01
  7.27000000000000e-01
  1.30100000000000e+01
  1.96200000000000e+00
  4.44600000000000e-01
  1.22000000000000e-01
  7.27000000000000e-01
  1.30100000000000e+01
  1.96200000000000e+00
  4.44600000000000e-01
  1.22000000000000e-01
  7.27000000000000e-01
  1.30100000000000e+01
  1.96200000000000e+00
  4.44600000000000e-01
  1.22000000000000e-01
  7.27000000000000e-01
  1.30100000000000e+01
  1.96200000000000e+00
  4.44600000000000e-01
  1.22000000000000e-01
  7.27000000000000e-01
  1.30100000000000e+01
  1.96200000000000e+00
  4.44600000000000e-01
  1.22000000000000e-01
  7.27000000000000e-01
  1.30100000000000e+01
  1.96200000000000e+00
  4.44600000000000e-01
  1.22000000000000e-01
  7.27000000000000e-01

  3.64599440658250e-01
  6.76976693553059e-01
  1.13479586458989e+00
  1.65846537366526e+00
  1.93036343130757e+00
  1.45629240665047e+00
  4.43268218412025e-01
  3.27816545752681e-04
 -6.95191092023978e-03
 -5.90485205318809e-02
 -8.26658278749410e-02
 -3.58062727598002e-01
 -2.07698431939654e-01
  4.81878149474643e-01
  1.79963635330801e-01
  1.34373710949623e+00
  1.06316808787974e+00
  5.08231833836250e-01
  1.34949743639293e-01
  5.78154836189229e-01
  3.64599440658250e-01
  6.76976693553059e-01
  1.13479586458989e+00
  1.65846537366526e+00
  1.93036343130757e+00
  1.45629240665047e+00
  4.43268218412025e-01
  3.27816545752681e-04
 -6.95191092023978e-03
 -5.90485205318809e-02
 -8.26658278749410e-02
 -3.58062727598002e-01
 -2.07698431939654e-01
  4.81878149474643e-01
  1.79963635330801e-01
  1.34373710949623e+00
  1.06316808787974e+00
  5.08231833836250e-01
  1.34949743639293e-01
  5.78154836189229e-01
  3.64599440658250e-01
  6.76976693553059e-01
  1.13479586458989e+00
  1.65846537366526e+00
  1.93036343130757e+00
  1.45629240665047e+00
  4.43268218412025e-01
  3.27816545752681e-04
 -6.95191092023978e-03
 -5.90485205318809e-02
 -8.26658278749410e-02
 -3.58062727598002e-01
 -2.07698431939654e-01
  4.81878149474643e-01
  1.79963635330801e-01
  1.34373710949623e+00
  1.06316808787974e+00
  5.08231833836250e-01
  1.34949743639293e-01
  5.78154836189229e-01
  3.64599440658250e-01
  6.76976693553059e-01
  1.13479586458989e+00
  1.65846537366526e+00
  1.93036343130757e+00
  1.45629240665047e+00
  4.43268218412025e-01
  3.27816545752681e-04
 -6.95191092023978e-03
 -5.90485205318809e-02
 -8.26658278749410e-02
 -3.58062727598002e-01
 -2.07698431939654e-01
  4.81878149474643e-01
  1.79963635330801e-01
  1.34373710949623e+00
  1.06316808787974e+00
  5.08231833836250e-01
  1.34949743639293e-01
  5.78154836189229e-01
  3.64599440658250e-01
  6.76976693553059e-01
  1.13479586458989e+00
  1.65846537366526e+00
  1.93036343130757e+00
  1.45629240665047e+00
  4.43268218412025e-01
  3.27816545752681e-04
 -6.95191092023978e-03
 -5.90485205318809e-02
 -8.26658278749410e-02
 -3.58062727598002e-01
 -2.07698431939654e-01
  4.81878149474643e-01
  1.79963635330801e-01
  1.34373710949623e+00
  1.06316808787974e+00
  5.08231833836250e-01
  1.34949743639293e-01
  5.78154836189229e-01
  3.64599440658250e-01
  6.76976693553059e-01
  1.13479586458989e+00
  1.65846537366526e+00
  1.93036343130757e+00
  1.45629240665047e+00
  4.43268218412025e-01
  3.27816545752681e-04
 -6.95191092023978e-03
 -5.90485205318809e-02
 -8.26658278749410e-02
 -3.58062727598002e-01
 -2.07698431939654e-01
  4.81878149474643e-01
  1.79963635330801e-01
  1.34373710949623e+00
  1.06316808787974e+00
  5.08231833836250e-01
  1.34949743639293e-01
  5.78154836189229e-01
  3.64599440658250e-01
  6.76976693553059e-01
  1.13479586458989e+00
  1.65846537366526e+00
  1.93036343130757e+00
  1.45629240665047e+00
  4.43268218412025e-01
  3.27816545752681e-04
 -6.95191092023978e-03
 -5.90485205318809e-02
 -8.26658278749410e-02
 -3.58062727598002e-01
 -2.07698431939654e-01
  4.81878149474643e-01
  1.79963635330801e-01
  1.34373710949623e+00
  1.06316808787974e+00
  5.08231833836250e-01
  1.34949743639293e-01
  5.78154836189229e-01
  3.64599440658250e-01
  6.76976693553059e-01
  1.13479586458989e+00
  1.65846537366526e+00
  1.93036343130757e+00
  1.45629240665047e+00
  4.43268218412025e-01
  3.27816545752681e-04
 -6.95191092023978e-03
 -5.90485205318809e-02
 -8.26658278749410e-02
 -3.58062727598002e-01
 -2.07698431939654e-01
  4.81878149474643e-01
  1.79963635330801e-01
  1.34373710949623e+00
  1.06316808787974e+00
  5.08231833836250e-01
  1.34949743639293e-01
  5.78154836189229e-01
  3.64599440658250e-01
  6.76976693553059e-01
  1.13479586458989e+00
  1.65846537366526e+00
  1.93036343130757e+00
  1.45629240665047e+00
  4.43268218412025e-01
  3.27816545752681e-04
 -6.95191092023978e-03
 -5.90485205318809e-02
 -8.26658278749410e-02
 -3.58062727598002e-01
 -2.07698431939654e-01
  4.81878149474643e-01
  1.79963635330801e-01
  1.34373710949623e+00
  1.06316808787974e+00
  5.08231833836250e-01
  1.34949743639293e-01
  5.78154836189229e-01
  3.64599440658250e-01
  6.76976693553059e-01
  1.13479586458989e+00
  1.65846537366526e+00
  1.93036343130757e+00
  1.45629240665047e+00
  4.43268218412025e-01
  3.27816545752681e-04
 -6.95191092023978e-03
 -5.90485205318809e-02
 -8.26658278749410e-02
 -3.58062727598002e-01
 -2.07698431939654e-01
  4.81878149474643e-01
  1.79963635330801e-01
  1.34373710949623e+00
  1.06316808787974e+00
  5.08231833836250e-01
  1.34949743639293e-01
  5.78154836189229e-01
  3.64599440658250e-01
  6.76976693553059e-01
  1.13479586458989e+00
  1.65846537366526e+00
  1.93036343130757e+00
  1.45629240665047e+00
  4.43268218412025e-01
  3.27816545752681e-04
 -6.95191092023978e-03
 -5.90485205318809e-02
 -8.26658278749410e-02
 -3.58062727598002e-01
 -2.07698431939654e-01
  4.81878149474643e-01
  1.79963635330801e-01
  1.34373710949623e+00
  1.06316808787974e+00
  5.08231833836250e-01
  1.34949743639293e-01
  5.78154836189229e-01
  3.64599440658250e-01
  6.76976693553059e-01
  1.13479586458989e+00
  1.65846537366526e+00
  1.93036343130757e+00
  1.45629240665047e+00
  4.43268218412025e-01
  3.27816545752681e-04
 -6.95191092023978e-03
 -5.90485205318809e-02
 -8.26658278749410e-02
 -3.58062727598002e-01
 -2.07698431939654e-01
  4.81878149474643e-01
  1.79963635330801e-01
  1.34373710949623e+00
  1.06316808787974e+00
  5.08231833836250e-01
  1.34949743639293e-01
  5.78154836189229e-01
  3.64599440658250e-01
  6.76976693553059e-01
  1.13479586458989e+00
  1.65846537366526e+00
  1.93036343130757e+00
  1.45629240665047e+00
  4.43268218412025e-01
  3.27816545752681e-04
 -6.95191092023978e-03
 -5.90485205318809e-02
 -8.26658278749410e-02
 -3.58062727598002e-01
 -2.07698431939654e-01
  4.81878149474643e-01
  1.79963635330801e-01
  1.34373710949623e+00
  1.06316808787974e+00
  5.08231833836250e-01
  1.34949743639293e-01
  5.78154836189229e-01
  3.64599440658250e-01
  6.76976693553059e-01
  1.13479586458989e+00
  1.65846537366526e+00
  1.93036343130757e+00
  1.45629240665047e+00
  4.43268218412025e-01
  3.27816545752681e-04
 -6.95191092023978e-03
 -5.90485205318809e-02
 -8.26658278749410e-02
 -3.58062727598002e-01
 -2.07698431939654e-01
  4.81878149474643e-01
  1.79963635330801e-01
  1.34373710949623e+00
  1.06316808787974e+00
  5.08231833836250e-01
  1.34949743639293e-01
  5.78154836189229e-01
  3.64599440658250e-01
  6.76976693553059e-01
  1.13479586458989e+00
  1.65846537366526e+00
  1.93036343130757e+00
  1.45629240665047e+00
  4.43268218412025e-01
  3.27816545752681e-04
 -6.95191092023978e-03
 -5.90485205318809e-02
 -8.26658278749410e-02
 -3.58062727598002e-01
 -2.07698431939654e-01
  4.81878149474643e-01
  1.79963635330801e-01
  1.34373710949623e+00
  1.06316808787974e+00
  5.08231833836250e-01
  1.34949743639293e-01
  5.78154836189229e-01
  3.64599440658250e-01
  6.76976693553059e-01
  1.13479586458989e+00
  1.65846537366526e+00
  1.93036343130757e+00
  1.45629240665047e+00
  4.43268218412025e-01
  3.27816545752681e-04
 -6.95191092023978e-03
 -5.90485205318809e-02
 -8.26658278749410e-02
 -3.58062727598002e-01
 -2.07698431939654e-01
  4.81878149474643e-01
  1.79963635330801e-01
  1.34373710949623e+00
  1.06316808787974e+00
  5.08231833836250e-01
  1.34949743639293e-01
  5.78154836189229e-01
  3.64599440658250e-01
  6.76976693553059e-01
  1.13479586458989e+00
  1.65846537366526e+00
  1.93036343130757e+00
  1.45629240665047e+00
  4.43268218412025e-01
  3.27816545752681e-04
 -6.95191092023978e-03
 -5.90485205318809e-02
 -8.26658278749410e-02
 -3.58062727598002e-01
 -2.07698431939654e-01
  4.81878149474643e-01
  1.79963635330801e-01
  1.34373710949623e+00
  1.06316808787974e+00
  5.08231833836250e-01
  1.34949743639293e-01
  5.78154836189229e-01
  3.64599440658250e-01
  6.76976693553059e-01
  1.13479586458989e+00
  1.65846537366526e+00
  1.93036343130757e+00
  1.45629240665047e+00
  4.43268218412025e-01
  3.27816545752681e-04
 -6.95191092023978e-03
 -5.90485205318809e-02
 -8.26658278749410e-02
 -3.58062727598002e-01
 -2.07698431939654e-01
  4.81878149474643e-01
  1.79963635330801e-01
  1.34373710949623e+00
  1.06316808787974e+00
  5.08231833836250e-01
  1.34949743639293e-01
  5.78154836189229e-01
  3.64599440658250e-01
  6.76976693553059e-01
  1.13479586458989e+00
  1.65846537366526e+00
  1.93036343130757e+00
  1.45629240665047e+00
  4.43268218412025e-01
  3.27816545752681e-04
 -6.95191092023978e-03
 -5.90485205318809e-02
 -8.26658278749410e-02
 -3.58062727598002e-01
 -2.07698431939654e-01
  4.81878149474643e-01
  1.79963635330801e-01
  1.34373710949623e+00
  1.06316808787974e+00
  5.08231833836250e-01
  1.34949743639293e-01
  5.78154836189229e-01
  3.64599440658250e-01
  6.76976693553059e-01
  1.13479586458989e+00
  1.65846537366526e+00
  1.93036343130757e+00
  1.45629240665047e+00
  4.43268218412025e-01
  3.27816545752681e-04
 -6.95191092023978e-03
 -5.90485205318809e-02
 -8.26658278749410e-02
 -3.58062727598002e-01
 -2.07698431939654e-01
  4.81878149474643e-01
  1.79963635330801e-01
  1.34373710949623e+00
  1.06316808787974e+00
  5.08231833836250e-01
  1.34949743639293e-01
  5.78154836189229e-01
  3.64599440658250e-01
  6.76976693553059e-01
  1.13479586458989e+00
  1.65846537366526e+00
  1.93036343130757e+00
  1.45629240665047e+00
  4.43268218412025e-01
  3.27816545752681e-04
 -6.95191092023978e-03
 -5.90485205318809e-02
 -8.26658278749410e-02
 -3.58062727598002e-01
 -2.07698431939654e-01
  4.81878149474643e-01
  1.79963635330801e-01
  1.34373710949623e+00
  1.06316808787974e+00
  5.08231833836250e-01
  1.34949743639293e-01
  5.78154836189229e-01
  3.64599440658250e-01
  6.76976693553059e-01
  1.13479586458989e+00
  1.65846537366526e+00
  1.93036343130757e+00
  1.45629240665047e+00
  4.43268218412025e-01
  3.27816545752681e-04
 -6.95191092023978e-03
 -5.90485205318809e-02
 -8.26658278749410e-02
 -3.58062727598002e-01
 -2.07698431939654e-01
  4.81878149474643e-01
  1.79963635330801e-01
  1.34373710949623e+00
  1.06316808787974e+00
  5.08231833836250e-01
  1.34949743639293e-01
  5.78154836189229e-01
  3.64599440658250e-01
  6.76976693553059e-01
  1.13479586458989e+00
  1.65846537366526e+00
  1.93036343130757e+00
  1.45629240665047e+00
  4.43268218412025e-01
  3.27816545752681e-04
 -6.95191092023978e-03
 -5.90485205318809e-02
 -8.26658278749410e-02
 -3.58062727598002e-01
 -2.07698431939654e-01
  4.81878149474643e-01
  1.79963635330801e-01
  1.34373710949623e+00
  1.06316808787974e+00
  5.08231833836250e-01
  1.34949743639293e-01
  5.78154836189229e-01
  3.64599440658250e-01
  6.76976693553059e-01
  1.13479586458989e+00
  1.65846537366526e+00
  1.93036343130757e+00
  1.45629240665047e+00
  4.43268218412025e-01
  3.27816545752681e-04
 -6.95191092023978e-03
 -5.90485205318809e-02
 -8.26658278749410e-02
 -3.58062727598002e-01
 -2.07698431939654e-01
  4.81878149474643e-01
  1.79963635330801e-01
  1.34373710949623e+00
  1.06316808787974e+00
  5.08231833836250e-01
  1.34949743639293e-01
  5.78154836189229e-01
  1.63548422787197e-01
  2.77417541697630e-01
  3.15749306997667e-01
  1.47122794428574e-01
  9.56881375059566e-01
  1.63548422787197e-01
  2.77417541697630e-01
  3.15749306997667e-01
  1.47122794428574e-01
  9.56881375059566e-01
  1.63548422787197e-01
  2.77417541697630e-01
  3.15749306997667e-01
  1.47122794428574e-01
  9.56881375059566e-01
  1.63548422787197e-01
  2.77417541697630e-01
  3.15749306997667e-01
  1.47122794428574e-01
  9.56881375059566e-01
  1.63548422787197e-01
  2.77417541697630e-01
  3.15749306997667e-01
  1.47122794428574e-01
  9.56881375059566e-01
  1.63548422787197e-01
  2.77417541697630e-01
  3.15749306997667e-01
  1.47122794428574e-01
  9.56881375059566e-01
  1.63548422787197e-01
  2.77417541697630e-01
  3.15749306997667e-01
  1.47122794428574e-01
  9.56881375059566e-01
  1.63548422787197e-01
  2.77417541697630e-01
  3.15749306997667e-01
  1.47122794428574e-01
  9.56881375059566e-01
  1.63548422787197e-01
  2.77417541697630e-01
  3.15749306997667e-01
  1.47122794428574e-01
  9.56881375059566e-01
  1.63548422787197e-01
  2.77417541697630e-01
  3.15749306997667e-01
  1.47122794428574e-01
  9.56881375059566e-01
  1.63548422787197e-01
  2.77417541697630e-01
  3.15749306997667e-01
  1.47122794428574e-01
  9.56881375059566e-01
  1.63548422787197e-01
  2.77417541697630e-01
  3.15749306997667e-01
  1.47122794428574e-01
  9.56881375059566e-01
  1.63548422787197e-01
  2.77417541697630e-01
  3.15749306997667e-01
  1.47122794428574e-01
  9.56881375059566e-01
  1.63548422787197e-01
  2.77417541697630e-01
  3.15749306997667e-01
  1.47122794428574e-01
  9.56881375059566e-01
  1.63548422787197e-01
  2.77417541697630e-01
  3.15749306997667e-01
  1.47122794428574e-01
  9.56881375059566e-01
  1.63548422787197e-01
  2.77417541697630e-01
  3.15749306997667e-01
  1.47122794428574e-01
  9.56881375059566e-01
  1.63548422787197e-01
  2.77417541697630e-01
  3.15749306997667e-01
  1.47122794428574e-01
  9.56881375059566e-01
  1.63548422787197e-01
  2.77417541697630e-01
  3.15749306997667e-01
  1.47122794428574e-01
  9.56881375059566e-01
  1.63548422787197e-01
  2.77417541697630e-01
  3.15749306997667e-01
  1.47122794428574e-01
  9.56881375059566e-01
  1.63548422787197e-01
  2.77417541697630e-01
  3.15749306997667e-01
  1.47122794428574e-01
  9.56881375059566e-01
  1.63548422787197e-01
  2.77417541697630e-01
  3.15749306997667e-01
  1.47122794428574e-01
  9.56881375059566e-01
  1.63548422787197e-01
  2.77417541697630e-01
  3.15749306997667e-01
  1.47122794428574e-01
  9.56881375059566e-01
  1.63548422787197e-01
  2.77417541697630e-01
  3.15749306997667e-01
  1.47122794428574e-01
  9.56881375059566e-01
  1.63548422787197e-01
  2.77417541697630e-01
  3.15749306997667e-01
  1.47122794428574e-01
  9.56881375059566e-01

0 0 0 0 1 1 1
0 0 
7 0

0 1 1 7 1 1 1
7 0 
7 0

0 2 2 14 1 1 1
14 0 
1 0

0 3 3 15 1 3 3
15 1 
3 0

0 6 6 18 1 3 3
18 1 
1 0

0 9 9 19 1 5 6
19 2 
1 1

1 14 14 20 1 1 1
20 0 
7 0

1 15 15 27 1 1 1
27 0 
7 0

1 16 16 34 1 1 1
34 0 
1 0

1 17 17 35 1 3 3
35 1 
3 0

1 20 20 38 1 3 3
38 1 
1 0

1 23 23 39 1 5 6
39 2 
1 1

2 28 28 40 1 1 1
40 0 
7 0

2 29 29 47 1 1 1
47 0 
7 0

2 30 30 54 1 1 1
54 0 
1 0

2 31 31 55 1 3 3
55 1 
3 0

2 34 34 58 1 3 3
58 1 
1 0

2 37 37 59 1 5 6
59 2 
1 1

3 42 42 60 1 1 1
60 0 
7 0

3 43 43 67 1 1 1
67 0 
7 0

3 44 44 74 1 1 1
74 0 
1 0

3 45 45 75 1 3 3
75 1 
3 0

3 48 48 78 1 3 3
78 1 
1 0

3 51 51 79 1 5 6
79 2 
1 1

4 56 56 80 1 1 1
80 0 
7 0

4 57 57 87 1 1 1
87 0 
7 0

4 58 58 94 1 1 1
94 0 
1 0

4 59 59 95 1 3 3
95 1 
3 0

4 62 62 98 1 3 3
98 1 
1 0

4 65 65 99 1 5 6
99 2 
1 1

5 70 70 100 1 1 1
100 0 
7 0

5 71 71 107 1 1 1
107 0 
7 0

5 72 72 114 1 1 1
114 0 
1 0

5 73 73 115 1 3 3
115 1 
3 0

5 76 76 118 1 3 3
118 1 
1 0

5 79 79 119 1 5 6
119 2 
1 1

6 84 84 120 1 1 1
120 0 
7 0

6 85 85 127 1 1 1
127 0 
7 0

6 86 86 134 1 1 1
134 0 
1 0

6 87 87 135 1 3 3
135 1 
3 0

6 90 90 138 1 3 3
138 1 
1 0

6 93 93 139 1 5 6
139 2 
1 1

7 98 98 140 1 1 1
140 0 
7 0

7 99 99 147 1 1 1
147 0 
7 0

7 100 100 154 1 1 1
154 0 
1 0

7 101 101 155 1 3 3
155 1 
3 0

7 104 104 158 1 3 3
158 1 
1 0

7 107 107 159 1 5 6
159 2 
1 1

8 112 112 160 1 1 1
160 0 
7 0

8 113 113 167 1 1 1
167 0 
7 0

8 114 114 174 1 1 1
174 0 
1 0

8 115 115 175 1 3 3
175 1 
3 0

8 118 118 178 1 3 3
178 1 
1 0

8 121 121 179 1 5 6
179 2 
1 1

9 126 126 180 1 1 1
180 0 
7 0

9 127 127 187 1 1 1
187 0 
7 0

9 128 128 194 1 1 1
194 0 
1 0

9 129 129 195 1 3 3
195 1 
3 0

9 132 132 198 1 3 3
198 1 
1 0

9 135 135 199 1 5 6
199 2 
1 1

10 140 140 200 1 1 1
200 0 
7 0

10 141 141 207 1 1 1
207 0 
7 0

10 142 142 214 1 1 1
214 0 
1 0

10 143 143 215 1 3 3
215 1 
3 0

10 146 146 218 1 3 3
218 1 
1 0

10 149 149 219 1 5 6
219 2 
1 1

11 154 154 220 1 1 1
220 0 
7 0

11 155 155 227 1 1 1
227 0 
7 0

11 156 156 234 1 1 1
234 0 
1 0

11 157 157 235 1 3 3
235 1 
3 0

11 160 160 238 1 3 3
238 1 
1 0

11 163 163 239 1 5 6
239 2 
1 1

12 168 168 240 1 1 1
240 0 
7 0

12 169 169 247 1 1 1
247 0 
7 0

12 170 170 254 1 1 1
254 0 
1 0

12 171 171 255 1 3 3
255 1 
3 0

12 174 174 258 1 3 3
258 1 
1 0

12 177 177 259 1 5 6
259 2 
1 1

13 182 182 260 1 1 1
260 0 
7 0

13 183 183 267 1 1 1
267 0 
7 0

13 184 184 274 1 1 1
274 0 
1 0

13 185 185 275 1 3 3
275 1 
3 0

13 188 188 278 1 3 3
278 1 
1 0

13 191 191 279 1 5 6
279 2 
1 1

14 196 196 280 1 1 1
280 0 
7 0

14 197 197 287 1 1 1
287 0 
7 0

14 198 198 294 1 1 1
294 0 
1 0

14 199 199 295 1 3 3
295 1 
3 0

14 202 202 298 1 3 3
298 1 
1 0

14 205 205 299 1 5 6
299 2 
1 1

15 210 210 300 1 1 1
300 0 
7 0

15 211 211 307 1 1 1
307 0 
7 0

15 212 212 314 1 1 1
314 0 
1 0

15 213 213 315 1 3 3
315 1 
3 0

15 216 216 318 1 3 3
318 1 
1 0

15 219 219 319 1 5 6
319 2 
1 1

16 224 224 320 1 1 1
320 0 
7 0

16 225 225 327 1 1 1
327 0 
7 0

16 226 226 334 1 1 1
334 0 
1 0

16 227 227 335 1 3 3
335 1 
3 0

16 230 230 338 1 3 3
338 1 
1 0

16 233 233 339 1 5 6
339 2 
1 1

17 238 238 340 1 1 1
340 0 
7 0

17 239 239 347 1 1 1
347 0 
7 0

17 240 240 354 1 1 1
354 0 
1 0

17 241 241 355 1 3 3
355 1 
3 0

17 244 244 358 1 3 3
358 1 
1 0

17 247 247 359 1 5 6
359 2 
1 1

18 252 252 360 1 1 1
360 0 
7 0

18 253 253 367 1 1 1
367 0 
7 0

18 254 254 374 1 1 1
374 0 
1 0

18 255 255 375 1 3 3
375 1 
3 0

18 258 258 378 1 3 3
378 1 
1 0

18 261 261 379 1 5 6
379 2 
1 1

19 266 266 380 1 1 1
380 0 
7 0

19 267 267 387 1 1 1
387 0 
7 0

19 268 268 394 1 1 1
394 0 
1 0

19 269 269 395 1 3 3
395 1 
3 0

19 272 272 398 1 3 3
398 1 
1 0

19 275 275 399 1 5 6
399 2 
1 1

20 280 280 400 1 1 1
400 0 
7 0

20 281 281 407 1 1 1
407 0 
7 0

20 282 282 414 1 1 1
414 0 
1 0

20 283 283 415 1 3 3
415 1 
3 0

20 286 286 418 1 3 3
418 1 
1 0

20 289 289 419 1 5 6
419 2 
1 1

21 294 294 420 1 1 1
420 0 
7 0

21 295 295 427 1 1 1
427 0 
7 0

21 296 296 434 1 1 1
434 0 
1 0

21 297 297 435 1 3 3
435 1 
3 0

21 300 300 438 1 3 3
438 1 
1 0

21 303 303 439 1 5 6
439 2 
1 1

22 308 308 440 1 1 1
440 0 
7 0

22 309 309 447 1 1 1
447 0 
7 0

22 310 310 454 1 1 1
454 0 
1 0

22 311 311 455 1 3 3
455 1 
3 0

22 314 314 458 1 3 3
458 1 
1 0

22 317 317 459 1 5 6
459 2 
1 1

23 322 322 460 1 1 1
460 0 
7 0

23 323 323 467 1 1 1
467 0 
7 0

23 324 324 474 1 1 1
474 0 
1 0

23 325 325 475 1 3 3
475 1 
3 0

23 328 328 478 1 3 3
478 1 
1 0

23 331 331 479 1 5 6
479 2 
1 1

24 336 336 480 1 1 1
480 0 
3 0

24 337 337 483 1 1 1
483 0 
1 0

24 338 338 484 1 3 3
484 1 
1 0

25 341 341 485 1 1 1
485 0 
3 0

25 342 342 488 1 1 1
488 0 
1 0

25 343 343 489 1 3 3
489 1 
1 0

26 346 346 490 1 1 1
490 0 
3 0

26 347 347 493 1 1 1
493 0 
1 0

26 348 348 494 1 3 3
494 1 
1 0

27 351 351 495 1 1 1
495 0 
3 0

27 352 352 498 1 1 1
498 0 
1 0

27 353 353 499 1 3 3
499 1 
1 0

28 356 356 500 1 1 1
500 0 
3 0

28 357 357 503 1 1 1
503 0 
1 0

28 358 358 504 1 3 3
504 1 
1 0

29 361 361 505 1 1 1
505 0 
3 0

29 362 362 508 1 1 1
508 0 
1 0

29 363 363 509 1 3 3
509 1 
1 0

30 366 366 510 1 1 1
510 0 
3 0

30 367 367 513 1 1 1
513 0 
1 0

30 368 368 514 1 3 3
514 1 
1 0

31 371 371 515 1 1 1
515 0 
3 0

31 372 372 518 1 1 1
518 0 
1 0

31 373 373 519 1 3 3
519 1 
1 0

32 376 376 520 1 1 1
520 0 
3 0

32 377 377 523 1 1 1
523 0 
1 0

32 378 378 524 1 3 3
524 1 
1 0

33 381 381 525 1 1 1
525 0 
3 0

33 382 382 528 1 1 1
528 0 
1 0

33 383 383 529 1 3 3
529 1 
1 0

34 386 386 530 1 1 1
530 0 
3 0

34 387 387 533 1 1 1
533 0 
1 0

34 388 388 534 1 3 3
534 1 
1 0

35 391 391 535 1 1 1
535 0 
3 0

35 392 392 538 1 1 1
538 0 
1 0

35 393 393 539 1 3 3
539 1 
1 0

36 396 396 540 1 1 1
540 0 
3 0

36 397 397 543 1 1 1
543 0 
1 0

36 398 398 544 1 3 3
544 1 
1 0

37 401 401 545 1 1 1
545 0 
3 0

37 402 402 548 1 1 1
548 0 
1 0

37 403 403 549 1 3 3
549 1 
1 0

38 406 406 550 1 1 1
550 0 
3 0

38 407 407 553 1 1 1
553 0 
1 0

38 408 408 554 1 3 3
554 1 
1 0

39 411 411 555 1 1 1
555 0 
3 0

39 412 412 558 1 1 1
558 0 
1 0

39 413 413 559 1 3 3
559 1 
1 0

40 416 416 560 1 1 1
560 0 
3 0

40 417 417 563 1 1 1
563 0 
1 0

40 418 418 564 1 3 3
564 1 
1 0

41 421 421 565 1 1 1
565 0 
3 0

41 422 422 568 1 1 1
568 0 
1 0

41 423 423 569 1 3 3
569 1 
1 0

42 426 426 570 1 1 1
570 0 
3 0

42 427 427 573 1 1 1
573 0 
1 0

42 428 428 574 1 3 3
574 1 
1 0

43 431 431 575 1 1 1
575 0 
3 0

43 432 432 578 1 1 1
578 0 
1 0

43 433 433 579 1 3 3
579 1 
1 0

44 436 436 580 1 1 1
580 0 
3 0

44 437 437 583 1 1 1
583 0 
1 0

44 438 438 584 1 3 3
584 1 
1 0

45 441 441 585 1 1 1
585 0 
3 0

45 442 442 588 1 1 1
588 0 
1 0

45 443 443 589 1 3 3
589 1 
1 0

46 446 446 590 1 1 1
590 0 
3 0

46 447 447 593 1 1 1
593 0 
1 0

46 448 448 594 1 3 3
594 1 
1 0

47 451 451 595 1 1 1
595 0 
3 0

47 452 452 598 1 1 1
598 0 
1 0

47 453 453 599 1 3 3
599 1 
1 0

 -------------------------------------------------------------
 Allocate 8147320 B from available memory: 524288000000 B
 There are 343 image cells after screening.
 There are 165 image cells for CGTO evaluation after screening.
 Real-Space grid for FFT initialized based on kinetic energy cutoff (eV) = 500.0
 Real-Space grid for FFT: (25,27,35)
 There are 199155 real-space grid points.
 There are 1331 batches of real-space grid points. 
 Size of each grid batch is around 128
 Grid for AFT initialized based on kinetic energy cutoff (eV) = 200.0
 Real-Space grid for AFT: (16,18,22)
 There are 54945 real-space grid points.

 There are 138288 atom-centered grid points.

 Adding empirical dispersion correction 
 ----------------------------------------------------------------
 Doing -D3(BJ) with
 s6  =   1.00000e+00
 s8  =   7.87500e-01
 a1  =   4.28900e-01
 a2  =   4.44070e+00
 ----------------------------------------------------------------
 Monkhorst-Pack mesh is [2,2,2]
 There are 8 k points.
kpoints in Bohr
0.0000000000 0.0000000000 0.0000000000
0.0000000000 0.0000000000 0.1764818724
0.0000000000 0.2249606547 0.0000000000
0.0000000000 0.2249606547 0.1764818724
0.2441202993 0.0000000000 0.0000000000
0.2441202993 0.0000000000 0.1764818724
0.2441202993 0.2249606547 0.0000000000
0.2441202993 0.2249606547 0.1764818724
 There are 84 alpha and 84 beta electrons
 Start computing overlap matrix
 Allocate 26615808 B from available memory: 524279852704 B
 Time for computing overlap matrix: 4.6270000000 s
 ====== Initialize compute kernels for all-electron RI-J (kpts) ====== 
 ==== The unitcell is orthorombic! => Use orthorombic code ==== 
 ========================================================== 
 Range-separated parameter omega        = 0.400000000000000022
 Threshold for 1e2c shellpair           = 0.000000000000010000
 Threshold for 2e2c SR integral         = 0.000000000000000001
 Threshold for 2e3c SR integral         = 0.000000000100000000
 Threshold for AFT G-space screening is = 0.000000000100000000
 The exponent cutoff for C/D classification (omega2 / 2) is  = 0.080000000000000016
 ========================================================== 
 === Post process the basis set for RI calculation (exp_cutoff = 0.080000000000000016 ) === 
nshells_b1 before uncontraction = 216
nshells_b1 after uncontraction = 216
nshells_baux before uncontraction = 840
nshells_baux after uncontraction = 840
===============================================
nbsf total   = 456
nbsf compact = 456
nbsf diffuse = 0
naux total   = 2616
naux compact = 2616
naux diffuse = 0
nshells_bnuc = 48
================= Automatically determine grid size for reciprocal space summation =================
 Range-separated parameter = 0.40000000000000 and G-space screening threshold = 0.00000000010000
The number of grid points along each axis dimension is (9, 10, 12)
The total number of grid points is 9975
======== Initializing relevant kernel for RIJ (CC type) ========
There are 21832 shellpairs in the reference unit cell
There are 129 images and we expect to have 2816328 in total
There are 97016 shellpairs in the lattice sum after screening
****** AFT -> SR ******
Maximum bra distance cutoff is 21.000000000000
Maximum bra ket distance cutoff is 25.593750000000
Number of auxiliary image is 311
There are 21832 shellpairs in the reference unit cell
There are 239 images and we expect to have 5217848 in total
There are 97016 shellpairs in the lattice sum after screening
Available memory for 2e3c calculation is 16382913653
Batch size for auxiliary basis is 2599 out of 2616
Batch size for basis function pair is 97852 out of 98472
Finish initializing 2e3c SR with the lattice sum!
=================================================
======== Initialize the SR component for Vnuc (CC type) ========
Maximum bra distance cutoff is 21.000000000000
Maximum bra ket distance cutoff is 19.684503572163
Number of auxiliary image is 221
There are 21832 shellpairs in the reference unit cell
There are 239 images and we expect to have 5217848 in total
There are 97016 shellpairs in the lattice sum after screening
Available memory for 2e3c calculation is 16382913653
Batch size for auxiliary basis is 48 out of 48
Batch size for basis function pair is 98472 out of 98472
Finish initializing 2e3c SR with the lattice sum!
=================================================
 Aufbau occupation scheme, occupation determined by eigenvalue
 == 0-th k-point nmo = 456 (0.00000,0.00000,0.00000) ==
 == 1-th k-point nmo = 456 (0.00000,0.00000,0.17648) ==
 == 2-th k-point nmo = 456 (0.00000,0.22496,0.00000) ==
 == 3-th k-point nmo = 456 (0.00000,0.22496,0.17648) ==
 == 4-th k-point nmo = 456 (0.24412,0.00000,0.00000) ==
 == 5-th k-point nmo = 456 (0.24412,0.00000,0.17648) ==
 == 6-th k-point nmo = 456 (0.24412,0.22496,0.00000) ==
 == 7-th k-point nmo = 456 (0.24412,0.22496,0.17648) ==

 Generate autoSAD guess
backing up fragment data
Atom # 0: c, charge: 0, multiplicity: 3.000000
Atom # 1: h, charge: 0, multiplicity: 2.000000
writing autosad to fragment context
Settings for isolated fragments: 
  BSSE: FALSE
  frgm_gamma: TRUE
  frgm_center: FALSE

    Running SCF for isolated atom #0
    Fragment Input file: /scratch/bdxq/hdinh//benzene_crystal_ccpvdz_omega_0.4_222.scratch20250709185025/autosad_frgmt_0/frgmt_input.in
    Fragment Output file: /scratch/bdxq/hdinh//benzene_crystal_ccpvdz_omega_0.4_222.scratch20250709185025/autosad_frgmt_0/frgmt_job.out
    Fragment job begins at Wed Jul  9 18:50:40 2025

 Integrated density by DFT XC:
   Numerical integral  =     6.000000000746
   Relative error      =     0.0000000124 %
Final energy components:
 DFT Correlation                 Energy =  -0.14559494858934
 DFT Exchange                    Energy =  -5.02589620272335
 Empirical Dispersion Correction Energy =   0.00000000000000
 Kinetic (alpha)                 Energy =  20.10993503709704
 Kinetic (beta)                  Energy =  17.53059881834754
 Nuclear Attraction (alpha)      Energy = -48.81819269056761
 Nuclear Attraction (beta)       Energy = -39.28429202286245
 Nuclear Repulsion               Energy =   0.00000000000000
 SEOQF                           Energy =  -0.00000000041816
 Total Coulomb                   Energy =  17.84490478928238
----------------------------------------------
    SCF Energy: -37.7885372204
   Total fragment job time:  0.94 s.
    Running SCF for isolated atom #1
    Fragment Input file: /scratch/bdxq/hdinh//benzene_crystal_ccpvdz_omega_0.4_222.scratch20250709185025/autosad_frgmt_1/frgmt_input.in
    Fragment Output file: /scratch/bdxq/hdinh//benzene_crystal_ccpvdz_omega_0.4_222.scratch20250709185025/autosad_frgmt_1/frgmt_job.out
    Fragment job begins at Wed Jul  9 18:50:41 2025

 Integrated density by DFT XC:
   Numerical integral  =     0.999999999853
   Relative error      =     0.0000000147 %
Final energy components:
 DFT Correlation                 Energy =  -0.00600533731674
 DFT Exchange                    Energy =  -0.30388266550691
 Empirical Dispersion Correction Energy =   0.00000000000000
 Kinetic (alpha)                 Energy =   0.49273654699436
 Kinetic (beta)                  Energy =   0.00000000000000
 Nuclear Attraction (alpha)      Energy =  -0.99199174887590
 Nuclear Attraction (beta)       Energy =   0.00000000000000
 Nuclear Repulsion               Energy =   0.00000000000000
 SEOQF                           Energy =   0.00000000000000
 Total Coulomb                   Energy =   0.31051583666305
----------------------------------------------
    SCF Energy: -0.4986273680
   Total fragment job time:  0.71 s.
restoring fragment data

 ------------------------------------------------------------------------
 Allocate 79868544 B from available memory: 524253236896 B
 Time for generating SCF guess: 1.76 s

 Allocate 3409816 B from available memory: 524173368352 B
 Selected algorithms for each term:
  kpts_dftd3 -> @0x7fe51e4a56a0
  kpts_kinetic -> @0x7fe51e4a55e0
  kpts_nn -> @0x7fe51e4a5760
  kpts_rij_bigmem -> @0x7fe51e4a5340
  kpts_vnuc_df -> @0x7fe51e4a52e0
  kpts_xc -> @0x7fe51e4a5220

 Time for computing kinetic matrix is 6.06 s
Start calculating Vnuc CC type!
 Time for computing nuclear attraction matrix is 6.19 s
Maximum distance between P and Q is 48.46736674611299
Number of images for (P|Qn) is 157
 Time for computing 2e2c SR integral is 1.55 s
 === bvk cell = 0 has 75.82 % of the basis function pairs === 
 === bvk cell = 1 has 40.46 % of the basis function pairs === 
 === bvk cell = 2 has 51.10 % of the basis function pairs === 
 === bvk cell = 3 has 25.37 % of the basis function pairs === 
 === bvk cell = 4 has 54.99 % of the basis function pairs === 
 === bvk cell = 5 has 28.09 % of the basis function pairs === 
 === bvk cell = 6 has 36.02 % of the basis function pairs === 
 === bvk cell = 7 has 16.09 % of the basis function pairs === 
Static memory requirement for 2e3c SR integrals: 6.294 GB
Dynamic memory requirement for 2e3c SR integrals: 0.258 GB
There are 388 munu batches for computing 2e3c SR integrals with latsum
There are 42 Q batches for computing 2e3c SR integrals with latsum
 Time for computing 2e3c SR integral (CC) is 125.26 s
 ----------------------------------------------
 Guess energy components:
 D3 correction      Energy =  -0.12328073067621
 DFT Correlation    Energy =  -5.60923500095645
 DFT Exchange       Energy = -134.48286870767279
 Kinetic            Energy = 934.37628873383437
 Nuclear Attraction Energy = -1957.10962065251215
 Nuclear Repulsion  Energy = -128.08132826085716
 Total Coulomb      Energy = 363.65132869422831
 ----------------------------------------------
  Cycle       Energy        RMS Gradient
 ----------------------------------------------
    1    -927.6025569775      1.09e-01   Descent step
 Energy components after cycle 1:
 D3 correction      Energy =  -0.12328073067621
 DFT Correlation    Energy =  -5.59739801792781
 DFT Exchange       Energy = -134.04247511967449
 Kinetic            Energy = 931.74987566291122
 Nuclear Attraction Energy = -1950.92237897471023
 Nuclear Repulsion  Energy = -128.08132826085716
 Total Coulomb      Energy = 359.41442846338833
    2    -927.7668195167      8.75e-02   Descent step
 Energy components after cycle 2:
 D3 correction      Energy =  -0.12328073067621
 DFT Correlation    Energy =  -5.58722169283589
 DFT Exchange       Energy = -133.60132093128288
 Kinetic            Energy = 929.13308974670736
 Nuclear Attraction Energy = -1944.76310341320800
 Nuclear Repulsion  Energy = -128.08132826085716
 Total Coulomb      Energy = 355.25634576543206
    3    -927.8746432224      6.31e-02   Descent step
 Energy components after cycle 3:
 D3 correction      Energy =  -0.12328073067621
 DFT Correlation    Energy =  -5.57912132736493
 DFT Exchange       Energy = -133.15964922396273
 Kinetic            Energy = 926.53281049222846
 Nuclear Attraction Energy = -1938.68942225623232
 Nuclear Repulsion  Energy = -128.08132826085716
 Total Coulomb      Energy = 351.22534808445357
    4    -927.9302934355      3.73e-02   Descent step
 Energy components after cycle 4:
 D3 correction      Energy =  -0.12328073067621
 DFT Correlation    Energy =  -5.57411933500464
 DFT Exchange       Energy = -132.72215686388944
 Kinetic            Energy = 923.98960986868656
 Nuclear Attraction Energy = -1932.88948269668390
 Nuclear Repulsion  Energy = -128.08132826085716
 Total Coulomb      Energy = 347.47046458294369
    5    -927.9425360415      1.41e-02   Descent step
 Energy components after cycle 5:
 D3 correction      Energy =  -0.12328073067621
 DFT Correlation    Energy =  -5.57610145037863
 DFT Exchange       Energy = -132.33778723010639
 Kinetic            Energy = 921.83507648687214
 Nuclear Attraction Energy = -1928.45224075966166
 Nuclear Repulsion  Energy = -128.08132826085716
 Total Coulomb      Energy = 344.79312590327942
    6    -927.9440427325      7.47e-03   Normal BFGS step
 Energy components after cycle 6:
 D3 correction      Energy =  -0.12328073067621
 DFT Correlation    Energy =  -5.57906718700491
 DFT Exchange       Energy = -132.43351672359915
 Kinetic            Energy = 922.41883551229807
 Nuclear Attraction Energy = -1929.91368012933572
 Nuclear Repulsion  Energy = -128.08132826085716
 Total Coulomb      Energy = 345.76799478670762
    7    -927.9440361560      1.58e-03   Normal BFGS step
 Energy components after cycle 7:
 D3 correction      Energy =  -0.12328073067621
 DFT Correlation    Energy =  -5.57846445966057
 DFT Exchange       Energy = -132.43183100457662
 Kinetic            Energy = 922.39885317396875
 Nuclear Attraction Energy = -1929.79310325422739
 Nuclear Repulsion  Energy = -128.08132826085716
 Total Coulomb      Energy = 345.66511838007870
    8    -927.9440927167      2.73e-03  Line search: overstep
 Energy components after cycle 8:
 D3 correction      Energy =  -0.12328073067621
 DFT Correlation    Energy =  -5.57876822758859
 DFT Exchange       Energy = -132.43267522771364
 Kinetic            Energy = 922.40889657268508
 Nuclear Attraction Energy = -1929.85386523739271
 Nuclear Repulsion  Energy = -128.08132826085716
 Total Coulomb      Energy = 345.71692839480113
    9    -927.9440996360      6.50e-04   Normal BFGS step
 Energy components after cycle 9:
 D3 correction      Energy =  -0.12328073067621
 DFT Correlation    Energy =  -5.57838695968641
 DFT Exchange       Energy = -132.42890692863796
 Kinetic            Energy = 922.38046690775866
 Nuclear Attraction Energy = -1929.75716834160858
 Nuclear Repulsion  Energy = -128.08132826085716
 Total Coulomb      Energy = 345.64450467774583
   10    -927.9441031457      4.43e-04   Normal BFGS step
 Energy components after cycle 10:
 D3 correction      Energy =  -0.12328073067621
 DFT Correlation    Energy =  -5.57848376261202
 DFT Exchange       Energy = -132.42977133231008
 Kinetic            Energy = 922.38706900220927
 Nuclear Attraction Energy = -1929.78566439471615
 Nuclear Repulsion  Energy = -128.08132826085716
 Total Coulomb      Energy = 345.66735633322440
   11    -927.9441031382      6.78e-05   Normal BFGS step
 Energy components after cycle 11:
 D3 correction      Energy =  -0.12328073067621
 DFT Correlation    Energy =  -5.57850724438661
 DFT Exchange       Energy = -132.42975755775558
 Kinetic            Energy = 922.38772024593709
 Nuclear Attraction Energy = -1929.78715414379622
 Nuclear Repulsion  Energy = -128.08132826085716
 Total Coulomb      Energy = 345.66820455331430
   12    -927.9441032156      1.62e-04   Normal BFGS step
 Energy components after cycle 12:
 D3 correction      Energy =  -0.12328073067621
 DFT Correlation    Energy =  -5.57850382116483
 DFT Exchange       Energy = -132.42972276860402
 Kinetic            Energy = 922.38746281177760
 Nuclear Attraction Energy = -1929.78592944422644
 Nuclear Repulsion  Energy = -128.08132826085716
 Total Coulomb      Energy = 345.66719899817713
   13    -927.9441031998      1.34e-04   Normal BFGS step
 Energy components after cycle 13:
 D3 correction      Energy =  -0.12328073067621
 DFT Correlation    Energy =  -5.57849060525620
 DFT Exchange       Energy = -132.42974121427423
 Kinetic            Energy = 922.38713805933480
 Nuclear Attraction Energy = -1929.78515463850090
 Nuclear Repulsion  Energy = -128.08132826085716
 Total Coulomb      Energy = 345.66675419047209
   14    -927.9441032630      1.01e-04   Normal BFGS step
 Energy components after cycle 14:
 D3 correction      Energy =  -0.12328073067621
 DFT Correlation    Energy =  -5.57849388852494
 DFT Exchange       Energy = -132.42975500236639
 Kinetic            Energy = 922.38729872858744
 Nuclear Attraction Energy = -1929.78580265241885
 Nuclear Repulsion  Energy = -128.08132826085716
 Total Coulomb      Energy = 345.66725854323226
   15    -927.9441032664      2.90e-05   Normal BFGS step
 Energy components after cycle 15:
 D3 correction      Energy =  -0.12328073067621
 DFT Correlation    Energy =  -5.57850045507493
 DFT Exchange       Energy = -132.42973548242912
 Kinetic            Energy = 922.38741808522070
 Nuclear Attraction Energy = -1929.78596650036138
 Nuclear Repulsion  Energy = -128.08132826085716
 Total Coulomb      Energy = 345.66729007777076
   16    -927.9441032722      2.95e-05   Normal BFGS step
 Energy components after cycle 16:
 D3 correction      Energy =  -0.12328073067621
 DFT Correlation    Energy =  -5.57849792256828
 DFT Exchange       Energy = -132.42974004904335
 Kinetic            Energy = 922.38735935766761
 Nuclear Attraction Energy = -1929.78582199952507
 Nuclear Repulsion  Energy = -128.08132826085716
 Total Coulomb      Energy = 345.66720633279925
   17    -927.9441032721      1.96e-05   Normal BFGS step
 Energy components after cycle 17:
 D3 correction      Energy =  -0.12328073067621
 DFT Correlation    Energy =  -5.57849523144892
 DFT Exchange       Energy = -132.42974728408484
 Kinetic            Energy = 922.38730604026739
 Nuclear Attraction Energy = -1929.78574259729066
 Nuclear Repulsion  Energy = -128.08132826085716
 Total Coulomb      Energy = 345.66718479200591
   18    -927.9441032742      1.21e-05   Normal BFGS step
 Energy components after cycle 18:
 D3 correction      Energy =  -0.12328073067621
 DFT Correlation    Energy =  -5.57849700944537
 DFT Exchange       Energy = -132.42974284650086
 Kinetic            Energy = 922.38734247365335
 Nuclear Attraction Energy = -1929.78581044922566
 Nuclear Repulsion  Energy = -128.08132826085716
 Total Coulomb      Energy = 345.66721354887250
   19    -927.9441032741      3.39e-06   Normal BFGS step
 Energy components after cycle 19:
 D3 correction      Energy =  -0.12328073067621
 DFT Correlation    Energy =  -5.57849760943813
 DFT Exchange       Energy = -132.42974185826111
 Kinetic            Energy = 922.38735765234503
 Nuclear Attraction Energy = -1929.78583572976527
 Nuclear Repulsion  Energy = -128.08132826085716
 Total Coulomb      Energy = 345.66722326259764
   19    -927.9441032741      3.39e-06  Convergence criterion met
 ----------------------------------------------
 Final energy components:
 D3 correction      Energy =  -0.12328073067621
 DFT Correlation    Energy =  -5.57849760943813
 DFT Exchange       Energy = -132.42974185826111
 Kinetic            Energy = 922.38735765234503
 Nuclear Attraction Energy = -1929.78583572976527
 Nuclear Repulsion  Energy = -128.08132826085716
 Total Coulomb      Energy = 345.66722326259764
 ----------------------------------------------
 Final energy is -927.9441032741

 SCF time:   CPU 10335.43s  wall 378.00s 
 Total wall time for computing Kinetic: 0.09 s (21)
 Total wall time for computing RIJ-BIGMEM: 177.78 s (21)
 Total wall time for computing RSDF Vnuc: 0.09 s (21)
 Total wall time for computing DFT XC: 113.51 s (21)
 ---------------------------------------------------------------------------
                        Orbital Energies (a.u.)
 ---------------------------------------------------------------------------
 == 0-th k-point (0.00000,0.00000,0.00000) occupation: 84==
 -9.69276 -9.69275 -9.69274 -9.69273 -9.69273 -9.69272 -9.69271 -9.69270 -9.69237 -9.69237
 -9.69237 -9.69236 -9.69233 -9.69232 -9.69232 -9.69231 -9.69111 -9.69110 -9.69110 -9.69110
 -9.69110 -9.69109 -9.69109 -9.69108 -0.57728 -0.57375 -0.57121 -0.57077 -0.47667 -0.47122
 -0.47078 -0.46889 -0.46870 -0.46760 -0.46666 -0.46591 -0.34044 -0.34018 -0.33683 -0.33495
 -0.33461 -0.33371 -0.33348 -0.32698 -0.27612 -0.26111 -0.26085 -0.25103 -0.21084 -0.20374
 -0.19749 -0.19437 -0.19194 -0.19184 -0.18936 -0.18923 -0.17760 -0.17701 -0.17540 -0.16170
 -0.16145 -0.15961 -0.15922 -0.15305 -0.12268 -0.12024 -0.11672 -0.11520 -0.10062 -0.09899
 -0.09775 -0.09151 -0.08974 -0.08932 -0.08408 -0.07820 -0.03481 -0.03416 -0.03099 -0.02704
 -0.02107 -0.01721 -0.01297 -0.01136 0.15430 0.15560 0.16039 0.16733 0.16789 0.16898
 0.17648 0.17880 0.19954 0.25551 0.26099 0.26953 0.28749 0.29108 0.29976 0.29978
 0.30096 0.30156 0.31114 0.31551 0.32181 0.32363 0.33332 0.33835 0.35137 0.35623
 0.36630 0.36878 0.37667 0.37867 0.38876 0.39110 0.39454 0.40737 0.41303 0.42510
 0.42954 0.43355 0.44147 0.45575 0.45680 0.46383 0.46888 0.46982 0.47106 0.47898
 0.48211 0.48365 0.48470 0.49730 0.50693 0.50864 0.52437 0.53132 0.53974 0.57642
 0.59800 0.60175 0.60319 0.62529 0.62538 0.63652 0.63892 0.64033 0.64630 0.64851
 0.65228 0.65755 0.66671 0.67145 0.67556 0.67749 0.68073 0.69426 0.69674 0.70434
 0.71656 0.71667 0.72292 0.72366 0.72942 0.73466 0.74047 0.74139 0.75346 0.75605
 0.77050 0.77282 0.77771 0.78712 0.79228 0.79250 0.81029 0.81035 0.82532 0.82894
 0.82972 0.84146 0.84562 0.84625 0.84939 0.85222 0.86815 0.87072 0.87087 0.87968
 0.88191 0.88690 0.88830 0.89285 0.89934 0.89963 0.90888 0.91857 0.92413 0.92889
 0.93118 0.95851 0.95897 0.96181 0.96779 0.97115 0.97378 0.99751 1.00226 1.00538
 1.00607 1.00882 1.02856 1.03052 1.04511 1.04850 1.05653 1.06587 1.06657 1.07418
 1.07619 1.09050 1.10261 1.11038 1.11239 1.11781 1.13940 1.14004 1.14174 1.14394
 1.14816 1.15385 1.16310 1.17053 1.17135 1.17550 1.17632 1.17852 1.17854 1.19209
 1.19951 1.20737 1.21066 1.21799 1.21894 1.22531 1.23816 1.24072 1.24230 1.24253
 1.26047 1.26380 1.27309 1.27557 1.28856 1.28878 1.29200 1.31384 1.32269 1.32599
 1.33525 1.34012 1.35061 1.35320 1.35331 1.35551 1.36629 1.37311 1.37495 1.41150
 1.41247 1.41518 1.42675 1.43619 1.44175 1.44538 1.45652 1.45902 1.46502 1.48542
 1.49061 1.52311 1.53391 1.54497 1.56634 1.58210 1.58935 1.59344 1.61761 1.62757
 1.63120 1.63897 1.64370 1.65089 1.65387 1.65807 1.66103 1.68593 1.68829 1.69683
 1.69723 1.70180 1.71818 1.73094 1.75583 1.75707 1.76233 1.76368 1.76488 1.76602
 1.76626 1.77533 1.78118 1.79333 1.79867 1.80092 1.80206 1.81059 1.82141 1.82480
 1.82566 1.82635 1.83398 1.83652 1.83701 1.84380 1.84978 1.85912 1.86040 1.86145
 1.87286 1.87524 1.88518 1.88583 1.88800 1.88983 1.90099 1.90902 1.91047 1.91446
 1.92171 1.92470 1.93049 1.93341 1.94858 1.95630 1.95670 1.95730 1.96063 1.96518
 1.96914 1.97465 1.97484 1.98545 1.99301 2.00343 2.00438 2.01387 2.02100 2.02256
 2.02477 2.02879 2.04227 2.04234 2.04826 2.05216 2.05375 2.06094 2.06323 2.06652
 2.06883 2.07747 2.08249 2.09689 2.12581 2.13437 2.14523 2.14733 2.14857 2.15601
 2.15656 2.15750 2.18765 2.19235 2.19401 2.19455 2.20535 2.20631 2.21705 2.25246
 2.25789 2.28827 2.31878 2.32942 2.33222 2.33294 2.33766 2.33832 2.35085 2.36906
 2.37001 2.41096 2.42698 2.43393 2.44477 2.46086 2.47375 2.48215 2.58277 2.60163
 2.60758 2.63420 2.63565 2.64264 2.64775 2.65199 2.65209 2.66341 2.67509 2.68298
 2.68962 2.69495 2.71636 2.73267 2.73661 2.73944 2.77667 2.78314 2.78617 2.79287
 2.79560 2.81072 2.83115 2.83483 2.83762 2.86261 2.92203 2.93211 2.93350 2.95294
 2.95909 2.96823 2.98687 3.00118 3.08061 3.08429 3.08598 3.11058 3.11518 3.11972
 3.12979 3.19191 3.78585 3.78803 3.81129 3.84376
 == 1-th k-point (0.00000,0.00000,0.17648) occupation: 84==
 -9.69276 -9.69275 -9.69273 -9.69272 -9.69272 -9.69272 -9.69272 -9.69271 -9.69237 -9.69237
 -9.69237 -9.69236 -9.69233 -9.69232 -9.69231 -9.69231 -9.69111 -9.69111 -9.69110 -9.69110
 -9.69109 -9.69109 -9.69109 -9.69109 -0.57557 -0.57557 -0.57099 -0.57099 -0.47237 -0.47236
 -0.47003 -0.47003 -0.46820 -0.46820 -0.46773 -0.46773 -0.33783 -0.33783 -0.33604 -0.33604
 -0.33485 -0.33485 -0.33199 -0.33199 -0.26534 -0.26534 -0.26110 -0.26110 -0.20376 -0.20376
 -0.19669 -0.19669 -0.19042 -0.19042 -0.19035 -0.19035 -0.17068 -0.17068 -0.16999 -0.16999
 -0.16392 -0.16392 -0.16165 -0.16165 -0.12077 -0.12076 -0.11893 -0.11893 -0.09438 -0.09438
 -0.09326 -0.09326 -0.08734 -0.08733 -0.08425 -0.08425 -0.03526 -0.03525 -0.02424 -0.02424
 -0.02392 -0.02392 -0.01232 -0.01231 0.15454 0.15455 0.16457 0.16457 0.17106 0.17106
 0.17324 0.17324 0.22263 0.22263 0.27115 0.27116 0.28017 0.28017 0.29898 0.29898
 0.30930 0.30930 0.31565 0.31565 0.32274 0.32274 0.34151 0.34151 0.34514 0.34514
 0.36892 0.36893 0.37309 0.37309 0.40018 0.40018 0.40028 0.40028 0.40713 0.40713
 0.43421 0.43421 0.44524 0.44524 0.45240 0.45240 0.45694 0.45694 0.47456 0.47456
 0.48008 0.48008 0.51140 0.51140 0.51992 0.51992 0.55048 0.55048 0.55804 0.55804
 0.56790 0.56790 0.60439 0.60439 0.63167 0.63167 0.63999 0.63999 0.64979 0.64979
 0.66903 0.66903 0.66944 0.66944 0.68459 0.68460 0.69541 0.69541 0.69890 0.69890
 0.71360 0.71360 0.71829 0.71829 0.73501 0.73501 0.74631 0.74631 0.75120 0.75120
 0.77031 0.77032 0.77739 0.77739 0.78684 0.78684 0.80960 0.80960 0.81722 0.81723
 0.83223 0.83223 0.83974 0.83974 0.85848 0.85848 0.87170 0.87170 0.89203 0.89203
 0.89492 0.89492 0.89761 0.89761 0.90708 0.90708 0.92030 0.92030 0.92498 0.92498
 0.94238 0.94238 0.95749 0.95749 0.96294 0.96294 0.97113 0.97113 0.98990 0.98990
 0.99965 0.99965 1.04088 1.04088 1.05644 1.05644 1.06151 1.06151 1.08902 1.08902
 1.09369 1.09369 1.09733 1.09734 1.10336 1.10336 1.13327 1.13327 1.13799 1.13799
 1.15327 1.15327 1.15793 1.15793 1.17066 1.17066 1.18414 1.18414 1.18679 1.18680
 1.18804 1.18804 1.22379 1.22379 1.22447 1.22448 1.22916 1.22916 1.24256 1.24256
 1.25640 1.25640 1.27360 1.27360 1.30453 1.30453 1.31387 1.31387 1.32051 1.32051
 1.33474 1.33474 1.35317 1.35317 1.36156 1.36156 1.39199 1.39199 1.39362 1.39362
 1.39816 1.39817 1.42437 1.42437 1.42516 1.42516 1.43382 1.43382 1.48031 1.48031
 1.50917 1.50917 1.54008 1.54008 1.58069 1.58069 1.58401 1.58401 1.62857 1.62857
 1.64036 1.64036 1.64248 1.64248 1.66806 1.66806 1.67284 1.67284 1.67887 1.67887
 1.70750 1.70750 1.71942 1.71942 1.75117 1.75117 1.75660 1.75660 1.76743 1.76743
 1.77469 1.77469 1.79863 1.79863 1.79949 1.79949 1.80141 1.80141 1.81714 1.81715
 1.82278 1.82278 1.82920 1.82921 1.83042 1.83042 1.84861 1.84861 1.87616 1.87616
 1.88152 1.88152 1.88801 1.88801 1.90074 1.90074 1.90523 1.90523 1.91570 1.91570
 1.91910 1.91911 1.92633 1.92634 1.94819 1.94819 1.95572 1.95572 1.95833 1.95833
 1.97050 1.97050 1.99268 1.99268 1.99930 1.99930 2.00741 2.00741 2.03188 2.03188
 2.04085 2.04085 2.04124 2.04124 2.05670 2.05670 2.05900 2.05900 2.06390 2.06390
 2.07406 2.07406 2.09235 2.09235 2.12194 2.12194 2.14224 2.14224 2.15821 2.15821
 2.16383 2.16383 2.16702 2.16702 2.18366 2.18366 2.23832 2.23832 2.23848 2.23848
 2.26956 2.26956 2.28543 2.28543 2.32876 2.32876 2.32988 2.32988 2.34666 2.34666
 2.40637 2.40637 2.42164 2.42165 2.43798 2.43798 2.47761 2.47761 2.60438 2.60438
 2.60494 2.60494 2.62965 2.62965 2.64932 2.64932 2.65199 2.65199 2.66779 2.66779
 2.70174 2.70174 2.71646 2.71646 2.75823 2.75823 2.76660 2.76660 2.80023 2.80024
 2.80528 2.80528 2.83754 2.83754 2.87456 2.87456 2.93876 2.93876 2.94010 2.94010
 2.95312 2.95312 2.96461 2.96461 3.09092 3.09092 3.09295 3.09295 3.12607 3.12607
 3.14445 3.14445 3.79944 3.79945 3.81379 3.81380
 == 2-th k-point (0.00000,0.22496,0.00000) occupation: 84==
 -9.69275 -9.69275 -9.69274 -9.69274 -9.69272 -9.69272 -9.69271 -9.69271 -9.69237 -9.69237
 -9.69237 -9.69236 -9.69232 -9.69232 -9.69232 -9.69231 -9.69111 -9.69110 -9.69110 -9.69110
 -9.69109 -9.69109 -9.69109 -9.69109 -0.57435 -0.57434 -0.57227 -0.57227 -0.47298 -0.47298
 -0.46966 -0.46966 -0.46864 -0.46864 -0.46693 -0.46692 -0.33698 -0.33698 -0.33609 -0.33609
 -0.33462 -0.33462 -0.33311 -0.33311 -0.27072 -0.27072 -0.25630 -0.25630 -0.20696 -0.20696
 -0.19279 -0.19279 -0.19111 -0.19110 -0.18869 -0.18868 -0.17143 -0.17143 -0.16575 -0.16575
 -0.16423 -0.16423 -0.15663 -0.15663 -0.13076 -0.13076 -0.12304 -0.12304 -0.09419 -0.09419
 -0.09171 -0.09171 -0.08828 -0.08828 -0.08070 -0.08070 -0.02936 -0.02936 -0.02468 -0.02468
 -0.02345 -0.02345 -0.01901 -0.01901 0.16174 0.16174 0.16371 0.16371 0.16766 0.16766
 0.16888 0.16888 0.23229 0.23229 0.26452 0.26452 0.27571 0.27571 0.30096 0.30096
 0.30115 0.30115 0.31571 0.31571 0.33526 0.33526 0.34263 0.34263 0.34287 0.34287
 0.36444 0.36444 0.36719 0.36719 0.39416 0.39416 0.41200 0.41200 0.42075 0.42075
 0.42254 0.42254 0.44755 0.44755 0.44794 0.44794 0.47078 0.47078 0.47367 0.47367
 0.48693 0.48693 0.49852 0.49852 0.50743 0.50743 0.52239 0.52239 0.56927 0.56927
 0.60990 0.60990 0.61940 0.61940 0.62622 0.62622 0.63394 0.63394 0.63683 0.63684
 0.66113 0.66114 0.66223 0.66223 0.68937 0.68937 0.69518 0.69518 0.69634 0.69634
 0.71349 0.71349 0.71532 0.71532 0.73561 0.73561 0.74478 0.74478 0.76026 0.76026
 0.76372 0.76372 0.79548 0.79548 0.79889 0.79889 0.81375 0.81375 0.81660 0.81660
 0.82994 0.82994 0.84468 0.84468 0.85515 0.85515 0.85557 0.85557 0.87965 0.87965
 0.88866 0.88866 0.89023 0.89023 0.89251 0.89251 0.91888 0.91888 0.92213 0.92213
 0.94586 0.94586 0.97463 0.97463 0.97761 0.97761 0.99080 0.99080 1.02991 1.02991
 1.03415 1.03415 1.03612 1.03613 1.05030 1.05030 1.06778 1.06778 1.06897 1.06898
 1.08887 1.08888 1.09156 1.09156 1.11047 1.11047 1.13154 1.13154 1.15263 1.15263
 1.15474 1.15474 1.15998 1.15998 1.17425 1.17425 1.18827 1.18827 1.19643 1.19643
 1.20747 1.20747 1.21111 1.21111 1.21506 1.21506 1.22025 1.22026 1.23027 1.23027
 1.24828 1.24828 1.26608 1.26609 1.28703 1.28703 1.28848 1.28848 1.30491 1.30491
 1.35165 1.35165 1.35912 1.35912 1.36680 1.36680 1.38341 1.38341 1.41071 1.41071
 1.42525 1.42525 1.43919 1.43919 1.45503 1.45503 1.47451 1.47451 1.47708 1.47708
 1.50485 1.50485 1.51440 1.51440 1.52288 1.52288 1.54640 1.54640 1.61857 1.61857
 1.64653 1.64653 1.65507 1.65507 1.66330 1.66330 1.69417 1.69417 1.70326 1.70326
 1.71701 1.71702 1.74235 1.74235 1.75336 1.75336 1.76736 1.76736 1.76889 1.76889
 1.78669 1.78669 1.80840 1.80840 1.81503 1.81503 1.81700 1.81701 1.81933 1.81933
 1.82295 1.82295 1.82985 1.82985 1.83914 1.83914 1.84293 1.84293 1.85732 1.85732
 1.86497 1.86497 1.87629 1.87629 1.88866 1.88866 1.89956 1.89956 1.91522 1.91522
 1.92493 1.92493 1.92851 1.92851 1.93725 1.93725 1.95936 1.95936 1.96937 1.96937
 1.97690 1.97690 1.98625 1.98625 1.99051 1.99051 2.00507 2.00507 2.01275 2.01275
 2.02928 2.02928 2.03925 2.03925 2.04093 2.04093 2.07044 2.07044 2.07260 2.07260
 2.08678 2.08678 2.12056 2.12056 2.12794 2.12794 2.13648 2.13648 2.14030 2.14030
 2.16078 2.16078 2.17338 2.17338 2.19952 2.19952 2.21439 2.21439 2.22188 2.22188
 2.25352 2.25352 2.32683 2.32683 2.32902 2.32902 2.34337 2.34337 2.35627 2.35627
 2.39299 2.39299 2.40391 2.40392 2.42574 2.42574 2.52601 2.52601 2.59385 2.59385
 2.61512 2.61512 2.64442 2.64442 2.64771 2.64772 2.66765 2.66766 2.68866 2.68866
 2.70292 2.70292 2.72151 2.72151 2.74443 2.74443 2.77895 2.77895 2.79888 2.79888
 2.81153 2.81153 2.81682 2.81682 2.84498 2.84498 2.91928 2.91928 2.94276 2.94276
 2.95772 2.95772 2.97834 2.97834 3.09169 3.09169 3.09612 3.09612 3.12494 3.12495
 3.15090 3.15090 3.78687 3.78687 3.83379 3.83379
 == 3-th k-point (0.00000,0.22496,0.17648) occupation: 84==
 -9.69275 -9.69274 -9.69274 -9.69274 -9.69272 -9.69272 -9.69272 -9.69271 -9.69237 -9.69237
 -9.69237 -9.69236 -9.69232 -9.69232 -9.69232 -9.69231 -9.69110 -9.69110 -9.69110 -9.69110
 -9.69109 -9.69109 -9.69109 -9.69109 -0.57333 -0.57333 -0.57333 -0.57332 -0.47135 -0.47135
 -0.47135 -0.47135 -0.46773 -0.46773 -0.46773 -0.46773 -0.33624 -0.33624 -0.33624 -0.33624
 -0.33441 -0.33441 -0.33441 -0.33441 -0.26335 -0.26335 -0.26335 -0.26335 -0.20074 -0.20074
 -0.20074 -0.20074 -0.18969 -0.18969 -0.18969 -0.18969 -0.17063 -0.17063 -0.17063 -0.17063
 -0.15795 -0.15795 -0.15795 -0.15795 -0.12662 -0.12662 -0.12662 -0.12662 -0.09251 -0.09251
 -0.09251 -0.09251 -0.08494 -0.08494 -0.08494 -0.08494 -0.02552 -0.02552 -0.02551 -0.02551
 -0.02275 -0.02275 -0.02275 -0.02274 0.16216 0.16216 0.16216 0.16216 0.16906 0.16906
 0.16906 0.16906 0.24848 0.24848 0.24848 0.24848 0.28121 0.28121 0.28121 0.28121
 0.31205 0.31205 0.31205 0.31206 0.33579 0.33579 0.33579 0.33579 0.35989 0.35989
 0.35989 0.35989 0.38168 0.38168 0.38168 0.38168 0.39858 0.39858 0.39858 0.39858
 0.43586 0.43586 0.43586 0.43586 0.47074 0.47074 0.47074 0.47074 0.48160 0.48160
 0.48160 0.48160 0.49805 0.49805 0.49805 0.49805 0.56841 0.56841 0.56841 0.56841
 0.59499 0.59499 0.59499 0.59499 0.61592 0.61592 0.61592 0.61592 0.65457 0.65457
 0.65457 0.65457 0.67380 0.67380 0.67380 0.67380 0.70524 0.70524 0.70524 0.70524
 0.72173 0.72173 0.72173 0.72173 0.74119 0.74119 0.74120 0.74120 0.76190 0.76190
 0.76190 0.76190 0.78911 0.78912 0.78912 0.78912 0.80961 0.80961 0.80961 0.80961
 0.84669 0.84669 0.84669 0.84669 0.85987 0.85987 0.85988 0.85988 0.88074 0.88074
 0.88074 0.88074 0.90570 0.90570 0.90570 0.90570 0.91850 0.91850 0.91850 0.91850
 0.94737 0.94737 0.94737 0.94737 0.98515 0.98515 0.98515 0.98515 1.01761 1.01761
 1.01761 1.01761 1.04655 1.04655 1.04655 1.04655 1.06465 1.06465 1.06465 1.06466
 1.09416 1.09416 1.09416 1.09416 1.12113 1.12113 1.12113 1.12113 1.14949 1.14949
 1.14949 1.14949 1.17287 1.17287 1.17287 1.17287 1.18020 1.18020 1.18020 1.18020
 1.21782 1.21782 1.21782 1.21782 1.22508 1.22508 1.22508 1.22508 1.23734 1.23734
 1.23734 1.23734 1.28099 1.28099 1.28099 1.28099 1.29860 1.29860 1.29860 1.29860
 1.34659 1.34659 1.34659 1.34659 1.38435 1.38435 1.38435 1.38435 1.41002 1.41002
 1.41002 1.41002 1.45164 1.45164 1.45164 1.45164 1.48093 1.48093 1.48093 1.48093
 1.49637 1.49637 1.49637 1.49637 1.53464 1.53464 1.53464 1.53464 1.64432 1.64432
 1.64432 1.64432 1.66351 1.66351 1.66351 1.66351 1.67354 1.67354 1.67354 1.67354
 1.72741 1.72741 1.72741 1.72741 1.77715 1.77715 1.77715 1.77715 1.78063 1.78063
 1.78063 1.78063 1.79865 1.79865 1.79865 1.79865 1.81281 1.81281 1.81281 1.81281
 1.83338 1.83338 1.83338 1.83338 1.84269 1.84269 1.84269 1.84269 1.86258 1.86258
 1.86258 1.86258 1.87673 1.87673 1.87673 1.87673 1.89871 1.89871 1.89871 1.89871
 1.93802 1.93802 1.93802 1.93802 1.96140 1.96140 1.96140 1.96140 1.97651 1.97651
 1.97651 1.97651 1.98700 1.98700 1.98700 1.98700 2.01709 2.01709 2.01709 2.01709
 2.02922 2.02922 2.02922 2.02922 2.04091 2.04092 2.04092 2.04092 2.09280 2.09280
 2.09280 2.09280 2.11626 2.11626 2.11626 2.11626 2.13890 2.13890 2.13890 2.13890
 2.14940 2.14940 2.14940 2.14940 2.20549 2.20550 2.20550 2.20550 2.23371 2.23371
 2.23371 2.23371 2.32871 2.32871 2.32871 2.32871 2.33970 2.33970 2.33970 2.33970
 2.41078 2.41078 2.41078 2.41078 2.44669 2.44669 2.44669 2.44669 2.62287 2.62287
 2.62287 2.62287 2.63977 2.63977 2.63977 2.63977 2.66316 2.66316 2.66316 2.66316
 2.69732 2.69732 2.69733 2.69733 2.78576 2.78576 2.78576 2.78576 2.80237 2.80237
 2.80237 2.80238 2.84559 2.84559 2.84559 2.84559 2.94130 2.94130 2.94131 2.94131
 2.95386 2.95386 2.95386 2.95386 3.11002 3.11002 3.11002 3.11002 3.12814 3.12814
 3.12814 3.12814 3.80808 3.80808 3.80808 3.80809
 == 4-th k-point (0.24412,0.00000,0.00000) occupation: 84==
 -9.69275 -9.69275 -9.69275 -9.69274 -9.69273 -9.69273 -9.69270 -9.69270 -9.69236 -9.69236
 -9.69236 -9.69236 -9.69233 -9.69232 -9.69232 -9.69231 -9.69111 -9.69111 -9.69110 -9.69110
 -9.69109 -9.69109 -9.69109 -9.69108 -0.57410 -0.57410 -0.57247 -0.57246 -0.47229 -0.47229
 -0.47036 -0.47036 -0.46791 -0.46791 -0.46785 -0.46785 -0.33977 -0.33977 -0.33550 -0.33550
 -0.33431 -0.33431 -0.33118 -0.33118 -0.27065 -0.27065 -0.25597 -0.25597 -0.20111 -0.20111
 -0.19995 -0.19995 -0.19067 -0.19067 -0.18948 -0.18948 -0.17102 -0.17102 -0.17017 -0.17017
 -0.15848 -0.15848 -0.15778 -0.15778 -0.12732 -0.12732 -0.12623 -0.12623 -0.09512 -0.09512
 -0.09002 -0.09002 -0.08617 -0.08617 -0.08369 -0.08369 -0.02695 -0.02695 -0.02341 -0.02341
 -0.02196 -0.02195 -0.02181 -0.02181 0.16314 0.16314 0.16405 0.16405 0.16904 0.16905
 0.17031 0.17032 0.23660 0.23660 0.27041 0.27041 0.28117 0.28117 0.29310 0.29310
 0.29691 0.29691 0.30186 0.30187 0.31226 0.31226 0.33442 0.33442 0.35396 0.35396
 0.35746 0.35746 0.39033 0.39033 0.40724 0.40724 0.40812 0.40812 0.42143 0.42143
 0.43155 0.43155 0.44515 0.44515 0.45581 0.45581 0.46952 0.46952 0.46963 0.46963
 0.47988 0.47988 0.50231 0.50231 0.51092 0.51092 0.53376 0.53376 0.56195 0.56195
 0.59480 0.59480 0.62356 0.62356 0.62620 0.62620 0.64024 0.64024 0.64937 0.64937
 0.65719 0.65719 0.67075 0.67075 0.68407 0.68408 0.69025 0.69025 0.70622 0.70622
 0.70695 0.70695 0.70978 0.70978 0.72478 0.72478 0.72903 0.72903 0.75339 0.75339
 0.75571 0.75571 0.76481 0.76481 0.79252 0.79252 0.80603 0.80603 0.81244 0.81244
 0.82406 0.82407 0.84452 0.84452 0.85950 0.85950 0.86715 0.86715 0.87097 0.87097
 0.87658 0.87658 0.90125 0.90125 0.90232 0.90232 0.90245 0.90245 0.92198 0.92198
 0.93511 0.93511 0.94515 0.94515 0.95776 0.95776 1.00030 1.00031 1.02454 1.02454
 1.02976 1.02976 1.05582 1.05582 1.05926 1.05926 1.06053 1.06053 1.07050 1.07050
 1.10093 1.10093 1.12341 1.12342 1.12708 1.12708 1.13650 1.13650 1.15654 1.15654
 1.15834 1.15834 1.17181 1.17181 1.18323 1.18323 1.18455 1.18455 1.20308 1.20308
 1.21230 1.21230 1.21879 1.21879 1.21919 1.21919 1.23046 1.23046 1.23503 1.23503
 1.25758 1.25758 1.27803 1.27803 1.29271 1.29271 1.30922 1.30922 1.30946 1.30946
 1.32114 1.32114 1.33517 1.33517 1.35013 1.35013 1.38316 1.38316 1.39485 1.39485
 1.39706 1.39706 1.42785 1.42786 1.44047 1.44047 1.46661 1.46661 1.47656 1.47656
 1.47764 1.47764 1.50320 1.50320 1.54484 1.54484 1.57525 1.57525 1.63782 1.63782
 1.64427 1.64427 1.66599 1.66599 1.66893 1.66894 1.69861 1.69861 1.69883 1.69883
 1.72783 1.72783 1.73436 1.73436 1.75717 1.75717 1.76563 1.76563 1.77534 1.77534
 1.78678 1.78679 1.80240 1.80240 1.80565 1.80565 1.81222 1.81222 1.81621 1.81621
 1.82273 1.82273 1.83175 1.83175 1.83674 1.83674 1.85750 1.85750 1.86142 1.86142
 1.86602 1.86602 1.87544 1.87544 1.89652 1.89652 1.90960 1.90960 1.91204 1.91204
 1.92065 1.92065 1.93851 1.93851 1.94705 1.94705 1.95177 1.95177 1.96548 1.96548
 1.97266 1.97266 1.99449 1.99449 2.00439 2.00439 2.01269 2.01269 2.01956 2.01956
 2.03494 2.03494 2.03898 2.03898 2.04816 2.04816 2.05375 2.05375 2.07399 2.07399
 2.11166 2.11166 2.12228 2.12228 2.12636 2.12636 2.14389 2.14389 2.14500 2.14501
 2.16805 2.16805 2.19809 2.19809 2.19844 2.19844 2.23128 2.23128 2.25722 2.25723
 2.29416 2.29416 2.31846 2.31846 2.32581 2.32581 2.33597 2.33597 2.34242 2.34242
 2.38512 2.38512 2.41525 2.41525 2.46336 2.46337 2.47037 2.47037 2.60348 2.60348
 2.62707 2.62707 2.63633 2.63633 2.63702 2.63702 2.66214 2.66214 2.67787 2.67787
 2.70134 2.70134 2.71541 2.71541 2.73929 2.73929 2.76416 2.76416 2.79217 2.79217
 2.81914 2.81914 2.82007 2.82008 2.85751 2.85751 2.89857 2.89857 2.92852 2.92852
 2.96352 2.96352 2.96556 2.96556 3.09474 3.09474 3.10544 3.10544 3.12536 3.12536
 3.13468 3.13468 3.79050 3.79050 3.81996 3.81997
 == 5-th k-point (0.24412,0.00000,0.17648) occupation: 84==
 -9.69275 -9.69275 -9.69275 -9.69274 -9.69272 -9.69272 -9.69272 -9.69271 -9.69236 -9.69236
 -9.69236 -9.69236 -9.69232 -9.69232 -9.69232 -9.69231 -9.69111 -9.69111 -9.69110 -9.69110
 -9.69109 -9.69109 -9.69109 -9.69109 -0.57330 -0.57330 -0.57330 -0.57329 -0.47149 -0.47149
 -0.47149 -0.47149 -0.46769 -0.46769 -0.46769 -0.46768 -0.33867 -0.33867 -0.33866 -0.33866
 -0.33184 -0.33184 -0.33184 -0.33184 -0.26361 -0.26361 -0.26361 -0.26361 -0.20012 -0.20012
 -0.20012 -0.20012 -0.18999 -0.18999 -0.18999 -0.18999 -0.17012 -0.17012 -0.17012 -0.17012
 -0.15907 -0.15907 -0.15907 -0.15907 -0.12654 -0.12654 -0.12654 -0.12653 -0.09378 -0.09378
 -0.09378 -0.09377 -0.08304 -0.08304 -0.08304 -0.08304 -0.02691 -0.02691 -0.02691 -0.02691
 -0.02066 -0.02066 -0.02066 -0.02066 0.15957 0.15958 0.15958 0.15958 0.17305 0.17305
 0.17305 0.17305 0.25295 0.25295 0.25295 0.25295 0.28400 0.28400 0.28400 0.28400
 0.30001 0.30001 0.30001 0.30002 0.32722 0.32722 0.32722 0.32722 0.35985 0.35985
 0.35985 0.35985 0.39020 0.39020 0.39020 0.39020 0.41117 0.41117 0.41117 0.41117
 0.44166 0.44166 0.44166 0.44166 0.45040 0.45040 0.45040 0.45040 0.47641 0.47641
 0.47641 0.47641 0.51607 0.51607 0.51607 0.51607 0.55904 0.55904 0.55904 0.55904
 0.59838 0.59838 0.59838 0.59838 0.62065 0.62065 0.62065 0.62065 0.65570 0.65570
 0.65570 0.65570 0.67294 0.67294 0.67294 0.67294 0.69591 0.69591 0.69592 0.69592
 0.71469 0.71469 0.71469 0.71469 0.73821 0.73821 0.73821 0.73821 0.75610 0.75610
 0.75610 0.75610 0.79719 0.79719 0.79719 0.79719 0.80786 0.80786 0.80786 0.80786
 0.82752 0.82752 0.82752 0.82752 0.84255 0.84256 0.84256 0.84256 0.87892 0.87892
 0.87892 0.87892 0.90563 0.90563 0.90563 0.90563 0.91609 0.91609 0.91609 0.91609
 0.93748 0.93748 0.93748 0.93748 0.98678 0.98678 0.98678 0.98678 1.02414 1.02414
 1.02414 1.02414 1.06073 1.06073 1.06073 1.06073 1.07633 1.07633 1.07633 1.07634
 1.10235 1.10235 1.10235 1.10235 1.12895 1.12895 1.12895 1.12895 1.15091 1.15091
 1.15091 1.15092 1.18190 1.18190 1.18190 1.18190 1.19882 1.19882 1.19882 1.19882
 1.20580 1.20580 1.20580 1.20580 1.22109 1.22109 1.22109 1.22109 1.25273 1.25273
 1.25273 1.25273 1.27761 1.27761 1.27761 1.27761 1.32449 1.32449 1.32449 1.32449
 1.33637 1.33637 1.33637 1.33637 1.36286 1.36286 1.36286 1.36286 1.40608 1.40608
 1.40608 1.40608 1.42104 1.42104 1.42104 1.42104 1.44897 1.44897 1.44897 1.44897
 1.50110 1.50110 1.50110 1.50110 1.55728 1.55728 1.55728 1.55728 1.63523 1.63523
 1.63523 1.63523 1.65959 1.65960 1.65960 1.65960 1.70277 1.70277 1.70277 1.70277
 1.73328 1.73328 1.73328 1.73328 1.76320 1.76320 1.76320 1.76320 1.78452 1.78452
 1.78452 1.78452 1.79509 1.79509 1.79509 1.79509 1.81827 1.81827 1.81828 1.81828
 1.83829 1.83829 1.83829 1.83829 1.84350 1.84350 1.84350 1.84350 1.86134 1.86134
 1.86134 1.86134 1.88909 1.88909 1.88909 1.88909 1.91247 1.91247 1.91248 1.91248
 1.93079 1.93079 1.93079 1.93079 1.94603 1.94603 1.94603 1.94603 1.96821 1.96821
 1.96821 1.96821 1.99058 1.99058 1.99058 1.99058 2.01501 2.01501 2.01501 2.01501
 2.03015 2.03015 2.03015 2.03015 2.05198 2.05198 2.05199 2.05199 2.09918 2.09918
 2.09918 2.09918 2.13001 2.13001 2.13001 2.13001 2.14188 2.14188 2.14188 2.14188
 2.16837 2.16837 2.16838 2.16838 2.22175 2.22176 2.22176 2.22176 2.25778 2.25778
 2.25778 2.25779 2.32712 2.32712 2.32712 2.32713 2.33485 2.33485 2.33485 2.33485
 2.42696 2.42696 2.42696 2.42696 2.45346 2.45346 2.45346 2.45346 2.60637 2.60637
 2.60637 2.60637 2.64737 2.64737 2.64737 2.64737 2.66429 2.66429 2.66429 2.66429
 2.70324 2.70324 2.70324 2.70324 2.74761 2.74762 2.74762 2.74762 2.80888 2.80888
 2.80888 2.80888 2.83828 2.83828 2.83828 2.83828 2.91975 2.91975 2.91975 2.91975
 2.95396 2.95396 2.95396 2.95396 3.09909 3.09909 3.09909 3.09909 3.14145 3.14145
 3.14145 3.14145 3.79868 3.79868 3.79868 3.79868
 == 6-th k-point (0.24412,0.22496,0.00000) occupation: 84==
 -9.69275 -9.69275 -9.69274 -9.69274 -9.69272 -9.69272 -9.69272 -9.69271 -9.69237 -9.69237
 -9.69237 -9.69236 -9.69232 -9.69232 -9.69232 -9.69231 -9.69111 -9.69110 -9.69110 -9.69110
 -9.69110 -9.69109 -9.69109 -9.69109 -0.57325 -0.57325 -0.57325 -0.57325 -0.47138 -0.47138
 -0.47138 -0.47138 -0.46799 -0.46799 -0.46798 -0.46798 -0.33657 -0.33657 -0.33657 -0.33656
 -0.33371 -0.33371 -0.33370 -0.33370 -0.26312 -0.26312 -0.26312 -0.26312 -0.20029 -0.20029
 -0.20029 -0.20029 -0.19030 -0.19030 -0.19030 -0.19029 -0.16968 -0.16968 -0.16968 -0.16968
 -0.16370 -0.16370 -0.16370 -0.16370 -0.11988 -0.11988 -0.11988 -0.11988 -0.09322 -0.09322
 -0.09322 -0.09322 -0.08601 -0.08601 -0.08601 -0.08601 -0.02529 -0.02529 -0.02529 -0.02529
 -0.02136 -0.02136 -0.02136 -0.02136 0.15901 0.15901 0.15902 0.15902 0.17213 0.17213
 0.17213 0.17213 0.24514 0.24514 0.24514 0.24514 0.28404 0.28404 0.28404 0.28404
 0.30197 0.30197 0.30197 0.30198 0.32218 0.32218 0.32218 0.32218 0.37353 0.37353
 0.37353 0.37353 0.38751 0.38751 0.38751 0.38751 0.42222 0.42222 0.42222 0.42222
 0.44078 0.44079 0.44079 0.44079 0.45411 0.45411 0.45411 0.45411 0.47943 0.47943
 0.47943 0.47944 0.50361 0.50361 0.50361 0.50361 0.54926 0.54926 0.54926 0.54926
 0.59731 0.59731 0.59731 0.59731 0.61915 0.61915 0.61915 0.61915 0.65061 0.65061
 0.65061 0.65061 0.67508 0.67508 0.67508 0.67508 0.68475 0.68475 0.68476 0.68476
 0.71140 0.71140 0.71140 0.71141 0.72433 0.72433 0.72433 0.72433 0.76081 0.76081
 0.76081 0.76081 0.78482 0.78482 0.78482 0.78482 0.81577 0.81577 0.81577 0.81577
 0.83562 0.83562 0.83562 0.83562 0.86249 0.86249 0.86249 0.86249 0.88315 0.88315
 0.88315 0.88315 0.90546 0.90546 0.90546 0.90546 0.91368 0.91368 0.91368 0.91368
 0.94567 0.94567 0.94567 0.94567 0.97269 0.97269 0.97269 0.97269 1.02086 1.02087
 1.02087 1.02087 1.06238 1.06239 1.06239 1.06239 1.08682 1.08682 1.08682 1.08682
 1.10378 1.10378 1.10378 1.10378 1.12821 1.12821 1.12821 1.12821 1.15248 1.15248
 1.15248 1.15248 1.16172 1.16172 1.16172 1.16173 1.18226 1.18226 1.18227 1.18227
 1.19975 1.19975 1.19975 1.19975 1.23294 1.23294 1.23294 1.23295 1.24372 1.24372
 1.24372 1.24373 1.27488 1.27488 1.27488 1.27488 1.32188 1.32188 1.32188 1.32188
 1.35350 1.35350 1.35350 1.35350 1.36730 1.36730 1.36730 1.36730 1.39224 1.39224
 1.39224 1.39224 1.42831 1.42831 1.42831 1.42831 1.48878 1.48878 1.48878 1.48878
 1.50736 1.50736 1.50736 1.50736 1.54241 1.54241 1.54241 1.54241 1.63329 1.63329
 1.63329 1.63329 1.67188 1.67188 1.67188 1.67188 1.70396 1.70396 1.70396 1.70396
 1.72766 1.72766 1.72766 1.72766 1.78441 1.78441 1.78441 1.78441 1.78977 1.78977
 1.78977 1.78977 1.80881 1.80881 1.80881 1.80881 1.81601 1.81601 1.81601 1.81601
 1.83106 1.83106 1.83106 1.83106 1.84223 1.84223 1.84223 1.84223 1.85297 1.85297
 1.85297 1.85297 1.87726 1.87726 1.87726 1.87726 1.89450 1.89450 1.89450 1.89450
 1.92147 1.92147 1.92147 1.92147 1.94861 1.94861 1.94861 1.94861 1.96803 1.96803
 1.96803 1.96803 1.98371 1.98371 1.98371 1.98371 2.00622 2.00622 2.00622 2.00623
 2.04417 2.04417 2.04417 2.04418 2.05497 2.05497 2.05497 2.05497 2.09439 2.09439
 2.09439 2.09439 2.12133 2.12133 2.12133 2.12133 2.13511 2.13511 2.13511 2.13511
 2.17663 2.17663 2.17664 2.17664 2.23232 2.23232 2.23232 2.23232 2.26928 2.26928
 2.26928 2.26928 2.31392 2.31392 2.31392 2.31392 2.33974 2.33974 2.33974 2.33974
 2.39024 2.39024 2.39024 2.39024 2.46074 2.46074 2.46074 2.46074 2.60072 2.60072
 2.60072 2.60072 2.64506 2.64506 2.64506 2.64506 2.69139 2.69139 2.69139 2.69139
 2.72728 2.72728 2.72728 2.72728 2.76264 2.76265 2.76265 2.76265 2.80245 2.80245
 2.80245 2.80246 2.82711 2.82711 2.82711 2.82712 2.92843 2.92843 2.92843 2.92844
 2.96189 2.96189 2.96189 2.96190 3.09627 3.09627 3.09627 3.09627 3.12662 3.12662
 3.12662 3.12662 3.80101 3.80101 3.80101 3.80102
 == 7-th k-point (0.24412,0.22496,0.17648) occupation: 84==
 -9.69274 -9.69274 -9.69274 -9.69274 -9.69272 -9.69272 -9.69272 -9.69272 -9.69237 -9.69237
 -9.69237 -9.69236 -9.69232 -9.69232 -9.69232 -9.69231 -9.69111 -9.69110 -9.69110 -9.69110
 -9.69110 -9.69110 -9.69110 -9.69109 -0.57325 -0.57325 -0.57325 -0.57325 -0.47265 -0.47265
 -0.47264 -0.47264 -0.46661 -0.46661 -0.46661 -0.46660 -0.33907 -0.33907 -0.33907 -0.33906
 -0.33152 -0.33152 -0.33152 -0.33152 -0.26196 -0.26196 -0.26196 -0.26195 -0.20198 -0.20198
 -0.20198 -0.20198 -0.19016 -0.19016 -0.19016 -0.19015 -0.17644 -0.17644 -0.17644 -0.17644
 -0.15538 -0.15538 -0.15538 -0.15538 -0.11857 -0.11857 -0.11856 -0.11856 -0.09688 -0.09688
 -0.09687 -0.09687 -0.08455 -0.08455 -0.08455 -0.08455 -0.02728 -0.02728 -0.02728 -0.02727
 -0.01951 -0.01951 -0.01951 -0.01951 0.15546 0.15546 0.15546 0.15546 0.17613 0.17613
 0.17613 0.17613 0.24702 0.24702 0.24702 0.24702 0.27721 0.27721 0.27721 0.27721
 0.30406 0.30406 0.30406 0.30406 0.34181 0.34181 0.34181 0.34181 0.34799 0.34799
 0.34799 0.34799 0.39254 0.39254 0.39254 0.39254 0.40274 0.40274 0.40274 0.40274
 0.45146 0.45146 0.45146 0.45146 0.45978 0.45978 0.45978 0.45978 0.48979 0.48979
 0.48979 0.48979 0.49729 0.49729 0.49729 0.49730 0.56188 0.56188 0.56188 0.56188
 0.58588 0.58588 0.58588 0.58588 0.60471 0.60471 0.60471 0.60471 0.64341 0.64341
 0.64341 0.64341 0.67769 0.67769 0.67769 0.67769 0.68124 0.68124 0.68124 0.68124
 0.71098 0.71098 0.71098 0.71098 0.75924 0.75924 0.75924 0.75924 0.76519 0.76519
 0.76519 0.76519 0.78521 0.78521 0.78521 0.78521 0.80519 0.80519 0.80519 0.80520
 0.82646 0.82646 0.82646 0.82646 0.87453 0.87454 0.87454 0.87454 0.87543 0.87543
 0.87544 0.87544 0.89262 0.89262 0.89262 0.89262 0.91275 0.91275 0.91275 0.91275
 0.96494 0.96494 0.96494 0.96495 0.97055 0.97055 0.97055 0.97055 1.02220 1.02220
 1.02220 1.02220 1.06122 1.06122 1.06122 1.06122 1.07527 1.07527 1.07527 1.07527
 1.10839 1.10839 1.10839 1.10839 1.12940 1.12940 1.12940 1.12940 1.15144 1.15144
 1.15144 1.15144 1.15370 1.15370 1.15370 1.15370 1.19927 1.19927 1.19927 1.19927
 1.20054 1.20054 1.20054 1.20054 1.22190 1.22190 1.22191 1.22191 1.25244 1.25244
 1.25245 1.25245 1.27819 1.27819 1.27819 1.27819 1.31694 1.31694 1.31694 1.31694
 1.34427 1.34427 1.34427 1.34427 1.38188 1.38188 1.38188 1.38188 1.38633 1.38633
 1.38633 1.38633 1.43841 1.43841 1.43841 1.43841 1.45587 1.45587 1.45587 1.45587
 1.50354 1.50354 1.50354 1.50354 1.56464 1.56464 1.56464 1.56464 1.62672 1.62672
 1.62672 1.62672 1.66070 1.66070 1.66070 1.66070 1.71166 1.71166 1.71166 1.71166
 1.73122 1.73122 1.73123 1.73123 1.77750 1.77750 1.77750 1.77750 1.79672 1.79672
 1.79672 1.79673 1.81705 1.81705 1.81705 1.81705 1.82416 1.82416 1.82416 1.82417
 1.83455 1.83455 1.83455 1.83455 1.84210 1.84210 1.84210 1.84210 1.85453 1.85453
 1.85453 1.85453 1.87370 1.87370 1.87370 1.87370 1.88348 1.88348 1.88348 1.88348
 1.91793 1.91793 1.91793 1.91793 1.94379 1.94379 1.94379 1.94379 1.96774 1.96774
 1.96774 1.96774 1.97343 1.97344 1.97344 1.97344 2.01911 2.01911 2.01911 2.01911
 2.04956 2.04956 2.04957 2.04957 2.05206 2.05206 2.05206 2.05206 2.07655 2.07655
 2.07655 2.07655 2.12021 2.12021 2.12021 2.12022 2.16038 2.16038 2.16039 2.16039
 2.18888 2.18888 2.18888 2.18888 2.21257 2.21257 2.21257 2.21257 2.23817 2.23817
 2.23817 2.23817 2.32717 2.32717 2.32717 2.32718 2.36123 2.36123 2.36123 2.36123
 2.38106 2.38106 2.38106 2.38107 2.44456 2.44456 2.44456 2.44456 2.60372 2.60372
 2.60372 2.60373 2.66963 2.66963 2.66963 2.66963 2.66996 2.66996 2.66996 2.66996
 2.73383 2.73383 2.73383 2.73383 2.73782 2.73782 2.73782 2.73782 2.78962 2.78962
 2.78962 2.78962 2.84847 2.84847 2.84847 2.84848 2.93635 2.93635 2.93635 2.93635
 2.94238 2.94238 2.94238 2.94238 3.08733 3.08733 3.08733 3.08733 3.14296 3.14296
 3.14296 3.14296 3.79533 3.79533 3.79533 3.79534
 ---------------------------------------------------------------------------
 VBM is at 0-th k-point with -0.30903 eV
 CBM is at 0-th k-point with 4.19882 eV
 Band gap is 4.50785 eV


           Ground-State Mulliken Net Atomic Charges

      Atom                 Charge (a.u.)          Spin (a.u.)
   --------------------------------------------------------
      1  C               (-0.003019,0.000000)    (0.000000,0.000000)
      2  C              (-0.003016,-0.000000)    (0.000000,0.000000)
      3  C               (-0.003019,0.000000)    (0.000000,0.000000)
      4  C               (-0.003016,0.000000)    (0.000000,0.000000)
      5  C              (-0.003025,-0.000000)    (0.000000,0.000000)
      6  C               (-0.003017,0.000000)    (0.000000,0.000000)
      7  C              (-0.003017,-0.000000)    (0.000000,0.000000)
      8  C              (-0.003025,-0.000000)    (0.000000,0.000000)
      9  C               (0.022693,-0.000000)    (0.000000,0.000000)
     10  C                (0.022707,0.000000)    (0.000000,0.000000)
     11  C               (0.022699,-0.000000)    (0.000000,0.000000)
     12  C               (0.022703,-0.000000)    (0.000000,0.000000)
     13  C               (0.022692,-0.000000)    (0.000000,0.000000)
     14  C               (0.022698,-0.000000)    (0.000000,0.000000)
     15  C               (0.022707,-0.000000)    (0.000000,0.000000)
     16  C                (0.022705,0.000000)    (0.000000,0.000000)
     17  C               (0.023876,-0.000000)    (0.000000,0.000000)
     18  C                (0.023870,0.000000)    (0.000000,0.000000)
     19  C               (0.023879,-0.000000)    (0.000000,0.000000)
     20  C               (0.023885,-0.000000)    (0.000000,0.000000)
     21  C                (0.023871,0.000000)    (0.000000,0.000000)
     22  C               (0.023877,-0.000000)    (0.000000,0.000000)
     23  C                (0.023872,0.000000)    (0.000000,0.000000)
     24  C                (0.023871,0.000000)    (0.000000,0.000000)
     25  H               (-0.014148,0.000000)    (0.000000,0.000000)
     26  H              (-0.014152,-0.000000)    (0.000000,0.000000)
     27  H               (-0.014152,0.000000)    (0.000000,0.000000)
     28  H              (-0.014152,-0.000000)    (0.000000,0.000000)
     29  H               (-0.014147,0.000000)    (0.000000,0.000000)
     30  H              (-0.014152,-0.000000)    (0.000000,0.000000)
     31  H               (-0.014152,0.000000)    (0.000000,0.000000)
     32  H              (-0.014151,-0.000000)    (0.000000,0.000000)
     33  H              (-0.007585,-0.000000)    (0.000000,0.000000)
     34  H               (-0.007591,0.000000)    (0.000000,0.000000)
     35  H               (-0.007590,0.000000)    (0.000000,0.000000)
     36  H              (-0.007592,-0.000000)    (0.000000,0.000000)
     37  H              (-0.007585,-0.000000)    (0.000000,0.000000)
     38  H              (-0.007590,-0.000000)    (0.000000,0.000000)
     39  H              (-0.007591,-0.000000)    (0.000000,0.000000)
     40  H               (-0.007592,0.000000)    (0.000000,0.000000)
     41  H               (-0.021813,0.000000)    (0.000000,0.000000)
     42  H               (-0.021816,0.000000)    (0.000000,0.000000)
     43  H               (-0.021818,0.000000)    (0.000000,0.000000)
     44  H              (-0.021818,-0.000000)    (0.000000,0.000000)
     45  H               (-0.021812,0.000000)    (0.000000,0.000000)
     46  H              (-0.021817,-0.000000)    (0.000000,0.000000)
     47  H               (-0.021817,0.000000)    (0.000000,0.000000)
     48  H               (-0.021816,0.000000)    (0.000000,0.000000)
   --------------------------------------------------------
  Sum of atomic charges =     (-0.000000,-0.000000)
  Sum of spin   charges =       (0.000000,0.000000)



 Total job time:  379.95 s.
 Wed Jul  9 18:56:49 2025


        *************************************************************
        *                                                           *
        *  Thank you very much for using QCPBC. Have a nice day.    *
        *                                                           *
        *************************************************************

Running job 1 of 1
