                  Welcome to Q-Chem
           with Periodic Boundary Condition
     A Quantum Leap Into The Future Of Chemistry

 Adam Rettig, Xintian Feng, Meng-Fu Chen, Hieu Dinh, Stephen Quiton,
 Anton Ni, Paul J. Robinson, Jinghong Zhang, Joonho Lee

Contributors to earlier versions of Q-Chem not listed above:
 Evgeny Epifanovsky, Leo Cunha, Jerome F. Gonthier, Kuan-Yu Liu
 Input file: /scratch/bdxq/hdinh//benzene_crystal_ccpvqz_omega_0.4_222.scratch20250709211734/benzene_crystal_ccpvqz_omega_0.4_222.0
 Scratch folder: /scratch/bdxq/hdinh//benzene_crystal_ccpvqz_omega_0.4_222.scratch20250709211734
 Auxillary files located at: /u/hdinh/qcpbc/qcaux
 Q-Chem begins on Wed Jul  9 21:17:37 2025

 -------------------------------------------------------------
 User input:
 -------------------------------------------------------------
 $lattice
 3
 6.8100000000 	0.0000000000 	0.0000000000
 0.0000000000 	7.3900000000 	0.0000000000
 0.0000000000 	0.0000000000 	9.4200000000
 $end
 
 $unitcell
 ABSOLUTE
 0 1
  C 	6.7630110000 	6.9414270000 	1.3122060000
  C 	6.7630110000 	4.1435730000 	6.0222060000
  C 	3.3580110000 	6.9414270000 	3.3977940000
  C 	3.3580110000 	4.1435730000 	8.1077940000
  C 	0.0469890000 	0.4485730000 	8.1077940000
  C 	0.0469890000 	3.2464270000 	3.3977940000
  C 	3.4519890000 	0.4485730000 	6.0222060000
  C 	3.4519890000 	3.2464270000 	1.3122060000
  C 	0.8580600000 	6.3723970000 	0.4210740000
  C 	0.8580600000 	4.7126030000 	5.1310740000
  C 	4.2630600000 	6.3723970000 	4.2889260000
  C 	4.2630600000 	4.7126030000 	8.9989260000
  C 	5.9519400000 	1.0176030000 	8.9989260000
  C 	5.9519400000 	2.6773970000 	4.2889260000
  C 	2.5469400000 	1.0176030000 	5.1310740000
  C 	2.5469400000 	2.6773970000 	0.4210740000
  C 	5.9076750000 	0.5690300000 	0.9024360000
  C 	5.9076750000 	3.1259700000 	5.6124360000
  C 	2.5026750000 	0.5690300000 	3.8075640000
  C 	2.5026750000 	3.1259700000 	8.5175640000
  C 	0.9023250000 	6.8209700000 	8.5175640000
  C 	0.9023250000 	4.2640300000 	3.8075640000
  C 	4.3073250000 	6.8209700000 	5.6124360000
  C 	4.3073250000 	4.2640300000 	0.9024360000
  H 	6.7262370000 	6.6170060000 	2.3568840000
  H 	6.7262370000 	4.4679940000 	7.0668840000
  H 	3.3212370000 	6.6170060000 	2.3531160000
  H 	3.3212370000 	4.4679940000 	7.0631160000
  H 	0.0837630000 	0.7729940000 	7.0631160000
  H 	0.0837630000 	2.9220060000 	2.3531160000
  H 	3.4887630000 	0.7729940000 	7.0668840000
  H 	3.4887630000 	2.9220060000 	2.3568840000
  H 	1.5261210000 	5.5735380000 	0.7357020000
  H 	1.5261210000 	5.5114620000 	5.4457020000
  H 	4.9311210000 	5.5735380000 	3.9742980000
  H 	4.9311210000 	5.5114620000 	8.6842980000
  H 	5.2838790000 	1.8164620000 	8.6842980000
  H 	5.2838790000 	1.8785380000 	3.9742980000
  H 	1.8788790000 	1.8164620000 	5.4457020000
  H 	1.8788790000 	1.8785380000 	0.7357020000
  H 	5.2028400000 	1.0131690000 	1.5835020000
  H 	5.2028400000 	2.6818310000 	6.2935020000
  H 	1.7978400000 	1.0131690000 	3.1264980000
  H 	1.7978400000 	2.6818310000 	7.8364980000
  H 	1.6071600000 	6.3768310000 	7.8364980000
  H 	1.6071600000 	4.7081690000 	3.1264980000
  H 	5.0121600000 	6.3768310000 	6.2935020000
  H 	5.0121600000 	4.7081690000 	1.5835020000
 $end
 
 $rem
 jobtype = sp
 method = pbe
 dft_d = 6
 scf_convergence = 5
 scf_guess = autosad
 scf_algorithm = gdm
 basis = cc-pvqz
 aux_basis = cc-pvqz-jk
 input_bohr = false
 
 mp_mesh = [2,2,2]
 
 integral_direct true
 bvk_cgto true
 
 thresh 14
 mem_total 500000
 threads 32
 
 MAX_SCF_CYCLES 500
 madelung = false
 omega 0.4
 do_rij_bigmem true
 automate_g true
 print_level 10
 grid_type_xc 1
 
 thresh_1e2c_sp 1e-14
 thresh_2e3c_bra_ket_sep 1e-10
 thresh_g 1e-10
 $end
 
 $rem_autosad
 incfock 1000
 scf_algorithm gdm_ls
 $end
 
 -------------------------------------------------------------
 Running PBC job

 Requested Exchange Correlation Functionals: 
  DFT Exchange:  1.00000 pbe_x
  DFT Correlation:  1.00000 pbe_c
 using 32 threads for computing.
 ---------------------------------------------------------------
      Coordinates of Atoms in Central Unit Cell (Angstroms)
    I     Atom         X            Y            Z
 ---------------------------------------------------------------
    1       C      6.763011     6.941427     1.312206
    2       C      6.763011     4.143573     6.022206
    3       C      3.358011     6.941427     3.397794
    4       C      3.358011     4.143573     8.107794
    5       C      0.046989     0.448573     8.107794
    6       C      0.046989     3.246427     3.397794
    7       C      3.451989     0.448573     6.022206
    8       C      3.451989     3.246427     1.312206
    9       C      0.858060     6.372397     0.421074
   10       C      0.858060     4.712603     5.131074
   11       C      4.263060     6.372397     4.288926
   12       C      4.263060     4.712603     8.998926
   13       C      5.951940     1.017603     8.998926
   14       C      5.951940     2.677397     4.288926
   15       C      2.546940     1.017603     5.131074
   16       C      2.546940     2.677397     0.421074
   17       C      5.907675     0.569030     0.902436
   18       C      5.907675     3.125970     5.612436
   19       C      2.502675     0.569030     3.807564
   20       C      2.502675     3.125970     8.517564
   21       C      0.902325     6.820970     8.517564
   22       C      0.902325     4.264030     3.807564
   23       C      4.307325     6.820970     5.612436
   24       C      4.307325     4.264030     0.902436
   25       H      6.726237     6.617006     2.356884
   26       H      6.726237     4.467994     7.066884
   27       H      3.321237     6.617006     2.353116
   28       H      3.321237     4.467994     7.063116
   29       H      0.083763     0.772994     7.063116
   30       H      0.083763     2.922006     2.353116
   31       H      3.488763     0.772994     7.066884
   32       H      3.488763     2.922006     2.356884
   33       H      1.526121     5.573538     0.735702
   34       H      1.526121     5.511462     5.445702
   35       H      4.931121     5.573538     3.974298
   36       H      4.931121     5.511462     8.684298
   37       H      5.283879     1.816462     8.684298
   38       H      5.283879     1.878538     3.974298
   39       H      1.878879     1.816462     5.445702
   40       H      1.878879     1.878538     0.735702
   41       H      5.202840     1.013169     1.583502
   42       H      5.202840     2.681831     6.293502
   43       H      1.797840     1.013169     3.126498
   44       H      1.797840     2.681831     7.836498
   45       H      1.607160     6.376831     7.836498
   46       H      1.607160     4.708169     3.126498
   47       H      5.012160     6.376831     6.293502
   48       H      5.012160     4.708169     1.583502
 ---------------------------------------------------------------
 --------------------------------------------------
              Lattice Vectors (Angstroms)
              X            Y            Z
 --------------------------------------------------
   X       6.810000     0.000000     0.000000
   Y       0.000000     7.390000     0.000000
   Z       0.000000     0.000000     9.420000
 --------------------------------------------------
 --------------------------------------------------
       Reciprocal Lattice Vectors (Angstroms^-1)
              X            Y            Z
 --------------------------------------------------
   X       0.922641     0.000000     0.000000
   Y       0.000000     0.850228     0.000000
   Z       0.000000     0.000000     0.667005
 --------------------------------------------------

 Single point calculation requested

 Hamiltonian contributions:
 List of terms in Hamiltonian: kpts_nn, kpts_kinetic, kpts_vnuc_df, kpts_xc, kpts_rij_bigmem, kpts_dftd3

 K-Points calculation started.

 Basis set information about using solid harmonic (1) or Cartesian (0):
  h : D(1) D(1) F(1) 
  c : D(1) D(1) D(1) F(1) F(1) G(1) 

 Basis set information about using solid harmonic (1) or Cartesian (0):
  h : D(1) D(1) D(1) F(1) F(1) G(1) 
  c : D(1) D(1) D(1) D(1) D(1) F(1) F(1) F(1) G(1) G(1) H(1) 

 There are 2040 basis functions in the central unit cell.
 Print atomic basis of atoms in the central unit cell:
 -------------------------------------------------------------
48 1032 1032 600

  1.27802385678315e+01  1.31173959440827e+01  2.47970995909068e+00
  1.27802385678315e+01  7.83021814739398e+00  1.13803200060781e+01
  6.34572111348071e+00  1.31173959440827e+01  6.42090008789669e+00
  6.34572111348071e+00  7.83021814739398e+00  1.53215101348841e+01
  8.87963408700403e-02  8.47680116901756e-01  1.53215101348841e+01
  8.87963408700403e-02  6.13485791359047e+00  6.42090008789669e+00
  6.52331379522079e+00  8.47680116901756e-01  1.13803200060781e+01
  6.52331379522079e+00  6.13485791359047e+00  2.47970995909068e+00
  1.62149839849639e+00  1.20420850873869e+01  7.95714538200672e-01
  1.62149839849639e+00  8.90552900408978e+00  9.69632458518805e+00
  8.05601585284714e+00  1.20420850873869e+01  8.10489550878671e+00
  8.05601585284714e+00  8.90552900408978e+00  1.70055055557741e+01
  1.12475365102051e+01  1.92299097359756e+00  1.70055055557741e+01
  1.12475365102051e+01  5.05954705689466e+00  8.10489550878671e+00
  4.81301905585436e+00  1.92299097359756e+00  9.69632458518805e+00
  4.81301905585436e+00  5.05954705689466e+00  7.95714538200672e-01
  1.11638877832985e+01  1.07531085669580e+00  1.70535688500278e+00
  1.11638877832985e+01  5.90722717379642e+00  1.06059669319902e+01
  4.72937032894780e+00  1.07531085669580e+00  7.19525316198460e+00
  4.72937032894780e+00  5.90722717379642e+00  1.60958632089720e+01
  1.70514712540295e+00  1.28897652042886e+01  1.60958632089720e+01
  1.70514712540295e+00  8.05784888718802e+00  7.19525316198460e+00
  8.13966457975370e+00  1.28897652042886e+01  1.06059669319902e+01
  8.13966457975370e+00  8.05784888718802e+00  1.70535688500278e+00
  1.27107457793245e+01  1.25043291050055e+01  4.45386526751248e+00
  1.27107457793245e+01  8.44328498647119e+00  1.33544753144999e+01
  6.27622832497372e+00  1.25043291050055e+01  4.44674477947489e+00
  6.27622832497372e+00  8.44328498647119e+00  1.33473548264623e+01
  1.58289129377028e-01  1.46074695597897e+00  1.33473548264623e+01
  1.58289129377028e-01  5.52179107451325e+00  4.44674477947489e+00
  6.59280658372778e+00  1.46074695597897e+00  1.33544753144999e+01
  6.59280658372778e+00  5.52179107451325e+00  4.45386526751248e+00
  2.88395072304001e+00  1.05324603651945e+01  1.39027528933943e+00
  2.88395072304001e+00  1.04151537262822e+01  1.02908853363268e+01
  9.31846817739075e+00  1.05324603651945e+01  7.51033475764795e+00
  9.31846817739075e+00  1.04151537262822e+01  1.64109448046353e+01
  9.98508418566149e+00  3.43261569578998e+00  1.64109448046353e+01
  9.98508418566149e+00  3.54992233470225e+00  7.51033475764795e+00
  3.55056673131074e+00  3.43261569578998e+00  1.02908853363268e+01
  3.55056673131074e+00  3.54992233470225e+00  1.39027528933943e+00
  9.83194267024794e+00  1.91461192796097e+00  2.99238509779716e+00
  9.83194267024794e+00  5.06792610253125e+00  1.18929951447845e+01
  3.39742521589719e+00  1.91461192796097e+00  5.90822494919022e+00
  3.39742521589719e+00  5.06792610253125e+00  1.48088349961776e+01
  3.03709223845355e+00  1.20504641330235e+01  1.48088349961776e+01
  3.03709223845355e+00  8.89714995845319e+00  5.90822494919022e+00
  9.47160969280430e+00  1.20504641330235e+01  1.18929951447845e+01
  9.47160969280430e+00  8.89714995845319e+00  2.99238509779716e+00

  3.39800000000000e+04
  5.08900000000000e+03
  1.15700000000000e+03
  3.26600000000000e+02
  1.06100000000000e+02
  3.81100000000000e+01
  1.47500000000000e+01
  6.03500000000000e+00
  3.39800000000000e+04
  5.08900000000000e+03
  3.26600000000000e+02
  1.06100000000000e+02
  3.81100000000000e+01
  1.47500000000000e+01
  6.03500000000000e+00
  2.53000000000000e+00
  7.35500000000000e-01
  2.90500000000000e-01
  1.11100000000000e-01
  3.45100000000000e+01
  7.91500000000000e+00
  2.36800000000000e+00
  8.13200000000000e-01
  2.89000000000000e-01
  1.00700000000000e-01
  1.84800000000000e+00
  6.49000000000000e-01
  2.28000000000000e-01
  1.41900000000000e+00
  4.85000000000000e-01
  1.01100000000000e+00
  3.39800000000000e+04
  5.08900000000000e+03
  1.15700000000000e+03
  3.26600000000000e+02
  1.06100000000000e+02
  3.81100000000000e+01
  1.47500000000000e+01
  6.03500000000000e+00
  3.39800000000000e+04
  5.08900000000000e+03
  3.26600000000000e+02
  1.06100000000000e+02
  3.81100000000000e+01
  1.47500000000000e+01
  6.03500000000000e+00
  2.53000000000000e+00
  7.35500000000000e-01
  2.90500000000000e-01
  1.11100000000000e-01
  3.45100000000000e+01
  7.91500000000000e+00
  2.36800000000000e+00
  8.13200000000000e-01
  2.89000000000000e-01
  1.00700000000000e-01
  1.84800000000000e+00
  6.49000000000000e-01
  2.28000000000000e-01
  1.41900000000000e+00
  4.85000000000000e-01
  1.01100000000000e+00
  3.39800000000000e+04
  5.08900000000000e+03
  1.15700000000000e+03
  3.26600000000000e+02
  1.06100000000000e+02
  3.81100000000000e+01
  1.47500000000000e+01
  6.03500000000000e+00
  3.39800000000000e+04
  5.08900000000000e+03
  3.26600000000000e+02
  1.06100000000000e+02
  3.81100000000000e+01
  1.47500000000000e+01
  6.03500000000000e+00
  2.53000000000000e+00
  7.35500000000000e-01
  2.90500000000000e-01
  1.11100000000000e-01
  3.45100000000000e+01
  7.91500000000000e+00
  2.36800000000000e+00
  8.13200000000000e-01
  2.89000000000000e-01
  1.00700000000000e-01
  1.84800000000000e+00
  6.49000000000000e-01
  2.28000000000000e-01
  1.41900000000000e+00
  4.85000000000000e-01
  1.01100000000000e+00
  3.39800000000000e+04
  5.08900000000000e+03
  1.15700000000000e+03
  3.26600000000000e+02
  1.06100000000000e+02
  3.81100000000000e+01
  1.47500000000000e+01
  6.03500000000000e+00
  3.39800000000000e+04
  5.08900000000000e+03
  3.26600000000000e+02
  1.06100000000000e+02
  3.81100000000000e+01
  1.47500000000000e+01
  6.03500000000000e+00
  2.53000000000000e+00
  7.35500000000000e-01
  2.90500000000000e-01
  1.11100000000000e-01
  3.45100000000000e+01
  7.91500000000000e+00
  2.36800000000000e+00
  8.13200000000000e-01
  2.89000000000000e-01
  1.00700000000000e-01
  1.84800000000000e+00
  6.49000000000000e-01
  2.28000000000000e-01
  1.41900000000000e+00
  4.85000000000000e-01
  1.01100000000000e+00
  3.39800000000000e+04
  5.08900000000000e+03
  1.15700000000000e+03
  3.26600000000000e+02
  1.06100000000000e+02
  3.81100000000000e+01
  1.47500000000000e+01
  6.03500000000000e+00
  3.39800000000000e+04
  5.08900000000000e+03
  3.26600000000000e+02
  1.06100000000000e+02
  3.81100000000000e+01
  1.47500000000000e+01
  6.03500000000000e+00
  2.53000000000000e+00
  7.35500000000000e-01
  2.90500000000000e-01
  1.11100000000000e-01
  3.45100000000000e+01
  7.91500000000000e+00
  2.36800000000000e+00
  8.13200000000000e-01
  2.89000000000000e-01
  1.00700000000000e-01
  1.84800000000000e+00
  6.49000000000000e-01
  2.28000000000000e-01
  1.41900000000000e+00
  4.85000000000000e-01
  1.01100000000000e+00
  3.39800000000000e+04
  5.08900000000000e+03
  1.15700000000000e+03
  3.26600000000000e+02
  1.06100000000000e+02
  3.81100000000000e+01
  1.47500000000000e+01
  6.03500000000000e+00
  3.39800000000000e+04
  5.08900000000000e+03
  3.26600000000000e+02
  1.06100000000000e+02
  3.81100000000000e+01
  1.47500000000000e+01
  6.03500000000000e+00
  2.53000000000000e+00
  7.35500000000000e-01
  2.90500000000000e-01
  1.11100000000000e-01
  3.45100000000000e+01
  7.91500000000000e+00
  2.36800000000000e+00
  8.13200000000000e-01
  2.89000000000000e-01
  1.00700000000000e-01
  1.84800000000000e+00
  6.49000000000000e-01
  2.28000000000000e-01
  1.41900000000000e+00
  4.85000000000000e-01
  1.01100000000000e+00
  3.39800000000000e+04
  5.08900000000000e+03
  1.15700000000000e+03
  3.26600000000000e+02
  1.06100000000000e+02
  3.81100000000000e+01
  1.47500000000000e+01
  6.03500000000000e+00
  3.39800000000000e+04
  5.08900000000000e+03
  3.26600000000000e+02
  1.06100000000000e+02
  3.81100000000000e+01
  1.47500000000000e+01
  6.03500000000000e+00
  2.53000000000000e+00
  7.35500000000000e-01
  2.90500000000000e-01
  1.11100000000000e-01
  3.45100000000000e+01
  7.91500000000000e+00
  2.36800000000000e+00
  8.13200000000000e-01
  2.89000000000000e-01
  1.00700000000000e-01
  1.84800000000000e+00
  6.49000000000000e-01
  2.28000000000000e-01
  1.41900000000000e+00
  4.85000000000000e-01
  1.01100000000000e+00
  3.39800000000000e+04
  5.08900000000000e+03
  1.15700000000000e+03
  3.26600000000000e+02
  1.06100000000000e+02
  3.81100000000000e+01
  1.47500000000000e+01
  6.03500000000000e+00
  3.39800000000000e+04
  5.08900000000000e+03
  3.26600000000000e+02
  1.06100000000000e+02
  3.81100000000000e+01
  1.47500000000000e+01
  6.03500000000000e+00
  2.53000000000000e+00
  7.35500000000000e-01
  2.90500000000000e-01
  1.11100000000000e-01
  3.45100000000000e+01
  7.91500000000000e+00
  2.36800000000000e+00
  8.13200000000000e-01
  2.89000000000000e-01
  1.00700000000000e-01
  1.84800000000000e+00
  6.49000000000000e-01
  2.28000000000000e-01
  1.41900000000000e+00
  4.85000000000000e-01
  1.01100000000000e+00
  3.39800000000000e+04
  5.08900000000000e+03
  1.15700000000000e+03
  3.26600000000000e+02
  1.06100000000000e+02
  3.81100000000000e+01
  1.47500000000000e+01
  6.03500000000000e+00
  3.39800000000000e+04
  5.08900000000000e+03
  3.26600000000000e+02
  1.06100000000000e+02
  3.81100000000000e+01
  1.47500000000000e+01
  6.03500000000000e+00
  2.53000000000000e+00
  7.35500000000000e-01
  2.90500000000000e-01
  1.11100000000000e-01
  3.45100000000000e+01
  7.91500000000000e+00
  2.36800000000000e+00
  8.13200000000000e-01
  2.89000000000000e-01
  1.00700000000000e-01
  1.84800000000000e+00
  6.49000000000000e-01
  2.28000000000000e-01
  1.41900000000000e+00
  4.85000000000000e-01
  1.01100000000000e+00
  3.39800000000000e+04
  5.08900000000000e+03
  1.15700000000000e+03
  3.26600000000000e+02
  1.06100000000000e+02
  3.81100000000000e+01
  1.47500000000000e+01
  6.03500000000000e+00
  3.39800000000000e+04
  5.08900000000000e+03
  3.26600000000000e+02
  1.06100000000000e+02
  3.81100000000000e+01
  1.47500000000000e+01
  6.03500000000000e+00
  2.53000000000000e+00
  7.35500000000000e-01
  2.90500000000000e-01
  1.11100000000000e-01
  3.45100000000000e+01
  7.91500000000000e+00
  2.36800000000000e+00
  8.13200000000000e-01
  2.89000000000000e-01
  1.00700000000000e-01
  1.84800000000000e+00
  6.49000000000000e-01
  2.28000000000000e-01
  1.41900000000000e+00
  4.85000000000000e-01
  1.01100000000000e+00
  3.39800000000000e+04
  5.08900000000000e+03
  1.15700000000000e+03
  3.26600000000000e+02
  1.06100000000000e+02
  3.81100000000000e+01
  1.47500000000000e+01
  6.03500000000000e+00
  3.39800000000000e+04
  5.08900000000000e+03
  3.26600000000000e+02
  1.06100000000000e+02
  3.81100000000000e+01
  1.47500000000000e+01
  6.03500000000000e+00
  2.53000000000000e+00
  7.35500000000000e-01
  2.90500000000000e-01
  1.11100000000000e-01
  3.45100000000000e+01
  7.91500000000000e+00
  2.36800000000000e+00
  8.13200000000000e-01
  2.89000000000000e-01
  1.00700000000000e-01
  1.84800000000000e+00
  6.49000000000000e-01
  2.28000000000000e-01
  1.41900000000000e+00
  4.85000000000000e-01
  1.01100000000000e+00
  3.39800000000000e+04
  5.08900000000000e+03
  1.15700000000000e+03
  3.26600000000000e+02
  1.06100000000000e+02
  3.81100000000000e+01
  1.47500000000000e+01
  6.03500000000000e+00
  3.39800000000000e+04
  5.08900000000000e+03
  3.26600000000000e+02
  1.06100000000000e+02
  3.81100000000000e+01
  1.47500000000000e+01
  6.03500000000000e+00
  2.53000000000000e+00
  7.35500000000000e-01
  2.90500000000000e-01
  1.11100000000000e-01
  3.45100000000000e+01
  7.91500000000000e+00
  2.36800000000000e+00
  8.13200000000000e-01
  2.89000000000000e-01
  1.00700000000000e-01
  1.84800000000000e+00
  6.49000000000000e-01
  2.28000000000000e-01
  1.41900000000000e+00
  4.85000000000000e-01
  1.01100000000000e+00
  3.39800000000000e+04
  5.08900000000000e+03
  1.15700000000000e+03
  3.26600000000000e+02
  1.06100000000000e+02
  3.81100000000000e+01
  1.47500000000000e+01
  6.03500000000000e+00
  3.39800000000000e+04
  5.08900000000000e+03
  3.26600000000000e+02
  1.06100000000000e+02
  3.81100000000000e+01
  1.47500000000000e+01
  6.03500000000000e+00
  2.53000000000000e+00
  7.35500000000000e-01
  2.90500000000000e-01
  1.11100000000000e-01
  3.45100000000000e+01
  7.91500000000000e+00
  2.36800000000000e+00
  8.13200000000000e-01
  2.89000000000000e-01
  1.00700000000000e-01
  1.84800000000000e+00
  6.49000000000000e-01
  2.28000000000000e-01
  1.41900000000000e+00
  4.85000000000000e-01
  1.01100000000000e+00
  3.39800000000000e+04
  5.08900000000000e+03
  1.15700000000000e+03
  3.26600000000000e+02
  1.06100000000000e+02
  3.81100000000000e+01
  1.47500000000000e+01
  6.03500000000000e+00
  3.39800000000000e+04
  5.08900000000000e+03
  3.26600000000000e+02
  1.06100000000000e+02
  3.81100000000000e+01
  1.47500000000000e+01
  6.03500000000000e+00
  2.53000000000000e+00
  7.35500000000000e-01
  2.90500000000000e-01
  1.11100000000000e-01
  3.45100000000000e+01
  7.91500000000000e+00
  2.36800000000000e+00
  8.13200000000000e-01
  2.89000000000000e-01
  1.00700000000000e-01
  1.84800000000000e+00
  6.49000000000000e-01
  2.28000000000000e-01
  1.41900000000000e+00
  4.85000000000000e-01
  1.01100000000000e+00
  3.39800000000000e+04
  5.08900000000000e+03
  1.15700000000000e+03
  3.26600000000000e+02
  1.06100000000000e+02
  3.81100000000000e+01
  1.47500000000000e+01
  6.03500000000000e+00
  3.39800000000000e+04
  5.08900000000000e+03
  3.26600000000000e+02
  1.06100000000000e+02
  3.81100000000000e+01
  1.47500000000000e+01
  6.03500000000000e+00
  2.53000000000000e+00
  7.35500000000000e-01
  2.90500000000000e-01
  1.11100000000000e-01
  3.45100000000000e+01
  7.91500000000000e+00
  2.36800000000000e+00
  8.13200000000000e-01
  2.89000000000000e-01
  1.00700000000000e-01
  1.84800000000000e+00
  6.49000000000000e-01
  2.28000000000000e-01
  1.41900000000000e+00
  4.85000000000000e-01
  1.01100000000000e+00
  3.39800000000000e+04
  5.08900000000000e+03
  1.15700000000000e+03
  3.26600000000000e+02
  1.06100000000000e+02
  3.81100000000000e+01
  1.47500000000000e+01
  6.03500000000000e+00
  3.39800000000000e+04
  5.08900000000000e+03
  3.26600000000000e+02
  1.06100000000000e+02
  3.81100000000000e+01
  1.47500000000000e+01
  6.03500000000000e+00
  2.53000000000000e+00
  7.35500000000000e-01
  2.90500000000000e-01
  1.11100000000000e-01
  3.45100000000000e+01
  7.91500000000000e+00
  2.36800000000000e+00
  8.13200000000000e-01
  2.89000000000000e-01
  1.00700000000000e-01
  1.84800000000000e+00
  6.49000000000000e-01
  2.28000000000000e-01
  1.41900000000000e+00
  4.85000000000000e-01
  1.01100000000000e+00
  3.39800000000000e+04
  5.08900000000000e+03
  1.15700000000000e+03
  3.26600000000000e+02
  1.06100000000000e+02
  3.81100000000000e+01
  1.47500000000000e+01
  6.03500000000000e+00
  3.39800000000000e+04
  5.08900000000000e+03
  3.26600000000000e+02
  1.06100000000000e+02
  3.81100000000000e+01
  1.47500000000000e+01
  6.03500000000000e+00
  2.53000000000000e+00
  7.35500000000000e-01
  2.90500000000000e-01
  1.11100000000000e-01
  3.45100000000000e+01
  7.91500000000000e+00
  2.36800000000000e+00
  8.13200000000000e-01
  2.89000000000000e-01
  1.00700000000000e-01
  1.84800000000000e+00
  6.49000000000000e-01
  2.28000000000000e-01
  1.41900000000000e+00
  4.85000000000000e-01
  1.01100000000000e+00
  3.39800000000000e+04
  5.08900000000000e+03
  1.15700000000000e+03
  3.26600000000000e+02
  1.06100000000000e+02
  3.81100000000000e+01
  1.47500000000000e+01
  6.03500000000000e+00
  3.39800000000000e+04
  5.08900000000000e+03
  3.26600000000000e+02
  1.06100000000000e+02
  3.81100000000000e+01
  1.47500000000000e+01
  6.03500000000000e+00
  2.53000000000000e+00
  7.35500000000000e-01
  2.90500000000000e-01
  1.11100000000000e-01
  3.45100000000000e+01
  7.91500000000000e+00
  2.36800000000000e+00
  8.13200000000000e-01
  2.89000000000000e-01
  1.00700000000000e-01
  1.84800000000000e+00
  6.49000000000000e-01
  2.28000000000000e-01
  1.41900000000000e+00
  4.85000000000000e-01
  1.01100000000000e+00
  3.39800000000000e+04
  5.08900000000000e+03
  1.15700000000000e+03
  3.26600000000000e+02
  1.06100000000000e+02
  3.81100000000000e+01
  1.47500000000000e+01
  6.03500000000000e+00
  3.39800000000000e+04
  5.08900000000000e+03
  3.26600000000000e+02
  1.06100000000000e+02
  3.81100000000000e+01
  1.47500000000000e+01
  6.03500000000000e+00
  2.53000000000000e+00
  7.35500000000000e-01
  2.90500000000000e-01
  1.11100000000000e-01
  3.45100000000000e+01
  7.91500000000000e+00
  2.36800000000000e+00
  8.13200000000000e-01
  2.89000000000000e-01
  1.00700000000000e-01
  1.84800000000000e+00
  6.49000000000000e-01
  2.28000000000000e-01
  1.41900000000000e+00
  4.85000000000000e-01
  1.01100000000000e+00
  3.39800000000000e+04
  5.08900000000000e+03
  1.15700000000000e+03
  3.26600000000000e+02
  1.06100000000000e+02
  3.81100000000000e+01
  1.47500000000000e+01
  6.03500000000000e+00
  3.39800000000000e+04
  5.08900000000000e+03
  3.26600000000000e+02
  1.06100000000000e+02
  3.81100000000000e+01
  1.47500000000000e+01
  6.03500000000000e+00
  2.53000000000000e+00
  7.35500000000000e-01
  2.90500000000000e-01
  1.11100000000000e-01
  3.45100000000000e+01
  7.91500000000000e+00
  2.36800000000000e+00
  8.13200000000000e-01
  2.89000000000000e-01
  1.00700000000000e-01
  1.84800000000000e+00
  6.49000000000000e-01
  2.28000000000000e-01
  1.41900000000000e+00
  4.85000000000000e-01
  1.01100000000000e+00
  3.39800000000000e+04
  5.08900000000000e+03
  1.15700000000000e+03
  3.26600000000000e+02
  1.06100000000000e+02
  3.81100000000000e+01
  1.47500000000000e+01
  6.03500000000000e+00
  3.39800000000000e+04
  5.08900000000000e+03
  3.26600000000000e+02
  1.06100000000000e+02
  3.81100000000000e+01
  1.47500000000000e+01
  6.03500000000000e+00
  2.53000000000000e+00
  7.35500000000000e-01
  2.90500000000000e-01
  1.11100000000000e-01
  3.45100000000000e+01
  7.91500000000000e+00
  2.36800000000000e+00
  8.13200000000000e-01
  2.89000000000000e-01
  1.00700000000000e-01
  1.84800000000000e+00
  6.49000000000000e-01
  2.28000000000000e-01
  1.41900000000000e+00
  4.85000000000000e-01
  1.01100000000000e+00
  3.39800000000000e+04
  5.08900000000000e+03
  1.15700000000000e+03
  3.26600000000000e+02
  1.06100000000000e+02
  3.81100000000000e+01
  1.47500000000000e+01
  6.03500000000000e+00
  3.39800000000000e+04
  5.08900000000000e+03
  3.26600000000000e+02
  1.06100000000000e+02
  3.81100000000000e+01
  1.47500000000000e+01
  6.03500000000000e+00
  2.53000000000000e+00
  7.35500000000000e-01
  2.90500000000000e-01
  1.11100000000000e-01
  3.45100000000000e+01
  7.91500000000000e+00
  2.36800000000000e+00
  8.13200000000000e-01
  2.89000000000000e-01
  1.00700000000000e-01
  1.84800000000000e+00
  6.49000000000000e-01
  2.28000000000000e-01
  1.41900000000000e+00
  4.85000000000000e-01
  1.01100000000000e+00
  3.39800000000000e+04
  5.08900000000000e+03
  1.15700000000000e+03
  3.26600000000000e+02
  1.06100000000000e+02
  3.81100000000000e+01
  1.47500000000000e+01
  6.03500000000000e+00
  3.39800000000000e+04
  5.08900000000000e+03
  3.26600000000000e+02
  1.06100000000000e+02
  3.81100000000000e+01
  1.47500000000000e+01
  6.03500000000000e+00
  2.53000000000000e+00
  7.35500000000000e-01
  2.90500000000000e-01
  1.11100000000000e-01
  3.45100000000000e+01
  7.91500000000000e+00
  2.36800000000000e+00
  8.13200000000000e-01
  2.89000000000000e-01
  1.00700000000000e-01
  1.84800000000000e+00
  6.49000000000000e-01
  2.28000000000000e-01
  1.41900000000000e+00
  4.85000000000000e-01
  1.01100000000000e+00
  3.39800000000000e+04
  5.08900000000000e+03
  1.15700000000000e+03
  3.26600000000000e+02
  1.06100000000000e+02
  3.81100000000000e+01
  1.47500000000000e+01
  6.03500000000000e+00
  3.39800000000000e+04
  5.08900000000000e+03
  3.26600000000000e+02
  1.06100000000000e+02
  3.81100000000000e+01
  1.47500000000000e+01
  6.03500000000000e+00
  2.53000000000000e+00
  7.35500000000000e-01
  2.90500000000000e-01
  1.11100000000000e-01
  3.45100000000000e+01
  7.91500000000000e+00
  2.36800000000000e+00
  8.13200000000000e-01
  2.89000000000000e-01
  1.00700000000000e-01
  1.84800000000000e+00
  6.49000000000000e-01
  2.28000000000000e-01
  1.41900000000000e+00
  4.85000000000000e-01
  1.01100000000000e+00
  8.26400000000000e+01
  1.24100000000000e+01
  2.82400000000000e+00
  7.97700000000000e-01
  2.58100000000000e-01
  8.98900000000000e-02
  2.29200000000000e+00
  8.38000000000000e-01
  2.92000000000000e-01
  2.06200000000000e+00
  6.62000000000000e-01
  1.39700000000000e+00
  8.26400000000000e+01
  1.24100000000000e+01
  2.82400000000000e+00
  7.97700000000000e-01
  2.58100000000000e-01
  8.98900000000000e-02
  2.29200000000000e+00
  8.38000000000000e-01
  2.92000000000000e-01
  2.06200000000000e+00
  6.62000000000000e-01
  1.39700000000000e+00
  8.26400000000000e+01
  1.24100000000000e+01
  2.82400000000000e+00
  7.97700000000000e-01
  2.58100000000000e-01
  8.98900000000000e-02
  2.29200000000000e+00
  8.38000000000000e-01
  2.92000000000000e-01
  2.06200000000000e+00
  6.62000000000000e-01
  1.39700000000000e+00
  8.26400000000000e+01
  1.24100000000000e+01
  2.82400000000000e+00
  7.97700000000000e-01
  2.58100000000000e-01
  8.98900000000000e-02
  2.29200000000000e+00
  8.38000000000000e-01
  2.92000000000000e-01
  2.06200000000000e+00
  6.62000000000000e-01
  1.39700000000000e+00
  8.26400000000000e+01
  1.24100000000000e+01
  2.82400000000000e+00
  7.97700000000000e-01
  2.58100000000000e-01
  8.98900000000000e-02
  2.29200000000000e+00
  8.38000000000000e-01
  2.92000000000000e-01
  2.06200000000000e+00
  6.62000000000000e-01
  1.39700000000000e+00
  8.26400000000000e+01
  1.24100000000000e+01
  2.82400000000000e+00
  7.97700000000000e-01
  2.58100000000000e-01
  8.98900000000000e-02
  2.29200000000000e+00
  8.38000000000000e-01
  2.92000000000000e-01
  2.06200000000000e+00
  6.62000000000000e-01
  1.39700000000000e+00
  8.26400000000000e+01
  1.24100000000000e+01
  2.82400000000000e+00
  7.97700000000000e-01
  2.58100000000000e-01
  8.98900000000000e-02
  2.29200000000000e+00
  8.38000000000000e-01
  2.92000000000000e-01
  2.06200000000000e+00
  6.62000000000000e-01
  1.39700000000000e+00
  8.26400000000000e+01
  1.24100000000000e+01
  2.82400000000000e+00
  7.97700000000000e-01
  2.58100000000000e-01
  8.98900000000000e-02
  2.29200000000000e+00
  8.38000000000000e-01
  2.92000000000000e-01
  2.06200000000000e+00
  6.62000000000000e-01
  1.39700000000000e+00
  8.26400000000000e+01
  1.24100000000000e+01
  2.82400000000000e+00
  7.97700000000000e-01
  2.58100000000000e-01
  8.98900000000000e-02
  2.29200000000000e+00
  8.38000000000000e-01
  2.92000000000000e-01
  2.06200000000000e+00
  6.62000000000000e-01
  1.39700000000000e+00
  8.26400000000000e+01
  1.24100000000000e+01
  2.82400000000000e+00
  7.97700000000000e-01
  2.58100000000000e-01
  8.98900000000000e-02
  2.29200000000000e+00
  8.38000000000000e-01
  2.92000000000000e-01
  2.06200000000000e+00
  6.62000000000000e-01
  1.39700000000000e+00
  8.26400000000000e+01
  1.24100000000000e+01
  2.82400000000000e+00
  7.97700000000000e-01
  2.58100000000000e-01
  8.98900000000000e-02
  2.29200000000000e+00
  8.38000000000000e-01
  2.92000000000000e-01
  2.06200000000000e+00
  6.62000000000000e-01
  1.39700000000000e+00
  8.26400000000000e+01
  1.24100000000000e+01
  2.82400000000000e+00
  7.97700000000000e-01
  2.58100000000000e-01
  8.98900000000000e-02
  2.29200000000000e+00
  8.38000000000000e-01
  2.92000000000000e-01
  2.06200000000000e+00
  6.62000000000000e-01
  1.39700000000000e+00
  8.26400000000000e+01
  1.24100000000000e+01
  2.82400000000000e+00
  7.97700000000000e-01
  2.58100000000000e-01
  8.98900000000000e-02
  2.29200000000000e+00
  8.38000000000000e-01
  2.92000000000000e-01
  2.06200000000000e+00
  6.62000000000000e-01
  1.39700000000000e+00
  8.26400000000000e+01
  1.24100000000000e+01
  2.82400000000000e+00
  7.97700000000000e-01
  2.58100000000000e-01
  8.98900000000000e-02
  2.29200000000000e+00
  8.38000000000000e-01
  2.92000000000000e-01
  2.06200000000000e+00
  6.62000000000000e-01
  1.39700000000000e+00
  8.26400000000000e+01
  1.24100000000000e+01
  2.82400000000000e+00
  7.97700000000000e-01
  2.58100000000000e-01
  8.98900000000000e-02
  2.29200000000000e+00
  8.38000000000000e-01
  2.92000000000000e-01
  2.06200000000000e+00
  6.62000000000000e-01
  1.39700000000000e+00
  8.26400000000000e+01
  1.24100000000000e+01
  2.82400000000000e+00
  7.97700000000000e-01
  2.58100000000000e-01
  8.98900000000000e-02
  2.29200000000000e+00
  8.38000000000000e-01
  2.92000000000000e-01
  2.06200000000000e+00
  6.62000000000000e-01
  1.39700000000000e+00
  8.26400000000000e+01
  1.24100000000000e+01
  2.82400000000000e+00
  7.97700000000000e-01
  2.58100000000000e-01
  8.98900000000000e-02
  2.29200000000000e+00
  8.38000000000000e-01
  2.92000000000000e-01
  2.06200000000000e+00
  6.62000000000000e-01
  1.39700000000000e+00
  8.26400000000000e+01
  1.24100000000000e+01
  2.82400000000000e+00
  7.97700000000000e-01
  2.58100000000000e-01
  8.98900000000000e-02
  2.29200000000000e+00
  8.38000000000000e-01
  2.92000000000000e-01
  2.06200000000000e+00
  6.62000000000000e-01
  1.39700000000000e+00
  8.26400000000000e+01
  1.24100000000000e+01
  2.82400000000000e+00
  7.97700000000000e-01
  2.58100000000000e-01
  8.98900000000000e-02
  2.29200000000000e+00
  8.38000000000000e-01
  2.92000000000000e-01
  2.06200000000000e+00
  6.62000000000000e-01
  1.39700000000000e+00
  8.26400000000000e+01
  1.24100000000000e+01
  2.82400000000000e+00
  7.97700000000000e-01
  2.58100000000000e-01
  8.98900000000000e-02
  2.29200000000000e+00
  8.38000000000000e-01
  2.92000000000000e-01
  2.06200000000000e+00
  6.62000000000000e-01
  1.39700000000000e+00
  8.26400000000000e+01
  1.24100000000000e+01
  2.82400000000000e+00
  7.97700000000000e-01
  2.58100000000000e-01
  8.98900000000000e-02
  2.29200000000000e+00
  8.38000000000000e-01
  2.92000000000000e-01
  2.06200000000000e+00
  6.62000000000000e-01
  1.39700000000000e+00
  8.26400000000000e+01
  1.24100000000000e+01
  2.82400000000000e+00
  7.97700000000000e-01
  2.58100000000000e-01
  8.98900000000000e-02
  2.29200000000000e+00
  8.38000000000000e-01
  2.92000000000000e-01
  2.06200000000000e+00
  6.62000000000000e-01
  1.39700000000000e+00
  8.26400000000000e+01
  1.24100000000000e+01
  2.82400000000000e+00
  7.97700000000000e-01
  2.58100000000000e-01
  8.98900000000000e-02
  2.29200000000000e+00
  8.38000000000000e-01
  2.92000000000000e-01
  2.06200000000000e+00
  6.62000000000000e-01
  1.39700000000000e+00
  8.26400000000000e+01
  1.24100000000000e+01
  2.82400000000000e+00
  7.97700000000000e-01
  2.58100000000000e-01
  8.98900000000000e-02
  2.29200000000000e+00
  8.38000000000000e-01
  2.92000000000000e-01
  2.06200000000000e+00
  6.62000000000000e-01
  1.39700000000000e+00

  2.61881942350953e-01
  4.79433028058005e-01
  8.32895928974353e-01
  1.32601091732622e+00
  1.95962013209554e+00
  2.41119731969907e+00
  2.29979697930995e+00
  9.99885877511742e-01
  4.48681547042796e-03
 -4.28893897902828e-03
 -2.39044915488240e-02
 -4.55269143262531e-02
 -2.34857332869532e-01
 -4.84435349188380e-01
 -1.14925378549439e+00
 -7.60326925325941e-01
  5.66039970976522e-01
  2.82013367697549e-01
  1.37149944574819e-01
  3.77801895038044e+00
  4.02872650287202e+00
  3.51546507413814e+00
  1.10074520008463e+00
  3.02038560194650e-01
  8.08587319060406e-02
  4.82100851162461e+00
  7.72391837520708e-01
  1.23821322548459e-01
  3.23530209875761e+00
  2.88983709509175e-01
  1.14683543468607e+00
  2.61881942350953e-01
  4.79433028058005e-01
  8.32895928974353e-01
  1.32601091732622e+00
  1.95962013209554e+00
  2.41119731969907e+00
  2.29979697930995e+00
  9.99885877511742e-01
  4.48681547042796e-03
 -4.28893897902828e-03
 -2.39044915488240e-02
 -4.55269143262531e-02
 -2.34857332869532e-01
 -4.84435349188380e-01
 -1.14925378549439e+00
 -7.60326925325941e-01
  5.66039970976522e-01
  2.82013367697549e-01
  1.37149944574819e-01
  3.77801895038044e+00
  4.02872650287202e+00
  3.51546507413814e+00
  1.10074520008463e+00
  3.02038560194650e-01
  8.08587319060406e-02
  4.82100851162461e+00
  7.72391837520708e-01
  1.23821322548459e-01
  3.23530209875761e+00
  2.88983709509175e-01
  1.14683543468607e+00
  2.61881942350953e-01
  4.79433028058005e-01
  8.32895928974353e-01
  1.32601091732622e+00
  1.95962013209554e+00
  2.41119731969907e+00
  2.29979697930995e+00
  9.99885877511742e-01
  4.48681547042796e-03
 -4.28893897902828e-03
 -2.39044915488240e-02
 -4.55269143262531e-02
 -2.34857332869532e-01
 -4.84435349188380e-01
 -1.14925378549439e+00
 -7.60326925325941e-01
  5.66039970976522e-01
  2.82013367697549e-01
  1.37149944574819e-01
  3.77801895038044e+00
  4.02872650287202e+00
  3.51546507413814e+00
  1.10074520008463e+00
  3.02038560194650e-01
  8.08587319060406e-02
  4.82100851162461e+00
  7.72391837520708e-01
  1.23821322548459e-01
  3.23530209875761e+00
  2.88983709509175e-01
  1.14683543468607e+00
  2.61881942350953e-01
  4.79433028058005e-01
  8.32895928974353e-01
  1.32601091732622e+00
  1.95962013209554e+00
  2.41119731969907e+00
  2.29979697930995e+00
  9.99885877511742e-01
  4.48681547042796e-03
 -4.28893897902828e-03
 -2.39044915488240e-02
 -4.55269143262531e-02
 -2.34857332869532e-01
 -4.84435349188380e-01
 -1.14925378549439e+00
 -7.60326925325941e-01
  5.66039970976522e-01
  2.82013367697549e-01
  1.37149944574819e-01
  3.77801895038044e+00
  4.02872650287202e+00
  3.51546507413814e+00
  1.10074520008463e+00
  3.02038560194650e-01
  8.08587319060406e-02
  4.82100851162461e+00
  7.72391837520708e-01
  1.23821322548459e-01
  3.23530209875761e+00
  2.88983709509175e-01
  1.14683543468607e+00
  2.61881942350953e-01
  4.79433028058005e-01
  8.32895928974353e-01
  1.32601091732622e+00
  1.95962013209554e+00
  2.41119731969907e+00
  2.29979697930995e+00
  9.99885877511742e-01
  4.48681547042796e-03
 -4.28893897902828e-03
 -2.39044915488240e-02
 -4.55269143262531e-02
 -2.34857332869532e-01
 -4.84435349188380e-01
 -1.14925378549439e+00
 -7.60326925325941e-01
  5.66039970976522e-01
  2.82013367697549e-01
  1.37149944574819e-01
  3.77801895038044e+00
  4.02872650287202e+00
  3.51546507413814e+00
  1.10074520008463e+00
  3.02038560194650e-01
  8.08587319060406e-02
  4.82100851162461e+00
  7.72391837520708e-01
  1.23821322548459e-01
  3.23530209875761e+00
  2.88983709509175e-01
  1.14683543468607e+00
  2.61881942350953e-01
  4.79433028058005e-01
  8.32895928974353e-01
  1.32601091732622e+00
  1.95962013209554e+00
  2.41119731969907e+00
  2.29979697930995e+00
  9.99885877511742e-01
  4.48681547042796e-03
 -4.28893897902828e-03
 -2.39044915488240e-02
 -4.55269143262531e-02
 -2.34857332869532e-01
 -4.84435349188380e-01
 -1.14925378549439e+00
 -7.60326925325941e-01
  5.66039970976522e-01
  2.82013367697549e-01
  1.37149944574819e-01
  3.77801895038044e+00
  4.02872650287202e+00
  3.51546507413814e+00
  1.10074520008463e+00
  3.02038560194650e-01
  8.08587319060406e-02
  4.82100851162461e+00
  7.72391837520708e-01
  1.23821322548459e-01
  3.23530209875761e+00
  2.88983709509175e-01
  1.14683543468607e+00
  2.61881942350953e-01
  4.79433028058005e-01
  8.32895928974353e-01
  1.32601091732622e+00
  1.95962013209554e+00
  2.41119731969907e+00
  2.29979697930995e+00
  9.99885877511742e-01
  4.48681547042796e-03
 -4.28893897902828e-03
 -2.39044915488240e-02
 -4.55269143262531e-02
 -2.34857332869532e-01
 -4.84435349188380e-01
 -1.14925378549439e+00
 -7.60326925325941e-01
  5.66039970976522e-01
  2.82013367697549e-01
  1.37149944574819e-01
  3.77801895038044e+00
  4.02872650287202e+00
  3.51546507413814e+00
  1.10074520008463e+00
  3.02038560194650e-01
  8.08587319060406e-02
  4.82100851162461e+00
  7.72391837520708e-01
  1.23821322548459e-01
  3.23530209875761e+00
  2.88983709509175e-01
  1.14683543468607e+00
  2.61881942350953e-01
  4.79433028058005e-01
  8.32895928974353e-01
  1.32601091732622e+00
  1.95962013209554e+00
  2.41119731969907e+00
  2.29979697930995e+00
  9.99885877511742e-01
  4.48681547042796e-03
 -4.28893897902828e-03
 -2.39044915488240e-02
 -4.55269143262531e-02
 -2.34857332869532e-01
 -4.84435349188380e-01
 -1.14925378549439e+00
 -7.60326925325941e-01
  5.66039970976522e-01
  2.82013367697549e-01
  1.37149944574819e-01
  3.77801895038044e+00
  4.02872650287202e+00
  3.51546507413814e+00
  1.10074520008463e+00
  3.02038560194650e-01
  8.08587319060406e-02
  4.82100851162461e+00
  7.72391837520708e-01
  1.23821322548459e-01
  3.23530209875761e+00
  2.88983709509175e-01
  1.14683543468607e+00
  2.61881942350953e-01
  4.79433028058005e-01
  8.32895928974353e-01
  1.32601091732622e+00
  1.95962013209554e+00
  2.41119731969907e+00
  2.29979697930995e+00
  9.99885877511742e-01
  4.48681547042796e-03
 -4.28893897902828e-03
 -2.39044915488240e-02
 -4.55269143262531e-02
 -2.34857332869532e-01
 -4.84435349188380e-01
 -1.14925378549439e+00
 -7.60326925325941e-01
  5.66039970976522e-01
  2.82013367697549e-01
  1.37149944574819e-01
  3.77801895038044e+00
  4.02872650287202e+00
  3.51546507413814e+00
  1.10074520008463e+00
  3.02038560194650e-01
  8.08587319060406e-02
  4.82100851162461e+00
  7.72391837520708e-01
  1.23821322548459e-01
  3.23530209875761e+00
  2.88983709509175e-01
  1.14683543468607e+00
  2.61881942350953e-01
  4.79433028058005e-01
  8.32895928974353e-01
  1.32601091732622e+00
  1.95962013209554e+00
  2.41119731969907e+00
  2.29979697930995e+00
  9.99885877511742e-01
  4.48681547042796e-03
 -4.28893897902828e-03
 -2.39044915488240e-02
 -4.55269143262531e-02
 -2.34857332869532e-01
 -4.84435349188380e-01
 -1.14925378549439e+00
 -7.60326925325941e-01
  5.66039970976522e-01
  2.82013367697549e-01
  1.37149944574819e-01
  3.77801895038044e+00
  4.02872650287202e+00
  3.51546507413814e+00
  1.10074520008463e+00
  3.02038560194650e-01
  8.08587319060406e-02
  4.82100851162461e+00
  7.72391837520708e-01
  1.23821322548459e-01
  3.23530209875761e+00
  2.88983709509175e-01
  1.14683543468607e+00
  2.61881942350953e-01
  4.79433028058005e-01
  8.32895928974353e-01
  1.32601091732622e+00
  1.95962013209554e+00
  2.41119731969907e+00
  2.29979697930995e+00
  9.99885877511742e-01
  4.48681547042796e-03
 -4.28893897902828e-03
 -2.39044915488240e-02
 -4.55269143262531e-02
 -2.34857332869532e-01
 -4.84435349188380e-01
 -1.14925378549439e+00
 -7.60326925325941e-01
  5.66039970976522e-01
  2.82013367697549e-01
  1.37149944574819e-01
  3.77801895038044e+00
  4.02872650287202e+00
  3.51546507413814e+00
  1.10074520008463e+00
  3.02038560194650e-01
  8.08587319060406e-02
  4.82100851162461e+00
  7.72391837520708e-01
  1.23821322548459e-01
  3.23530209875761e+00
  2.88983709509175e-01
  1.14683543468607e+00
  2.61881942350953e-01
  4.79433028058005e-01
  8.32895928974353e-01
  1.32601091732622e+00
  1.95962013209554e+00
  2.41119731969907e+00
  2.29979697930995e+00
  9.99885877511742e-01
  4.48681547042796e-03
 -4.28893897902828e-03
 -2.39044915488240e-02
 -4.55269143262531e-02
 -2.34857332869532e-01
 -4.84435349188380e-01
 -1.14925378549439e+00
 -7.60326925325941e-01
  5.66039970976522e-01
  2.82013367697549e-01
  1.37149944574819e-01
  3.77801895038044e+00
  4.02872650287202e+00
  3.51546507413814e+00
  1.10074520008463e+00
  3.02038560194650e-01
  8.08587319060406e-02
  4.82100851162461e+00
  7.72391837520708e-01
  1.23821322548459e-01
  3.23530209875761e+00
  2.88983709509175e-01
  1.14683543468607e+00
  2.61881942350953e-01
  4.79433028058005e-01
  8.32895928974353e-01
  1.32601091732622e+00
  1.95962013209554e+00
  2.41119731969907e+00
  2.29979697930995e+00
  9.99885877511742e-01
  4.48681547042796e-03
 -4.28893897902828e-03
 -2.39044915488240e-02
 -4.55269143262531e-02
 -2.34857332869532e-01
 -4.84435349188380e-01
 -1.14925378549439e+00
 -7.60326925325941e-01
  5.66039970976522e-01
  2.82013367697549e-01
  1.37149944574819e-01
  3.77801895038044e+00
  4.02872650287202e+00
  3.51546507413814e+00
  1.10074520008463e+00
  3.02038560194650e-01
  8.08587319060406e-02
  4.82100851162461e+00
  7.72391837520708e-01
  1.23821322548459e-01
  3.23530209875761e+00
  2.88983709509175e-01
  1.14683543468607e+00
  2.61881942350953e-01
  4.79433028058005e-01
  8.32895928974353e-01
  1.32601091732622e+00
  1.95962013209554e+00
  2.41119731969907e+00
  2.29979697930995e+00
  9.99885877511742e-01
  4.48681547042796e-03
 -4.28893897902828e-03
 -2.39044915488240e-02
 -4.55269143262531e-02
 -2.34857332869532e-01
 -4.84435349188380e-01
 -1.14925378549439e+00
 -7.60326925325941e-01
  5.66039970976522e-01
  2.82013367697549e-01
  1.37149944574819e-01
  3.77801895038044e+00
  4.02872650287202e+00
  3.51546507413814e+00
  1.10074520008463e+00
  3.02038560194650e-01
  8.08587319060406e-02
  4.82100851162461e+00
  7.72391837520708e-01
  1.23821322548459e-01
  3.23530209875761e+00
  2.88983709509175e-01
  1.14683543468607e+00
  2.61881942350953e-01
  4.79433028058005e-01
  8.32895928974353e-01
  1.32601091732622e+00
  1.95962013209554e+00
  2.41119731969907e+00
  2.29979697930995e+00
  9.99885877511742e-01
  4.48681547042796e-03
 -4.28893897902828e-03
 -2.39044915488240e-02
 -4.55269143262531e-02
 -2.34857332869532e-01
 -4.84435349188380e-01
 -1.14925378549439e+00
 -7.60326925325941e-01
  5.66039970976522e-01
  2.82013367697549e-01
  1.37149944574819e-01
  3.77801895038044e+00
  4.02872650287202e+00
  3.51546507413814e+00
  1.10074520008463e+00
  3.02038560194650e-01
  8.08587319060406e-02
  4.82100851162461e+00
  7.72391837520708e-01
  1.23821322548459e-01
  3.23530209875761e+00
  2.88983709509175e-01
  1.14683543468607e+00
  2.61881942350953e-01
  4.79433028058005e-01
  8.32895928974353e-01
  1.32601091732622e+00
  1.95962013209554e+00
  2.41119731969907e+00
  2.29979697930995e+00
  9.99885877511742e-01
  4.48681547042796e-03
 -4.28893897902828e-03
 -2.39044915488240e-02
 -4.55269143262531e-02
 -2.34857332869532e-01
 -4.84435349188380e-01
 -1.14925378549439e+00
 -7.60326925325941e-01
  5.66039970976522e-01
  2.82013367697549e-01
  1.37149944574819e-01
  3.77801895038044e+00
  4.02872650287202e+00
  3.51546507413814e+00
  1.10074520008463e+00
  3.02038560194650e-01
  8.08587319060406e-02
  4.82100851162461e+00
  7.72391837520708e-01
  1.23821322548459e-01
  3.23530209875761e+00
  2.88983709509175e-01
  1.14683543468607e+00
  2.61881942350953e-01
  4.79433028058005e-01
  8.32895928974353e-01
  1.32601091732622e+00
  1.95962013209554e+00
  2.41119731969907e+00
  2.29979697930995e+00
  9.99885877511742e-01
  4.48681547042796e-03
 -4.28893897902828e-03
 -2.39044915488240e-02
 -4.55269143262531e-02
 -2.34857332869532e-01
 -4.84435349188380e-01
 -1.14925378549439e+00
 -7.60326925325941e-01
  5.66039970976522e-01
  2.82013367697549e-01
  1.37149944574819e-01
  3.77801895038044e+00
  4.02872650287202e+00
  3.51546507413814e+00
  1.10074520008463e+00
  3.02038560194650e-01
  8.08587319060406e-02
  4.82100851162461e+00
  7.72391837520708e-01
  1.23821322548459e-01
  3.23530209875761e+00
  2.88983709509175e-01
  1.14683543468607e+00
  2.61881942350953e-01
  4.79433028058005e-01
  8.32895928974353e-01
  1.32601091732622e+00
  1.95962013209554e+00
  2.41119731969907e+00
  2.29979697930995e+00
  9.99885877511742e-01
  4.48681547042796e-03
 -4.28893897902828e-03
 -2.39044915488240e-02
 -4.55269143262531e-02
 -2.34857332869532e-01
 -4.84435349188380e-01
 -1.14925378549439e+00
 -7.60326925325941e-01
  5.66039970976522e-01
  2.82013367697549e-01
  1.37149944574819e-01
  3.77801895038044e+00
  4.02872650287202e+00
  3.51546507413814e+00
  1.10074520008463e+00
  3.02038560194650e-01
  8.08587319060406e-02
  4.82100851162461e+00
  7.72391837520708e-01
  1.23821322548459e-01
  3.23530209875761e+00
  2.88983709509175e-01
  1.14683543468607e+00
  2.61881942350953e-01
  4.79433028058005e-01
  8.32895928974353e-01
  1.32601091732622e+00
  1.95962013209554e+00
  2.41119731969907e+00
  2.29979697930995e+00
  9.99885877511742e-01
  4.48681547042796e-03
 -4.28893897902828e-03
 -2.39044915488240e-02
 -4.55269143262531e-02
 -2.34857332869532e-01
 -4.84435349188380e-01
 -1.14925378549439e+00
 -7.60326925325941e-01
  5.66039970976522e-01
  2.82013367697549e-01
  1.37149944574819e-01
  3.77801895038044e+00
  4.02872650287202e+00
  3.51546507413814e+00
  1.10074520008463e+00
  3.02038560194650e-01
  8.08587319060406e-02
  4.82100851162461e+00
  7.72391837520708e-01
  1.23821322548459e-01
  3.23530209875761e+00
  2.88983709509175e-01
  1.14683543468607e+00
  2.61881942350953e-01
  4.79433028058005e-01
  8.32895928974353e-01
  1.32601091732622e+00
  1.95962013209554e+00
  2.41119731969907e+00
  2.29979697930995e+00
  9.99885877511742e-01
  4.48681547042796e-03
 -4.28893897902828e-03
 -2.39044915488240e-02
 -4.55269143262531e-02
 -2.34857332869532e-01
 -4.84435349188380e-01
 -1.14925378549439e+00
 -7.60326925325941e-01
  5.66039970976522e-01
  2.82013367697549e-01
  1.37149944574819e-01
  3.77801895038044e+00
  4.02872650287202e+00
  3.51546507413814e+00
  1.10074520008463e+00
  3.02038560194650e-01
  8.08587319060406e-02
  4.82100851162461e+00
  7.72391837520708e-01
  1.23821322548459e-01
  3.23530209875761e+00
  2.88983709509175e-01
  1.14683543468607e+00
  2.61881942350953e-01
  4.79433028058005e-01
  8.32895928974353e-01
  1.32601091732622e+00
  1.95962013209554e+00
  2.41119731969907e+00
  2.29979697930995e+00
  9.99885877511742e-01
  4.48681547042796e-03
 -4.28893897902828e-03
 -2.39044915488240e-02
 -4.55269143262531e-02
 -2.34857332869532e-01
 -4.84435349188380e-01
 -1.14925378549439e+00
 -7.60326925325941e-01
  5.66039970976522e-01
  2.82013367697549e-01
  1.37149944574819e-01
  3.77801895038044e+00
  4.02872650287202e+00
  3.51546507413814e+00
  1.10074520008463e+00
  3.02038560194650e-01
  8.08587319060406e-02
  4.82100851162461e+00
  7.72391837520708e-01
  1.23821322548459e-01
  3.23530209875761e+00
  2.88983709509175e-01
  1.14683543468607e+00
  2.61881942350953e-01
  4.79433028058005e-01
  8.32895928974353e-01
  1.32601091732622e+00
  1.95962013209554e+00
  2.41119731969907e+00
  2.29979697930995e+00
  9.99885877511742e-01
  4.48681547042796e-03
 -4.28893897902828e-03
 -2.39044915488240e-02
 -4.55269143262531e-02
 -2.34857332869532e-01
 -4.84435349188380e-01
 -1.14925378549439e+00
 -7.60326925325941e-01
  5.66039970976522e-01
  2.82013367697549e-01
  1.37149944574819e-01
  3.77801895038044e+00
  4.02872650287202e+00
  3.51546507413814e+00
  1.10074520008463e+00
  3.02038560194650e-01
  8.08587319060406e-02
  4.82100851162461e+00
  7.72391837520708e-01
  1.23821322548459e-01
  3.23530209875761e+00
  2.88983709509175e-01
  1.14683543468607e+00
  2.61881942350953e-01
  4.79433028058005e-01
  8.32895928974353e-01
  1.32601091732622e+00
  1.95962013209554e+00
  2.41119731969907e+00
  2.29979697930995e+00
  9.99885877511742e-01
  4.48681547042796e-03
 -4.28893897902828e-03
 -2.39044915488240e-02
 -4.55269143262531e-02
 -2.34857332869532e-01
 -4.84435349188380e-01
 -1.14925378549439e+00
 -7.60326925325941e-01
  5.66039970976522e-01
  2.82013367697549e-01
  1.37149944574819e-01
  3.77801895038044e+00
  4.02872650287202e+00
  3.51546507413814e+00
  1.10074520008463e+00
  3.02038560194650e-01
  8.08587319060406e-02
  4.82100851162461e+00
  7.72391837520708e-01
  1.23821322548459e-01
  3.23530209875761e+00
  2.88983709509175e-01
  1.14683543468607e+00
  2.61881942350953e-01
  4.79433028058005e-01
  8.32895928974353e-01
  1.32601091732622e+00
  1.95962013209554e+00
  2.41119731969907e+00
  2.29979697930995e+00
  9.99885877511742e-01
  4.48681547042796e-03
 -4.28893897902828e-03
 -2.39044915488240e-02
 -4.55269143262531e-02
 -2.34857332869532e-01
 -4.84435349188380e-01
 -1.14925378549439e+00
 -7.60326925325941e-01
  5.66039970976522e-01
  2.82013367697549e-01
  1.37149944574819e-01
  3.77801895038044e+00
  4.02872650287202e+00
  3.51546507413814e+00
  1.10074520008463e+00
  3.02038560194650e-01
  8.08587319060406e-02
  4.82100851162461e+00
  7.72391837520708e-01
  1.23821322548459e-01
  3.23530209875761e+00
  2.88983709509175e-01
  1.14683543468607e+00
  4.48332119039283e-01
  8.27209121067360e-01
  1.34253573368241e+00
  6.01575009050791e-01
  2.58078066070564e-01
  1.17002092144806e-01
  4.01983617839880e+00
  1.14286546956549e+00
  3.05962817974644e-01
  5.84002374414188e+00
  7.99670247022506e-01
  3.12353490477187e+00
  4.48332119039283e-01
  8.27209121067360e-01
  1.34253573368241e+00
  6.01575009050791e-01
  2.58078066070564e-01
  1.17002092144806e-01
  4.01983617839880e+00
  1.14286546956549e+00
  3.05962817974644e-01
  5.84002374414188e+00
  7.99670247022506e-01
  3.12353490477187e+00
  4.48332119039283e-01
  8.27209121067360e-01
  1.34253573368241e+00
  6.01575009050791e-01
  2.58078066070564e-01
  1.17002092144806e-01
  4.01983617839880e+00
  1.14286546956549e+00
  3.05962817974644e-01
  5.84002374414188e+00
  7.99670247022506e-01
  3.12353490477187e+00
  4.48332119039283e-01
  8.27209121067360e-01
  1.34253573368241e+00
  6.01575009050791e-01
  2.58078066070564e-01
  1.17002092144806e-01
  4.01983617839880e+00
  1.14286546956549e+00
  3.05962817974644e-01
  5.84002374414188e+00
  7.99670247022506e-01
  3.12353490477187e+00
  4.48332119039283e-01
  8.27209121067360e-01
  1.34253573368241e+00
  6.01575009050791e-01
  2.58078066070564e-01
  1.17002092144806e-01
  4.01983617839880e+00
  1.14286546956549e+00
  3.05962817974644e-01
  5.84002374414188e+00
  7.99670247022506e-01
  3.12353490477187e+00
  4.48332119039283e-01
  8.27209121067360e-01
  1.34253573368241e+00
  6.01575009050791e-01
  2.58078066070564e-01
  1.17002092144806e-01
  4.01983617839880e+00
  1.14286546956549e+00
  3.05962817974644e-01
  5.84002374414188e+00
  7.99670247022506e-01
  3.12353490477187e+00
  4.48332119039283e-01
  8.27209121067360e-01
  1.34253573368241e+00
  6.01575009050791e-01
  2.58078066070564e-01
  1.17002092144806e-01
  4.01983617839880e+00
  1.14286546956549e+00
  3.05962817974644e-01
  5.84002374414188e+00
  7.99670247022506e-01
  3.12353490477187e+00
  4.48332119039283e-01
  8.27209121067360e-01
  1.34253573368241e+00
  6.01575009050791e-01
  2.58078066070564e-01
  1.17002092144806e-01
  4.01983617839880e+00
  1.14286546956549e+00
  3.05962817974644e-01
  5.84002374414188e+00
  7.99670247022506e-01
  3.12353490477187e+00
  4.48332119039283e-01
  8.27209121067360e-01
  1.34253573368241e+00
  6.01575009050791e-01
  2.58078066070564e-01
  1.17002092144806e-01
  4.01983617839880e+00
  1.14286546956549e+00
  3.05962817974644e-01
  5.84002374414188e+00
  7.99670247022506e-01
  3.12353490477187e+00
  4.48332119039283e-01
  8.27209121067360e-01
  1.34253573368241e+00
  6.01575009050791e-01
  2.58078066070564e-01
  1.17002092144806e-01
  4.01983617839880e+00
  1.14286546956549e+00
  3.05962817974644e-01
  5.84002374414188e+00
  7.99670247022506e-01
  3.12353490477187e+00
  4.48332119039283e-01
  8.27209121067360e-01
  1.34253573368241e+00
  6.01575009050791e-01
  2.58078066070564e-01
  1.17002092144806e-01
  4.01983617839880e+00
  1.14286546956549e+00
  3.05962817974644e-01
  5.84002374414188e+00
  7.99670247022506e-01
  3.12353490477187e+00
  4.48332119039283e-01
  8.27209121067360e-01
  1.34253573368241e+00
  6.01575009050791e-01
  2.58078066070564e-01
  1.17002092144806e-01
  4.01983617839880e+00
  1.14286546956549e+00
  3.05962817974644e-01
  5.84002374414188e+00
  7.99670247022506e-01
  3.12353490477187e+00
  4.48332119039283e-01
  8.27209121067360e-01
  1.34253573368241e+00
  6.01575009050791e-01
  2.58078066070564e-01
  1.17002092144806e-01
  4.01983617839880e+00
  1.14286546956549e+00
  3.05962817974644e-01
  5.84002374414188e+00
  7.99670247022506e-01
  3.12353490477187e+00
  4.48332119039283e-01
  8.27209121067360e-01
  1.34253573368241e+00
  6.01575009050791e-01
  2.58078066070564e-01
  1.17002092144806e-01
  4.01983617839880e+00
  1.14286546956549e+00
  3.05962817974644e-01
  5.84002374414188e+00
  7.99670247022506e-01
  3.12353490477187e+00
  4.48332119039283e-01
  8.27209121067360e-01
  1.34253573368241e+00
  6.01575009050791e-01
  2.58078066070564e-01
  1.17002092144806e-01
  4.01983617839880e+00
  1.14286546956549e+00
  3.05962817974644e-01
  5.84002374414188e+00
  7.99670247022506e-01
  3.12353490477187e+00
  4.48332119039283e-01
  8.27209121067360e-01
  1.34253573368241e+00
  6.01575009050791e-01
  2.58078066070564e-01
  1.17002092144806e-01
  4.01983617839880e+00
  1.14286546956549e+00
  3.05962817974644e-01
  5.84002374414188e+00
  7.99670247022506e-01
  3.12353490477187e+00
  4.48332119039283e-01
  8.27209121067360e-01
  1.34253573368241e+00
  6.01575009050791e-01
  2.58078066070564e-01
  1.17002092144806e-01
  4.01983617839880e+00
  1.14286546956549e+00
  3.05962817974644e-01
  5.84002374414188e+00
  7.99670247022506e-01
  3.12353490477187e+00
  4.48332119039283e-01
  8.27209121067360e-01
  1.34253573368241e+00
  6.01575009050791e-01
  2.58078066070564e-01
  1.17002092144806e-01
  4.01983617839880e+00
  1.14286546956549e+00
  3.05962817974644e-01
  5.84002374414188e+00
  7.99670247022506e-01
  3.12353490477187e+00
  4.48332119039283e-01
  8.27209121067360e-01
  1.34253573368241e+00
  6.01575009050791e-01
  2.58078066070564e-01
  1.17002092144806e-01
  4.01983617839880e+00
  1.14286546956549e+00
  3.05962817974644e-01
  5.84002374414188e+00
  7.99670247022506e-01
  3.12353490477187e+00
  4.48332119039283e-01
  8.27209121067360e-01
  1.34253573368241e+00
  6.01575009050791e-01
  2.58078066070564e-01
  1.17002092144806e-01
  4.01983617839880e+00
  1.14286546956549e+00
  3.05962817974644e-01
  5.84002374414188e+00
  7.99670247022506e-01
  3.12353490477187e+00
  4.48332119039283e-01
  8.27209121067360e-01
  1.34253573368241e+00
  6.01575009050791e-01
  2.58078066070564e-01
  1.17002092144806e-01
  4.01983617839880e+00
  1.14286546956549e+00
  3.05962817974644e-01
  5.84002374414188e+00
  7.99670247022506e-01
  3.12353490477187e+00
  4.48332119039283e-01
  8.27209121067360e-01
  1.34253573368241e+00
  6.01575009050791e-01
  2.58078066070564e-01
  1.17002092144806e-01
  4.01983617839880e+00
  1.14286546956549e+00
  3.05962817974644e-01
  5.84002374414188e+00
  7.99670247022506e-01
  3.12353490477187e+00
  4.48332119039283e-01
  8.27209121067360e-01
  1.34253573368241e+00
  6.01575009050791e-01
  2.58078066070564e-01
  1.17002092144806e-01
  4.01983617839880e+00
  1.14286546956549e+00
  3.05962817974644e-01
  5.84002374414188e+00
  7.99670247022506e-01
  3.12353490477187e+00
  4.48332119039283e-01
  8.27209121067360e-01
  1.34253573368241e+00
  6.01575009050791e-01
  2.58078066070564e-01
  1.17002092144806e-01
  4.01983617839880e+00
  1.14286546956549e+00
  3.05962817974644e-01
  5.84002374414188e+00
  7.99670247022506e-01
  3.12353490477187e+00

0 0 0 0 1 1 1
0 0 
8 0

0 1 1 8 1 1 1
8 0 
8 0

0 2 2 16 1 1 1
16 0 
1 0

0 3 3 17 1 1 1
17 0 
1 0

0 4 4 18 1 1 1
18 0 
1 0

0 5 5 19 1 3 3
19 1 
3 0

0 8 8 22 1 3 3
22 1 
1 0

0 11 11 23 1 3 3
23 1 
1 0

0 14 14 24 1 3 3
24 1 
1 0

0 17 17 25 1 5 6
25 2 
1 1

0 22 22 26 1 5 6
26 2 
1 1

0 27 27 27 1 5 6
27 2 
1 1

0 32 32 28 1 7 10
28 3 
1 1

0 39 39 29 1 7 10
29 3 
1 1

0 46 46 30 1 9 15
30 4 
1 1

1 55 55 31 1 1 1
31 0 
8 0

1 56 56 39 1 1 1
39 0 
8 0

1 57 57 47 1 1 1
47 0 
1 0

1 58 58 48 1 1 1
48 0 
1 0

1 59 59 49 1 1 1
49 0 
1 0

1 60 60 50 1 3 3
50 1 
3 0

1 63 63 53 1 3 3
53 1 
1 0

1 66 66 54 1 3 3
54 1 
1 0

1 69 69 55 1 3 3
55 1 
1 0

1 72 72 56 1 5 6
56 2 
1 1

1 77 77 57 1 5 6
57 2 
1 1

1 82 82 58 1 5 6
58 2 
1 1

1 87 87 59 1 7 10
59 3 
1 1

1 94 94 60 1 7 10
60 3 
1 1

1 101 101 61 1 9 15
61 4 
1 1

2 110 110 62 1 1 1
62 0 
8 0

2 111 111 70 1 1 1
70 0 
8 0

2 112 112 78 1 1 1
78 0 
1 0

2 113 113 79 1 1 1
79 0 
1 0

2 114 114 80 1 1 1
80 0 
1 0

2 115 115 81 1 3 3
81 1 
3 0

2 118 118 84 1 3 3
84 1 
1 0

2 121 121 85 1 3 3
85 1 
1 0

2 124 124 86 1 3 3
86 1 
1 0

2 127 127 87 1 5 6
87 2 
1 1

2 132 132 88 1 5 6
88 2 
1 1

2 137 137 89 1 5 6
89 2 
1 1

2 142 142 90 1 7 10
90 3 
1 1

2 149 149 91 1 7 10
91 3 
1 1

2 156 156 92 1 9 15
92 4 
1 1

3 165 165 93 1 1 1
93 0 
8 0

3 166 166 101 1 1 1
101 0 
8 0

3 167 167 109 1 1 1
109 0 
1 0

3 168 168 110 1 1 1
110 0 
1 0

3 169 169 111 1 1 1
111 0 
1 0

3 170 170 112 1 3 3
112 1 
3 0

3 173 173 115 1 3 3
115 1 
1 0

3 176 176 116 1 3 3
116 1 
1 0

3 179 179 117 1 3 3
117 1 
1 0

3 182 182 118 1 5 6
118 2 
1 1

3 187 187 119 1 5 6
119 2 
1 1

3 192 192 120 1 5 6
120 2 
1 1

3 197 197 121 1 7 10
121 3 
1 1

3 204 204 122 1 7 10
122 3 
1 1

3 211 211 123 1 9 15
123 4 
1 1

4 220 220 124 1 1 1
124 0 
8 0

4 221 221 132 1 1 1
132 0 
8 0

4 222 222 140 1 1 1
140 0 
1 0

4 223 223 141 1 1 1
141 0 
1 0

4 224 224 142 1 1 1
142 0 
1 0

4 225 225 143 1 3 3
143 1 
3 0

4 228 228 146 1 3 3
146 1 
1 0

4 231 231 147 1 3 3
147 1 
1 0

4 234 234 148 1 3 3
148 1 
1 0

4 237 237 149 1 5 6
149 2 
1 1

4 242 242 150 1 5 6
150 2 
1 1

4 247 247 151 1 5 6
151 2 
1 1

4 252 252 152 1 7 10
152 3 
1 1

4 259 259 153 1 7 10
153 3 
1 1

4 266 266 154 1 9 15
154 4 
1 1

5 275 275 155 1 1 1
155 0 
8 0

5 276 276 163 1 1 1
163 0 
8 0

5 277 277 171 1 1 1
171 0 
1 0

5 278 278 172 1 1 1
172 0 
1 0

5 279 279 173 1 1 1
173 0 
1 0

5 280 280 174 1 3 3
174 1 
3 0

5 283 283 177 1 3 3
177 1 
1 0

5 286 286 178 1 3 3
178 1 
1 0

5 289 289 179 1 3 3
179 1 
1 0

5 292 292 180 1 5 6
180 2 
1 1

5 297 297 181 1 5 6
181 2 
1 1

5 302 302 182 1 5 6
182 2 
1 1

5 307 307 183 1 7 10
183 3 
1 1

5 314 314 184 1 7 10
184 3 
1 1

5 321 321 185 1 9 15
185 4 
1 1

6 330 330 186 1 1 1
186 0 
8 0

6 331 331 194 1 1 1
194 0 
8 0

6 332 332 202 1 1 1
202 0 
1 0

6 333 333 203 1 1 1
203 0 
1 0

6 334 334 204 1 1 1
204 0 
1 0

6 335 335 205 1 3 3
205 1 
3 0

6 338 338 208 1 3 3
208 1 
1 0

6 341 341 209 1 3 3
209 1 
1 0

6 344 344 210 1 3 3
210 1 
1 0

6 347 347 211 1 5 6
211 2 
1 1

6 352 352 212 1 5 6
212 2 
1 1

6 357 357 213 1 5 6
213 2 
1 1

6 362 362 214 1 7 10
214 3 
1 1

6 369 369 215 1 7 10
215 3 
1 1

6 376 376 216 1 9 15
216 4 
1 1

7 385 385 217 1 1 1
217 0 
8 0

7 386 386 225 1 1 1
225 0 
8 0

7 387 387 233 1 1 1
233 0 
1 0

7 388 388 234 1 1 1
234 0 
1 0

7 389 389 235 1 1 1
235 0 
1 0

7 390 390 236 1 3 3
236 1 
3 0

7 393 393 239 1 3 3
239 1 
1 0

7 396 396 240 1 3 3
240 1 
1 0

7 399 399 241 1 3 3
241 1 
1 0

7 402 402 242 1 5 6
242 2 
1 1

7 407 407 243 1 5 6
243 2 
1 1

7 412 412 244 1 5 6
244 2 
1 1

7 417 417 245 1 7 10
245 3 
1 1

7 424 424 246 1 7 10
246 3 
1 1

7 431 431 247 1 9 15
247 4 
1 1

8 440 440 248 1 1 1
248 0 
8 0

8 441 441 256 1 1 1
256 0 
8 0

8 442 442 264 1 1 1
264 0 
1 0

8 443 443 265 1 1 1
265 0 
1 0

8 444 444 266 1 1 1
266 0 
1 0

8 445 445 267 1 3 3
267 1 
3 0

8 448 448 270 1 3 3
270 1 
1 0

8 451 451 271 1 3 3
271 1 
1 0

8 454 454 272 1 3 3
272 1 
1 0

8 457 457 273 1 5 6
273 2 
1 1

8 462 462 274 1 5 6
274 2 
1 1

8 467 467 275 1 5 6
275 2 
1 1

8 472 472 276 1 7 10
276 3 
1 1

8 479 479 277 1 7 10
277 3 
1 1

8 486 486 278 1 9 15
278 4 
1 1

9 495 495 279 1 1 1
279 0 
8 0

9 496 496 287 1 1 1
287 0 
8 0

9 497 497 295 1 1 1
295 0 
1 0

9 498 498 296 1 1 1
296 0 
1 0

9 499 499 297 1 1 1
297 0 
1 0

9 500 500 298 1 3 3
298 1 
3 0

9 503 503 301 1 3 3
301 1 
1 0

9 506 506 302 1 3 3
302 1 
1 0

9 509 509 303 1 3 3
303 1 
1 0

9 512 512 304 1 5 6
304 2 
1 1

9 517 517 305 1 5 6
305 2 
1 1

9 522 522 306 1 5 6
306 2 
1 1

9 527 527 307 1 7 10
307 3 
1 1

9 534 534 308 1 7 10
308 3 
1 1

9 541 541 309 1 9 15
309 4 
1 1

10 550 550 310 1 1 1
310 0 
8 0

10 551 551 318 1 1 1
318 0 
8 0

10 552 552 326 1 1 1
326 0 
1 0

10 553 553 327 1 1 1
327 0 
1 0

10 554 554 328 1 1 1
328 0 
1 0

10 555 555 329 1 3 3
329 1 
3 0

10 558 558 332 1 3 3
332 1 
1 0

10 561 561 333 1 3 3
333 1 
1 0

10 564 564 334 1 3 3
334 1 
1 0

10 567 567 335 1 5 6
335 2 
1 1

10 572 572 336 1 5 6
336 2 
1 1

10 577 577 337 1 5 6
337 2 
1 1

10 582 582 338 1 7 10
338 3 
1 1

10 589 589 339 1 7 10
339 3 
1 1

10 596 596 340 1 9 15
340 4 
1 1

11 605 605 341 1 1 1
341 0 
8 0

11 606 606 349 1 1 1
349 0 
8 0

11 607 607 357 1 1 1
357 0 
1 0

11 608 608 358 1 1 1
358 0 
1 0

11 609 609 359 1 1 1
359 0 
1 0

11 610 610 360 1 3 3
360 1 
3 0

11 613 613 363 1 3 3
363 1 
1 0

11 616 616 364 1 3 3
364 1 
1 0

11 619 619 365 1 3 3
365 1 
1 0

11 622 622 366 1 5 6
366 2 
1 1

11 627 627 367 1 5 6
367 2 
1 1

11 632 632 368 1 5 6
368 2 
1 1

11 637 637 369 1 7 10
369 3 
1 1

11 644 644 370 1 7 10
370 3 
1 1

11 651 651 371 1 9 15
371 4 
1 1

12 660 660 372 1 1 1
372 0 
8 0

12 661 661 380 1 1 1
380 0 
8 0

12 662 662 388 1 1 1
388 0 
1 0

12 663 663 389 1 1 1
389 0 
1 0

12 664 664 390 1 1 1
390 0 
1 0

12 665 665 391 1 3 3
391 1 
3 0

12 668 668 394 1 3 3
394 1 
1 0

12 671 671 395 1 3 3
395 1 
1 0

12 674 674 396 1 3 3
396 1 
1 0

12 677 677 397 1 5 6
397 2 
1 1

12 682 682 398 1 5 6
398 2 
1 1

12 687 687 399 1 5 6
399 2 
1 1

12 692 692 400 1 7 10
400 3 
1 1

12 699 699 401 1 7 10
401 3 
1 1

12 706 706 402 1 9 15
402 4 
1 1

13 715 715 403 1 1 1
403 0 
8 0

13 716 716 411 1 1 1
411 0 
8 0

13 717 717 419 1 1 1
419 0 
1 0

13 718 718 420 1 1 1
420 0 
1 0

13 719 719 421 1 1 1
421 0 
1 0

13 720 720 422 1 3 3
422 1 
3 0

13 723 723 425 1 3 3
425 1 
1 0

13 726 726 426 1 3 3
426 1 
1 0

13 729 729 427 1 3 3
427 1 
1 0

13 732 732 428 1 5 6
428 2 
1 1

13 737 737 429 1 5 6
429 2 
1 1

13 742 742 430 1 5 6
430 2 
1 1

13 747 747 431 1 7 10
431 3 
1 1

13 754 754 432 1 7 10
432 3 
1 1

13 761 761 433 1 9 15
433 4 
1 1

14 770 770 434 1 1 1
434 0 
8 0

14 771 771 442 1 1 1
442 0 
8 0

14 772 772 450 1 1 1
450 0 
1 0

14 773 773 451 1 1 1
451 0 
1 0

14 774 774 452 1 1 1
452 0 
1 0

14 775 775 453 1 3 3
453 1 
3 0

14 778 778 456 1 3 3
456 1 
1 0

14 781 781 457 1 3 3
457 1 
1 0

14 784 784 458 1 3 3
458 1 
1 0

14 787 787 459 1 5 6
459 2 
1 1

14 792 792 460 1 5 6
460 2 
1 1

14 797 797 461 1 5 6
461 2 
1 1

14 802 802 462 1 7 10
462 3 
1 1

14 809 809 463 1 7 10
463 3 
1 1

14 816 816 464 1 9 15
464 4 
1 1

15 825 825 465 1 1 1
465 0 
8 0

15 826 826 473 1 1 1
473 0 
8 0

15 827 827 481 1 1 1
481 0 
1 0

15 828 828 482 1 1 1
482 0 
1 0

15 829 829 483 1 1 1
483 0 
1 0

15 830 830 484 1 3 3
484 1 
3 0

15 833 833 487 1 3 3
487 1 
1 0

15 836 836 488 1 3 3
488 1 
1 0

15 839 839 489 1 3 3
489 1 
1 0

15 842 842 490 1 5 6
490 2 
1 1

15 847 847 491 1 5 6
491 2 
1 1

15 852 852 492 1 5 6
492 2 
1 1

15 857 857 493 1 7 10
493 3 
1 1

15 864 864 494 1 7 10
494 3 
1 1

15 871 871 495 1 9 15
495 4 
1 1

16 880 880 496 1 1 1
496 0 
8 0

16 881 881 504 1 1 1
504 0 
8 0

16 882 882 512 1 1 1
512 0 
1 0

16 883 883 513 1 1 1
513 0 
1 0

16 884 884 514 1 1 1
514 0 
1 0

16 885 885 515 1 3 3
515 1 
3 0

16 888 888 518 1 3 3
518 1 
1 0

16 891 891 519 1 3 3
519 1 
1 0

16 894 894 520 1 3 3
520 1 
1 0

16 897 897 521 1 5 6
521 2 
1 1

16 902 902 522 1 5 6
522 2 
1 1

16 907 907 523 1 5 6
523 2 
1 1

16 912 912 524 1 7 10
524 3 
1 1

16 919 919 525 1 7 10
525 3 
1 1

16 926 926 526 1 9 15
526 4 
1 1

17 935 935 527 1 1 1
527 0 
8 0

17 936 936 535 1 1 1
535 0 
8 0

17 937 937 543 1 1 1
543 0 
1 0

17 938 938 544 1 1 1
544 0 
1 0

17 939 939 545 1 1 1
545 0 
1 0

17 940 940 546 1 3 3
546 1 
3 0

17 943 943 549 1 3 3
549 1 
1 0

17 946 946 550 1 3 3
550 1 
1 0

17 949 949 551 1 3 3
551 1 
1 0

17 952 952 552 1 5 6
552 2 
1 1

17 957 957 553 1 5 6
553 2 
1 1

17 962 962 554 1 5 6
554 2 
1 1

17 967 967 555 1 7 10
555 3 
1 1

17 974 974 556 1 7 10
556 3 
1 1

17 981 981 557 1 9 15
557 4 
1 1

18 990 990 558 1 1 1
558 0 
8 0

18 991 991 566 1 1 1
566 0 
8 0

18 992 992 574 1 1 1
574 0 
1 0

18 993 993 575 1 1 1
575 0 
1 0

18 994 994 576 1 1 1
576 0 
1 0

18 995 995 577 1 3 3
577 1 
3 0

18 998 998 580 1 3 3
580 1 
1 0

18 1001 1001 581 1 3 3
581 1 
1 0

18 1004 1004 582 1 3 3
582 1 
1 0

18 1007 1007 583 1 5 6
583 2 
1 1

18 1012 1012 584 1 5 6
584 2 
1 1

18 1017 1017 585 1 5 6
585 2 
1 1

18 1022 1022 586 1 7 10
586 3 
1 1

18 1029 1029 587 1 7 10
587 3 
1 1

18 1036 1036 588 1 9 15
588 4 
1 1

19 1045 1045 589 1 1 1
589 0 
8 0

19 1046 1046 597 1 1 1
597 0 
8 0

19 1047 1047 605 1 1 1
605 0 
1 0

19 1048 1048 606 1 1 1
606 0 
1 0

19 1049 1049 607 1 1 1
607 0 
1 0

19 1050 1050 608 1 3 3
608 1 
3 0

19 1053 1053 611 1 3 3
611 1 
1 0

19 1056 1056 612 1 3 3
612 1 
1 0

19 1059 1059 613 1 3 3
613 1 
1 0

19 1062 1062 614 1 5 6
614 2 
1 1

19 1067 1067 615 1 5 6
615 2 
1 1

19 1072 1072 616 1 5 6
616 2 
1 1

19 1077 1077 617 1 7 10
617 3 
1 1

19 1084 1084 618 1 7 10
618 3 
1 1

19 1091 1091 619 1 9 15
619 4 
1 1

20 1100 1100 620 1 1 1
620 0 
8 0

20 1101 1101 628 1 1 1
628 0 
8 0

20 1102 1102 636 1 1 1
636 0 
1 0

20 1103 1103 637 1 1 1
637 0 
1 0

20 1104 1104 638 1 1 1
638 0 
1 0

20 1105 1105 639 1 3 3
639 1 
3 0

20 1108 1108 642 1 3 3
642 1 
1 0

20 1111 1111 643 1 3 3
643 1 
1 0

20 1114 1114 644 1 3 3
644 1 
1 0

20 1117 1117 645 1 5 6
645 2 
1 1

20 1122 1122 646 1 5 6
646 2 
1 1

20 1127 1127 647 1 5 6
647 2 
1 1

20 1132 1132 648 1 7 10
648 3 
1 1

20 1139 1139 649 1 7 10
649 3 
1 1

20 1146 1146 650 1 9 15
650 4 
1 1

21 1155 1155 651 1 1 1
651 0 
8 0

21 1156 1156 659 1 1 1
659 0 
8 0

21 1157 1157 667 1 1 1
667 0 
1 0

21 1158 1158 668 1 1 1
668 0 
1 0

21 1159 1159 669 1 1 1
669 0 
1 0

21 1160 1160 670 1 3 3
670 1 
3 0

21 1163 1163 673 1 3 3
673 1 
1 0

21 1166 1166 674 1 3 3
674 1 
1 0

21 1169 1169 675 1 3 3
675 1 
1 0

21 1172 1172 676 1 5 6
676 2 
1 1

21 1177 1177 677 1 5 6
677 2 
1 1

21 1182 1182 678 1 5 6
678 2 
1 1

21 1187 1187 679 1 7 10
679 3 
1 1

21 1194 1194 680 1 7 10
680 3 
1 1

21 1201 1201 681 1 9 15
681 4 
1 1

22 1210 1210 682 1 1 1
682 0 
8 0

22 1211 1211 690 1 1 1
690 0 
8 0

22 1212 1212 698 1 1 1
698 0 
1 0

22 1213 1213 699 1 1 1
699 0 
1 0

22 1214 1214 700 1 1 1
700 0 
1 0

22 1215 1215 701 1 3 3
701 1 
3 0

22 1218 1218 704 1 3 3
704 1 
1 0

22 1221 1221 705 1 3 3
705 1 
1 0

22 1224 1224 706 1 3 3
706 1 
1 0

22 1227 1227 707 1 5 6
707 2 
1 1

22 1232 1232 708 1 5 6
708 2 
1 1

22 1237 1237 709 1 5 6
709 2 
1 1

22 1242 1242 710 1 7 10
710 3 
1 1

22 1249 1249 711 1 7 10
711 3 
1 1

22 1256 1256 712 1 9 15
712 4 
1 1

23 1265 1265 713 1 1 1
713 0 
8 0

23 1266 1266 721 1 1 1
721 0 
8 0

23 1267 1267 729 1 1 1
729 0 
1 0

23 1268 1268 730 1 1 1
730 0 
1 0

23 1269 1269 731 1 1 1
731 0 
1 0

23 1270 1270 732 1 3 3
732 1 
3 0

23 1273 1273 735 1 3 3
735 1 
1 0

23 1276 1276 736 1 3 3
736 1 
1 0

23 1279 1279 737 1 3 3
737 1 
1 0

23 1282 1282 738 1 5 6
738 2 
1 1

23 1287 1287 739 1 5 6
739 2 
1 1

23 1292 1292 740 1 5 6
740 2 
1 1

23 1297 1297 741 1 7 10
741 3 
1 1

23 1304 1304 742 1 7 10
742 3 
1 1

23 1311 1311 743 1 9 15
743 4 
1 1

24 1320 1320 744 1 1 1
744 0 
3 0

24 1321 1321 747 1 1 1
747 0 
1 0

24 1322 1322 748 1 1 1
748 0 
1 0

24 1323 1323 749 1 1 1
749 0 
1 0

24 1324 1324 750 1 3 3
750 1 
1 0

24 1327 1327 751 1 3 3
751 1 
1 0

24 1330 1330 752 1 3 3
752 1 
1 0

24 1333 1333 753 1 5 6
753 2 
1 1

24 1338 1338 754 1 5 6
754 2 
1 1

24 1343 1343 755 1 7 10
755 3 
1 1

25 1350 1350 756 1 1 1
756 0 
3 0

25 1351 1351 759 1 1 1
759 0 
1 0

25 1352 1352 760 1 1 1
760 0 
1 0

25 1353 1353 761 1 1 1
761 0 
1 0

25 1354 1354 762 1 3 3
762 1 
1 0

25 1357 1357 763 1 3 3
763 1 
1 0

25 1360 1360 764 1 3 3
764 1 
1 0

25 1363 1363 765 1 5 6
765 2 
1 1

25 1368 1368 766 1 5 6
766 2 
1 1

25 1373 1373 767 1 7 10
767 3 
1 1

26 1380 1380 768 1 1 1
768 0 
3 0

26 1381 1381 771 1 1 1
771 0 
1 0

26 1382 1382 772 1 1 1
772 0 
1 0

26 1383 1383 773 1 1 1
773 0 
1 0

26 1384 1384 774 1 3 3
774 1 
1 0

26 1387 1387 775 1 3 3
775 1 
1 0

26 1390 1390 776 1 3 3
776 1 
1 0

26 1393 1393 777 1 5 6
777 2 
1 1

26 1398 1398 778 1 5 6
778 2 
1 1

26 1403 1403 779 1 7 10
779 3 
1 1

27 1410 1410 780 1 1 1
780 0 
3 0

27 1411 1411 783 1 1 1
783 0 
1 0

27 1412 1412 784 1 1 1
784 0 
1 0

27 1413 1413 785 1 1 1
785 0 
1 0

27 1414 1414 786 1 3 3
786 1 
1 0

27 1417 1417 787 1 3 3
787 1 
1 0

27 1420 1420 788 1 3 3
788 1 
1 0

27 1423 1423 789 1 5 6
789 2 
1 1

27 1428 1428 790 1 5 6
790 2 
1 1

27 1433 1433 791 1 7 10
791 3 
1 1

28 1440 1440 792 1 1 1
792 0 
3 0

28 1441 1441 795 1 1 1
795 0 
1 0

28 1442 1442 796 1 1 1
796 0 
1 0

28 1443 1443 797 1 1 1
797 0 
1 0

28 1444 1444 798 1 3 3
798 1 
1 0

28 1447 1447 799 1 3 3
799 1 
1 0

28 1450 1450 800 1 3 3
800 1 
1 0

28 1453 1453 801 1 5 6
801 2 
1 1

28 1458 1458 802 1 5 6
802 2 
1 1

28 1463 1463 803 1 7 10
803 3 
1 1

29 1470 1470 804 1 1 1
804 0 
3 0

29 1471 1471 807 1 1 1
807 0 
1 0

29 1472 1472 808 1 1 1
808 0 
1 0

29 1473 1473 809 1 1 1
809 0 
1 0

29 1474 1474 810 1 3 3
810 1 
1 0

29 1477 1477 811 1 3 3
811 1 
1 0

29 1480 1480 812 1 3 3
812 1 
1 0

29 1483 1483 813 1 5 6
813 2 
1 1

29 1488 1488 814 1 5 6
814 2 
1 1

29 1493 1493 815 1 7 10
815 3 
1 1

30 1500 1500 816 1 1 1
816 0 
3 0

30 1501 1501 819 1 1 1
819 0 
1 0

30 1502 1502 820 1 1 1
820 0 
1 0

30 1503 1503 821 1 1 1
821 0 
1 0

30 1504 1504 822 1 3 3
822 1 
1 0

30 1507 1507 823 1 3 3
823 1 
1 0

30 1510 1510 824 1 3 3
824 1 
1 0

30 1513 1513 825 1 5 6
825 2 
1 1

30 1518 1518 826 1 5 6
826 2 
1 1

30 1523 1523 827 1 7 10
827 3 
1 1

31 1530 1530 828 1 1 1
828 0 
3 0

31 1531 1531 831 1 1 1
831 0 
1 0

31 1532 1532 832 1 1 1
832 0 
1 0

31 1533 1533 833 1 1 1
833 0 
1 0

31 1534 1534 834 1 3 3
834 1 
1 0

31 1537 1537 835 1 3 3
835 1 
1 0

31 1540 1540 836 1 3 3
836 1 
1 0

31 1543 1543 837 1 5 6
837 2 
1 1

31 1548 1548 838 1 5 6
838 2 
1 1

31 1553 1553 839 1 7 10
839 3 
1 1

32 1560 1560 840 1 1 1
840 0 
3 0

32 1561 1561 843 1 1 1
843 0 
1 0

32 1562 1562 844 1 1 1
844 0 
1 0

32 1563 1563 845 1 1 1
845 0 
1 0

32 1564 1564 846 1 3 3
846 1 
1 0

32 1567 1567 847 1 3 3
847 1 
1 0

32 1570 1570 848 1 3 3
848 1 
1 0

32 1573 1573 849 1 5 6
849 2 
1 1

32 1578 1578 850 1 5 6
850 2 
1 1

32 1583 1583 851 1 7 10
851 3 
1 1

33 1590 1590 852 1 1 1
852 0 
3 0

33 1591 1591 855 1 1 1
855 0 
1 0

33 1592 1592 856 1 1 1
856 0 
1 0

33 1593 1593 857 1 1 1
857 0 
1 0

33 1594 1594 858 1 3 3
858 1 
1 0

33 1597 1597 859 1 3 3
859 1 
1 0

33 1600 1600 860 1 3 3
860 1 
1 0

33 1603 1603 861 1 5 6
861 2 
1 1

33 1608 1608 862 1 5 6
862 2 
1 1

33 1613 1613 863 1 7 10
863 3 
1 1

34 1620 1620 864 1 1 1
864 0 
3 0

34 1621 1621 867 1 1 1
867 0 
1 0

34 1622 1622 868 1 1 1
868 0 
1 0

34 1623 1623 869 1 1 1
869 0 
1 0

34 1624 1624 870 1 3 3
870 1 
1 0

34 1627 1627 871 1 3 3
871 1 
1 0

34 1630 1630 872 1 3 3
872 1 
1 0

34 1633 1633 873 1 5 6
873 2 
1 1

34 1638 1638 874 1 5 6
874 2 
1 1

34 1643 1643 875 1 7 10
875 3 
1 1

35 1650 1650 876 1 1 1
876 0 
3 0

35 1651 1651 879 1 1 1
879 0 
1 0

35 1652 1652 880 1 1 1
880 0 
1 0

35 1653 1653 881 1 1 1
881 0 
1 0

35 1654 1654 882 1 3 3
882 1 
1 0

35 1657 1657 883 1 3 3
883 1 
1 0

35 1660 1660 884 1 3 3
884 1 
1 0

35 1663 1663 885 1 5 6
885 2 
1 1

35 1668 1668 886 1 5 6
886 2 
1 1

35 1673 1673 887 1 7 10
887 3 
1 1

36 1680 1680 888 1 1 1
888 0 
3 0

36 1681 1681 891 1 1 1
891 0 
1 0

36 1682 1682 892 1 1 1
892 0 
1 0

36 1683 1683 893 1 1 1
893 0 
1 0

36 1684 1684 894 1 3 3
894 1 
1 0

36 1687 1687 895 1 3 3
895 1 
1 0

36 1690 1690 896 1 3 3
896 1 
1 0

36 1693 1693 897 1 5 6
897 2 
1 1

36 1698 1698 898 1 5 6
898 2 
1 1

36 1703 1703 899 1 7 10
899 3 
1 1

37 1710 1710 900 1 1 1
900 0 
3 0

37 1711 1711 903 1 1 1
903 0 
1 0

37 1712 1712 904 1 1 1
904 0 
1 0

37 1713 1713 905 1 1 1
905 0 
1 0

37 1714 1714 906 1 3 3
906 1 
1 0

37 1717 1717 907 1 3 3
907 1 
1 0

37 1720 1720 908 1 3 3
908 1 
1 0

37 1723 1723 909 1 5 6
909 2 
1 1

37 1728 1728 910 1 5 6
910 2 
1 1

37 1733 1733 911 1 7 10
911 3 
1 1

38 1740 1740 912 1 1 1
912 0 
3 0

38 1741 1741 915 1 1 1
915 0 
1 0

38 1742 1742 916 1 1 1
916 0 
1 0

38 1743 1743 917 1 1 1
917 0 
1 0

38 1744 1744 918 1 3 3
918 1 
1 0

38 1747 1747 919 1 3 3
919 1 
1 0

38 1750 1750 920 1 3 3
920 1 
1 0

38 1753 1753 921 1 5 6
921 2 
1 1

38 1758 1758 922 1 5 6
922 2 
1 1

38 1763 1763 923 1 7 10
923 3 
1 1

39 1770 1770 924 1 1 1
924 0 
3 0

39 1771 1771 927 1 1 1
927 0 
1 0

39 1772 1772 928 1 1 1
928 0 
1 0

39 1773 1773 929 1 1 1
929 0 
1 0

39 1774 1774 930 1 3 3
930 1 
1 0

39 1777 1777 931 1 3 3
931 1 
1 0

39 1780 1780 932 1 3 3
932 1 
1 0

39 1783 1783 933 1 5 6
933 2 
1 1

39 1788 1788 934 1 5 6
934 2 
1 1

39 1793 1793 935 1 7 10
935 3 
1 1

40 1800 1800 936 1 1 1
936 0 
3 0

40 1801 1801 939 1 1 1
939 0 
1 0

40 1802 1802 940 1 1 1
940 0 
1 0

40 1803 1803 941 1 1 1
941 0 
1 0

40 1804 1804 942 1 3 3
942 1 
1 0

40 1807 1807 943 1 3 3
943 1 
1 0

40 1810 1810 944 1 3 3
944 1 
1 0

40 1813 1813 945 1 5 6
945 2 
1 1

40 1818 1818 946 1 5 6
946 2 
1 1

40 1823 1823 947 1 7 10
947 3 
1 1

41 1830 1830 948 1 1 1
948 0 
3 0

41 1831 1831 951 1 1 1
951 0 
1 0

41 1832 1832 952 1 1 1
952 0 
1 0

41 1833 1833 953 1 1 1
953 0 
1 0

41 1834 1834 954 1 3 3
954 1 
1 0

41 1837 1837 955 1 3 3
955 1 
1 0

41 1840 1840 956 1 3 3
956 1 
1 0

41 1843 1843 957 1 5 6
957 2 
1 1

41 1848 1848 958 1 5 6
958 2 
1 1

41 1853 1853 959 1 7 10
959 3 
1 1

42 1860 1860 960 1 1 1
960 0 
3 0

42 1861 1861 963 1 1 1
963 0 
1 0

42 1862 1862 964 1 1 1
964 0 
1 0

42 1863 1863 965 1 1 1
965 0 
1 0

42 1864 1864 966 1 3 3
966 1 
1 0

42 1867 1867 967 1 3 3
967 1 
1 0

42 1870 1870 968 1 3 3
968 1 
1 0

42 1873 1873 969 1 5 6
969 2 
1 1

42 1878 1878 970 1 5 6
970 2 
1 1

42 1883 1883 971 1 7 10
971 3 
1 1

43 1890 1890 972 1 1 1
972 0 
3 0

43 1891 1891 975 1 1 1
975 0 
1 0

43 1892 1892 976 1 1 1
976 0 
1 0

43 1893 1893 977 1 1 1
977 0 
1 0

43 1894 1894 978 1 3 3
978 1 
1 0

43 1897 1897 979 1 3 3
979 1 
1 0

43 1900 1900 980 1 3 3
980 1 
1 0

43 1903 1903 981 1 5 6
981 2 
1 1

43 1908 1908 982 1 5 6
982 2 
1 1

43 1913 1913 983 1 7 10
983 3 
1 1

44 1920 1920 984 1 1 1
984 0 
3 0

44 1921 1921 987 1 1 1
987 0 
1 0

44 1922 1922 988 1 1 1
988 0 
1 0

44 1923 1923 989 1 1 1
989 0 
1 0

44 1924 1924 990 1 3 3
990 1 
1 0

44 1927 1927 991 1 3 3
991 1 
1 0

44 1930 1930 992 1 3 3
992 1 
1 0

44 1933 1933 993 1 5 6
993 2 
1 1

44 1938 1938 994 1 5 6
994 2 
1 1

44 1943 1943 995 1 7 10
995 3 
1 1

45 1950 1950 996 1 1 1
996 0 
3 0

45 1951 1951 999 1 1 1
999 0 
1 0

45 1952 1952 1000 1 1 1
1000 0 
1 0

45 1953 1953 1001 1 1 1
1001 0 
1 0

45 1954 1954 1002 1 3 3
1002 1 
1 0

45 1957 1957 1003 1 3 3
1003 1 
1 0

45 1960 1960 1004 1 3 3
1004 1 
1 0

45 1963 1963 1005 1 5 6
1005 2 
1 1

45 1968 1968 1006 1 5 6
1006 2 
1 1

45 1973 1973 1007 1 7 10
1007 3 
1 1

46 1980 1980 1008 1 1 1
1008 0 
3 0

46 1981 1981 1011 1 1 1
1011 0 
1 0

46 1982 1982 1012 1 1 1
1012 0 
1 0

46 1983 1983 1013 1 1 1
1013 0 
1 0

46 1984 1984 1014 1 3 3
1014 1 
1 0

46 1987 1987 1015 1 3 3
1015 1 
1 0

46 1990 1990 1016 1 3 3
1016 1 
1 0

46 1993 1993 1017 1 5 6
1017 2 
1 1

46 1998 1998 1018 1 5 6
1018 2 
1 1

46 2003 2003 1019 1 7 10
1019 3 
1 1

47 2010 2010 1020 1 1 1
1020 0 
3 0

47 2011 2011 1023 1 1 1
1023 0 
1 0

47 2012 2012 1024 1 1 1
1024 0 
1 0

47 2013 2013 1025 1 1 1
1025 0 
1 0

47 2014 2014 1026 1 3 3
1026 1 
1 0

47 2017 2017 1027 1 3 3
1027 1 
1 0

47 2020 2020 1028 1 3 3
1028 1 
1 0

47 2023 2023 1029 1 5 6
1029 2 
1 1

47 2028 2028 1030 1 5 6
1030 2 
1 1

47 2033 2033 1031 1 7 10
1031 3 
1 1

 -------------------------------------------------------------
 Allocate 12236152 B from available memory: 524288000000 B
 There are 441 image cells after screening.
 There are 201 image cells for CGTO evaluation after screening.
 Real-Space grid for FFT initialized based on kinetic energy cutoff (eV) = 500.0
 Real-Space grid for FFT: (25,27,35)
 There are 199155 real-space grid points.
 There are 1331 batches of real-space grid points. 
 Size of each grid batch is around 128
 Grid for AFT initialized based on kinetic energy cutoff (eV) = 200.0
 Real-Space grid for AFT: (16,18,22)
 There are 54945 real-space grid points.

 There are 142416 atom-centered grid points.

 Adding empirical dispersion correction 
 ----------------------------------------------------------------
 Doing -D3(BJ) with
 s6  =   1.00000e+00
 s8  =   7.87500e-01
 a1  =   4.28900e-01
 a2  =   4.44070e+00
 ----------------------------------------------------------------
 Monkhorst-Pack mesh is [2,2,2]
 There are 8 k points.
kpoints in Bohr
0.0000000000 0.0000000000 0.0000000000
0.0000000000 0.0000000000 0.1764818724
0.0000000000 0.2249606547 0.0000000000
0.0000000000 0.2249606547 0.1764818724
0.2441202993 0.0000000000 0.0000000000
0.2441202993 0.0000000000 0.1764818724
0.2441202993 0.2249606547 0.0000000000
0.2441202993 0.2249606547 0.1764818724
 There are 84 alpha and 84 beta electrons
 Start computing overlap matrix
 Allocate 532684800 B from available memory: 524275763872 B
 Time for computing overlap matrix: 68.8440000000 s
 ====== Initialize compute kernels for all-electron RI-J (kpts) ====== 
 ==== The unitcell is orthorombic! => Use orthorombic code ==== 
 ========================================================== 
 Range-separated parameter omega        = 0.400000000000000022
 Threshold for 1e2c shellpair           = 0.000000000000010000
 Threshold for 2e2c SR integral         = 0.000000000000000001
 Threshold for 2e3c SR integral         = 0.000000000100000000
 Threshold for AFT G-space screening is = 0.000000000100000000
 The exponent cutoff for C/D classification (omega2 / 2) is  = 0.080000000000000016
 ========================================================== 
 === Post process the basis set for RI calculation (exp_cutoff = 0.080000000000000016 ) === 
nshells_b1 before uncontraction = 600
nshells_b1 after uncontraction = 600
nshells_baux before uncontraction = 984
nshells_baux after uncontraction = 984
===============================================
nbsf total   = 2040
nbsf compact = 2040
nbsf diffuse = 0
naux total   = 3768
naux compact = 3768
naux diffuse = 0
nshells_bnuc = 48
================= Automatically determine grid size for reciprocal space summation =================
 Range-separated parameter = 0.40000000000000 and G-space screening threshold = 0.00000000010000
The number of grid points along each axis dimension is (9, 10, 12)
The total number of grid points is 9975
======== Initializing relevant kernel for RIJ (CC type) ========
There are 140684 shellpairs in the reference unit cell
There are 171 images and we expect to have 24056964 in total
There are 558904 shellpairs in the lattice sum after screening
****** AFT -> SR ******
Maximum bra distance cutoff is 24.000000000000
Maximum bra ket distance cutoff is 28.031250000000
Number of auxiliary image is 335
There are 140684 shellpairs in the reference unit cell
There are 275 images and we expect to have 38688100 in total
There are 558904 shellpairs in the lattice sum after screening
Available memory for 2e3c calculation is 16366971221
Batch size for auxiliary basis is 164 out of 3768
Batch size for basis function pair is 67869 out of 1550828
Finish initializing 2e3c SR with the lattice sum!
=================================================
======== Initialize the SR component for Vnuc (CC type) ========
Maximum bra distance cutoff is 24.000000000000
Maximum bra ket distance cutoff is 22.246733977093
Number of auxiliary image is 255
There are 140684 shellpairs in the reference unit cell
There are 275 images and we expect to have 38688100 in total
There are 558904 shellpairs in the lattice sum after screening
Available memory for 2e3c calculation is 16366971221
Batch size for auxiliary basis is 48 out of 48
Batch size for basis function pair is 1550828 out of 1550828
Finish initializing 2e3c SR with the lattice sum!
=================================================
 Aufbau occupation scheme, occupation determined by eigenvalue
 == 0-th k-point nmo = 2036 (0.00000,0.00000,0.00000) ==
 == 1-th k-point nmo = 2036 (0.00000,0.00000,0.17648) ==
 == 2-th k-point nmo = 2036 (0.00000,0.22496,0.00000) ==
 == 3-th k-point nmo = 2036 (0.00000,0.22496,0.17648) ==
 == 4-th k-point nmo = 2036 (0.24412,0.00000,0.00000) ==
 == 5-th k-point nmo = 2036 (0.24412,0.00000,0.17648) ==
 == 6-th k-point nmo = 2036 (0.24412,0.22496,0.00000) ==
 == 7-th k-point nmo = 2036 (0.24412,0.22496,0.17648) ==

 Generate autoSAD guess
backing up fragment data
Atom # 0: c, charge: 0, multiplicity: 3.000000
Atom # 1: h, charge: 0, multiplicity: 2.000000
writing autosad to fragment context
Settings for isolated fragments: 
  BSSE: FALSE
  frgm_gamma: TRUE
  frgm_center: FALSE

    Running SCF for isolated atom #0
    Fragment Input file: /scratch/bdxq/hdinh//benzene_crystal_ccpvqz_omega_0.4_222.scratch20250709211734/autosad_frgmt_0/frgmt_input.in
    Fragment Output file: /scratch/bdxq/hdinh//benzene_crystal_ccpvqz_omega_0.4_222.scratch20250709211734/autosad_frgmt_0/frgmt_job.out
    Fragment job begins at Wed Jul  9 21:20:55 2025

 Integrated density by DFT XC:
   Numerical integral  =     6.000000072443
   Relative error      =     0.0000012074 %
Final energy components:
 DFT Correlation                 Energy =  -0.14407719577747
 DFT Exchange                    Energy =  -5.01965299141175
 Empirical Dispersion Correction Energy =   0.00000000000000
 Kinetic (alpha)                 Energy =  20.12147631053151
 Kinetic (beta)                  Energy =  17.54112010828204
 Nuclear Attraction (alpha)      Energy = -48.82213026640648
 Nuclear Attraction (beta)       Energy = -39.29512325079706
 Nuclear Repulsion               Energy =   0.00000000000000
 SEOQF                           Energy =   0.00000000026924
 Total Coulomb                   Energy =  17.82121744370920
----------------------------------------------
    SCF Energy: -37.7971698416
   Total fragment job time:  1.74 s.
    Running SCF for isolated atom #1
    Fragment Input file: /scratch/bdxq/hdinh//benzene_crystal_ccpvqz_omega_0.4_222.scratch20250709211734/autosad_frgmt_1/frgmt_input.in
    Fragment Output file: /scratch/bdxq/hdinh//benzene_crystal_ccpvqz_omega_0.4_222.scratch20250709211734/autosad_frgmt_1/frgmt_job.out
    Fragment job begins at Wed Jul  9 21:20:57 2025

 Integrated density by DFT XC:
   Numerical integral  =     0.999999999525
   Relative error      =     0.0000000475 %
Final energy components:
 DFT Correlation                 Energy =  -0.00565484047434
 DFT Exchange                    Energy =  -0.30149132014164
 Empirical Dispersion Correction Energy =   0.00000000000000
 Kinetic (alpha)                 Energy =   0.49568524180791
 Kinetic (beta)                  Energy =   0.00000000000000
 Nuclear Attraction (alpha)      Energy =  -0.99478393777352
 Nuclear Attraction (beta)       Energy =   0.00000000000000
 Nuclear Repulsion               Energy =   0.00000000000000
 SEOQF                           Energy =  -0.00000000000000
 Total Coulomb                   Energy =   0.30642415223037
----------------------------------------------
    SCF Energy: -0.4998207044
   Total fragment job time:  0.74 s.
restoring fragment data

 ------------------------------------------------------------------------
 Allocate 1597035648 B from available memory: 523743079072 B
 Time for generating SCF guess: 2.93 s

 Allocate 7557112 B from available memory: 522146043424 B
 Selected algorithms for each term:
  kpts_dftd3 -> @0x7fea6ad716a0
  kpts_kinetic -> @0x7fea6ad715e0
  kpts_nn -> @0x7fea6ad71760
  kpts_rij_bigmem -> @0x7fea6ad71340
  kpts_vnuc_df -> @0x7fea6ad712e0
  kpts_xc -> @0x7fea6ad71220

 Time for computing kinetic matrix is 55.26 s
Start calculating Vnuc CC type!
 Time for computing nuclear attraction matrix is 79.64 s
Maximum distance between P and Q is 48.46736674611299
Number of images for (P|Qn) is 157
 Time for computing 2e2c SR integral is 2.72 s
 === bvk cell = 0 has 68.16 % of the basis function pairs === 
 === bvk cell = 1 has 30.42 % of the basis function pairs === 
 === bvk cell = 2 has 38.43 % of the basis function pairs === 
 === bvk cell = 3 has 17.28 % of the basis function pairs === 
 === bvk cell = 4 has 42.42 % of the basis function pairs === 
 === bvk cell = 5 has 19.14 % of the basis function pairs === 
 === bvk cell = 6 has 24.56 % of the basis function pairs === 
 === bvk cell = 7 has 11.22 % of the basis function pairs === 
Static memory requirement for 2e3c SR integrals: 109.554 GB
Dynamic memory requirement for 2e3c SR integrals: 0.258 GB
There are 6227 munu batches for computing 2e3c SR integrals with latsum
There are 62 Q batches for computing 2e3c SR integrals with latsum
Running job 1 of 1
