                  Welcome to Q-Chem
           with Periodic Boundary Condition
     A Quantum Leap Into The Future Of Chemistry

 Adam Rettig, Xintian Feng, Meng-Fu Chen, Hieu Dinh, Stephen Quiton,
 Anton Ni, Paul J. Robinson, Jinghong Zhang, Joonho Lee

Contributors to earlier versions of Q-Chem not listed above:
 Evgeny Epifanovsky, Leo Cunha, Jerome F. Gonthier, Kuan-Yu Liu
 Input file: /scratch/bdxq/hdinh//benzene_crystal_ccpvdz_omega_0.4_333.scratch20250709185228/benzene_crystal_ccpvdz_omega_0.4_333.0
 Scratch folder: /scratch/bdxq/hdinh//benzene_crystal_ccpvdz_omega_0.4_333.scratch20250709185228
 Auxillary files located at: /u/hdinh/qcpbc/qcaux
 Q-Chem begins on Wed Jul  9 18:52:29 2025

 -------------------------------------------------------------
 User input:
 -------------------------------------------------------------
 $lattice
 3
 6.8100000000 	0.0000000000 	0.0000000000
 0.0000000000 	7.3900000000 	0.0000000000
 0.0000000000 	0.0000000000 	9.4200000000
 $end
 
 $unitcell
 ABSOLUTE
 0 1
  C 	6.7630110000 	6.9414270000 	1.3122060000
  C 	6.7630110000 	4.1435730000 	6.0222060000
  C 	3.3580110000 	6.9414270000 	3.3977940000
  C 	3.3580110000 	4.1435730000 	8.1077940000
  C 	0.0469890000 	0.4485730000 	8.1077940000
  C 	0.0469890000 	3.2464270000 	3.3977940000
  C 	3.4519890000 	0.4485730000 	6.0222060000
  C 	3.4519890000 	3.2464270000 	1.3122060000
  C 	0.8580600000 	6.3723970000 	0.4210740000
  C 	0.8580600000 	4.7126030000 	5.1310740000
  C 	4.2630600000 	6.3723970000 	4.2889260000
  C 	4.2630600000 	4.7126030000 	8.9989260000
  C 	5.9519400000 	1.0176030000 	8.9989260000
  C 	5.9519400000 	2.6773970000 	4.2889260000
  C 	2.5469400000 	1.0176030000 	5.1310740000
  C 	2.5469400000 	2.6773970000 	0.4210740000
  C 	5.9076750000 	0.5690300000 	0.9024360000
  C 	5.9076750000 	3.1259700000 	5.6124360000
  C 	2.5026750000 	0.5690300000 	3.8075640000
  C 	2.5026750000 	3.1259700000 	8.5175640000
  C 	0.9023250000 	6.8209700000 	8.5175640000
  C 	0.9023250000 	4.2640300000 	3.8075640000
  C 	4.3073250000 	6.8209700000 	5.6124360000
  C 	4.3073250000 	4.2640300000 	0.9024360000
  H 	6.7262370000 	6.6170060000 	2.3568840000
  H 	6.7262370000 	4.4679940000 	7.0668840000
  H 	3.3212370000 	6.6170060000 	2.3531160000
  H 	3.3212370000 	4.4679940000 	7.0631160000
  H 	0.0837630000 	0.7729940000 	7.0631160000
  H 	0.0837630000 	2.9220060000 	2.3531160000
  H 	3.4887630000 	0.7729940000 	7.0668840000
  H 	3.4887630000 	2.9220060000 	2.3568840000
  H 	1.5261210000 	5.5735380000 	0.7357020000
  H 	1.5261210000 	5.5114620000 	5.4457020000
  H 	4.9311210000 	5.5735380000 	3.9742980000
  H 	4.9311210000 	5.5114620000 	8.6842980000
  H 	5.2838790000 	1.8164620000 	8.6842980000
  H 	5.2838790000 	1.8785380000 	3.9742980000
  H 	1.8788790000 	1.8164620000 	5.4457020000
  H 	1.8788790000 	1.8785380000 	0.7357020000
  H 	5.2028400000 	1.0131690000 	1.5835020000
  H 	5.2028400000 	2.6818310000 	6.2935020000
  H 	1.7978400000 	1.0131690000 	3.1264980000
  H 	1.7978400000 	2.6818310000 	7.8364980000
  H 	1.6071600000 	6.3768310000 	7.8364980000
  H 	1.6071600000 	4.7081690000 	3.1264980000
  H 	5.0121600000 	6.3768310000 	6.2935020000
  H 	5.0121600000 	4.7081690000 	1.5835020000
 $end
 
 $rem
 jobtype = sp
 method = pbe
 dft_d = 6
 scf_convergence = 5
 scf_guess = autosad
 scf_algorithm = gdm
 basis = cc-pvdz
 aux_basis = cc-pvtz-jk
 input_bohr = false
 
 mp_mesh = [3,3,3]
 
 integral_direct true
 bvk_cgto true
 
 thresh 14
 mem_total 500000
 threads 32
 
 MAX_SCF_CYCLES 500
 madelung = false
 omega 0.4
 do_rij_bigmem true
 automate_g true
 print_level 10
 grid_type_xc 1
 
 thresh_1e2c_sp 1e-14
 thresh_2e3c_bra_ket_sep 1e-10
 thresh_g 1e-10
 $end
 
 $rem_autosad
 incfock 1000
 scf_algorithm gdm_ls
 $end
 
 -------------------------------------------------------------
 Running PBC job

 Requested Exchange Correlation Functionals: 
  DFT Exchange:  1.00000 pbe_x
  DFT Correlation:  1.00000 pbe_c
 using 32 threads for computing.
 ---------------------------------------------------------------
      Coordinates of Atoms in Central Unit Cell (Angstroms)
    I     Atom         X            Y            Z
 ---------------------------------------------------------------
    1       C      6.763011     6.941427     1.312206
    2       C      6.763011     4.143573     6.022206
    3       C      3.358011     6.941427     3.397794
    4       C      3.358011     4.143573     8.107794
    5       C      0.046989     0.448573     8.107794
    6       C      0.046989     3.246427     3.397794
    7       C      3.451989     0.448573     6.022206
    8       C      3.451989     3.246427     1.312206
    9       C      0.858060     6.372397     0.421074
   10       C      0.858060     4.712603     5.131074
   11       C      4.263060     6.372397     4.288926
   12       C      4.263060     4.712603     8.998926
   13       C      5.951940     1.017603     8.998926
   14       C      5.951940     2.677397     4.288926
   15       C      2.546940     1.017603     5.131074
   16       C      2.546940     2.677397     0.421074
   17       C      5.907675     0.569030     0.902436
   18       C      5.907675     3.125970     5.612436
   19       C      2.502675     0.569030     3.807564
   20       C      2.502675     3.125970     8.517564
   21       C      0.902325     6.820970     8.517564
   22       C      0.902325     4.264030     3.807564
   23       C      4.307325     6.820970     5.612436
   24       C      4.307325     4.264030     0.902436
   25       H      6.726237     6.617006     2.356884
   26       H      6.726237     4.467994     7.066884
   27       H      3.321237     6.617006     2.353116
   28       H      3.321237     4.467994     7.063116
   29       H      0.083763     0.772994     7.063116
   30       H      0.083763     2.922006     2.353116
   31       H      3.488763     0.772994     7.066884
   32       H      3.488763     2.922006     2.356884
   33       H      1.526121     5.573538     0.735702
   34       H      1.526121     5.511462     5.445702
   35       H      4.931121     5.573538     3.974298
   36       H      4.931121     5.511462     8.684298
   37       H      5.283879     1.816462     8.684298
   38       H      5.283879     1.878538     3.974298
   39       H      1.878879     1.816462     5.445702
   40       H      1.878879     1.878538     0.735702
   41       H      5.202840     1.013169     1.583502
   42       H      5.202840     2.681831     6.293502
   43       H      1.797840     1.013169     3.126498
   44       H      1.797840     2.681831     7.836498
   45       H      1.607160     6.376831     7.836498
   46       H      1.607160     4.708169     3.126498
   47       H      5.012160     6.376831     6.293502
   48       H      5.012160     4.708169     1.583502
 ---------------------------------------------------------------
 --------------------------------------------------
              Lattice Vectors (Angstroms)
              X            Y            Z
 --------------------------------------------------
   X       6.810000     0.000000     0.000000
   Y       0.000000     7.390000     0.000000
   Z       0.000000     0.000000     9.420000
 --------------------------------------------------
 --------------------------------------------------
       Reciprocal Lattice Vectors (Angstroms^-1)
              X            Y            Z
 --------------------------------------------------
   X       0.922641     0.000000     0.000000
   Y       0.000000     0.850228     0.000000
   Z       0.000000     0.000000     0.667005
 --------------------------------------------------

 Single point calculation requested

 Hamiltonian contributions:
 List of terms in Hamiltonian: kpts_nn, kpts_kinetic, kpts_vnuc_df, kpts_xc, kpts_rij_bigmem, kpts_dftd3

 K-Points calculation started.

 Basis set information about using solid harmonic (1) or Cartesian (0):
  h : 
  c : D(1) 

 Basis set information about using solid harmonic (1) or Cartesian (0):
  h : D(1) D(1) F(1) 
  c : D(1) D(1) D(1) D(1) D(1) F(1) F(1) G(1) 

 There are 456 basis functions in the central unit cell.
 Print atomic basis of atoms in the central unit cell:
 -------------------------------------------------------------
48 600 600 216

  1.27802385678315e+01  1.31173959440827e+01  2.47970995909068e+00
  1.27802385678315e+01  7.83021814739398e+00  1.13803200060781e+01
  6.34572111348071e+00  1.31173959440827e+01  6.42090008789669e+00
  6.34572111348071e+00  7.83021814739398e+00  1.53215101348841e+01
  8.87963408700403e-02  8.47680116901756e-01  1.53215101348841e+01
  8.87963408700403e-02  6.13485791359047e+00  6.42090008789669e+00
  6.52331379522079e+00  8.47680116901756e-01  1.13803200060781e+01
  6.52331379522079e+00  6.13485791359047e+00  2.47970995909068e+00
  1.62149839849639e+00  1.20420850873869e+01  7.95714538200672e-01
  1.62149839849639e+00  8.90552900408978e+00  9.69632458518805e+00
  8.05601585284714e+00  1.20420850873869e+01  8.10489550878671e+00
  8.05601585284714e+00  8.90552900408978e+00  1.70055055557741e+01
  1.12475365102051e+01  1.92299097359756e+00  1.70055055557741e+01
  1.12475365102051e+01  5.05954705689466e+00  8.10489550878671e+00
  4.81301905585436e+00  1.92299097359756e+00  9.69632458518805e+00
  4.81301905585436e+00  5.05954705689466e+00  7.95714538200672e-01
  1.11638877832985e+01  1.07531085669580e+00  1.70535688500278e+00
  1.11638877832985e+01  5.90722717379642e+00  1.06059669319902e+01
  4.72937032894780e+00  1.07531085669580e+00  7.19525316198460e+00
  4.72937032894780e+00  5.90722717379642e+00  1.60958632089720e+01
  1.70514712540295e+00  1.28897652042886e+01  1.60958632089720e+01
  1.70514712540295e+00  8.05784888718802e+00  7.19525316198460e+00
  8.13966457975370e+00  1.28897652042886e+01  1.06059669319902e+01
  8.13966457975370e+00  8.05784888718802e+00  1.70535688500278e+00
  1.27107457793245e+01  1.25043291050055e+01  4.45386526751248e+00
  1.27107457793245e+01  8.44328498647119e+00  1.33544753144999e+01
  6.27622832497372e+00  1.25043291050055e+01  4.44674477947489e+00
  6.27622832497372e+00  8.44328498647119e+00  1.33473548264623e+01
  1.58289129377028e-01  1.46074695597897e+00  1.33473548264623e+01
  1.58289129377028e-01  5.52179107451325e+00  4.44674477947489e+00
  6.59280658372778e+00  1.46074695597897e+00  1.33544753144999e+01
  6.59280658372778e+00  5.52179107451325e+00  4.45386526751248e+00
  2.88395072304001e+00  1.05324603651945e+01  1.39027528933943e+00
  2.88395072304001e+00  1.04151537262822e+01  1.02908853363268e+01
  9.31846817739075e+00  1.05324603651945e+01  7.51033475764795e+00
  9.31846817739075e+00  1.04151537262822e+01  1.64109448046353e+01
  9.98508418566149e+00  3.43261569578998e+00  1.64109448046353e+01
  9.98508418566149e+00  3.54992233470225e+00  7.51033475764795e+00
  3.55056673131074e+00  3.43261569578998e+00  1.02908853363268e+01
  3.55056673131074e+00  3.54992233470225e+00  1.39027528933943e+00
  9.83194267024794e+00  1.91461192796097e+00  2.99238509779716e+00
  9.83194267024794e+00  5.06792610253125e+00  1.18929951447845e+01
  3.39742521589719e+00  1.91461192796097e+00  5.90822494919022e+00
  3.39742521589719e+00  5.06792610253125e+00  1.48088349961776e+01
  3.03709223845355e+00  1.20504641330235e+01  1.48088349961776e+01
  3.03709223845355e+00  8.89714995845319e+00  5.90822494919022e+00
  9.47160969280430e+00  1.20504641330235e+01  1.18929951447845e+01
  9.47160969280430e+00  8.89714995845319e+00  2.99238509779716e+00

  6.66500000000000e+03
  1.00000000000000e+03
  2.28000000000000e+02
  6.47100000000000e+01
  2.10600000000000e+01
  7.49500000000000e+00
  2.79700000000000e+00
  6.66500000000000e+03
  1.00000000000000e+03
  6.47100000000000e+01
  2.10600000000000e+01
  7.49500000000000e+00
  2.79700000000000e+00
  5.21500000000000e-01
  1.59600000000000e-01
  9.43900000000000e+00
  2.00200000000000e+00
  5.45600000000000e-01
  1.51700000000000e-01
  5.50000000000000e-01
  6.66500000000000e+03
  1.00000000000000e+03
  2.28000000000000e+02
  6.47100000000000e+01
  2.10600000000000e+01
  7.49500000000000e+00
  2.79700000000000e+00
  6.66500000000000e+03
  1.00000000000000e+03
  6.47100000000000e+01
  2.10600000000000e+01
  7.49500000000000e+00
  2.79700000000000e+00
  5.21500000000000e-01
  1.59600000000000e-01
  9.43900000000000e+00
  2.00200000000000e+00
  5.45600000000000e-01
  1.51700000000000e-01
  5.50000000000000e-01
  6.66500000000000e+03
  1.00000000000000e+03
  2.28000000000000e+02
  6.47100000000000e+01
  2.10600000000000e+01
  7.49500000000000e+00
  2.79700000000000e+00
  6.66500000000000e+03
  1.00000000000000e+03
  6.47100000000000e+01
  2.10600000000000e+01
  7.49500000000000e+00
  2.79700000000000e+00
  5.21500000000000e-01
  1.59600000000000e-01
  9.43900000000000e+00
  2.00200000000000e+00
  5.45600000000000e-01
  1.51700000000000e-01
  5.50000000000000e-01
  6.66500000000000e+03
  1.00000000000000e+03
  2.28000000000000e+02
  6.47100000000000e+01
  2.10600000000000e+01
  7.49500000000000e+00
  2.79700000000000e+00
  6.66500000000000e+03
  1.00000000000000e+03
  6.47100000000000e+01
  2.10600000000000e+01
  7.49500000000000e+00
  2.79700000000000e+00
  5.21500000000000e-01
  1.59600000000000e-01
  9.43900000000000e+00
  2.00200000000000e+00
  5.45600000000000e-01
  1.51700000000000e-01
  5.50000000000000e-01
  6.66500000000000e+03
  1.00000000000000e+03
  2.28000000000000e+02
  6.47100000000000e+01
  2.10600000000000e+01
  7.49500000000000e+00
  2.79700000000000e+00
  6.66500000000000e+03
  1.00000000000000e+03
  6.47100000000000e+01
  2.10600000000000e+01
  7.49500000000000e+00
  2.79700000000000e+00
  5.21500000000000e-01
  1.59600000000000e-01
  9.43900000000000e+00
  2.00200000000000e+00
  5.45600000000000e-01
  1.51700000000000e-01
  5.50000000000000e-01
  6.66500000000000e+03
  1.00000000000000e+03
  2.28000000000000e+02
  6.47100000000000e+01
  2.10600000000000e+01
  7.49500000000000e+00
  2.79700000000000e+00
  6.66500000000000e+03
  1.00000000000000e+03
  6.47100000000000e+01
  2.10600000000000e+01
  7.49500000000000e+00
  2.79700000000000e+00
  5.21500000000000e-01
  1.59600000000000e-01
  9.43900000000000e+00
  2.00200000000000e+00
  5.45600000000000e-01
  1.51700000000000e-01
  5.50000000000000e-01
  6.66500000000000e+03
  1.00000000000000e+03
  2.28000000000000e+02
  6.47100000000000e+01
  2.10600000000000e+01
  7.49500000000000e+00
  2.79700000000000e+00
  6.66500000000000e+03
  1.00000000000000e+03
  6.47100000000000e+01
  2.10600000000000e+01
  7.49500000000000e+00
  2.79700000000000e+00
  5.21500000000000e-01
  1.59600000000000e-01
  9.43900000000000e+00
  2.00200000000000e+00
  5.45600000000000e-01
  1.51700000000000e-01
  5.50000000000000e-01
  6.66500000000000e+03
  1.00000000000000e+03
  2.28000000000000e+02
  6.47100000000000e+01
  2.10600000000000e+01
  7.49500000000000e+00
  2.79700000000000e+00
  6.66500000000000e+03
  1.00000000000000e+03
  6.47100000000000e+01
  2.10600000000000e+01
  7.49500000000000e+00
  2.79700000000000e+00
  5.21500000000000e-01
  1.59600000000000e-01
  9.43900000000000e+00
  2.00200000000000e+00
  5.45600000000000e-01
  1.51700000000000e-01
  5.50000000000000e-01
  6.66500000000000e+03
  1.00000000000000e+03
  2.28000000000000e+02
  6.47100000000000e+01
  2.10600000000000e+01
  7.49500000000000e+00
  2.79700000000000e+00
  6.66500000000000e+03
  1.00000000000000e+03
  6.47100000000000e+01
  2.10600000000000e+01
  7.49500000000000e+00
  2.79700000000000e+00
  5.21500000000000e-01
  1.59600000000000e-01
  9.43900000000000e+00
  2.00200000000000e+00
  5.45600000000000e-01
  1.51700000000000e-01
  5.50000000000000e-01
  6.66500000000000e+03
  1.00000000000000e+03
  2.28000000000000e+02
  6.47100000000000e+01
  2.10600000000000e+01
  7.49500000000000e+00
  2.79700000000000e+00
  6.66500000000000e+03
  1.00000000000000e+03
  6.47100000000000e+01
  2.10600000000000e+01
  7.49500000000000e+00
  2.79700000000000e+00
  5.21500000000000e-01
  1.59600000000000e-01
  9.43900000000000e+00
  2.00200000000000e+00
  5.45600000000000e-01
  1.51700000000000e-01
  5.50000000000000e-01
  6.66500000000000e+03
  1.00000000000000e+03
  2.28000000000000e+02
  6.47100000000000e+01
  2.10600000000000e+01
  7.49500000000000e+00
  2.79700000000000e+00
  6.66500000000000e+03
  1.00000000000000e+03
  6.47100000000000e+01
  2.10600000000000e+01
  7.49500000000000e+00
  2.79700000000000e+00
  5.21500000000000e-01
  1.59600000000000e-01
  9.43900000000000e+00
  2.00200000000000e+00
  5.45600000000000e-01
  1.51700000000000e-01
  5.50000000000000e-01
  6.66500000000000e+03
  1.00000000000000e+03
  2.28000000000000e+02
  6.47100000000000e+01
  2.10600000000000e+01
  7.49500000000000e+00
  2.79700000000000e+00
  6.66500000000000e+03
  1.00000000000000e+03
  6.47100000000000e+01
  2.10600000000000e+01
  7.49500000000000e+00
  2.79700000000000e+00
  5.21500000000000e-01
  1.59600000000000e-01
  9.43900000000000e+00
  2.00200000000000e+00
  5.45600000000000e-01
  1.51700000000000e-01
  5.50000000000000e-01
  6.66500000000000e+03
  1.00000000000000e+03
  2.28000000000000e+02
  6.47100000000000e+01
  2.10600000000000e+01
  7.49500000000000e+00
  2.79700000000000e+00
  6.66500000000000e+03
  1.00000000000000e+03
  6.47100000000000e+01
  2.10600000000000e+01
  7.49500000000000e+00
  2.79700000000000e+00
  5.21500000000000e-01
  1.59600000000000e-01
  9.43900000000000e+00
  2.00200000000000e+00
  5.45600000000000e-01
  1.51700000000000e-01
  5.50000000000000e-01
  6.66500000000000e+03
  1.00000000000000e+03
  2.28000000000000e+02
  6.47100000000000e+01
  2.10600000000000e+01
  7.49500000000000e+00
  2.79700000000000e+00
  6.66500000000000e+03
  1.00000000000000e+03
  6.47100000000000e+01
  2.10600000000000e+01
  7.49500000000000e+00
  2.79700000000000e+00
  5.21500000000000e-01
  1.59600000000000e-01
  9.43900000000000e+00
  2.00200000000000e+00
  5.45600000000000e-01
  1.51700000000000e-01
  5.50000000000000e-01
  6.66500000000000e+03
  1.00000000000000e+03
  2.28000000000000e+02
  6.47100000000000e+01
  2.10600000000000e+01
  7.49500000000000e+00
  2.79700000000000e+00
  6.66500000000000e+03
  1.00000000000000e+03
  6.47100000000000e+01
  2.10600000000000e+01
  7.49500000000000e+00
  2.79700000000000e+00
  5.21500000000000e-01
  1.59600000000000e-01
  9.43900000000000e+00
  2.00200000000000e+00
  5.45600000000000e-01
  1.51700000000000e-01
  5.50000000000000e-01
  6.66500000000000e+03
  1.00000000000000e+03
  2.28000000000000e+02
  6.47100000000000e+01
  2.10600000000000e+01
  7.49500000000000e+00
  2.79700000000000e+00
  6.66500000000000e+03
  1.00000000000000e+03
  6.47100000000000e+01
  2.10600000000000e+01
  7.49500000000000e+00
  2.79700000000000e+00
  5.21500000000000e-01
  1.59600000000000e-01
  9.43900000000000e+00
  2.00200000000000e+00
  5.45600000000000e-01
  1.51700000000000e-01
  5.50000000000000e-01
  6.66500000000000e+03
  1.00000000000000e+03
  2.28000000000000e+02
  6.47100000000000e+01
  2.10600000000000e+01
  7.49500000000000e+00
  2.79700000000000e+00
  6.66500000000000e+03
  1.00000000000000e+03
  6.47100000000000e+01
  2.10600000000000e+01
  7.49500000000000e+00
  2.79700000000000e+00
  5.21500000000000e-01
  1.59600000000000e-01
  9.43900000000000e+00
  2.00200000000000e+00
  5.45600000000000e-01
  1.51700000000000e-01
  5.50000000000000e-01
  6.66500000000000e+03
  1.00000000000000e+03
  2.28000000000000e+02
  6.47100000000000e+01
  2.10600000000000e+01
  7.49500000000000e+00
  2.79700000000000e+00
  6.66500000000000e+03
  1.00000000000000e+03
  6.47100000000000e+01
  2.10600000000000e+01
  7.49500000000000e+00
  2.79700000000000e+00
  5.21500000000000e-01
  1.59600000000000e-01
  9.43900000000000e+00
  2.00200000000000e+00
  5.45600000000000e-01
  1.51700000000000e-01
  5.50000000000000e-01
  6.66500000000000e+03
  1.00000000000000e+03
  2.28000000000000e+02
  6.47100000000000e+01
  2.10600000000000e+01
  7.49500000000000e+00
  2.79700000000000e+00
  6.66500000000000e+03
  1.00000000000000e+03
  6.47100000000000e+01
  2.10600000000000e+01
  7.49500000000000e+00
  2.79700000000000e+00
  5.21500000000000e-01
  1.59600000000000e-01
  9.43900000000000e+00
  2.00200000000000e+00
  5.45600000000000e-01
  1.51700000000000e-01
  5.50000000000000e-01
  6.66500000000000e+03
  1.00000000000000e+03
  2.28000000000000e+02
  6.47100000000000e+01
  2.10600000000000e+01
  7.49500000000000e+00
  2.79700000000000e+00
  6.66500000000000e+03
  1.00000000000000e+03
  6.47100000000000e+01
  2.10600000000000e+01
  7.49500000000000e+00
  2.79700000000000e+00
  5.21500000000000e-01
  1.59600000000000e-01
  9.43900000000000e+00
  2.00200000000000e+00
  5.45600000000000e-01
  1.51700000000000e-01
  5.50000000000000e-01
  6.66500000000000e+03
  1.00000000000000e+03
  2.28000000000000e+02
  6.47100000000000e+01
  2.10600000000000e+01
  7.49500000000000e+00
  2.79700000000000e+00
  6.66500000000000e+03
  1.00000000000000e+03
  6.47100000000000e+01
  2.10600000000000e+01
  7.49500000000000e+00
  2.79700000000000e+00
  5.21500000000000e-01
  1.59600000000000e-01
  9.43900000000000e+00
  2.00200000000000e+00
  5.45600000000000e-01
  1.51700000000000e-01
  5.50000000000000e-01
  6.66500000000000e+03
  1.00000000000000e+03
  2.28000000000000e+02
  6.47100000000000e+01
  2.10600000000000e+01
  7.49500000000000e+00
  2.79700000000000e+00
  6.66500000000000e+03
  1.00000000000000e+03
  6.47100000000000e+01
  2.10600000000000e+01
  7.49500000000000e+00
  2.79700000000000e+00
  5.21500000000000e-01
  1.59600000000000e-01
  9.43900000000000e+00
  2.00200000000000e+00
  5.45600000000000e-01
  1.51700000000000e-01
  5.50000000000000e-01
  6.66500000000000e+03
  1.00000000000000e+03
  2.28000000000000e+02
  6.47100000000000e+01
  2.10600000000000e+01
  7.49500000000000e+00
  2.79700000000000e+00
  6.66500000000000e+03
  1.00000000000000e+03
  6.47100000000000e+01
  2.10600000000000e+01
  7.49500000000000e+00
  2.79700000000000e+00
  5.21500000000000e-01
  1.59600000000000e-01
  9.43900000000000e+00
  2.00200000000000e+00
  5.45600000000000e-01
  1.51700000000000e-01
  5.50000000000000e-01
  6.66500000000000e+03
  1.00000000000000e+03
  2.28000000000000e+02
  6.47100000000000e+01
  2.10600000000000e+01
  7.49500000000000e+00
  2.79700000000000e+00
  6.66500000000000e+03
  1.00000000000000e+03
  6.47100000000000e+01
  2.10600000000000e+01
  7.49500000000000e+00
  2.79700000000000e+00
  5.21500000000000e-01
  1.59600000000000e-01
  9.43900000000000e+00
  2.00200000000000e+00
  5.45600000000000e-01
  1.51700000000000e-01
  5.50000000000000e-01
  1.30100000000000e+01
  1.96200000000000e+00
  4.44600000000000e-01
  1.22000000000000e-01
  7.27000000000000e-01
  1.30100000000000e+01
  1.96200000000000e+00
  4.44600000000000e-01
  1.22000000000000e-01
  7.27000000000000e-01
  1.30100000000000e+01
  1.96200000000000e+00
  4.44600000000000e-01
  1.22000000000000e-01
  7.27000000000000e-01
  1.30100000000000e+01
  1.96200000000000e+00
  4.44600000000000e-01
  1.22000000000000e-01
  7.27000000000000e-01
  1.30100000000000e+01
  1.96200000000000e+00
  4.44600000000000e-01
  1.22000000000000e-01
  7.27000000000000e-01
  1.30100000000000e+01
  1.96200000000000e+00
  4.44600000000000e-01
  1.22000000000000e-01
  7.27000000000000e-01
  1.30100000000000e+01
  1.96200000000000e+00
  4.44600000000000e-01
  1.22000000000000e-01
  7.27000000000000e-01
  1.30100000000000e+01
  1.96200000000000e+00
  4.44600000000000e-01
  1.22000000000000e-01
  7.27000000000000e-01
  1.30100000000000e+01
  1.96200000000000e+00
  4.44600000000000e-01
  1.22000000000000e-01
  7.27000000000000e-01
  1.30100000000000e+01
  1.96200000000000e+00
  4.44600000000000e-01
  1.22000000000000e-01
  7.27000000000000e-01
  1.30100000000000e+01
  1.96200000000000e+00
  4.44600000000000e-01
  1.22000000000000e-01
  7.27000000000000e-01
  1.30100000000000e+01
  1.96200000000000e+00
  4.44600000000000e-01
  1.22000000000000e-01
  7.27000000000000e-01
  1.30100000000000e+01
  1.96200000000000e+00
  4.44600000000000e-01
  1.22000000000000e-01
  7.27000000000000e-01
  1.30100000000000e+01
  1.96200000000000e+00
  4.44600000000000e-01
  1.22000000000000e-01
  7.27000000000000e-01
  1.30100000000000e+01
  1.96200000000000e+00
  4.44600000000000e-01
  1.22000000000000e-01
  7.27000000000000e-01
  1.30100000000000e+01
  1.96200000000000e+00
  4.44600000000000e-01
  1.22000000000000e-01
  7.27000000000000e-01
  1.30100000000000e+01
  1.96200000000000e+00
  4.44600000000000e-01
  1.22000000000000e-01
  7.27000000000000e-01
  1.30100000000000e+01
  1.96200000000000e+00
  4.44600000000000e-01
  1.22000000000000e-01
  7.27000000000000e-01
  1.30100000000000e+01
  1.96200000000000e+00
  4.44600000000000e-01
  1.22000000000000e-01
  7.27000000000000e-01
  1.30100000000000e+01
  1.96200000000000e+00
  4.44600000000000e-01
  1.22000000000000e-01
  7.27000000000000e-01
  1.30100000000000e+01
  1.96200000000000e+00
  4.44600000000000e-01
  1.22000000000000e-01
  7.27000000000000e-01
  1.30100000000000e+01
  1.96200000000000e+00
  4.44600000000000e-01
  1.22000000000000e-01
  7.27000000000000e-01
  1.30100000000000e+01
  1.96200000000000e+00
  4.44600000000000e-01
  1.22000000000000e-01
  7.27000000000000e-01
  1.30100000000000e+01
  1.96200000000000e+00
  4.44600000000000e-01
  1.22000000000000e-01
  7.27000000000000e-01

  3.64599440658250e-01
  6.76976693553059e-01
  1.13479586458989e+00
  1.65846537366526e+00
  1.93036343130757e+00
  1.45629240665047e+00
  4.43268218412025e-01
  3.27816545752681e-04
 -6.95191092023978e-03
 -5.90485205318809e-02
 -8.26658278749410e-02
 -3.58062727598002e-01
 -2.07698431939654e-01
  4.81878149474643e-01
  1.79963635330801e-01
  1.34373710949623e+00
  1.06316808787974e+00
  5.08231833836250e-01
  1.34949743639293e-01
  5.78154836189229e-01
  3.64599440658250e-01
  6.76976693553059e-01
  1.13479586458989e+00
  1.65846537366526e+00
  1.93036343130757e+00
  1.45629240665047e+00
  4.43268218412025e-01
  3.27816545752681e-04
 -6.95191092023978e-03
 -5.90485205318809e-02
 -8.26658278749410e-02
 -3.58062727598002e-01
 -2.07698431939654e-01
  4.81878149474643e-01
  1.79963635330801e-01
  1.34373710949623e+00
  1.06316808787974e+00
  5.08231833836250e-01
  1.34949743639293e-01
  5.78154836189229e-01
  3.64599440658250e-01
  6.76976693553059e-01
  1.13479586458989e+00
  1.65846537366526e+00
  1.93036343130757e+00
  1.45629240665047e+00
  4.43268218412025e-01
  3.27816545752681e-04
 -6.95191092023978e-03
 -5.90485205318809e-02
 -8.26658278749410e-02
 -3.58062727598002e-01
 -2.07698431939654e-01
  4.81878149474643e-01
  1.79963635330801e-01
  1.34373710949623e+00
  1.06316808787974e+00
  5.08231833836250e-01
  1.34949743639293e-01
  5.78154836189229e-01
  3.64599440658250e-01
  6.76976693553059e-01
  1.13479586458989e+00
  1.65846537366526e+00
  1.93036343130757e+00
  1.45629240665047e+00
  4.43268218412025e-01
  3.27816545752681e-04
 -6.95191092023978e-03
 -5.90485205318809e-02
 -8.26658278749410e-02
 -3.58062727598002e-01
 -2.07698431939654e-01
  4.81878149474643e-01
  1.79963635330801e-01
  1.34373710949623e+00
  1.06316808787974e+00
  5.08231833836250e-01
  1.34949743639293e-01
  5.78154836189229e-01
  3.64599440658250e-01
  6.76976693553059e-01
  1.13479586458989e+00
  1.65846537366526e+00
  1.93036343130757e+00
  1.45629240665047e+00
  4.43268218412025e-01
  3.27816545752681e-04
 -6.95191092023978e-03
 -5.90485205318809e-02
 -8.26658278749410e-02
 -3.58062727598002e-01
 -2.07698431939654e-01
  4.81878149474643e-01
  1.79963635330801e-01
  1.34373710949623e+00
  1.06316808787974e+00
  5.08231833836250e-01
  1.34949743639293e-01
  5.78154836189229e-01
  3.64599440658250e-01
  6.76976693553059e-01
  1.13479586458989e+00
  1.65846537366526e+00
  1.93036343130757e+00
  1.45629240665047e+00
  4.43268218412025e-01
  3.27816545752681e-04
 -6.95191092023978e-03
 -5.90485205318809e-02
 -8.26658278749410e-02
 -3.58062727598002e-01
 -2.07698431939654e-01
  4.81878149474643e-01
  1.79963635330801e-01
  1.34373710949623e+00
  1.06316808787974e+00
  5.08231833836250e-01
  1.34949743639293e-01
  5.78154836189229e-01
  3.64599440658250e-01
  6.76976693553059e-01
  1.13479586458989e+00
  1.65846537366526e+00
  1.93036343130757e+00
  1.45629240665047e+00
  4.43268218412025e-01
  3.27816545752681e-04
 -6.95191092023978e-03
 -5.90485205318809e-02
 -8.26658278749410e-02
 -3.58062727598002e-01
 -2.07698431939654e-01
  4.81878149474643e-01
  1.79963635330801e-01
  1.34373710949623e+00
  1.06316808787974e+00
  5.08231833836250e-01
  1.34949743639293e-01
  5.78154836189229e-01
  3.64599440658250e-01
  6.76976693553059e-01
  1.13479586458989e+00
  1.65846537366526e+00
  1.93036343130757e+00
  1.45629240665047e+00
  4.43268218412025e-01
  3.27816545752681e-04
 -6.95191092023978e-03
 -5.90485205318809e-02
 -8.26658278749410e-02
 -3.58062727598002e-01
 -2.07698431939654e-01
  4.81878149474643e-01
  1.79963635330801e-01
  1.34373710949623e+00
  1.06316808787974e+00
  5.08231833836250e-01
  1.34949743639293e-01
  5.78154836189229e-01
  3.64599440658250e-01
  6.76976693553059e-01
  1.13479586458989e+00
  1.65846537366526e+00
  1.93036343130757e+00
  1.45629240665047e+00
  4.43268218412025e-01
  3.27816545752681e-04
 -6.95191092023978e-03
 -5.90485205318809e-02
 -8.26658278749410e-02
 -3.58062727598002e-01
 -2.07698431939654e-01
  4.81878149474643e-01
  1.79963635330801e-01
  1.34373710949623e+00
  1.06316808787974e+00
  5.08231833836250e-01
  1.34949743639293e-01
  5.78154836189229e-01
  3.64599440658250e-01
  6.76976693553059e-01
  1.13479586458989e+00
  1.65846537366526e+00
  1.93036343130757e+00
  1.45629240665047e+00
  4.43268218412025e-01
  3.27816545752681e-04
 -6.95191092023978e-03
 -5.90485205318809e-02
 -8.26658278749410e-02
 -3.58062727598002e-01
 -2.07698431939654e-01
  4.81878149474643e-01
  1.79963635330801e-01
  1.34373710949623e+00
  1.06316808787974e+00
  5.08231833836250e-01
  1.34949743639293e-01
  5.78154836189229e-01
  3.64599440658250e-01
  6.76976693553059e-01
  1.13479586458989e+00
  1.65846537366526e+00
  1.93036343130757e+00
  1.45629240665047e+00
  4.43268218412025e-01
  3.27816545752681e-04
 -6.95191092023978e-03
 -5.90485205318809e-02
 -8.26658278749410e-02
 -3.58062727598002e-01
 -2.07698431939654e-01
  4.81878149474643e-01
  1.79963635330801e-01
  1.34373710949623e+00
  1.06316808787974e+00
  5.08231833836250e-01
  1.34949743639293e-01
  5.78154836189229e-01
  3.64599440658250e-01
  6.76976693553059e-01
  1.13479586458989e+00
  1.65846537366526e+00
  1.93036343130757e+00
  1.45629240665047e+00
  4.43268218412025e-01
  3.27816545752681e-04
 -6.95191092023978e-03
 -5.90485205318809e-02
 -8.26658278749410e-02
 -3.58062727598002e-01
 -2.07698431939654e-01
  4.81878149474643e-01
  1.79963635330801e-01
  1.34373710949623e+00
  1.06316808787974e+00
  5.08231833836250e-01
  1.34949743639293e-01
  5.78154836189229e-01
  3.64599440658250e-01
  6.76976693553059e-01
  1.13479586458989e+00
  1.65846537366526e+00
  1.93036343130757e+00
  1.45629240665047e+00
  4.43268218412025e-01
  3.27816545752681e-04
 -6.95191092023978e-03
 -5.90485205318809e-02
 -8.26658278749410e-02
 -3.58062727598002e-01
 -2.07698431939654e-01
  4.81878149474643e-01
  1.79963635330801e-01
  1.34373710949623e+00
  1.06316808787974e+00
  5.08231833836250e-01
  1.34949743639293e-01
  5.78154836189229e-01
  3.64599440658250e-01
  6.76976693553059e-01
  1.13479586458989e+00
  1.65846537366526e+00
  1.93036343130757e+00
  1.45629240665047e+00
  4.43268218412025e-01
  3.27816545752681e-04
 -6.95191092023978e-03
 -5.90485205318809e-02
 -8.26658278749410e-02
 -3.58062727598002e-01
 -2.07698431939654e-01
  4.81878149474643e-01
  1.79963635330801e-01
  1.34373710949623e+00
  1.06316808787974e+00
  5.08231833836250e-01
  1.34949743639293e-01
  5.78154836189229e-01
  3.64599440658250e-01
  6.76976693553059e-01
  1.13479586458989e+00
  1.65846537366526e+00
  1.93036343130757e+00
  1.45629240665047e+00
  4.43268218412025e-01
  3.27816545752681e-04
 -6.95191092023978e-03
 -5.90485205318809e-02
 -8.26658278749410e-02
 -3.58062727598002e-01
 -2.07698431939654e-01
  4.81878149474643e-01
  1.79963635330801e-01
  1.34373710949623e+00
  1.06316808787974e+00
  5.08231833836250e-01
  1.34949743639293e-01
  5.78154836189229e-01
  3.64599440658250e-01
  6.76976693553059e-01
  1.13479586458989e+00
  1.65846537366526e+00
  1.93036343130757e+00
  1.45629240665047e+00
  4.43268218412025e-01
  3.27816545752681e-04
 -6.95191092023978e-03
 -5.90485205318809e-02
 -8.26658278749410e-02
 -3.58062727598002e-01
 -2.07698431939654e-01
  4.81878149474643e-01
  1.79963635330801e-01
  1.34373710949623e+00
  1.06316808787974e+00
  5.08231833836250e-01
  1.34949743639293e-01
  5.78154836189229e-01
  3.64599440658250e-01
  6.76976693553059e-01
  1.13479586458989e+00
  1.65846537366526e+00
  1.93036343130757e+00
  1.45629240665047e+00
  4.43268218412025e-01
  3.27816545752681e-04
 -6.95191092023978e-03
 -5.90485205318809e-02
 -8.26658278749410e-02
 -3.58062727598002e-01
 -2.07698431939654e-01
  4.81878149474643e-01
  1.79963635330801e-01
  1.34373710949623e+00
  1.06316808787974e+00
  5.08231833836250e-01
  1.34949743639293e-01
  5.78154836189229e-01
  3.64599440658250e-01
  6.76976693553059e-01
  1.13479586458989e+00
  1.65846537366526e+00
  1.93036343130757e+00
  1.45629240665047e+00
  4.43268218412025e-01
  3.27816545752681e-04
 -6.95191092023978e-03
 -5.90485205318809e-02
 -8.26658278749410e-02
 -3.58062727598002e-01
 -2.07698431939654e-01
  4.81878149474643e-01
  1.79963635330801e-01
  1.34373710949623e+00
  1.06316808787974e+00
  5.08231833836250e-01
  1.34949743639293e-01
  5.78154836189229e-01
  3.64599440658250e-01
  6.76976693553059e-01
  1.13479586458989e+00
  1.65846537366526e+00
  1.93036343130757e+00
  1.45629240665047e+00
  4.43268218412025e-01
  3.27816545752681e-04
 -6.95191092023978e-03
 -5.90485205318809e-02
 -8.26658278749410e-02
 -3.58062727598002e-01
 -2.07698431939654e-01
  4.81878149474643e-01
  1.79963635330801e-01
  1.34373710949623e+00
  1.06316808787974e+00
  5.08231833836250e-01
  1.34949743639293e-01
  5.78154836189229e-01
  3.64599440658250e-01
  6.76976693553059e-01
  1.13479586458989e+00
  1.65846537366526e+00
  1.93036343130757e+00
  1.45629240665047e+00
  4.43268218412025e-01
  3.27816545752681e-04
 -6.95191092023978e-03
 -5.90485205318809e-02
 -8.26658278749410e-02
 -3.58062727598002e-01
 -2.07698431939654e-01
  4.81878149474643e-01
  1.79963635330801e-01
  1.34373710949623e+00
  1.06316808787974e+00
  5.08231833836250e-01
  1.34949743639293e-01
  5.78154836189229e-01
  3.64599440658250e-01
  6.76976693553059e-01
  1.13479586458989e+00
  1.65846537366526e+00
  1.93036343130757e+00
  1.45629240665047e+00
  4.43268218412025e-01
  3.27816545752681e-04
 -6.95191092023978e-03
 -5.90485205318809e-02
 -8.26658278749410e-02
 -3.58062727598002e-01
 -2.07698431939654e-01
  4.81878149474643e-01
  1.79963635330801e-01
  1.34373710949623e+00
  1.06316808787974e+00
  5.08231833836250e-01
  1.34949743639293e-01
  5.78154836189229e-01
  3.64599440658250e-01
  6.76976693553059e-01
  1.13479586458989e+00
  1.65846537366526e+00
  1.93036343130757e+00
  1.45629240665047e+00
  4.43268218412025e-01
  3.27816545752681e-04
 -6.95191092023978e-03
 -5.90485205318809e-02
 -8.26658278749410e-02
 -3.58062727598002e-01
 -2.07698431939654e-01
  4.81878149474643e-01
  1.79963635330801e-01
  1.34373710949623e+00
  1.06316808787974e+00
  5.08231833836250e-01
  1.34949743639293e-01
  5.78154836189229e-01
  3.64599440658250e-01
  6.76976693553059e-01
  1.13479586458989e+00
  1.65846537366526e+00
  1.93036343130757e+00
  1.45629240665047e+00
  4.43268218412025e-01
  3.27816545752681e-04
 -6.95191092023978e-03
 -5.90485205318809e-02
 -8.26658278749410e-02
 -3.58062727598002e-01
 -2.07698431939654e-01
  4.81878149474643e-01
  1.79963635330801e-01
  1.34373710949623e+00
  1.06316808787974e+00
  5.08231833836250e-01
  1.34949743639293e-01
  5.78154836189229e-01
  3.64599440658250e-01
  6.76976693553059e-01
  1.13479586458989e+00
  1.65846537366526e+00
  1.93036343130757e+00
  1.45629240665047e+00
  4.43268218412025e-01
  3.27816545752681e-04
 -6.95191092023978e-03
 -5.90485205318809e-02
 -8.26658278749410e-02
 -3.58062727598002e-01
 -2.07698431939654e-01
  4.81878149474643e-01
  1.79963635330801e-01
  1.34373710949623e+00
  1.06316808787974e+00
  5.08231833836250e-01
  1.34949743639293e-01
  5.78154836189229e-01
  1.63548422787197e-01
  2.77417541697630e-01
  3.15749306997667e-01
  1.47122794428574e-01
  9.56881375059566e-01
  1.63548422787197e-01
  2.77417541697630e-01
  3.15749306997667e-01
  1.47122794428574e-01
  9.56881375059566e-01
  1.63548422787197e-01
  2.77417541697630e-01
  3.15749306997667e-01
  1.47122794428574e-01
  9.56881375059566e-01
  1.63548422787197e-01
  2.77417541697630e-01
  3.15749306997667e-01
  1.47122794428574e-01
  9.56881375059566e-01
  1.63548422787197e-01
  2.77417541697630e-01
  3.15749306997667e-01
  1.47122794428574e-01
  9.56881375059566e-01
  1.63548422787197e-01
  2.77417541697630e-01
  3.15749306997667e-01
  1.47122794428574e-01
  9.56881375059566e-01
  1.63548422787197e-01
  2.77417541697630e-01
  3.15749306997667e-01
  1.47122794428574e-01
  9.56881375059566e-01
  1.63548422787197e-01
  2.77417541697630e-01
  3.15749306997667e-01
  1.47122794428574e-01
  9.56881375059566e-01
  1.63548422787197e-01
  2.77417541697630e-01
  3.15749306997667e-01
  1.47122794428574e-01
  9.56881375059566e-01
  1.63548422787197e-01
  2.77417541697630e-01
  3.15749306997667e-01
  1.47122794428574e-01
  9.56881375059566e-01
  1.63548422787197e-01
  2.77417541697630e-01
  3.15749306997667e-01
  1.47122794428574e-01
  9.56881375059566e-01
  1.63548422787197e-01
  2.77417541697630e-01
  3.15749306997667e-01
  1.47122794428574e-01
  9.56881375059566e-01
  1.63548422787197e-01
  2.77417541697630e-01
  3.15749306997667e-01
  1.47122794428574e-01
  9.56881375059566e-01
  1.63548422787197e-01
  2.77417541697630e-01
  3.15749306997667e-01
  1.47122794428574e-01
  9.56881375059566e-01
  1.63548422787197e-01
  2.77417541697630e-01
  3.15749306997667e-01
  1.47122794428574e-01
  9.56881375059566e-01
  1.63548422787197e-01
  2.77417541697630e-01
  3.15749306997667e-01
  1.47122794428574e-01
  9.56881375059566e-01
  1.63548422787197e-01
  2.77417541697630e-01
  3.15749306997667e-01
  1.47122794428574e-01
  9.56881375059566e-01
  1.63548422787197e-01
  2.77417541697630e-01
  3.15749306997667e-01
  1.47122794428574e-01
  9.56881375059566e-01
  1.63548422787197e-01
  2.77417541697630e-01
  3.15749306997667e-01
  1.47122794428574e-01
  9.56881375059566e-01
  1.63548422787197e-01
  2.77417541697630e-01
  3.15749306997667e-01
  1.47122794428574e-01
  9.56881375059566e-01
  1.63548422787197e-01
  2.77417541697630e-01
  3.15749306997667e-01
  1.47122794428574e-01
  9.56881375059566e-01
  1.63548422787197e-01
  2.77417541697630e-01
  3.15749306997667e-01
  1.47122794428574e-01
  9.56881375059566e-01
  1.63548422787197e-01
  2.77417541697630e-01
  3.15749306997667e-01
  1.47122794428574e-01
  9.56881375059566e-01
  1.63548422787197e-01
  2.77417541697630e-01
  3.15749306997667e-01
  1.47122794428574e-01
  9.56881375059566e-01

0 0 0 0 1 1 1
0 0 
7 0

0 1 1 7 1 1 1
7 0 
7 0

0 2 2 14 1 1 1
14 0 
1 0

0 3 3 15 1 3 3
15 1 
3 0

0 6 6 18 1 3 3
18 1 
1 0

0 9 9 19 1 5 6
19 2 
1 1

1 14 14 20 1 1 1
20 0 
7 0

1 15 15 27 1 1 1
27 0 
7 0

1 16 16 34 1 1 1
34 0 
1 0

1 17 17 35 1 3 3
35 1 
3 0

1 20 20 38 1 3 3
38 1 
1 0

1 23 23 39 1 5 6
39 2 
1 1

2 28 28 40 1 1 1
40 0 
7 0

2 29 29 47 1 1 1
47 0 
7 0

2 30 30 54 1 1 1
54 0 
1 0

2 31 31 55 1 3 3
55 1 
3 0

2 34 34 58 1 3 3
58 1 
1 0

2 37 37 59 1 5 6
59 2 
1 1

3 42 42 60 1 1 1
60 0 
7 0

3 43 43 67 1 1 1
67 0 
7 0

3 44 44 74 1 1 1
74 0 
1 0

3 45 45 75 1 3 3
75 1 
3 0

3 48 48 78 1 3 3
78 1 
1 0

3 51 51 79 1 5 6
79 2 
1 1

4 56 56 80 1 1 1
80 0 
7 0

4 57 57 87 1 1 1
87 0 
7 0

4 58 58 94 1 1 1
94 0 
1 0

4 59 59 95 1 3 3
95 1 
3 0

4 62 62 98 1 3 3
98 1 
1 0

4 65 65 99 1 5 6
99 2 
1 1

5 70 70 100 1 1 1
100 0 
7 0

5 71 71 107 1 1 1
107 0 
7 0

5 72 72 114 1 1 1
114 0 
1 0

5 73 73 115 1 3 3
115 1 
3 0

5 76 76 118 1 3 3
118 1 
1 0

5 79 79 119 1 5 6
119 2 
1 1

6 84 84 120 1 1 1
120 0 
7 0

6 85 85 127 1 1 1
127 0 
7 0

6 86 86 134 1 1 1
134 0 
1 0

6 87 87 135 1 3 3
135 1 
3 0

6 90 90 138 1 3 3
138 1 
1 0

6 93 93 139 1 5 6
139 2 
1 1

7 98 98 140 1 1 1
140 0 
7 0

7 99 99 147 1 1 1
147 0 
7 0

7 100 100 154 1 1 1
154 0 
1 0

7 101 101 155 1 3 3
155 1 
3 0

7 104 104 158 1 3 3
158 1 
1 0

7 107 107 159 1 5 6
159 2 
1 1

8 112 112 160 1 1 1
160 0 
7 0

8 113 113 167 1 1 1
167 0 
7 0

8 114 114 174 1 1 1
174 0 
1 0

8 115 115 175 1 3 3
175 1 
3 0

8 118 118 178 1 3 3
178 1 
1 0

8 121 121 179 1 5 6
179 2 
1 1

9 126 126 180 1 1 1
180 0 
7 0

9 127 127 187 1 1 1
187 0 
7 0

9 128 128 194 1 1 1
194 0 
1 0

9 129 129 195 1 3 3
195 1 
3 0

9 132 132 198 1 3 3
198 1 
1 0

9 135 135 199 1 5 6
199 2 
1 1

10 140 140 200 1 1 1
200 0 
7 0

10 141 141 207 1 1 1
207 0 
7 0

10 142 142 214 1 1 1
214 0 
1 0

10 143 143 215 1 3 3
215 1 
3 0

10 146 146 218 1 3 3
218 1 
1 0

10 149 149 219 1 5 6
219 2 
1 1

11 154 154 220 1 1 1
220 0 
7 0

11 155 155 227 1 1 1
227 0 
7 0

11 156 156 234 1 1 1
234 0 
1 0

11 157 157 235 1 3 3
235 1 
3 0

11 160 160 238 1 3 3
238 1 
1 0

11 163 163 239 1 5 6
239 2 
1 1

12 168 168 240 1 1 1
240 0 
7 0

12 169 169 247 1 1 1
247 0 
7 0

12 170 170 254 1 1 1
254 0 
1 0

12 171 171 255 1 3 3
255 1 
3 0

12 174 174 258 1 3 3
258 1 
1 0

12 177 177 259 1 5 6
259 2 
1 1

13 182 182 260 1 1 1
260 0 
7 0

13 183 183 267 1 1 1
267 0 
7 0

13 184 184 274 1 1 1
274 0 
1 0

13 185 185 275 1 3 3
275 1 
3 0

13 188 188 278 1 3 3
278 1 
1 0

13 191 191 279 1 5 6
279 2 
1 1

14 196 196 280 1 1 1
280 0 
7 0

14 197 197 287 1 1 1
287 0 
7 0

14 198 198 294 1 1 1
294 0 
1 0

14 199 199 295 1 3 3
295 1 
3 0

14 202 202 298 1 3 3
298 1 
1 0

14 205 205 299 1 5 6
299 2 
1 1

15 210 210 300 1 1 1
300 0 
7 0

15 211 211 307 1 1 1
307 0 
7 0

15 212 212 314 1 1 1
314 0 
1 0

15 213 213 315 1 3 3
315 1 
3 0

15 216 216 318 1 3 3
318 1 
1 0

15 219 219 319 1 5 6
319 2 
1 1

16 224 224 320 1 1 1
320 0 
7 0

16 225 225 327 1 1 1
327 0 
7 0

16 226 226 334 1 1 1
334 0 
1 0

16 227 227 335 1 3 3
335 1 
3 0

16 230 230 338 1 3 3
338 1 
1 0

16 233 233 339 1 5 6
339 2 
1 1

17 238 238 340 1 1 1
340 0 
7 0

17 239 239 347 1 1 1
347 0 
7 0

17 240 240 354 1 1 1
354 0 
1 0

17 241 241 355 1 3 3
355 1 
3 0

17 244 244 358 1 3 3
358 1 
1 0

17 247 247 359 1 5 6
359 2 
1 1

18 252 252 360 1 1 1
360 0 
7 0

18 253 253 367 1 1 1
367 0 
7 0

18 254 254 374 1 1 1
374 0 
1 0

18 255 255 375 1 3 3
375 1 
3 0

18 258 258 378 1 3 3
378 1 
1 0

18 261 261 379 1 5 6
379 2 
1 1

19 266 266 380 1 1 1
380 0 
7 0

19 267 267 387 1 1 1
387 0 
7 0

19 268 268 394 1 1 1
394 0 
1 0

19 269 269 395 1 3 3
395 1 
3 0

19 272 272 398 1 3 3
398 1 
1 0

19 275 275 399 1 5 6
399 2 
1 1

20 280 280 400 1 1 1
400 0 
7 0

20 281 281 407 1 1 1
407 0 
7 0

20 282 282 414 1 1 1
414 0 
1 0

20 283 283 415 1 3 3
415 1 
3 0

20 286 286 418 1 3 3
418 1 
1 0

20 289 289 419 1 5 6
419 2 
1 1

21 294 294 420 1 1 1
420 0 
7 0

21 295 295 427 1 1 1
427 0 
7 0

21 296 296 434 1 1 1
434 0 
1 0

21 297 297 435 1 3 3
435 1 
3 0

21 300 300 438 1 3 3
438 1 
1 0

21 303 303 439 1 5 6
439 2 
1 1

22 308 308 440 1 1 1
440 0 
7 0

22 309 309 447 1 1 1
447 0 
7 0

22 310 310 454 1 1 1
454 0 
1 0

22 311 311 455 1 3 3
455 1 
3 0

22 314 314 458 1 3 3
458 1 
1 0

22 317 317 459 1 5 6
459 2 
1 1

23 322 322 460 1 1 1
460 0 
7 0

23 323 323 467 1 1 1
467 0 
7 0

23 324 324 474 1 1 1
474 0 
1 0

23 325 325 475 1 3 3
475 1 
3 0

23 328 328 478 1 3 3
478 1 
1 0

23 331 331 479 1 5 6
479 2 
1 1

24 336 336 480 1 1 1
480 0 
3 0

24 337 337 483 1 1 1
483 0 
1 0

24 338 338 484 1 3 3
484 1 
1 0

25 341 341 485 1 1 1
485 0 
3 0

25 342 342 488 1 1 1
488 0 
1 0

25 343 343 489 1 3 3
489 1 
1 0

26 346 346 490 1 1 1
490 0 
3 0

26 347 347 493 1 1 1
493 0 
1 0

26 348 348 494 1 3 3
494 1 
1 0

27 351 351 495 1 1 1
495 0 
3 0

27 352 352 498 1 1 1
498 0 
1 0

27 353 353 499 1 3 3
499 1 
1 0

28 356 356 500 1 1 1
500 0 
3 0

28 357 357 503 1 1 1
503 0 
1 0

28 358 358 504 1 3 3
504 1 
1 0

29 361 361 505 1 1 1
505 0 
3 0

29 362 362 508 1 1 1
508 0 
1 0

29 363 363 509 1 3 3
509 1 
1 0

30 366 366 510 1 1 1
510 0 
3 0

30 367 367 513 1 1 1
513 0 
1 0

30 368 368 514 1 3 3
514 1 
1 0

31 371 371 515 1 1 1
515 0 
3 0

31 372 372 518 1 1 1
518 0 
1 0

31 373 373 519 1 3 3
519 1 
1 0

32 376 376 520 1 1 1
520 0 
3 0

32 377 377 523 1 1 1
523 0 
1 0

32 378 378 524 1 3 3
524 1 
1 0

33 381 381 525 1 1 1
525 0 
3 0

33 382 382 528 1 1 1
528 0 
1 0

33 383 383 529 1 3 3
529 1 
1 0

34 386 386 530 1 1 1
530 0 
3 0

34 387 387 533 1 1 1
533 0 
1 0

34 388 388 534 1 3 3
534 1 
1 0

35 391 391 535 1 1 1
535 0 
3 0

35 392 392 538 1 1 1
538 0 
1 0

35 393 393 539 1 3 3
539 1 
1 0

36 396 396 540 1 1 1
540 0 
3 0

36 397 397 543 1 1 1
543 0 
1 0

36 398 398 544 1 3 3
544 1 
1 0

37 401 401 545 1 1 1
545 0 
3 0

37 402 402 548 1 1 1
548 0 
1 0

37 403 403 549 1 3 3
549 1 
1 0

38 406 406 550 1 1 1
550 0 
3 0

38 407 407 553 1 1 1
553 0 
1 0

38 408 408 554 1 3 3
554 1 
1 0

39 411 411 555 1 1 1
555 0 
3 0

39 412 412 558 1 1 1
558 0 
1 0

39 413 413 559 1 3 3
559 1 
1 0

40 416 416 560 1 1 1
560 0 
3 0

40 417 417 563 1 1 1
563 0 
1 0

40 418 418 564 1 3 3
564 1 
1 0

41 421 421 565 1 1 1
565 0 
3 0

41 422 422 568 1 1 1
568 0 
1 0

41 423 423 569 1 3 3
569 1 
1 0

42 426 426 570 1 1 1
570 0 
3 0

42 427 427 573 1 1 1
573 0 
1 0

42 428 428 574 1 3 3
574 1 
1 0

43 431 431 575 1 1 1
575 0 
3 0

43 432 432 578 1 1 1
578 0 
1 0

43 433 433 579 1 3 3
579 1 
1 0

44 436 436 580 1 1 1
580 0 
3 0

44 437 437 583 1 1 1
583 0 
1 0

44 438 438 584 1 3 3
584 1 
1 0

45 441 441 585 1 1 1
585 0 
3 0

45 442 442 588 1 1 1
588 0 
1 0

45 443 443 589 1 3 3
589 1 
1 0

46 446 446 590 1 1 1
590 0 
3 0

46 447 447 593 1 1 1
593 0 
1 0

46 448 448 594 1 3 3
594 1 
1 0

47 451 451 595 1 1 1
595 0 
3 0

47 452 452 598 1 1 1
598 0 
1 0

47 453 453 599 1 3 3
599 1 
1 0

 -------------------------------------------------------------
 Allocate 8147320 B from available memory: 524288000000 B
 There are 343 image cells after screening.
 There are 165 image cells for CGTO evaluation after screening.
 Real-Space grid for FFT initialized based on kinetic energy cutoff (eV) = 500.0
 Real-Space grid for FFT: (25,27,35)
 There are 199155 real-space grid points.
 There are 1331 batches of real-space grid points. 
 Size of each grid batch is around 128
 Grid for AFT initialized based on kinetic energy cutoff (eV) = 200.0
 Real-Space grid for AFT: (16,18,22)
 There are 54945 real-space grid points.

 There are 138288 atom-centered grid points.

 Adding empirical dispersion correction 
 ----------------------------------------------------------------
 Doing -D3(BJ) with
 s6  =   1.00000e+00
 s8  =   7.87500e-01
 a1  =   4.28900e-01
 a2  =   4.44070e+00
 ----------------------------------------------------------------
 Monkhorst-Pack mesh is [3,3,3]
 There are 27 k points.
kpoints in Bohr
-0.1627468662 -0.1499737698 -0.1176545816
-0.1627468662 -0.1499737698 0.0000000000
-0.1627468662 -0.1499737698 0.1176545816
-0.1627468662 0.0000000000 -0.1176545816
-0.1627468662 0.0000000000 0.0000000000
-0.1627468662 0.0000000000 0.1176545816
-0.1627468662 0.1499737698 -0.1176545816
-0.1627468662 0.1499737698 0.0000000000
-0.1627468662 0.1499737698 0.1176545816
0.0000000000 -0.1499737698 -0.1176545816
0.0000000000 -0.1499737698 0.0000000000
0.0000000000 -0.1499737698 0.1176545816
0.0000000000 0.0000000000 -0.1176545816
0.0000000000 0.0000000000 0.0000000000
0.0000000000 0.0000000000 0.1176545816
0.0000000000 0.1499737698 -0.1176545816
0.0000000000 0.1499737698 0.0000000000
0.0000000000 0.1499737698 0.1176545816
0.1627468662 -0.1499737698 -0.1176545816
0.1627468662 -0.1499737698 0.0000000000
0.1627468662 -0.1499737698 0.1176545816
0.1627468662 0.0000000000 -0.1176545816
0.1627468662 0.0000000000 0.0000000000
0.1627468662 0.0000000000 0.1176545816
0.1627468662 0.1499737698 -0.1176545816
0.1627468662 0.1499737698 0.0000000000
0.1627468662 0.1499737698 0.1176545816
 There are 84 alpha and 84 beta electrons
 Start computing overlap matrix
 Allocate 89828352 B from available memory: 524279852704 B
 Time for computing overlap matrix: 5.2920000000 s
 ====== Initialize compute kernels for all-electron RI-J (kpts) ====== 
 ==== The unitcell is orthorombic! => Use orthorombic code ==== 
 ========================================================== 
 Range-separated parameter omega        = 0.400000000000000022
 Threshold for 1e2c shellpair           = 0.000000000000010000
 Threshold for 2e2c SR integral         = 0.000000000000000001
 Threshold for 2e3c SR integral         = 0.000000000100000000
 Threshold for AFT G-space screening is = 0.000000000100000000
 The exponent cutoff for C/D classification (omega2 / 2) is  = 0.080000000000000016
 ========================================================== 
 === Post process the basis set for RI calculation (exp_cutoff = 0.080000000000000016 ) === 
nshells_b1 before uncontraction = 216
nshells_b1 after uncontraction = 216
nshells_baux before uncontraction = 840
nshells_baux after uncontraction = 840
===============================================
nbsf total   = 456
nbsf compact = 456
nbsf diffuse = 0
naux total   = 2616
naux compact = 2616
naux diffuse = 0
nshells_bnuc = 48
================= Automatically determine grid size for reciprocal space summation =================
 Range-separated parameter = 0.40000000000000 and G-space screening threshold = 0.00000000010000
The number of grid points along each axis dimension is (9, 10, 12)
The total number of grid points is 9975
======== Initializing relevant kernel for RIJ (CC type) ========
There are 21832 shellpairs in the reference unit cell
There are 129 images and we expect to have 2816328 in total
There are 97016 shellpairs in the lattice sum after screening
****** AFT -> SR ******
Maximum bra distance cutoff is 21.000000000000
Maximum bra ket distance cutoff is 25.593750000000
Number of auxiliary image is 311
There are 21832 shellpairs in the reference unit cell
There are 239 images and we expect to have 5217848 in total
There are 97016 shellpairs in the lattice sum after screening
Available memory for 2e3c calculation is 16380938261
Batch size for auxiliary basis is 770 out of 2616
Batch size for basis function pair is 28989 out of 98472
Finish initializing 2e3c SR with the lattice sum!
=================================================
======== Initialize the SR component for Vnuc (CC type) ========
Maximum bra distance cutoff is 21.000000000000
Maximum bra ket distance cutoff is 19.684503572163
Number of auxiliary image is 221
There are 21832 shellpairs in the reference unit cell
There are 239 images and we expect to have 5217848 in total
There are 97016 shellpairs in the lattice sum after screening
Available memory for 2e3c calculation is 16380938261
Batch size for auxiliary basis is 48 out of 48
Batch size for basis function pair is 98472 out of 98472
Finish initializing 2e3c SR with the lattice sum!
=================================================
 Aufbau occupation scheme, occupation determined by eigenvalue
 == 0-th k-point nmo = 456 (-0.16275,-0.14997,-0.11765) ==
 == 1-th k-point nmo = 456 (-0.16275,-0.14997,0.00000) ==
 == 2-th k-point nmo = 456 (-0.16275,-0.14997,0.11765) ==
 == 3-th k-point nmo = 456 (-0.16275,0.00000,-0.11765) ==
 == 4-th k-point nmo = 456 (-0.16275,0.00000,0.00000) ==
 == 5-th k-point nmo = 456 (-0.16275,0.00000,0.11765) ==
 == 6-th k-point nmo = 456 (-0.16275,0.14997,-0.11765) ==
 == 7-th k-point nmo = 456 (-0.16275,0.14997,0.00000) ==
 == 8-th k-point nmo = 456 (-0.16275,0.14997,0.11765) ==
 == 9-th k-point nmo = 456 (0.00000,-0.14997,-0.11765) ==
 == 10-th k-point nmo = 456 (0.00000,-0.14997,0.00000) ==
 == 11-th k-point nmo = 456 (0.00000,-0.14997,0.11765) ==
 == 12-th k-point nmo = 456 (0.00000,0.00000,-0.11765) ==
 == 13-th k-point nmo = 456 (0.00000,0.00000,0.00000) ==
 == 14-th k-point nmo = 456 (0.00000,0.00000,0.11765) ==
 == 15-th k-point nmo = 456 (0.00000,0.14997,-0.11765) ==
 == 16-th k-point nmo = 456 (0.00000,0.14997,0.00000) ==
 == 17-th k-point nmo = 456 (0.00000,0.14997,0.11765) ==
 == 18-th k-point nmo = 456 (0.16275,-0.14997,-0.11765) ==
 == 19-th k-point nmo = 456 (0.16275,-0.14997,0.00000) ==
 == 20-th k-point nmo = 456 (0.16275,-0.14997,0.11765) ==
 == 21-th k-point nmo = 456 (0.16275,0.00000,-0.11765) ==
 == 22-th k-point nmo = 456 (0.16275,0.00000,0.00000) ==
 == 23-th k-point nmo = 456 (0.16275,0.00000,0.11765) ==
 == 24-th k-point nmo = 456 (0.16275,0.14997,-0.11765) ==
 == 25-th k-point nmo = 456 (0.16275,0.14997,0.00000) ==
 == 26-th k-point nmo = 456 (0.16275,0.14997,0.11765) ==

 Generate autoSAD guess
backing up fragment data
Atom # 0: c, charge: 0, multiplicity: 3.000000
Atom # 1: h, charge: 0, multiplicity: 2.000000
writing autosad to fragment context
Settings for isolated fragments: 
  BSSE: FALSE
  frgm_gamma: TRUE
  frgm_center: FALSE

    Running SCF for isolated atom #0
    Fragment Input file: /scratch/bdxq/hdinh//benzene_crystal_ccpvdz_omega_0.4_333.scratch20250709185228/autosad_frgmt_0/frgmt_input.in
    Fragment Output file: /scratch/bdxq/hdinh//benzene_crystal_ccpvdz_omega_0.4_333.scratch20250709185228/autosad_frgmt_0/frgmt_job.out
    Fragment job begins at Wed Jul  9 18:52:44 2025

 Integrated density by DFT XC:
   Numerical integral  =     6.000000000746
   Relative error      =     0.0000000124 %
Final energy components:
 DFT Correlation                 Energy =  -0.14559494858934
 DFT Exchange                    Energy =  -5.02589620272334
 Empirical Dispersion Correction Energy =   0.00000000000000
 Kinetic (alpha)                 Energy =  20.10993503709697
 Kinetic (beta)                  Energy =  17.53059881834756
 Nuclear Attraction (alpha)      Energy = -48.81819269056749
 Nuclear Attraction (beta)       Energy = -39.28429202286246
 Nuclear Repulsion               Energy =   0.00000000000000
 SEOQF                           Energy =  -0.00000000041816
 Total Coulomb                   Energy =  17.84490478928237
----------------------------------------------
    SCF Energy: -37.7885372204
   Total fragment job time:  0.97 s.
    Running SCF for isolated atom #1
    Fragment Input file: /scratch/bdxq/hdinh//benzene_crystal_ccpvdz_omega_0.4_333.scratch20250709185228/autosad_frgmt_1/frgmt_input.in
    Fragment Output file: /scratch/bdxq/hdinh//benzene_crystal_ccpvdz_omega_0.4_333.scratch20250709185228/autosad_frgmt_1/frgmt_job.out
    Fragment job begins at Wed Jul  9 18:52:45 2025

 Integrated density by DFT XC:
   Numerical integral  =     0.999999999853
   Relative error      =     0.0000000147 %
Final energy components:
 DFT Correlation                 Energy =  -0.00600533731674
 DFT Exchange                    Energy =  -0.30388266550691
 Empirical Dispersion Correction Energy =   0.00000000000000
 Kinetic (alpha)                 Energy =   0.49273654699436
 Kinetic (beta)                  Energy =   0.00000000000000
 Nuclear Attraction (alpha)      Energy =  -0.99199174887590
 Nuclear Attraction (beta)       Energy =   0.00000000000000
 Nuclear Repulsion               Energy =   0.00000000000000
 SEOQF                           Energy =   0.00000000000000
 Total Coulomb                   Energy =   0.31051583666305
----------------------------------------------
    SCF Energy: -0.4986273680
   Total fragment job time:  0.99 s.
restoring fragment data

 ------------------------------------------------------------------------
 Allocate 269556336 B from available memory: 524190024352 B
 Time for generating SCF guess: 2.11 s

 Allocate 3409816 B from available memory: 523920468032 B
 Selected algorithms for each term:
  kpts_dftd3 -> @0x7f4f181036a0
  kpts_kinetic -> @0x7f4f181035e0
  kpts_nn -> @0x7f4f18103760
  kpts_rij_bigmem -> @0x7f4f18103340
  kpts_vnuc_df -> @0x7f4f181032e0
  kpts_xc -> @0x7f4f18103220

 Time for computing kinetic matrix is 5.26 s
Start calculating Vnuc CC type!
 Time for computing nuclear attraction matrix is 7.26 s
Maximum distance between P and Q is 48.46736674611299
Number of images for (P|Qn) is 157
 Time for computing 2e2c SR integral is 1.45 s
 === bvk cell = 0 has 75.82 % of the basis function pairs === 
 === bvk cell = 1 has 20.35 % of the basis function pairs === 
 === bvk cell = 2 has 20.87 % of the basis function pairs === 
 === bvk cell = 3 has 28.99 % of the basis function pairs === 
 === bvk cell = 4 has 6.28 % of the basis function pairs === 
 === bvk cell = 5 has 7.57 % of the basis function pairs === 
 === bvk cell = 6 has 29.76 % of the basis function pairs === 
 === bvk cell = 7 has 7.80 % of the basis function pairs === 
 === bvk cell = 8 has 6.34 % of the basis function pairs === 
 === bvk cell = 9 has 33.51 % of the basis function pairs === 
 === bvk cell = 10 has 8.02 % of the basis function pairs === 
 === bvk cell = 11 has 7.97 % of the basis function pairs === 
 === bvk cell = 12 has 11.75 % of the basis function pairs === 
 === bvk cell = 13 has 1.76 % of the basis function pairs === 
 === bvk cell = 14 has 2.94 % of the basis function pairs === 
 === bvk cell = 15 has 11.11 % of the basis function pairs === 
 === bvk cell = 16 has 2.76 % of the basis function pairs === 
 === bvk cell = 17 has 2.08 % of the basis function pairs === 
 === bvk cell = 18 has 34.05 % of the basis function pairs === 
 === bvk cell = 19 has 7.97 % of the basis function pairs === 
 === bvk cell = 20 has 8.27 % of the basis function pairs === 
 === bvk cell = 21 has 10.97 % of the basis function pairs === 
 === bvk cell = 22 has 2.27 % of the basis function pairs === 
 === bvk cell = 23 has 2.54 % of the basis function pairs === 
 === bvk cell = 24 has 12.49 % of the basis function pairs === 
 === bvk cell = 25 has 3.17 % of the basis function pairs === 
 === bvk cell = 26 has 1.82 % of the basis function pairs === 
Static memory requirement for 2e3c SR integrals: 7.087 GB
Dynamic memory requirement for 2e3c SR integrals: 0.870 GB
There are 388 munu batches for computing 2e3c SR integrals with latsum
There are 42 Q batches for computing 2e3c SR integrals with latsum
 Time for computing 2e3c SR integral (CC) is 128.33 s
 ----------------------------------------------
 Guess energy components:
 D3 correction      Energy =  -0.12328073067621
 DFT Correlation    Energy =  -5.61506268296203
 DFT Exchange       Energy = -134.43591895697344
 Kinetic            Energy = 934.01096520197325
 Nuclear Attraction Energy = -1957.18000941892114
 Nuclear Repulsion  Energy = -128.08132826085716
 Total Coulomb      Energy = 364.03809408581026
 ----------------------------------------------
  Cycle       Energy        RMS Gradient
 ----------------------------------------------
    1    -927.5172482252      1.22e-01   Descent step
 Energy components after cycle 1:
 D3 correction      Energy =  -0.12328073067621
 DFT Correlation    Energy =  -5.60802393687259
 DFT Exchange       Energy = -134.19820789347634
 Kinetic            Energy = 932.59625794464398
 Nuclear Attraction Energy = -1953.77202692780293
 Nuclear Repulsion  Energy = -128.08132826085716
 Total Coulomb      Energy = 361.66936157988835
    2    -927.6295021560      1.09e-01   Descent step
 Energy components after cycle 2:
 D3 correction      Energy =  -0.12328073067621
 DFT Correlation    Energy =  -5.60140962715968
 DFT Exchange       Energy = -133.96012284561198
 Kinetic            Energy = 931.18374656586172
 Nuclear Attraction Energy = -1950.36376155077460
 Nuclear Repulsion  Energy = -128.08132826085716
 Total Coulomb      Energy = 359.31665429319071
    3    -927.7237159778      8.93e-02   Descent step
 Energy components after cycle 3:
 D3 correction      Energy =  -0.12328073067621
 DFT Correlation    Energy =  -5.59525546604183
 DFT Exchange       Energy = -133.72148234872751
 Kinetic            Energy = 929.77301595592462
 Nuclear Attraction Energy = -1946.95819408465695
 Nuclear Repulsion  Energy = -128.08132826085716
 Total Coulomb      Energy = 356.98280895720222
    4    -927.8003065236      7.70e-02   Descent step
 Energy components after cycle 4:
 D3 correction      Energy =  -0.12328073067621
 DFT Correlation    Energy =  -5.58961560660047
 DFT Exchange       Energy = -133.48210156682677
 Kinetic            Energy = 928.36398826202105
 Nuclear Attraction Energy = -1943.56067978822330
 Nuclear Repulsion  Energy = -128.08132826085716
 Total Coulomb      Energy = 354.67271116752721
    5    -927.8597295803      6.11e-02   Descent step
 Energy components after cycle 5:
 D3 correction      Energy =  -0.12328073067621
 DFT Correlation    Energy =  -5.58457679550785
 DFT Exchange       Energy = -133.24184228788803
 Kinetic            Energy = 926.95746420718945
 Nuclear Attraction Energy = -1940.18144760071959
 Nuclear Repulsion  Energy = -128.08132826085716
 Total Coulomb      Energy = 352.39528188811585
    6    -927.9025403327      4.49e-02   Descent step
 Energy components after cycle 6:
 D3 correction      Energy =  -0.12328073067621
 DFT Correlation    Energy =  -5.58029093179883
 DFT Exchange       Energy = -133.00079268319607
 Kinetic            Energy = 925.55673610172789
 Nuclear Attraction Energy = -1936.84203097133741
 Nuclear Repulsion  Energy = -128.08132826085716
 Total Coulomb      Energy = 350.16844714339680
    7    -927.9295212735      3.21e-02   Descent step
 Energy components after cycle 7:
 D3 correction      Energy =  -0.12328073067621
 DFT Correlation    Energy =  -5.57706106344826
 DFT Exchange       Energy = -132.75999019292499
 Kinetic            Energy = 924.17326513971909
 Nuclear Attraction Energy = -1933.59556261835769
 Nuclear Repulsion  Energy = -128.08132826085716
 Total Coulomb      Energy = 348.03443645305646
    8    -927.9420335490      1.61e-02   Descent step
 Energy components after cycle 8:
 D3 correction      Energy =  -0.12328073067621
 DFT Correlation    Energy =  -5.57566328813504
 DFT Exchange       Energy = -132.52554730972804
 Kinetic            Energy = 922.85590564501695
 Nuclear Attraction Energy = -1930.61888084631323
 Nuclear Repulsion  Energy = -128.08132826085716
 Total Coulomb      Energy = 346.12676124172441
    9    -927.9439522435      6.84e-03   Normal BFGS step
 Energy components after cycle 9:
 D3 correction      Energy =  -0.12328073067621
 DFT Correlation    Energy =  -5.57931639964071
 DFT Exchange       Energy = -132.42790075819565
 Kinetic            Energy = 922.39120508899555
 Nuclear Attraction Energy = -1929.90378262161744
 Nuclear Repulsion  Energy = -128.08132826085716
 Total Coulomb      Energy = 345.78045143850699
   10    -927.9440877698      2.49e-03   Normal BFGS step
 Energy components after cycle 10:
 D3 correction      Energy =  -0.12328073067621
 DFT Correlation    Energy =  -5.57852141618234
 DFT Exchange       Energy = -132.42438169425628
 Kinetic            Energy = 922.36124099321103
 Nuclear Attraction Energy = -1929.70760139681306
 Nuclear Repulsion  Energy = -128.08132826085716
 Total Coulomb      Energy = 345.60978473577211
   11    -927.9440865841      1.18e-03   Normal BFGS step
 Energy components after cycle 11:
 D3 correction      Energy =  -0.12328073067621
 DFT Correlation    Energy =  -5.57840291956411
 DFT Exchange       Energy = -132.43040791363444
 Kinetic            Energy = 922.38889306268413
 Nuclear Attraction Energy = -1929.77982922535398
 Nuclear Repulsion  Energy = -128.08132826085716
 Total Coulomb      Energy = 345.66026940325838
   12    -927.9440992550      2.86e-03   Normal BFGS step
 Energy components after cycle 12:
 D3 correction      Energy =  -0.12328073067621
 DFT Correlation    Energy =  -5.57846331798620
 DFT Exchange       Energy = -132.43289740744652
 Kinetic            Energy = 922.40207394337494
 Nuclear Attraction Energy = -1929.82983951214555
 Nuclear Repulsion  Energy = -128.08132826085716
 Total Coulomb      Energy = 345.69963603076371
   13    -927.9441040742      1.29e-03   Normal BFGS step
 Energy components after cycle 13:
 D3 correction      Energy =  -0.12328073067621
 DFT Correlation    Energy =  -5.57853082016770
 DFT Exchange       Energy = -132.42883724597473
 Kinetic            Energy = 922.38367382388242
 Nuclear Attraction Energy = -1929.77795922652035
 Nuclear Repulsion  Energy = -128.08132826085716
 Total Coulomb      Energy = 345.66215838611180
   14    -927.9441047507      9.36e-04   Normal BFGS step
 Energy components after cycle 14:
 D3 correction      Energy =  -0.12328073067621
 DFT Correlation    Energy =  -5.57851763223351
 DFT Exchange       Energy = -132.42796226038655
 Kinetic            Energy = 922.37923728356134
 Nuclear Attraction Energy = -1929.76133919037898
 Nuclear Repulsion  Energy = -128.08132826085716
 Total Coulomb      Energy = 345.64908604030046
   15    -927.9441093037      7.46e-04   Normal BFGS step
 Energy components after cycle 15:
 D3 correction      Energy =  -0.12328073067621
 DFT Correlation    Energy =  -5.57848012131238
 DFT Exchange       Energy = -132.43034188424920
 Kinetic            Energy = 922.38993027094739
 Nuclear Attraction Energy = -1929.79262480276770
 Nuclear Repulsion  Energy = -128.08132826085716
 Total Coulomb      Energy = 345.67201622521094
   16    -927.9441091265      1.60e-04   Normal BFGS step
 Energy components after cycle 16:
 D3 correction      Energy =  -0.12328073067621
 DFT Correlation    Energy =  -5.57849664594449
 DFT Exchange       Energy = -132.42978375657839
 Kinetic            Energy = 922.38758501095253
 Nuclear Attraction Energy = -1929.78679780486573
 Nuclear Repulsion  Energy = -128.08132826085716
 Total Coulomb      Energy = 345.66799306143957
   17    -927.9441096146      3.11e-04   Normal BFGS step
 Energy components after cycle 17:
 D3 correction      Energy =  -0.12328073067621
 DFT Correlation    Energy =  -5.57850354873810
 DFT Exchange       Energy = -132.42945963804536
 Kinetic            Energy = 922.38617914047336
 Nuclear Attraction Energy = -1929.78274922333753
 Nuclear Repulsion  Energy = -128.08132826085716
 Total Coulomb      Energy = 345.66503264656404
   18    -927.9441096512      6.90e-05   Normal BFGS step
 Energy components after cycle 18:
 D3 correction      Energy =  -0.12328073067621
 DFT Correlation    Energy =  -5.57849284093385
 DFT Exchange       Energy = -132.42983512021615
 Kinetic            Energy = 922.38775278860612
 Nuclear Attraction Energy = -1929.78682344265371
 Nuclear Repulsion  Energy = -128.08132826085716
 Total Coulomb      Energy = 345.66789795549704
   19    -927.9441096650      3.73e-05   Normal BFGS step
 Energy components after cycle 19:
 D3 correction      Energy =  -0.12328073067621
 DFT Correlation    Energy =  -5.57849401573330
 DFT Exchange       Energy = -132.42977845626049
 Kinetic            Energy = 922.38750249916586
 Nuclear Attraction Energy = -1929.78618644840139
 Nuclear Repulsion  Energy = -128.08132826085716
 Total Coulomb      Energy = 345.66745574771539
   20    -927.9441096713      3.30e-05   Normal BFGS step
 Energy components after cycle 20:
 D3 correction      Energy =  -0.12328073067621
 DFT Correlation    Energy =  -5.57849785705892
 DFT Exchange       Energy = -132.42967072467613
 Kinetic            Energy = 922.38707231257524
 Nuclear Attraction Energy = -1929.78510998552883
 Nuclear Repulsion  Energy = -128.08132826085716
 Total Coulomb      Energy = 345.66670557497065
   21    -927.9441096739      1.83e-05   Normal BFGS step
 Energy components after cycle 21:
 D3 correction      Energy =  -0.12328073067621
 DFT Correlation    Energy =  -5.57849616552990
 DFT Exchange       Energy = -132.42972367034889
 Kinetic            Energy = 922.38728907225209
 Nuclear Attraction Energy = -1929.78565411950285
 Nuclear Repulsion  Energy = -128.08132826085716
 Total Coulomb      Energy = 345.66708420080766
   22    -927.9441096739      8.86e-06   Normal BFGS step
 Energy components after cycle 22:
 D3 correction      Energy =  -0.12328073067621
 DFT Correlation    Energy =  -5.57849505541426
 DFT Exchange       Energy = -132.42975079158413
 Kinetic            Energy = 922.38739362369142
 Nuclear Attraction Energy = -1929.78590688110967
 Nuclear Repulsion  Energy = -128.08132826085716
 Total Coulomb      Energy = 345.66725842204113
   22    -927.9441096739      8.86e-06  Convergence criterion met
 ----------------------------------------------
 Final energy components:
 D3 correction      Energy =  -0.12328073067621
 DFT Correlation    Energy =  -5.57849505541426
 DFT Exchange       Energy = -132.42975079158413
 Kinetic            Energy = 922.38739362369142
 Nuclear Attraction Energy = -1929.78590688110967
 Nuclear Repulsion  Energy = -128.08132826085716
 Total Coulomb      Energy = 345.66725842204113
 ----------------------------------------------
 Final energy is -927.9441096739

 SCF time:   CPU 19218.21s  wall 684.00s 
 Total wall time for computing Kinetic: 0.45 s (24)
 Total wall time for computing RIJ-BIGMEM: 196.28 s (24)
 Total wall time for computing RSDF Vnuc: 0.49 s (24)
 Total wall time for computing DFT XC: 279.93 s (24)
 ---------------------------------------------------------------------------
                        Orbital Energies (a.u.)
 ---------------------------------------------------------------------------
 == 0-th k-point (-0.16275,-0.14997,-0.11765) occupation: 84==
 -9.69275 -9.69275 -9.69274 -9.69274 -9.69272 -9.69272 -9.69272 -9.69271 -9.69237 -9.69237
 -9.69237 -9.69236 -9.69232 -9.69232 -9.69232 -9.69231 -9.69111 -9.69110 -9.69110 -9.69110
 -9.69109 -9.69109 -9.69109 -9.69109 -0.57430 -0.57339 -0.57276 -0.57265 -0.47310 -0.47191
 -0.47157 -0.47129 -0.46794 -0.46748 -0.46697 -0.46661 -0.33911 -0.33851 -0.33792 -0.33713
 -0.33320 -0.33262 -0.33233 -0.33119 -0.26680 -0.26236 -0.26215 -0.25970 -0.20357 -0.20183
 -0.20016 -0.19862 -0.19054 -0.19009 -0.18991 -0.18970 -0.17501 -0.17454 -0.17376 -0.17020
 -0.15972 -0.15866 -0.15677 -0.15546 -0.12611 -0.12346 -0.11978 -0.11834 -0.09619 -0.09515
 -0.09425 -0.09340 -0.08675 -0.08485 -0.08392 -0.08297 -0.02884 -0.02771 -0.02614 -0.02502
 -0.02291 -0.02106 -0.01896 -0.01828 0.15653 0.15673 0.15926 0.16035 0.17083 0.17226
 0.17467 0.17588 0.23317 0.25074 0.25655 0.25679 0.27165 0.27764 0.28056 0.28849
 0.30292 0.30450 0.30687 0.30766 0.31903 0.33403 0.33836 0.34354 0.34892 0.35541
 0.36371 0.36829 0.37365 0.38462 0.38887 0.39217 0.39913 0.40801 0.41287 0.41543
 0.43705 0.44204 0.44825 0.44973 0.45556 0.46255 0.46519 0.46633 0.47220 0.47716
 0.48330 0.49015 0.49375 0.49731 0.50454 0.51226 0.54662 0.54929 0.56374 0.58200
 0.58484 0.58615 0.59399 0.60521 0.60925 0.60990 0.61730 0.62574 0.63865 0.64864
 0.65215 0.65761 0.66542 0.66997 0.67492 0.67670 0.68706 0.69308 0.70137 0.70438
 0.70791 0.70977 0.71259 0.71430 0.73372 0.73754 0.74397 0.75467 0.75582 0.75919
 0.76812 0.77123 0.77594 0.77809 0.78803 0.79507 0.80141 0.80648 0.81025 0.81895
 0.82402 0.83387 0.83886 0.84337 0.85321 0.86515 0.86739 0.87148 0.87422 0.87750
 0.88518 0.88827 0.88958 0.89412 0.89558 0.90580 0.90947 0.91369 0.91827 0.92112
 0.94230 0.94620 0.95338 0.95747 0.97407 0.97790 0.98626 0.99411 1.00513 1.01263
 1.02250 1.03251 1.04990 1.05438 1.05842 1.06052 1.06832 1.07147 1.07720 1.08017
 1.09794 1.10383 1.10695 1.11310 1.12298 1.12878 1.13087 1.13501 1.14538 1.14658
 1.15082 1.15548 1.15610 1.16222 1.16432 1.16619 1.17646 1.18237 1.19646 1.20051
 1.20292 1.20702 1.21260 1.21322 1.22075 1.22527 1.22907 1.23326 1.24122 1.24545
 1.24570 1.25146 1.26613 1.27070 1.28276 1.28955 1.30393 1.31115 1.31693 1.33150
 1.34089 1.34472 1.35261 1.35545 1.36193 1.36652 1.37153 1.37772 1.38664 1.39962
 1.40313 1.41319 1.42093 1.42831 1.43836 1.44817 1.45524 1.45695 1.46420 1.48043
 1.49012 1.50334 1.50600 1.51428 1.54760 1.55259 1.55601 1.56516 1.62944 1.63123
 1.63565 1.63989 1.65265 1.65521 1.66720 1.67153 1.69439 1.70099 1.70847 1.71035
 1.71667 1.72188 1.73389 1.74252 1.76818 1.76909 1.77447 1.77629 1.78652 1.78773
 1.79203 1.79342 1.79754 1.80266 1.80764 1.81293 1.81452 1.81734 1.81991 1.82096
 1.82490 1.82548 1.83340 1.83705 1.84120 1.84514 1.84958 1.85017 1.85325 1.85715
 1.85969 1.86313 1.87198 1.87373 1.88033 1.88629 1.89257 1.89777 1.90201 1.90637
 1.91274 1.91842 1.92402 1.92831 1.94512 1.94805 1.95069 1.95685 1.96026 1.96606
 1.96897 1.97241 1.97623 1.98160 1.98527 1.99458 2.01000 2.01162 2.01497 2.01804
 2.03275 2.03682 2.04088 2.04250 2.04917 2.05778 2.05851 2.06109 2.07814 2.08319
 2.09275 2.09699 2.10893 2.11631 2.11997 2.12764 2.13574 2.15026 2.15062 2.15732
 2.16018 2.17450 2.17975 2.18722 2.19053 2.20710 2.21324 2.24020 2.24102 2.25080
 2.25744 2.27152 2.31528 2.32225 2.32792 2.33019 2.33218 2.33282 2.34797 2.35984
 2.38820 2.39092 2.40293 2.41078 2.43985 2.44031 2.44988 2.48101 2.59470 2.60337
 2.60539 2.62264 2.64093 2.65009 2.65467 2.65892 2.66305 2.67238 2.68120 2.68969
 2.70204 2.70879 2.72544 2.72632 2.73108 2.74461 2.75789 2.77249 2.79336 2.79834
 2.80569 2.80789 2.82693 2.83609 2.84582 2.85902 2.91531 2.92961 2.93286 2.94179
 2.94571 2.95168 2.95862 2.96274 3.08968 3.09182 3.09406 3.10362 3.12831 3.13199
 3.13697 3.14889 3.79329 3.79590 3.80161 3.81104
 == 1-th k-point (-0.16275,-0.14997,0.00000) occupation: 84==
 -9.69275 -9.69275 -9.69274 -9.69274 -9.69273 -9.69272 -9.69271 -9.69271 -9.69237 -9.69237
 -9.69237 -9.69236 -9.69232 -9.69232 -9.69232 -9.69231 -9.69111 -9.69111 -9.69110 -9.69110
 -9.69110 -9.69109 -9.69109 -9.69109 -0.57475 -0.57292 -0.57281 -0.57259 -0.47343 -0.47090
 -0.47062 -0.46998 -0.46941 -0.46815 -0.46759 -0.46699 -0.33846 -0.33765 -0.33596 -0.33508
 -0.33491 -0.33391 -0.33380 -0.33151 -0.27048 -0.26293 -0.26288 -0.25643 -0.20473 -0.20272
 -0.19749 -0.19635 -0.19108 -0.19048 -0.18978 -0.18946 -0.17184 -0.17125 -0.17066 -0.16590
 -0.16501 -0.16246 -0.16189 -0.15754 -0.12699 -0.12330 -0.12102 -0.11820 -0.09473 -0.09440
 -0.09247 -0.09093 -0.09002 -0.08601 -0.08361 -0.08284 -0.02856 -0.02606 -0.02598 -0.02489
 -0.02351 -0.02040 -0.01971 -0.01920 0.15838 0.15922 0.16128 0.16389 0.16837 0.16982
 0.17099 0.17425 0.22601 0.25382 0.25498 0.25912 0.27477 0.28109 0.28340 0.29659
 0.30022 0.30166 0.30473 0.30595 0.31711 0.32173 0.33371 0.33528 0.35382 0.36464
 0.36512 0.37254 0.38274 0.38566 0.39246 0.40203 0.40817 0.41870 0.41981 0.42458
 0.42546 0.43574 0.43945 0.44915 0.45529 0.45580 0.46037 0.47109 0.47429 0.47911
 0.47947 0.48411 0.48796 0.49820 0.51116 0.51172 0.52687 0.53732 0.55307 0.56847
 0.59711 0.59842 0.61004 0.61266 0.62151 0.62553 0.62572 0.63203 0.64108 0.65249
 0.65362 0.65947 0.66029 0.66741 0.67082 0.68639 0.68937 0.68996 0.69456 0.69844
 0.70198 0.70943 0.71631 0.72162 0.72307 0.72761 0.72891 0.73853 0.74562 0.75213
 0.76505 0.76576 0.76829 0.78103 0.78778 0.79484 0.80175 0.81424 0.81928 0.82437
 0.83345 0.83591 0.85285 0.85633 0.85720 0.85839 0.86168 0.86838 0.86916 0.86986
 0.87701 0.88235 0.88578 0.88774 0.90281 0.90534 0.91797 0.91940 0.92350 0.93830
 0.94099 0.94443 0.95253 0.95900 0.95930 0.96730 0.97779 0.99296 0.99485 1.01912
 1.01973 1.05035 1.05191 1.05535 1.06230 1.06365 1.06804 1.07231 1.08212 1.08407
 1.09713 1.10402 1.10490 1.11061 1.12198 1.13003 1.13149 1.13556 1.14228 1.14857
 1.15656 1.15807 1.15983 1.16152 1.16686 1.16809 1.17507 1.18010 1.18357 1.19285
 1.19564 1.20613 1.20961 1.21420 1.22540 1.22938 1.22964 1.23270 1.23553 1.24407
 1.24555 1.24815 1.25928 1.28296 1.28324 1.28761 1.30371 1.30529 1.30937 1.33914
 1.34348 1.35247 1.35358 1.35827 1.36283 1.36527 1.36827 1.37693 1.38106 1.39722
 1.40731 1.40756 1.42199 1.42783 1.42811 1.43894 1.47623 1.48113 1.48317 1.48407
 1.49618 1.50298 1.51403 1.52055 1.52320 1.54283 1.55433 1.56203 1.63079 1.63291
 1.63570 1.64364 1.64883 1.65287 1.68286 1.68797 1.68996 1.70197 1.70284 1.71182
 1.71789 1.72292 1.72814 1.74049 1.75995 1.77249 1.77421 1.77856 1.77960 1.78538
 1.78716 1.78785 1.79274 1.80071 1.80636 1.80658 1.81524 1.81874 1.81989 1.82459
 1.82617 1.82709 1.83249 1.83318 1.83782 1.84348 1.84544 1.84985 1.85434 1.85700
 1.85815 1.86182 1.86835 1.88124 1.88380 1.88698 1.89562 1.90276 1.90682 1.91162
 1.91174 1.91798 1.92543 1.93759 1.94751 1.94802 1.95249 1.95342 1.96066 1.96544
 1.96956 1.97278 1.97800 1.97861 1.98586 2.00147 2.00288 2.01075 2.01550 2.01654
 2.03125 2.04020 2.04323 2.04621 2.04880 2.05065 2.05633 2.06391 2.06761 2.08411
 2.09847 2.10294 2.11136 2.11924 2.12719 2.13062 2.13107 2.13900 2.14077 2.15554
 2.15685 2.16496 2.18799 2.18804 2.19283 2.20153 2.23511 2.23936 2.26172 2.26636
 2.27219 2.28420 2.29358 2.32094 2.32550 2.33143 2.33271 2.34104 2.34316 2.35099
 2.38830 2.38934 2.39446 2.40149 2.44142 2.44949 2.46278 2.50076 2.58809 2.60038
 2.60661 2.62772 2.63727 2.63872 2.64991 2.65529 2.66401 2.68275 2.68497 2.70433
 2.70614 2.71780 2.71927 2.73231 2.73551 2.73849 2.76347 2.79152 2.80057 2.80159
 2.80534 2.81214 2.81523 2.82505 2.82537 2.85626 2.89699 2.92556 2.93284 2.94910
 2.95863 2.96088 2.96584 2.97566 3.09099 3.09256 3.10147 3.10876 3.11336 3.12203
 3.13410 3.13678 3.78878 3.79764 3.80725 3.82369
 == 2-th k-point (-0.16275,-0.14997,0.11765) occupation: 84==
 -9.69275 -9.69275 -9.69274 -9.69274 -9.69272 -9.69272 -9.69272 -9.69271 -9.69237 -9.69237
 -9.69237 -9.69236 -9.69232 -9.69232 -9.69232 -9.69231 -9.69111 -9.69111 -9.69110 -9.69110
 -9.69109 -9.69109 -9.69109 -9.69109 -0.57430 -0.57339 -0.57276 -0.57265 -0.47310 -0.47191
 -0.47157 -0.47129 -0.46794 -0.46748 -0.46697 -0.46661 -0.33911 -0.33851 -0.33792 -0.33713
 -0.33320 -0.33262 -0.33233 -0.33119 -0.26680 -0.26236 -0.26215 -0.25970 -0.20357 -0.20184
 -0.20016 -0.19862 -0.19054 -0.19009 -0.18991 -0.18970 -0.17501 -0.17453 -0.17376 -0.17020
 -0.15972 -0.15866 -0.15677 -0.15546 -0.12611 -0.12346 -0.11978 -0.11834 -0.09619 -0.09515
 -0.09425 -0.09340 -0.08675 -0.08485 -0.08392 -0.08297 -0.02884 -0.02771 -0.02614 -0.02502
 -0.02291 -0.02106 -0.01896 -0.01828 0.15653 0.15673 0.15927 0.16034 0.17083 0.17227
 0.17467 0.17588 0.23317 0.25074 0.25655 0.25679 0.27165 0.27764 0.28056 0.28849
 0.30292 0.30450 0.30687 0.30766 0.31903 0.33403 0.33837 0.34354 0.34892 0.35541
 0.36371 0.36828 0.37365 0.38462 0.38887 0.39217 0.39913 0.40801 0.41287 0.41543
 0.43705 0.44204 0.44825 0.44973 0.45556 0.46255 0.46519 0.46633 0.47220 0.47716
 0.48330 0.49015 0.49375 0.49731 0.50454 0.51226 0.54662 0.54929 0.56374 0.58200
 0.58484 0.58615 0.59399 0.60521 0.60925 0.60990 0.61730 0.62574 0.63865 0.64864
 0.65215 0.65761 0.66542 0.66997 0.67492 0.67670 0.68706 0.69308 0.70137 0.70438
 0.70791 0.70977 0.71259 0.71429 0.73372 0.73754 0.74397 0.75467 0.75582 0.75919
 0.76812 0.77123 0.77594 0.77809 0.78803 0.79507 0.80141 0.80648 0.81025 0.81895
 0.82402 0.83387 0.83886 0.84337 0.85321 0.86515 0.86739 0.87148 0.87422 0.87750
 0.88518 0.88827 0.88958 0.89412 0.89558 0.90580 0.90947 0.91369 0.91827 0.92112
 0.94230 0.94620 0.95338 0.95747 0.97407 0.97790 0.98626 0.99411 1.00513 1.01263
 1.02250 1.03251 1.04990 1.05438 1.05842 1.06052 1.06832 1.07147 1.07720 1.08017
 1.09794 1.10383 1.10695 1.11310 1.12298 1.12878 1.13087 1.13501 1.14538 1.14658
 1.15082 1.15548 1.15610 1.16222 1.16432 1.16619 1.17647 1.18237 1.19646 1.20051
 1.20292 1.20702 1.21260 1.21322 1.22075 1.22527 1.22906 1.23326 1.24122 1.24545
 1.24570 1.25146 1.26613 1.27070 1.28276 1.28955 1.30393 1.31115 1.31693 1.33150
 1.34089 1.34472 1.35261 1.35545 1.36193 1.36652 1.37153 1.37772 1.38664 1.39962
 1.40313 1.41319 1.42093 1.42831 1.43836 1.44817 1.45523 1.45695 1.46420 1.48043
 1.49012 1.50334 1.50600 1.51428 1.54760 1.55259 1.55601 1.56516 1.62944 1.63123
 1.63565 1.63989 1.65265 1.65521 1.66720 1.67153 1.69439 1.70099 1.70847 1.71035
 1.71667 1.72188 1.73389 1.74252 1.76818 1.76909 1.77447 1.77629 1.78652 1.78773
 1.79203 1.79342 1.79754 1.80266 1.80764 1.81293 1.81452 1.81734 1.81991 1.82096
 1.82490 1.82548 1.83340 1.83705 1.84120 1.84514 1.84958 1.85017 1.85325 1.85715
 1.85969 1.86313 1.87198 1.87373 1.88033 1.88629 1.89257 1.89777 1.90201 1.90637
 1.91274 1.91842 1.92402 1.92831 1.94512 1.94805 1.95069 1.95685 1.96026 1.96606
[...]
 2.62033 2.62321 2.62941 2.62968 2.63956 2.64434 2.65556 2.66767 2.66959 2.69816
 2.70589 2.70846 2.71427 2.72010 2.73002 2.74506 2.76359 2.76850 2.79296 2.79568
 2.81427 2.81668 2.81880 2.82346 2.83745 2.87299 2.89547 2.92271 2.92973 2.93161
 2.95916 2.96319 2.96428 2.98254 3.09156 3.09637 3.10596 3.10813 3.10870 3.12033
 3.13674 3.14680 3.78731 3.79890 3.80532 3.83310
 == 23-th k-point (0.16275,0.00000,0.11765) occupation: 84==
 -9.69276 -9.69275 -9.69274 -9.69274 -9.69273 -9.69272 -9.69271 -9.69271 -9.69237 -9.69236
 -9.69236 -9.69236 -9.69232 -9.69232 -9.69232 -9.69231 -9.69111 -9.69111 -9.69110 -9.69110
 -9.69109 -9.69109 -9.69109 -9.69108 -0.57508 -0.57378 -0.57230 -0.57199 -0.47324 -0.47141
 -0.47035 -0.47024 -0.46855 -0.46854 -0.46724 -0.46711 -0.33997 -0.33865 -0.33743 -0.33615
 -0.33430 -0.33282 -0.33238 -0.33005 -0.26938 -0.26438 -0.26048 -0.25938 -0.20371 -0.20046
 -0.19979 -0.19712 -0.19063 -0.19035 -0.19001 -0.18947 -0.17177 -0.17110 -0.17027 -0.16959
 -0.16081 -0.16049 -0.15848 -0.15777 -0.12663 -0.12517 -0.12389 -0.12368 -0.09562 -0.09424
 -0.09295 -0.09241 -0.08595 -0.08494 -0.08276 -0.08215 -0.03035 -0.02961 -0.02526 -0.02522
 -0.02488 -0.02133 -0.01712 -0.01629 0.15744 0.15770 0.16386 0.16398 0.16729 0.16986
 0.17495 0.17519 0.22672 0.25002 0.26466 0.26859 0.27350 0.28345 0.29203 0.29477
 0.30004 0.30173 0.30241 0.30497 0.31505 0.31921 0.33308 0.34135 0.34503 0.35739
 0.36927 0.37205 0.37682 0.38147 0.39501 0.40328 0.40487 0.40762 0.40856 0.42428
 0.43260 0.43829 0.43900 0.44506 0.44877 0.45076 0.45333 0.46140 0.47017 0.47402
 0.48094 0.48203 0.50904 0.51601 0.51643 0.51694 0.53820 0.54898 0.55261 0.57915
 0.58764 0.58937 0.60173 0.61367 0.61877 0.62042 0.63214 0.64097 0.64203 0.64896
 0.65856 0.66582 0.67257 0.67446 0.68166 0.68229 0.68519 0.68629 0.70202 0.70531
 0.70678 0.71245 0.72383 0.72766 0.73220 0.73609 0.73671 0.73955 0.74065 0.74535
 0.75785 0.76544 0.76873 0.78453 0.79504 0.80136 0.80218 0.81062 0.81321 0.81700
 0.82111 0.83769 0.83819 0.84365 0.84424 0.84713 0.85089 0.86349 0.87333 0.87910
 0.88458 0.88679 0.89665 0.89738 0.90300 0.91223 0.91455 0.91995 0.92052 0.92587
 0.92794 0.93598 0.94011 0.94125 0.96746 0.98318 0.98566 0.99637 1.00867 1.01525
 1.02394 1.02862 1.03842 1.05044 1.06049 1.06194 1.06733 1.06956 1.07964 1.08117
 1.09199 1.09917 1.09920 1.11169 1.12762 1.12906 1.13267 1.13680 1.14116 1.15280
 1.15434 1.15827 1.17314 1.17522 1.17835 1.18115 1.18121 1.19210 1.19547 1.20204
 1.20411 1.20596 1.20754 1.21046 1.22104 1.22237 1.22646 1.23089 1.24275 1.24680
 1.25396 1.26856 1.27087 1.27591 1.27633 1.28803 1.31322 1.31903 1.32033 1.32160
 1.32503 1.33031 1.34216 1.35079 1.35895 1.35985 1.37399 1.38307 1.39376 1.39536
 1.39830 1.40917 1.41475 1.42958 1.43308 1.43464 1.44330 1.44917 1.45179 1.47132
 1.48497 1.50873 1.50875 1.52694 1.55695 1.56029 1.56438 1.56643 1.63084 1.63485
 1.63918 1.64883 1.65586 1.65957 1.66020 1.66800 1.68720 1.69075 1.70037 1.70083
 1.70844 1.71438 1.73261 1.74138 1.75460 1.76233 1.76844 1.77037 1.77060 1.77775
 1.78127 1.78668 1.79164 1.79456 1.80159 1.80379 1.80617 1.81084 1.82039 1.82111
 1.82402 1.82876 1.82971 1.84084 1.84791 1.84873 1.85082 1.85279 1.85424 1.85586
 1.86367 1.86893 1.87740 1.88729 1.89315 1.89875 1.89890 1.90489 1.91636 1.92151
 1.92641 1.92749 1.93498 1.93780 1.94532 1.94546 1.94737 1.95479 1.96062 1.96765
 1.97173 1.97321 1.98553 1.98719 1.99125 2.00368 2.00580 2.01160 2.01825 2.02406
 2.03138 2.03165 2.03756 2.03935 2.04277 2.05188 2.05711 2.06335 2.07469 2.08787
 2.09983 2.11107 2.11205 2.11778 2.12587 2.13166 2.13436 2.13992 2.14876 2.15275
 2.15598 2.16685 2.17252 2.19162 2.19940 2.20258 2.20994 2.24423 2.24934 2.25622
 2.26218 2.27729 2.31737 2.32369 2.32717 2.33084 2.33113 2.33852 2.34300 2.34622
 2.38700 2.40359 2.42462 2.43217 2.44292 2.45570 2.46480 2.47072 2.59191 2.59755
 2.61271 2.62719 2.62907 2.63342 2.64900 2.65120 2.66033 2.66938 2.67425 2.68360
 2.69353 2.70274 2.70814 2.71470 2.73435 2.74583 2.75611 2.76672 2.78864 2.80348
 2.81427 2.81732 2.82549 2.83516 2.83913 2.86745 2.90606 2.92227 2.92561 2.93512
 2.95202 2.95346 2.96306 2.96367 3.09131 3.09367 3.10482 3.11474 3.11846 3.12522
 3.13909 3.15200 3.79293 3.79909 3.79913 3.81763
 == 24-th k-point (0.16275,0.14997,-0.11765) occupation: 84==
 -9.69275 -9.69275 -9.69274 -9.69274 -9.69272 -9.69272 -9.69272 -9.69271 -9.69237 -9.69237
 -9.69237 -9.69236 -9.69232 -9.69232 -9.69232 -9.69231 -9.69111 -9.69111 -9.69110 -9.69110
 -9.69109 -9.69109 -9.69109 -9.69109 -0.57430 -0.57339 -0.57276 -0.57265 -0.47310 -0.47191
 -0.47157 -0.47129 -0.46794 -0.46748 -0.46697 -0.46661 -0.33911 -0.33851 -0.33792 -0.33713
 -0.33320 -0.33262 -0.33233 -0.33119 -0.26680 -0.26236 -0.26215 -0.25970 -0.20357 -0.20184
 -0.20016 -0.19862 -0.19054 -0.19009 -0.18991 -0.18970 -0.17501 -0.17453 -0.17376 -0.17020
 -0.15972 -0.15866 -0.15677 -0.15546 -0.12611 -0.12346 -0.11978 -0.11834 -0.09619 -0.09515
 -0.09425 -0.09340 -0.08675 -0.08485 -0.08392 -0.08297 -0.02884 -0.02771 -0.02614 -0.02502
 -0.02291 -0.02106 -0.01896 -0.01828 0.15653 0.15673 0.15927 0.16034 0.17083 0.17227
 0.17467 0.17588 0.23317 0.25074 0.25655 0.25679 0.27165 0.27764 0.28056 0.28849
 0.30292 0.30450 0.30687 0.30766 0.31903 0.33403 0.33837 0.34354 0.34892 0.35541
 0.36371 0.36828 0.37365 0.38462 0.38887 0.39217 0.39913 0.40801 0.41287 0.41543
 0.43705 0.44204 0.44825 0.44973 0.45556 0.46255 0.46519 0.46633 0.47220 0.47716
 0.48330 0.49015 0.49375 0.49731 0.50454 0.51226 0.54662 0.54929 0.56374 0.58200
 0.58484 0.58615 0.59399 0.60521 0.60925 0.60990 0.61730 0.62574 0.63865 0.64864
 0.65215 0.65761 0.66542 0.66997 0.67492 0.67670 0.68706 0.69308 0.70137 0.70438
 0.70791 0.70977 0.71259 0.71429 0.73372 0.73754 0.74397 0.75467 0.75582 0.75919
 0.76812 0.77123 0.77594 0.77809 0.78803 0.79507 0.80141 0.80648 0.81025 0.81895
 0.82402 0.83387 0.83886 0.84337 0.85321 0.86515 0.86739 0.87148 0.87422 0.87750
 0.88518 0.88827 0.88958 0.89412 0.89558 0.90580 0.90947 0.91369 0.91827 0.92112
 0.94230 0.94620 0.95338 0.95747 0.97407 0.97790 0.98626 0.99411 1.00513 1.01263
 1.02250 1.03251 1.04990 1.05438 1.05842 1.06052 1.06832 1.07147 1.07720 1.08017
 1.09794 1.10383 1.10695 1.11310 1.12298 1.12878 1.13087 1.13501 1.14538 1.14658
 1.15082 1.15548 1.15610 1.16222 1.16432 1.16619 1.17647 1.18237 1.19646 1.20051
 1.20292 1.20702 1.21260 1.21322 1.22075 1.22527 1.22906 1.23326 1.24122 1.24545
 1.24570 1.25146 1.26613 1.27070 1.28276 1.28955 1.30393 1.31115 1.31693 1.33150
 1.34089 1.34472 1.35261 1.35545 1.36193 1.36652 1.37153 1.37772 1.38664 1.39962
 1.40313 1.41319 1.42093 1.42831 1.43836 1.44817 1.45523 1.45695 1.46420 1.48043
 1.49012 1.50334 1.50600 1.51428 1.54760 1.55259 1.55601 1.56516 1.62944 1.63123
 1.63565 1.63989 1.65265 1.65521 1.66720 1.67153 1.69439 1.70099 1.70847 1.71035
 1.71667 1.72188 1.73389 1.74252 1.76818 1.76909 1.77447 1.77629 1.78652 1.78773
 1.79203 1.79342 1.79754 1.80266 1.80764 1.81293 1.81452 1.81734 1.81991 1.82096
 1.82490 1.82548 1.83340 1.83705 1.84120 1.84514 1.84958 1.85017 1.85325 1.85715
 1.85969 1.86313 1.87198 1.87373 1.88033 1.88629 1.89257 1.89777 1.90201 1.90637
 1.91274 1.91842 1.92402 1.92831 1.94512 1.94805 1.95069 1.95685 1.96026 1.96606
 1.96897 1.97241 1.97623 1.98160 1.98527 1.99458 2.01000 2.01162 2.01497 2.01804
 2.03275 2.03682 2.04088 2.04250 2.04917 2.05778 2.05851 2.06109 2.07814 2.08319
 2.09275 2.09699 2.10893 2.11631 2.11997 2.12764 2.13574 2.15026 2.15062 2.15732
 2.16018 2.17450 2.17975 2.18722 2.19053 2.20710 2.21324 2.24020 2.24102 2.25080
 2.25744 2.27152 2.31528 2.32225 2.32792 2.33019 2.33218 2.33282 2.34797 2.35984
 2.38820 2.39092 2.40293 2.41078 2.43985 2.44031 2.44988 2.48101 2.59470 2.60337
 2.60539 2.62264 2.64093 2.65009 2.65467 2.65892 2.66305 2.67238 2.68120 2.68969
 2.70204 2.70879 2.72543 2.72632 2.73108 2.74461 2.75789 2.77249 2.79336 2.79834
 2.80569 2.80789 2.82693 2.83609 2.84582 2.85902 2.91531 2.92961 2.93286 2.94179
 2.94571 2.95168 2.95862 2.96274 3.08968 3.09182 3.09406 3.10362 3.12831 3.13199
 3.13697 3.14889 3.79329 3.79590 3.80161 3.81104
 == 25-th k-point (0.16275,0.14997,0.00000) occupation: 84==
 -9.69275 -9.69275 -9.69274 -9.69274 -9.69273 -9.69272 -9.69271 -9.69271 -9.69237 -9.69237
 -9.69237 -9.69236 -9.69232 -9.69232 -9.69232 -9.69231 -9.69111 -9.69111 -9.69110 -9.69110
 -9.69110 -9.69109 -9.69109 -9.69109 -0.57475 -0.57292 -0.57281 -0.57259 -0.47343 -0.47090
 -0.47062 -0.46998 -0.46941 -0.46815 -0.46759 -0.46699 -0.33846 -0.33765 -0.33596 -0.33508
 -0.33491 -0.33391 -0.33380 -0.33151 -0.27048 -0.26293 -0.26288 -0.25643 -0.20473 -0.20272
 -0.19749 -0.19635 -0.19108 -0.19048 -0.18978 -0.18946 -0.17184 -0.17125 -0.17066 -0.16590
 -0.16501 -0.16246 -0.16189 -0.15754 -0.12699 -0.12330 -0.12102 -0.11820 -0.09473 -0.09440
 -0.09247 -0.09093 -0.09002 -0.08601 -0.08361 -0.08284 -0.02856 -0.02606 -0.02598 -0.02489
 -0.02351 -0.02040 -0.01971 -0.01920 0.15838 0.15922 0.16128 0.16389 0.16837 0.16982
 0.17099 0.17425 0.22601 0.25382 0.25498 0.25912 0.27477 0.28109 0.28340 0.29659
 0.30022 0.30166 0.30473 0.30595 0.31711 0.32173 0.33371 0.33528 0.35382 0.36464
 0.36512 0.37254 0.38274 0.38566 0.39246 0.40203 0.40817 0.41870 0.41981 0.42458
 0.42546 0.43574 0.43945 0.44915 0.45529 0.45580 0.46037 0.47109 0.47429 0.47911
 0.47947 0.48411 0.48796 0.49820 0.51116 0.51172 0.52687 0.53732 0.55307 0.56847
 0.59711 0.59842 0.61004 0.61266 0.62151 0.62553 0.62572 0.63203 0.64108 0.65249
 0.65362 0.65947 0.66029 0.66741 0.67082 0.68639 0.68937 0.68996 0.69456 0.69844
 0.70198 0.70943 0.71631 0.72162 0.72307 0.72761 0.72891 0.73853 0.74562 0.75213
 0.76505 0.76576 0.76829 0.78103 0.78778 0.79484 0.80175 0.81424 0.81928 0.82437
 0.83345 0.83591 0.85285 0.85633 0.85720 0.85839 0.86168 0.86838 0.86916 0.86986
 0.87701 0.88235 0.88578 0.88774 0.90281 0.90534 0.91797 0.91940 0.92350 0.93830
 0.94099 0.94443 0.95253 0.95900 0.95930 0.96730 0.97779 0.99296 0.99485 1.01912
 1.01973 1.05035 1.05191 1.05535 1.06230 1.06365 1.06804 1.07231 1.08212 1.08407
 1.09713 1.10402 1.10490 1.11061 1.12198 1.13003 1.13149 1.13556 1.14228 1.14857
 1.15656 1.15807 1.15983 1.16152 1.16686 1.16809 1.17507 1.18010 1.18357 1.19285
 1.19564 1.20613 1.20961 1.21420 1.22540 1.22938 1.22964 1.23270 1.23553 1.24407
 1.24555 1.24815 1.25928 1.28296 1.28324 1.28761 1.30371 1.30529 1.30937 1.33914
 1.34348 1.35247 1.35358 1.35827 1.36283 1.36527 1.36827 1.37693 1.38106 1.39722
 1.40731 1.40756 1.42199 1.42783 1.42811 1.43894 1.47623 1.48113 1.48317 1.48407
 1.49618 1.50298 1.51403 1.52055 1.52320 1.54283 1.55433 1.56203 1.63079 1.63291
 1.63570 1.64364 1.64883 1.65287 1.68286 1.68797 1.68996 1.70197 1.70284 1.71182
 1.71789 1.72292 1.72814 1.74049 1.75995 1.77249 1.77421 1.77856 1.77960 1.78538
 1.78716 1.78785 1.79274 1.80071 1.80636 1.80658 1.81524 1.81874 1.81989 1.82459
 1.82617 1.82709 1.83249 1.83318 1.83782 1.84348 1.84544 1.84985 1.85434 1.85700
 1.85815 1.86182 1.86835 1.88124 1.88380 1.88698 1.89562 1.90276 1.90682 1.91162
 1.91174 1.91798 1.92543 1.93759 1.94751 1.94802 1.95249 1.95342 1.96066 1.96544
 1.96956 1.97278 1.97800 1.97861 1.98586 2.00147 2.00288 2.01075 2.01550 2.01654
 2.03125 2.04020 2.04323 2.04621 2.04880 2.05065 2.05633 2.06391 2.06761 2.08411
 2.09847 2.10294 2.11136 2.11924 2.12719 2.13062 2.13107 2.13900 2.14077 2.15554
 2.15685 2.16496 2.18799 2.18804 2.19283 2.20153 2.23511 2.23936 2.26172 2.26636
 2.27219 2.28420 2.29358 2.32094 2.32550 2.33143 2.33271 2.34104 2.34316 2.35099
 2.38830 2.38934 2.39446 2.40149 2.44142 2.44949 2.46278 2.50076 2.58809 2.60038
 2.60661 2.62772 2.63727 2.63872 2.64991 2.65529 2.66401 2.68275 2.68497 2.70433
 2.70614 2.71780 2.71927 2.73231 2.73551 2.73849 2.76347 2.79152 2.80057 2.80159
 2.80534 2.81214 2.81523 2.82505 2.82537 2.85626 2.89699 2.92556 2.93284 2.94910
 2.95863 2.96088 2.96584 2.97566 3.09099 3.09256 3.10147 3.10876 3.11336 3.12203
 3.13410 3.13678 3.78878 3.79764 3.80725 3.82369
 == 26-th k-point (0.16275,0.14997,0.11765) occupation: 84==
 -9.69275 -9.69275 -9.69274 -9.69274 -9.69272 -9.69272 -9.69272 -9.69271 -9.69237 -9.69237
 -9.69237 -9.69236 -9.69232 -9.69232 -9.69232 -9.69231 -9.69111 -9.69110 -9.69110 -9.69110
 -9.69109 -9.69109 -9.69109 -9.69109 -0.57430 -0.57339 -0.57276 -0.57265 -0.47310 -0.47191
 -0.47157 -0.47129 -0.46794 -0.46748 -0.46697 -0.46661 -0.33911 -0.33851 -0.33792 -0.33713
 -0.33320 -0.33262 -0.33233 -0.33119 -0.26680 -0.26236 -0.26215 -0.25970 -0.20357 -0.20183
 -0.20016 -0.19862 -0.19054 -0.19009 -0.18991 -0.18970 -0.17501 -0.17454 -0.17376 -0.17020
 -0.15972 -0.15866 -0.15677 -0.15546 -0.12611 -0.12346 -0.11978 -0.11834 -0.09619 -0.09515
 -0.09425 -0.09340 -0.08675 -0.08485 -0.08392 -0.08297 -0.02884 -0.02771 -0.02614 -0.02502
 -0.02291 -0.02106 -0.01896 -0.01828 0.15653 0.15673 0.15926 0.16035 0.17083 0.17226
 0.17467 0.17588 0.23317 0.25074 0.25655 0.25679 0.27165 0.27764 0.28056 0.28849
 0.30292 0.30450 0.30687 0.30766 0.31903 0.33403 0.33836 0.34354 0.34892 0.35541
 0.36371 0.36829 0.37365 0.38462 0.38887 0.39217 0.39913 0.40801 0.41287 0.41543
 0.43705 0.44204 0.44825 0.44973 0.45556 0.46255 0.46519 0.46633 0.47220 0.47716
 0.48330 0.49015 0.49375 0.49731 0.50454 0.51226 0.54662 0.54929 0.56374 0.58200
 0.58484 0.58615 0.59399 0.60521 0.60925 0.60990 0.61730 0.62574 0.63865 0.64864
 0.65215 0.65761 0.66542 0.66997 0.67492 0.67670 0.68706 0.69308 0.70137 0.70438
 0.70791 0.70977 0.71259 0.71430 0.73372 0.73754 0.74397 0.75467 0.75582 0.75919
 0.76812 0.77123 0.77594 0.77809 0.78803 0.79507 0.80141 0.80648 0.81025 0.81895
 0.82402 0.83387 0.83886 0.84337 0.85321 0.86515 0.86739 0.87148 0.87422 0.87750
 0.88518 0.88827 0.88958 0.89412 0.89558 0.90580 0.90947 0.91369 0.91827 0.92112
 0.94230 0.94620 0.95338 0.95747 0.97407 0.97790 0.98626 0.99411 1.00513 1.01263
 1.02250 1.03251 1.04990 1.05438 1.05842 1.06052 1.06832 1.07147 1.07720 1.08017
 1.09794 1.10383 1.10695 1.11310 1.12298 1.12878 1.13087 1.13501 1.14538 1.14658
 1.15082 1.15548 1.15610 1.16222 1.16432 1.16619 1.17646 1.18237 1.19646 1.20051
 1.20292 1.20702 1.21260 1.21322 1.22075 1.22527 1.22907 1.23326 1.24122 1.24545
 1.24570 1.25146 1.26613 1.27070 1.28276 1.28955 1.30393 1.31115 1.31693 1.33150
 1.34089 1.34472 1.35261 1.35545 1.36193 1.36652 1.37153 1.37772 1.38664 1.39962
 1.40313 1.41319 1.42093 1.42831 1.43836 1.44817 1.45524 1.45695 1.46420 1.48043
 1.49012 1.50334 1.50600 1.51428 1.54760 1.55259 1.55601 1.56516 1.62944 1.63123
 1.63565 1.63989 1.65265 1.65521 1.66720 1.67153 1.69439 1.70099 1.70847 1.71035
 1.71667 1.72188 1.73389 1.74252 1.76818 1.76909 1.77447 1.77629 1.78652 1.78773
 1.79203 1.79342 1.79754 1.80266 1.80764 1.81293 1.81452 1.81734 1.81991 1.82096
 1.82490 1.82548 1.83340 1.83705 1.84120 1.84514 1.84958 1.85017 1.85325 1.85715
 1.85969 1.86313 1.87198 1.87373 1.88033 1.88629 1.89257 1.89777 1.90201 1.90637
 1.91274 1.91842 1.92402 1.92831 1.94512 1.94805 1.95069 1.95685 1.96026 1.96606
 1.96897 1.97241 1.97623 1.98160 1.98527 1.99458 2.01000 2.01162 2.01497 2.01804
 2.03275 2.03682 2.04088 2.04250 2.04917 2.05778 2.05851 2.06109 2.07814 2.08319
 2.09275 2.09699 2.10893 2.11631 2.11997 2.12764 2.13574 2.15026 2.15062 2.15732
 2.16018 2.17450 2.17975 2.18722 2.19053 2.20710 2.21324 2.24020 2.24102 2.25080
 2.25744 2.27152 2.31528 2.32225 2.32792 2.33019 2.33218 2.33282 2.34797 2.35984
 2.38820 2.39092 2.40293 2.41078 2.43985 2.44031 2.44988 2.48101 2.59470 2.60337
 2.60539 2.62264 2.64093 2.65009 2.65467 2.65892 2.66305 2.67238 2.68120 2.68969
 2.70204 2.70879 2.72544 2.72632 2.73108 2.74461 2.75789 2.77249 2.79336 2.79834
 2.80569 2.80789 2.82693 2.83609 2.84582 2.85902 2.91531 2.92961 2.93286 2.94179
 2.94571 2.95168 2.95862 2.96274 3.08968 3.09182 3.09406 3.10362 3.12831 3.13199
 3.13697 3.14889 3.79329 3.79590 3.80161 3.81104
 ---------------------------------------------------------------------------
 VBM is at 13-th k-point with -0.30903 eV
 CBM is at 12-th k-point with 4.19819 eV
 Band gap is 4.50722 eV


           Ground-State Mulliken Net Atomic Charges

      Atom                 Charge (a.u.)          Spin (a.u.)
   --------------------------------------------------------
      1  C               (-0.002987,0.000000)    (0.000000,0.000000)
      2  C               (-0.002989,0.000000)    (0.000000,0.000000)
      3  C               (-0.002990,0.000000)    (0.000000,0.000000)
      4  C              (-0.003001,-0.000000)    (0.000000,0.000000)
      5  C              (-0.002997,-0.000000)    (0.000000,0.000000)
      6  C              (-0.002991,-0.000000)    (0.000000,0.000000)
      7  C              (-0.002971,-0.000000)    (0.000000,0.000000)
      8  C              (-0.002986,-0.000000)    (0.000000,0.000000)
      9  C               (0.022737,-0.000000)    (0.000000,0.000000)
     10  C               (0.022742,-0.000000)    (0.000000,0.000000)
     11  C               (0.022697,-0.000000)    (0.000000,0.000000)
     12  C               (0.022726,-0.000000)    (0.000000,0.000000)
     13  C                (0.022701,0.000000)    (0.000000,0.000000)
     14  C                (0.022708,0.000000)    (0.000000,0.000000)
     15  C                (0.022706,0.000000)    (0.000000,0.000000)
     16  C               (0.022734,-0.000000)    (0.000000,0.000000)
     17  C               (0.023864,-0.000000)    (0.000000,0.000000)
     18  C               (0.023843,-0.000000)    (0.000000,0.000000)
     19  C               (0.023852,-0.000000)    (0.000000,0.000000)
     20  C                (0.023842,0.000000)    (0.000000,0.000000)
     21  C                (0.023845,0.000000)    (0.000000,0.000000)
     22  C                (0.023838,0.000000)    (0.000000,0.000000)
     23  C                (0.023866,0.000000)    (0.000000,0.000000)
     24  C                (0.023844,0.000000)    (0.000000,0.000000)
     25  H               (-0.014167,0.000000)    (0.000000,0.000000)
     26  H               (-0.014164,0.000000)    (0.000000,0.000000)
     27  H              (-0.014162,-0.000000)    (0.000000,0.000000)
     28  H              (-0.014161,-0.000000)    (0.000000,0.000000)
     29  H              (-0.014163,-0.000000)    (0.000000,0.000000)
     30  H               (-0.014161,0.000000)    (0.000000,0.000000)
     31  H              (-0.014166,-0.000000)    (0.000000,0.000000)
     32  H              (-0.014165,-0.000000)    (0.000000,0.000000)
     33  H               (-0.007609,0.000000)    (0.000000,0.000000)
     34  H              (-0.007609,-0.000000)    (0.000000,0.000000)
     35  H               (-0.007605,0.000000)    (0.000000,0.000000)
     36  H               (-0.007607,0.000000)    (0.000000,0.000000)
     37  H              (-0.007605,-0.000000)    (0.000000,0.000000)
     38  H               (-0.007605,0.000000)    (0.000000,0.000000)
     39  H               (-0.007606,0.000000)    (0.000000,0.000000)
     40  H              (-0.007608,-0.000000)    (0.000000,0.000000)
     41  H               (-0.021812,0.000000)    (0.000000,0.000000)
     42  H              (-0.021808,-0.000000)    (0.000000,0.000000)
     43  H               (-0.021810,0.000000)    (0.000000,0.000000)
     44  H               (-0.021808,0.000000)    (0.000000,0.000000)
     45  H               (-0.021809,0.000000)    (0.000000,0.000000)
     46  H               (-0.021807,0.000000)    (0.000000,0.000000)
     47  H              (-0.021812,-0.000000)    (0.000000,0.000000)
     48  H               (-0.021809,0.000000)    (0.000000,0.000000)
   --------------------------------------------------------
  Sum of atomic charges =       (0.000000,0.000000)
  Sum of spin   charges =       (0.000000,0.000000)



 Total job time:  686.91 s.
 Wed Jul  9 19:03:56 2025


        *************************************************************
        *                                                           *
        *  Thank you very much for using QCPBC. Have a nice day.    *
        *                                                           *
        *************************************************************

Running job 1 of 1
