                  Welcome to Q-Chem
           with Periodic Boundary Condition
     A Quantum Leap Into The Future Of Chemistry

 Adam Rettig, Xintian Feng, Meng-Fu Chen, Hieu Dinh, Stephen Quiton,
 Anton Ni, Paul J. Robinson, Jinghong Zhang, Joonho Lee

Contributors to earlier versions of Q-Chem not listed above:
 Evgeny Epifanovsky, Leo Cunha, Jerome F. Gonthier, Kuan-Yu Liu
 Input file: /scratch/bdxq/hdinh//benzene_crystal_ccpvdz_omega_0.4_444.scratch20250709185738/benzene_crystal_ccpvdz_omega_0.4_444.0
 Scratch folder: /scratch/bdxq/hdinh//benzene_crystal_ccpvdz_omega_0.4_444.scratch20250709185738
 Auxillary files located at: /u/hdinh/qcpbc/qcaux
 Q-Chem begins on Wed Jul  9 18:57:38 2025

 -------------------------------------------------------------
 User input:
 -------------------------------------------------------------
 $lattice
 3
 6.8100000000 	0.0000000000 	0.0000000000
 0.0000000000 	7.3900000000 	0.0000000000
 0.0000000000 	0.0000000000 	9.4200000000
 $end
 
 $unitcell
 ABSOLUTE
 0 1
  C 	6.7630110000 	6.9414270000 	1.3122060000
  C 	6.7630110000 	4.1435730000 	6.0222060000
  C 	3.3580110000 	6.9414270000 	3.3977940000
  C 	3.3580110000 	4.1435730000 	8.1077940000
  C 	0.0469890000 	0.4485730000 	8.1077940000
  C 	0.0469890000 	3.2464270000 	3.3977940000
  C 	3.4519890000 	0.4485730000 	6.0222060000
  C 	3.4519890000 	3.2464270000 	1.3122060000
  C 	0.8580600000 	6.3723970000 	0.4210740000
  C 	0.8580600000 	4.7126030000 	5.1310740000
  C 	4.2630600000 	6.3723970000 	4.2889260000
  C 	4.2630600000 	4.7126030000 	8.9989260000
  C 	5.9519400000 	1.0176030000 	8.9989260000
  C 	5.9519400000 	2.6773970000 	4.2889260000
  C 	2.5469400000 	1.0176030000 	5.1310740000
  C 	2.5469400000 	2.6773970000 	0.4210740000
  C 	5.9076750000 	0.5690300000 	0.9024360000
  C 	5.9076750000 	3.1259700000 	5.6124360000
  C 	2.5026750000 	0.5690300000 	3.8075640000
  C 	2.5026750000 	3.1259700000 	8.5175640000
  C 	0.9023250000 	6.8209700000 	8.5175640000
  C 	0.9023250000 	4.2640300000 	3.8075640000
  C 	4.3073250000 	6.8209700000 	5.6124360000
  C 	4.3073250000 	4.2640300000 	0.9024360000
  H 	6.7262370000 	6.6170060000 	2.3568840000
  H 	6.7262370000 	4.4679940000 	7.0668840000
  H 	3.3212370000 	6.6170060000 	2.3531160000
  H 	3.3212370000 	4.4679940000 	7.0631160000
  H 	0.0837630000 	0.7729940000 	7.0631160000
  H 	0.0837630000 	2.9220060000 	2.3531160000
  H 	3.4887630000 	0.7729940000 	7.0668840000
  H 	3.4887630000 	2.9220060000 	2.3568840000
  H 	1.5261210000 	5.5735380000 	0.7357020000
  H 	1.5261210000 	5.5114620000 	5.4457020000
  H 	4.9311210000 	5.5735380000 	3.9742980000
  H 	4.9311210000 	5.5114620000 	8.6842980000
  H 	5.2838790000 	1.8164620000 	8.6842980000
  H 	5.2838790000 	1.8785380000 	3.9742980000
  H 	1.8788790000 	1.8164620000 	5.4457020000
  H 	1.8788790000 	1.8785380000 	0.7357020000
  H 	5.2028400000 	1.0131690000 	1.5835020000
  H 	5.2028400000 	2.6818310000 	6.2935020000
  H 	1.7978400000 	1.0131690000 	3.1264980000
  H 	1.7978400000 	2.6818310000 	7.8364980000
  H 	1.6071600000 	6.3768310000 	7.8364980000
  H 	1.6071600000 	4.7081690000 	3.1264980000
  H 	5.0121600000 	6.3768310000 	6.2935020000
  H 	5.0121600000 	4.7081690000 	1.5835020000
 $end
 
 $rem
 jobtype = sp
 method = pbe
 dft_d = 6
 scf_convergence = 5
 scf_guess = autosad
 scf_algorithm = gdm
 basis = cc-pvdz
 aux_basis = cc-pvtz-jk
 input_bohr = false
 
 mp_mesh = [4,4,4]
 
 integral_direct true
 bvk_cgto true
 
 thresh 14
 mem_total 500000
 threads 32
 
 MAX_SCF_CYCLES 500
 madelung = false
 omega 0.4
 do_rij_bigmem true
 automate_g true
 print_level 10
 grid_type_xc 1
 
 thresh_1e2c_sp 1e-14
 thresh_2e3c_bra_ket_sep 1e-10
 thresh_g 1e-10
 $end
 
 $rem_autosad
 incfock 1000
 scf_algorithm gdm_ls
 $end
 
 -------------------------------------------------------------
 Running PBC job

 Requested Exchange Correlation Functionals: 
  DFT Exchange:  1.00000 pbe_x
  DFT Correlation:  1.00000 pbe_c
 using 32 threads for computing.
 ---------------------------------------------------------------
      Coordinates of Atoms in Central Unit Cell (Angstroms)
    I     Atom         X            Y            Z
 ---------------------------------------------------------------
    1       C      6.763011     6.941427     1.312206
    2       C      6.763011     4.143573     6.022206
    3       C      3.358011     6.941427     3.397794
    4       C      3.358011     4.143573     8.107794
    5       C      0.046989     0.448573     8.107794
    6       C      0.046989     3.246427     3.397794
    7       C      3.451989     0.448573     6.022206
    8       C      3.451989     3.246427     1.312206
    9       C      0.858060     6.372397     0.421074
   10       C      0.858060     4.712603     5.131074
   11       C      4.263060     6.372397     4.288926
   12       C      4.263060     4.712603     8.998926
   13       C      5.951940     1.017603     8.998926
   14       C      5.951940     2.677397     4.288926
   15       C      2.546940     1.017603     5.131074
   16       C      2.546940     2.677397     0.421074
   17       C      5.907675     0.569030     0.902436
   18       C      5.907675     3.125970     5.612436
   19       C      2.502675     0.569030     3.807564
   20       C      2.502675     3.125970     8.517564
   21       C      0.902325     6.820970     8.517564
   22       C      0.902325     4.264030     3.807564
   23       C      4.307325     6.820970     5.612436
   24       C      4.307325     4.264030     0.902436
   25       H      6.726237     6.617006     2.356884
   26       H      6.726237     4.467994     7.066884
   27       H      3.321237     6.617006     2.353116
   28       H      3.321237     4.467994     7.063116
   29       H      0.083763     0.772994     7.063116
   30       H      0.083763     2.922006     2.353116
   31       H      3.488763     0.772994     7.066884
   32       H      3.488763     2.922006     2.356884
   33       H      1.526121     5.573538     0.735702
   34       H      1.526121     5.511462     5.445702
   35       H      4.931121     5.573538     3.974298
   36       H      4.931121     5.511462     8.684298
   37       H      5.283879     1.816462     8.684298
   38       H      5.283879     1.878538     3.974298
   39       H      1.878879     1.816462     5.445702
   40       H      1.878879     1.878538     0.735702
   41       H      5.202840     1.013169     1.583502
   42       H      5.202840     2.681831     6.293502
   43       H      1.797840     1.013169     3.126498
   44       H      1.797840     2.681831     7.836498
   45       H      1.607160     6.376831     7.836498
   46       H      1.607160     4.708169     3.126498
   47       H      5.012160     6.376831     6.293502
   48       H      5.012160     4.708169     1.583502
 ---------------------------------------------------------------
 --------------------------------------------------
              Lattice Vectors (Angstroms)
              X            Y            Z
 --------------------------------------------------
   X       6.810000     0.000000     0.000000
   Y       0.000000     7.390000     0.000000
   Z       0.000000     0.000000     9.420000
 --------------------------------------------------
 --------------------------------------------------
       Reciprocal Lattice Vectors (Angstroms^-1)
              X            Y            Z
 --------------------------------------------------
   X       0.922641     0.000000     0.000000
   Y       0.000000     0.850228     0.000000
   Z       0.000000     0.000000     0.667005
 --------------------------------------------------

 Single point calculation requested

 Hamiltonian contributions:
 List of terms in Hamiltonian: kpts_nn, kpts_kinetic, kpts_vnuc_df, kpts_xc, kpts_rij_bigmem, kpts_dftd3

 K-Points calculation started.

 Basis set information about using solid harmonic (1) or Cartesian (0):
  h : 
  c : D(1) 

 Basis set information about using solid harmonic (1) or Cartesian (0):
  h : D(1) D(1) F(1) 
  c : D(1) D(1) D(1) D(1) D(1) F(1) F(1) G(1) 

 There are 456 basis functions in the central unit cell.
 Print atomic basis of atoms in the central unit cell:
 -------------------------------------------------------------
48 600 600 216

  1.27802385678315e+01  1.31173959440827e+01  2.47970995909068e+00
  1.27802385678315e+01  7.83021814739398e+00  1.13803200060781e+01
  6.34572111348071e+00  1.31173959440827e+01  6.42090008789669e+00
  6.34572111348071e+00  7.83021814739398e+00  1.53215101348841e+01
  8.87963408700403e-02  8.47680116901756e-01  1.53215101348841e+01
  8.87963408700403e-02  6.13485791359047e+00  6.42090008789669e+00
  6.52331379522079e+00  8.47680116901756e-01  1.13803200060781e+01
  6.52331379522079e+00  6.13485791359047e+00  2.47970995909068e+00
  1.62149839849639e+00  1.20420850873869e+01  7.95714538200672e-01
  1.62149839849639e+00  8.90552900408978e+00  9.69632458518805e+00
  8.05601585284714e+00  1.20420850873869e+01  8.10489550878671e+00
  8.05601585284714e+00  8.90552900408978e+00  1.70055055557741e+01
  1.12475365102051e+01  1.92299097359756e+00  1.70055055557741e+01
  1.12475365102051e+01  5.05954705689466e+00  8.10489550878671e+00
  4.81301905585436e+00  1.92299097359756e+00  9.69632458518805e+00
  4.81301905585436e+00  5.05954705689466e+00  7.95714538200672e-01
  1.11638877832985e+01  1.07531085669580e+00  1.70535688500278e+00
  1.11638877832985e+01  5.90722717379642e+00  1.06059669319902e+01
  4.72937032894780e+00  1.07531085669580e+00  7.19525316198460e+00
  4.72937032894780e+00  5.90722717379642e+00  1.60958632089720e+01
  1.70514712540295e+00  1.28897652042886e+01  1.60958632089720e+01
  1.70514712540295e+00  8.05784888718802e+00  7.19525316198460e+00
  8.13966457975370e+00  1.28897652042886e+01  1.06059669319902e+01
  8.13966457975370e+00  8.05784888718802e+00  1.70535688500278e+00
  1.27107457793245e+01  1.25043291050055e+01  4.45386526751248e+00
  1.27107457793245e+01  8.44328498647119e+00  1.33544753144999e+01
  6.27622832497372e+00  1.25043291050055e+01  4.44674477947489e+00
  6.27622832497372e+00  8.44328498647119e+00  1.33473548264623e+01
  1.58289129377028e-01  1.46074695597897e+00  1.33473548264623e+01
  1.58289129377028e-01  5.52179107451325e+00  4.44674477947489e+00
  6.59280658372778e+00  1.46074695597897e+00  1.33544753144999e+01
  6.59280658372778e+00  5.52179107451325e+00  4.45386526751248e+00
  2.88395072304001e+00  1.05324603651945e+01  1.39027528933943e+00
  2.88395072304001e+00  1.04151537262822e+01  1.02908853363268e+01
  9.31846817739075e+00  1.05324603651945e+01  7.51033475764795e+00
  9.31846817739075e+00  1.04151537262822e+01  1.64109448046353e+01
  9.98508418566149e+00  3.43261569578998e+00  1.64109448046353e+01
  9.98508418566149e+00  3.54992233470225e+00  7.51033475764795e+00
  3.55056673131074e+00  3.43261569578998e+00  1.02908853363268e+01
  3.55056673131074e+00  3.54992233470225e+00  1.39027528933943e+00
  9.83194267024794e+00  1.91461192796097e+00  2.99238509779716e+00
  9.83194267024794e+00  5.06792610253125e+00  1.18929951447845e+01
  3.39742521589719e+00  1.91461192796097e+00  5.90822494919022e+00
  3.39742521589719e+00  5.06792610253125e+00  1.48088349961776e+01
  3.03709223845355e+00  1.20504641330235e+01  1.48088349961776e+01
  3.03709223845355e+00  8.89714995845319e+00  5.90822494919022e+00
  9.47160969280430e+00  1.20504641330235e+01  1.18929951447845e+01
  9.47160969280430e+00  8.89714995845319e+00  2.99238509779716e+00

  6.66500000000000e+03
  1.00000000000000e+03
  2.28000000000000e+02
  6.47100000000000e+01
  2.10600000000000e+01
  7.49500000000000e+00
  2.79700000000000e+00
  6.66500000000000e+03
  1.00000000000000e+03
  6.47100000000000e+01
  2.10600000000000e+01
  7.49500000000000e+00
  2.79700000000000e+00
  5.21500000000000e-01
  1.59600000000000e-01
  9.43900000000000e+00
  2.00200000000000e+00
  5.45600000000000e-01
  1.51700000000000e-01
  5.50000000000000e-01
  6.66500000000000e+03
  1.00000000000000e+03
  2.28000000000000e+02
  6.47100000000000e+01
  2.10600000000000e+01
  7.49500000000000e+00
  2.79700000000000e+00
  6.66500000000000e+03
  1.00000000000000e+03
  6.47100000000000e+01
  2.10600000000000e+01
  7.49500000000000e+00
  2.79700000000000e+00
  5.21500000000000e-01
  1.59600000000000e-01
  9.43900000000000e+00
  2.00200000000000e+00
  5.45600000000000e-01
  1.51700000000000e-01
  5.50000000000000e-01
  6.66500000000000e+03
  1.00000000000000e+03
  2.28000000000000e+02
  6.47100000000000e+01
  2.10600000000000e+01
  7.49500000000000e+00
  2.79700000000000e+00
  6.66500000000000e+03
  1.00000000000000e+03
  6.47100000000000e+01
  2.10600000000000e+01
  7.49500000000000e+00
  2.79700000000000e+00
  5.21500000000000e-01
  1.59600000000000e-01
  9.43900000000000e+00
  2.00200000000000e+00
  5.45600000000000e-01
  1.51700000000000e-01
  5.50000000000000e-01
  6.66500000000000e+03
  1.00000000000000e+03
  2.28000000000000e+02
  6.47100000000000e+01
  2.10600000000000e+01
  7.49500000000000e+00
  2.79700000000000e+00
  6.66500000000000e+03
  1.00000000000000e+03
  6.47100000000000e+01
  2.10600000000000e+01
  7.49500000000000e+00
  2.79700000000000e+00
  5.21500000000000e-01
  1.59600000000000e-01
  9.43900000000000e+00
  2.00200000000000e+00
  5.45600000000000e-01
  1.51700000000000e-01
  5.50000000000000e-01
  6.66500000000000e+03
  1.00000000000000e+03
  2.28000000000000e+02
  6.47100000000000e+01
  2.10600000000000e+01
  7.49500000000000e+00
  2.79700000000000e+00
  6.66500000000000e+03
  1.00000000000000e+03
  6.47100000000000e+01
  2.10600000000000e+01
  7.49500000000000e+00
  2.79700000000000e+00
  5.21500000000000e-01
  1.59600000000000e-01
  9.43900000000000e+00
  2.00200000000000e+00
  5.45600000000000e-01
  1.51700000000000e-01
  5.50000000000000e-01
  6.66500000000000e+03
  1.00000000000000e+03
  2.28000000000000e+02
  6.47100000000000e+01
  2.10600000000000e+01
  7.49500000000000e+00
  2.79700000000000e+00
  6.66500000000000e+03
  1.00000000000000e+03
  6.47100000000000e+01
  2.10600000000000e+01
  7.49500000000000e+00
  2.79700000000000e+00
  5.21500000000000e-01
  1.59600000000000e-01
  9.43900000000000e+00
  2.00200000000000e+00
  5.45600000000000e-01
  1.51700000000000e-01
  5.50000000000000e-01
  6.66500000000000e+03
  1.00000000000000e+03
  2.28000000000000e+02
  6.47100000000000e+01
  2.10600000000000e+01
  7.49500000000000e+00
  2.79700000000000e+00
  6.66500000000000e+03
  1.00000000000000e+03
  6.47100000000000e+01
  2.10600000000000e+01
  7.49500000000000e+00
  2.79700000000000e+00
  5.21500000000000e-01
  1.59600000000000e-01
  9.43900000000000e+00
  2.00200000000000e+00
  5.45600000000000e-01
  1.51700000000000e-01
  5.50000000000000e-01
  6.66500000000000e+03
  1.00000000000000e+03
  2.28000000000000e+02
  6.47100000000000e+01
  2.10600000000000e+01
  7.49500000000000e+00
  2.79700000000000e+00
  6.66500000000000e+03
  1.00000000000000e+03
  6.47100000000000e+01
  2.10600000000000e+01
  7.49500000000000e+00
  2.79700000000000e+00
  5.21500000000000e-01
  1.59600000000000e-01
  9.43900000000000e+00
  2.00200000000000e+00
  5.45600000000000e-01
  1.51700000000000e-01
  5.50000000000000e-01
  6.66500000000000e+03
  1.00000000000000e+03
  2.28000000000000e+02
  6.47100000000000e+01
  2.10600000000000e+01
  7.49500000000000e+00
  2.79700000000000e+00
  6.66500000000000e+03
  1.00000000000000e+03
  6.47100000000000e+01
  2.10600000000000e+01
  7.49500000000000e+00
  2.79700000000000e+00
  5.21500000000000e-01
  1.59600000000000e-01
  9.43900000000000e+00
  2.00200000000000e+00
  5.45600000000000e-01
  1.51700000000000e-01
  5.50000000000000e-01
  6.66500000000000e+03
  1.00000000000000e+03
  2.28000000000000e+02
  6.47100000000000e+01
  2.10600000000000e+01
  7.49500000000000e+00
  2.79700000000000e+00
  6.66500000000000e+03
  1.00000000000000e+03
  6.47100000000000e+01
  2.10600000000000e+01
  7.49500000000000e+00
  2.79700000000000e+00
  5.21500000000000e-01
  1.59600000000000e-01
  9.43900000000000e+00
  2.00200000000000e+00
  5.45600000000000e-01
  1.51700000000000e-01
  5.50000000000000e-01
  6.66500000000000e+03
  1.00000000000000e+03
  2.28000000000000e+02
  6.47100000000000e+01
  2.10600000000000e+01
  7.49500000000000e+00
  2.79700000000000e+00
  6.66500000000000e+03
  1.00000000000000e+03
  6.47100000000000e+01
  2.10600000000000e+01
  7.49500000000000e+00
  2.79700000000000e+00
  5.21500000000000e-01
  1.59600000000000e-01
  9.43900000000000e+00
  2.00200000000000e+00
  5.45600000000000e-01
  1.51700000000000e-01
  5.50000000000000e-01
  6.66500000000000e+03
  1.00000000000000e+03
  2.28000000000000e+02
  6.47100000000000e+01
  2.10600000000000e+01
  7.49500000000000e+00
  2.79700000000000e+00
  6.66500000000000e+03
  1.00000000000000e+03
  6.47100000000000e+01
  2.10600000000000e+01
  7.49500000000000e+00
  2.79700000000000e+00
  5.21500000000000e-01
  1.59600000000000e-01
  9.43900000000000e+00
  2.00200000000000e+00
  5.45600000000000e-01
  1.51700000000000e-01
  5.50000000000000e-01
  6.66500000000000e+03
  1.00000000000000e+03
  2.28000000000000e+02
  6.47100000000000e+01
  2.10600000000000e+01
  7.49500000000000e+00
  2.79700000000000e+00
  6.66500000000000e+03
  1.00000000000000e+03
  6.47100000000000e+01
  2.10600000000000e+01
  7.49500000000000e+00
  2.79700000000000e+00
  5.21500000000000e-01
  1.59600000000000e-01
  9.43900000000000e+00
  2.00200000000000e+00
  5.45600000000000e-01
  1.51700000000000e-01
  5.50000000000000e-01
  6.66500000000000e+03
  1.00000000000000e+03
  2.28000000000000e+02
  6.47100000000000e+01
  2.10600000000000e+01
  7.49500000000000e+00
  2.79700000000000e+00
  6.66500000000000e+03
  1.00000000000000e+03
  6.47100000000000e+01
  2.10600000000000e+01
  7.49500000000000e+00
  2.79700000000000e+00
  5.21500000000000e-01
  1.59600000000000e-01
  9.43900000000000e+00
  2.00200000000000e+00
  5.45600000000000e-01
  1.51700000000000e-01
  5.50000000000000e-01
  6.66500000000000e+03
  1.00000000000000e+03
  2.28000000000000e+02
  6.47100000000000e+01
  2.10600000000000e+01
  7.49500000000000e+00
  2.79700000000000e+00
  6.66500000000000e+03
  1.00000000000000e+03
  6.47100000000000e+01
  2.10600000000000e+01
  7.49500000000000e+00
  2.79700000000000e+00
  5.21500000000000e-01
  1.59600000000000e-01
  9.43900000000000e+00
  2.00200000000000e+00
  5.45600000000000e-01
  1.51700000000000e-01
  5.50000000000000e-01
  6.66500000000000e+03
  1.00000000000000e+03
  2.28000000000000e+02
  6.47100000000000e+01
  2.10600000000000e+01
  7.49500000000000e+00
  2.79700000000000e+00
  6.66500000000000e+03
  1.00000000000000e+03
  6.47100000000000e+01
  2.10600000000000e+01
  7.49500000000000e+00
  2.79700000000000e+00
  5.21500000000000e-01
  1.59600000000000e-01
  9.43900000000000e+00
  2.00200000000000e+00
  5.45600000000000e-01
  1.51700000000000e-01
  5.50000000000000e-01
  6.66500000000000e+03
  1.00000000000000e+03
  2.28000000000000e+02
  6.47100000000000e+01
  2.10600000000000e+01
  7.49500000000000e+00
  2.79700000000000e+00
  6.66500000000000e+03
  1.00000000000000e+03
  6.47100000000000e+01
  2.10600000000000e+01
  7.49500000000000e+00
  2.79700000000000e+00
  5.21500000000000e-01
  1.59600000000000e-01
  9.43900000000000e+00
  2.00200000000000e+00
  5.45600000000000e-01
  1.51700000000000e-01
  5.50000000000000e-01
  6.66500000000000e+03
  1.00000000000000e+03
  2.28000000000000e+02
  6.47100000000000e+01
  2.10600000000000e+01
  7.49500000000000e+00
  2.79700000000000e+00
  6.66500000000000e+03
  1.00000000000000e+03
  6.47100000000000e+01
  2.10600000000000e+01
  7.49500000000000e+00
  2.79700000000000e+00
  5.21500000000000e-01
  1.59600000000000e-01
  9.43900000000000e+00
  2.00200000000000e+00
  5.45600000000000e-01
  1.51700000000000e-01
  5.50000000000000e-01
  6.66500000000000e+03
  1.00000000000000e+03
  2.28000000000000e+02
  6.47100000000000e+01
  2.10600000000000e+01
  7.49500000000000e+00
  2.79700000000000e+00
  6.66500000000000e+03
  1.00000000000000e+03
  6.47100000000000e+01
  2.10600000000000e+01
  7.49500000000000e+00
  2.79700000000000e+00
  5.21500000000000e-01
  1.59600000000000e-01
  9.43900000000000e+00
  2.00200000000000e+00
  5.45600000000000e-01
  1.51700000000000e-01
  5.50000000000000e-01
  6.66500000000000e+03
  1.00000000000000e+03
  2.28000000000000e+02
  6.47100000000000e+01
  2.10600000000000e+01
  7.49500000000000e+00
  2.79700000000000e+00
  6.66500000000000e+03
  1.00000000000000e+03
  6.47100000000000e+01
  2.10600000000000e+01
  7.49500000000000e+00
  2.79700000000000e+00
  5.21500000000000e-01
  1.59600000000000e-01
  9.43900000000000e+00
  2.00200000000000e+00
  5.45600000000000e-01
  1.51700000000000e-01
  5.50000000000000e-01
  6.66500000000000e+03
  1.00000000000000e+03
  2.28000000000000e+02
  6.47100000000000e+01
  2.10600000000000e+01
  7.49500000000000e+00
  2.79700000000000e+00
  6.66500000000000e+03
  1.00000000000000e+03
  6.47100000000000e+01
  2.10600000000000e+01
  7.49500000000000e+00
  2.79700000000000e+00
  5.21500000000000e-01
  1.59600000000000e-01
  9.43900000000000e+00
  2.00200000000000e+00
  5.45600000000000e-01
  1.51700000000000e-01
  5.50000000000000e-01
  6.66500000000000e+03
  1.00000000000000e+03
  2.28000000000000e+02
  6.47100000000000e+01
  2.10600000000000e+01
  7.49500000000000e+00
  2.79700000000000e+00
  6.66500000000000e+03
  1.00000000000000e+03
  6.47100000000000e+01
  2.10600000000000e+01
  7.49500000000000e+00
  2.79700000000000e+00
  5.21500000000000e-01
  1.59600000000000e-01
  9.43900000000000e+00
  2.00200000000000e+00
  5.45600000000000e-01
  1.51700000000000e-01
  5.50000000000000e-01
  6.66500000000000e+03
  1.00000000000000e+03
  2.28000000000000e+02
  6.47100000000000e+01
  2.10600000000000e+01
  7.49500000000000e+00
  2.79700000000000e+00
  6.66500000000000e+03
  1.00000000000000e+03
  6.47100000000000e+01
  2.10600000000000e+01
  7.49500000000000e+00
  2.79700000000000e+00
  5.21500000000000e-01
  1.59600000000000e-01
  9.43900000000000e+00
  2.00200000000000e+00
  5.45600000000000e-01
  1.51700000000000e-01
  5.50000000000000e-01
  6.66500000000000e+03
  1.00000000000000e+03
  2.28000000000000e+02
  6.47100000000000e+01
  2.10600000000000e+01
  7.49500000000000e+00
  2.79700000000000e+00
  6.66500000000000e+03
  1.00000000000000e+03
  6.47100000000000e+01
  2.10600000000000e+01
  7.49500000000000e+00
  2.79700000000000e+00
  5.21500000000000e-01
  1.59600000000000e-01
  9.43900000000000e+00
  2.00200000000000e+00
  5.45600000000000e-01
  1.51700000000000e-01
  5.50000000000000e-01
  1.30100000000000e+01
  1.96200000000000e+00
  4.44600000000000e-01
  1.22000000000000e-01
  7.27000000000000e-01
  1.30100000000000e+01
  1.96200000000000e+00
  4.44600000000000e-01
  1.22000000000000e-01
  7.27000000000000e-01
  1.30100000000000e+01
  1.96200000000000e+00
  4.44600000000000e-01
  1.22000000000000e-01
  7.27000000000000e-01
  1.30100000000000e+01
  1.96200000000000e+00
  4.44600000000000e-01
  1.22000000000000e-01
  7.27000000000000e-01
  1.30100000000000e+01
  1.96200000000000e+00
  4.44600000000000e-01
  1.22000000000000e-01
  7.27000000000000e-01
  1.30100000000000e+01
  1.96200000000000e+00
  4.44600000000000e-01
  1.22000000000000e-01
  7.27000000000000e-01
  1.30100000000000e+01
  1.96200000000000e+00
  4.44600000000000e-01
  1.22000000000000e-01
  7.27000000000000e-01
  1.30100000000000e+01
  1.96200000000000e+00
  4.44600000000000e-01
  1.22000000000000e-01
  7.27000000000000e-01
  1.30100000000000e+01
  1.96200000000000e+00
  4.44600000000000e-01
  1.22000000000000e-01
  7.27000000000000e-01
  1.30100000000000e+01
  1.96200000000000e+00
  4.44600000000000e-01
  1.22000000000000e-01
  7.27000000000000e-01
  1.30100000000000e+01
  1.96200000000000e+00
  4.44600000000000e-01
  1.22000000000000e-01
  7.27000000000000e-01
  1.30100000000000e+01
  1.96200000000000e+00
  4.44600000000000e-01
  1.22000000000000e-01
  7.27000000000000e-01
  1.30100000000000e+01
  1.96200000000000e+00
  4.44600000000000e-01
  1.22000000000000e-01
  7.27000000000000e-01
  1.30100000000000e+01
  1.96200000000000e+00
  4.44600000000000e-01
  1.22000000000000e-01
  7.27000000000000e-01
  1.30100000000000e+01
  1.96200000000000e+00
  4.44600000000000e-01
  1.22000000000000e-01
  7.27000000000000e-01
  1.30100000000000e+01
  1.96200000000000e+00
  4.44600000000000e-01
  1.22000000000000e-01
  7.27000000000000e-01
  1.30100000000000e+01
  1.96200000000000e+00
  4.44600000000000e-01
  1.22000000000000e-01
  7.27000000000000e-01
  1.30100000000000e+01
  1.96200000000000e+00
  4.44600000000000e-01
  1.22000000000000e-01
  7.27000000000000e-01
  1.30100000000000e+01
  1.96200000000000e+00
  4.44600000000000e-01
  1.22000000000000e-01
  7.27000000000000e-01
  1.30100000000000e+01
  1.96200000000000e+00
  4.44600000000000e-01
  1.22000000000000e-01
  7.27000000000000e-01
  1.30100000000000e+01
  1.96200000000000e+00
  4.44600000000000e-01
  1.22000000000000e-01
  7.27000000000000e-01
  1.30100000000000e+01
  1.96200000000000e+00
  4.44600000000000e-01
  1.22000000000000e-01
  7.27000000000000e-01
  1.30100000000000e+01
  1.96200000000000e+00
  4.44600000000000e-01
  1.22000000000000e-01
  7.27000000000000e-01
  1.30100000000000e+01
  1.96200000000000e+00
  4.44600000000000e-01
  1.22000000000000e-01
  7.27000000000000e-01

  3.64599440658250e-01
  6.76976693553059e-01
  1.13479586458989e+00
  1.65846537366526e+00
  1.93036343130757e+00
  1.45629240665047e+00
  4.43268218412025e-01
  3.27816545752681e-04
 -6.95191092023978e-03
 -5.90485205318809e-02
 -8.26658278749410e-02
 -3.58062727598002e-01
 -2.07698431939654e-01
  4.81878149474643e-01
  1.79963635330801e-01
  1.34373710949623e+00
  1.06316808787974e+00
  5.08231833836250e-01
  1.34949743639293e-01
  5.78154836189229e-01
  3.64599440658250e-01
  6.76976693553059e-01
  1.13479586458989e+00
  1.65846537366526e+00
  1.93036343130757e+00
  1.45629240665047e+00
  4.43268218412025e-01
  3.27816545752681e-04
 -6.95191092023978e-03
 -5.90485205318809e-02
 -8.26658278749410e-02
 -3.58062727598002e-01
 -2.07698431939654e-01
  4.81878149474643e-01
  1.79963635330801e-01
  1.34373710949623e+00
  1.06316808787974e+00
  5.08231833836250e-01
  1.34949743639293e-01
  5.78154836189229e-01
  3.64599440658250e-01
  6.76976693553059e-01
  1.13479586458989e+00
  1.65846537366526e+00
  1.93036343130757e+00
  1.45629240665047e+00
  4.43268218412025e-01
  3.27816545752681e-04
 -6.95191092023978e-03
 -5.90485205318809e-02
 -8.26658278749410e-02
 -3.58062727598002e-01
 -2.07698431939654e-01
  4.81878149474643e-01
  1.79963635330801e-01
  1.34373710949623e+00
  1.06316808787974e+00
  5.08231833836250e-01
  1.34949743639293e-01
  5.78154836189229e-01
  3.64599440658250e-01
  6.76976693553059e-01
  1.13479586458989e+00
  1.65846537366526e+00
  1.93036343130757e+00
  1.45629240665047e+00
  4.43268218412025e-01
  3.27816545752681e-04
 -6.95191092023978e-03
 -5.90485205318809e-02
 -8.26658278749410e-02
 -3.58062727598002e-01
 -2.07698431939654e-01
  4.81878149474643e-01
  1.79963635330801e-01
  1.34373710949623e+00
  1.06316808787974e+00
  5.08231833836250e-01
  1.34949743639293e-01
  5.78154836189229e-01
  3.64599440658250e-01
  6.76976693553059e-01
  1.13479586458989e+00
  1.65846537366526e+00
  1.93036343130757e+00
  1.45629240665047e+00
  4.43268218412025e-01
  3.27816545752681e-04
 -6.95191092023978e-03
 -5.90485205318809e-02
 -8.26658278749410e-02
 -3.58062727598002e-01
 -2.07698431939654e-01
  4.81878149474643e-01
  1.79963635330801e-01
  1.34373710949623e+00
  1.06316808787974e+00
  5.08231833836250e-01
  1.34949743639293e-01
  5.78154836189229e-01
  3.64599440658250e-01
  6.76976693553059e-01
  1.13479586458989e+00
  1.65846537366526e+00
  1.93036343130757e+00
  1.45629240665047e+00
  4.43268218412025e-01
  3.27816545752681e-04
 -6.95191092023978e-03
 -5.90485205318809e-02
 -8.26658278749410e-02
 -3.58062727598002e-01
 -2.07698431939654e-01
  4.81878149474643e-01
  1.79963635330801e-01
  1.34373710949623e+00
  1.06316808787974e+00
  5.08231833836250e-01
  1.34949743639293e-01
  5.78154836189229e-01
  3.64599440658250e-01
  6.76976693553059e-01
  1.13479586458989e+00
  1.65846537366526e+00
  1.93036343130757e+00
  1.45629240665047e+00
  4.43268218412025e-01
  3.27816545752681e-04
 -6.95191092023978e-03
 -5.90485205318809e-02
 -8.26658278749410e-02
 -3.58062727598002e-01
 -2.07698431939654e-01
  4.81878149474643e-01
  1.79963635330801e-01
  1.34373710949623e+00
  1.06316808787974e+00
  5.08231833836250e-01
  1.34949743639293e-01
  5.78154836189229e-01
  3.64599440658250e-01
  6.76976693553059e-01
  1.13479586458989e+00
  1.65846537366526e+00
  1.93036343130757e+00
  1.45629240665047e+00
  4.43268218412025e-01
  3.27816545752681e-04
 -6.95191092023978e-03
 -5.90485205318809e-02
 -8.26658278749410e-02
 -3.58062727598002e-01
 -2.07698431939654e-01
  4.81878149474643e-01
  1.79963635330801e-01
  1.34373710949623e+00
  1.06316808787974e+00
  5.08231833836250e-01
  1.34949743639293e-01
  5.78154836189229e-01
  3.64599440658250e-01
  6.76976693553059e-01
  1.13479586458989e+00
  1.65846537366526e+00
  1.93036343130757e+00
  1.45629240665047e+00
  4.43268218412025e-01
  3.27816545752681e-04
 -6.95191092023978e-03
 -5.90485205318809e-02
 -8.26658278749410e-02
 -3.58062727598002e-01
 -2.07698431939654e-01
  4.81878149474643e-01
  1.79963635330801e-01
  1.34373710949623e+00
  1.06316808787974e+00
  5.08231833836250e-01
  1.34949743639293e-01
  5.78154836189229e-01
  3.64599440658250e-01
  6.76976693553059e-01
  1.13479586458989e+00
  1.65846537366526e+00
  1.93036343130757e+00
  1.45629240665047e+00
  4.43268218412025e-01
  3.27816545752681e-04
 -6.95191092023978e-03
 -5.90485205318809e-02
 -8.26658278749410e-02
 -3.58062727598002e-01
 -2.07698431939654e-01
  4.81878149474643e-01
  1.79963635330801e-01
  1.34373710949623e+00
  1.06316808787974e+00
  5.08231833836250e-01
  1.34949743639293e-01
  5.78154836189229e-01
  3.64599440658250e-01
  6.76976693553059e-01
  1.13479586458989e+00
  1.65846537366526e+00
  1.93036343130757e+00
  1.45629240665047e+00
  4.43268218412025e-01
  3.27816545752681e-04
 -6.95191092023978e-03
 -5.90485205318809e-02
 -8.26658278749410e-02
 -3.58062727598002e-01
 -2.07698431939654e-01
  4.81878149474643e-01
  1.79963635330801e-01
  1.34373710949623e+00
  1.06316808787974e+00
  5.08231833836250e-01
  1.34949743639293e-01
  5.78154836189229e-01
  3.64599440658250e-01
  6.76976693553059e-01
  1.13479586458989e+00
  1.65846537366526e+00
  1.93036343130757e+00
  1.45629240665047e+00
  4.43268218412025e-01
  3.27816545752681e-04
 -6.95191092023978e-03
 -5.90485205318809e-02
 -8.26658278749410e-02
 -3.58062727598002e-01
 -2.07698431939654e-01
  4.81878149474643e-01
  1.79963635330801e-01
  1.34373710949623e+00
  1.06316808787974e+00
  5.08231833836250e-01
  1.34949743639293e-01
  5.78154836189229e-01
  3.64599440658250e-01
  6.76976693553059e-01
  1.13479586458989e+00
  1.65846537366526e+00
  1.93036343130757e+00
  1.45629240665047e+00
  4.43268218412025e-01
  3.27816545752681e-04
 -6.95191092023978e-03
 -5.90485205318809e-02
 -8.26658278749410e-02
 -3.58062727598002e-01
 -2.07698431939654e-01
  4.81878149474643e-01
  1.79963635330801e-01
  1.34373710949623e+00
  1.06316808787974e+00
  5.08231833836250e-01
  1.34949743639293e-01
  5.78154836189229e-01
  3.64599440658250e-01
  6.76976693553059e-01
  1.13479586458989e+00
  1.65846537366526e+00
  1.93036343130757e+00
  1.45629240665047e+00
  4.43268218412025e-01
  3.27816545752681e-04
 -6.95191092023978e-03
 -5.90485205318809e-02
 -8.26658278749410e-02
 -3.58062727598002e-01
 -2.07698431939654e-01
  4.81878149474643e-01
  1.79963635330801e-01
  1.34373710949623e+00
  1.06316808787974e+00
  5.08231833836250e-01
  1.34949743639293e-01
  5.78154836189229e-01
  3.64599440658250e-01
  6.76976693553059e-01
  1.13479586458989e+00
  1.65846537366526e+00
  1.93036343130757e+00
  1.45629240665047e+00
  4.43268218412025e-01
  3.27816545752681e-04
 -6.95191092023978e-03
 -5.90485205318809e-02
 -8.26658278749410e-02
 -3.58062727598002e-01
 -2.07698431939654e-01
  4.81878149474643e-01
  1.79963635330801e-01
  1.34373710949623e+00
  1.06316808787974e+00
  5.08231833836250e-01
  1.34949743639293e-01
  5.78154836189229e-01
  3.64599440658250e-01
  6.76976693553059e-01
  1.13479586458989e+00
  1.65846537366526e+00
  1.93036343130757e+00
  1.45629240665047e+00
  4.43268218412025e-01
  3.27816545752681e-04
 -6.95191092023978e-03
 -5.90485205318809e-02
 -8.26658278749410e-02
 -3.58062727598002e-01
 -2.07698431939654e-01
  4.81878149474643e-01
  1.79963635330801e-01
  1.34373710949623e+00
  1.06316808787974e+00
  5.08231833836250e-01
  1.34949743639293e-01
  5.78154836189229e-01
  3.64599440658250e-01
  6.76976693553059e-01
  1.13479586458989e+00
  1.65846537366526e+00
  1.93036343130757e+00
  1.45629240665047e+00
  4.43268218412025e-01
  3.27816545752681e-04
 -6.95191092023978e-03
 -5.90485205318809e-02
 -8.26658278749410e-02
 -3.58062727598002e-01
 -2.07698431939654e-01
  4.81878149474643e-01
  1.79963635330801e-01
  1.34373710949623e+00
  1.06316808787974e+00
  5.08231833836250e-01
  1.34949743639293e-01
  5.78154836189229e-01
  3.64599440658250e-01
  6.76976693553059e-01
  1.13479586458989e+00
  1.65846537366526e+00
  1.93036343130757e+00
  1.45629240665047e+00
  4.43268218412025e-01
  3.27816545752681e-04
 -6.95191092023978e-03
 -5.90485205318809e-02
 -8.26658278749410e-02
 -3.58062727598002e-01
 -2.07698431939654e-01
  4.81878149474643e-01
  1.79963635330801e-01
  1.34373710949623e+00
  1.06316808787974e+00
  5.08231833836250e-01
  1.34949743639293e-01
  5.78154836189229e-01
  3.64599440658250e-01
  6.76976693553059e-01
  1.13479586458989e+00
  1.65846537366526e+00
  1.93036343130757e+00
  1.45629240665047e+00
  4.43268218412025e-01
  3.27816545752681e-04
 -6.95191092023978e-03
 -5.90485205318809e-02
 -8.26658278749410e-02
 -3.58062727598002e-01
 -2.07698431939654e-01
  4.81878149474643e-01
  1.79963635330801e-01
  1.34373710949623e+00
  1.06316808787974e+00
  5.08231833836250e-01
  1.34949743639293e-01
  5.78154836189229e-01
  3.64599440658250e-01
  6.76976693553059e-01
  1.13479586458989e+00
  1.65846537366526e+00
  1.93036343130757e+00
  1.45629240665047e+00
  4.43268218412025e-01
  3.27816545752681e-04
 -6.95191092023978e-03
 -5.90485205318809e-02
 -8.26658278749410e-02
 -3.58062727598002e-01
 -2.07698431939654e-01
  4.81878149474643e-01
  1.79963635330801e-01
  1.34373710949623e+00
  1.06316808787974e+00
  5.08231833836250e-01
  1.34949743639293e-01
  5.78154836189229e-01
  3.64599440658250e-01
  6.76976693553059e-01
  1.13479586458989e+00
  1.65846537366526e+00
  1.93036343130757e+00
  1.45629240665047e+00
  4.43268218412025e-01
  3.27816545752681e-04
 -6.95191092023978e-03
 -5.90485205318809e-02
 -8.26658278749410e-02
 -3.58062727598002e-01
 -2.07698431939654e-01
  4.81878149474643e-01
  1.79963635330801e-01
  1.34373710949623e+00
  1.06316808787974e+00
  5.08231833836250e-01
  1.34949743639293e-01
  5.78154836189229e-01
  3.64599440658250e-01
  6.76976693553059e-01
  1.13479586458989e+00
  1.65846537366526e+00
  1.93036343130757e+00
  1.45629240665047e+00
  4.43268218412025e-01
  3.27816545752681e-04
 -6.95191092023978e-03
 -5.90485205318809e-02
 -8.26658278749410e-02
 -3.58062727598002e-01
 -2.07698431939654e-01
  4.81878149474643e-01
  1.79963635330801e-01
  1.34373710949623e+00
  1.06316808787974e+00
  5.08231833836250e-01
  1.34949743639293e-01
  5.78154836189229e-01
  3.64599440658250e-01
  6.76976693553059e-01
  1.13479586458989e+00
  1.65846537366526e+00
  1.93036343130757e+00
  1.45629240665047e+00
  4.43268218412025e-01
  3.27816545752681e-04
 -6.95191092023978e-03
 -5.90485205318809e-02
 -8.26658278749410e-02
 -3.58062727598002e-01
 -2.07698431939654e-01
  4.81878149474643e-01
  1.79963635330801e-01
  1.34373710949623e+00
  1.06316808787974e+00
  5.08231833836250e-01
  1.34949743639293e-01
  5.78154836189229e-01
  3.64599440658250e-01
  6.76976693553059e-01
  1.13479586458989e+00
  1.65846537366526e+00
  1.93036343130757e+00
  1.45629240665047e+00
  4.43268218412025e-01
  3.27816545752681e-04
 -6.95191092023978e-03
 -5.90485205318809e-02
 -8.26658278749410e-02
 -3.58062727598002e-01
 -2.07698431939654e-01
  4.81878149474643e-01
  1.79963635330801e-01
  1.34373710949623e+00
  1.06316808787974e+00
  5.08231833836250e-01
  1.34949743639293e-01
  5.78154836189229e-01
  1.63548422787197e-01
  2.77417541697630e-01
  3.15749306997667e-01
  1.47122794428574e-01
  9.56881375059566e-01
  1.63548422787197e-01
  2.77417541697630e-01
  3.15749306997667e-01
  1.47122794428574e-01
  9.56881375059566e-01
  1.63548422787197e-01
  2.77417541697630e-01
  3.15749306997667e-01
  1.47122794428574e-01
  9.56881375059566e-01
  1.63548422787197e-01
  2.77417541697630e-01
  3.15749306997667e-01
  1.47122794428574e-01
  9.56881375059566e-01
  1.63548422787197e-01
  2.77417541697630e-01
  3.15749306997667e-01
  1.47122794428574e-01
  9.56881375059566e-01
  1.63548422787197e-01
  2.77417541697630e-01
  3.15749306997667e-01
  1.47122794428574e-01
  9.56881375059566e-01
  1.63548422787197e-01
  2.77417541697630e-01
  3.15749306997667e-01
  1.47122794428574e-01
  9.56881375059566e-01
  1.63548422787197e-01
  2.77417541697630e-01
  3.15749306997667e-01
  1.47122794428574e-01
  9.56881375059566e-01
  1.63548422787197e-01
  2.77417541697630e-01
  3.15749306997667e-01
  1.47122794428574e-01
  9.56881375059566e-01
  1.63548422787197e-01
  2.77417541697630e-01
  3.15749306997667e-01
  1.47122794428574e-01
  9.56881375059566e-01
  1.63548422787197e-01
  2.77417541697630e-01
  3.15749306997667e-01
  1.47122794428574e-01
  9.56881375059566e-01
  1.63548422787197e-01
  2.77417541697630e-01
  3.15749306997667e-01
  1.47122794428574e-01
  9.56881375059566e-01
  1.63548422787197e-01
  2.77417541697630e-01
  3.15749306997667e-01
  1.47122794428574e-01
  9.56881375059566e-01
  1.63548422787197e-01
  2.77417541697630e-01
  3.15749306997667e-01
  1.47122794428574e-01
  9.56881375059566e-01
  1.63548422787197e-01
  2.77417541697630e-01
  3.15749306997667e-01
  1.47122794428574e-01
  9.56881375059566e-01
  1.63548422787197e-01
  2.77417541697630e-01
  3.15749306997667e-01
  1.47122794428574e-01
  9.56881375059566e-01
  1.63548422787197e-01
  2.77417541697630e-01
  3.15749306997667e-01
  1.47122794428574e-01
  9.56881375059566e-01
  1.63548422787197e-01
  2.77417541697630e-01
  3.15749306997667e-01
  1.47122794428574e-01
  9.56881375059566e-01
  1.63548422787197e-01
  2.77417541697630e-01
  3.15749306997667e-01
  1.47122794428574e-01
  9.56881375059566e-01
  1.63548422787197e-01
  2.77417541697630e-01
  3.15749306997667e-01
  1.47122794428574e-01
  9.56881375059566e-01
  1.63548422787197e-01
  2.77417541697630e-01
  3.15749306997667e-01
  1.47122794428574e-01
  9.56881375059566e-01
  1.63548422787197e-01
  2.77417541697630e-01
  3.15749306997667e-01
  1.47122794428574e-01
  9.56881375059566e-01
  1.63548422787197e-01
  2.77417541697630e-01
  3.15749306997667e-01
  1.47122794428574e-01
  9.56881375059566e-01
  1.63548422787197e-01
  2.77417541697630e-01
  3.15749306997667e-01
  1.47122794428574e-01
  9.56881375059566e-01

0 0 0 0 1 1 1
0 0 
7 0

0 1 1 7 1 1 1
7 0 
7 0

0 2 2 14 1 1 1
14 0 
1 0

0 3 3 15 1 3 3
15 1 
3 0

0 6 6 18 1 3 3
18 1 
1 0

0 9 9 19 1 5 6
19 2 
1 1

1 14 14 20 1 1 1
20 0 
7 0

1 15 15 27 1 1 1
27 0 
7 0

1 16 16 34 1 1 1
34 0 
1 0

1 17 17 35 1 3 3
35 1 
3 0

1 20 20 38 1 3 3
38 1 
1 0

1 23 23 39 1 5 6
39 2 
1 1

2 28 28 40 1 1 1
40 0 
7 0

2 29 29 47 1 1 1
47 0 
7 0

2 30 30 54 1 1 1
54 0 
1 0

2 31 31 55 1 3 3
55 1 
3 0

2 34 34 58 1 3 3
58 1 
1 0

2 37 37 59 1 5 6
59 2 
1 1

3 42 42 60 1 1 1
60 0 
7 0

3 43 43 67 1 1 1
67 0 
7 0

3 44 44 74 1 1 1
74 0 
1 0

3 45 45 75 1 3 3
75 1 
3 0

3 48 48 78 1 3 3
78 1 
1 0

3 51 51 79 1 5 6
79 2 
1 1

4 56 56 80 1 1 1
80 0 
7 0

4 57 57 87 1 1 1
87 0 
7 0

4 58 58 94 1 1 1
94 0 
1 0

4 59 59 95 1 3 3
95 1 
3 0

4 62 62 98 1 3 3
98 1 
1 0

4 65 65 99 1 5 6
99 2 
1 1

5 70 70 100 1 1 1
100 0 
7 0

5 71 71 107 1 1 1
107 0 
7 0

5 72 72 114 1 1 1
114 0 
1 0

5 73 73 115 1 3 3
115 1 
3 0

5 76 76 118 1 3 3
118 1 
1 0

5 79 79 119 1 5 6
119 2 
1 1

6 84 84 120 1 1 1
120 0 
7 0

6 85 85 127 1 1 1
127 0 
7 0

6 86 86 134 1 1 1
134 0 
1 0

6 87 87 135 1 3 3
135 1 
3 0

6 90 90 138 1 3 3
138 1 
1 0

6 93 93 139 1 5 6
139 2 
1 1

7 98 98 140 1 1 1
140 0 
7 0

7 99 99 147 1 1 1
147 0 
7 0

7 100 100 154 1 1 1
154 0 
1 0

7 101 101 155 1 3 3
155 1 
3 0

7 104 104 158 1 3 3
158 1 
1 0

7 107 107 159 1 5 6
159 2 
1 1

8 112 112 160 1 1 1
160 0 
7 0

8 113 113 167 1 1 1
167 0 
7 0

8 114 114 174 1 1 1
174 0 
1 0

8 115 115 175 1 3 3
175 1 
3 0

8 118 118 178 1 3 3
178 1 
1 0

8 121 121 179 1 5 6
179 2 
1 1

9 126 126 180 1 1 1
180 0 
7 0

9 127 127 187 1 1 1
187 0 
7 0

9 128 128 194 1 1 1
194 0 
1 0

9 129 129 195 1 3 3
195 1 
3 0

9 132 132 198 1 3 3
198 1 
1 0

9 135 135 199 1 5 6
199 2 
1 1

10 140 140 200 1 1 1
200 0 
7 0

10 141 141 207 1 1 1
207 0 
7 0

10 142 142 214 1 1 1
214 0 
1 0

10 143 143 215 1 3 3
215 1 
3 0

10 146 146 218 1 3 3
218 1 
1 0

10 149 149 219 1 5 6
219 2 
1 1

11 154 154 220 1 1 1
220 0 
7 0

11 155 155 227 1 1 1
227 0 
7 0

11 156 156 234 1 1 1
234 0 
1 0

11 157 157 235 1 3 3
235 1 
3 0

11 160 160 238 1 3 3
238 1 
1 0

11 163 163 239 1 5 6
239 2 
1 1

12 168 168 240 1 1 1
240 0 
7 0

12 169 169 247 1 1 1
247 0 
7 0

12 170 170 254 1 1 1
254 0 
1 0

12 171 171 255 1 3 3
255 1 
3 0

12 174 174 258 1 3 3
258 1 
1 0

12 177 177 259 1 5 6
259 2 
1 1

13 182 182 260 1 1 1
260 0 
7 0

13 183 183 267 1 1 1
267 0 
7 0

13 184 184 274 1 1 1
274 0 
1 0

13 185 185 275 1 3 3
275 1 
3 0

13 188 188 278 1 3 3
278 1 
1 0

13 191 191 279 1 5 6
279 2 
1 1

14 196 196 280 1 1 1
280 0 
7 0

14 197 197 287 1 1 1
287 0 
7 0

14 198 198 294 1 1 1
294 0 
1 0

14 199 199 295 1 3 3
295 1 
3 0

14 202 202 298 1 3 3
298 1 
1 0

14 205 205 299 1 5 6
299 2 
1 1

15 210 210 300 1 1 1
300 0 
7 0

15 211 211 307 1 1 1
307 0 
7 0

15 212 212 314 1 1 1
314 0 
1 0

15 213 213 315 1 3 3
315 1 
3 0

15 216 216 318 1 3 3
318 1 
1 0

15 219 219 319 1 5 6
319 2 
1 1

16 224 224 320 1 1 1
320 0 
7 0

16 225 225 327 1 1 1
327 0 
7 0

16 226 226 334 1 1 1
334 0 
1 0

16 227 227 335 1 3 3
335 1 
3 0

16 230 230 338 1 3 3
338 1 
1 0

16 233 233 339 1 5 6
339 2 
1 1

17 238 238 340 1 1 1
340 0 
7 0

17 239 239 347 1 1 1
347 0 
7 0

17 240 240 354 1 1 1
354 0 
1 0

17 241 241 355 1 3 3
355 1 
3 0

17 244 244 358 1 3 3
358 1 
1 0

17 247 247 359 1 5 6
359 2 
1 1

18 252 252 360 1 1 1
360 0 
7 0

18 253 253 367 1 1 1
367 0 
7 0

18 254 254 374 1 1 1
374 0 
1 0

18 255 255 375 1 3 3
375 1 
3 0

18 258 258 378 1 3 3
378 1 
1 0

18 261 261 379 1 5 6
379 2 
1 1

19 266 266 380 1 1 1
380 0 
7 0

19 267 267 387 1 1 1
387 0 
7 0

19 268 268 394 1 1 1
394 0 
1 0

19 269 269 395 1 3 3
395 1 
3 0

19 272 272 398 1 3 3
398 1 
1 0

19 275 275 399 1 5 6
399 2 
1 1

20 280 280 400 1 1 1
400 0 
7 0

20 281 281 407 1 1 1
407 0 
7 0

20 282 282 414 1 1 1
414 0 
1 0

20 283 283 415 1 3 3
415 1 
3 0

20 286 286 418 1 3 3
418 1 
1 0

20 289 289 419 1 5 6
419 2 
1 1

21 294 294 420 1 1 1
420 0 
7 0

21 295 295 427 1 1 1
427 0 
7 0

21 296 296 434 1 1 1
434 0 
1 0

21 297 297 435 1 3 3
435 1 
3 0

21 300 300 438 1 3 3
438 1 
1 0

21 303 303 439 1 5 6
439 2 
1 1

22 308 308 440 1 1 1
440 0 
7 0

22 309 309 447 1 1 1
447 0 
7 0

22 310 310 454 1 1 1
454 0 
1 0

22 311 311 455 1 3 3
455 1 
3 0

22 314 314 458 1 3 3
458 1 
1 0

22 317 317 459 1 5 6
459 2 
1 1

23 322 322 460 1 1 1
460 0 
7 0

23 323 323 467 1 1 1
467 0 
7 0

23 324 324 474 1 1 1
474 0 
1 0

23 325 325 475 1 3 3
475 1 
3 0

23 328 328 478 1 3 3
478 1 
1 0

23 331 331 479 1 5 6
479 2 
1 1

24 336 336 480 1 1 1
480 0 
3 0

24 337 337 483 1 1 1
483 0 
1 0

24 338 338 484 1 3 3
484 1 
1 0

25 341 341 485 1 1 1
485 0 
3 0

25 342 342 488 1 1 1
488 0 
1 0

25 343 343 489 1 3 3
489 1 
1 0

26 346 346 490 1 1 1
490 0 
3 0

26 347 347 493 1 1 1
493 0 
1 0

26 348 348 494 1 3 3
494 1 
1 0

27 351 351 495 1 1 1
495 0 
3 0

27 352 352 498 1 1 1
498 0 
1 0

27 353 353 499 1 3 3
499 1 
1 0

28 356 356 500 1 1 1
500 0 
3 0

28 357 357 503 1 1 1
503 0 
1 0

28 358 358 504 1 3 3
504 1 
1 0

29 361 361 505 1 1 1
505 0 
3 0

29 362 362 508 1 1 1
508 0 
1 0

29 363 363 509 1 3 3
509 1 
1 0

30 366 366 510 1 1 1
510 0 
3 0

30 367 367 513 1 1 1
513 0 
1 0

30 368 368 514 1 3 3
514 1 
1 0

31 371 371 515 1 1 1
515 0 
3 0

31 372 372 518 1 1 1
518 0 
1 0

31 373 373 519 1 3 3
519 1 
1 0

32 376 376 520 1 1 1
520 0 
3 0

32 377 377 523 1 1 1
523 0 
1 0

32 378 378 524 1 3 3
524 1 
1 0

33 381 381 525 1 1 1
525 0 
3 0

33 382 382 528 1 1 1
528 0 
1 0

33 383 383 529 1 3 3
529 1 
1 0

34 386 386 530 1 1 1
530 0 
3 0

34 387 387 533 1 1 1
533 0 
1 0

34 388 388 534 1 3 3
534 1 
1 0

35 391 391 535 1 1 1
535 0 
3 0

35 392 392 538 1 1 1
538 0 
1 0

35 393 393 539 1 3 3
539 1 
1 0

36 396 396 540 1 1 1
540 0 
3 0

36 397 397 543 1 1 1
543 0 
1 0

36 398 398 544 1 3 3
544 1 
1 0

37 401 401 545 1 1 1
545 0 
3 0

37 402 402 548 1 1 1
548 0 
1 0

37 403 403 549 1 3 3
549 1 
1 0

38 406 406 550 1 1 1
550 0 
3 0

38 407 407 553 1 1 1
553 0 
1 0

38 408 408 554 1 3 3
554 1 
1 0

39 411 411 555 1 1 1
555 0 
3 0

39 412 412 558 1 1 1
558 0 
1 0

39 413 413 559 1 3 3
559 1 
1 0

40 416 416 560 1 1 1
560 0 
3 0

40 417 417 563 1 1 1
563 0 
1 0

40 418 418 564 1 3 3
564 1 
1 0

41 421 421 565 1 1 1
565 0 
3 0

41 422 422 568 1 1 1
568 0 
1 0

41 423 423 569 1 3 3
569 1 
1 0

42 426 426 570 1 1 1
570 0 
3 0

42 427 427 573 1 1 1
573 0 
1 0

42 428 428 574 1 3 3
574 1 
1 0

43 431 431 575 1 1 1
575 0 
3 0

43 432 432 578 1 1 1
578 0 
1 0

43 433 433 579 1 3 3
579 1 
1 0

44 436 436 580 1 1 1
580 0 
3 0

44 437 437 583 1 1 1
583 0 
1 0

44 438 438 584 1 3 3
584 1 
1 0

45 441 441 585 1 1 1
585 0 
3 0

45 442 442 588 1 1 1
588 0 
1 0

45 443 443 589 1 3 3
589 1 
1 0

46 446 446 590 1 1 1
590 0 
3 0

46 447 447 593 1 1 1
593 0 
1 0

46 448 448 594 1 3 3
594 1 
1 0

47 451 451 595 1 1 1
595 0 
3 0

47 452 452 598 1 1 1
598 0 
1 0

47 453 453 599 1 3 3
599 1 
1 0

 -------------------------------------------------------------
 Allocate 8147320 B from available memory: 524288000000 B
 There are 343 image cells after screening.
 There are 165 image cells for CGTO evaluation after screening.
 Real-Space grid for FFT initialized based on kinetic energy cutoff (eV) = 500.0
 Real-Space grid for FFT: (25,27,35)
 There are 199155 real-space grid points.
 There are 1331 batches of real-space grid points. 
 Size of each grid batch is around 128
 Grid for AFT initialized based on kinetic energy cutoff (eV) = 200.0
 Real-Space grid for AFT: (16,18,22)
 There are 54945 real-space grid points.

 There are 138288 atom-centered grid points.

 Adding empirical dispersion correction 
 ----------------------------------------------------------------
 Doing -D3(BJ) with
 s6  =   1.00000e+00
 s8  =   7.87500e-01
 a1  =   4.28900e-01
 a2  =   4.44070e+00
 ----------------------------------------------------------------
 Monkhorst-Pack mesh is [4,4,4]
 There are 64 k points.
kpoints in Bohr
-0.1220601496 -0.1124803273 -0.0882409362
-0.1220601496 -0.1124803273 0.0000000000
-0.1220601496 -0.1124803273 0.0882409362
-0.1220601496 -0.1124803273 0.1764818724
-0.1220601496 0.0000000000 -0.0882409362
-0.1220601496 0.0000000000 0.0000000000
-0.1220601496 0.0000000000 0.0882409362
-0.1220601496 0.0000000000 0.1764818724
-0.1220601496 0.1124803273 -0.0882409362
-0.1220601496 0.1124803273 0.0000000000
-0.1220601496 0.1124803273 0.0882409362
-0.1220601496 0.1124803273 0.1764818724
-0.1220601496 0.2249606547 -0.0882409362
-0.1220601496 0.2249606547 0.0000000000
-0.1220601496 0.2249606547 0.0882409362
-0.1220601496 0.2249606547 0.1764818724
0.0000000000 -0.1124803273 -0.0882409362
0.0000000000 -0.1124803273 0.0000000000
0.0000000000 -0.1124803273 0.0882409362
0.0000000000 -0.1124803273 0.1764818724
0.0000000000 0.0000000000 -0.0882409362
0.0000000000 0.0000000000 0.0000000000
0.0000000000 0.0000000000 0.0882409362
0.0000000000 0.0000000000 0.1764818724
0.0000000000 0.1124803273 -0.0882409362
0.0000000000 0.1124803273 0.0000000000
0.0000000000 0.1124803273 0.0882409362
0.0000000000 0.1124803273 0.1764818724
0.0000000000 0.2249606547 -0.0882409362
0.0000000000 0.2249606547 0.0000000000
0.0000000000 0.2249606547 0.0882409362
0.0000000000 0.2249606547 0.1764818724
0.1220601496 -0.1124803273 -0.0882409362
0.1220601496 -0.1124803273 0.0000000000
0.1220601496 -0.1124803273 0.0882409362
0.1220601496 -0.1124803273 0.1764818724
0.1220601496 0.0000000000 -0.0882409362
0.1220601496 0.0000000000 0.0000000000
0.1220601496 0.0000000000 0.0882409362
0.1220601496 0.0000000000 0.1764818724
0.1220601496 0.1124803273 -0.0882409362
0.1220601496 0.1124803273 0.0000000000
0.1220601496 0.1124803273 0.0882409362
0.1220601496 0.1124803273 0.1764818724
0.1220601496 0.2249606547 -0.0882409362
0.1220601496 0.2249606547 0.0000000000
0.1220601496 0.2249606547 0.0882409362
0.1220601496 0.2249606547 0.1764818724
0.2441202993 -0.1124803273 -0.0882409362
0.2441202993 -0.1124803273 0.0000000000
0.2441202993 -0.1124803273 0.0882409362
0.2441202993 -0.1124803273 0.1764818724
0.2441202993 0.0000000000 -0.0882409362
0.2441202993 0.0000000000 0.0000000000
0.2441202993 0.0000000000 0.0882409362
0.2441202993 0.0000000000 0.1764818724
0.2441202993 0.1124803273 -0.0882409362
0.2441202993 0.1124803273 0.0000000000
0.2441202993 0.1124803273 0.0882409362
0.2441202993 0.1124803273 0.1764818724
0.2441202993 0.2249606547 -0.0882409362
0.2441202993 0.2249606547 0.0000000000
0.2441202993 0.2249606547 0.0882409362
0.2441202993 0.2249606547 0.1764818724
 There are 84 alpha and 84 beta electrons
 Start computing overlap matrix
 Allocate 212926464 B from available memory: 524279852704 B
 Time for computing overlap matrix: 5.7930000000 s
 ====== Initialize compute kernels for all-electron RI-J (kpts) ====== 
 ==== The unitcell is orthorombic! => Use orthorombic code ==== 
 ========================================================== 
 Range-separated parameter omega        = 0.400000000000000022
 Threshold for 1e2c shellpair           = 0.000000000000010000
 Threshold for 2e2c SR integral         = 0.000000000000000001
 Threshold for 2e3c SR integral         = 0.000000000100000000
 Threshold for AFT G-space screening is = 0.000000000100000000
 The exponent cutoff for C/D classification (omega2 / 2) is  = 0.080000000000000016
 ========================================================== 
 === Post process the basis set for RI calculation (exp_cutoff = 0.080000000000000016 ) === 
nshells_b1 before uncontraction = 216
nshells_b1 after uncontraction = 216
nshells_baux before uncontraction = 840
nshells_baux after uncontraction = 840
===============================================
nbsf total   = 456
nbsf compact = 456
nbsf diffuse = 0
naux total   = 2616
naux compact = 2616
naux diffuse = 0
nshells_bnuc = 48
================= Automatically determine grid size for reciprocal space summation =================
 Range-separated parameter = 0.40000000000000 and G-space screening threshold = 0.00000000010000
The number of grid points along each axis dimension is (9, 10, 12)
The total number of grid points is 9975
======== Initializing relevant kernel for RIJ (CC type) ========
There are 21832 shellpairs in the reference unit cell
There are 129 images and we expect to have 2816328 in total
There are 97016 shellpairs in the lattice sum after screening
****** AFT -> SR ******
Maximum bra distance cutoff is 21.000000000000
Maximum bra ket distance cutoff is 25.593750000000
Number of auxiliary image is 311
There are 21832 shellpairs in the reference unit cell
There are 239 images and we expect to have 5217848 in total
There are 97016 shellpairs in the lattice sum after screening
Available memory for 2e3c calculation is 16377091445
Batch size for auxiliary basis is 324 out of 2616
Batch size for basis function pair is 12227 out of 98472
Finish initializing 2e3c SR with the lattice sum!
=================================================
======== Initialize the SR component for Vnuc (CC type) ========
Maximum bra distance cutoff is 21.000000000000
Maximum bra ket distance cutoff is 19.684503572163
Number of auxiliary image is 221
There are 21832 shellpairs in the reference unit cell
There are 239 images and we expect to have 5217848 in total
There are 97016 shellpairs in the lattice sum after screening
Available memory for 2e3c calculation is 16377091445
Batch size for auxiliary basis is 48 out of 48
Batch size for basis function pair is 98472 out of 98472
Finish initializing 2e3c SR with the lattice sum!
=================================================
 Aufbau occupation scheme, occupation determined by eigenvalue
 == 0-th k-point nmo = 456 (-0.12206,-0.11248,-0.08824) ==
 == 1-th k-point nmo = 456 (-0.12206,-0.11248,0.00000) ==
 == 2-th k-point nmo = 456 (-0.12206,-0.11248,0.08824) ==
 == 3-th k-point nmo = 456 (-0.12206,-0.11248,0.17648) ==
 == 4-th k-point nmo = 456 (-0.12206,0.00000,-0.08824) ==
 == 5-th k-point nmo = 456 (-0.12206,0.00000,0.00000) ==
 == 6-th k-point nmo = 456 (-0.12206,0.00000,0.08824) ==
 == 7-th k-point nmo = 456 (-0.12206,0.00000,0.17648) ==
 == 8-th k-point nmo = 456 (-0.12206,0.11248,-0.08824) ==
 == 9-th k-point nmo = 456 (-0.12206,0.11248,0.00000) ==
 == 10-th k-point nmo = 456 (-0.12206,0.11248,0.08824) ==
 == 11-th k-point nmo = 456 (-0.12206,0.11248,0.17648) ==
 == 12-th k-point nmo = 456 (-0.12206,0.22496,-0.08824) ==
 == 13-th k-point nmo = 456 (-0.12206,0.22496,0.00000) ==
 == 14-th k-point nmo = 456 (-0.12206,0.22496,0.08824) ==
 == 15-th k-point nmo = 456 (-0.12206,0.22496,0.17648) ==
 == 16-th k-point nmo = 456 (0.00000,-0.11248,-0.08824) ==
 == 17-th k-point nmo = 456 (0.00000,-0.11248,0.00000) ==
 == 18-th k-point nmo = 456 (0.00000,-0.11248,0.08824) ==
 == 19-th k-point nmo = 456 (0.00000,-0.11248,0.17648) ==
 == 20-th k-point nmo = 456 (0.00000,0.00000,-0.08824) ==
 == 21-th k-point nmo = 456 (0.00000,0.00000,0.00000) ==
 == 22-th k-point nmo = 456 (0.00000,0.00000,0.08824) ==
 == 23-th k-point nmo = 456 (0.00000,0.00000,0.17648) ==
 == 24-th k-point nmo = 456 (0.00000,0.11248,-0.08824) ==
 == 25-th k-point nmo = 456 (0.00000,0.11248,0.00000) ==
 == 26-th k-point nmo = 456 (0.00000,0.11248,0.08824) ==
 == 27-th k-point nmo = 456 (0.00000,0.11248,0.17648) ==
 == 28-th k-point nmo = 456 (0.00000,0.22496,-0.08824) ==
 == 29-th k-point nmo = 456 (0.00000,0.22496,0.00000) ==
 == 30-th k-point nmo = 456 (0.00000,0.22496,0.08824) ==
 == 31-th k-point nmo = 456 (0.00000,0.22496,0.17648) ==
 == 32-th k-point nmo = 456 (0.12206,-0.11248,-0.08824) ==
 == 33-th k-point nmo = 456 (0.12206,-0.11248,0.00000) ==
 == 34-th k-point nmo = 456 (0.12206,-0.11248,0.08824) ==
 == 35-th k-point nmo = 456 (0.12206,-0.11248,0.17648) ==
 == 36-th k-point nmo = 456 (0.12206,0.00000,-0.08824) ==
 == 37-th k-point nmo = 456 (0.12206,0.00000,0.00000) ==
 == 38-th k-point nmo = 456 (0.12206,0.00000,0.08824) ==
 == 39-th k-point nmo = 456 (0.12206,0.00000,0.17648) ==
 == 40-th k-point nmo = 456 (0.12206,0.11248,-0.08824) ==
 == 41-th k-point nmo = 456 (0.12206,0.11248,0.00000) ==
 == 42-th k-point nmo = 456 (0.12206,0.11248,0.08824) ==
 == 43-th k-point nmo = 456 (0.12206,0.11248,0.17648) ==
 == 44-th k-point nmo = 456 (0.12206,0.22496,-0.08824) ==
 == 45-th k-point nmo = 456 (0.12206,0.22496,0.00000) ==
 == 46-th k-point nmo = 456 (0.12206,0.22496,0.08824) ==
 == 47-th k-point nmo = 456 (0.12206,0.22496,0.17648) ==
 == 48-th k-point nmo = 456 (0.24412,-0.11248,-0.08824) ==
 == 49-th k-point nmo = 456 (0.24412,-0.11248,0.00000) ==
 == 50-th k-point nmo = 456 (0.24412,-0.11248,0.08824) ==
 == 51-th k-point nmo = 456 (0.24412,-0.11248,0.17648) ==
 == 52-th k-point nmo = 456 (0.24412,0.00000,-0.08824) ==
 == 53-th k-point nmo = 456 (0.24412,0.00000,0.00000) ==
 == 54-th k-point nmo = 456 (0.24412,0.00000,0.08824) ==
 == 55-th k-point nmo = 456 (0.24412,0.00000,0.17648) ==
 == 56-th k-point nmo = 456 (0.24412,0.11248,-0.08824) ==
 == 57-th k-point nmo = 456 (0.24412,0.11248,0.00000) ==
 == 58-th k-point nmo = 456 (0.24412,0.11248,0.08824) ==
 == 59-th k-point nmo = 456 (0.24412,0.11248,0.17648) ==
 == 60-th k-point nmo = 456 (0.24412,0.22496,-0.08824) ==
 == 61-th k-point nmo = 456 (0.24412,0.22496,0.00000) ==
 == 62-th k-point nmo = 456 (0.24412,0.22496,0.08824) ==
 == 63-th k-point nmo = 456 (0.24412,0.22496,0.17648) ==

 Generate autoSAD guess
backing up fragment data
Atom # 0: c, charge: 0, multiplicity: 3.000000
Atom # 1: h, charge: 0, multiplicity: 2.000000
writing autosad to fragment context
Settings for isolated fragments: 
  BSSE: FALSE
  frgm_gamma: TRUE
  frgm_center: FALSE

    Running SCF for isolated atom #0
    Fragment Input file: /scratch/bdxq/hdinh//benzene_crystal_ccpvdz_omega_0.4_444.scratch20250709185738/autosad_frgmt_0/frgmt_input.in
    Fragment Output file: /scratch/bdxq/hdinh//benzene_crystal_ccpvdz_omega_0.4_444.scratch20250709185738/autosad_frgmt_0/frgmt_job.out
    Fragment job begins at Wed Jul  9 18:58:00 2025

 Integrated density by DFT XC:
   Numerical integral  =     6.000000000746
   Relative error      =     0.0000000124 %
Final energy components:
 DFT Correlation                 Energy =  -0.14559494858934
 DFT Exchange                    Energy =  -5.02589620272333
 Empirical Dispersion Correction Energy =   0.00000000000000
 Kinetic (alpha)                 Energy =  20.10993503709697
 Kinetic (beta)                  Energy =  17.53059881834754
 Nuclear Attraction (alpha)      Energy = -48.81819269056741
 Nuclear Attraction (beta)       Energy = -39.28429202286240
 Nuclear Repulsion               Energy =   0.00000000000000
 SEOQF                           Energy =  -0.00000000041816
 Total Coulomb                   Energy =  17.84490478928227
----------------------------------------------
    SCF Energy: -37.7885372204
   Total fragment job time:  1.47 s.
    Running SCF for isolated atom #1
    Fragment Input file: /scratch/bdxq/hdinh//benzene_crystal_ccpvdz_omega_0.4_444.scratch20250709185738/autosad_frgmt_1/frgmt_input.in
    Fragment Output file: /scratch/bdxq/hdinh//benzene_crystal_ccpvdz_omega_0.4_444.scratch20250709185738/autosad_frgmt_1/frgmt_job.out
    Fragment job begins at Wed Jul  9 18:58:02 2025

 Integrated density by DFT XC:
   Numerical integral  =     0.999999999853
   Relative error      =     0.0000000147 %
Final energy components:
 DFT Correlation                 Energy =  -0.00600533731674
 DFT Exchange                    Energy =  -0.30388266550691
 Empirical Dispersion Correction Energy =   0.00000000000000
 Kinetic (alpha)                 Energy =   0.49273654699436
 Kinetic (beta)                  Energy =   0.00000000000000
 Nuclear Attraction (alpha)      Energy =  -0.99199174887590
 Nuclear Attraction (beta)       Energy =   0.00000000000000
 Nuclear Repulsion               Energy =   0.00000000000000
 SEOQF                           Energy =   0.00000000000000
 Total Coulomb                   Energy =   0.31051583666305
----------------------------------------------
    SCF Energy: -0.4986273680
   Total fragment job time:  1.03 s.
restoring fragment data

 ------------------------------------------------------------------------
 Allocate 638948352 B from available memory: 524066926240 B
 Time for generating SCF guess: 2.85 s

 Allocate 3409816 B from available memory: 523427977888 B
 Selected algorithms for each term:
  kpts_dftd3 -> @0x7f9a4895f6a0
  kpts_kinetic -> @0x7f9a4895f5e0
  kpts_nn -> @0x7f9a4895f760
  kpts_rij_bigmem -> @0x7f9a4895f340
  kpts_vnuc_df -> @0x7f9a4895f2e0
  kpts_xc -> @0x7f9a4895f220

 Time for computing kinetic matrix is 5.67 s
Start calculating Vnuc CC type!
 Time for computing nuclear attraction matrix is 7.96 s
Maximum distance between P and Q is 48.46736674611299
Number of images for (P|Qn) is 157
 Time for computing 2e2c SR integral is 1.39 s
 === bvk cell = 0 has 75.82 % of the basis function pairs === 
 === bvk cell = 1 has 20.35 % of the basis function pairs === 
 === bvk cell = 2 has 0.00 % of the basis function pairs === 
 === bvk cell = 3 has 20.87 % of the basis function pairs === 
 === bvk cell = 4 has 28.61 % of the basis function pairs === 
 === bvk cell = 5 has 6.20 % of the basis function pairs === 
 === bvk cell = 6 has 0.00 % of the basis function pairs === 
 === bvk cell = 7 has 7.54 % of the basis function pairs === 
 === bvk cell = 8 has 0.76 % of the basis function pairs === 
 === bvk cell = 9 has 0.15 % of the basis function pairs === 
 === bvk cell = 10 has 0.00 % of the basis function pairs === 
 === bvk cell = 11 has 0.09 % of the basis function pairs === 
 === bvk cell = 12 has 29.39 % of the basis function pairs === 
 === bvk cell = 13 has 7.74 % of the basis function pairs === 
 === bvk cell = 14 has 0.00 % of the basis function pairs === 
 === bvk cell = 15 has 6.27 % of the basis function pairs === 
 === bvk cell = 16 has 32.36 % of the basis function pairs === 
 === bvk cell = 17 has 7.85 % of the basis function pairs === 
 === bvk cell = 18 has 0.00 % of the basis function pairs === 
 === bvk cell = 19 has 7.82 % of the basis function pairs === 
 === bvk cell = 20 has 11.55 % of the basis function pairs === 
 === bvk cell = 21 has 1.72 % of the basis function pairs === 
 === bvk cell = 22 has 0.00 % of the basis function pairs === 
 === bvk cell = 23 has 2.90 % of the basis function pairs === 
 === bvk cell = 24 has 0.16 % of the basis function pairs === 
 === bvk cell = 25 has 0.02 % of the basis function pairs === 
 === bvk cell = 26 has 0.00 % of the basis function pairs === 
 === bvk cell = 27 has 0.02 % of the basis function pairs === 
 === bvk cell = 28 has 10.59 % of the basis function pairs === 
 === bvk cell = 29 has 2.65 % of the basis function pairs === 
 === bvk cell = 30 has 0.00 % of the basis function pairs === 
 === bvk cell = 31 has 2.07 % of the basis function pairs === 
 === bvk cell = 32 has 2.28 % of the basis function pairs === 
 === bvk cell = 33 has 0.32 % of the basis function pairs === 
 === bvk cell = 34 has 0.00 % of the basis function pairs === 
 === bvk cell = 35 has 0.31 % of the basis function pairs === 
 === bvk cell = 36 has 0.47 % of the basis function pairs === 
 === bvk cell = 37 has 0.02 % of the basis function pairs === 
 === bvk cell = 38 has 0.00 % of the basis function pairs === 
 === bvk cell = 39 has 0.11 % of the basis function pairs === 
 === bvk cell = 40 has 0.00 % of the basis function pairs === 
 === bvk cell = 41 has 0.00 % of the basis function pairs === 
 === bvk cell = 42 has 0.00 % of the basis function pairs === 
 === bvk cell = 43 has 0.00 % of the basis function pairs === 
 === bvk cell = 44 has 0.57 % of the basis function pairs === 
 === bvk cell = 45 has 0.16 % of the basis function pairs === 
 === bvk cell = 46 has 0.00 % of the basis function pairs === 
 === bvk cell = 47 has 0.02 % of the basis function pairs === 
 === bvk cell = 48 has 33.00 % of the basis function pairs === 
 === bvk cell = 49 has 7.83 % of the basis function pairs === 
 === bvk cell = 50 has 0.00 % of the basis function pairs === 
 === bvk cell = 51 has 8.10 % of the basis function pairs === 
 === bvk cell = 52 has 10.53 % of the basis function pairs === 
 === bvk cell = 53 has 2.22 % of the basis function pairs === 
 === bvk cell = 54 has 0.00 % of the basis function pairs === 
 === bvk cell = 55 has 2.46 % of the basis function pairs === 
 === bvk cell = 56 has 0.18 % of the basis function pairs === 
 === bvk cell = 57 has 0.06 % of the basis function pairs === 
 === bvk cell = 58 has 0.00 % of the basis function pairs === 
 === bvk cell = 59 has 0.01 % of the basis function pairs === 
 === bvk cell = 60 has 12.28 % of the basis function pairs === 
 === bvk cell = 61 has 3.11 % of the basis function pairs === 
 === bvk cell = 62 has 0.00 % of the basis function pairs === 
 === bvk cell = 63 has 1.80 % of the basis function pairs === 
Static memory requirement for 2e3c SR integrals: 7.089 GB
Dynamic memory requirement for 2e3c SR integrals: 1.334 GB
There are 388 munu batches for computing 2e3c SR integrals with latsum
There are 42 Q batches for computing 2e3c SR integrals with latsum
 Time for computing 2e3c SR integral (CC) is 129.85 s
 ----------------------------------------------
 Guess energy components:
 D3 correction      Energy =  -0.12328073067621
 DFT Correlation    Energy =  -5.61635420768348
 DFT Exchange       Energy = -134.42036895837219
 Kinetic            Energy = 933.89497450808904
 Nuclear Attraction Energy = -1957.12673752506862
 Nuclear Repulsion  Energy = -128.08132826085716
 Total Coulomb      Energy = 364.07749061856038
 ----------------------------------------------
  Cycle       Energy        RMS Gradient
 ----------------------------------------------
    1    -927.4821570774      1.23e-01   Descent step
 Energy components after cycle 1:
 D3 correction      Energy =  -0.12328073067621
 DFT Correlation    Energy =  -5.61167531312088
 DFT Exchange       Energy = -134.26578640870503
 Kinetic            Energy = 932.97539995784598
 Nuclear Attraction Energy = -1954.90120062889582
 Nuclear Repulsion  Energy = -128.08132826085716
 Total Coulomb      Energy = 362.52571430704381
    2    -927.9137516690      1.12e-01  Line search: understep
 Energy components after cycle 2:
 D3 correction      Energy =  -0.12328073067621
 DFT Correlation    Energy =  -5.57432133294737
 DFT Exchange       Energy = -132.87229213006430
 Kinetic            Energy = 924.76853544584128
 Nuclear Attraction Energy = -1934.49943409874504
 Nuclear Repulsion  Energy = -128.08132826085716
 Total Coulomb      Energy = 348.46836943841078
    3    -927.9287894476      2.13e-02   Descent step
 Energy components after cycle 3:
 D3 correction      Energy =  -0.12328073067621
 DFT Correlation    Energy =  -5.57426786699124
 DFT Exchange       Energy = -132.73634421528288
 Kinetic            Energy = 924.01159703214364
 Nuclear Attraction Energy = -1932.92961572268769
 Nuclear Repulsion  Energy = -128.08132826085716
 Total Coulomb      Energy = 347.50445031676264
    4    -927.9385271590      1.51e-02   Descent step
 Energy components after cycle 4:
 D3 correction      Energy =  -0.12328073067621
 DFT Correlation    Energy =  -5.57485071467493
 DFT Exchange       Energy = -132.60317036361238
 Kinetic            Energy = 923.28137652797443
 Nuclear Attraction Energy = -1931.45135627781474
 Nuclear Repulsion  Energy = -128.08132826085716
 Total Coulomb      Energy = 346.61408266070111
    5    -927.9433308118      1.01e-02   Descent step
 Energy components after cycle 5:
 D3 correction      Energy =  -0.12328073067621
 DFT Correlation    Energy =  -5.57635964531669
 DFT Exchange       Energy = -132.48055853485741
 Kinetic            Energy = 922.62759818293318
 Nuclear Attraction Energy = -1930.18654915286356
 Nuclear Repulsion  Energy = -128.08132826085716
 Total Coulomb      Energy = 345.87714732980891
    6    -927.9440755555      4.13e-03   Normal BFGS step
 Energy components after cycle 6:
 D3 correction      Energy =  -0.12328073067621
 DFT Correlation    Energy =  -5.57868005991708
 DFT Exchange       Energy = -132.42797007941232
 Kinetic            Energy = 922.38328071999217
 Nuclear Attraction Energy = -1929.78033815636013
 Nuclear Repulsion  Energy = -128.08132826085716
 Total Coulomb      Energy = 345.66424101169468
    7    -927.9439317312      3.53e-03   Normal BFGS step
 Energy components after cycle 7:
 D3 correction      Energy =  -0.12328073067621
 DFT Correlation    Energy =  -5.57873841543008
 DFT Exchange       Energy = -132.42602264946845
 Kinetic            Energy = 922.37080253881584
 Nuclear Attraction Energy = -1929.76807488233044
 Nuclear Repulsion  Energy = -128.08132826085716
 Total Coulomb      Energy = 345.66271066875549
    8    -927.9440908520      9.20e-03  Line search: overstep
 Energy components after cycle 8:
 D3 correction      Energy =  -0.12328073067621
 DFT Correlation    Energy =  -5.57870867456237
 DFT Exchange       Energy = -132.42701248664298
 Kinetic            Energy = 922.37714953412103
 Nuclear Attraction Energy = -1929.77433673917812
 Nuclear Repulsion  Energy = -128.08132826085716
 Total Coulomb      Energy = 345.66342650575882
    9    -927.9441082629      2.65e-03   Normal BFGS step
 Energy components after cycle 9:
 D3 correction      Energy =  -0.12328073067621
 DFT Correlation    Energy =  -5.57847500301561
 DFT Exchange       Energy = -132.43007973138981
 Kinetic            Energy = 922.38810580749134
 Nuclear Attraction Energy = -1929.78867417404263
 Nuclear Repulsion  Energy = -128.08132826085716
 Total Coulomb      Energy = 345.66962382958002
   10    -927.9441064223      4.81e-04   Normal BFGS step
 Energy components after cycle 10:
 D3 correction      Energy =  -0.12328073067621
 DFT Correlation    Energy =  -5.57846529755316
 DFT Exchange       Energy = -132.43001105627440
 Kinetic            Energy = 922.38832732037611
 Nuclear Attraction Energy = -1929.78574820766789
 Nuclear Repulsion  Energy = -128.08132826085716
 Total Coulomb      Energy = 345.66639981030488
   11    -927.9441093569      7.80e-04  Line search: overstep
 Energy components after cycle 11:
 D3 correction      Energy =  -0.12328073067621
 DFT Correlation    Energy =  -5.57847019761605
 DFT Exchange       Energy = -132.43004549092387
 Kinetic            Energy = 922.38821450321836
 Nuclear Attraction Energy = -1929.78722420303666
 Nuclear Repulsion  Energy = -128.08132826085716
 Total Coulomb      Energy = 345.66802502299953
   12    -927.9441096073      2.32e-04   Normal BFGS step
 Energy components after cycle 12:
 D3 correction      Energy =  -0.12328073067621
 DFT Correlation    Energy =  -5.57849886733834
 DFT Exchange       Energy = -132.42961571248304
 Kinetic            Energy = 922.38698807671881
 Nuclear Attraction Energy = -1929.78433290474914
 Nuclear Repulsion  Energy = -128.08132826085716
 Total Coulomb      Energy = 345.66595879212900
   13    -927.9441096486      1.27e-04   Normal BFGS step
 Energy components after cycle 13:
 D3 correction      Energy =  -0.12328073067621
 DFT Correlation    Energy =  -5.57850067435188
 DFT Exchange       Energy = -132.42964369232152
 Kinetic            Energy = 922.38700620205771
 Nuclear Attraction Energy = -1929.78500180696687
 Nuclear Repulsion  Energy = -128.08132826085716
 Total Coulomb      Energy = 345.66663931448505
   14    -927.9441096988      9.78e-05   Normal BFGS step
 Energy components after cycle 14:
 D3 correction      Energy =  -0.12328073067621
 DFT Correlation    Energy =  -5.57849503512404
 DFT Exchange       Energy = -132.42979309839072
 Kinetic            Energy = 922.38753698697417
 Nuclear Attraction Energy = -1929.78657280030666
 Nuclear Repulsion  Energy = -128.08132826085716
 Total Coulomb      Energy = 345.66782323956875
   15    -927.9441097063      4.26e-05   Normal BFGS step
 Energy components after cycle 15:
 D3 correction      Energy =  -0.12328073067621
 DFT Correlation    Energy =  -5.57849523177658
 DFT Exchange       Energy = -132.42973151789101
 Kinetic            Energy = 922.38731874490486
 Nuclear Attraction Energy = -1929.78566094499411
 Nuclear Repulsion  Energy = -128.08132826085716
 Total Coulomb      Energy = 345.66706823498470
   16    -927.9441097098      3.97e-05   Normal BFGS step
 Energy components after cycle 16:
 D3 correction      Energy =  -0.12328073067621
 DFT Correlation    Energy =  -5.57849618877459
 DFT Exchange       Energy = -132.42969043308491
 Kinetic            Energy = 922.38715408485541
 Nuclear Attraction Energy = -1929.78515045584595
 Nuclear Repulsion  Energy = -128.08132826085716
 Total Coulomb      Energy = 345.66668227460065
   17    -927.9441097129      2.12e-05   Normal BFGS step
 Energy components after cycle 17:
 D3 correction      Energy =  -0.12328073067621
 DFT Correlation    Energy =  -5.57849621426233
 DFT Exchange       Energy = -132.42973311792304
 Kinetic            Energy = 922.38732794132477
 Nuclear Attraction Energy = -1929.78580488773082
 Nuclear Repulsion  Energy = -128.08132826085716
 Total Coulomb      Energy = 345.66720555720548
   18    -927.9441097128      8.12e-06   Normal BFGS step
 Energy components after cycle 18:
 D3 correction      Energy =  -0.12328073067621
 DFT Correlation    Energy =  -5.57849587184766
 DFT Exchange       Energy = -132.42973397153619
 Kinetic            Energy = 922.38732687316713
 Nuclear Attraction Energy = -1929.78577626821152
 Nuclear Repulsion  Energy = -128.08132826085716
 Total Coulomb      Energy = 345.66717851714537
   18    -927.9441097128      8.12e-06  Convergence criterion met
 ----------------------------------------------
 Final energy components:
 D3 correction      Energy =  -0.12328073067621
 DFT Correlation    Energy =  -5.57849587184766
 DFT Exchange       Energy = -132.42973397153619
 Kinetic            Energy = 922.38732687316713
 Nuclear Attraction Energy = -1929.78577626821152
 Nuclear Repulsion  Energy = -128.08132826085716
 Total Coulomb      Energy = 345.66717851714537
 ----------------------------------------------
 Final energy is -927.9441097128

 SCF time:   CPU 24213.53s  wall 869.00s 
 Total wall time for computing Kinetic: 0.76 s (20)
 Total wall time for computing RIJ-BIGMEM: 192.97 s (20)
 Total wall time for computing RSDF Vnuc: 0.80 s (20)
 Total wall time for computing DFT XC: 341.94 s (20)
 ---------------------------------------------------------------------------
                        Orbital Energies (a.u.)
 ---------------------------------------------------------------------------
 == 0-th k-point (-0.12206,-0.11248,-0.08824) occupation: 84==
 -9.69275 -9.69275 -9.69274 -9.69273 -9.69273 -9.69272 -9.69271 -9.69271 -9.69237 -9.69237
 -9.69237 -9.69236 -9.69233 -9.69232 -9.69232 -9.69231 -9.69111 -9.69111 -9.69110 -9.69110
 -9.69109 -9.69109 -9.69109 -9.69108 -0.57532 -0.57351 -0.57225 -0.57203 -0.47395 -0.47128
 -0.47067 -0.47013 -0.46868 -0.46819 -0.46722 -0.46659 -0.33929 -0.33830 -0.33692 -0.33569
 -0.33461 -0.33356 -0.33300 -0.33037 -0.27063 -0.26233 -0.26208 -0.25717 -0.20574 -0.20212
 -0.19873 -0.19608 -0.19095 -0.19041 -0.18972 -0.18935 -0.17410 -0.17335 -0.17243 -0.16593
 -0.16224 -0.16083 -0.15788 -0.15572 -0.12917 -0.12456 -0.12060 -0.11786 -0.09642 -0.09497
 -0.09315 -0.09176 -0.08877 -0.08580 -0.08342 -0.08157 -0.03035 -0.02966 -0.02640 -0.02578
 -0.02335 -0.02039 -0.01755 -0.01646 0.15695 0.15738 0.16271 0.16487 0.16639 0.16979
 0.17336 0.17587 0.22123 0.25339 0.26413 0.26549 0.26987 0.27981 0.28192 0.29628
 0.30250 0.30306 0.30883 0.30994 0.31865 0.33036 0.33642 0.34477 0.34752 0.35929
 0.36018 0.36756 0.37764 0.38130 0.39000 0.39226 0.40081 0.40925 0.41524 0.42565
 0.42734 0.43779 0.44579 0.44823 0.44907 0.46173 0.46508 0.46667 0.46964 0.47549
 0.48164 0.48789 0.49220 0.49844 0.51105 0.51621 0.53211 0.54204 0.55951 0.58167
 0.58986 0.59310 0.60141 0.60896 0.61818 0.62196 0.62921 0.63329 0.64381 0.65265
 0.65383 0.66182 0.66693 0.66948 0.67418 0.67922 0.69104 0.69355 0.70064 0.70554
 0.70860 0.71494 0.71760 0.72073 0.72831 0.73229 0.74146 0.74535 0.75027 0.75294
 0.75959 0.76923 0.77468 0.77973 0.78619 0.79403 0.80641 0.81046 0.81597 0.82463
 0.82932 0.83746 0.84209 0.85134 0.85469 0.86067 0.86288 0.86602 0.87253 0.87774
 0.88186 0.88278 0.89257 0.89632 0.89719 0.90134 0.91499 0.91844 0.92652 0.93188
 0.93759 0.94045 0.95006 0.96268 0.96571 0.97584 0.98869 0.99832 1.00188 1.00418
 1.00877 1.02418 1.04122 1.05553 1.05677 1.06252 1.06405 1.06886 1.07861 1.08394
 1.09082 1.09800 1.10497 1.11125 1.11464 1.12832 1.13352 1.13930 1.14457 1.14752
 1.15110 1.15478 1.15636 1.16255 1.16998 1.17309 1.17689 1.18532 1.19432 1.20123
 1.20217 1.20530 1.21444 1.21666 1.22172 1.22342 1.22999 1.23295 1.23797 1.24191
 1.24209 1.24906 1.26136 1.27691 1.28613 1.29245 1.30123 1.31029 1.31539 1.33462
 1.33902 1.34798 1.35138 1.35681 1.36372 1.36542 1.36803 1.37816 1.38341 1.40029
 1.40343 1.41130 1.42278 1.43006 1.43686 1.45186 1.45665 1.46170 1.46506 1.47555
 1.48824 1.50882 1.51078 1.52783 1.54530 1.55576 1.56052 1.56723 1.63059 1.63472
 1.63646 1.64572 1.64768 1.65162 1.66838 1.67943 1.68199 1.69354 1.69968 1.70302
 1.70533 1.71630 1.73646 1.74090 1.75791 1.76157 1.76801 1.77025 1.77799 1.78295
 1.78582 1.78860 1.79267 1.79844 1.80226 1.80666 1.81028 1.81331 1.81923 1.82160
 1.82403 1.82662 1.83246 1.83588 1.83809 1.84704 1.84913 1.84980 1.85464 1.85822
 1.86320 1.86766 1.87237 1.88118 1.89000 1.89411 1.89996 1.90484 1.90838 1.91015
 1.91848 1.92191 1.92915 1.93159 1.94528 1.95045 1.95625 1.95806 1.95845 1.96598
 1.96888 1.97496 1.97577 1.98545 1.99227 2.00029 2.00942 2.01188 2.01797 2.02250
 2.02769 2.03448 2.03823 2.03981 2.04712 2.05361 2.05777 2.06100 2.07160 2.08421
 2.09128 2.09819 2.11089 2.11475 2.12246 2.12527 2.13163 2.14127 2.14517 2.15127
 2.15495 2.16852 2.17839 2.17940 2.19258 2.20251 2.21129 2.23501 2.24316 2.25391
 2.27277 2.28364 2.30818 2.31792 2.32615 2.33053 2.33175 2.33580 2.34551 2.36031
 2.38844 2.39131 2.41163 2.41569 2.43893 2.44371 2.45594 2.49714 2.59209 2.60434
 2.60720 2.62791 2.63612 2.63871 2.64460 2.65214 2.66011 2.66681 2.68310 2.68901
 2.70368 2.70480 2.71835 2.72302 2.73070 2.75056 2.76051 2.78173 2.79261 2.80326
 2.80946 2.81201 2.81828 2.83061 2.84078 2.87075 2.90706 2.92836 2.93505 2.94632
 2.94839 2.95660 2.96584 2.97354 3.09025 3.09575 3.09680 3.11166 3.11920 3.12301
 3.13221 3.15261 3.79137 3.79524 3.80636 3.82486
 == 1-th k-point (-0.12206,-0.11248,0.00000) occupation: 84==
 -9.69276 -9.69275 -9.69274 -9.69273 -9.69273 -9.69272 -9.69271 -9.69270 -9.69237 -9.69237
 -9.69236 -9.69236 -9.69233 -9.69232 -9.69232 -9.69231 -9.69111 -9.69111 -9.69110 -9.69110
 -9.69110 -9.69109 -9.69109 -9.69108 -0.57568 -0.57313 -0.57230 -0.57199 -0.47461 -0.47066
 -0.47026 -0.46976 -0.46931 -0.46822 -0.46731 -0.46663 -0.33916 -0.33853 -0.33577 -0.33544
 -0.33485 -0.33390 -0.33382 -0.32987 -0.27320 -0.26249 -0.26247 -0.25411 -0.20701 -0.20327
 -0.19687 -0.19502 -0.19142 -0.19079 -0.18957 -0.18913 -0.17380 -0.17253 -0.17225 -0.16381
 -0.16351 -0.16053 -0.16028 -0.15574 -0.12961 -0.12422 -0.12126 -0.11738 -0.09621 -0.09539
 -0.09322 -0.09097 -0.09002 -0.08665 -0.08308 -0.08097 -0.03007 -0.02873 -0.02838 -0.02607
 -0.02242 -0.01929 -0.01774 -0.01669 0.15820 0.15859 0.16347 0.16389 0.16848 0.16944
 0.17010 0.17551 0.21621 0.25927 0.26296 0.26530 0.27169 0.27956 0.28486 0.29944
 0.30043 0.30108 0.30840 0.31000 0.32138 0.32219 0.33774 0.34065 0.34378 0.36048
 0.36166 0.36985 0.37943 0.38667 0.39096 0.40234 0.40444 0.41409 0.41764 0.42122
 0.42535 0.43305 0.44422 0.44746 0.45927 0.46027 0.46140 0.47098 0.47498 0.47695
 0.48011 0.48381 0.48512 0.49640 0.51193 0.51361 0.52203 0.53139 0.55359 0.57332
 0.60132 0.60157 0.60699 0.62163 0.62312 0.63197 0.63669 0.63735 0.63779 0.65175
 0.65511 0.65600 0.66456 0.66696 0.67607 0.68154 0.68607 0.69315 0.69800 0.70105
 0.70551 0.70808 0.71738 0.72379 0.72662 0.72974 0.73750 0.74505 0.74789 0.75562
 0.76060 0.76583 0.77110 0.77120 0.79202 0.79492 0.80682 0.80911 0.82072 0.82393
 0.83869 0.84055 0.85023 0.85045 0.85312 0.85854 0.85922 0.86589 0.86753 0.87018
 0.88008 0.88222 0.88485 0.89057 0.89860 0.90083 0.91830 0.92320 0.92425 0.93801
 0.94488 0.94961 0.95244 0.95971 0.96429 0.97420 0.97993 0.99280 0.99328 1.00465
 1.01806 1.03532 1.03764 1.04951 1.05848 1.06257 1.06342 1.07528 1.07817 1.08667
 1.09023 1.09543 1.10621 1.11128 1.11855 1.13216 1.13581 1.13725 1.14431 1.14452
 1.15143 1.15691 1.16045 1.16477 1.16615 1.16781 1.18161 1.18375 1.19192 1.19936
 1.20148 1.20989 1.21132 1.21563 1.22139 1.22488 1.22886 1.23065 1.23302 1.23862
 1.24719 1.25115 1.25328 1.28088 1.28665 1.29994 1.30268 1.30420 1.30447 1.33795
 1.34316 1.34958 1.35555 1.35887 1.36214 1.36248 1.36950 1.37353 1.38242 1.39775
 1.40368 1.40495 1.42753 1.43082 1.43490 1.44296 1.46631 1.47617 1.47638 1.48023
 1.49832 1.50534 1.50772 1.52206 1.53400 1.55666 1.56688 1.56744 1.63026 1.63260
 1.63684 1.64294 1.64550 1.65058 1.67520 1.68570 1.68822 1.69202 1.70109 1.70138
[...]
 2.60461 2.60461 2.65064 2.65064 2.65064 2.65064 2.67832 2.67833 2.67833 2.67833
 2.70816 2.70816 2.70816 2.70816 2.74865 2.74865 2.74865 2.74865 2.79985 2.79985
 2.79985 2.79985 2.84304 2.84304 2.84304 2.84304 2.92615 2.92615 2.92615 2.92615
 2.95135 2.95135 2.95135 2.95135 3.09372 3.09372 3.09372 3.09372 3.14178 3.14178
 3.14179 3.14179 3.79702 3.79702 3.79702 3.79703
 == 60-th k-point (0.24412,0.22496,-0.08824) occupation: 84==
 -9.69275 -9.69274 -9.69274 -9.69274 -9.69272 -9.69272 -9.69272 -9.69271 -9.69237 -9.69237
 -9.69237 -9.69236 -9.69232 -9.69232 -9.69232 -9.69232 -9.69111 -9.69110 -9.69110 -9.69110
 -9.69110 -9.69110 -9.69109 -9.69109 -0.57325 -0.57325 -0.57325 -0.57325 -0.47210 -0.47210
 -0.47210 -0.47210 -0.46721 -0.46721 -0.46720 -0.46720 -0.33807 -0.33807 -0.33807 -0.33807
 -0.33236 -0.33236 -0.33236 -0.33236 -0.26255 -0.26255 -0.26255 -0.26254 -0.20112 -0.20112
 -0.20112 -0.20112 -0.19022 -0.19022 -0.19022 -0.19021 -0.17408 -0.17408 -0.17407 -0.17407
 -0.15854 -0.15854 -0.15854 -0.15854 -0.11927 -0.11927 -0.11927 -0.11927 -0.09512 -0.09512
 -0.09512 -0.09512 -0.08516 -0.08516 -0.08516 -0.08515 -0.02644 -0.02644 -0.02644 -0.02643
 -0.02029 -0.02029 -0.02028 -0.02028 0.15704 0.15704 0.15704 0.15704 0.17432 0.17432
 0.17432 0.17432 0.24604 0.24604 0.24604 0.24604 0.28032 0.28032 0.28032 0.28032
 0.30348 0.30348 0.30348 0.30348 0.32815 0.32815 0.32815 0.32815 0.36512 0.36513
 0.36513 0.36513 0.38780 0.38780 0.38780 0.38780 0.41118 0.41118 0.41118 0.41118
 0.44922 0.44922 0.44922 0.44922 0.46132 0.46132 0.46132 0.46132 0.47809 0.47809
 0.47809 0.47809 0.50052 0.50052 0.50052 0.50052 0.55894 0.55894 0.55894 0.55894
 0.58838 0.58839 0.58839 0.58839 0.61460 0.61460 0.61460 0.61460 0.64408 0.64408
 0.64408 0.64408 0.67891 0.67891 0.67891 0.67891 0.68217 0.68217 0.68217 0.68217
 0.70829 0.70829 0.70829 0.70829 0.74547 0.74547 0.74547 0.74547 0.76292 0.76292
 0.76292 0.76292 0.78403 0.78403 0.78403 0.78403 0.80974 0.80974 0.80974 0.80974
 0.83116 0.83116 0.83116 0.83116 0.86780 0.86780 0.86780 0.86780 0.88310 0.88310
 0.88310 0.88310 0.89731 0.89731 0.89731 0.89732 0.91157 0.91157 0.91157 0.91157
 0.95578 0.95578 0.95578 0.95578 0.97347 0.97347 0.97347 0.97347 1.01980 1.01980
 1.01980 1.01980 1.06269 1.06269 1.06269 1.06269 1.08025 1.08025 1.08025 1.08025
 1.10512 1.10512 1.10512 1.10512 1.13196 1.13196 1.13196 1.13196 1.14892 1.14892
 1.14892 1.14892 1.15997 1.15997 1.15997 1.15997 1.18734 1.18734 1.18734 1.18734
 1.20234 1.20234 1.20234 1.20234 1.22732 1.22732 1.22733 1.22733 1.24796 1.24796
 1.24796 1.24796 1.27721 1.27721 1.27722 1.27722 1.31956 1.31956 1.31956 1.31956
 1.34810 1.34810 1.34810 1.34810 1.37401 1.37401 1.37401 1.37402 1.39067 1.39067
 1.39067 1.39067 1.43091 1.43091 1.43091 1.43091 1.47371 1.47371 1.47371 1.47371
 1.50559 1.50559 1.50559 1.50559 1.55408 1.55408 1.55408 1.55408 1.63061 1.63061
 1.63061 1.63061 1.66600 1.66600 1.66600 1.66600 1.70764 1.70764 1.70764 1.70764
 1.73009 1.73009 1.73009 1.73009 1.78214 1.78214 1.78214 1.78215 1.79073 1.79073
 1.79073 1.79073 1.81353 1.81353 1.81353 1.81353 1.81920 1.81920 1.81920 1.81920
 1.83149 1.83149 1.83149 1.83149 1.84170 1.84170 1.84170 1.84170 1.85714 1.85714
 1.85714 1.85714 1.87683 1.87683 1.87683 1.87683 1.88607 1.88607 1.88607 1.88607
 1.92001 1.92001 1.92001 1.92001 1.94647 1.94647 1.94647 1.94647 1.96996 1.96996
 1.96996 1.96996 1.97790 1.97790 1.97790 1.97790 2.01169 2.01169 2.01169 2.01169
 2.04538 2.04538 2.04538 2.04538 2.05318 2.05318 2.05318 2.05318 2.08839 2.08839
 2.08839 2.08839 2.11856 2.11856 2.11856 2.11856 2.14779 2.14779 2.14779 2.14779
 2.18162 2.18162 2.18162 2.18162 2.22213 2.22213 2.22213 2.22213 2.25445 2.25445
 2.25445 2.25446 2.32798 2.32798 2.32798 2.32798 2.34264 2.34264 2.34265 2.34265
 2.38664 2.38664 2.38664 2.38664 2.45362 2.45362 2.45362 2.45362 2.60152 2.60152
 2.60152 2.60152 2.65612 2.65612 2.65612 2.65612 2.68373 2.68373 2.68373 2.68373
 2.72585 2.72585 2.72585 2.72585 2.75349 2.75350 2.75350 2.75350 2.79558 2.79558
 2.79558 2.79558 2.83858 2.83858 2.83858 2.83858 2.93039 2.93039 2.93039 2.93039
 2.95441 2.95441 2.95441 2.95442 3.09100 3.09100 3.09100 3.09100 3.13582 3.13582
 3.13582 3.13582 3.79806 3.79806 3.79806 3.79806
 == 61-th k-point (0.24412,0.22496,0.00000) occupation: 84==
 -9.69275 -9.69274 -9.69274 -9.69274 -9.69272 -9.69272 -9.69272 -9.69271 -9.69237 -9.69237
 -9.69237 -9.69236 -9.69232 -9.69232 -9.69232 -9.69231 -9.69111 -9.69110 -9.69110 -9.69110
 -9.69110 -9.69109 -9.69109 -9.69109 -0.57325 -0.57325 -0.57325 -0.57325 -0.47138 -0.47138
 -0.47138 -0.47138 -0.46799 -0.46799 -0.46798 -0.46798 -0.33657 -0.33657 -0.33657 -0.33657
 -0.33371 -0.33371 -0.33371 -0.33370 -0.26312 -0.26312 -0.26312 -0.26312 -0.20029 -0.20029
 -0.20029 -0.20029 -0.19030 -0.19030 -0.19030 -0.19029 -0.16968 -0.16968 -0.16968 -0.16968
 -0.16370 -0.16370 -0.16370 -0.16369 -0.11988 -0.11988 -0.11988 -0.11988 -0.09323 -0.09323
 -0.09322 -0.09322 -0.08601 -0.08601 -0.08601 -0.08601 -0.02529 -0.02529 -0.02529 -0.02529
 -0.02136 -0.02136 -0.02136 -0.02136 0.15901 0.15901 0.15902 0.15902 0.17213 0.17213
 0.17213 0.17213 0.24513 0.24514 0.24514 0.24514 0.28404 0.28404 0.28404 0.28404
 0.30197 0.30197 0.30197 0.30198 0.32218 0.32218 0.32218 0.32218 0.37353 0.37353
 0.37353 0.37353 0.38751 0.38751 0.38751 0.38751 0.42222 0.42222 0.42222 0.42222
 0.44078 0.44078 0.44079 0.44079 0.45411 0.45411 0.45411 0.45411 0.47943 0.47943
 0.47943 0.47944 0.50361 0.50361 0.50361 0.50361 0.54926 0.54926 0.54926 0.54926
 0.59731 0.59731 0.59731 0.59731 0.61915 0.61915 0.61915 0.61915 0.65061 0.65061
 0.65061 0.65061 0.67508 0.67508 0.67508 0.67508 0.68475 0.68475 0.68475 0.68476
 0.71140 0.71140 0.71140 0.71141 0.72433 0.72433 0.72433 0.72433 0.76081 0.76081
 0.76081 0.76081 0.78482 0.78482 0.78482 0.78482 0.81577 0.81577 0.81577 0.81577
 0.83562 0.83562 0.83562 0.83562 0.86249 0.86249 0.86249 0.86249 0.88315 0.88315
 0.88315 0.88315 0.90546 0.90546 0.90546 0.90546 0.91368 0.91368 0.91368 0.91368
 0.94566 0.94567 0.94567 0.94567 0.97269 0.97269 0.97269 0.97269 1.02086 1.02087
 1.02087 1.02087 1.06238 1.06238 1.06239 1.06239 1.08682 1.08682 1.08682 1.08682
 1.10377 1.10378 1.10378 1.10378 1.12820 1.12820 1.12821 1.12821 1.15248 1.15248
 1.15248 1.15248 1.16172 1.16172 1.16173 1.16173 1.18226 1.18226 1.18226 1.18227
 1.19975 1.19975 1.19975 1.19975 1.23294 1.23294 1.23294 1.23295 1.24372 1.24372
 1.24372 1.24373 1.27488 1.27488 1.27488 1.27488 1.32188 1.32188 1.32188 1.32188
 1.35350 1.35350 1.35350 1.35350 1.36730 1.36730 1.36730 1.36730 1.39224 1.39224
 1.39224 1.39224 1.42831 1.42831 1.42831 1.42831 1.48878 1.48878 1.48878 1.48878
 1.50736 1.50736 1.50736 1.50736 1.54241 1.54241 1.54241 1.54241 1.63329 1.63329
 1.63329 1.63329 1.67188 1.67188 1.67188 1.67188 1.70396 1.70396 1.70396 1.70396
 1.72766 1.72766 1.72766 1.72766 1.78441 1.78441 1.78441 1.78441 1.78977 1.78977
 1.78977 1.78977 1.80881 1.80881 1.80881 1.80881 1.81601 1.81601 1.81601 1.81601
 1.83105 1.83105 1.83106 1.83106 1.84223 1.84223 1.84223 1.84223 1.85297 1.85297
 1.85297 1.85297 1.87726 1.87726 1.87726 1.87726 1.89450 1.89450 1.89450 1.89450
 1.92147 1.92147 1.92147 1.92147 1.94861 1.94861 1.94861 1.94861 1.96803 1.96803
 1.96803 1.96803 1.98371 1.98371 1.98371 1.98371 2.00622 2.00622 2.00622 2.00623
 2.04417 2.04417 2.04417 2.04418 2.05497 2.05497 2.05497 2.05497 2.09439 2.09439
 2.09439 2.09439 2.12133 2.12133 2.12133 2.12133 2.13511 2.13511 2.13511 2.13511
 2.17663 2.17663 2.17664 2.17664 2.23232 2.23232 2.23232 2.23232 2.26928 2.26928
 2.26928 2.26928 2.31392 2.31392 2.31392 2.31392 2.33973 2.33973 2.33974 2.33974
 2.39024 2.39024 2.39024 2.39024 2.46074 2.46074 2.46074 2.46074 2.60072 2.60072
 2.60072 2.60072 2.64506 2.64506 2.64506 2.64506 2.69139 2.69139 2.69139 2.69139
 2.72728 2.72728 2.72728 2.72728 2.76264 2.76264 2.76265 2.76265 2.80245 2.80245
 2.80245 2.80246 2.82711 2.82711 2.82711 2.82712 2.92843 2.92843 2.92843 2.92844
 2.96189 2.96189 2.96189 2.96190 3.09627 3.09627 3.09627 3.09628 3.12662 3.12662
 3.12662 3.12662 3.80101 3.80101 3.80101 3.80102
 == 62-th k-point (0.24412,0.22496,0.08824) occupation: 84==
 -9.69275 -9.69274 -9.69274 -9.69274 -9.69272 -9.69272 -9.69272 -9.69271 -9.69237 -9.69237
 -9.69237 -9.69236 -9.69232 -9.69232 -9.69232 -9.69232 -9.69111 -9.69110 -9.69110 -9.69110
 -9.69110 -9.69110 -9.69109 -9.69109 -0.57325 -0.57325 -0.57325 -0.57325 -0.47210 -0.47210
 -0.47210 -0.47210 -0.46721 -0.46721 -0.46720 -0.46720 -0.33807 -0.33807 -0.33807 -0.33807
 -0.33236 -0.33236 -0.33236 -0.33236 -0.26255 -0.26255 -0.26255 -0.26254 -0.20112 -0.20112
 -0.20112 -0.20112 -0.19022 -0.19022 -0.19022 -0.19021 -0.17408 -0.17408 -0.17407 -0.17407
 -0.15854 -0.15854 -0.15854 -0.15854 -0.11927 -0.11927 -0.11927 -0.11927 -0.09512 -0.09512
 -0.09512 -0.09512 -0.08516 -0.08516 -0.08516 -0.08515 -0.02644 -0.02644 -0.02644 -0.02643
 -0.02029 -0.02029 -0.02028 -0.02028 0.15704 0.15704 0.15704 0.15704 0.17432 0.17432
 0.17432 0.17432 0.24604 0.24604 0.24604 0.24604 0.28032 0.28032 0.28032 0.28032
 0.30348 0.30348 0.30348 0.30348 0.32815 0.32815 0.32815 0.32815 0.36512 0.36513
 0.36513 0.36513 0.38780 0.38780 0.38780 0.38780 0.41118 0.41118 0.41118 0.41118
 0.44922 0.44922 0.44922 0.44922 0.46132 0.46132 0.46132 0.46132 0.47809 0.47809
 0.47809 0.47809 0.50052 0.50052 0.50052 0.50052 0.55894 0.55894 0.55894 0.55894
 0.58838 0.58839 0.58839 0.58839 0.61460 0.61460 0.61460 0.61460 0.64408 0.64408
 0.64408 0.64408 0.67891 0.67891 0.67891 0.67891 0.68217 0.68217 0.68217 0.68217
 0.70829 0.70829 0.70829 0.70829 0.74547 0.74547 0.74547 0.74547 0.76292 0.76292
 0.76292 0.76292 0.78403 0.78403 0.78403 0.78403 0.80974 0.80974 0.80974 0.80974
 0.83116 0.83116 0.83116 0.83116 0.86780 0.86780 0.86780 0.86780 0.88310 0.88310
 0.88310 0.88310 0.89731 0.89731 0.89731 0.89732 0.91157 0.91157 0.91157 0.91157
 0.95578 0.95578 0.95578 0.95578 0.97347 0.97347 0.97347 0.97347 1.01980 1.01980
 1.01980 1.01980 1.06269 1.06269 1.06269 1.06269 1.08025 1.08025 1.08025 1.08025
 1.10512 1.10512 1.10512 1.10512 1.13196 1.13196 1.13196 1.13196 1.14892 1.14892
 1.14892 1.14892 1.15997 1.15997 1.15997 1.15997 1.18734 1.18734 1.18734 1.18734
 1.20234 1.20234 1.20234 1.20234 1.22732 1.22732 1.22733 1.22733 1.24796 1.24796
 1.24796 1.24796 1.27721 1.27721 1.27722 1.27722 1.31956 1.31956 1.31956 1.31956
 1.34810 1.34810 1.34810 1.34810 1.37401 1.37401 1.37401 1.37402 1.39067 1.39067
 1.39067 1.39067 1.43091 1.43091 1.43091 1.43091 1.47371 1.47371 1.47371 1.47371
 1.50559 1.50559 1.50559 1.50559 1.55408 1.55408 1.55408 1.55408 1.63061 1.63061
 1.63061 1.63061 1.66600 1.66600 1.66600 1.66600 1.70764 1.70764 1.70764 1.70764
 1.73009 1.73009 1.73009 1.73009 1.78214 1.78214 1.78214 1.78215 1.79073 1.79073
 1.79073 1.79073 1.81353 1.81353 1.81353 1.81353 1.81920 1.81920 1.81920 1.81920
 1.83149 1.83149 1.83149 1.83149 1.84170 1.84170 1.84170 1.84170 1.85714 1.85714
 1.85714 1.85714 1.87683 1.87683 1.87683 1.87683 1.88607 1.88607 1.88607 1.88607
 1.92001 1.92001 1.92001 1.92001 1.94647 1.94647 1.94647 1.94647 1.96996 1.96996
 1.96996 1.96996 1.97790 1.97790 1.97790 1.97790 2.01169 2.01169 2.01169 2.01169
 2.04538 2.04538 2.04538 2.04538 2.05318 2.05318 2.05318 2.05318 2.08839 2.08839
 2.08839 2.08839 2.11856 2.11856 2.11856 2.11856 2.14779 2.14779 2.14779 2.14779
 2.18162 2.18162 2.18162 2.18162 2.22213 2.22213 2.22213 2.22213 2.25445 2.25445
 2.25445 2.25446 2.32798 2.32798 2.32798 2.32798 2.34264 2.34264 2.34265 2.34265
 2.38664 2.38664 2.38664 2.38664 2.45362 2.45362 2.45362 2.45362 2.60152 2.60152
 2.60152 2.60152 2.65612 2.65612 2.65612 2.65612 2.68373 2.68373 2.68373 2.68373
 2.72585 2.72585 2.72585 2.72585 2.75349 2.75350 2.75350 2.75350 2.79558 2.79558
 2.79558 2.79558 2.83858 2.83858 2.83858 2.83858 2.93039 2.93039 2.93039 2.93039
 2.95441 2.95441 2.95441 2.95442 3.09100 3.09100 3.09100 3.09100 3.13582 3.13582
 3.13582 3.13582 3.79806 3.79806 3.79806 3.79806
 == 63-th k-point (0.24412,0.22496,0.17648) occupation: 84==
 -9.69275 -9.69275 -9.69274 -9.69274 -9.69272 -9.69272 -9.69272 -9.69271 -9.69237 -9.69237
 -9.69237 -9.69236 -9.69232 -9.69232 -9.69232 -9.69232 -9.69111 -9.69110 -9.69110 -9.69110
 -9.69110 -9.69110 -9.69109 -9.69109 -0.57325 -0.57325 -0.57325 -0.57325 -0.47265 -0.47265
 -0.47264 -0.47264 -0.46661 -0.46661 -0.46661 -0.46660 -0.33907 -0.33907 -0.33907 -0.33906
 -0.33152 -0.33152 -0.33152 -0.33152 -0.26196 -0.26196 -0.26196 -0.26195 -0.20198 -0.20198
 -0.20198 -0.20198 -0.19016 -0.19016 -0.19016 -0.19015 -0.17644 -0.17644 -0.17644 -0.17644
 -0.15538 -0.15538 -0.15538 -0.15538 -0.11857 -0.11857 -0.11857 -0.11856 -0.09688 -0.09688
 -0.09687 -0.09687 -0.08455 -0.08455 -0.08455 -0.08455 -0.02728 -0.02728 -0.02728 -0.02727
 -0.01951 -0.01951 -0.01951 -0.01951 0.15546 0.15546 0.15546 0.15546 0.17613 0.17613
 0.17613 0.17613 0.24702 0.24702 0.24702 0.24702 0.27721 0.27721 0.27721 0.27721
 0.30406 0.30406 0.30406 0.30406 0.34181 0.34181 0.34181 0.34181 0.34799 0.34799
 0.34799 0.34799 0.39254 0.39254 0.39254 0.39254 0.40274 0.40274 0.40274 0.40274
 0.45146 0.45146 0.45146 0.45146 0.45978 0.45978 0.45978 0.45978 0.48979 0.48979
 0.48979 0.48979 0.49729 0.49729 0.49729 0.49730 0.56188 0.56188 0.56188 0.56188
 0.58588 0.58588 0.58588 0.58588 0.60471 0.60471 0.60471 0.60471 0.64341 0.64341
 0.64341 0.64341 0.67769 0.67769 0.67769 0.67769 0.68124 0.68124 0.68124 0.68124
 0.71098 0.71098 0.71098 0.71098 0.75924 0.75924 0.75924 0.75924 0.76519 0.76519
 0.76519 0.76519 0.78521 0.78521 0.78521 0.78521 0.80519 0.80519 0.80519 0.80520
 0.82646 0.82646 0.82646 0.82646 0.87453 0.87454 0.87454 0.87454 0.87543 0.87543
 0.87543 0.87544 0.89262 0.89262 0.89262 0.89262 0.91275 0.91275 0.91275 0.91275
 0.96494 0.96494 0.96494 0.96495 0.97055 0.97055 0.97055 0.97055 1.02220 1.02220
 1.02220 1.02220 1.06122 1.06122 1.06122 1.06122 1.07526 1.07526 1.07526 1.07527
 1.10839 1.10839 1.10839 1.10839 1.12940 1.12940 1.12940 1.12940 1.15144 1.15144
 1.15144 1.15144 1.15370 1.15370 1.15370 1.15370 1.19927 1.19927 1.19927 1.19927
 1.20054 1.20054 1.20054 1.20054 1.22190 1.22190 1.22190 1.22191 1.25244 1.25244
 1.25244 1.25245 1.27819 1.27819 1.27819 1.27819 1.31694 1.31694 1.31694 1.31694
 1.34427 1.34427 1.34427 1.34427 1.38187 1.38188 1.38188 1.38188 1.38633 1.38633
 1.38633 1.38633 1.43841 1.43841 1.43841 1.43841 1.45587 1.45587 1.45587 1.45587
 1.50354 1.50354 1.50354 1.50354 1.56464 1.56464 1.56464 1.56464 1.62672 1.62672
 1.62672 1.62672 1.66070 1.66070 1.66070 1.66070 1.71166 1.71166 1.71166 1.71166
 1.73122 1.73122 1.73122 1.73123 1.77750 1.77750 1.77750 1.77750 1.79672 1.79672
 1.79672 1.79673 1.81705 1.81705 1.81705 1.81705 1.82416 1.82416 1.82416 1.82417
 1.83455 1.83455 1.83455 1.83455 1.84210 1.84210 1.84210 1.84210 1.85453 1.85453
 1.85453 1.85453 1.87370 1.87370 1.87370 1.87370 1.88348 1.88348 1.88348 1.88348
 1.91793 1.91793 1.91793 1.91793 1.94378 1.94378 1.94379 1.94379 1.96774 1.96774
 1.96774 1.96774 1.97343 1.97343 1.97343 1.97344 2.01911 2.01911 2.01911 2.01911
 2.04956 2.04956 2.04957 2.04957 2.05206 2.05206 2.05206 2.05206 2.07655 2.07655
 2.07655 2.07655 2.12021 2.12021 2.12021 2.12022 2.16038 2.16038 2.16039 2.16039
 2.18888 2.18888 2.18888 2.18888 2.21257 2.21257 2.21257 2.21257 2.23817 2.23817
 2.23817 2.23817 2.32717 2.32717 2.32717 2.32717 2.36123 2.36123 2.36123 2.36123
 2.38106 2.38106 2.38106 2.38107 2.44456 2.44456 2.44456 2.44456 2.60372 2.60372
 2.60372 2.60373 2.66963 2.66963 2.66963 2.66964 2.66996 2.66996 2.66996 2.66996
 2.73383 2.73383 2.73383 2.73383 2.73782 2.73782 2.73782 2.73782 2.78962 2.78962
 2.78962 2.78962 2.84847 2.84847 2.84847 2.84848 2.93635 2.93635 2.93635 2.93635
 2.94238 2.94238 2.94238 2.94238 3.08733 3.08733 3.08733 3.08734 3.14296 3.14296
 3.14296 3.14296 3.79533 3.79533 3.79533 3.79534
 ---------------------------------------------------------------------------
 VBM is at 21-th k-point with -0.30905 eV
 CBM is at 20-th k-point with 4.19751 eV
 Band gap is 4.50656 eV


           Ground-State Mulliken Net Atomic Charges

      Atom                 Charge (a.u.)          Spin (a.u.)
   --------------------------------------------------------
      1  C              (-0.003009,-0.000000)    (0.000000,0.000000)
      2  C              (-0.002992,-0.000000)    (0.000000,0.000000)
      3  C               (-0.002983,0.000000)    (0.000000,0.000000)
      4  C               (-0.002995,0.000000)    (0.000000,0.000000)
      5  C               (-0.003001,0.000000)    (0.000000,0.000000)
      6  C               (-0.003002,0.000000)    (0.000000,0.000000)
      7  C              (-0.003010,-0.000000)    (0.000000,0.000000)
      8  C              (-0.003006,-0.000000)    (0.000000,0.000000)
      9  C                (0.022725,0.000000)    (0.000000,0.000000)
     10  C                (0.022722,0.000000)    (0.000000,0.000000)
     11  C               (0.022728,-0.000000)    (0.000000,0.000000)
     12  C               (0.022744,-0.000000)    (0.000000,0.000000)
     13  C               (0.022711,-0.000000)    (0.000000,0.000000)
     14  C               (0.022717,-0.000000)    (0.000000,0.000000)
     15  C                (0.022717,0.000000)    (0.000000,0.000000)
     16  C                (0.022713,0.000000)    (0.000000,0.000000)
     17  C                (0.023840,0.000000)    (0.000000,0.000000)
     18  C                (0.023854,0.000000)    (0.000000,0.000000)
     19  C               (0.023849,-0.000000)    (0.000000,0.000000)
     20  C               (0.023833,-0.000000)    (0.000000,0.000000)
     21  C                (0.023846,0.000000)    (0.000000,0.000000)
     22  C               (0.023845,-0.000000)    (0.000000,0.000000)
     23  C                (0.023846,0.000000)    (0.000000,0.000000)
     24  C                (0.023861,0.000000)    (0.000000,0.000000)
     25  H              (-0.014155,-0.000000)    (0.000000,0.000000)
     26  H              (-0.014161,-0.000000)    (0.000000,0.000000)
     27  H               (-0.014163,0.000000)    (0.000000,0.000000)
     28  H               (-0.014160,0.000000)    (0.000000,0.000000)
     29  H              (-0.014156,-0.000000)    (0.000000,0.000000)
     30  H               (-0.014161,0.000000)    (0.000000,0.000000)
     31  H              (-0.014159,-0.000000)    (0.000000,0.000000)
     32  H              (-0.014160,-0.000000)    (0.000000,0.000000)
     33  H              (-0.007600,-0.000000)    (0.000000,0.000000)
     34  H              (-0.007603,-0.000000)    (0.000000,0.000000)
     35  H              (-0.007605,-0.000000)    (0.000000,0.000000)
     36  H              (-0.007608,-0.000000)    (0.000000,0.000000)
     37  H              (-0.007598,-0.000000)    (0.000000,0.000000)
     38  H              (-0.007603,-0.000000)    (0.000000,0.000000)
     39  H               (-0.007602,0.000000)    (0.000000,0.000000)
     40  H               (-0.007605,0.000000)    (0.000000,0.000000)
     41  H               (-0.021803,0.000000)    (0.000000,0.000000)
     42  H              (-0.021808,-0.000000)    (0.000000,0.000000)
     43  H              (-0.021810,-0.000000)    (0.000000,0.000000)
     44  H              (-0.021805,-0.000000)    (0.000000,0.000000)
     45  H               (-0.021803,0.000000)    (0.000000,0.000000)
     46  H               (-0.021807,0.000000)    (0.000000,0.000000)
     47  H              (-0.021806,-0.000000)    (0.000000,0.000000)
     48  H              (-0.021810,-0.000000)    (0.000000,0.000000)
   --------------------------------------------------------
  Sum of atomic charges =     (-0.000000,-0.000000)
  Sum of spin   charges =       (0.000000,0.000000)



 Total job time:  875.27 s.
 Wed Jul  9 19:12:13 2025


        *************************************************************
        *                                                           *
        *  Thank you very much for using QCPBC. Have a nice day.    *
        *                                                           *
        *************************************************************

Running job 1 of 1
