                  Welcome to Q-Chem
           with Periodic Boundary Condition
     A Quantum Leap Into The Future Of Chemistry

 Adam Rettig, Xintian Feng, Meng-Fu Chen, Hieu Dinh, Stephen Quiton,
 Anton Ni, Paul J. Robinson, Jinghong Zhang, Joonho Lee

Contributors to earlier versions of Q-Chem not listed above:
 Evgeny Epifanovsky, Leo Cunha, Jerome F. Gonthier, Kuan-Yu Liu
 Input file: /scratch/bdxq/hdinh//benzene_crystal_ccpvdz_omega_0.4_111.scratch20250709184823/benzene_crystal_ccpvdz_omega_0.4_111.0
 Scratch folder: /scratch/bdxq/hdinh//benzene_crystal_ccpvdz_omega_0.4_111.scratch20250709184823
 Auxillary files located at: /u/hdinh/qcpbc/qcaux
 Q-Chem begins on Wed Jul  9 18:48:26 2025

 -------------------------------------------------------------
 User input:
 -------------------------------------------------------------
 $lattice
 3
 6.8100000000 	0.0000000000 	0.0000000000
 0.0000000000 	7.3900000000 	0.0000000000
 0.0000000000 	0.0000000000 	9.4200000000
 $end
 
 $unitcell
 ABSOLUTE
 0 1
  C 	6.7630110000 	6.9414270000 	1.3122060000
  C 	6.7630110000 	4.1435730000 	6.0222060000
  C 	3.3580110000 	6.9414270000 	3.3977940000
  C 	3.3580110000 	4.1435730000 	8.1077940000
  C 	0.0469890000 	0.4485730000 	8.1077940000
  C 	0.0469890000 	3.2464270000 	3.3977940000
  C 	3.4519890000 	0.4485730000 	6.0222060000
  C 	3.4519890000 	3.2464270000 	1.3122060000
  C 	0.8580600000 	6.3723970000 	0.4210740000
  C 	0.8580600000 	4.7126030000 	5.1310740000
  C 	4.2630600000 	6.3723970000 	4.2889260000
  C 	4.2630600000 	4.7126030000 	8.9989260000
  C 	5.9519400000 	1.0176030000 	8.9989260000
  C 	5.9519400000 	2.6773970000 	4.2889260000
  C 	2.5469400000 	1.0176030000 	5.1310740000
  C 	2.5469400000 	2.6773970000 	0.4210740000
  C 	5.9076750000 	0.5690300000 	0.9024360000
  C 	5.9076750000 	3.1259700000 	5.6124360000
  C 	2.5026750000 	0.5690300000 	3.8075640000
  C 	2.5026750000 	3.1259700000 	8.5175640000
  C 	0.9023250000 	6.8209700000 	8.5175640000
  C 	0.9023250000 	4.2640300000 	3.8075640000
  C 	4.3073250000 	6.8209700000 	5.6124360000
  C 	4.3073250000 	4.2640300000 	0.9024360000
  H 	6.7262370000 	6.6170060000 	2.3568840000
  H 	6.7262370000 	4.4679940000 	7.0668840000
  H 	3.3212370000 	6.6170060000 	2.3531160000
  H 	3.3212370000 	4.4679940000 	7.0631160000
  H 	0.0837630000 	0.7729940000 	7.0631160000
  H 	0.0837630000 	2.9220060000 	2.3531160000
  H 	3.4887630000 	0.7729940000 	7.0668840000
  H 	3.4887630000 	2.9220060000 	2.3568840000
  H 	1.5261210000 	5.5735380000 	0.7357020000
  H 	1.5261210000 	5.5114620000 	5.4457020000
  H 	4.9311210000 	5.5735380000 	3.9742980000
  H 	4.9311210000 	5.5114620000 	8.6842980000
  H 	5.2838790000 	1.8164620000 	8.6842980000
  H 	5.2838790000 	1.8785380000 	3.9742980000
  H 	1.8788790000 	1.8164620000 	5.4457020000
  H 	1.8788790000 	1.8785380000 	0.7357020000
  H 	5.2028400000 	1.0131690000 	1.5835020000
  H 	5.2028400000 	2.6818310000 	6.2935020000
  H 	1.7978400000 	1.0131690000 	3.1264980000
  H 	1.7978400000 	2.6818310000 	7.8364980000
  H 	1.6071600000 	6.3768310000 	7.8364980000
  H 	1.6071600000 	4.7081690000 	3.1264980000
  H 	5.0121600000 	6.3768310000 	6.2935020000
  H 	5.0121600000 	4.7081690000 	1.5835020000
 $end
 
 $rem
 jobtype = sp
 method = pbe
 dft_d = 6
 scf_convergence = 5
 scf_guess = autosad
 scf_algorithm = gdm
 basis = cc-pvdz
 aux_basis = cc-pvtz-jk
 input_bohr = false
 
 mp_mesh = [1,1,1]
 
 integral_direct true
 bvk_cgto true
 
 thresh 14
 mem_total 500000
 threads 32
 
 MAX_SCF_CYCLES 500
 madelung = false
 omega 0.4
 do_rij_bigmem true
 automate_g true
 print_level 10
 grid_type_xc 1
 
 thresh_1e2c_sp 1e-14
 thresh_2e3c_bra_ket_sep 1e-10
 thresh_g 1e-10
 $end
 
 $rem_autosad
 incfock 1000
 scf_algorithm gdm_ls
 $end
 
 -------------------------------------------------------------
 Running PBC job

 Requested Exchange Correlation Functionals: 
  DFT Exchange:  1.00000 pbe_x
  DFT Correlation:  1.00000 pbe_c
 using 32 threads for computing.
 ---------------------------------------------------------------
      Coordinates of Atoms in Central Unit Cell (Angstroms)
    I     Atom         X            Y            Z
 ---------------------------------------------------------------
    1       C      6.763011     6.941427     1.312206
    2       C      6.763011     4.143573     6.022206
    3       C      3.358011     6.941427     3.397794
    4       C      3.358011     4.143573     8.107794
    5       C      0.046989     0.448573     8.107794
    6       C      0.046989     3.246427     3.397794
    7       C      3.451989     0.448573     6.022206
    8       C      3.451989     3.246427     1.312206
    9       C      0.858060     6.372397     0.421074
   10       C      0.858060     4.712603     5.131074
   11       C      4.263060     6.372397     4.288926
   12       C      4.263060     4.712603     8.998926
   13       C      5.951940     1.017603     8.998926
   14       C      5.951940     2.677397     4.288926
   15       C      2.546940     1.017603     5.131074
   16       C      2.546940     2.677397     0.421074
   17       C      5.907675     0.569030     0.902436
   18       C      5.907675     3.125970     5.612436
   19       C      2.502675     0.569030     3.807564
   20       C      2.502675     3.125970     8.517564
   21       C      0.902325     6.820970     8.517564
   22       C      0.902325     4.264030     3.807564
   23       C      4.307325     6.820970     5.612436
   24       C      4.307325     4.264030     0.902436
   25       H      6.726237     6.617006     2.356884
   26       H      6.726237     4.467994     7.066884
   27       H      3.321237     6.617006     2.353116
   28       H      3.321237     4.467994     7.063116
   29       H      0.083763     0.772994     7.063116
   30       H      0.083763     2.922006     2.353116
   31       H      3.488763     0.772994     7.066884
   32       H      3.488763     2.922006     2.356884
   33       H      1.526121     5.573538     0.735702
   34       H      1.526121     5.511462     5.445702
   35       H      4.931121     5.573538     3.974298
   36       H      4.931121     5.511462     8.684298
   37       H      5.283879     1.816462     8.684298
   38       H      5.283879     1.878538     3.974298
   39       H      1.878879     1.816462     5.445702
   40       H      1.878879     1.878538     0.735702
   41       H      5.202840     1.013169     1.583502
   42       H      5.202840     2.681831     6.293502
   43       H      1.797840     1.013169     3.126498
   44       H      1.797840     2.681831     7.836498
   45       H      1.607160     6.376831     7.836498
   46       H      1.607160     4.708169     3.126498
   47       H      5.012160     6.376831     6.293502
   48       H      5.012160     4.708169     1.583502
 ---------------------------------------------------------------
 --------------------------------------------------
              Lattice Vectors (Angstroms)
              X            Y            Z
 --------------------------------------------------
   X       6.810000     0.000000     0.000000
   Y       0.000000     7.390000     0.000000
   Z       0.000000     0.000000     9.420000
 --------------------------------------------------
 --------------------------------------------------
       Reciprocal Lattice Vectors (Angstroms^-1)
              X            Y            Z
 --------------------------------------------------
   X       0.922641     0.000000     0.000000
   Y       0.000000     0.850228     0.000000
   Z       0.000000     0.000000     0.667005
 --------------------------------------------------

 Single point calculation requested

 Hamiltonian contributions:
 List of terms in Hamiltonian: kpts_nn, kpts_kinetic, kpts_vnuc_df, kpts_xc, kpts_rij_bigmem, kpts_dftd3

 K-Points calculation started.

 Basis set information about using solid harmonic (1) or Cartesian (0):
  h : 
  c : D(1) 

 Basis set information about using solid harmonic (1) or Cartesian (0):
  h : D(1) D(1) F(1) 
  c : D(1) D(1) D(1) D(1) D(1) F(1) F(1) G(1) 

 There are 456 basis functions in the central unit cell.
 Print atomic basis of atoms in the central unit cell:
 -------------------------------------------------------------
48 600 600 216

  1.27802385678315e+01  1.31173959440827e+01  2.47970995909068e+00
  1.27802385678315e+01  7.83021814739398e+00  1.13803200060781e+01
  6.34572111348071e+00  1.31173959440827e+01  6.42090008789669e+00
  6.34572111348071e+00  7.83021814739398e+00  1.53215101348841e+01
  8.87963408700403e-02  8.47680116901756e-01  1.53215101348841e+01
  8.87963408700403e-02  6.13485791359047e+00  6.42090008789669e+00
  6.52331379522079e+00  8.47680116901756e-01  1.13803200060781e+01
  6.52331379522079e+00  6.13485791359047e+00  2.47970995909068e+00
  1.62149839849639e+00  1.20420850873869e+01  7.95714538200672e-01
  1.62149839849639e+00  8.90552900408978e+00  9.69632458518805e+00
  8.05601585284714e+00  1.20420850873869e+01  8.10489550878671e+00
  8.05601585284714e+00  8.90552900408978e+00  1.70055055557741e+01
  1.12475365102051e+01  1.92299097359756e+00  1.70055055557741e+01
  1.12475365102051e+01  5.05954705689466e+00  8.10489550878671e+00
  4.81301905585436e+00  1.92299097359756e+00  9.69632458518805e+00
  4.81301905585436e+00  5.05954705689466e+00  7.95714538200672e-01
  1.11638877832985e+01  1.07531085669580e+00  1.70535688500278e+00
  1.11638877832985e+01  5.90722717379642e+00  1.06059669319902e+01
  4.72937032894780e+00  1.07531085669580e+00  7.19525316198460e+00
  4.72937032894780e+00  5.90722717379642e+00  1.60958632089720e+01
  1.70514712540295e+00  1.28897652042886e+01  1.60958632089720e+01
  1.70514712540295e+00  8.05784888718802e+00  7.19525316198460e+00
  8.13966457975370e+00  1.28897652042886e+01  1.06059669319902e+01
  8.13966457975370e+00  8.05784888718802e+00  1.70535688500278e+00
  1.27107457793245e+01  1.25043291050055e+01  4.45386526751248e+00
  1.27107457793245e+01  8.44328498647119e+00  1.33544753144999e+01
  6.27622832497372e+00  1.25043291050055e+01  4.44674477947489e+00
  6.27622832497372e+00  8.44328498647119e+00  1.33473548264623e+01
  1.58289129377028e-01  1.46074695597897e+00  1.33473548264623e+01
  1.58289129377028e-01  5.52179107451325e+00  4.44674477947489e+00
  6.59280658372778e+00  1.46074695597897e+00  1.33544753144999e+01
  6.59280658372778e+00  5.52179107451325e+00  4.45386526751248e+00
  2.88395072304001e+00  1.05324603651945e+01  1.39027528933943e+00
  2.88395072304001e+00  1.04151537262822e+01  1.02908853363268e+01
  9.31846817739075e+00  1.05324603651945e+01  7.51033475764795e+00
  9.31846817739075e+00  1.04151537262822e+01  1.64109448046353e+01
  9.98508418566149e+00  3.43261569578998e+00  1.64109448046353e+01
  9.98508418566149e+00  3.54992233470225e+00  7.51033475764795e+00
  3.55056673131074e+00  3.43261569578998e+00  1.02908853363268e+01
  3.55056673131074e+00  3.54992233470225e+00  1.39027528933943e+00
  9.83194267024794e+00  1.91461192796097e+00  2.99238509779716e+00
  9.83194267024794e+00  5.06792610253125e+00  1.18929951447845e+01
  3.39742521589719e+00  1.91461192796097e+00  5.90822494919022e+00
  3.39742521589719e+00  5.06792610253125e+00  1.48088349961776e+01
  3.03709223845355e+00  1.20504641330235e+01  1.48088349961776e+01
  3.03709223845355e+00  8.89714995845319e+00  5.90822494919022e+00
  9.47160969280430e+00  1.20504641330235e+01  1.18929951447845e+01
  9.47160969280430e+00  8.89714995845319e+00  2.99238509779716e+00

  6.66500000000000e+03
  1.00000000000000e+03
  2.28000000000000e+02
  6.47100000000000e+01
  2.10600000000000e+01
  7.49500000000000e+00
  2.79700000000000e+00
  6.66500000000000e+03
  1.00000000000000e+03
  6.47100000000000e+01
  2.10600000000000e+01
  7.49500000000000e+00
  2.79700000000000e+00
  5.21500000000000e-01
  1.59600000000000e-01
  9.43900000000000e+00
  2.00200000000000e+00
  5.45600000000000e-01
  1.51700000000000e-01
  5.50000000000000e-01
  6.66500000000000e+03
  1.00000000000000e+03
  2.28000000000000e+02
  6.47100000000000e+01
  2.10600000000000e+01
  7.49500000000000e+00
  2.79700000000000e+00
  6.66500000000000e+03
  1.00000000000000e+03
  6.47100000000000e+01
  2.10600000000000e+01
  7.49500000000000e+00
  2.79700000000000e+00
  5.21500000000000e-01
  1.59600000000000e-01
  9.43900000000000e+00
  2.00200000000000e+00
  5.45600000000000e-01
  1.51700000000000e-01
  5.50000000000000e-01
  6.66500000000000e+03
  1.00000000000000e+03
  2.28000000000000e+02
  6.47100000000000e+01
  2.10600000000000e+01
  7.49500000000000e+00
  2.79700000000000e+00
  6.66500000000000e+03
  1.00000000000000e+03
  6.47100000000000e+01
  2.10600000000000e+01
  7.49500000000000e+00
  2.79700000000000e+00
  5.21500000000000e-01
  1.59600000000000e-01
  9.43900000000000e+00
  2.00200000000000e+00
  5.45600000000000e-01
  1.51700000000000e-01
  5.50000000000000e-01
  6.66500000000000e+03
  1.00000000000000e+03
  2.28000000000000e+02
  6.47100000000000e+01
  2.10600000000000e+01
  7.49500000000000e+00
  2.79700000000000e+00
  6.66500000000000e+03
  1.00000000000000e+03
  6.47100000000000e+01
  2.10600000000000e+01
  7.49500000000000e+00
  2.79700000000000e+00
  5.21500000000000e-01
  1.59600000000000e-01
  9.43900000000000e+00
  2.00200000000000e+00
  5.45600000000000e-01
  1.51700000000000e-01
  5.50000000000000e-01
  6.66500000000000e+03
  1.00000000000000e+03
  2.28000000000000e+02
  6.47100000000000e+01
  2.10600000000000e+01
  7.49500000000000e+00
  2.79700000000000e+00
  6.66500000000000e+03
  1.00000000000000e+03
  6.47100000000000e+01
  2.10600000000000e+01
  7.49500000000000e+00
  2.79700000000000e+00
  5.21500000000000e-01
  1.59600000000000e-01
  9.43900000000000e+00
  2.00200000000000e+00
  5.45600000000000e-01
  1.51700000000000e-01
  5.50000000000000e-01
  6.66500000000000e+03
  1.00000000000000e+03
  2.28000000000000e+02
  6.47100000000000e+01
  2.10600000000000e+01
  7.49500000000000e+00
  2.79700000000000e+00
  6.66500000000000e+03
  1.00000000000000e+03
  6.47100000000000e+01
  2.10600000000000e+01
  7.49500000000000e+00
  2.79700000000000e+00
  5.21500000000000e-01
  1.59600000000000e-01
  9.43900000000000e+00
  2.00200000000000e+00
  5.45600000000000e-01
  1.51700000000000e-01
  5.50000000000000e-01
  6.66500000000000e+03
  1.00000000000000e+03
  2.28000000000000e+02
  6.47100000000000e+01
  2.10600000000000e+01
  7.49500000000000e+00
  2.79700000000000e+00
  6.66500000000000e+03
  1.00000000000000e+03
  6.47100000000000e+01
  2.10600000000000e+01
  7.49500000000000e+00
  2.79700000000000e+00
  5.21500000000000e-01
  1.59600000000000e-01
  9.43900000000000e+00
  2.00200000000000e+00
  5.45600000000000e-01
  1.51700000000000e-01
  5.50000000000000e-01
  6.66500000000000e+03
  1.00000000000000e+03
  2.28000000000000e+02
  6.47100000000000e+01
  2.10600000000000e+01
  7.49500000000000e+00
  2.79700000000000e+00
  6.66500000000000e+03
  1.00000000000000e+03
  6.47100000000000e+01
  2.10600000000000e+01
  7.49500000000000e+00
  2.79700000000000e+00
  5.21500000000000e-01
  1.59600000000000e-01
  9.43900000000000e+00
  2.00200000000000e+00
  5.45600000000000e-01
  1.51700000000000e-01
  5.50000000000000e-01
  6.66500000000000e+03
  1.00000000000000e+03
  2.28000000000000e+02
  6.47100000000000e+01
  2.10600000000000e+01
  7.49500000000000e+00
  2.79700000000000e+00
  6.66500000000000e+03
  1.00000000000000e+03
  6.47100000000000e+01
  2.10600000000000e+01
  7.49500000000000e+00
  2.79700000000000e+00
  5.21500000000000e-01
  1.59600000000000e-01
  9.43900000000000e+00
  2.00200000000000e+00
  5.45600000000000e-01
  1.51700000000000e-01
  5.50000000000000e-01
  6.66500000000000e+03
  1.00000000000000e+03
  2.28000000000000e+02
  6.47100000000000e+01
  2.10600000000000e+01
  7.49500000000000e+00
  2.79700000000000e+00
  6.66500000000000e+03
  1.00000000000000e+03
  6.47100000000000e+01
  2.10600000000000e+01
  7.49500000000000e+00
  2.79700000000000e+00
  5.21500000000000e-01
  1.59600000000000e-01
  9.43900000000000e+00
  2.00200000000000e+00
  5.45600000000000e-01
  1.51700000000000e-01
  5.50000000000000e-01
  6.66500000000000e+03
  1.00000000000000e+03
  2.28000000000000e+02
  6.47100000000000e+01
  2.10600000000000e+01
  7.49500000000000e+00
  2.79700000000000e+00
  6.66500000000000e+03
  1.00000000000000e+03
  6.47100000000000e+01
  2.10600000000000e+01
  7.49500000000000e+00
  2.79700000000000e+00
  5.21500000000000e-01
  1.59600000000000e-01
  9.43900000000000e+00
  2.00200000000000e+00
  5.45600000000000e-01
  1.51700000000000e-01
  5.50000000000000e-01
  6.66500000000000e+03
  1.00000000000000e+03
  2.28000000000000e+02
  6.47100000000000e+01
  2.10600000000000e+01
  7.49500000000000e+00
  2.79700000000000e+00
  6.66500000000000e+03
  1.00000000000000e+03
  6.47100000000000e+01
  2.10600000000000e+01
  7.49500000000000e+00
  2.79700000000000e+00
  5.21500000000000e-01
  1.59600000000000e-01
  9.43900000000000e+00
  2.00200000000000e+00
  5.45600000000000e-01
  1.51700000000000e-01
  5.50000000000000e-01
  6.66500000000000e+03
  1.00000000000000e+03
  2.28000000000000e+02
  6.47100000000000e+01
  2.10600000000000e+01
  7.49500000000000e+00
  2.79700000000000e+00
  6.66500000000000e+03
  1.00000000000000e+03
  6.47100000000000e+01
  2.10600000000000e+01
  7.49500000000000e+00
  2.79700000000000e+00
  5.21500000000000e-01
  1.59600000000000e-01
  9.43900000000000e+00
  2.00200000000000e+00
  5.45600000000000e-01
  1.51700000000000e-01
  5.50000000000000e-01
  6.66500000000000e+03
  1.00000000000000e+03
  2.28000000000000e+02
  6.47100000000000e+01
  2.10600000000000e+01
  7.49500000000000e+00
  2.79700000000000e+00
  6.66500000000000e+03
  1.00000000000000e+03
  6.47100000000000e+01
  2.10600000000000e+01
  7.49500000000000e+00
  2.79700000000000e+00
  5.21500000000000e-01
  1.59600000000000e-01
  9.43900000000000e+00
  2.00200000000000e+00
  5.45600000000000e-01
  1.51700000000000e-01
  5.50000000000000e-01
  6.66500000000000e+03
  1.00000000000000e+03
  2.28000000000000e+02
  6.47100000000000e+01
  2.10600000000000e+01
  7.49500000000000e+00
  2.79700000000000e+00
  6.66500000000000e+03
  1.00000000000000e+03
  6.47100000000000e+01
  2.10600000000000e+01
  7.49500000000000e+00
  2.79700000000000e+00
  5.21500000000000e-01
  1.59600000000000e-01
  9.43900000000000e+00
  2.00200000000000e+00
  5.45600000000000e-01
  1.51700000000000e-01
  5.50000000000000e-01
  6.66500000000000e+03
  1.00000000000000e+03
  2.28000000000000e+02
  6.47100000000000e+01
  2.10600000000000e+01
  7.49500000000000e+00
  2.79700000000000e+00
  6.66500000000000e+03
  1.00000000000000e+03
  6.47100000000000e+01
  2.10600000000000e+01
  7.49500000000000e+00
  2.79700000000000e+00
  5.21500000000000e-01
  1.59600000000000e-01
  9.43900000000000e+00
  2.00200000000000e+00
  5.45600000000000e-01
  1.51700000000000e-01
  5.50000000000000e-01
  6.66500000000000e+03
  1.00000000000000e+03
  2.28000000000000e+02
  6.47100000000000e+01
  2.10600000000000e+01
  7.49500000000000e+00
  2.79700000000000e+00
  6.66500000000000e+03
  1.00000000000000e+03
  6.47100000000000e+01
  2.10600000000000e+01
  7.49500000000000e+00
  2.79700000000000e+00
  5.21500000000000e-01
  1.59600000000000e-01
  9.43900000000000e+00
  2.00200000000000e+00
  5.45600000000000e-01
  1.51700000000000e-01
  5.50000000000000e-01
  6.66500000000000e+03
  1.00000000000000e+03
  2.28000000000000e+02
  6.47100000000000e+01
  2.10600000000000e+01
  7.49500000000000e+00
  2.79700000000000e+00
  6.66500000000000e+03
  1.00000000000000e+03
  6.47100000000000e+01
  2.10600000000000e+01
  7.49500000000000e+00
  2.79700000000000e+00
  5.21500000000000e-01
  1.59600000000000e-01
  9.43900000000000e+00
  2.00200000000000e+00
  5.45600000000000e-01
  1.51700000000000e-01
  5.50000000000000e-01
  6.66500000000000e+03
  1.00000000000000e+03
  2.28000000000000e+02
  6.47100000000000e+01
  2.10600000000000e+01
  7.49500000000000e+00
  2.79700000000000e+00
  6.66500000000000e+03
  1.00000000000000e+03
  6.47100000000000e+01
  2.10600000000000e+01
  7.49500000000000e+00
  2.79700000000000e+00
  5.21500000000000e-01
  1.59600000000000e-01
  9.43900000000000e+00
  2.00200000000000e+00
  5.45600000000000e-01
  1.51700000000000e-01
  5.50000000000000e-01
  6.66500000000000e+03
  1.00000000000000e+03
  2.28000000000000e+02
  6.47100000000000e+01
  2.10600000000000e+01
  7.49500000000000e+00
  2.79700000000000e+00
  6.66500000000000e+03
  1.00000000000000e+03
  6.47100000000000e+01
  2.10600000000000e+01
  7.49500000000000e+00
  2.79700000000000e+00
  5.21500000000000e-01
  1.59600000000000e-01
  9.43900000000000e+00
  2.00200000000000e+00
  5.45600000000000e-01
  1.51700000000000e-01
  5.50000000000000e-01
  6.66500000000000e+03
  1.00000000000000e+03
  2.28000000000000e+02
  6.47100000000000e+01
  2.10600000000000e+01
  7.49500000000000e+00
  2.79700000000000e+00
  6.66500000000000e+03
  1.00000000000000e+03
  6.47100000000000e+01
  2.10600000000000e+01
  7.49500000000000e+00
  2.79700000000000e+00
  5.21500000000000e-01
  1.59600000000000e-01
  9.43900000000000e+00
  2.00200000000000e+00
  5.45600000000000e-01
  1.51700000000000e-01
  5.50000000000000e-01
  6.66500000000000e+03
  1.00000000000000e+03
  2.28000000000000e+02
  6.47100000000000e+01
  2.10600000000000e+01
  7.49500000000000e+00
  2.79700000000000e+00
  6.66500000000000e+03
  1.00000000000000e+03
  6.47100000000000e+01
  2.10600000000000e+01
  7.49500000000000e+00
  2.79700000000000e+00
  5.21500000000000e-01
  1.59600000000000e-01
  9.43900000000000e+00
  2.00200000000000e+00
  5.45600000000000e-01
  1.51700000000000e-01
  5.50000000000000e-01
  6.66500000000000e+03
  1.00000000000000e+03
  2.28000000000000e+02
  6.47100000000000e+01
  2.10600000000000e+01
  7.49500000000000e+00
  2.79700000000000e+00
  6.66500000000000e+03
  1.00000000000000e+03
  6.47100000000000e+01
  2.10600000000000e+01
  7.49500000000000e+00
  2.79700000000000e+00
  5.21500000000000e-01
  1.59600000000000e-01
  9.43900000000000e+00
  2.00200000000000e+00
  5.45600000000000e-01
  1.51700000000000e-01
  5.50000000000000e-01
  6.66500000000000e+03
  1.00000000000000e+03
  2.28000000000000e+02
  6.47100000000000e+01
  2.10600000000000e+01
  7.49500000000000e+00
  2.79700000000000e+00
  6.66500000000000e+03
  1.00000000000000e+03
  6.47100000000000e+01
  2.10600000000000e+01
  7.49500000000000e+00
  2.79700000000000e+00
  5.21500000000000e-01
  1.59600000000000e-01
  9.43900000000000e+00
  2.00200000000000e+00
  5.45600000000000e-01
  1.51700000000000e-01
  5.50000000000000e-01
  1.30100000000000e+01
  1.96200000000000e+00
  4.44600000000000e-01
  1.22000000000000e-01
  7.27000000000000e-01
  1.30100000000000e+01
  1.96200000000000e+00
  4.44600000000000e-01
  1.22000000000000e-01
  7.27000000000000e-01
  1.30100000000000e+01
  1.96200000000000e+00
  4.44600000000000e-01
  1.22000000000000e-01
  7.27000000000000e-01
  1.30100000000000e+01
  1.96200000000000e+00
  4.44600000000000e-01
  1.22000000000000e-01
  7.27000000000000e-01
  1.30100000000000e+01
  1.96200000000000e+00
  4.44600000000000e-01
  1.22000000000000e-01
  7.27000000000000e-01
  1.30100000000000e+01
  1.96200000000000e+00
  4.44600000000000e-01
  1.22000000000000e-01
  7.27000000000000e-01
  1.30100000000000e+01
  1.96200000000000e+00
  4.44600000000000e-01
  1.22000000000000e-01
  7.27000000000000e-01
  1.30100000000000e+01
  1.96200000000000e+00
  4.44600000000000e-01
  1.22000000000000e-01
  7.27000000000000e-01
  1.30100000000000e+01
  1.96200000000000e+00
  4.44600000000000e-01
  1.22000000000000e-01
  7.27000000000000e-01
  1.30100000000000e+01
  1.96200000000000e+00
  4.44600000000000e-01
  1.22000000000000e-01
  7.27000000000000e-01
  1.30100000000000e+01
  1.96200000000000e+00
  4.44600000000000e-01
  1.22000000000000e-01
  7.27000000000000e-01
  1.30100000000000e+01
  1.96200000000000e+00
  4.44600000000000e-01
  1.22000000000000e-01
  7.27000000000000e-01
  1.30100000000000e+01
  1.96200000000000e+00
  4.44600000000000e-01
  1.22000000000000e-01
  7.27000000000000e-01
  1.30100000000000e+01
  1.96200000000000e+00
  4.44600000000000e-01
  1.22000000000000e-01
  7.27000000000000e-01
  1.30100000000000e+01
  1.96200000000000e+00
  4.44600000000000e-01
  1.22000000000000e-01
  7.27000000000000e-01
  1.30100000000000e+01
  1.96200000000000e+00
  4.44600000000000e-01
  1.22000000000000e-01
  7.27000000000000e-01
  1.30100000000000e+01
  1.96200000000000e+00
  4.44600000000000e-01
  1.22000000000000e-01
  7.27000000000000e-01
  1.30100000000000e+01
  1.96200000000000e+00
  4.44600000000000e-01
  1.22000000000000e-01
  7.27000000000000e-01
  1.30100000000000e+01
  1.96200000000000e+00
  4.44600000000000e-01
  1.22000000000000e-01
  7.27000000000000e-01
  1.30100000000000e+01
  1.96200000000000e+00
  4.44600000000000e-01
  1.22000000000000e-01
  7.27000000000000e-01
  1.30100000000000e+01
  1.96200000000000e+00
  4.44600000000000e-01
  1.22000000000000e-01
  7.27000000000000e-01
  1.30100000000000e+01
  1.96200000000000e+00
  4.44600000000000e-01
  1.22000000000000e-01
  7.27000000000000e-01
  1.30100000000000e+01
  1.96200000000000e+00
  4.44600000000000e-01
  1.22000000000000e-01
  7.27000000000000e-01
  1.30100000000000e+01
  1.96200000000000e+00
  4.44600000000000e-01
  1.22000000000000e-01
  7.27000000000000e-01

  3.64599440658250e-01
  6.76976693553059e-01
  1.13479586458989e+00
  1.65846537366526e+00
  1.93036343130757e+00
  1.45629240665047e+00
  4.43268218412025e-01
  3.27816545752681e-04
 -6.95191092023978e-03
 -5.90485205318809e-02
 -8.26658278749410e-02
 -3.58062727598002e-01
 -2.07698431939654e-01
  4.81878149474643e-01
  1.79963635330801e-01
  1.34373710949623e+00
  1.06316808787974e+00
  5.08231833836250e-01
  1.34949743639293e-01
  5.78154836189229e-01
  3.64599440658250e-01
  6.76976693553059e-01
  1.13479586458989e+00
  1.65846537366526e+00
  1.93036343130757e+00
  1.45629240665047e+00
  4.43268218412025e-01
  3.27816545752681e-04
 -6.95191092023978e-03
 -5.90485205318809e-02
 -8.26658278749410e-02
 -3.58062727598002e-01
 -2.07698431939654e-01
  4.81878149474643e-01
  1.79963635330801e-01
  1.34373710949623e+00
  1.06316808787974e+00
  5.08231833836250e-01
  1.34949743639293e-01
  5.78154836189229e-01
  3.64599440658250e-01
  6.76976693553059e-01
  1.13479586458989e+00
  1.65846537366526e+00
  1.93036343130757e+00
  1.45629240665047e+00
  4.43268218412025e-01
  3.27816545752681e-04
 -6.95191092023978e-03
 -5.90485205318809e-02
 -8.26658278749410e-02
 -3.58062727598002e-01
 -2.07698431939654e-01
  4.81878149474643e-01
  1.79963635330801e-01
  1.34373710949623e+00
  1.06316808787974e+00
  5.08231833836250e-01
  1.34949743639293e-01
  5.78154836189229e-01
  3.64599440658250e-01
  6.76976693553059e-01
  1.13479586458989e+00
  1.65846537366526e+00
  1.93036343130757e+00
  1.45629240665047e+00
  4.43268218412025e-01
  3.27816545752681e-04
 -6.95191092023978e-03
 -5.90485205318809e-02
 -8.26658278749410e-02
 -3.58062727598002e-01
 -2.07698431939654e-01
  4.81878149474643e-01
  1.79963635330801e-01
  1.34373710949623e+00
  1.06316808787974e+00
  5.08231833836250e-01
  1.34949743639293e-01
  5.78154836189229e-01
  3.64599440658250e-01
  6.76976693553059e-01
  1.13479586458989e+00
  1.65846537366526e+00
  1.93036343130757e+00
  1.45629240665047e+00
  4.43268218412025e-01
  3.27816545752681e-04
 -6.95191092023978e-03
 -5.90485205318809e-02
 -8.26658278749410e-02
 -3.58062727598002e-01
 -2.07698431939654e-01
  4.81878149474643e-01
  1.79963635330801e-01
  1.34373710949623e+00
  1.06316808787974e+00
  5.08231833836250e-01
  1.34949743639293e-01
  5.78154836189229e-01
  3.64599440658250e-01
  6.76976693553059e-01
  1.13479586458989e+00
  1.65846537366526e+00
  1.93036343130757e+00
  1.45629240665047e+00
  4.43268218412025e-01
  3.27816545752681e-04
 -6.95191092023978e-03
 -5.90485205318809e-02
 -8.26658278749410e-02
 -3.58062727598002e-01
 -2.07698431939654e-01
  4.81878149474643e-01
  1.79963635330801e-01
  1.34373710949623e+00
  1.06316808787974e+00
  5.08231833836250e-01
  1.34949743639293e-01
  5.78154836189229e-01
  3.64599440658250e-01
  6.76976693553059e-01
  1.13479586458989e+00
  1.65846537366526e+00
  1.93036343130757e+00
  1.45629240665047e+00
  4.43268218412025e-01
  3.27816545752681e-04
 -6.95191092023978e-03
 -5.90485205318809e-02
 -8.26658278749410e-02
 -3.58062727598002e-01
 -2.07698431939654e-01
  4.81878149474643e-01
  1.79963635330801e-01
  1.34373710949623e+00
  1.06316808787974e+00
  5.08231833836250e-01
  1.34949743639293e-01
  5.78154836189229e-01
  3.64599440658250e-01
  6.76976693553059e-01
  1.13479586458989e+00
  1.65846537366526e+00
  1.93036343130757e+00
  1.45629240665047e+00
  4.43268218412025e-01
  3.27816545752681e-04
 -6.95191092023978e-03
 -5.90485205318809e-02
 -8.26658278749410e-02
 -3.58062727598002e-01
 -2.07698431939654e-01
  4.81878149474643e-01
  1.79963635330801e-01
  1.34373710949623e+00
  1.06316808787974e+00
  5.08231833836250e-01
  1.34949743639293e-01
  5.78154836189229e-01
  3.64599440658250e-01
  6.76976693553059e-01
  1.13479586458989e+00
  1.65846537366526e+00
  1.93036343130757e+00
  1.45629240665047e+00
  4.43268218412025e-01
  3.27816545752681e-04
 -6.95191092023978e-03
 -5.90485205318809e-02
 -8.26658278749410e-02
 -3.58062727598002e-01
 -2.07698431939654e-01
  4.81878149474643e-01
  1.79963635330801e-01
  1.34373710949623e+00
  1.06316808787974e+00
  5.08231833836250e-01
  1.34949743639293e-01
  5.78154836189229e-01
  3.64599440658250e-01
  6.76976693553059e-01
  1.13479586458989e+00
  1.65846537366526e+00
  1.93036343130757e+00
  1.45629240665047e+00
  4.43268218412025e-01
  3.27816545752681e-04
 -6.95191092023978e-03
 -5.90485205318809e-02
 -8.26658278749410e-02
 -3.58062727598002e-01
 -2.07698431939654e-01
  4.81878149474643e-01
  1.79963635330801e-01
  1.34373710949623e+00
  1.06316808787974e+00
  5.08231833836250e-01
  1.34949743639293e-01
  5.78154836189229e-01
  3.64599440658250e-01
  6.76976693553059e-01
  1.13479586458989e+00
  1.65846537366526e+00
  1.93036343130757e+00
  1.45629240665047e+00
  4.43268218412025e-01
  3.27816545752681e-04
 -6.95191092023978e-03
 -5.90485205318809e-02
 -8.26658278749410e-02
 -3.58062727598002e-01
 -2.07698431939654e-01
  4.81878149474643e-01
  1.79963635330801e-01
  1.34373710949623e+00
  1.06316808787974e+00
  5.08231833836250e-01
  1.34949743639293e-01
  5.78154836189229e-01
  3.64599440658250e-01
  6.76976693553059e-01
  1.13479586458989e+00
  1.65846537366526e+00
  1.93036343130757e+00
  1.45629240665047e+00
  4.43268218412025e-01
  3.27816545752681e-04
 -6.95191092023978e-03
 -5.90485205318809e-02
 -8.26658278749410e-02
 -3.58062727598002e-01
 -2.07698431939654e-01
  4.81878149474643e-01
  1.79963635330801e-01
  1.34373710949623e+00
  1.06316808787974e+00
  5.08231833836250e-01
  1.34949743639293e-01
  5.78154836189229e-01
  3.64599440658250e-01
  6.76976693553059e-01
  1.13479586458989e+00
  1.65846537366526e+00
  1.93036343130757e+00
  1.45629240665047e+00
  4.43268218412025e-01
  3.27816545752681e-04
 -6.95191092023978e-03
 -5.90485205318809e-02
 -8.26658278749410e-02
 -3.58062727598002e-01
 -2.07698431939654e-01
  4.81878149474643e-01
  1.79963635330801e-01
  1.34373710949623e+00
  1.06316808787974e+00
  5.08231833836250e-01
  1.34949743639293e-01
  5.78154836189229e-01
  3.64599440658250e-01
  6.76976693553059e-01
  1.13479586458989e+00
  1.65846537366526e+00
  1.93036343130757e+00
  1.45629240665047e+00
  4.43268218412025e-01
  3.27816545752681e-04
 -6.95191092023978e-03
 -5.90485205318809e-02
 -8.26658278749410e-02
 -3.58062727598002e-01
 -2.07698431939654e-01
  4.81878149474643e-01
  1.79963635330801e-01
  1.34373710949623e+00
  1.06316808787974e+00
  5.08231833836250e-01
  1.34949743639293e-01
  5.78154836189229e-01
  3.64599440658250e-01
  6.76976693553059e-01
  1.13479586458989e+00
  1.65846537366526e+00
  1.93036343130757e+00
  1.45629240665047e+00
  4.43268218412025e-01
  3.27816545752681e-04
 -6.95191092023978e-03
 -5.90485205318809e-02
 -8.26658278749410e-02
 -3.58062727598002e-01
 -2.07698431939654e-01
  4.81878149474643e-01
  1.79963635330801e-01
  1.34373710949623e+00
  1.06316808787974e+00
  5.08231833836250e-01
  1.34949743639293e-01
  5.78154836189229e-01
  3.64599440658250e-01
  6.76976693553059e-01
  1.13479586458989e+00
  1.65846537366526e+00
  1.93036343130757e+00
  1.45629240665047e+00
  4.43268218412025e-01
  3.27816545752681e-04
 -6.95191092023978e-03
 -5.90485205318809e-02
 -8.26658278749410e-02
 -3.58062727598002e-01
 -2.07698431939654e-01
  4.81878149474643e-01
  1.79963635330801e-01
  1.34373710949623e+00
  1.06316808787974e+00
  5.08231833836250e-01
  1.34949743639293e-01
  5.78154836189229e-01
  3.64599440658250e-01
  6.76976693553059e-01
  1.13479586458989e+00
  1.65846537366526e+00
  1.93036343130757e+00
  1.45629240665047e+00
  4.43268218412025e-01
  3.27816545752681e-04
 -6.95191092023978e-03
 -5.90485205318809e-02
 -8.26658278749410e-02
 -3.58062727598002e-01
 -2.07698431939654e-01
  4.81878149474643e-01
  1.79963635330801e-01
  1.34373710949623e+00
  1.06316808787974e+00
  5.08231833836250e-01
  1.34949743639293e-01
  5.78154836189229e-01
  3.64599440658250e-01
  6.76976693553059e-01
  1.13479586458989e+00
  1.65846537366526e+00
  1.93036343130757e+00
  1.45629240665047e+00
  4.43268218412025e-01
  3.27816545752681e-04
 -6.95191092023978e-03
 -5.90485205318809e-02
 -8.26658278749410e-02
 -3.58062727598002e-01
 -2.07698431939654e-01
  4.81878149474643e-01
  1.79963635330801e-01
  1.34373710949623e+00
  1.06316808787974e+00
  5.08231833836250e-01
  1.34949743639293e-01
  5.78154836189229e-01
  3.64599440658250e-01
  6.76976693553059e-01
  1.13479586458989e+00
  1.65846537366526e+00
  1.93036343130757e+00
  1.45629240665047e+00
  4.43268218412025e-01
  3.27816545752681e-04
 -6.95191092023978e-03
 -5.90485205318809e-02
 -8.26658278749410e-02
 -3.58062727598002e-01
 -2.07698431939654e-01
  4.81878149474643e-01
  1.79963635330801e-01
  1.34373710949623e+00
  1.06316808787974e+00
  5.08231833836250e-01
  1.34949743639293e-01
  5.78154836189229e-01
  3.64599440658250e-01
  6.76976693553059e-01
  1.13479586458989e+00
  1.65846537366526e+00
  1.93036343130757e+00
  1.45629240665047e+00
  4.43268218412025e-01
  3.27816545752681e-04
 -6.95191092023978e-03
 -5.90485205318809e-02
 -8.26658278749410e-02
 -3.58062727598002e-01
 -2.07698431939654e-01
  4.81878149474643e-01
  1.79963635330801e-01
  1.34373710949623e+00
  1.06316808787974e+00
  5.08231833836250e-01
  1.34949743639293e-01
  5.78154836189229e-01
  3.64599440658250e-01
  6.76976693553059e-01
  1.13479586458989e+00
  1.65846537366526e+00
  1.93036343130757e+00
  1.45629240665047e+00
  4.43268218412025e-01
  3.27816545752681e-04
 -6.95191092023978e-03
 -5.90485205318809e-02
 -8.26658278749410e-02
 -3.58062727598002e-01
 -2.07698431939654e-01
  4.81878149474643e-01
  1.79963635330801e-01
  1.34373710949623e+00
  1.06316808787974e+00
  5.08231833836250e-01
  1.34949743639293e-01
  5.78154836189229e-01
  3.64599440658250e-01
  6.76976693553059e-01
  1.13479586458989e+00
  1.65846537366526e+00
  1.93036343130757e+00
  1.45629240665047e+00
  4.43268218412025e-01
  3.27816545752681e-04
 -6.95191092023978e-03
 -5.90485205318809e-02
 -8.26658278749410e-02
 -3.58062727598002e-01
 -2.07698431939654e-01
  4.81878149474643e-01
  1.79963635330801e-01
  1.34373710949623e+00
  1.06316808787974e+00
  5.08231833836250e-01
  1.34949743639293e-01
  5.78154836189229e-01
  3.64599440658250e-01
  6.76976693553059e-01
  1.13479586458989e+00
  1.65846537366526e+00
  1.93036343130757e+00
  1.45629240665047e+00
  4.43268218412025e-01
  3.27816545752681e-04
 -6.95191092023978e-03
 -5.90485205318809e-02
 -8.26658278749410e-02
 -3.58062727598002e-01
 -2.07698431939654e-01
  4.81878149474643e-01
  1.79963635330801e-01
  1.34373710949623e+00
  1.06316808787974e+00
  5.08231833836250e-01
  1.34949743639293e-01
  5.78154836189229e-01
  3.64599440658250e-01
  6.76976693553059e-01
  1.13479586458989e+00
  1.65846537366526e+00
  1.93036343130757e+00
  1.45629240665047e+00
  4.43268218412025e-01
  3.27816545752681e-04
 -6.95191092023978e-03
 -5.90485205318809e-02
 -8.26658278749410e-02
 -3.58062727598002e-01
 -2.07698431939654e-01
  4.81878149474643e-01
  1.79963635330801e-01
  1.34373710949623e+00
  1.06316808787974e+00
  5.08231833836250e-01
  1.34949743639293e-01
  5.78154836189229e-01
  1.63548422787197e-01
  2.77417541697630e-01
  3.15749306997667e-01
  1.47122794428574e-01
  9.56881375059566e-01
  1.63548422787197e-01
  2.77417541697630e-01
  3.15749306997667e-01
  1.47122794428574e-01
  9.56881375059566e-01
  1.63548422787197e-01
  2.77417541697630e-01
  3.15749306997667e-01
  1.47122794428574e-01
  9.56881375059566e-01
  1.63548422787197e-01
  2.77417541697630e-01
  3.15749306997667e-01
  1.47122794428574e-01
  9.56881375059566e-01
  1.63548422787197e-01
  2.77417541697630e-01
  3.15749306997667e-01
  1.47122794428574e-01
  9.56881375059566e-01
  1.63548422787197e-01
  2.77417541697630e-01
  3.15749306997667e-01
  1.47122794428574e-01
  9.56881375059566e-01
  1.63548422787197e-01
  2.77417541697630e-01
  3.15749306997667e-01
  1.47122794428574e-01
  9.56881375059566e-01
  1.63548422787197e-01
  2.77417541697630e-01
  3.15749306997667e-01
  1.47122794428574e-01
  9.56881375059566e-01
  1.63548422787197e-01
  2.77417541697630e-01
  3.15749306997667e-01
  1.47122794428574e-01
  9.56881375059566e-01
  1.63548422787197e-01
  2.77417541697630e-01
  3.15749306997667e-01
  1.47122794428574e-01
  9.56881375059566e-01
  1.63548422787197e-01
  2.77417541697630e-01
  3.15749306997667e-01
  1.47122794428574e-01
  9.56881375059566e-01
  1.63548422787197e-01
  2.77417541697630e-01
  3.15749306997667e-01
  1.47122794428574e-01
  9.56881375059566e-01
  1.63548422787197e-01
  2.77417541697630e-01
  3.15749306997667e-01
  1.47122794428574e-01
  9.56881375059566e-01
  1.63548422787197e-01
  2.77417541697630e-01
  3.15749306997667e-01
  1.47122794428574e-01
  9.56881375059566e-01
  1.63548422787197e-01
  2.77417541697630e-01
  3.15749306997667e-01
  1.47122794428574e-01
  9.56881375059566e-01
  1.63548422787197e-01
  2.77417541697630e-01
  3.15749306997667e-01
  1.47122794428574e-01
  9.56881375059566e-01
  1.63548422787197e-01
  2.77417541697630e-01
  3.15749306997667e-01
  1.47122794428574e-01
  9.56881375059566e-01
  1.63548422787197e-01
  2.77417541697630e-01
  3.15749306997667e-01
  1.47122794428574e-01
  9.56881375059566e-01
  1.63548422787197e-01
  2.77417541697630e-01
  3.15749306997667e-01
  1.47122794428574e-01
  9.56881375059566e-01
  1.63548422787197e-01
  2.77417541697630e-01
  3.15749306997667e-01
  1.47122794428574e-01
  9.56881375059566e-01
  1.63548422787197e-01
  2.77417541697630e-01
  3.15749306997667e-01
  1.47122794428574e-01
  9.56881375059566e-01
  1.63548422787197e-01
  2.77417541697630e-01
  3.15749306997667e-01
  1.47122794428574e-01
  9.56881375059566e-01
  1.63548422787197e-01
  2.77417541697630e-01
  3.15749306997667e-01
  1.47122794428574e-01
  9.56881375059566e-01
  1.63548422787197e-01
  2.77417541697630e-01
  3.15749306997667e-01
  1.47122794428574e-01
  9.56881375059566e-01

0 0 0 0 1 1 1
0 0 
7 0

0 1 1 7 1 1 1
7 0 
7 0

0 2 2 14 1 1 1
14 0 
1 0

0 3 3 15 1 3 3
15 1 
3 0

0 6 6 18 1 3 3
18 1 
1 0

0 9 9 19 1 5 6
19 2 
1 1

1 14 14 20 1 1 1
20 0 
7 0

1 15 15 27 1 1 1
27 0 
7 0

1 16 16 34 1 1 1
34 0 
1 0

1 17 17 35 1 3 3
35 1 
3 0

1 20 20 38 1 3 3
38 1 
1 0

1 23 23 39 1 5 6
39 2 
1 1

2 28 28 40 1 1 1
40 0 
7 0

2 29 29 47 1 1 1
47 0 
7 0

2 30 30 54 1 1 1
54 0 
1 0

2 31 31 55 1 3 3
55 1 
3 0

2 34 34 58 1 3 3
58 1 
1 0

2 37 37 59 1 5 6
59 2 
1 1

3 42 42 60 1 1 1
60 0 
7 0

3 43 43 67 1 1 1
67 0 
7 0

3 44 44 74 1 1 1
74 0 
1 0

3 45 45 75 1 3 3
75 1 
3 0

3 48 48 78 1 3 3
78 1 
1 0

3 51 51 79 1 5 6
79 2 
1 1

4 56 56 80 1 1 1
80 0 
7 0

4 57 57 87 1 1 1
87 0 
7 0

4 58 58 94 1 1 1
94 0 
1 0

4 59 59 95 1 3 3
95 1 
3 0

4 62 62 98 1 3 3
98 1 
1 0

4 65 65 99 1 5 6
99 2 
1 1

5 70 70 100 1 1 1
100 0 
7 0

5 71 71 107 1 1 1
107 0 
7 0

5 72 72 114 1 1 1
114 0 
1 0

5 73 73 115 1 3 3
115 1 
3 0

5 76 76 118 1 3 3
118 1 
1 0

5 79 79 119 1 5 6
119 2 
1 1

6 84 84 120 1 1 1
120 0 
7 0

6 85 85 127 1 1 1
127 0 
7 0

6 86 86 134 1 1 1
134 0 
1 0

6 87 87 135 1 3 3
135 1 
3 0

6 90 90 138 1 3 3
138 1 
1 0

6 93 93 139 1 5 6
139 2 
1 1

7 98 98 140 1 1 1
140 0 
7 0

7 99 99 147 1 1 1
147 0 
7 0

7 100 100 154 1 1 1
154 0 
1 0

7 101 101 155 1 3 3
155 1 
3 0

7 104 104 158 1 3 3
158 1 
1 0

7 107 107 159 1 5 6
159 2 
1 1

8 112 112 160 1 1 1
160 0 
7 0

8 113 113 167 1 1 1
167 0 
7 0

8 114 114 174 1 1 1
174 0 
1 0

8 115 115 175 1 3 3
175 1 
3 0

8 118 118 178 1 3 3
178 1 
1 0

8 121 121 179 1 5 6
179 2 
1 1

9 126 126 180 1 1 1
180 0 
7 0

9 127 127 187 1 1 1
187 0 
7 0

9 128 128 194 1 1 1
194 0 
1 0

9 129 129 195 1 3 3
195 1 
3 0

9 132 132 198 1 3 3
198 1 
1 0

9 135 135 199 1 5 6
199 2 
1 1

10 140 140 200 1 1 1
200 0 
7 0

10 141 141 207 1 1 1
207 0 
7 0

10 142 142 214 1 1 1
214 0 
1 0

10 143 143 215 1 3 3
215 1 
3 0

10 146 146 218 1 3 3
218 1 
1 0

10 149 149 219 1 5 6
219 2 
1 1

11 154 154 220 1 1 1
220 0 
7 0

11 155 155 227 1 1 1
227 0 
7 0

11 156 156 234 1 1 1
234 0 
1 0

11 157 157 235 1 3 3
235 1 
3 0

11 160 160 238 1 3 3
238 1 
1 0

11 163 163 239 1 5 6
239 2 
1 1

12 168 168 240 1 1 1
240 0 
7 0

12 169 169 247 1 1 1
247 0 
7 0

12 170 170 254 1 1 1
254 0 
1 0

12 171 171 255 1 3 3
255 1 
3 0

12 174 174 258 1 3 3
258 1 
1 0

12 177 177 259 1 5 6
259 2 
1 1

13 182 182 260 1 1 1
260 0 
7 0

13 183 183 267 1 1 1
267 0 
7 0

13 184 184 274 1 1 1
274 0 
1 0

13 185 185 275 1 3 3
275 1 
3 0

13 188 188 278 1 3 3
278 1 
1 0

13 191 191 279 1 5 6
279 2 
1 1

14 196 196 280 1 1 1
280 0 
7 0

14 197 197 287 1 1 1
287 0 
7 0

14 198 198 294 1 1 1
294 0 
1 0

14 199 199 295 1 3 3
295 1 
3 0

14 202 202 298 1 3 3
298 1 
1 0

14 205 205 299 1 5 6
299 2 
1 1

15 210 210 300 1 1 1
300 0 
7 0

15 211 211 307 1 1 1
307 0 
7 0

15 212 212 314 1 1 1
314 0 
1 0

15 213 213 315 1 3 3
315 1 
3 0

15 216 216 318 1 3 3
318 1 
1 0

15 219 219 319 1 5 6
319 2 
1 1

16 224 224 320 1 1 1
320 0 
7 0

16 225 225 327 1 1 1
327 0 
7 0

16 226 226 334 1 1 1
334 0 
1 0

16 227 227 335 1 3 3
335 1 
3 0

16 230 230 338 1 3 3
338 1 
1 0

16 233 233 339 1 5 6
339 2 
1 1

17 238 238 340 1 1 1
340 0 
7 0

17 239 239 347 1 1 1
347 0 
7 0

17 240 240 354 1 1 1
354 0 
1 0

17 241 241 355 1 3 3
355 1 
3 0

17 244 244 358 1 3 3
358 1 
1 0

17 247 247 359 1 5 6
359 2 
1 1

18 252 252 360 1 1 1
360 0 
7 0

18 253 253 367 1 1 1
367 0 
7 0

18 254 254 374 1 1 1
374 0 
1 0

18 255 255 375 1 3 3
375 1 
3 0

18 258 258 378 1 3 3
378 1 
1 0

18 261 261 379 1 5 6
379 2 
1 1

19 266 266 380 1 1 1
380 0 
7 0

19 267 267 387 1 1 1
387 0 
7 0

19 268 268 394 1 1 1
394 0 
1 0

19 269 269 395 1 3 3
395 1 
3 0

19 272 272 398 1 3 3
398 1 
1 0

19 275 275 399 1 5 6
399 2 
1 1

20 280 280 400 1 1 1
400 0 
7 0

20 281 281 407 1 1 1
407 0 
7 0

20 282 282 414 1 1 1
414 0 
1 0

20 283 283 415 1 3 3
415 1 
3 0

20 286 286 418 1 3 3
418 1 
1 0

20 289 289 419 1 5 6
419 2 
1 1

21 294 294 420 1 1 1
420 0 
7 0

21 295 295 427 1 1 1
427 0 
7 0

21 296 296 434 1 1 1
434 0 
1 0

21 297 297 435 1 3 3
435 1 
3 0

21 300 300 438 1 3 3
438 1 
1 0

21 303 303 439 1 5 6
439 2 
1 1

22 308 308 440 1 1 1
440 0 
7 0

22 309 309 447 1 1 1
447 0 
7 0

22 310 310 454 1 1 1
454 0 
1 0

22 311 311 455 1 3 3
455 1 
3 0

22 314 314 458 1 3 3
458 1 
1 0

22 317 317 459 1 5 6
459 2 
1 1

23 322 322 460 1 1 1
460 0 
7 0

23 323 323 467 1 1 1
467 0 
7 0

23 324 324 474 1 1 1
474 0 
1 0

23 325 325 475 1 3 3
475 1 
3 0

23 328 328 478 1 3 3
478 1 
1 0

23 331 331 479 1 5 6
479 2 
1 1

24 336 336 480 1 1 1
480 0 
3 0

24 337 337 483 1 1 1
483 0 
1 0

24 338 338 484 1 3 3
484 1 
1 0

25 341 341 485 1 1 1
485 0 
3 0

25 342 342 488 1 1 1
488 0 
1 0

25 343 343 489 1 3 3
489 1 
1 0

26 346 346 490 1 1 1
490 0 
3 0

26 347 347 493 1 1 1
493 0 
1 0

26 348 348 494 1 3 3
494 1 
1 0

27 351 351 495 1 1 1
495 0 
3 0

27 352 352 498 1 1 1
498 0 
1 0

27 353 353 499 1 3 3
499 1 
1 0

28 356 356 500 1 1 1
500 0 
3 0

28 357 357 503 1 1 1
503 0 
1 0

28 358 358 504 1 3 3
504 1 
1 0

29 361 361 505 1 1 1
505 0 
3 0

29 362 362 508 1 1 1
508 0 
1 0

29 363 363 509 1 3 3
509 1 
1 0

30 366 366 510 1 1 1
510 0 
3 0

30 367 367 513 1 1 1
513 0 
1 0

30 368 368 514 1 3 3
514 1 
1 0

31 371 371 515 1 1 1
515 0 
3 0

31 372 372 518 1 1 1
518 0 
1 0

31 373 373 519 1 3 3
519 1 
1 0

32 376 376 520 1 1 1
520 0 
3 0

32 377 377 523 1 1 1
523 0 
1 0

32 378 378 524 1 3 3
524 1 
1 0

33 381 381 525 1 1 1
525 0 
3 0

33 382 382 528 1 1 1
528 0 
1 0

33 383 383 529 1 3 3
529 1 
1 0

34 386 386 530 1 1 1
530 0 
3 0

34 387 387 533 1 1 1
533 0 
1 0

34 388 388 534 1 3 3
534 1 
1 0

35 391 391 535 1 1 1
535 0 
3 0

35 392 392 538 1 1 1
538 0 
1 0

35 393 393 539 1 3 3
539 1 
1 0

36 396 396 540 1 1 1
540 0 
3 0

36 397 397 543 1 1 1
543 0 
1 0

36 398 398 544 1 3 3
544 1 
1 0

37 401 401 545 1 1 1
545 0 
3 0

37 402 402 548 1 1 1
548 0 
1 0

37 403 403 549 1 3 3
549 1 
1 0

38 406 406 550 1 1 1
550 0 
3 0

38 407 407 553 1 1 1
553 0 
1 0

38 408 408 554 1 3 3
554 1 
1 0

39 411 411 555 1 1 1
555 0 
3 0

39 412 412 558 1 1 1
558 0 
1 0

39 413 413 559 1 3 3
559 1 
1 0

40 416 416 560 1 1 1
560 0 
3 0

40 417 417 563 1 1 1
563 0 
1 0

40 418 418 564 1 3 3
564 1 
1 0

41 421 421 565 1 1 1
565 0 
3 0

41 422 422 568 1 1 1
568 0 
1 0

41 423 423 569 1 3 3
569 1 
1 0

42 426 426 570 1 1 1
570 0 
3 0

42 427 427 573 1 1 1
573 0 
1 0

42 428 428 574 1 3 3
574 1 
1 0

43 431 431 575 1 1 1
575 0 
3 0

43 432 432 578 1 1 1
578 0 
1 0

43 433 433 579 1 3 3
579 1 
1 0

44 436 436 580 1 1 1
580 0 
3 0

44 437 437 583 1 1 1
583 0 
1 0

44 438 438 584 1 3 3
584 1 
1 0

45 441 441 585 1 1 1
585 0 
3 0

45 442 442 588 1 1 1
588 0 
1 0

45 443 443 589 1 3 3
589 1 
1 0

46 446 446 590 1 1 1
590 0 
3 0

46 447 447 593 1 1 1
593 0 
1 0

46 448 448 594 1 3 3
594 1 
1 0

47 451 451 595 1 1 1
595 0 
3 0

47 452 452 598 1 1 1
598 0 
1 0

47 453 453 599 1 3 3
599 1 
1 0

 -------------------------------------------------------------
 Allocate 8147320 B from available memory: 524288000000 B
 There are 343 image cells after screening.
 There are 165 image cells for CGTO evaluation after screening.
 Real-Space grid for FFT initialized based on kinetic energy cutoff (eV) = 500.0
 Real-Space grid for FFT: (25,27,35)
 There are 199155 real-space grid points.
 There are 1331 batches of real-space grid points. 
 Size of each grid batch is around 128
 Grid for AFT initialized based on kinetic energy cutoff (eV) = 200.0
 Real-Space grid for AFT: (16,18,22)
 There are 54945 real-space grid points.

 There are 138288 atom-centered grid points.

 Adding empirical dispersion correction 
 ----------------------------------------------------------------
 Doing -D3(BJ) with
 s6  =   1.00000e+00
 s8  =   7.87500e-01
 a1  =   4.28900e-01
 a2  =   4.44070e+00
 ----------------------------------------------------------------
 Monkhorst-Pack mesh is [1,1,1]
 There are 1 k points.
kpoints in Bohr
0.0000000000 0.0000000000 0.0000000000
 There are 84 alpha and 84 beta electrons
 Start computing overlap matrix
 Allocate 3326976 B from available memory: 524279852704 B
 Time for computing overlap matrix: 5.7780000000 s
 ====== Initialize compute kernels for all-electron RI-J (kpts) ====== 
 ==== The unitcell is orthorombic! => Use orthorombic code ==== 
 ========================================================== 
 Range-separated parameter omega        = 0.400000000000000022
 Threshold for 1e2c shellpair           = 0.000000000000010000
 Threshold for 2e2c SR integral         = 0.000000000000000001
 Threshold for 2e3c SR integral         = 0.000000000100000000
 Threshold for AFT G-space screening is = 0.000000000100000000
 The exponent cutoff for C/D classification (omega2 / 2) is  = 0.080000000000000016
 ========================================================== 
 === Post process the basis set for RI calculation (exp_cutoff = 0.080000000000000016 ) === 
nshells_b1 before uncontraction = 216
nshells_b1 after uncontraction = 216
nshells_baux before uncontraction = 840
nshells_baux after uncontraction = 840
===============================================
nbsf total   = 456
nbsf compact = 456
nbsf diffuse = 0
naux total   = 2616
naux compact = 2616
naux diffuse = 0
nshells_bnuc = 48
================= Automatically determine grid size for reciprocal space summation =================
 Range-separated parameter = 0.40000000000000 and G-space screening threshold = 0.00000000010000
The number of grid points along each axis dimension is (9, 10, 12)
The total number of grid points is 9975
======== Initializing relevant kernel for RIJ (CC type) ========
There are 21832 shellpairs in the reference unit cell
There are 129 images and we expect to have 2816328 in total
There are 97016 shellpairs in the lattice sum after screening
****** AFT -> SR ******
Maximum bra distance cutoff is 21.000000000000
Maximum bra ket distance cutoff is 25.593750000000
Number of auxiliary image is 311
There are 21832 shellpairs in the reference unit cell
There are 239 images and we expect to have 5217848 in total
There are 97016 shellpairs in the lattice sum after screening
Available memory for 2e3c calculation is 16383641429
Batch size for auxiliary basis is 2616 out of 2616
Batch size for basis function pair is 98472 out of 98472
Finish initializing 2e3c SR with the lattice sum!
=================================================
======== Initialize the SR component for Vnuc (CC type) ========
Maximum bra distance cutoff is 21.000000000000
Maximum bra ket distance cutoff is 19.684503572163
Number of auxiliary image is 221
There are 21832 shellpairs in the reference unit cell
There are 239 images and we expect to have 5217848 in total
There are 97016 shellpairs in the lattice sum after screening
Available memory for 2e3c calculation is 16383641429
Batch size for auxiliary basis is 48 out of 48
Batch size for basis function pair is 98472 out of 98472
Finish initializing 2e3c SR with the lattice sum!
=================================================
 Aufbau occupation scheme, occupation determined by eigenvalue
 == 0-th k-point nmo = 456 (0.00000,0.00000,0.00000) ==

 Generate autoSAD guess
backing up fragment data
Atom # 0: c, charge: 0, multiplicity: 3.000000
Atom # 1: h, charge: 0, multiplicity: 2.000000
writing autosad to fragment context
Settings for isolated fragments: 
  BSSE: FALSE
  frgm_gamma: TRUE
  frgm_center: FALSE

    Running SCF for isolated atom #0
    Fragment Input file: /scratch/bdxq/hdinh//benzene_crystal_ccpvdz_omega_0.4_111.scratch20250709184823/autosad_frgmt_0/frgmt_input.in
    Fragment Output file: /scratch/bdxq/hdinh//benzene_crystal_ccpvdz_omega_0.4_111.scratch20250709184823/autosad_frgmt_0/frgmt_job.out
    Fragment job begins at Wed Jul  9 18:48:39 2025

 Integrated density by DFT XC:
   Numerical integral  =     6.000000000746
   Relative error      =     0.0000000124 %
Final energy components:
 DFT Correlation                 Energy =  -0.14559494858934
 DFT Exchange                    Energy =  -5.02589620272334
 Empirical Dispersion Correction Energy =   0.00000000000000
 Kinetic (alpha)                 Energy =  20.10993503709697
 Kinetic (beta)                  Energy =  17.53059881834757
 Nuclear Attraction (alpha)      Energy = -48.81819269056746
 Nuclear Attraction (beta)       Energy = -39.28429202286249
 Nuclear Repulsion               Energy =   0.00000000000000
 SEOQF                           Energy =  -0.00000000041816
 Total Coulomb                   Energy =  17.84490478928236
----------------------------------------------
    SCF Energy: -37.7885372204
   Total fragment job time:  1.03 s.
    Running SCF for isolated atom #1
    Fragment Input file: /scratch/bdxq/hdinh//benzene_crystal_ccpvdz_omega_0.4_111.scratch20250709184823/autosad_frgmt_1/frgmt_input.in
    Fragment Output file: /scratch/bdxq/hdinh//benzene_crystal_ccpvdz_omega_0.4_111.scratch20250709184823/autosad_frgmt_1/frgmt_job.out
    Fragment job begins at Wed Jul  9 18:48:40 2025

 Integrated density by DFT XC:
   Numerical integral  =     0.999999999853
   Relative error      =     0.0000000147 %
Final energy components:
 DFT Correlation                 Energy =  -0.00600533731674
 DFT Exchange                    Energy =  -0.30388266550691
 Empirical Dispersion Correction Energy =   0.00000000000000
 Kinetic (alpha)                 Energy =   0.49273654699436
 Kinetic (beta)                  Energy =   0.00000000000000
 Nuclear Attraction (alpha)      Energy =  -0.99199174887590
 Nuclear Attraction (beta)       Energy =   0.00000000000000
 Nuclear Repulsion               Energy =   0.00000000000000
 SEOQF                           Energy =   0.00000000000000
 Total Coulomb                   Energy =   0.31051583666305
----------------------------------------------
    SCF Energy: -0.4986273680
   Total fragment job time:  0.67 s.
restoring fragment data

 ------------------------------------------------------------------------
 Allocate 9983568 B from available memory: 524276525728 B
 Time for generating SCF guess: 1.73 s

 Allocate 3409816 B from available memory: 524266542176 B
 Selected algorithms for each term:
  kpts_dftd3 -> @0x7f23409106a0
  kpts_kinetic -> @0x7f23409105e0
  kpts_nn -> @0x7f2340910760
  kpts_rij_bigmem -> @0x7f2340910340
  kpts_vnuc_df -> @0x7f23409102e0
  kpts_xc -> @0x7f2340910220

 Time for computing kinetic matrix is 5.60 s
Start calculating Vnuc CC type!
 Time for computing nuclear attraction matrix is 6.57 s
Maximum distance between P and Q is 48.46736674611299
Number of images for (P|Qn) is 157
 Time for computing 2e2c SR integral is 1.46 s
 === bvk cell = 0 has 100.00 % of the basis function pairs === 
Static memory requirement for 2e3c SR integrals: 1.919 GB
Dynamic memory requirement for 2e3c SR integrals: 0.032 GB
There are 388 munu batches for computing 2e3c SR integrals with latsum
There are 42 Q batches for computing 2e3c SR integrals with latsum
 Time for computing 2e3c SR integral (CC) is 103.56 s
 ----------------------------------------------
 Guess energy components:
 D3 correction      Energy =  -0.12328073067621
 DFT Correlation    Energy =  -5.61859537212022
 DFT Exchange       Energy = -134.37697308189550
 Kinetic            Energy = 933.61757656038492
 Nuclear Attraction Energy = -1956.92660605378546
 Nuclear Repulsion  Energy = -128.08132826085716
 Total Coulomb      Energy = 364.10589481036669
 ----------------------------------------------
  Cycle       Energy        RMS Gradient
 ----------------------------------------------
    1    -927.8802629254      1.47e-01   Descent step
 Energy components after cycle 1:
 D3 correction      Energy =  -0.12328073067621
 DFT Correlation    Energy =  -5.58308940314321
 DFT Exchange       Energy = -133.15009027067185
 Kinetic            Energy = 926.37726459899989
 Nuclear Attraction Energy = -1938.85028586883686
 Nuclear Repulsion  Energy = -128.08132826085716
 Total Coulomb      Energy = 351.53054700973593
    2    -927.9398080833      4.10e-02   Normal BFGS step
 Energy components after cycle 2:
 D3 correction      Energy =  -0.12328073067621
 DFT Correlation    Energy =  -5.58006456356562
 DFT Exchange       Energy = -132.30797990402849
 Kinetic            Energy = 921.79132817848699
 Nuclear Attraction Energy = -1928.85766583897885
 Nuclear Repulsion  Energy = -128.08132826085716
 Total Coulomb      Energy = 345.21918303630429
    3    -927.9447072908      1.17e-02   Normal BFGS step
 Energy components after cycle 3:
 D3 correction      Energy =  -0.12328073067621
 DFT Correlation    Energy =  -5.57763901680904
 DFT Exchange       Energy = -132.40921651225068
 Kinetic            Energy = 922.29049643102871
 Nuclear Attraction Energy = -1929.40357881595446
 Nuclear Repulsion  Energy = -128.08132826085716
 Total Coulomb      Energy = 345.35983961476654
    4    -927.9452366820      8.87e-03   Normal BFGS step
 Energy components after cycle 4:
 D3 correction      Energy =  -0.12328073067621
 DFT Correlation    Energy =  -5.57794588639394
 DFT Exchange       Energy = -132.44615239867096
 Kinetic            Energy = 922.46713169964983
 Nuclear Attraction Energy = -1929.91200803836659
 Nuclear Repulsion  Energy = -128.08132826085716
 Total Coulomb      Energy = 345.72834693335642
    5    -927.9456748177      7.97e-03   Normal BFGS step
 Energy components after cycle 5:
 D3 correction      Energy =  -0.12328073067621
 DFT Correlation    Energy =  -5.57843079166042
 DFT Exchange       Energy = -132.43288697811914
 Kinetic            Energy = 922.40016232085463
 Nuclear Attraction Energy = -1929.88458918610604
 Nuclear Repulsion  Energy = -128.08132826085716
 Total Coulomb      Energy = 345.75467880890125
    6    -927.9457750380      1.70e-03   Normal BFGS step
 Energy components after cycle 6:
 D3 correction      Energy =  -0.12328073067621
 DFT Correlation    Energy =  -5.57821455372373
 DFT Exchange       Energy = -132.42525075894858
 Kinetic            Energy = 922.36725917648539
 Nuclear Attraction Energy = -1929.73341815759386
 Nuclear Repulsion  Energy = -128.08132826085716
 Total Coulomb      Energy = 345.62845824729533
    7    -927.9457793565      3.60e-04   Normal BFGS step
 Energy components after cycle 7:
 D3 correction      Energy =  -0.12328073067621
 DFT Correlation    Energy =  -5.57821445287922
 DFT Exchange       Energy = -132.42885291696780
 Kinetic            Energy = 922.38329571607687
 Nuclear Attraction Energy = -1929.77883279109415
 Nuclear Repulsion  Energy = -128.08132826085716
 Total Coulomb      Energy = 345.66143407991422
    8    -927.9457794030      7.24e-05   Normal BFGS step
 Energy components after cycle 8:
 D3 correction      Energy =  -0.12328073067621
 DFT Correlation    Energy =  -5.57822289646317
 DFT Exchange       Energy = -132.42843874544380
 Kinetic            Energy = 922.38152322789756
 Nuclear Attraction Energy = -1929.77543653195494
 Nuclear Repulsion  Energy = -128.08132826085716
 Total Coulomb      Energy = 345.65940453447763
    9    -927.9457794131      5.24e-05   Normal BFGS step
 Energy components after cycle 9:
 D3 correction      Energy =  -0.12328073067621
 DFT Correlation    Energy =  -5.57822385368028
 DFT Exchange       Energy = -132.42830325595398
 Kinetic            Energy = 922.38091363209230
 Nuclear Attraction Energy = -1929.77398062083807
 Nuclear Repulsion  Energy = -128.08132826085716
 Total Coulomb      Energy = 345.65842367683416
   10    -927.9457794251      3.33e-05   Normal BFGS step
 Energy components after cycle 10:
 D3 correction      Energy =  -0.12328073067621
 DFT Correlation    Energy =  -5.57822104195688
 DFT Exchange       Energy = -132.42845225236144
 Kinetic            Energy = 922.38155401231870
 Nuclear Attraction Energy = -1929.77524889604751
 Nuclear Repulsion  Energy = -128.08132826085716
 Total Coulomb      Energy = 345.65919774444626
   11    -927.9457794252      2.51e-06   Normal BFGS step
 Energy components after cycle 11:
 D3 correction      Energy =  -0.12328073067621
 DFT Correlation    Energy =  -5.57822161570760
 DFT Exchange       Energy = -132.42843487173417
 Kinetic            Energy = 922.38148403593527
 Nuclear Attraction Energy = -1929.77514593131696
 Nuclear Repulsion  Energy = -128.08132826085716
 Total Coulomb      Energy = 345.65914794918541
   11    -927.9457794252      2.51e-06  Convergence criterion met
 ----------------------------------------------
 Final energy components:
 D3 correction      Energy =  -0.12328073067621
 DFT Correlation    Energy =  -5.57822161570760
 DFT Exchange       Energy = -132.42843487173417
 Kinetic            Energy = 922.38148403593527
 Nuclear Attraction Energy = -1929.77514593131696
 Nuclear Repulsion  Energy = -128.08132826085716
 Total Coulomb      Energy = 345.65914794918541
 ----------------------------------------------
 Final energy is -927.9457794252

 SCF time:   CPU 5306.72s  wall 207.00s 
 Total wall time for computing Kinetic: 0.01 s (13)
 Total wall time for computing RIJ-BIGMEM: 134.62 s (13)
 Total wall time for computing RSDF Vnuc: 0.02 s (13)
 Total wall time for computing DFT XC: 33.72 s (13)
 ---------------------------------------------------------------------------
                        Orbital Energies (a.u.)
 ---------------------------------------------------------------------------
 == 0-th k-point (0.00000,0.00000,0.00000) occupation: 84==
 -9.69287 -9.69286 -9.69284 -9.69284 -9.69283 -9.69283 -9.69282 -9.69281 -9.69252 -9.69252
 -9.69251 -9.69251 -9.69248 -9.69247 -9.69247 -9.69247 -9.69094 -9.69093 -9.69093 -9.69093
 -9.69093 -9.69093 -9.69092 -9.69092 -0.57730 -0.57377 -0.57123 -0.57079 -0.47670 -0.47131
 -0.47078 -0.46895 -0.46869 -0.46762 -0.46672 -0.46599 -0.34049 -0.34023 -0.33688 -0.33502
 -0.33469 -0.33378 -0.33354 -0.32702 -0.27618 -0.26117 -0.26092 -0.25110 -0.21091 -0.20384
 -0.19756 -0.19440 -0.19198 -0.19188 -0.18940 -0.18927 -0.17767 -0.17701 -0.17552 -0.16170
 -0.16149 -0.15962 -0.15934 -0.15314 -0.12272 -0.12029 -0.11676 -0.11526 -0.10065 -0.09902
 -0.09781 -0.09159 -0.08977 -0.08935 -0.08417 -0.07829 -0.03485 -0.03422 -0.03104 -0.02709
 -0.02109 -0.01729 -0.01298 -0.01140 0.15429 0.15555 0.16033 0.16724 0.16780 0.16898
 0.17642 0.17879 0.19949 0.25542 0.26096 0.26949 0.28747 0.29103 0.29969 0.29975
 0.30095 0.30155 0.31104 0.31542 0.32184 0.32356 0.33328 0.33835 0.35132 0.35617
 0.36621 0.36872 0.37663 0.37867 0.38874 0.39106 0.39450 0.40730 0.41298 0.42508
 0.42953 0.43355 0.44146 0.45566 0.45673 0.46377 0.46883 0.46972 0.47098 0.47899
 0.48209 0.48362 0.48463 0.49727 0.50687 0.50861 0.52433 0.53127 0.53967 0.57641
 0.59795 0.60170 0.60315 0.62525 0.62532 0.63646 0.63886 0.64031 0.64626 0.64844
 0.65226 0.65751 0.66670 0.67139 0.67554 0.67746 0.68067 0.69422 0.69668 0.70427
 0.71648 0.71663 0.72284 0.72360 0.72943 0.73465 0.74041 0.74137 0.75346 0.75596
 0.77046 0.77279 0.77765 0.78703 0.79224 0.79243 0.81021 0.81030 0.82528 0.82892
 0.82969 0.84144 0.84554 0.84623 0.84932 0.85222 0.86812 0.87067 0.87085 0.87963
 0.88190 0.88683 0.88828 0.89284 0.89933 0.89960 0.90882 0.91854 0.92410 0.92884
 0.93119 0.95841 0.95890 0.96174 0.96774 0.97112 0.97377 0.99752 1.00220 1.00541
 1.00599 1.00876 1.02853 1.03045 1.04505 1.04846 1.05648 1.06583 1.06651 1.07414
 1.07614 1.09046 1.10259 1.11032 1.11233 1.11778 1.13938 1.14002 1.14168 1.14390
 1.14805 1.15382 1.16304 1.17045 1.17126 1.17548 1.17629 1.17847 1.17851 1.19203
 1.19947 1.20732 1.21062 1.21795 1.21887 1.22525 1.23810 1.24067 1.24225 1.24245
 1.26040 1.26377 1.27302 1.27553 1.28850 1.28872 1.29194 1.31378 1.32267 1.32593
 1.33518 1.34006 1.35059 1.35313 1.35328 1.35549 1.36626 1.37306 1.37492 1.41148
 1.41242 1.41512 1.42673 1.43619 1.44168 1.44526 1.45643 1.45898 1.46501 1.48539
 1.49057 1.52310 1.53386 1.54490 1.56626 1.58207 1.58930 1.59340 1.61756 1.62749
 1.63114 1.63890 1.64365 1.65080 1.65382 1.65802 1.66097 1.68589 1.68824 1.69680
 1.69719 1.70177 1.71812 1.73086 1.75579 1.75701 1.76227 1.76365 1.76483 1.76592
 1.76617 1.77525 1.78117 1.79326 1.79861 1.80087 1.80202 1.81050 1.82133 1.82473
 1.82557 1.82628 1.83389 1.83646 1.83698 1.84373 1.84973 1.85907 1.86032 1.86143
 1.87282 1.87518 1.88511 1.88578 1.88796 1.88975 1.90095 1.90898 1.91039 1.91444
 1.92164 1.92464 1.93041 1.93337 1.94852 1.95625 1.95663 1.95727 1.96059 1.96510
 1.96909 1.97462 1.97479 1.98541 1.99297 2.00338 2.00432 2.01379 2.02095 2.02248
 2.02471 2.02874 2.04221 2.04231 2.04821 2.05210 2.05372 2.06089 2.06315 2.06650
 2.06879 2.07743 2.08244 2.09681 2.12575 2.13434 2.14516 2.14723 2.14854 2.15592
 2.15647 2.15742 2.18762 2.19230 2.19398 2.19453 2.20526 2.20628 2.21701 2.25236
 2.25784 2.28820 2.31874 2.32936 2.33216 2.33288 2.33761 2.33824 2.35079 2.36898
 2.36995 2.41090 2.42692 2.43388 2.44471 2.46081 2.47366 2.48208 2.58269 2.60157
 2.60755 2.63416 2.63559 2.64258 2.64767 2.65191 2.65206 2.66335 2.67501 2.68294
 2.68959 2.69492 2.71630 2.73265 2.73655 2.73938 2.77660 2.78307 2.78614 2.79280
 2.79552 2.81066 2.83110 2.83478 2.83757 2.86257 2.92197 2.93209 2.93344 2.95289
 2.95903 2.96818 2.98686 3.00115 3.08057 3.08422 3.08590 3.11051 3.11517 3.11971
 3.12977 3.19188 3.78581 3.78798 3.81124 3.84372
 ---------------------------------------------------------------------------
 VBM is at 0-th k-point with -0.31028 eV
 CBM is at 0-th k-point with 4.19854 eV
 Band gap is 4.50883 eV


           Ground-State Mulliken Net Atomic Charges

      Atom                 Charge (a.u.)          Spin (a.u.)
   --------------------------------------------------------
      1  C              (-0.002517,-0.000000)    (0.000000,0.000000)
      2  C              (-0.002517,-0.000000)    (0.000000,0.000000)
      3  C              (-0.002517,-0.000000)    (0.000000,0.000000)
      4  C              (-0.002517,-0.000000)    (0.000000,0.000000)
      5  C              (-0.002517,-0.000000)    (0.000000,0.000000)
      6  C              (-0.002517,-0.000000)    (0.000000,0.000000)
      7  C              (-0.002517,-0.000000)    (0.000000,0.000000)
      8  C              (-0.002517,-0.000000)    (0.000000,0.000000)
      9  C               (0.023219,-0.000000)    (0.000000,0.000000)
     10  C               (0.023219,-0.000000)    (0.000000,0.000000)
     11  C               (0.023219,-0.000000)    (0.000000,0.000000)
     12  C               (0.023219,-0.000000)    (0.000000,0.000000)
     13  C               (0.023219,-0.000000)    (0.000000,0.000000)
     14  C               (0.023219,-0.000000)    (0.000000,0.000000)
     15  C               (0.023219,-0.000000)    (0.000000,0.000000)
     16  C               (0.023219,-0.000000)    (0.000000,0.000000)
     17  C               (0.024681,-0.000000)    (0.000000,0.000000)
     18  C               (0.024681,-0.000000)    (0.000000,0.000000)
     19  C               (0.024681,-0.000000)    (0.000000,0.000000)
     20  C               (0.024681,-0.000000)    (0.000000,0.000000)
     21  C               (0.024681,-0.000000)    (0.000000,0.000000)
     22  C               (0.024681,-0.000000)    (0.000000,0.000000)
     23  C               (0.024681,-0.000000)    (0.000000,0.000000)
     24  C               (0.024681,-0.000000)    (0.000000,0.000000)
     25  H              (-0.014307,-0.000000)    (0.000000,0.000000)
     26  H              (-0.014307,-0.000000)    (0.000000,0.000000)
     27  H              (-0.014307,-0.000000)    (0.000000,0.000000)
     28  H              (-0.014307,-0.000000)    (0.000000,0.000000)
     29  H              (-0.014307,-0.000000)    (0.000000,0.000000)
     30  H              (-0.014307,-0.000000)    (0.000000,0.000000)
     31  H              (-0.014307,-0.000000)    (0.000000,0.000000)
     32  H              (-0.014307,-0.000000)    (0.000000,0.000000)
     33  H              (-0.008414,-0.000000)    (0.000000,0.000000)
     34  H              (-0.008414,-0.000000)    (0.000000,0.000000)
     35  H              (-0.008414,-0.000000)    (0.000000,0.000000)
     36  H              (-0.008414,-0.000000)    (0.000000,0.000000)
     37  H              (-0.008414,-0.000000)    (0.000000,0.000000)
     38  H              (-0.008414,-0.000000)    (0.000000,0.000000)
     39  H              (-0.008414,-0.000000)    (0.000000,0.000000)
     40  H              (-0.008414,-0.000000)    (0.000000,0.000000)
     41  H              (-0.022662,-0.000000)    (0.000000,0.000000)
     42  H              (-0.022662,-0.000000)    (0.000000,0.000000)
     43  H              (-0.022662,-0.000000)    (0.000000,0.000000)
     44  H              (-0.022662,-0.000000)    (0.000000,0.000000)
     45  H              (-0.022662,-0.000000)    (0.000000,0.000000)
     46  H              (-0.022662,-0.000000)    (0.000000,0.000000)
     47  H              (-0.022662,-0.000000)    (0.000000,0.000000)
     48  H              (-0.022662,-0.000000)    (0.000000,0.000000)
   --------------------------------------------------------
  Sum of atomic charges =     (-0.000000,-0.000000)
  Sum of spin   charges =       (0.000000,0.000000)



 Total job time:  208.80 s.
 Wed Jul  9 18:51:55 2025


        *************************************************************
        *                                                           *
        *  Thank you very much for using QCPBC. Have a nice day.    *
        *                                                           *
        *************************************************************

Running job 1 of 1
