                  Welcome to Q-Chem
           with Periodic Boundary Condition
     A Quantum Leap Into The Future Of Chemistry

 Adam Rettig, Xintian Feng, Meng-Fu Chen, Hieu Dinh, Stephen Quiton,
 Anton Ni, Paul J. Robinson, Jinghong Zhang, Joonho Lee

Contributors to earlier versions of Q-Chem not listed above:
 Evgeny Epifanovsky, Leo Cunha, Jerome F. Gonthier, Kuan-Yu Liu
 Input file: /n/netscratch/joonholee_lab/Lab/hieudinh//si_222_ccpvdz_omega_0.3_111.scratch20250908144418/si_222_ccpvdz_omega_0.3_111.0
 Scratch folder: /n/netscratch/joonholee_lab/Lab/hieudinh//si_222_ccpvdz_omega_0.3_111.scratch20250908144418
 Auxillary files located at: /n/holylabs/LABS/joonholee_lab/Lab/qchem_base/qcaux
 Q-Chem begins on Mon Sep  8 14:44:18 2025

 -------------------------------------------------------------
 User input:
 -------------------------------------------------------------
 $lattice
 3
 0.000000 10.261200 10.261200
 10.261200 0.000000 10.261200
 10.261200 10.261200 0.000000
 $end
 
 $unitcell
 ABSOLUTE
 0 1
 Si 0.000000 0.000000 0.000000
 Si 2.565300 2.565300 2.565300
 Si 5.130600 5.130600 0.000000
 Si 7.695900 7.695900 2.565300
 Si 5.130600 0.000000 5.130600
 Si 7.695900 2.565300 7.695900
 Si 10.261200 5.130600 5.130600
 Si 12.826500 7.695900 7.695900
 Si 0.000000 5.130600 5.130600
 Si 2.565300 7.695900 7.695900
 Si 5.130600 10.261200 5.130600
 Si 7.695900 12.826500 7.695900
 Si 5.130600 5.130600 10.261200
 Si 7.695900 7.695900 12.826500
 Si 10.261200 10.261200 10.261200
 Si 12.826500 12.826500 12.826500
 $end
 
 $rem
 jobtype = sp
 method = pbe
 scf_convergence = 5
 scf_guess = autosad
 scf_algorithm = diis_gdm
 basis = cc-pvdz
 aux_basis = cc-pvtz-jk
 input_bohr = true
 symmetry false
 latsum_factor 1.0
 
 mp_mesh = [1,1,1]
 
 integral_direct true
 bvk_cgto true
 
 thresh 14
 mem_total 1000000
 threads 32
 
 MAX_SCF_CYCLES 3
 madelung = false
 omega 0.3
 do_rij_bigmem true
 automate_g true
 print_level 10
 rsdf_print_level 10
 grid_type_xc 1
 
 thresh_1e2c_sp 1e-14
 thresh_2e3c_bra_ket_sep 1e-10
 thresh_g 1e-12
 $end
 
 -------------------------------------------------------------
 Running PBC job

 Requested Exchange Correlation Functionals: 
  DFT Exchange:  1.00000 pbe_x
  DFT Correlation:  1.00000 pbe_c
 using 32 threads for computing.
 ---------------------------------------------------------------
      Coordinates of Atoms in Central Unit Cell (Angstroms)
    I     Atom         X            Y            Z
 ---------------------------------------------------------------
    1      Si      0.000000     0.000000     0.000000
    2      Si      1.357498     1.357498     1.357498
    3      Si      2.714997     2.714997     0.000000
    4      Si      4.072495     4.072495     1.357498
    5      Si      2.714997     0.000000     2.714997
    6      Si      4.072495     1.357498     4.072495
    7      Si      5.429993     2.714997     2.714997
    8      Si      6.787491     4.072495     4.072495
    9      Si      0.000000     2.714997     2.714997
   10      Si      1.357498     4.072495     4.072495
   11      Si      2.714997     5.429993     2.714997
   12      Si      4.072495     6.787491     4.072495
   13      Si      2.714997     2.714997     5.429993
   14      Si      4.072495     4.072495     6.787491
   15      Si      5.429993     5.429993     5.429993
   16      Si      6.787491     6.787491     6.787491
 ---------------------------------------------------------------
 --------------------------------------------------
              Lattice Vectors (Angstroms)
              X            Y            Z
 --------------------------------------------------
   X       0.000000     5.429993     5.429993
   Y       5.429993     0.000000     5.429993
   Z       5.429993     5.429993     0.000000
 --------------------------------------------------
 --------------------------------------------------
       Reciprocal Lattice Vectors (Angstroms^-1)
              X            Y            Z
 --------------------------------------------------
   X      -0.578563     0.578563     0.578563
   Y       0.578563    -0.578563     0.578563
   Z       0.578563     0.578563    -0.578563
 --------------------------------------------------

 Single point calculation requested

 Hamiltonian contributions:
 List of terms in Hamiltonian: kpts_nn, kpts_kinetic, kpts_vnuc_df, kpts_xc, kpts_rij_bigmem

 K-Points calculation started.

 Basis set information about using solid harmonic (1) or Cartesian (0):
  si : D(1) 

 Basis set information about using solid harmonic (1) or Cartesian (0):
  si : D(1) D(1) D(1) D(1) D(1) D(1) D(1) D(1) D(1) F(1) F(1) F(1) G(1) 

 There are 288 basis functions in the central unit cell.
 Print atomic basis of atoms in the central unit cell:
 -------------------------------------------------------------
16 672 672 128

  0.00000000000000e+00  0.00000000000000e+00  0.00000000000000e+00
  2.56530000000000e+00  2.56530000000000e+00  2.56530000000000e+00
  5.13060000000000e+00  5.13060000000000e+00  0.00000000000000e+00
  7.69590000000000e+00  7.69590000000000e+00  2.56530000000000e+00
  5.13060000000000e+00  0.00000000000000e+00  5.13060000000000e+00
  7.69590000000000e+00  2.56530000000000e+00  7.69590000000000e+00
  1.02612000000000e+01  5.13060000000000e+00  5.13060000000000e+00
  1.28265000000000e+01  7.69590000000000e+00  7.69590000000000e+00
  0.00000000000000e+00  5.13060000000000e+00  5.13060000000000e+00
  2.56530000000000e+00  7.69590000000000e+00  7.69590000000000e+00
  5.13060000000000e+00  1.02612000000000e+01  5.13060000000000e+00
  7.69590000000000e+00  1.28265000000000e+01  7.69590000000000e+00
  5.13060000000000e+00  5.13060000000000e+00  1.02612000000000e+01
  7.69590000000000e+00  7.69590000000000e+00  1.28265000000000e+01
  1.02612000000000e+01  1.02612000000000e+01  1.02612000000000e+01
  1.28265000000000e+01  1.28265000000000e+01  1.28265000000000e+01

  7.88600000000000e+04
  1.18200000000000e+04
  2.69200000000000e+03
  7.63400000000000e+02
  2.49600000000000e+02
  9.02800000000000e+01
  3.52900000000000e+01
  1.45100000000000e+01
  4.05300000000000e+00
  7.88600000000000e+04
  1.18200000000000e+04
  2.69200000000000e+03
  2.49600000000000e+02
  9.02800000000000e+01
  3.52900000000000e+01
  1.45100000000000e+01
  4.05300000000000e+00
  1.48200000000000e+00
  7.88600000000000e+04
  1.18200000000000e+04
  2.69200000000000e+03
  9.02800000000000e+01
  3.52900000000000e+01
  1.45100000000000e+01
  4.05300000000000e+00
  1.48200000000000e+00
  2.51700000000000e-01
  9.24300000000000e-02
  3.15900000000000e+02
  7.44200000000000e+01
  2.34800000000000e+01
  8.48800000000000e+00
  3.21700000000000e+00
  1.22900000000000e+00
  7.44200000000000e+01
  2.34800000000000e+01
  8.48800000000000e+00
  3.21700000000000e+00
  1.22900000000000e+00
  2.96400000000000e-01
  8.76800000000000e-02
  2.75000000000000e-01
  7.88600000000000e+04
  1.18200000000000e+04
  2.69200000000000e+03
  7.63400000000000e+02
  2.49600000000000e+02
  9.02800000000000e+01
  3.52900000000000e+01
  1.45100000000000e+01
  4.05300000000000e+00
  7.88600000000000e+04
  1.18200000000000e+04
  2.69200000000000e+03
  2.49600000000000e+02
  9.02800000000000e+01
  3.52900000000000e+01
  1.45100000000000e+01
  4.05300000000000e+00
  1.48200000000000e+00
  7.88600000000000e+04
  1.18200000000000e+04
  2.69200000000000e+03
  9.02800000000000e+01
  3.52900000000000e+01
  1.45100000000000e+01
  4.05300000000000e+00
  1.48200000000000e+00
  2.51700000000000e-01
  9.24300000000000e-02
  3.15900000000000e+02
  7.44200000000000e+01
  2.34800000000000e+01
  8.48800000000000e+00
  3.21700000000000e+00
  1.22900000000000e+00
  7.44200000000000e+01
  2.34800000000000e+01
  8.48800000000000e+00
  3.21700000000000e+00
  1.22900000000000e+00
  2.96400000000000e-01
  8.76800000000000e-02
  2.75000000000000e-01
  7.88600000000000e+04
  1.18200000000000e+04
  2.69200000000000e+03
  7.63400000000000e+02
  2.49600000000000e+02
  9.02800000000000e+01
  3.52900000000000e+01
  1.45100000000000e+01
  4.05300000000000e+00
  7.88600000000000e+04
  1.18200000000000e+04
  2.69200000000000e+03
  2.49600000000000e+02
  9.02800000000000e+01
  3.52900000000000e+01
  1.45100000000000e+01
  4.05300000000000e+00
  1.48200000000000e+00
  7.88600000000000e+04
  1.18200000000000e+04
  2.69200000000000e+03
  9.02800000000000e+01
  3.52900000000000e+01
  1.45100000000000e+01
  4.05300000000000e+00
  1.48200000000000e+00
  2.51700000000000e-01
  9.24300000000000e-02
  3.15900000000000e+02
  7.44200000000000e+01
  2.34800000000000e+01
  8.48800000000000e+00
  3.21700000000000e+00
  1.22900000000000e+00
  7.44200000000000e+01
  2.34800000000000e+01
  8.48800000000000e+00
  3.21700000000000e+00
  1.22900000000000e+00
  2.96400000000000e-01
  8.76800000000000e-02
  2.75000000000000e-01
  7.88600000000000e+04
  1.18200000000000e+04
  2.69200000000000e+03
  7.63400000000000e+02
  2.49600000000000e+02
  9.02800000000000e+01
  3.52900000000000e+01
  1.45100000000000e+01
  4.05300000000000e+00
  7.88600000000000e+04
  1.18200000000000e+04
  2.69200000000000e+03
  2.49600000000000e+02
  9.02800000000000e+01
  3.52900000000000e+01
  1.45100000000000e+01
  4.05300000000000e+00
  1.48200000000000e+00
  7.88600000000000e+04
  1.18200000000000e+04
  2.69200000000000e+03
  9.02800000000000e+01
  3.52900000000000e+01
  1.45100000000000e+01
  4.05300000000000e+00
  1.48200000000000e+00
  2.51700000000000e-01
  9.24300000000000e-02
  3.15900000000000e+02
  7.44200000000000e+01
  2.34800000000000e+01
  8.48800000000000e+00
  3.21700000000000e+00
  1.22900000000000e+00
  7.44200000000000e+01
  2.34800000000000e+01
  8.48800000000000e+00
  3.21700000000000e+00
  1.22900000000000e+00
  2.96400000000000e-01
  8.76800000000000e-02
  2.75000000000000e-01
  7.88600000000000e+04
  1.18200000000000e+04
  2.69200000000000e+03
  7.63400000000000e+02
  2.49600000000000e+02
  9.02800000000000e+01
  3.52900000000000e+01
  1.45100000000000e+01
  4.05300000000000e+00
  7.88600000000000e+04
  1.18200000000000e+04
  2.69200000000000e+03
  2.49600000000000e+02
  9.02800000000000e+01
  3.52900000000000e+01
  1.45100000000000e+01
  4.05300000000000e+00
  1.48200000000000e+00
  7.88600000000000e+04
  1.18200000000000e+04
  2.69200000000000e+03
  9.02800000000000e+01
  3.52900000000000e+01
  1.45100000000000e+01
  4.05300000000000e+00
  1.48200000000000e+00
  2.51700000000000e-01
  9.24300000000000e-02
  3.15900000000000e+02
  7.44200000000000e+01
  2.34800000000000e+01
  8.48800000000000e+00
  3.21700000000000e+00
  1.22900000000000e+00
  7.44200000000000e+01
  2.34800000000000e+01
  8.48800000000000e+00
  3.21700000000000e+00
  1.22900000000000e+00
  2.96400000000000e-01
  8.76800000000000e-02
  2.75000000000000e-01
  7.88600000000000e+04
  1.18200000000000e+04
  2.69200000000000e+03
  7.63400000000000e+02
  2.49600000000000e+02
  9.02800000000000e+01
  3.52900000000000e+01
  1.45100000000000e+01
  4.05300000000000e+00
  7.88600000000000e+04
  1.18200000000000e+04
  2.69200000000000e+03
  2.49600000000000e+02
  9.02800000000000e+01
  3.52900000000000e+01
  1.45100000000000e+01
  4.05300000000000e+00
  1.48200000000000e+00
  7.88600000000000e+04
  1.18200000000000e+04
  2.69200000000000e+03
  9.02800000000000e+01
  3.52900000000000e+01
  1.45100000000000e+01
  4.05300000000000e+00
  1.48200000000000e+00
  2.51700000000000e-01
  9.24300000000000e-02
  3.15900000000000e+02
  7.44200000000000e+01
  2.34800000000000e+01
  8.48800000000000e+00
  3.21700000000000e+00
  1.22900000000000e+00
  7.44200000000000e+01
  2.34800000000000e+01
  8.48800000000000e+00
  3.21700000000000e+00
  1.22900000000000e+00
  2.96400000000000e-01
  8.76800000000000e-02
  2.75000000000000e-01
  7.88600000000000e+04
  1.18200000000000e+04
  2.69200000000000e+03
  7.63400000000000e+02
  2.49600000000000e+02
  9.02800000000000e+01
  3.52900000000000e+01
  1.45100000000000e+01
  4.05300000000000e+00
  7.88600000000000e+04
  1.18200000000000e+04
  2.69200000000000e+03
  2.49600000000000e+02
  9.02800000000000e+01
  3.52900000000000e+01
  1.45100000000000e+01
  4.05300000000000e+00
  1.48200000000000e+00
  7.88600000000000e+04
  1.18200000000000e+04
  2.69200000000000e+03
  9.02800000000000e+01
  3.52900000000000e+01
  1.45100000000000e+01
  4.05300000000000e+00
  1.48200000000000e+00
  2.51700000000000e-01
  9.24300000000000e-02
  3.15900000000000e+02
  7.44200000000000e+01
  2.34800000000000e+01
  8.48800000000000e+00
  3.21700000000000e+00
  1.22900000000000e+00
  7.44200000000000e+01
  2.34800000000000e+01
  8.48800000000000e+00
  3.21700000000000e+00
  1.22900000000000e+00
  2.96400000000000e-01
  8.76800000000000e-02
  2.75000000000000e-01
  7.88600000000000e+04
  1.18200000000000e+04
  2.69200000000000e+03
  7.63400000000000e+02
  2.49600000000000e+02
  9.02800000000000e+01
  3.52900000000000e+01
  1.45100000000000e+01
  4.05300000000000e+00
  7.88600000000000e+04
  1.18200000000000e+04
  2.69200000000000e+03
  2.49600000000000e+02
  9.02800000000000e+01
  3.52900000000000e+01
  1.45100000000000e+01
  4.05300000000000e+00
  1.48200000000000e+00
  7.88600000000000e+04
  1.18200000000000e+04
  2.69200000000000e+03
  9.02800000000000e+01
  3.52900000000000e+01
  1.45100000000000e+01
  4.05300000000000e+00
  1.48200000000000e+00
  2.51700000000000e-01
  9.24300000000000e-02
  3.15900000000000e+02
  7.44200000000000e+01
  2.34800000000000e+01
  8.48800000000000e+00
  3.21700000000000e+00
  1.22900000000000e+00
  7.44200000000000e+01
  2.34800000000000e+01
  8.48800000000000e+00
  3.21700000000000e+00
  1.22900000000000e+00
  2.96400000000000e-01
  8.76800000000000e-02
  2.75000000000000e-01
  7.88600000000000e+04
  1.18200000000000e+04
  2.69200000000000e+03
  7.63400000000000e+02
  2.49600000000000e+02
  9.02800000000000e+01
  3.52900000000000e+01
  1.45100000000000e+01
  4.05300000000000e+00
  7.88600000000000e+04
  1.18200000000000e+04
  2.69200000000000e+03
  2.49600000000000e+02
  9.02800000000000e+01
  3.52900000000000e+01
  1.45100000000000e+01
  4.05300000000000e+00
  1.48200000000000e+00
  7.88600000000000e+04
  1.18200000000000e+04
  2.69200000000000e+03
  9.02800000000000e+01
  3.52900000000000e+01
  1.45100000000000e+01
  4.05300000000000e+00
  1.48200000000000e+00
  2.51700000000000e-01
  9.24300000000000e-02
  3.15900000000000e+02
  7.44200000000000e+01
  2.34800000000000e+01
  8.48800000000000e+00
  3.21700000000000e+00
  1.22900000000000e+00
  7.44200000000000e+01
  2.34800000000000e+01
  8.48800000000000e+00
  3.21700000000000e+00
  1.22900000000000e+00
  2.96400000000000e-01
  8.76800000000000e-02
  2.75000000000000e-01
  7.88600000000000e+04
  1.18200000000000e+04
  2.69200000000000e+03
  7.63400000000000e+02
  2.49600000000000e+02
  9.02800000000000e+01
  3.52900000000000e+01
  1.45100000000000e+01
  4.05300000000000e+00
  7.88600000000000e+04
  1.18200000000000e+04
  2.69200000000000e+03
  2.49600000000000e+02
  9.02800000000000e+01
  3.52900000000000e+01
  1.45100000000000e+01
  4.05300000000000e+00
  1.48200000000000e+00
  7.88600000000000e+04
  1.18200000000000e+04
  2.69200000000000e+03
  9.02800000000000e+01
  3.52900000000000e+01
  1.45100000000000e+01
  4.05300000000000e+00
  1.48200000000000e+00
  2.51700000000000e-01
  9.24300000000000e-02
  3.15900000000000e+02
  7.44200000000000e+01
  2.34800000000000e+01
  8.48800000000000e+00
  3.21700000000000e+00
  1.22900000000000e+00
  7.44200000000000e+01
  2.34800000000000e+01
  8.48800000000000e+00
  3.21700000000000e+00
  1.22900000000000e+00
  2.96400000000000e-01
  8.76800000000000e-02
  2.75000000000000e-01
  7.88600000000000e+04
  1.18200000000000e+04
  2.69200000000000e+03
  7.63400000000000e+02
  2.49600000000000e+02
  9.02800000000000e+01
  3.52900000000000e+01
  1.45100000000000e+01
  4.05300000000000e+00
  7.88600000000000e+04
  1.18200000000000e+04
  2.69200000000000e+03
  2.49600000000000e+02
  9.02800000000000e+01
  3.52900000000000e+01
  1.45100000000000e+01
  4.05300000000000e+00
  1.48200000000000e+00
  7.88600000000000e+04
  1.18200000000000e+04
  2.69200000000000e+03
  9.02800000000000e+01
  3.52900000000000e+01
  1.45100000000000e+01
  4.05300000000000e+00
  1.48200000000000e+00
  2.51700000000000e-01
  9.24300000000000e-02
  3.15900000000000e+02
  7.44200000000000e+01
  2.34800000000000e+01
  8.48800000000000e+00
  3.21700000000000e+00
  1.22900000000000e+00
  7.44200000000000e+01
  2.34800000000000e+01
  8.48800000000000e+00
  3.21700000000000e+00
  1.22900000000000e+00
  2.96400000000000e-01
  8.76800000000000e-02
  2.75000000000000e-01
  7.88600000000000e+04
  1.18200000000000e+04
  2.69200000000000e+03
  7.63400000000000e+02
  2.49600000000000e+02
  9.02800000000000e+01
  3.52900000000000e+01
  1.45100000000000e+01
  4.05300000000000e+00
  7.88600000000000e+04
  1.18200000000000e+04
  2.69200000000000e+03
  2.49600000000000e+02
  9.02800000000000e+01
  3.52900000000000e+01
  1.45100000000000e+01
  4.05300000000000e+00
  1.48200000000000e+00
  7.88600000000000e+04
  1.18200000000000e+04
  2.69200000000000e+03
  9.02800000000000e+01
  3.52900000000000e+01
  1.45100000000000e+01
  4.05300000000000e+00
  1.48200000000000e+00
  2.51700000000000e-01
  9.24300000000000e-02
  3.15900000000000e+02
  7.44200000000000e+01
  2.34800000000000e+01
  8.48800000000000e+00
  3.21700000000000e+00
  1.22900000000000e+00
  7.44200000000000e+01
  2.34800000000000e+01
  8.48800000000000e+00
  3.21700000000000e+00
  1.22900000000000e+00
  2.96400000000000e-01
  8.76800000000000e-02
  2.75000000000000e-01
  7.88600000000000e+04
  1.18200000000000e+04
  2.69200000000000e+03
  7.63400000000000e+02
  2.49600000000000e+02
  9.02800000000000e+01
  3.52900000000000e+01
  1.45100000000000e+01
  4.05300000000000e+00
  7.88600000000000e+04
  1.18200000000000e+04
  2.69200000000000e+03
  2.49600000000000e+02
  9.02800000000000e+01
  3.52900000000000e+01
  1.45100000000000e+01
  4.05300000000000e+00
  1.48200000000000e+00
  7.88600000000000e+04
  1.18200000000000e+04
  2.69200000000000e+03
  9.02800000000000e+01
  3.52900000000000e+01
  1.45100000000000e+01
  4.05300000000000e+00
  1.48200000000000e+00
  2.51700000000000e-01
  9.24300000000000e-02
  3.15900000000000e+02
  7.44200000000000e+01
  2.34800000000000e+01
  8.48800000000000e+00
  3.21700000000000e+00
  1.22900000000000e+00
  7.44200000000000e+01
  2.34800000000000e+01
  8.48800000000000e+00
  3.21700000000000e+00
  1.22900000000000e+00
  2.96400000000000e-01
  8.76800000000000e-02
  2.75000000000000e-01
  7.88600000000000e+04
  1.18200000000000e+04
  2.69200000000000e+03
  7.63400000000000e+02
  2.49600000000000e+02
  9.02800000000000e+01
  3.52900000000000e+01
  1.45100000000000e+01
  4.05300000000000e+00
  7.88600000000000e+04
  1.18200000000000e+04
  2.69200000000000e+03
  2.49600000000000e+02
  9.02800000000000e+01
  3.52900000000000e+01
  1.45100000000000e+01
  4.05300000000000e+00
  1.48200000000000e+00
  7.88600000000000e+04
  1.18200000000000e+04
  2.69200000000000e+03
  9.02800000000000e+01
  3.52900000000000e+01
  1.45100000000000e+01
  4.05300000000000e+00
  1.48200000000000e+00
  2.51700000000000e-01
  9.24300000000000e-02
  3.15900000000000e+02
  7.44200000000000e+01
  2.34800000000000e+01
  8.48800000000000e+00
  3.21700000000000e+00
  1.22900000000000e+00
  7.44200000000000e+01
  2.34800000000000e+01
  8.48800000000000e+00
  3.21700000000000e+00
  1.22900000000000e+00
  2.96400000000000e-01
  8.76800000000000e-02
  2.75000000000000e-01
  7.88600000000000e+04
  1.18200000000000e+04
  2.69200000000000e+03
  7.63400000000000e+02
  2.49600000000000e+02
  9.02800000000000e+01
  3.52900000000000e+01
  1.45100000000000e+01
  4.05300000000000e+00
  7.88600000000000e+04
  1.18200000000000e+04
  2.69200000000000e+03
  2.49600000000000e+02
  9.02800000000000e+01
  3.52900000000000e+01
  1.45100000000000e+01
  4.05300000000000e+00
  1.48200000000000e+00
  7.88600000000000e+04
  1.18200000000000e+04
  2.69200000000000e+03
  9.02800000000000e+01
  3.52900000000000e+01
  1.45100000000000e+01
  4.05300000000000e+00
  1.48200000000000e+00
  2.51700000000000e-01
  9.24300000000000e-02
  3.15900000000000e+02
  7.44200000000000e+01
  2.34800000000000e+01
  8.48800000000000e+00
  3.21700000000000e+00
  1.22900000000000e+00
  7.44200000000000e+01
  2.34800000000000e+01
  8.48800000000000e+00
  3.21700000000000e+00
  1.22900000000000e+00
  2.96400000000000e-01
  8.76800000000000e-02
  2.75000000000000e-01
  7.88600000000000e+04
  1.18200000000000e+04
  2.69200000000000e+03
  7.63400000000000e+02
  2.49600000000000e+02
  9.02800000000000e+01
  3.52900000000000e+01
  1.45100000000000e+01
  4.05300000000000e+00
  7.88600000000000e+04
  1.18200000000000e+04
  2.69200000000000e+03
  2.49600000000000e+02
  9.02800000000000e+01
  3.52900000000000e+01
  1.45100000000000e+01
  4.05300000000000e+00
  1.48200000000000e+00
  7.88600000000000e+04
  1.18200000000000e+04
  2.69200000000000e+03
  9.02800000000000e+01
  3.52900000000000e+01
  1.45100000000000e+01
  4.05300000000000e+00
  1.48200000000000e+00
  2.51700000000000e-01
  9.24300000000000e-02
  3.15900000000000e+02
  7.44200000000000e+01
  2.34800000000000e+01
  8.48800000000000e+00
  3.21700000000000e+00
  1.22900000000000e+00
  7.44200000000000e+01
  2.34800000000000e+01
  8.48800000000000e+00
  3.21700000000000e+00
  1.22900000000000e+00
  2.96400000000000e-01
  8.76800000000000e-02
  2.75000000000000e-01

  9.06253754413352e-01
  1.69293104204437e+00
  2.88765135213002e+00
  4.51686717623273e+00
  6.15495015249549e+00
  6.60292741422250e+00
  4.31307094498082e+00
  1.11211258821928e+00
  3.28871017883051e-02
  1.81811499558714e-03
  7.82084807797983e-03
 -3.64325186414446e-03
 -1.38589915538590e-01
 -3.09231066968474e-01
 -8.37223961363792e-01
 -2.35283994917911e-01
  1.05074974557404e+00
  5.58607098057301e-01
 -3.73189052056138e-04
 -4.34506392374390e-04
 -1.25465717071959e-03
  1.25391036214459e-02
  2.72204657714548e-02
  2.48300227161584e-02
 -1.48880417762021e-01
 -3.39029634838718e-01
  2.96723365521804e-01
  1.19473010431857e-01
  7.49634571599597e+00
  9.36025063316295e+00
  9.42818987380764e+00
  6.66500330898836e+00
  2.81728351118454e+00
  4.95548501763808e-01
  1.33801616421722e-01
 -1.41076498099296e-01
  2.71250274850203e-02
 -2.30271473527780e-01
  1.34383996261684e-01
  3.01514460345638e-01
  6.80089021682769e-02
  1.71886461192366e-01
  9.06253754413352e-01
  1.69293104204437e+00
  2.88765135213002e+00
  4.51686717623273e+00
  6.15495015249549e+00
  6.60292741422250e+00
  4.31307094498082e+00
  1.11211258821928e+00
  3.28871017883051e-02
  1.81811499558714e-03
  7.82084807797983e-03
 -3.64325186414446e-03
 -1.38589915538590e-01
 -3.09231066968474e-01
 -8.37223961363792e-01
 -2.35283994917911e-01
  1.05074974557404e+00
  5.58607098057301e-01
 -3.73189052056138e-04
 -4.34506392374390e-04
 -1.25465717071959e-03
  1.25391036214459e-02
  2.72204657714548e-02
  2.48300227161584e-02
 -1.48880417762021e-01
 -3.39029634838718e-01
  2.96723365521804e-01
  1.19473010431857e-01
  7.49634571599597e+00
  9.36025063316295e+00
  9.42818987380764e+00
  6.66500330898836e+00
  2.81728351118454e+00
  4.95548501763808e-01
  1.33801616421722e-01
 -1.41076498099296e-01
  2.71250274850203e-02
 -2.30271473527780e-01
  1.34383996261684e-01
  3.01514460345638e-01
  6.80089021682769e-02
  1.71886461192366e-01
  9.06253754413352e-01
  1.69293104204437e+00
  2.88765135213002e+00
  4.51686717623273e+00
  6.15495015249549e+00
  6.60292741422250e+00
  4.31307094498082e+00
  1.11211258821928e+00
  3.28871017883051e-02
  1.81811499558714e-03
  7.82084807797983e-03
 -3.64325186414446e-03
 -1.38589915538590e-01
 -3.09231066968474e-01
 -8.37223961363792e-01
 -2.35283994917911e-01
  1.05074974557404e+00
  5.58607098057301e-01
 -3.73189052056138e-04
 -4.34506392374390e-04
 -1.25465717071959e-03
  1.25391036214459e-02
  2.72204657714548e-02
  2.48300227161584e-02
 -1.48880417762021e-01
 -3.39029634838718e-01
  2.96723365521804e-01
  1.19473010431857e-01
  7.49634571599597e+00
  9.36025063316295e+00
  9.42818987380764e+00
  6.66500330898836e+00
  2.81728351118454e+00
  4.95548501763808e-01
  1.33801616421722e-01
 -1.41076498099296e-01
  2.71250274850203e-02
 -2.30271473527780e-01
  1.34383996261684e-01
  3.01514460345638e-01
  6.80089021682769e-02
  1.71886461192366e-01
  9.06253754413352e-01
  1.69293104204437e+00
  2.88765135213002e+00
  4.51686717623273e+00
  6.15495015249549e+00
  6.60292741422250e+00
  4.31307094498082e+00
  1.11211258821928e+00
  3.28871017883051e-02
  1.81811499558714e-03
  7.82084807797983e-03
 -3.64325186414446e-03
 -1.38589915538590e-01
 -3.09231066968474e-01
 -8.37223961363792e-01
 -2.35283994917911e-01
  1.05074974557404e+00
  5.58607098057301e-01
 -3.73189052056138e-04
 -4.34506392374390e-04
 -1.25465717071959e-03
  1.25391036214459e-02
  2.72204657714548e-02
  2.48300227161584e-02
 -1.48880417762021e-01
 -3.39029634838718e-01
  2.96723365521804e-01
  1.19473010431857e-01
  7.49634571599597e+00
  9.36025063316295e+00
  9.42818987380764e+00
  6.66500330898836e+00
  2.81728351118454e+00
  4.95548501763808e-01
  1.33801616421722e-01
 -1.41076498099296e-01
  2.71250274850203e-02
 -2.30271473527780e-01
  1.34383996261684e-01
  3.01514460345638e-01
  6.80089021682769e-02
  1.71886461192366e-01
  9.06253754413352e-01
  1.69293104204437e+00
  2.88765135213002e+00
  4.51686717623273e+00
  6.15495015249549e+00
  6.60292741422250e+00
  4.31307094498082e+00
  1.11211258821928e+00
  3.28871017883051e-02
  1.81811499558714e-03
  7.82084807797983e-03
 -3.64325186414446e-03
 -1.38589915538590e-01
 -3.09231066968474e-01
 -8.37223961363792e-01
 -2.35283994917911e-01
  1.05074974557404e+00
  5.58607098057301e-01
 -3.73189052056138e-04
 -4.34506392374390e-04
 -1.25465717071959e-03
  1.25391036214459e-02
  2.72204657714548e-02
  2.48300227161584e-02
 -1.48880417762021e-01
 -3.39029634838718e-01
  2.96723365521804e-01
  1.19473010431857e-01
  7.49634571599597e+00
  9.36025063316295e+00
  9.42818987380764e+00
  6.66500330898836e+00
  2.81728351118454e+00
  4.95548501763808e-01
  1.33801616421722e-01
 -1.41076498099296e-01
  2.71250274850203e-02
 -2.30271473527780e-01
  1.34383996261684e-01
  3.01514460345638e-01
  6.80089021682769e-02
  1.71886461192366e-01
  9.06253754413352e-01
  1.69293104204437e+00
  2.88765135213002e+00
  4.51686717623273e+00
  6.15495015249549e+00
  6.60292741422250e+00
  4.31307094498082e+00
  1.11211258821928e+00
  3.28871017883051e-02
  1.81811499558714e-03
  7.82084807797983e-03
 -3.64325186414446e-03
 -1.38589915538590e-01
 -3.09231066968474e-01
 -8.37223961363792e-01
 -2.35283994917911e-01
  1.05074974557404e+00
  5.58607098057301e-01
 -3.73189052056138e-04
 -4.34506392374390e-04
 -1.25465717071959e-03
  1.25391036214459e-02
  2.72204657714548e-02
  2.48300227161584e-02
 -1.48880417762021e-01
 -3.39029634838718e-01
  2.96723365521804e-01
  1.19473010431857e-01
  7.49634571599597e+00
  9.36025063316295e+00
  9.42818987380764e+00
  6.66500330898836e+00
  2.81728351118454e+00
  4.95548501763808e-01
  1.33801616421722e-01
 -1.41076498099296e-01
  2.71250274850203e-02
 -2.30271473527780e-01
  1.34383996261684e-01
  3.01514460345638e-01
  6.80089021682769e-02
  1.71886461192366e-01
  9.06253754413352e-01
  1.69293104204437e+00
  2.88765135213002e+00
  4.51686717623273e+00
  6.15495015249549e+00
  6.60292741422250e+00
  4.31307094498082e+00
  1.11211258821928e+00
  3.28871017883051e-02
  1.81811499558714e-03
  7.82084807797983e-03
 -3.64325186414446e-03
 -1.38589915538590e-01
 -3.09231066968474e-01
 -8.37223961363792e-01
 -2.35283994917911e-01
  1.05074974557404e+00
  5.58607098057301e-01
 -3.73189052056138e-04
 -4.34506392374390e-04
 -1.25465717071959e-03
  1.25391036214459e-02
  2.72204657714548e-02
  2.48300227161584e-02
 -1.48880417762021e-01
 -3.39029634838718e-01
  2.96723365521804e-01
  1.19473010431857e-01
  7.49634571599597e+00
  9.36025063316295e+00
  9.42818987380764e+00
  6.66500330898836e+00
  2.81728351118454e+00
  4.95548501763808e-01
  1.33801616421722e-01
 -1.41076498099296e-01
  2.71250274850203e-02
 -2.30271473527780e-01
  1.34383996261684e-01
  3.01514460345638e-01
  6.80089021682769e-02
  1.71886461192366e-01
  9.06253754413352e-01
  1.69293104204437e+00
  2.88765135213002e+00
  4.51686717623273e+00
  6.15495015249549e+00
  6.60292741422250e+00
  4.31307094498082e+00
  1.11211258821928e+00
  3.28871017883051e-02
  1.81811499558714e-03
  7.82084807797983e-03
 -3.64325186414446e-03
 -1.38589915538590e-01
 -3.09231066968474e-01
 -8.37223961363792e-01
 -2.35283994917911e-01
  1.05074974557404e+00
  5.58607098057301e-01
 -3.73189052056138e-04
 -4.34506392374390e-04
 -1.25465717071959e-03
  1.25391036214459e-02
  2.72204657714548e-02
  2.48300227161584e-02
 -1.48880417762021e-01
 -3.39029634838718e-01
  2.96723365521804e-01
  1.19473010431857e-01
  7.49634571599597e+00
  9.36025063316295e+00
  9.42818987380764e+00
  6.66500330898836e+00
  2.81728351118454e+00
  4.95548501763808e-01
  1.33801616421722e-01
 -1.41076498099296e-01
  2.71250274850203e-02
 -2.30271473527780e-01
  1.34383996261684e-01
  3.01514460345638e-01
  6.80089021682769e-02
  1.71886461192366e-01
  9.06253754413352e-01
  1.69293104204437e+00
  2.88765135213002e+00
  4.51686717623273e+00
  6.15495015249549e+00
  6.60292741422250e+00
  4.31307094498082e+00
  1.11211258821928e+00
  3.28871017883051e-02
  1.81811499558714e-03
  7.82084807797983e-03
 -3.64325186414446e-03
 -1.38589915538590e-01
 -3.09231066968474e-01
 -8.37223961363792e-01
 -2.35283994917911e-01
  1.05074974557404e+00
  5.58607098057301e-01
 -3.73189052056138e-04
 -4.34506392374390e-04
 -1.25465717071959e-03
  1.25391036214459e-02
  2.72204657714548e-02
  2.48300227161584e-02
 -1.48880417762021e-01
 -3.39029634838718e-01
  2.96723365521804e-01
  1.19473010431857e-01
  7.49634571599597e+00
  9.36025063316295e+00
  9.42818987380764e+00
  6.66500330898836e+00
  2.81728351118454e+00
  4.95548501763808e-01
  1.33801616421722e-01
 -1.41076498099296e-01
  2.71250274850203e-02
 -2.30271473527780e-01
  1.34383996261684e-01
  3.01514460345638e-01
  6.80089021682769e-02
  1.71886461192366e-01
  9.06253754413352e-01
  1.69293104204437e+00
  2.88765135213002e+00
  4.51686717623273e+00
  6.15495015249549e+00
  6.60292741422250e+00
  4.31307094498082e+00
  1.11211258821928e+00
  3.28871017883051e-02
  1.81811499558714e-03
  7.82084807797983e-03
 -3.64325186414446e-03
 -1.38589915538590e-01
 -3.09231066968474e-01
 -8.37223961363792e-01
 -2.35283994917911e-01
  1.05074974557404e+00
  5.58607098057301e-01
 -3.73189052056138e-04
 -4.34506392374390e-04
 -1.25465717071959e-03
  1.25391036214459e-02
  2.72204657714548e-02
  2.48300227161584e-02
 -1.48880417762021e-01
 -3.39029634838718e-01
  2.96723365521804e-01
  1.19473010431857e-01
  7.49634571599597e+00
  9.36025063316295e+00
  9.42818987380764e+00
  6.66500330898836e+00
  2.81728351118454e+00
  4.95548501763808e-01
  1.33801616421722e-01
 -1.41076498099296e-01
  2.71250274850203e-02
 -2.30271473527780e-01
  1.34383996261684e-01
  3.01514460345638e-01
  6.80089021682769e-02
  1.71886461192366e-01
  9.06253754413352e-01
  1.69293104204437e+00
  2.88765135213002e+00
  4.51686717623273e+00
  6.15495015249549e+00
  6.60292741422250e+00
  4.31307094498082e+00
  1.11211258821928e+00
  3.28871017883051e-02
  1.81811499558714e-03
  7.82084807797983e-03
 -3.64325186414446e-03
 -1.38589915538590e-01
 -3.09231066968474e-01
 -8.37223961363792e-01
 -2.35283994917911e-01
  1.05074974557404e+00
  5.58607098057301e-01
 -3.73189052056138e-04
 -4.34506392374390e-04
 -1.25465717071959e-03
  1.25391036214459e-02
  2.72204657714548e-02
  2.48300227161584e-02
 -1.48880417762021e-01
 -3.39029634838718e-01
  2.96723365521804e-01
  1.19473010431857e-01
  7.49634571599597e+00
  9.36025063316295e+00
  9.42818987380764e+00
  6.66500330898836e+00
  2.81728351118454e+00
  4.95548501763808e-01
  1.33801616421722e-01
 -1.41076498099296e-01
  2.71250274850203e-02
 -2.30271473527780e-01
  1.34383996261684e-01
  3.01514460345638e-01
  6.80089021682769e-02
  1.71886461192366e-01
  9.06253754413352e-01
  1.69293104204437e+00
  2.88765135213002e+00
  4.51686717623273e+00
  6.15495015249549e+00
  6.60292741422250e+00
  4.31307094498082e+00
  1.11211258821928e+00
  3.28871017883051e-02
  1.81811499558714e-03
  7.82084807797983e-03
 -3.64325186414446e-03
 -1.38589915538590e-01
 -3.09231066968474e-01
 -8.37223961363792e-01
 -2.35283994917911e-01
  1.05074974557404e+00
  5.58607098057301e-01
 -3.73189052056138e-04
 -4.34506392374390e-04
 -1.25465717071959e-03
  1.25391036214459e-02
  2.72204657714548e-02
  2.48300227161584e-02
 -1.48880417762021e-01
 -3.39029634838718e-01
  2.96723365521804e-01
  1.19473010431857e-01
  7.49634571599597e+00
  9.36025063316295e+00
  9.42818987380764e+00
  6.66500330898836e+00
  2.81728351118454e+00
  4.95548501763808e-01
  1.33801616421722e-01
 -1.41076498099296e-01
  2.71250274850203e-02
 -2.30271473527780e-01
  1.34383996261684e-01
  3.01514460345638e-01
  6.80089021682769e-02
  1.71886461192366e-01
  9.06253754413352e-01
  1.69293104204437e+00
  2.88765135213002e+00
  4.51686717623273e+00
  6.15495015249549e+00
  6.60292741422250e+00
  4.31307094498082e+00
  1.11211258821928e+00
  3.28871017883051e-02
  1.81811499558714e-03
  7.82084807797983e-03
 -3.64325186414446e-03
 -1.38589915538590e-01
 -3.09231066968474e-01
 -8.37223961363792e-01
 -2.35283994917911e-01
  1.05074974557404e+00
  5.58607098057301e-01
 -3.73189052056138e-04
 -4.34506392374390e-04
 -1.25465717071959e-03
  1.25391036214459e-02
  2.72204657714548e-02
  2.48300227161584e-02
 -1.48880417762021e-01
 -3.39029634838718e-01
  2.96723365521804e-01
  1.19473010431857e-01
  7.49634571599597e+00
  9.36025063316295e+00
  9.42818987380764e+00
  6.66500330898836e+00
  2.81728351118454e+00
  4.95548501763808e-01
  1.33801616421722e-01
 -1.41076498099296e-01
  2.71250274850203e-02
 -2.30271473527780e-01
  1.34383996261684e-01
  3.01514460345638e-01
  6.80089021682769e-02
  1.71886461192366e-01
  9.06253754413352e-01
  1.69293104204437e+00
  2.88765135213002e+00
  4.51686717623273e+00
  6.15495015249549e+00
  6.60292741422250e+00
  4.31307094498082e+00
  1.11211258821928e+00
  3.28871017883051e-02
  1.81811499558714e-03
  7.82084807797983e-03
 -3.64325186414446e-03
 -1.38589915538590e-01
 -3.09231066968474e-01
 -8.37223961363792e-01
 -2.35283994917911e-01
  1.05074974557404e+00
  5.58607098057301e-01
 -3.73189052056138e-04
 -4.34506392374390e-04
 -1.25465717071959e-03
  1.25391036214459e-02
  2.72204657714548e-02
  2.48300227161584e-02
 -1.48880417762021e-01
 -3.39029634838718e-01
  2.96723365521804e-01
  1.19473010431857e-01
  7.49634571599597e+00
  9.36025063316295e+00
  9.42818987380764e+00
  6.66500330898836e+00
  2.81728351118454e+00
  4.95548501763808e-01
  1.33801616421722e-01
 -1.41076498099296e-01
  2.71250274850203e-02
 -2.30271473527780e-01
  1.34383996261684e-01
  3.01514460345638e-01
  6.80089021682769e-02
  1.71886461192366e-01
  9.06253754413352e-01
  1.69293104204437e+00
  2.88765135213002e+00
  4.51686717623273e+00
  6.15495015249549e+00
  6.60292741422250e+00
  4.31307094498082e+00
  1.11211258821928e+00
  3.28871017883051e-02
  1.81811499558714e-03
  7.82084807797983e-03
 -3.64325186414446e-03
 -1.38589915538590e-01
 -3.09231066968474e-01
 -8.37223961363792e-01
 -2.35283994917911e-01
  1.05074974557404e+00
  5.58607098057301e-01
 -3.73189052056138e-04
 -4.34506392374390e-04
 -1.25465717071959e-03
  1.25391036214459e-02
  2.72204657714548e-02
  2.48300227161584e-02
 -1.48880417762021e-01
 -3.39029634838718e-01
  2.96723365521804e-01
  1.19473010431857e-01
  7.49634571599597e+00
  9.36025063316295e+00
  9.42818987380764e+00
  6.66500330898836e+00
  2.81728351118454e+00
  4.95548501763808e-01
  1.33801616421722e-01
 -1.41076498099296e-01
  2.71250274850203e-02
 -2.30271473527780e-01
  1.34383996261684e-01
  3.01514460345638e-01
  6.80089021682769e-02
  1.71886461192366e-01
  9.06253754413352e-01
  1.69293104204437e+00
  2.88765135213002e+00
  4.51686717623273e+00
  6.15495015249549e+00
  6.60292741422250e+00
  4.31307094498082e+00
  1.11211258821928e+00
  3.28871017883051e-02
  1.81811499558714e-03
  7.82084807797983e-03
 -3.64325186414446e-03
 -1.38589915538590e-01
 -3.09231066968474e-01
 -8.37223961363792e-01
 -2.35283994917911e-01
  1.05074974557404e+00
  5.58607098057301e-01
 -3.73189052056138e-04
 -4.34506392374390e-04
 -1.25465717071959e-03
  1.25391036214459e-02
  2.72204657714548e-02
  2.48300227161584e-02
 -1.48880417762021e-01
 -3.39029634838718e-01
  2.96723365521804e-01
  1.19473010431857e-01
  7.49634571599597e+00
  9.36025063316295e+00
  9.42818987380764e+00
  6.66500330898836e+00
  2.81728351118454e+00
  4.95548501763808e-01
  1.33801616421722e-01
 -1.41076498099296e-01
  2.71250274850203e-02
 -2.30271473527780e-01
  1.34383996261684e-01
  3.01514460345638e-01
  6.80089021682769e-02
  1.71886461192366e-01

0 0 0 0 1 1 1
0 0 
9 0

0 1 1 9 1 1 1
9 0 
9 0

0 2 2 18 1 1 1
18 0 
9 0

0 3 3 27 1 1 1
27 0 
1 0

0 4 4 28 1 3 3
28 1 
6 0

0 7 7 34 1 3 3
34 1 
6 0

0 10 10 40 1 3 3
40 1 
1 0

0 13 13 41 1 5 6
41 2 
1 1

1 18 18 42 1 1 1
42 0 
9 0

1 19 19 51 1 1 1
51 0 
9 0

1 20 20 60 1 1 1
60 0 
9 0

1 21 21 69 1 1 1
69 0 
1 0

1 22 22 70 1 3 3
70 1 
6 0

1 25 25 76 1 3 3
76 1 
6 0

1 28 28 82 1 3 3
82 1 
1 0

1 31 31 83 1 5 6
83 2 
1 1

2 36 36 84 1 1 1
84 0 
9 0

2 37 37 93 1 1 1
93 0 
9 0

2 38 38 102 1 1 1
102 0 
9 0

2 39 39 111 1 1 1
111 0 
1 0

2 40 40 112 1 3 3
112 1 
6 0

2 43 43 118 1 3 3
118 1 
6 0

2 46 46 124 1 3 3
124 1 
1 0

2 49 49 125 1 5 6
125 2 
1 1

3 54 54 126 1 1 1
126 0 
9 0

3 55 55 135 1 1 1
135 0 
9 0

3 56 56 144 1 1 1
144 0 
9 0

3 57 57 153 1 1 1
153 0 
1 0

3 58 58 154 1 3 3
154 1 
6 0

3 61 61 160 1 3 3
160 1 
6 0

3 64 64 166 1 3 3
166 1 
1 0

3 67 67 167 1 5 6
167 2 
1 1

4 72 72 168 1 1 1
168 0 
9 0

4 73 73 177 1 1 1
177 0 
9 0

4 74 74 186 1 1 1
186 0 
9 0

4 75 75 195 1 1 1
195 0 
1 0

4 76 76 196 1 3 3
196 1 
6 0

4 79 79 202 1 3 3
202 1 
6 0

4 82 82 208 1 3 3
208 1 
1 0

4 85 85 209 1 5 6
209 2 
1 1

5 90 90 210 1 1 1
210 0 
9 0

5 91 91 219 1 1 1
219 0 
9 0

5 92 92 228 1 1 1
228 0 
9 0

5 93 93 237 1 1 1
237 0 
1 0

5 94 94 238 1 3 3
238 1 
6 0

5 97 97 244 1 3 3
244 1 
6 0

5 100 100 250 1 3 3
250 1 
1 0

5 103 103 251 1 5 6
251 2 
1 1

6 108 108 252 1 1 1
252 0 
9 0

6 109 109 261 1 1 1
261 0 
9 0

6 110 110 270 1 1 1
270 0 
9 0

6 111 111 279 1 1 1
279 0 
1 0

6 112 112 280 1 3 3
280 1 
6 0

6 115 115 286 1 3 3
286 1 
6 0

6 118 118 292 1 3 3
292 1 
1 0

6 121 121 293 1 5 6
293 2 
1 1

7 126 126 294 1 1 1
294 0 
9 0

7 127 127 303 1 1 1
303 0 
9 0

7 128 128 312 1 1 1
312 0 
9 0

7 129 129 321 1 1 1
321 0 
1 0

7 130 130 322 1 3 3
322 1 
6 0

7 133 133 328 1 3 3
328 1 
6 0

7 136 136 334 1 3 3
334 1 
1 0

7 139 139 335 1 5 6
335 2 
1 1

8 144 144 336 1 1 1
336 0 
9 0

8 145 145 345 1 1 1
345 0 
9 0

8 146 146 354 1 1 1
354 0 
9 0

8 147 147 363 1 1 1
363 0 
1 0

8 148 148 364 1 3 3
364 1 
6 0

8 151 151 370 1 3 3
370 1 
6 0

8 154 154 376 1 3 3
376 1 
1 0

8 157 157 377 1 5 6
377 2 
1 1

9 162 162 378 1 1 1
378 0 
9 0

9 163 163 387 1 1 1
387 0 
9 0

9 164 164 396 1 1 1
396 0 
9 0

9 165 165 405 1 1 1
405 0 
1 0

9 166 166 406 1 3 3
406 1 
6 0

9 169 169 412 1 3 3
412 1 
6 0

9 172 172 418 1 3 3
418 1 
1 0

9 175 175 419 1 5 6
419 2 
1 1

10 180 180 420 1 1 1
420 0 
9 0

10 181 181 429 1 1 1
429 0 
9 0

10 182 182 438 1 1 1
438 0 
9 0

10 183 183 447 1 1 1
447 0 
1 0

10 184 184 448 1 3 3
448 1 
6 0

10 187 187 454 1 3 3
454 1 
6 0

10 190 190 460 1 3 3
460 1 
1 0

10 193 193 461 1 5 6
461 2 
1 1

11 198 198 462 1 1 1
462 0 
9 0

11 199 199 471 1 1 1
471 0 
9 0

11 200 200 480 1 1 1
480 0 
9 0

11 201 201 489 1 1 1
489 0 
1 0

11 202 202 490 1 3 3
490 1 
6 0

11 205 205 496 1 3 3
496 1 
6 0

11 208 208 502 1 3 3
502 1 
1 0

11 211 211 503 1 5 6
503 2 
1 1

12 216 216 504 1 1 1
504 0 
9 0

12 217 217 513 1 1 1
513 0 
9 0

12 218 218 522 1 1 1
522 0 
9 0

12 219 219 531 1 1 1
531 0 
1 0

12 220 220 532 1 3 3
532 1 
6 0

12 223 223 538 1 3 3
538 1 
6 0

12 226 226 544 1 3 3
544 1 
1 0

12 229 229 545 1 5 6
545 2 
1 1

13 234 234 546 1 1 1
546 0 
9 0

13 235 235 555 1 1 1
555 0 
9 0

13 236 236 564 1 1 1
564 0 
9 0

13 237 237 573 1 1 1
573 0 
1 0

13 238 238 574 1 3 3
574 1 
6 0

13 241 241 580 1 3 3
580 1 
6 0

13 244 244 586 1 3 3
586 1 
1 0

13 247 247 587 1 5 6
587 2 
1 1

14 252 252 588 1 1 1
588 0 
9 0

14 253 253 597 1 1 1
597 0 
9 0

14 254 254 606 1 1 1
606 0 
9 0

14 255 255 615 1 1 1
615 0 
1 0

14 256 256 616 1 3 3
616 1 
6 0

14 259 259 622 1 3 3
622 1 
6 0

14 262 262 628 1 3 3
628 1 
1 0

14 265 265 629 1 5 6
629 2 
1 1

15 270 270 630 1 1 1
630 0 
9 0

15 271 271 639 1 1 1
639 0 
9 0

15 272 272 648 1 1 1
648 0 
9 0

15 273 273 657 1 1 1
657 0 
1 0

15 274 274 658 1 3 3
658 1 
6 0

15 277 277 664 1 3 3
664 1 
6 0

15 280 280 670 1 3 3
670 1 
1 0

15 283 283 671 1 5 6
671 2 
1 1

 -------------------------------------------------------------
 Allocate 2458888 B from available memory: 1048576000000 B
 There are 729 image cells after screening.
 There are 256 image cells for CGTO evaluation after screening.
 Real-Space grid for FFT initialized based on kinetic energy cutoff (eV) = 500.0
 Real-Space grid for FFT: (20,20,20)
 There are 68921 real-space grid points.
 There are 512 batches of real-space grid points. 
 Size of each grid batch is around 128
 Grid for AFT initialized based on kinetic energy cutoff (eV) = 500.0
 Real-Space grid for AFT: (20,20,20)
 There are 68921 real-space grid points.

 There are 43648 atom-centered grid points.

 Spacegroup symmetry group: Fd-3m
 Reducing spacegroup symmetry to symmorphic group: F -4 3 m
 Monkhorst-Pack mesh is [1,1,1]
 There are 1 k points.
kpoints in Bohr
0.0000000000 0.0000000000 0.0000000000
 There are 112 alpha and 112 beta electrons
 Start computing overlap matrix
 Allocate 1327104 B from available memory: 1048573541120 B
 Time for computing overlap matrix: 4.7050000000 s
 ====== Initialize compute kernels for all-electron RI-J (kpts) ====== 
 ========================================================== 
 Range-separated parameter omega        = 0.299999999999999989
 Threshold for 1e2c shellpair           = 0.000000000000010000
 Threshold for 2e2c SR integral         = 0.000000000000000001
 Threshold for 2e3c SR integral         = 0.000000000100000000
 Threshold for AFT G-space screening is = 0.000000000001000000
 The exponent cutoff for C/D classification (omega2 / 2) is  = 0.044999999999999998
 ========================================================== 
 === Post process the basis set for RI calculation (exp_cutoff = 0.044999999999999998 ) === 
nshells_b1 before uncontraction = 128
nshells_b1 after uncontraction = 128
nshells_baux before uncontraction = 592
nshells_baux after uncontraction = 592
===============================================
nbsf total   = 288
nbsf compact = 288
nbsf diffuse = 0
naux total   = 1936
naux compact = 1936
naux diffuse = 0
nshells_bnuc = 16

 Number of unique atoms is 1
 Unique atom #0 (si) has 8 shells.

Shell 0 to 7 belongs to atom si
Shell 8 to 15 belongs to atom si
Shell 16 to 23 belongs to atom si
Shell 24 to 31 belongs to atom si
Shell 32 to 39 belongs to atom si
Shell 40 to 47 belongs to atom si
Shell 48 to 55 belongs to atom si
Shell 56 to 63 belongs to atom si
Shell 64 to 71 belongs to atom si
Shell 72 to 79 belongs to atom si
Shell 80 to 87 belongs to atom si
Shell 88 to 95 belongs to atom si
Shell 96 to 103 belongs to atom si
Shell 104 to 111 belongs to atom si
Shell 112 to 119 belongs to atom si
Shell 120 to 127 belongs to atom si

 Number of unique atom is 1
 Unique atom #0 (si) has 37 auxiliary shells.

Auxiliary Shell 0 to 36 belongs to atom si
Auxiliary Shell 37 to 73 belongs to atom si
Auxiliary Shell 74 to 110 belongs to atom si
Auxiliary Shell 111 to 147 belongs to atom si
Auxiliary Shell 148 to 184 belongs to atom si
Auxiliary Shell 185 to 221 belongs to atom si
Auxiliary Shell 222 to 258 belongs to atom si
Auxiliary Shell 259 to 295 belongs to atom si
Auxiliary Shell 296 to 332 belongs to atom si
Auxiliary Shell 333 to 369 belongs to atom si
Auxiliary Shell 370 to 406 belongs to atom si
Auxiliary Shell 407 to 443 belongs to atom si
Auxiliary Shell 444 to 480 belongs to atom si
Auxiliary Shell 481 to 517 belongs to atom si
Auxiliary Shell 518 to 554 belongs to atom si
Auxiliary Shell 555 to 591 belongs to atom si

================= Automatically determine grid size for reciprocal space summation =================
 Range-separated parameter = 0.30000000000000 and G-space screening threshold = 0.00000000000100
The number of grid points along each axis dimension is (7, 7, 7)
Total number of grid points = 3375

Use nonortho shellpair for diffuse density
======== Initializing relevant kernel for RIJ (CC type) ========
There are 7432 shellpairs in the reference unit cell
There are 695 images and we expect to have 5165240 in total
There are 73712 shellpairs in the lattice sum after screening
****** AFT -> SR ******
Maximum bra distance cutoff is 24.000000000000
Maximum bra ket distance cutoff is 35.357348128408
Maximum bra ket screening distance is 28.093750000000
Number of auxiliary image is 285
There are 7432 shellpairs in the reference unit cell
There are 117 images and we expect to have 869544 in total
There are 73712 shellpairs in the lattice sum after screening
Available memory per thread for 2e3c calculation is 32.767881688000Gb
Finish initializing 2e3c SR with the lattice sum!
=================================================
======== Initialize the SR component for Vnuc (CC type) ========
Maximum bra distance cutoff is 24.000000000000
Maximum bra ket distance cutoff is 29.210206846529
Maximum bra ket screening distance is 21.726328375039
Number of auxiliary image is 237
There are 7432 shellpairs in the reference unit cell
There are 117 images and we expect to have 869544 in total
There are 73712 shellpairs in the lattice sum after screening
Available memory per thread for 2e3c calculation is 32.767881688000Gb
Finish initializing 2e3c SR with the lattice sum!
=================================================
 Aufbau occupation scheme, occupation determined by eigenvalue
 == 0-th k-point nmo = 288 (0.00000,0.00000,0.00000) ==

 Generate autoSAD guess
backing up fragment data
Atom # 0: si, charge: 0, multiplicity: 3.000000
writing autosad to fragment context
Settings for isolated fragments: 
  frgm_gamma: TRUE
  frgm_center: FALSE

    Running SCF for isolated atom #0
    Fragment Input file: /n/netscratch/joonholee_lab/Lab/hieudinh//si_222_ccpvdz_omega_0.3_111.scratch20250908144418/autosad_frgmt_0/frgmt_input.in
    Fragment Output file: /n/netscratch/joonholee_lab/Lab/hieudinh//si_222_ccpvdz_omega_0.3_111.scratch20250908144418/autosad_frgmt_0/frgmt_job.out
    Fragment job begins at Mon Sep  8 14:44:26 2025

 Integrated density by DFT XC:
   Numerical integral  =    13.999999917315
   Relative error      =     0.0000005906 %
Final energy components:
 DFT Correlation            Energy =  -0.48513826889399
 DFT Exchange               Energy = -20.16642564451804
 Kinetic (alpha)            Energy = 145.25889537694866
 Kinetic (beta)             Energy = 143.28753845481600
 Nuclear Attraction (alpha) Energy = -351.37163574421470
 Nuclear Attraction (beta)  Energy = -337.75785676323716
 Nuclear Repulsion          Energy =   0.00000000000000
 SEOQF                      Energy =  -0.00000000097530
 Total Coulomb              Energy = 132.01551581812896
----------------------------------------------
    SCF Energy: -289.2191067719
   Total fragment job time:  0.35 s.
restoring fragment data

 ------------------------------------------------------------------------
 Allocate 3985408 B from available memory: 1048572214016 B
 Time for generating SCF guess: 0.36 s

 Allocate 838720 B from available memory: 1048568228608 B
 Selected algorithms for each term:
  kpts_kinetic -> @0x14c08f59c680
  kpts_nn -> @0x14c08f59c800
  kpts_rij_bigmem -> @0x14c08f59c3e0
  kpts_vnuc_df -> @0x14c08f59c380
  kpts_xc -> @0x14c08f59c2c0
 Time for computing kinetic matrix is 5.34 s
Start calculating Vnuc CC type!
 Time for computing nuclear attraction matrix is 6.34 s
Compute (P|Q) and use solve on the fly!
Maximum distance between P and Q is 36.45654200218807
Number of images for (P|Qn) is 341
 Time for computing 2e2c SR integral is 0.74 s
Maximum dynamic memory per thread for 2e3c SR integrals: 0.019 GiB
Batch size for basis function pair is 39688 out of 39688
 === bvk cell = 0 has 100.000 % of the basis function pairs === 
Static memory requirement for 2e3c SR integrals: 0.572 GB
There are 1 munu batches for computing 2e3c SR integrals with latsum
There are 32 Q batches for computing 2e3c SR integrals with latsum
 Time for computing 2e3c SR integral (CC) is 16.40 s
 Time for RI-J this SCF iteration is 17.65 s
 Time for RI-J this SCF iteration is 0.50 s
 ----------------------------------------------
 Guess energy: -4629.3781159548
 ----------------------------------------------
 Guess energy components:
 DFT Correlation    Energy =  -8.73195175481496
 DFT Exchange       Energy = -324.85629842882855
 Kinetic            Energy = 4620.82722447323795
 Nuclear Attraction Energy = -9490.70873073691109
 Nuclear Repulsion  Energy = -823.14927427733528
 Total Coulomb      Energy = 1397.24091476986473
 ----------------------------------------------
  Cycle       Energy         DIIS error
 ----------------------------------------------
 Time for RI-J this SCF iteration is 0.50 s
    1   -4629.3952303732      6.68e-04  
 Energy components after cycle 1:
 DFT Correlation    Energy =  -8.74964317882189
 DFT Exchange       Energy = -324.51185929201711
 Kinetic            Energy = 4618.16044147855337
 Nuclear Attraction Energy = -9484.22119928042412
 Nuclear Repulsion  Energy = -823.14927427733528
 Total Coulomb      Energy = 1393.07630417684845
    2   -4629.3952303732      1.90e-04  
 Energy components after cycle 2:
 DFT Correlation    Energy =  -8.74964317882189
 DFT Exchange       Energy = -324.51185929201711
 Kinetic            Energy = 4618.16044147855337
 Nuclear Attraction Energy = -9484.22119928042412
 Nuclear Repulsion  Energy = -823.14927427733528
 Total Coulomb      Energy = 1393.07630417684845
 ----------------------------------------------
  Cycle       Energy        RMS Gradient
 ----------------------------------------------
 Time for RI-J this SCF iteration is 0.50 s
    1   -4629.3962345770      6.47e-03   Normal BFGS step
 Energy components after cycle 1:
 DFT Correlation    Energy =  -8.74582478609838
 DFT Exchange       Energy = -324.63479842258641
 Kinetic            Energy = 4619.34744069020417
 Nuclear Attraction Energy = -9486.63816740906623
 Nuclear Repulsion  Energy = -823.14927427733528
 Total Coulomb      Energy = 1394.42438962788538
 Time for RI-J this SCF iteration is 0.53 s
    2   -4629.3963231693      1.72e-03   Normal BFGS step
 Energy components after cycle 2:
 DFT Correlation    Energy =  -8.74653058946949
 DFT Exchange       Energy = -324.60426166201182
 Kinetic            Energy = 4619.03244258194900
 Nuclear Attraction Energy = -9486.03099570257473
 Nuclear Repulsion  Energy = -823.14927427733528
 Total Coulomb      Energy = 1394.10229648017298
 Time for RI-J this SCF iteration is 0.50 s
    3   -4629.3963232048      2.44e-05   Normal BFGS step
 Energy components after cycle 3:
 DFT Correlation    Energy =  -8.74655095496440
 DFT Exchange       Energy = -324.60473409956717
 Kinetic            Energy = 4619.04002692847553
 Nuclear Attraction Energy = -9486.04139323748677
 Nuclear Repulsion  Energy = -823.14927427733528
 Total Coulomb      Energy = 1394.10560243609461
    3   -4629.3963232048      2.44e-05
 ----------------------------------------------
 Final energy components:
 DFT Correlation    Energy =  -8.74655095496440
 DFT Exchange       Energy = -324.60473409956717
 Kinetic            Energy = 4619.04002692847553
 Nuclear Attraction Energy = -9486.04139323748677
 Nuclear Repulsion  Energy = -823.14927427733528
 Total Coulomb      Energy = 1394.10560243609461
 ----------------------------------------------
 Final energy is -4629.3963232048

 SCF time:   CPU 1501.73s  wall 51.00s 
 Total wall time for computing Kinetic: 0.00 s (6)
 Total wall time for computing RIJ-BIGMEM: 20.18 s (6)
 Total wall time for computing RSDF Vnuc: 0.00 s (6)
 Total wall time for computing DFT XC: 10.37 s (6)
 ---------------------------------------------------------------------------
                        Orbital Energies (a.u.)
 ---------------------------------------------------------------------------
 == 0-th k-point (0.00000,0.00000,0.00000) occupation: 112==
 -64.97457 -64.97457 -64.97457 -64.97457 -64.97456 -64.97455 -64.97455 -64.97455 -64.97455 -64.97455
 -64.97455 -64.97455 -64.97455 -64.97455 -64.97455 -64.97455 -4.60740 -4.60740 -4.60740 -4.60740
 -4.60740 -4.60740 -4.60738 -4.60738 -4.60738 -4.60738 -4.60735 -4.60735 -4.60735 -4.60735
 -4.60725 -4.60714 -3.01873 -3.01873 -3.01873 -3.01873 -3.01873 -3.01873 -3.01872 -3.01872
 -3.01872 -3.01872 -3.01872 -3.01872 -3.01872 -3.01872 -3.01863 -3.01863 -3.01863 -3.01856
 -3.01856 -3.01856 -3.01856 -3.01834 -3.01834 -3.01834 -3.01834 -3.01834 -3.01834 -3.01811
 -3.01811 -3.01811 -3.01811 -3.01805 -3.01805 -3.01805 -3.01798 -3.01798 -3.01798 -3.01798
 -3.01798 -3.01798 -3.01798 -3.01798 -3.01796 -3.01796 -3.01796 -3.01796 -3.01796 -3.01796
 -0.15530 -0.06890 -0.06890 -0.06890 -0.06890 -0.00229 -0.00229 -0.00229 -0.00229 -0.00229
 -0.00229 0.02702 0.02702 0.02702 0.02702 0.17886 0.17886 0.17886 0.17886 0.17886
 0.17886 0.24204 0.24204 0.24204 0.24204 0.24204 0.24204 0.24204 0.24204 0.28973
 0.28973 0.28973 0.31473 0.31473 0.31473 0.31473 0.31473 0.31473 0.34703 0.34703
 0.34703 0.34703 0.38144 0.38144 0.38144 0.41224 0.41462 0.41462 0.41462 0.41462
 0.41462 0.41462 0.41462 0.41462 0.59292 0.59292 0.60690 0.60690 0.60690 0.60690
 0.62699 0.66384 0.66384 0.66384 0.66384 0.66384 0.66384 0.71181 0.71181 0.71181
 0.71181 0.71181 0.71181 0.71181 0.71181 0.72752 0.72752 0.72752 0.72752 0.73304
 0.73304 0.73304 0.73304 0.73304 0.73304 0.76690 0.76690 0.76690 0.76690 0.76690
 0.76690 0.76690 0.76690 0.78282 0.78282 0.78282 0.78282 0.78282 0.78282 0.79427
 0.79427 0.79427 0.79427 0.79427 0.79427 0.80269 0.80269 0.80269 0.80269 0.85132
 0.85132 0.85132 1.04873 1.04873 1.04873 1.04873 1.04873 1.04873 1.05869 1.05869
 1.05869 1.05869 1.06591 1.06591 1.06591 1.06591 1.07025 1.14094 1.14094 1.14094
 1.14094 1.14094 1.14094 1.19454 1.19454 1.19454 1.19454 1.19454 1.19454 1.19662
 1.19662 1.19662 1.19662 1.19662 1.19662 1.19662 1.19662 1.24304 1.24304 1.24304
 1.24304 1.24304 1.24304 1.24304 1.24304 1.25848 1.25848 1.25848 1.25848 1.25848
 1.25848 1.26608 1.26608 1.26608 1.27921 1.27921 1.32344 1.32344 1.32344 1.32344
 1.38845 1.38845 1.38845 1.43068 1.43068 1.43068 1.43068 1.43068 1.43068 1.49332
 1.49332 1.49332 1.49332 1.49332 1.49332 1.49332 1.49332 1.51248 1.51248 1.51248
 1.51248 1.51248 1.51248 1.51248 1.51248 1.69724 1.69724 1.69724 1.92764 1.92764
 1.92764 1.92764 1.92764 1.92764 2.62298 2.62298 2.62298 2.62298
 ---------------------------------------------------------------------------
 VBM is at 0-th k-point with 7.88399 eV
 CBM is at 0-th k-point with 8.56410 eV
 Band gap is 0.68011 eV


           Ground-State Mulliken Net Atomic Charges

      Atom                 Charge (a.u.)          Spin (a.u.)
   --------------------------------------------------------
      1 Si              (-0.000000,-0.000000)    (0.000000,0.000000)
      2 Si               (0.000000,-0.000000)    (0.000000,0.000000)
      3 Si              (-0.000000,-0.000000)    (0.000000,0.000000)
      4 Si               (0.000000,-0.000000)    (0.000000,0.000000)
      5 Si              (-0.000000,-0.000000)    (0.000000,0.000000)
      6 Si               (0.000000,-0.000000)    (0.000000,0.000000)
      7 Si              (-0.000000,-0.000000)    (0.000000,0.000000)
      8 Si               (0.000000,-0.000000)    (0.000000,0.000000)
      9 Si               (0.000000,-0.000000)    (0.000000,0.000000)
     10 Si              (-0.000000,-0.000000)    (0.000000,0.000000)
     11 Si               (0.000000,-0.000000)    (0.000000,0.000000)
     12 Si              (-0.000000,-0.000000)    (0.000000,0.000000)
     13 Si               (0.000000,-0.000000)    (0.000000,0.000000)
     14 Si              (-0.000000,-0.000000)    (0.000000,0.000000)
     15 Si               (0.000000,-0.000000)    (0.000000,0.000000)
     16 Si              (-0.000000,-0.000000)    (0.000000,0.000000)
   --------------------------------------------------------
  Sum of atomic charges =     (-0.000000,-0.000000)
  Sum of spin   charges =       (0.000000,0.000000)



 Total job time:  51.13 s.
 Mon Sep  8 14:45:09 2025


        *************************************************************
        *                                                           *
        *  Thank you very much for using QCPBC. Have a nice day.    *
        *                                                           *
        *************************************************************

Running job 1 of 1
