                  Welcome to Q-Chem
           with Periodic Boundary Condition
     A Quantum Leap Into The Future Of Chemistry

 Adam Rettig, Xintian Feng, Meng-Fu Chen, Hieu Dinh, Stephen Quiton,
 Anton Ni, Paul J. Robinson, Jinghong Zhang, Joonho Lee

Contributors to earlier versions of Q-Chem not listed above:
 Evgeny Epifanovsky, Leo Cunha, Jerome F. Gonthier, Kuan-Yu Liu
 Input file: /n/netscratch/joonholee_lab/Lab/hieudinh//lif_solve_def2qzvp_omega_0.3_333.scratch20250908233128/lif_solve_def2qzvp_omega_0.3_333.0
 Scratch folder: /n/netscratch/joonholee_lab/Lab/hieudinh//lif_solve_def2qzvp_omega_0.3_333.scratch20250908233128
 Auxillary files located at: /n/holylabs/LABS/joonholee_lab/Lab/qchem_base/qcaux
 Q-Chem begins on Mon Sep  8 23:31:29 2025

 -------------------------------------------------------------
 User input:
 -------------------------------------------------------------
 $lattice
 3
 0.000000 2.005000 2.005000
 2.005000 0.000000 2.005000
 2.005000 2.005000 0.000000
 $end
 
 $unitcell
 ABSOLUTE
 0 1
 Li 0.000000 0.000000 0.000000
 F  2.005000 0.000000 0.000000
 $end
 
 $rem
 jobtype = sp
 method = pbe
 scf_convergence = 5
 scf_guess = autosad
 scf_algorithm = gdm
 basis = def2-qzvp
 aux_basis = gen
 input_bohr = false
 symmetry false
 is_basis_uctr true
 rsdf_print_level 1
 
 mp_mesh = [3,3,3]
 
 integral_direct true
 bvk_cgto true
 
 thresh 14
 mem_total 100000
 threads 32
 
 MAX_SCF_CYCLES 400
 madelung = false
 omega 0.3
 do_rij_bigmem true
 automate_g true
 print_level 10
 grid_type_xc 1
 
 thresh_1e2c_sp 1e-14
 thresh_2e3c_bra_ket_sep 1e-10
 thresh_g 1e-12
 $end
 
 $aux_basis
 Li     0
 S   7   1.00
     498.3689730              0.0207908
     162.9342738              0.0542177
      57.3246735              0.1776783
      21.6427314              0.4181150
       8.7345375              0.6535245
       3.7491039              0.5492618
       1.7006754              0.1701425
 S   1   1.00
       0.8090859             -0.0097548
 S   1   1.00
       0.4000933             -0.0050152
 S   1   1.00
       0.2035793              0.0232200
 !S   1   1.00
 !      0.1054201              0.0134535
 !S   1   1.00
 !      0.0549139              0.0006647
 P   2   1.00
      10.7024696              0.0072923
       3.6551543              0.0060940
 P   1   1.00
       1.2464013              0.0172529
 P   1   1.00
       0.4246282             -0.0160026
 P   1   1.00
       0.1446192             -0.0195111
 D   2   1.00
       1.1510647             -0.0014314
       0.6019112              0.0038969
 D   1   1.00
       0.3109573              0.0024683
 D   1   1.00
       0.1600032              0.0036451
 F   2   1.00
       0.5967918              0.0010494
       0.1790687              0.0006468
 G   1   1.00
       1.0460130             -0.0001971
 ****
 F     0
 S   7   1.00
    3514.9201549              0.1805835
    1231.2458815              0.3676084
     454.1367336              1.2707881
     175.8376258              2.8274164
      71.2081775              4.3588226
      30.0316883              2.7180994
      13.1259023             -0.0804726
 S   1   1.00
       5.9126861             -0.0023370
 S   1   1.00
       2.7284431              1.1236274
 S   1   1.00
       1.2813993              0.9999042
 S   1   1.00
       0.6082793              0.3119579
 S   1   1.00
       0.2897894              0.0312295
 P   2   1.00
      49.3740409             -0.0346332
      13.4874956             -0.0096069
 P   1   1.00
       3.9664900              0.0762067
 P   1   1.00
       1.2226629             -0.0103329
 P   1   1.00
       0.3830317              0.0018853
 D   2   1.00
      29.9719140             -0.0113316
       6.7860915             -0.0467639
 D   1   1.00
       1.8137313             -0.0167604
 D   1   1.00
       0.5157840             -0.0050777
 F   2   1.00
       2.8301877              1.0
       0.9155962              1.0
 G   1   1.00
       1.6097500             -0.0005411
 ****
 $end
 -------------------------------------------------------------
 Running PBC job

 Requested Exchange Correlation Functionals: 
  DFT Exchange:  1.00000 pbe_x
  DFT Correlation:  1.00000 pbe_c
 using 32 threads for computing.
 ---------------------------------------------------------------
      Coordinates of Atoms in Central Unit Cell (Angstroms)
    I     Atom         X            Y            Z
 ---------------------------------------------------------------
    1      Li      0.000000     0.000000     0.000000
    2       F      2.005000     0.000000     0.000000
 ---------------------------------------------------------------
 --------------------------------------------------
              Lattice Vectors (Angstroms)
              X            Y            Z
 --------------------------------------------------
   X       0.000000     2.005000     2.005000
   Y       2.005000     0.000000     2.005000
   Z       2.005000     2.005000     0.000000
 --------------------------------------------------
 --------------------------------------------------
       Reciprocal Lattice Vectors (Angstroms^-1)
              X            Y            Z
 --------------------------------------------------
   X      -1.566879     1.566879     1.566879
   Y       1.566879    -1.566879     1.566879
   Z       1.566879     1.566879    -1.566879
 --------------------------------------------------

 Single point calculation requested

 Hamiltonian contributions:
 List of terms in Hamiltonian: kpts_nn, kpts_kinetic, kpts_vnuc_df, kpts_xc, kpts_rij_bigmem

 K-Points calculation started.

 Basis set information about using solid harmonic (1) or Cartesian (0):
  li : D(1) D(1) F(1) 
  f : D(1) D(1) D(1) F(1) F(1) G(1) 

 Basis set information about using solid harmonic (1) or Cartesian (0):
  li : D(1) D(1) D(1) F(1) G(1) 
  f : D(1) D(1) D(1) F(1) G(1) 

 There are 92 basis functions in the central unit cell.
 Print atomic basis of atoms in the central unit cell:
 -------------------------------------------------------------
2 53 53 30

  0.00000000000000e+00  0.00000000000000e+00  0.00000000000000e+00
  3.78890087987467e+00  0.00000000000000e+00  0.00000000000000e+00

  1.48539770850000e+04
  2.22522364770000e+03
  5.04887390080000e+02
  1.42458475480000e+02
  4.63155995800000e+01
  1.66553354740000e+01
  6.43311861990000e+00
  2.60270438580000e+00
  1.08972454050000e+00
  4.42365959710000e+00
  1.23563949900000e+00
  4.60674706020000e-01
  9.66171669550000e-02
  4.59154522960000e-02
  2.11400487300000e-02
  3.26051092060000e+00
  6.50030431150000e-01
  1.69416710730000e-01
  3.32700000000000e+00
  5.57323437670000e-02
  2.04899592410000e-02
  2.30000000000000e-01
  7.57000000000000e-02
  1.35000000000000e-01
  1.32535973450000e+05
  1.97581125880000e+04
  4.48519969470000e+03
  1.27381510200000e+03
  4.18938312360000e+02
  1.52557219850000e+02
  5.98215248230000e+01
  2.48190769320000e+01
  1.00744466730000e+02
  3.01037282900000e+01
  1.08142832720000e+01
  4.81728867700000e+00
  1.65593342130000e+00
  6.48935195820000e-01
  2.47781045450000e-01
  2.40966541140000e+02
  5.70206997810000e+01
  1.81269521200000e+01
  6.64574046210000e+00
  2.63757228920000e+00
  1.06382172000000e+00
  4.19325627500000e-01
  1.57475882990000e-01
  5.01400000000000e+00
  1.72500000000000e+00
  5.86000000000000e-01
  3.56200000000000e+00
  1.14800000000000e+00
  2.37600000000000e+00

  4.67593013229757e-02
  8.76137465723478e-02
  1.51821576860780e-01
  2.46527731442678e-01
  3.74140539449148e-01
  5.14323804423000e-01
  6.00677517411378e-01
  5.44460466941871e-01
  3.21097242154446e-01
  2.72734215356930e-01
  7.53702662810338e-01
  3.98525272814913e-01
  1.23509628755786e-01
  7.06934606713439e-02
  3.95129614058778e-02
  2.22230636644090e-01
  1.62952044217479e-01
  1.33842808684561e-01
  6.40480761295544e+00
  3.85988372286674e-02
  1.10501063034648e-02
  1.25728336426159e-01
  1.79815549832937e-02
  1.62631785032468e-02
  3.86107783813291e-01
  7.24648975903829e-01
  1.25045495963763e+00
  2.01518764389143e+00
  3.04056815166578e+00
  4.21268576129244e+00
  5.00944268647146e+00
  4.54693835849554e+00
  2.32503271092484e+00
  8.41440806306271e+00
  4.25019052011886e+00
  2.31745919743391e+00
  1.04038060130896e+00
  5.15301123337211e-01
  2.50300174847139e-01
  3.49166780573024e+00
  4.61886090108967e+00
  5.17964869303152e+00
  4.78626212475628e+00
  3.24578400123904e+00
  1.54001926672016e+00
  4.80982576947690e-01
  1.41402684040663e-01
  2.76523492268872e+01
  4.27356565232165e+00
  6.45996677345861e-01
  2.56605380682814e+01
  2.00827738540458e+00
  1.20230076986570e+01

0 0 0 0 1 1 1
0 0 
9 0

0 1 1 9 1 1 1
9 0 
2 0

0 2 2 11 1 1 1
11 0 
1 0

0 3 3 12 1 1 1
12 0 
1 0

0 4 4 13 1 1 1
13 0 
1 0

0 5 5 14 1 1 1
14 0 
1 0

0 6 6 15 1 3 3
15 1 
3 0

0 9 9 18 1 3 3
18 1 
1 0

0 12 12 19 1 3 3
19 1 
1 0

0 15 15 20 1 3 3
20 1 
1 0

0 18 18 21 1 5 6
21 2 
1 1

0 23 23 22 1 5 6
22 2 
1 1

0 28 28 23 1 7 10
23 3 
1 1

1 35 35 24 1 1 1
24 0 
8 0

1 36 36 32 1 1 1
32 0 
2 0

1 37 37 34 1 1 1
34 0 
1 0

1 38 38 35 1 1 1
35 0 
1 0

1 39 39 36 1 1 1
36 0 
1 0

1 40 40 37 1 1 1
37 0 
1 0

1 41 41 38 1 1 1
38 0 
1 0

1 42 42 39 1 3 3
39 1 
5 0

1 45 45 44 1 3 3
44 1 
1 0

1 48 48 45 1 3 3
45 1 
1 0

1 51 51 46 1 3 3
46 1 
1 0

1 54 54 47 1 5 6
47 2 
1 1

1 59 59 48 1 5 6
48 2 
1 1

1 64 64 49 1 5 6
49 2 
1 1

1 69 69 50 1 7 10
50 3 
1 1

1 76 76 51 1 7 10
51 3 
1 1

1 83 83 52 1 9 15
52 4 
1 1

 -------------------------------------------------------------
 Allocate 136872 B from available memory: 104857600000 B
 There are 15625 image cells after screening.
 There are 17628 image cells for CGTO evaluation after screening.
 Real-Space grid for FFT initialized based on kinetic energy cutoff (eV) = 500.0
 Real-Space grid for FFT: (8,8,8)
 There are 4913 real-space grid points.
 There are 27 batches of real-space grid points. 
 Size of each grid batch is around 128
 Grid for AFT initialized based on kinetic energy cutoff (eV) = 500.0
 Real-Space grid for AFT: (8,8,8)
 There are 4913 real-space grid points.

 There are 5912 atom-centered grid points.

 Spacegroup symmetry group: Fm-3m
 Reducing spacegroup symmetry to symmorphic group: F m -3 m
 Monkhorst-Pack mesh is [3,3,3]
 There are 27 k points.
kpoints in Bohr
-0.2763855758 -0.2763855758 -0.2763855758
-0.0000000000 0.0000000000 -0.5527711515
0.2763855758 0.2763855758 -0.8291567273
-0.0000000000 -0.5527711515 -0.0000000000
0.2763855758 -0.2763855758 -0.2763855758
0.5527711515 0.0000000000 -0.5527711515
0.2763855758 -0.8291567273 0.2763855758
0.5527711515 -0.5527711515 -0.0000000000
0.8291567273 -0.2763855758 -0.2763855758
-0.5527711515 0.0000000000 0.0000000000
-0.2763855758 0.2763855758 -0.2763855758
-0.0000000000 0.5527711515 -0.5527711515
-0.2763855758 -0.2763855758 0.2763855758
0.0000000000 0.0000000000 0.0000000000
0.2763855758 0.2763855758 -0.2763855758
0.0000000000 -0.5527711515 0.5527711515
0.2763855758 -0.2763855758 0.2763855758
0.5527711515 -0.0000000000 0.0000000000
-0.8291567273 0.2763855758 0.2763855758
-0.5527711515 0.5527711515 0.0000000000
-0.2763855758 0.8291567273 -0.2763855758
-0.5527711515 -0.0000000000 0.5527711515
-0.2763855758 0.2763855758 0.2763855758
0.0000000000 0.5527711515 0.0000000000
-0.2763855758 -0.2763855758 0.8291567273
0.0000000000 -0.0000000000 0.5527711515
0.2763855758 0.2763855758 0.2763855758
 There are 6 alpha and 6 beta electrons
 Start computing overlap matrix
 Allocate 3656448 B from available memory: 104857463136 B
 Time for computing overlap matrix: 29.6660000000 s
 ====== Initialize compute kernels for all-electron RI-J (kpts) ====== 
 ========================================================== 
 Range-separated parameter omega        = 0.299999999999999989
 Threshold for 1e2c shellpair           = 0.000000000000010000
 Threshold for 2e2c SR integral         = 0.000000000000000001
 Threshold for 2e3c SR integral         = 0.000000000100000000
 Threshold for AFT G-space screening is = 0.000000000001000000
 The exponent cutoff for C/D classification (omega2 / 2) is  = 0.044999999999999998
 ========================================================== 
 === Post process the basis set for RI calculation (exp_cutoff = 0.044999999999999998 ) === 
nshells_b1 before uncontraction = 30
nshells_b1 after uncontraction = 30
nshells_baux before uncontraction = 28
nshells_baux after uncontraction = 28
===============================================
nbsf total   = 92
nbsf compact = 88
nbsf diffuse = 4
naux total   = 96
naux compact = 96
naux diffuse = 0
nshells_bnuc = 2

 Number of unique atoms is 2
 Unique atom #0 (li) has 11 shells.
 Unique atom #1 (f) has 17 shells.

Shell 0 to 10 belongs to atom li
Shell 11 to 27 belongs to atom f

 Number of unique atoms is 2
 Unique atom #0 (li) has 2 shells.
 Unique atom #1 (f) has 0 shells.

Shell 0 to 1 belongs to atom li

 Number of unique atom is 2
 Unique atom #0 (li) has 13 auxiliary shells.
 Unique atom #1 (f) has 15 auxiliary shells.

Auxiliary Shell 0 to 12 belongs to atom li
Auxiliary Shell 13 to 27 belongs to atom f

================= Automatically determine grid size for reciprocal space summation =================
 Range-separated parameter = 0.30000000000000 and G-space screening threshold = 0.00000000000100
The number of grid points along each axis dimension is (3, 3, 3)
Total number of grid points = 343

Use nonortho shellpair for diffuse density
======== Initializing relevant kernel for RIJ (DD type) ========
There are 3 shellpairs in the reference unit cell
There are 26589 images and we expect to have 79767 in total
There are 13095 shellpairs in the lattice sum after screening
======== Initializing relevant kernel for RIJ (CD type) ========
There are 56 shellpairs in the reference unit cell
There are 16651 images and we expect to have 932456 in total
There are 118476 shellpairs in the lattice sum after screening
****** AFT -> SR ******
Maximum bra distance cutoff is 42.000000000000
Maximum bra ket distance cutoff is 36.979730101834
Maximum bra ket screening distance is 32.906250000000
Number of auxiliary image is 4797
There are 56 shellpairs in the reference unit cell
There are 4797 images and we expect to have 268632 in total
There are 118476 shellpairs in the lattice sum after screening
Available memory per thread for 2e3c calculation is 3.276681459000Gb
Finish initializing 2e3c SR with the lattice sum!
=================================================
======== Initializing relevant kernel for RIJ (CC type) ========
There are 403 shellpairs in the reference unit cell
There are 8175 images and we expect to have 3294525 in total
There are 69291 shellpairs in the lattice sum after screening
****** AFT -> SR ******
Maximum bra distance cutoff is 34.000000000000
Maximum bra ket distance cutoff is 40.772076789667
Maximum bra ket screening distance is 30.437500000000
Number of auxiliary image is 4389
There are 403 shellpairs in the reference unit cell
There are 2731 images and we expect to have 1100593 in total
There are 69291 shellpairs in the lattice sum after screening
Available memory per thread for 2e3c calculation is 3.276681459000Gb
Finish initializing 2e3c SR with the lattice sum!
=================================================
======== Initializing the SR component for Vnuc (CD type) ========
Maximum bra distance cutoff is 42.000000000000
Maximum bra ket distance cutoff is 30.634253998064
Maximum bra ket screening distance is 26.529449973802
Number of auxiliary image is 4797
There are 56 shellpairs in the reference unit cell
There are 4797 images and we expect to have 268632 in total
There are 118476 shellpairs in the lattice sum after screening
Available memory per thread for 2e3c calculation is 3.276681459000Gb
Finish initializing 2e3c SR with the lattice sum!
=================================================
======== Initialize the SR component for Vnuc (CC type) ========
Maximum bra distance cutoff is 34.000000000000
Maximum bra ket distance cutoff is 34.296485010202
Maximum bra ket screening distance is 23.902388373585
Number of auxiliary image is 2731
There are 403 shellpairs in the reference unit cell
There are 2731 images and we expect to have 1100593 in total
There are 69291 shellpairs in the lattice sum after screening
Available memory per thread for 2e3c calculation is 3.276681459000Gb
Finish initializing 2e3c SR with the lattice sum!
=================================================
 Aufbau occupation scheme, occupation determined by eigenvalue
 == 0-th k-point nmo = 83 (-0.27639,-0.27639,-0.27639) ==
 == 1-th k-point nmo = 81 (-0.00000,0.00000,-0.55277) ==
 == 2-th k-point nmo = 83 (0.27639,0.27639,-0.82916) ==
 == 3-th k-point nmo = 81 (-0.00000,-0.55277,-0.00000) ==
 == 4-th k-point nmo = 83 (0.27639,-0.27639,-0.27639) ==
 == 5-th k-point nmo = 83 (0.55277,0.00000,-0.55277) ==
 == 6-th k-point nmo = 83 (0.27639,-0.82916,0.27639) ==
 == 7-th k-point nmo = 83 (0.55277,-0.55277,-0.00000) ==
 == 8-th k-point nmo = 83 (0.82916,-0.27639,-0.27639) ==
 == 9-th k-point nmo = 81 (-0.55277,0.00000,0.00000) ==
 == 10-th k-point nmo = 83 (-0.27639,0.27639,-0.27639) ==
 == 11-th k-point nmo = 83 (-0.00000,0.55277,-0.55277) ==
 == 12-th k-point nmo = 83 (-0.27639,-0.27639,0.27639) ==
 == 13-th k-point nmo = 83 (0.00000,0.00000,0.00000) ==
 == 14-th k-point nmo = 83 (0.27639,0.27639,-0.27639) ==
 == 15-th k-point nmo = 83 (0.00000,-0.55277,0.55277) ==
 == 16-th k-point nmo = 83 (0.27639,-0.27639,0.27639) ==
 == 17-th k-point nmo = 81 (0.55277,-0.00000,0.00000) ==
 == 18-th k-point nmo = 83 (-0.82916,0.27639,0.27639) ==
 == 19-th k-point nmo = 83 (-0.55277,0.55277,0.00000) ==
 == 20-th k-point nmo = 83 (-0.27639,0.82916,-0.27639) ==
 == 21-th k-point nmo = 83 (-0.55277,-0.00000,0.55277) ==
 == 22-th k-point nmo = 83 (-0.27639,0.27639,0.27639) ==
 == 23-th k-point nmo = 81 (0.00000,0.55277,0.00000) ==
 == 24-th k-point nmo = 83 (-0.27639,-0.27639,0.82916) ==
 == 25-th k-point nmo = 81 (0.00000,-0.00000,0.55277) ==
 == 26-th k-point nmo = 83 (0.27639,0.27639,0.27639) ==

 Generate autoSAD guess
backing up fragment data
Atom # 0: li, charge: 0, multiplicity: 2.000000
Atom # 1: f, charge: 0, multiplicity: 2.000000
writing autosad to fragment context
Settings for isolated fragments: 
  frgm_gamma: TRUE
  frgm_center: FALSE

    Running SCF for isolated atom #0
    Fragment Input file: /n/netscratch/joonholee_lab/Lab/hieudinh//lif_solve_def2qzvp_omega_0.3_333.scratch20250908233128/autosad_frgmt_0/frgmt_input.in
    Fragment Output file: /n/netscratch/joonholee_lab/Lab/hieudinh//lif_solve_def2qzvp_omega_0.3_333.scratch20250908233128/autosad_frgmt_0/frgmt_job.out
    Fragment job begins at Mon Sep  8 23:32:09 2025

 Integrated density by DFT XC:
   Numerical integral  =     3.000000007147
   Relative error      =     0.0000002382 %
Final energy components:
 DFT Correlation            Energy =  -0.05090044545114
 DFT Exchange               Energy =  -1.75144597421909
 Kinetic (alpha)            Energy =   3.82935284817783
 Kinetic (beta)             Energy =   3.58515893685386
 Nuclear Attraction (alpha) Energy =  -9.10791001172891
 Nuclear Attraction (beta)  Energy =  -8.01914849492519
 Nuclear Repulsion          Energy =   0.00000000000000
 SEOQF                      Energy =  -0.00000000000000
 Total Coulomb              Energy =   4.05291331077687
----------------------------------------------
    SCF Energy: -7.4619798305
   Total fragment job time:  0.36 s.
    Running SCF for isolated atom #1
    Fragment Input file: /n/netscratch/joonholee_lab/Lab/hieudinh//lif_solve_def2qzvp_omega_0.3_333.scratch20250908233128/autosad_frgmt_1/frgmt_input.in
    Fragment Output file: /n/netscratch/joonholee_lab/Lab/hieudinh//lif_solve_def2qzvp_omega_0.3_333.scratch20250908233128/autosad_frgmt_1/frgmt_job.out
    Fragment job begins at Mon Sep  8 23:32:10 2025

 Integrated density by DFT XC:
   Numerical integral  =     9.000000098353
   Relative error      =     0.0000010928 %
Final energy components:
 DFT Correlation            Energy =  -0.28943664182310
 DFT Exchange               Energy =  -9.96991500891564
 Kinetic (alpha)            Energy =  51.55258412072411
 Kinetic (beta)             Energy =  47.84820569403635
 Nuclear Attraction (alpha) Energy = -125.30574122940652
 Nuclear Attraction (beta)  Energy = -113.20186276241712
 Nuclear Repulsion          Energy =   0.00000000000000
 SEOQF                      Energy =  -0.00000000020726
 Total Coulomb              Energy =  49.69105360806788
----------------------------------------------
    SCF Energy: -99.6751122199
   Total fragment job time:  0.43 s.
restoring fragment data

 ------------------------------------------------------------------------
 Allocate 18209280 B from available memory: 104853806688 B
 Time for generating SCF guess: 0.83 s

 Allocate 446984 B from available memory: 104835597408 B
 Selected algorithms for each term:
  kpts_kinetic -> @0x14fd25010680
  kpts_nn -> @0x14fd25010800
  kpts_rij_bigmem -> @0x14fd250103e0
  kpts_vnuc_df -> @0x14fd25010380
  kpts_xc -> @0x14fd250102c0
 Time for computing kinetic matrix is 28.21 s
Start calculating Vnuc DD type!
Start calculating Vnuc CD type!
Start calculating Vnuc CC type!
 Time for computing nuclear attraction matrix is 54.08 s
Compute (P|Q) and use solve on the fly!
Maximum distance between P and Q is 37.07317869796985
Number of images for (P|Qn) is 3451
 Time for computing 2e2c SR integral is 0.17 s
Maximum dynamic memory per thread for 2e3c SR integrals: 0.005 GiB
Batch size for basis function pair is 352 out of 352
 === bvk cell = 0 has 100.000 % of the basis function pairs === 
 === bvk cell = 1 has 100.000 % of the basis function pairs === 
 === bvk cell = 2 has 100.000 % of the basis function pairs === 
 === bvk cell = 3 has 100.000 % of the basis function pairs === 
 === bvk cell = 4 has 100.000 % of the basis function pairs === 
 === bvk cell = 5 has 100.000 % of the basis function pairs === 
 === bvk cell = 6 has 100.000 % of the basis function pairs === 
 === bvk cell = 7 has 100.000 % of the basis function pairs === 
 === bvk cell = 8 has 100.000 % of the basis function pairs === 
 === bvk cell = 9 has 100.000 % of the basis function pairs === 
 === bvk cell = 10 has 100.000 % of the basis function pairs === 
 === bvk cell = 11 has 100.000 % of the basis function pairs === 
 === bvk cell = 12 has 100.000 % of the basis function pairs === 
 === bvk cell = 13 has 100.000 % of the basis function pairs === 
 === bvk cell = 14 has 100.000 % of the basis function pairs === 
 === bvk cell = 15 has 100.000 % of the basis function pairs === 
 === bvk cell = 16 has 100.000 % of the basis function pairs === 
 === bvk cell = 17 has 100.000 % of the basis function pairs === 
 === bvk cell = 18 has 100.000 % of the basis function pairs === 
 === bvk cell = 19 has 100.000 % of the basis function pairs === 
 === bvk cell = 20 has 100.000 % of the basis function pairs === 
 === bvk cell = 21 has 100.000 % of the basis function pairs === 
 === bvk cell = 22 has 100.000 % of the basis function pairs === 
 === bvk cell = 23 has 100.000 % of the basis function pairs === 
 === bvk cell = 24 has 100.000 % of the basis function pairs === 
 === bvk cell = 25 has 100.000 % of the basis function pairs === 
 === bvk cell = 26 has 100.000 % of the basis function pairs === 
Static memory requirement for 2e3c SR integrals: 0.007 GB
There are 1 munu batches for computing 2e3c SR integrals with latsum
There are 2 Q batches for computing 2e3c SR integrals with latsum
 Time for computing 2e3c SR integral (CD) is 12.16 s
Maximum dynamic memory per thread for 2e3c SR integrals: 0.040 GiB
Batch size for basis function pair is 4077 out of 4077
 === bvk cell = 0 has 100.000 % of the basis function pairs === 
 === bvk cell = 1 has 89.821 % of the basis function pairs === 
 === bvk cell = 2 has 84.646 % of the basis function pairs === 
 === bvk cell = 3 has 89.821 % of the basis function pairs === 
 === bvk cell = 4 has 61.638 % of the basis function pairs === 
 === bvk cell = 5 has 85.872 % of the basis function pairs === 
 === bvk cell = 6 has 84.646 % of the basis function pairs === 
 === bvk cell = 7 has 85.872 % of the basis function pairs === 
 === bvk cell = 8 has 60.338 % of the basis function pairs === 
 === bvk cell = 9 has 85.872 % of the basis function pairs === 
 === bvk cell = 10 has 60.338 % of the basis function pairs === 
 === bvk cell = 11 has 84.646 % of the basis function pairs === 
 === bvk cell = 12 has 60.338 % of the basis function pairs === 
 === bvk cell = 13 has 61.638 % of the basis function pairs === 
 === bvk cell = 14 has 68.948 % of the basis function pairs === 
 === bvk cell = 15 has 84.646 % of the basis function pairs === 
 === bvk cell = 16 has 68.948 % of the basis function pairs === 
 === bvk cell = 17 has 67.280 % of the basis function pairs === 
 === bvk cell = 18 has 85.872 % of the basis function pairs === 
 === bvk cell = 19 has 89.821 % of the basis function pairs === 
 === bvk cell = 20 has 61.638 % of the basis function pairs === 
 === bvk cell = 21 has 89.821 % of the basis function pairs === 
 === bvk cell = 22 has 74.344 % of the basis function pairs === 
 === bvk cell = 23 has 68.948 % of the basis function pairs === 
 === bvk cell = 24 has 61.638 % of the basis function pairs === 
 === bvk cell = 25 has 68.948 % of the basis function pairs === 
 === bvk cell = 26 has 60.338 % of the basis function pairs === 
Static memory requirement for 2e3c SR integrals: 0.060 GB
There are 1 munu batches for computing 2e3c SR integrals with latsum
There are 2 Q batches for computing 2e3c SR integrals with latsum
 Time for computing 2e3c SR integral (CC) is 10.75 s
 Time for RI-J this SCF iteration is 24.53 s
 Time for RI-J this SCF iteration is 1.40 s
 ----------------------------------------------
 Guess energy: -107.4278990149
 ----------------------------------------------
 Guess energy components:
 DFT Correlation    Energy =  -0.39274745138405
 DFT Exchange       Energy = -12.13878140760213
 Kinetic            Energy = 108.47101022351131
 Nuclear Attraction Energy = -201.36810953184678
 Nuclear Repulsion  Energy = -31.10949437582012
 Total Coulomb      Energy =  29.11022352820146
 ----------------------------------------------
  Cycle       Energy        RMS Gradient
 ----------------------------------------------
 Time for RI-J this SCF iteration is 1.52 s
    1    -107.4508111638      1.50e-01   Descent step
 Energy components after cycle 1:
 DFT Correlation    Energy =  -0.39234797789538
 DFT Exchange       Energy = -12.01669256992361
 Kinetic            Energy = 107.53336842315895
 Nuclear Attraction Energy = -199.71964546068398
 Nuclear Repulsion  Energy = -31.10949437582012
 Total Coulomb      Energy =  28.25400079737035
 Time for RI-J this SCF iteration is 1.38 s
    2    -107.4538365009      4.85e-02   Normal BFGS step
 Energy components after cycle 2:
 DFT Correlation    Energy =  -0.39203771404147
 DFT Exchange       Energy = -11.96050780659773
 Kinetic            Energy = 107.14118850040082
 Nuclear Attraction Energy = -198.96999165566075
 Nuclear Repulsion  Energy = -31.10949437582012
 Total Coulomb      Energy =  27.83700655082622
 Time for RI-J this SCF iteration is 1.38 s
    3    -107.4538452308      1.94e-03   Normal BFGS step
 Energy components after cycle 3:
 DFT Correlation    Energy =  -0.39204511848607
 DFT Exchange       Energy = -11.96082564124456
 Kinetic            Energy = 107.12910127081997
 Nuclear Attraction Energy = -198.96379152670769
 Nuclear Repulsion  Energy = -31.10949437582012
 Total Coulomb      Energy =  27.84321016066265
 Time for RI-J this SCF iteration is 1.38 s
    4    -107.4538453618      2.12e-04   Normal BFGS step
 Energy components after cycle 4:
 DFT Correlation    Energy =  -0.39204090746819
 DFT Exchange       Energy = -11.96114224603924
 Kinetic            Energy = 107.13294955200500
 Nuclear Attraction Energy = -198.96844770102615
 Nuclear Repulsion  Energy = -31.10949437582012
 Total Coulomb      Energy =  27.84433031650707
 Time for RI-J this SCF iteration is 1.38 s
    5    -107.4538453634      2.21e-05   Normal BFGS step
 Energy components after cycle 5:
 DFT Correlation    Energy =  -0.39204069309433
 DFT Exchange       Energy = -11.96109955101486
 Kinetic            Energy = 107.13268187817880
 Nuclear Attraction Energy = -198.96804527528124
 Nuclear Repulsion  Energy = -31.10949437582012
 Total Coulomb      Energy =  27.84415265363355
 Time for RI-J this SCF iteration is 1.38 s
    6    -107.4538453634      1.65e-06   Normal BFGS step
 Energy components after cycle 6:
 DFT Correlation    Energy =  -0.39204072701130
 DFT Exchange       Energy = -11.96110089741068
 Kinetic            Energy = 107.13266698208861
 Nuclear Attraction Energy = -198.96803376746865
 Nuclear Repulsion  Energy = -31.10949437582012
 Total Coulomb      Energy =  27.84415742221002
    6    -107.4538453634      1.65e-06  Convergence criterion met
 ----------------------------------------------
 Final energy components:
 DFT Correlation    Energy =  -0.39204072701130
 DFT Exchange       Energy = -11.96110089741068
 Kinetic            Energy = 107.13266698208861
 Nuclear Attraction Energy = -198.96803376746865
 Nuclear Repulsion  Energy = -31.10949437582012
 Total Coulomb      Energy =  27.84415742221002
 ----------------------------------------------
 Final energy is -107.4538453634

 SCF time:   CPU 4216.25s  wall 187.00s 
 Total wall time for computing Kinetic: 0.00 s (8)
 Total wall time for computing RIJ-BIGMEM: 34.36 s (8)
 Total wall time for computing RSDF Vnuc: 0.01 s (8)
 Total wall time for computing DFT XC: 28.06 s (8)
 ---------------------------------------------------------------------------
                        Orbital Energies (a.u.)
 ---------------------------------------------------------------------------
 == 0-th k-point (-0.27639,-0.27639,-0.27639) occupation: 6==
 -23.85732 -1.46361 -0.68333 -0.03640 0.03060 0.03060 0.43248 0.66836 0.76340 0.76340
 1.08467 1.11178 1.11178 1.39203 1.39203 1.39216 1.63764 1.75063 1.75063 1.82879
 1.98816 1.98816 2.38249 2.47491 2.56835 2.56835 2.76360 2.78491 2.78491 2.81185
 2.81185 2.87436 2.97753 3.14335 3.14335 3.76249 3.96328 3.96328 4.27987 4.73590
 4.73590 4.76469 4.79706 5.20847 5.20847 5.45656 6.25506 6.25506 6.29185 6.30294
 6.30294 6.55011 7.43631 7.43631 7.47645 8.52990 8.57045 8.57045 11.60831 11.60831
 11.62714 11.63628 11.63628 11.67018 11.68534 11.70410 11.70410 13.01457 14.91415 14.92371
 14.95474 14.95474 15.16113 15.16113 15.36316 16.69688 16.69688 16.71082 16.71082 16.77895
 17.23216 55.79370 286.55720
 == 1-th k-point (-0.00000,0.00000,-0.55277) occupation: 6==
 -23.85732 -1.46313 -0.67677 -0.04539 0.00871 0.00871 0.51267 0.68134 0.72746 0.78954
 0.78954 1.30796 1.34435 1.41134 1.41134 1.59451 1.60556 1.62202 1.62202 1.84539
 2.04231 2.04231 2.05634 2.48592 2.58857 2.58857 2.59836 2.62860 2.80013 2.85101
 2.85101 2.88486 3.13446 3.54968 3.86871 3.86871 4.12992 4.64704 4.64704 4.90893
 5.03159 5.05538 5.05538 5.06658 5.96387 6.16871 6.16871 6.18247 6.37660 6.38992
 7.70023 7.73842 7.73842 7.98920 8.43035 8.43035 11.59707 11.61810 11.61810 11.62760
 11.63620 11.64237 11.64237 11.66735 11.71614 12.70758 14.88378 14.88378 14.97441 15.06828
 15.07104 15.07104 15.10501 16.62454 16.62516 16.62516 16.76554 16.77395 16.94105 55.51593
 286.20055
 == 2-th k-point (0.27639,0.27639,-0.82916) occupation: 6==
 -23.85732 -1.46257 -0.67217 -0.04353 -0.02991 0.01581 0.54022 0.59321 0.73632 0.75572
 0.97494 1.22990 1.23944 1.35344 1.42788 1.62864 1.68783 1.86697 1.89849 1.96069
 2.01882 2.03046 2.17322 2.27629 2.34347 2.42371 2.46107 2.50164 2.64600 2.68291
 2.79975 2.88831 2.93054 3.20325 3.64253 3.67532 3.72088 3.78858 3.94795 4.72730
 4.74150 5.14173 5.36924 5.45439 5.54250 5.54660 5.63109 5.81252 6.09216 6.25218
 6.82053 7.23140 7.61149 7.71146 7.75400 8.38123 8.44943 8.51146 11.59899 11.63484
 11.63571 11.63907 11.64957 11.65246 11.65347 11.70006 11.70171 12.56162 14.89044 14.93614
 15.12075 15.26582 15.30777 15.32438 15.38129 16.24658 16.31060 16.63698 16.69349 17.18682
 17.84654 56.14650 286.99262
 == 3-th k-point (-0.00000,-0.55277,-0.00000) occupation: 6==
 -23.85732 -1.46313 -0.67677 -0.04539 0.00871 0.00871 0.51267 0.68134 0.72746 0.78954
 0.78954 1.30796 1.34435 1.41134 1.41134 1.59451 1.60556 1.62202 1.62202 1.84539
 2.04231 2.04231 2.05634 2.48592 2.58857 2.58857 2.59836 2.62861 2.80013 2.85101
 2.85101 2.88486 3.13446 3.54968 3.86871 3.86871 4.12992 4.64704 4.64704 4.90893
 5.03159 5.05538 5.05538 5.06658 5.96387 6.16871 6.16871 6.18247 6.37660 6.38992
 7.70023 7.73842 7.73842 7.98920 8.43035 8.43035 11.59707 11.61810 11.61810 11.62760
 11.63620 11.64237 11.64237 11.66735 11.71614 12.70758 14.88378 14.88378 14.97441 15.06828
 15.07104 15.07104 15.10501 16.62454 16.62516 16.62516 16.76554 16.77395 16.94105 55.51593
 286.20055
 == 4-th k-point (0.27639,-0.27639,-0.27639) occupation: 6==
 -23.85732 -1.46361 -0.68333 -0.03640 0.03060 0.03060 0.43248 0.66836 0.76340 0.76340
 1.08467 1.11178 1.11178 1.39203 1.39203 1.39216 1.63764 1.75063 1.75063 1.82879
 1.98816 1.98816 2.38249 2.47491 2.56835 2.56835 2.76360 2.78491 2.78491 2.81185
 2.81185 2.87436 2.97753 3.14335 3.14335 3.76249 3.96328 3.96328 4.27987 4.73590
 4.73590 4.76469 4.79706 5.20847 5.20847 5.45656 6.25506 6.25506 6.29185 6.30294
 6.30294 6.55011 7.43631 7.43631 7.47645 8.52990 8.57045 8.57045 11.60831 11.60831
 11.62714 11.63628 11.63628 11.67018 11.68534 11.70410 11.70410 13.01457 14.91415 14.92371
 14.95474 14.95474 15.16113 15.16113 15.36316 16.69688 16.69688 16.71082 16.71082 16.77895
 17.23216 55.79370 286.55720
 == 5-th k-point (0.55277,0.00000,-0.55277) occupation: 6==
 -23.85732 -1.46257 -0.67217 -0.04353 -0.02991 0.01581 0.54022 0.59321 0.73632 0.75572
 0.97494 1.22990 1.23944 1.35344 1.42788 1.62864 1.68783 1.86697 1.89849 1.96069
 2.01882 2.03046 2.17322 2.27629 2.34347 2.42371 2.46107 2.50164 2.64600 2.68291
 2.79975 2.88830 2.93054 3.20325 3.64253 3.67532 3.72088 3.78858 3.94795 4.72730
 4.74150 5.14173 5.36924 5.45439 5.54250 5.54660 5.63109 5.81252 6.09216 6.25218
 6.82053 7.23141 7.61149 7.71146 7.75400 8.38123 8.44943 8.51146 11.59899 11.63484
 11.63571 11.63907 11.64957 11.65246 11.65347 11.70006 11.70171 12.56162 14.89044 14.93614
 15.12075 15.26582 15.30777 15.32438 15.38129 16.24658 16.31060 16.63698 16.69349 17.18682
 17.84655 56.14650 286.99262
 == 6-th k-point (0.27639,-0.82916,0.27639) occupation: 6==
 -23.85732 -1.46257 -0.67217 -0.04353 -0.02991 0.01581 0.54022 0.59321 0.73632 0.75572
 0.97494 1.22990 1.23944 1.35344 1.42788 1.62864 1.68783 1.86697 1.89849 1.96069
 2.01882 2.03046 2.17322 2.27629 2.34347 2.42371 2.46107 2.50164 2.64600 2.68291
 2.79975 2.88831 2.93054 3.20325 3.64253 3.67532 3.72088 3.78858 3.94795 4.72730
 4.74150 5.14173 5.36924 5.45439 5.54250 5.54660 5.63109 5.81252 6.09216 6.25218
 6.82053 7.23140 7.61148 7.71146 7.75400 8.38123 8.44943 8.51146 11.59899 11.63484
 11.63571 11.63907 11.64957 11.65246 11.65347 11.70006 11.70171 12.56162 14.89044 14.93614
 15.12075 15.26582 15.30777 15.32438 15.38129 16.24658 16.31060 16.63698 16.69349 17.18682
 17.84654 56.14650 286.99262
 == 7-th k-point (0.55277,-0.55277,-0.00000) occupation: 6==
 -23.85732 -1.46257 -0.67217 -0.04353 -0.02991 0.01581 0.54022 0.59321 0.73632 0.75572
 0.97494 1.22990 1.23944 1.35344 1.42788 1.62864 1.68783 1.86697 1.89849 1.96069
 2.01882 2.03046 2.17322 2.27629 2.34347 2.42371 2.46107 2.50164 2.64600 2.68291
 2.79975 2.88830 2.93054 3.20325 3.64253 3.67532 3.72088 3.78858 3.94795 4.72730
 4.74150 5.14173 5.36924 5.45439 5.54250 5.54660 5.63109 5.81252 6.09216 6.25218
 6.82053 7.23141 7.61149 7.71146 7.75400 8.38123 8.44943 8.51146 11.59899 11.63484
 11.63571 11.63907 11.64957 11.65246 11.65347 11.70006 11.70171 12.56162 14.89044 14.93614
 15.12075 15.26582 15.30777 15.32438 15.38129 16.24658 16.31060 16.63698 16.69349 17.18682
 17.84655 56.14650 286.99262
 == 8-th k-point (0.82916,-0.27639,-0.27639) occupation: 6==
 -23.85732 -1.46257 -0.67217 -0.04353 -0.02991 0.01581 0.54022 0.59321 0.73632 0.75572
 0.97494 1.22990 1.23944 1.35344 1.42788 1.62864 1.68783 1.86697 1.89849 1.96069
 2.01882 2.03046 2.17322 2.27629 2.34347 2.42371 2.46107 2.50164 2.64600 2.68291
 2.79975 2.88831 2.93054 3.20325 3.64253 3.67532 3.72088 3.78858 3.94795 4.72730
 4.74150 5.14173 5.36924 5.45439 5.54250 5.54660 5.63109 5.81252 6.09216 6.25218
 6.82053 7.23140 7.61148 7.71146 7.75400 8.38123 8.44943 8.51146 11.59899 11.63484
 11.63571 11.63907 11.64957 11.65246 11.65347 11.70006 11.70171 12.56162 14.89044 14.93614
 15.12075 15.26582 15.30777 15.32438 15.38129 16.24658 16.31060 16.63698 16.69349 17.18682
 17.84654 56.14650 286.99262
 == 9-th k-point (-0.55277,0.00000,0.00000) occupation: 6==
 -23.85732 -1.46313 -0.67677 -0.04539 0.00871 0.00871 0.51267 0.68134 0.72746 0.78954
 0.78954 1.30796 1.34435 1.41134 1.41134 1.59451 1.60556 1.62202 1.62202 1.84539
 2.04231 2.04231 2.05634 2.48592 2.58857 2.58857 2.59836 2.62861 2.80013 2.85101
 2.85101 2.88486 3.13446 3.54968 3.86871 3.86871 4.12992 4.64704 4.64704 4.90893
 5.03159 5.05538 5.05538 5.06658 5.96387 6.16871 6.16871 6.18247 6.37660 6.38992
 7.70023 7.73842 7.73842 7.98920 8.43035 8.43035 11.59707 11.61810 11.61810 11.62760
 11.63620 11.64237 11.64237 11.66735 11.71614 12.70758 14.88378 14.88378 14.97441 15.06828
 15.07104 15.07104 15.10501 16.62454 16.62516 16.62516 16.76554 16.77395 16.94105 55.51593
 286.20055
 == 10-th k-point (-0.27639,0.27639,-0.27639) occupation: 6==
 -23.85732 -1.46361 -0.68333 -0.03640 0.03060 0.03060 0.43248 0.66836 0.76340 0.76340
 1.08467 1.11178 1.11178 1.39203 1.39203 1.39216 1.63764 1.75063 1.75063 1.82879
 1.98816 1.98816 2.38249 2.47491 2.56835 2.56835 2.76360 2.78491 2.78491 2.81185
 2.81185 2.87436 2.97753 3.14335 3.14335 3.76249 3.96328 3.96328 4.27987 4.73590
 4.73590 4.76469 4.79706 5.20847 5.20847 5.45656 6.25506 6.25506 6.29185 6.30294
 6.30294 6.55011 7.43631 7.43631 7.47645 8.52990 8.57045 8.57045 11.60831 11.60831
 11.62714 11.63628 11.63628 11.67018 11.68534 11.70410 11.70410 13.01457 14.91415 14.92371
 14.95474 14.95474 15.16113 15.16113 15.36316 16.69688 16.69688 16.71082 16.71082 16.77895
 17.23216 55.79370 286.55720
 == 11-th k-point (-0.00000,0.55277,-0.55277) occupation: 6==
 -23.85732 -1.46257 -0.67217 -0.04353 -0.02991 0.01581 0.54022 0.59321 0.73632 0.75572
 0.97494 1.22990 1.23944 1.35344 1.42788 1.62864 1.68783 1.86697 1.89849 1.96069
 2.01882 2.03046 2.17322 2.27629 2.34347 2.42371 2.46107 2.50164 2.64600 2.68291
 2.79975 2.88830 2.93054 3.20325 3.64253 3.67532 3.72088 3.78858 3.94795 4.72730
 4.74150 5.14173 5.36924 5.45439 5.54250 5.54660 5.63109 5.81252 6.09216 6.25218
 6.82053 7.23141 7.61149 7.71146 7.75400 8.38123 8.44943 8.51146 11.59899 11.63484
 11.63571 11.63907 11.64957 11.65246 11.65347 11.70006 11.70171 12.56162 14.89044 14.93614
 15.12075 15.26582 15.30777 15.32438 15.38129 16.24658 16.31060 16.63698 16.69349 17.18682
 17.84655 56.14650 286.99262
 == 12-th k-point (-0.27639,-0.27639,0.27639) occupation: 6==
 -23.85732 -1.46361 -0.68333 -0.03640 0.03060 0.03060 0.43248 0.66836 0.76340 0.76340
 1.08467 1.11178 1.11178 1.39203 1.39203 1.39216 1.63764 1.75063 1.75063 1.82879
 1.98816 1.98816 2.38249 2.47491 2.56835 2.56835 2.76360 2.78491 2.78491 2.81185
 2.81185 2.87436 2.97753 3.14335 3.14335 3.76249 3.96328 3.96328 4.27987 4.73590
 4.73590 4.76469 4.79706 5.20847 5.20847 5.45656 6.25506 6.25506 6.29185 6.30294
 6.30294 6.55011 7.43631 7.43631 7.47645 8.52990 8.57045 8.57045 11.60831 11.60831
 11.62714 11.63628 11.63628 11.67018 11.68534 11.70410 11.70410 13.01457 14.91415 14.92371
 14.95474 14.95474 15.16113 15.16113 15.36316 16.69688 16.69688 16.71082 16.71082 16.77895
 17.23216 55.79370 286.55720
 == 13-th k-point (0.00000,0.00000,0.00000) occupation: 6==
 -23.85732 -1.46531 -0.69538 0.03710 0.03710 0.03710 0.37427 0.92454 0.92454 0.92454
 0.93668 0.93668 0.93668 1.04482 1.20278 1.20278 1.70583 1.70583 1.70583 1.83654
 2.44686 2.44686 2.44686 2.55393 2.60556 2.60556 2.60556 2.63473 2.63473 2.63473
 2.93508 2.93508 3.44580 3.44580 3.44580 4.12784 4.12784 4.12784 4.45178 4.73650
 4.90528 4.90528 4.90528 5.31266 5.31266 5.31266 6.35886 6.35886 6.61081 6.61081
 6.61081 6.63968 7.77732 7.77732 7.77732 9.01205 9.01205 9.01205 11.59707 11.59707
 11.59707 11.60688 11.60688 11.63895 11.63895 11.63895 11.69048 13.99426 14.91079 14.99811
 14.99811 14.99811 15.18486 15.18486 15.18486 16.76781 16.76781 16.92629 16.92629 16.92629
 17.43149 55.82545 286.56450
 == 14-th k-point (0.27639,0.27639,-0.27639) occupation: 6==
 -23.85732 -1.46361 -0.68333 -0.03640 0.03060 0.03060 0.43248 0.66836 0.76340 0.76340
 1.08467 1.11178 1.11178 1.39203 1.39203 1.39216 1.63764 1.75063 1.75063 1.82879
 1.98816 1.98816 2.38249 2.47491 2.56835 2.56835 2.76360 2.78491 2.78491 2.81185
 2.81185 2.87436 2.97753 3.14335 3.14335 3.76249 3.96328 3.96328 4.27987 4.73590
 4.73590 4.76469 4.79706 5.20847 5.20847 5.45656 6.25506 6.25506 6.29185 6.30294
 6.30294 6.55011 7.43631 7.43631 7.47645 8.52990 8.57045 8.57045 11.60831 11.60831
 11.62714 11.63628 11.63628 11.67018 11.68534 11.70410 11.70410 13.01457 14.91415 14.92371
 14.95474 14.95474 15.16113 15.16113 15.36316 16.69688 16.69688 16.71082 16.71082 16.77895
 17.23216 55.79370 286.55720
 == 15-th k-point (0.00000,-0.55277,0.55277) occupation: 6==
 -23.85732 -1.46257 -0.67217 -0.04353 -0.02991 0.01581 0.54022 0.59321 0.73632 0.75572
 0.97494 1.22990 1.23944 1.35344 1.42788 1.62864 1.68783 1.86697 1.89849 1.96069
 2.01882 2.03046 2.17322 2.27629 2.34347 2.42371 2.46107 2.50164 2.64600 2.68291
 2.79975 2.88830 2.93054 3.20325 3.64253 3.67532 3.72088 3.78858 3.94795 4.72730
 4.74150 5.14173 5.36924 5.45439 5.54250 5.54660 5.63109 5.81252 6.09216 6.25218
 6.82053 7.23141 7.61149 7.71146 7.75400 8.38123 8.44943 8.51146 11.59899 11.63484
 11.63571 11.63907 11.64957 11.65246 11.65347 11.70006 11.70171 12.56162 14.89044 14.93614
 15.12075 15.26582 15.30777 15.32438 15.38129 16.24658 16.31060 16.63698 16.69349 17.18682
 17.84655 56.14650 286.99262
 == 16-th k-point (0.27639,-0.27639,0.27639) occupation: 6==
 -23.85732 -1.46361 -0.68333 -0.03640 0.03060 0.03060 0.43248 0.66836 0.76340 0.76340
 1.08467 1.11178 1.11178 1.39203 1.39203 1.39216 1.63764 1.75063 1.75063 1.82879
 1.98816 1.98816 2.38249 2.47491 2.56835 2.56835 2.76360 2.78491 2.78491 2.81185
 2.81185 2.87436 2.97753 3.14335 3.14335 3.76249 3.96328 3.96328 4.27987 4.73590
 4.73590 4.76469 4.79706 5.20847 5.20847 5.45656 6.25506 6.25506 6.29185 6.30294
 6.30294 6.55011 7.43631 7.43631 7.47645 8.52990 8.57045 8.57045 11.60831 11.60831
 11.62714 11.63628 11.63628 11.67018 11.68534 11.70410 11.70410 13.01457 14.91415 14.92371
 14.95474 14.95474 15.16113 15.16113 15.36316 16.69688 16.69688 16.71082 16.71082 16.77895
 17.23216 55.79370 286.55720
 == 17-th k-point (0.55277,-0.00000,0.00000) occupation: 6==
 -23.85732 -1.46313 -0.67677 -0.04539 0.00871 0.00871 0.51267 0.68134 0.72746 0.78954
 0.78954 1.30796 1.34435 1.41134 1.41134 1.59451 1.60556 1.62202 1.62202 1.84539
 2.04231 2.04231 2.05634 2.48592 2.58857 2.58857 2.59836 2.62861 2.80013 2.85101
 2.85101 2.88486 3.13446 3.54968 3.86871 3.86871 4.12992 4.64704 4.64704 4.90893
 5.03159 5.05538 5.05538 5.06658 5.96387 6.16871 6.16871 6.18247 6.37660 6.38992
 7.70023 7.73842 7.73842 7.98920 8.43035 8.43035 11.59707 11.61810 11.61810 11.62760
 11.63620 11.64237 11.64237 11.66735 11.71614 12.70758 14.88378 14.88378 14.97441 15.06828
 15.07104 15.07104 15.10501 16.62454 16.62516 16.62516 16.76554 16.77395 16.94105 55.51593
 286.20055
 == 18-th k-point (-0.82916,0.27639,0.27639) occupation: 6==
 -23.85732 -1.46257 -0.67217 -0.04353 -0.02991 0.01581 0.54022 0.59321 0.73632 0.75572
 0.97494 1.22990 1.23944 1.35344 1.42788 1.62864 1.68783 1.86697 1.89849 1.96069
 2.01882 2.03046 2.17322 2.27629 2.34347 2.42371 2.46107 2.50164 2.64600 2.68291
 2.79975 2.88831 2.93054 3.20325 3.64253 3.67532 3.72088 3.78858 3.94795 4.72730
 4.74150 5.14173 5.36924 5.45439 5.54250 5.54660 5.63109 5.81252 6.09216 6.25218
 6.82053 7.23140 7.61148 7.71146 7.75400 8.38123 8.44943 8.51146 11.59899 11.63484
 11.63571 11.63907 11.64957 11.65246 11.65347 11.70006 11.70171 12.56162 14.89044 14.93614
 15.12075 15.26582 15.30777 15.32438 15.38129 16.24658 16.31060 16.63698 16.69349 17.18682
 17.84654 56.14650 286.99262
 == 19-th k-point (-0.55277,0.55277,0.00000) occupation: 6==
 -23.85732 -1.46257 -0.67217 -0.04353 -0.02991 0.01581 0.54022 0.59321 0.73632 0.75572
 0.97494 1.22990 1.23944 1.35344 1.42788 1.62864 1.68783 1.86697 1.89849 1.96069
 2.01882 2.03046 2.17322 2.27629 2.34347 2.42371 2.46107 2.50164 2.64600 2.68291
 2.79975 2.88830 2.93054 3.20325 3.64253 3.67532 3.72088 3.78858 3.94795 4.72730
 4.74150 5.14173 5.36924 5.45439 5.54250 5.54660 5.63109 5.81252 6.09216 6.25218
 6.82053 7.23141 7.61149 7.71146 7.75400 8.38123 8.44943 8.51146 11.59899 11.63484
 11.63571 11.63907 11.64957 11.65246 11.65347 11.70006 11.70171 12.56162 14.89044 14.93614
 15.12075 15.26582 15.30777 15.32438 15.38129 16.24658 16.31060 16.63698 16.69349 17.18682
 17.84655 56.14650 286.99262
 == 20-th k-point (-0.27639,0.82916,-0.27639) occupation: 6==
 -23.85732 -1.46257 -0.67217 -0.04353 -0.02991 0.01581 0.54022 0.59321 0.73632 0.75572
 0.97494 1.22990 1.23944 1.35344 1.42788 1.62864 1.68783 1.86697 1.89849 1.96069
 2.01882 2.03046 2.17322 2.27629 2.34347 2.42371 2.46107 2.50164 2.64600 2.68291
 2.79975 2.88831 2.93054 3.20325 3.64253 3.67532 3.72088 3.78858 3.94795 4.72730
 4.74150 5.14173 5.36924 5.45439 5.54250 5.54660 5.63109 5.81252 6.09216 6.25218
 6.82053 7.23140 7.61148 7.71146 7.75400 8.38123 8.44943 8.51146 11.59899 11.63484
 11.63571 11.63907 11.64957 11.65246 11.65347 11.70006 11.70171 12.56162 14.89044 14.93614
 15.12075 15.26582 15.30777 15.32438 15.38129 16.24658 16.31060 16.63698 16.69349 17.18682
 17.84654 56.14650 286.99262
 == 21-th k-point (-0.55277,-0.00000,0.55277) occupation: 6==
 -23.85732 -1.46257 -0.67217 -0.04353 -0.02991 0.01581 0.54022 0.59321 0.73632 0.75572
 0.97494 1.22990 1.23944 1.35344 1.42788 1.62864 1.68783 1.86697 1.89849 1.96069
 2.01882 2.03046 2.17322 2.27629 2.34347 2.42371 2.46107 2.50164 2.64600 2.68291
 2.79975 2.88830 2.93054 3.20325 3.64253 3.67532 3.72088 3.78858 3.94795 4.72730
 4.74150 5.14173 5.36924 5.45439 5.54250 5.54660 5.63109 5.81252 6.09216 6.25218
 6.82053 7.23141 7.61149 7.71146 7.75400 8.38123 8.44943 8.51146 11.59899 11.63484
 11.63571 11.63907 11.64957 11.65246 11.65347 11.70006 11.70171 12.56162 14.89044 14.93614
 15.12075 15.26582 15.30777 15.32438 15.38129 16.24658 16.31060 16.63698 16.69349 17.18682
 17.84655 56.14650 286.99262
 == 22-th k-point (-0.27639,0.27639,0.27639) occupation: 6==
 -23.85732 -1.46361 -0.68333 -0.03640 0.03060 0.03060 0.43248 0.66836 0.76340 0.76340
 1.08467 1.11178 1.11178 1.39203 1.39203 1.39216 1.63764 1.75063 1.75063 1.82879
 1.98816 1.98816 2.38249 2.47491 2.56835 2.56835 2.76360 2.78491 2.78491 2.81185
 2.81185 2.87436 2.97753 3.14335 3.14335 3.76249 3.96328 3.96328 4.27987 4.73590
 4.73590 4.76469 4.79706 5.20847 5.20847 5.45656 6.25506 6.25506 6.29185 6.30294
 6.30294 6.55011 7.43631 7.43631 7.47645 8.52990 8.57045 8.57045 11.60831 11.60831
 11.62714 11.63628 11.63628 11.67018 11.68534 11.70410 11.70410 13.01457 14.91415 14.92371
 14.95474 14.95474 15.16113 15.16113 15.36316 16.69688 16.69688 16.71082 16.71082 16.77895
 17.23216 55.79370 286.55720
 == 23-th k-point (0.00000,0.55277,0.00000) occupation: 6==
 -23.85732 -1.46313 -0.67677 -0.04539 0.00871 0.00871 0.51267 0.68134 0.72746 0.78954
 0.78954 1.30796 1.34435 1.41134 1.41134 1.59451 1.60556 1.62202 1.62202 1.84539
 2.04231 2.04231 2.05634 2.48592 2.58857 2.58857 2.59836 2.62861 2.80013 2.85101
 2.85101 2.88486 3.13446 3.54968 3.86871 3.86871 4.12992 4.64704 4.64704 4.90893
 5.03159 5.05538 5.05538 5.06658 5.96387 6.16871 6.16871 6.18247 6.37660 6.38992
 7.70023 7.73842 7.73842 7.98920 8.43035 8.43035 11.59707 11.61810 11.61810 11.62760
 11.63620 11.64237 11.64237 11.66735 11.71614 12.70758 14.88378 14.88378 14.97441 15.06828
 15.07104 15.07104 15.10501 16.62454 16.62516 16.62516 16.76554 16.77395 16.94105 55.51593
 286.20055
 == 24-th k-point (-0.27639,-0.27639,0.82916) occupation: 6==
 -23.85732 -1.46257 -0.67217 -0.04353 -0.02991 0.01581 0.54022 0.59321 0.73632 0.75572
 0.97494 1.22990 1.23944 1.35344 1.42788 1.62864 1.68783 1.86697 1.89849 1.96069
 2.01882 2.03046 2.17322 2.27629 2.34347 2.42371 2.46107 2.50164 2.64600 2.68291
 2.79975 2.88831 2.93054 3.20325 3.64253 3.67532 3.72088 3.78858 3.94795 4.72730
 4.74150 5.14173 5.36924 5.45439 5.54250 5.54660 5.63109 5.81252 6.09216 6.25218
 6.82053 7.23140 7.61149 7.71146 7.75400 8.38123 8.44943 8.51146 11.59899 11.63484
 11.63571 11.63907 11.64957 11.65246 11.65347 11.70006 11.70171 12.56162 14.89044 14.93614
 15.12075 15.26582 15.30777 15.32438 15.38129 16.24658 16.31060 16.63698 16.69349 17.18682
 17.84654 56.14650 286.99262
 == 25-th k-point (0.00000,-0.00000,0.55277) occupation: 6==
 -23.85732 -1.46313 -0.67677 -0.04539 0.00871 0.00871 0.51267 0.68134 0.72746 0.78954
 0.78954 1.30796 1.34435 1.41134 1.41134 1.59451 1.60556 1.62202 1.62202 1.84539
 2.04231 2.04231 2.05634 2.48592 2.58857 2.58857 2.59836 2.62860 2.80013 2.85101
 2.85101 2.88486 3.13446 3.54968 3.86871 3.86871 4.12992 4.64704 4.64704 4.90893
 5.03159 5.05538 5.05538 5.06658 5.96387 6.16871 6.16871 6.18247 6.37660 6.38992
 7.70023 7.73842 7.73842 7.98920 8.43035 8.43035 11.59707 11.61810 11.61810 11.62760
 11.63620 11.64237 11.64237 11.66735 11.71614 12.70758 14.88378 14.88378 14.97441 15.06828
 15.07104 15.07104 15.10501 16.62454 16.62516 16.62516 16.76554 16.77395 16.94105 55.51593
 286.20055
 == 26-th k-point (0.27639,0.27639,0.27639) occupation: 6==
 -23.85732 -1.46361 -0.68333 -0.03640 0.03060 0.03060 0.43248 0.66836 0.76340 0.76340
 1.08467 1.11178 1.11178 1.39203 1.39203 1.39216 1.63764 1.75063 1.75063 1.82879
 1.98816 1.98816 2.38249 2.47491 2.56835 2.56835 2.76360 2.78491 2.78491 2.81185
 2.81185 2.87436 2.97753 3.14335 3.14335 3.76249 3.96328 3.96328 4.27987 4.73590
 4.73590 4.76469 4.79706 5.20847 5.20847 5.45656 6.25506 6.25506 6.29185 6.30294
 6.30294 6.55011 7.43631 7.43631 7.47645 8.52990 8.57045 8.57045 11.60831 11.60831
 11.62714 11.63628 11.63628 11.67018 11.68534 11.70410 11.70410 13.01457 14.91415 14.92371
 14.95474 14.95474 15.16113 15.16113 15.36316 16.69688 16.69688 16.71082 16.71082 16.77895
 17.23216 55.79370 286.55720
 ---------------------------------------------------------------------------
 VBM is at 13-th k-point with 1.00958 eV
 CBM is at 13-th k-point with 10.18447 eV
 Band gap is 9.17489 eV


           Ground-State Mulliken Net Atomic Charges

      Atom                 Charge (a.u.)          Spin (a.u.)
   --------------------------------------------------------
      1 Li               (0.084532,-0.000000)    (0.000000,0.000000)
      2  F               (-0.084532,0.000000)    (0.000000,0.000000)
   --------------------------------------------------------
  Sum of atomic charges =     (-0.000000,-0.000000)
  Sum of spin   charges =       (0.000000,0.000000)



 Total job time:  187.13 s.
 Mon Sep  8 23:34:36 2025


        *************************************************************
        *                                                           *
        *  Thank you very much for using QCPBC. Have a nice day.    *
        *                                                           *
        *************************************************************

Running job 1 of 1
