                  Welcome to Q-Chem
           with Periodic Boundary Condition
     A Quantum Leap Into The Future Of Chemistry

 Adam Rettig, Xintian Feng, Meng-Fu Chen, Hieu Dinh, Stephen Quiton,
 Anton Ni, Paul J. Robinson, Jinghong Zhang, Joonho Lee

Contributors to earlier versions of Q-Chem not listed above:
 Evgeny Epifanovsky, Leo Cunha, Jerome F. Gonthier, Kuan-Yu Liu
 Input file: /n/netscratch/joonholee_lab/Lab/hieudinh//lif_solve_def2qzvp_omega_0.9_777.scratch20250909013749/lif_solve_def2qzvp_omega_0.9_777.0
 Scratch folder: /n/netscratch/joonholee_lab/Lab/hieudinh//lif_solve_def2qzvp_omega_0.9_777.scratch20250909013749
 Auxillary files located at: /n/holylabs/LABS/joonholee_lab/Lab/qchem_base/qcaux
 Q-Chem begins on Tue Sep  9 01:37:50 2025

 -------------------------------------------------------------
 User input:
 -------------------------------------------------------------
 $lattice
 3
 0.000000 2.005000 2.005000
 2.005000 0.000000 2.005000
 2.005000 2.005000 0.000000
 $end
 
 $unitcell
 ABSOLUTE
 0 1
 Li 0.000000 0.000000 0.000000
 F  2.005000 0.000000 0.000000
 $end
 
 $rem
 jobtype = sp
 method = pbe
 scf_convergence = 5
 scf_guess = autosad
 scf_algorithm = gdm
 basis = def2-qzvp
 aux_basis = gen
 input_bohr = false
 symmetry false
 is_basis_uctr true
 rsdf_print_level 1
 
 mp_mesh = [7,7,7]
 
 integral_direct true
 bvk_cgto true
 
 thresh 14
 mem_total 100000
 threads 32
 
 MAX_SCF_CYCLES 400
 madelung = false
 omega 0.9
 do_rij_bigmem true
 automate_g true
 print_level 10
 grid_type_xc 1
 
 thresh_1e2c_sp 1e-14
 thresh_2e3c_bra_ket_sep 1e-10
 thresh_g 1e-12
 $end
 
 $aux_basis
 Li     0
 S   7   1.00
     498.3689730              0.0207908
     162.9342738              0.0542177
      57.3246735              0.1776783
      21.6427314              0.4181150
       8.7345375              0.6535245
       3.7491039              0.5492618
       1.7006754              0.1701425
 S   1   1.00
       0.8090859             -0.0097548
 S   1   1.00
       0.4000933             -0.0050152
 S   1   1.00
       0.2035793              0.0232200
 !S   1   1.00
 !      0.1054201              0.0134535
 !S   1   1.00
 !      0.0549139              0.0006647
 P   2   1.00
      10.7024696              0.0072923
       3.6551543              0.0060940
 P   1   1.00
       1.2464013              0.0172529
 P   1   1.00
       0.4246282             -0.0160026
 P   1   1.00
       0.1446192             -0.0195111
 D   2   1.00
       1.1510647             -0.0014314
       0.6019112              0.0038969
 D   1   1.00
       0.3109573              0.0024683
 D   1   1.00
       0.1600032              0.0036451
 F   2   1.00
       0.5967918              0.0010494
       0.1790687              0.0006468
 G   1   1.00
       1.0460130             -0.0001971
 ****
 F     0
 S   7   1.00
    3514.9201549              0.1805835
    1231.2458815              0.3676084
     454.1367336              1.2707881
     175.8376258              2.8274164
      71.2081775              4.3588226
      30.0316883              2.7180994
      13.1259023             -0.0804726
 S   1   1.00
       5.9126861             -0.0023370
 S   1   1.00
       2.7284431              1.1236274
 S   1   1.00
       1.2813993              0.9999042
 S   1   1.00
       0.6082793              0.3119579
 S   1   1.00
       0.2897894              0.0312295
 P   2   1.00
      49.3740409             -0.0346332
      13.4874956             -0.0096069
 P   1   1.00
       3.9664900              0.0762067
 P   1   1.00
       1.2226629             -0.0103329
 P   1   1.00
       0.3830317              0.0018853
 D   2   1.00
      29.9719140             -0.0113316
       6.7860915             -0.0467639
 D   1   1.00
       1.8137313             -0.0167604
 D   1   1.00
       0.5157840             -0.0050777
 F   2   1.00
       2.8301877              1.0
       0.9155962              1.0
 G   1   1.00
       1.6097500             -0.0005411
 ****
 $end
 -------------------------------------------------------------
 Running PBC job

 Requested Exchange Correlation Functionals: 
  DFT Exchange:  1.00000 pbe_x
  DFT Correlation:  1.00000 pbe_c
 using 32 threads for computing.
 ---------------------------------------------------------------
      Coordinates of Atoms in Central Unit Cell (Angstroms)
    I     Atom         X            Y            Z
 ---------------------------------------------------------------
    1      Li      0.000000     0.000000     0.000000
    2       F      2.005000     0.000000     0.000000
 ---------------------------------------------------------------
 --------------------------------------------------
              Lattice Vectors (Angstroms)
              X            Y            Z
 --------------------------------------------------
   X       0.000000     2.005000     2.005000
   Y       2.005000     0.000000     2.005000
   Z       2.005000     2.005000     0.000000
 --------------------------------------------------
 --------------------------------------------------
       Reciprocal Lattice Vectors (Angstroms^-1)
              X            Y            Z
 --------------------------------------------------
   X      -1.566879     1.566879     1.566879
   Y       1.566879    -1.566879     1.566879
   Z       1.566879     1.566879    -1.566879
 --------------------------------------------------

 Single point calculation requested

 Hamiltonian contributions:
 List of terms in Hamiltonian: kpts_nn, kpts_kinetic, kpts_vnuc_df, kpts_xc, kpts_rij_bigmem

 K-Points calculation started.

 Basis set information about using solid harmonic (1) or Cartesian (0):
  li : D(1) D(1) F(1) 
  f : D(1) D(1) D(1) F(1) F(1) G(1) 

 Basis set information about using solid harmonic (1) or Cartesian (0):
  li : D(1) D(1) D(1) F(1) G(1) 
  f : D(1) D(1) D(1) F(1) G(1) 

 There are 92 basis functions in the central unit cell.
 Print atomic basis of atoms in the central unit cell:
 -------------------------------------------------------------
2 53 53 30

  0.00000000000000e+00  0.00000000000000e+00  0.00000000000000e+00
  3.78890087987467e+00  0.00000000000000e+00  0.00000000000000e+00

  1.48539770850000e+04
  2.22522364770000e+03
  5.04887390080000e+02
  1.42458475480000e+02
  4.63155995800000e+01
  1.66553354740000e+01
  6.43311861990000e+00
  2.60270438580000e+00
  1.08972454050000e+00
  4.42365959710000e+00
  1.23563949900000e+00
  4.60674706020000e-01
  9.66171669550000e-02
  4.59154522960000e-02
  2.11400487300000e-02
  3.26051092060000e+00
  6.50030431150000e-01
  1.69416710730000e-01
  3.32700000000000e+00
  5.57323437670000e-02
  2.04899592410000e-02
  2.30000000000000e-01
  7.57000000000000e-02
  1.35000000000000e-01
  1.32535973450000e+05
  1.97581125880000e+04
  4.48519969470000e+03
  1.27381510200000e+03
  4.18938312360000e+02
  1.52557219850000e+02
  5.98215248230000e+01
  2.48190769320000e+01
  1.00744466730000e+02
  3.01037282900000e+01
  1.08142832720000e+01
  4.81728867700000e+00
  1.65593342130000e+00
  6.48935195820000e-01
  2.47781045450000e-01
  2.40966541140000e+02
  5.70206997810000e+01
  1.81269521200000e+01
  6.64574046210000e+00
  2.63757228920000e+00
  1.06382172000000e+00
  4.19325627500000e-01
  1.57475882990000e-01
  5.01400000000000e+00
  1.72500000000000e+00
  5.86000000000000e-01
  3.56200000000000e+00
  1.14800000000000e+00
  2.37600000000000e+00

  4.67593013229757e-02
  8.76137465723478e-02
  1.51821576860780e-01
  2.46527731442678e-01
  3.74140539449148e-01
  5.14323804423000e-01
  6.00677517411378e-01
  5.44460466941871e-01
  3.21097242154446e-01
  2.72734215356930e-01
  7.53702662810338e-01
  3.98525272814913e-01
  1.23509628755786e-01
  7.06934606713439e-02
  3.95129614058778e-02
  2.22230636644090e-01
  1.62952044217479e-01
  1.33842808684561e-01
  6.40480761295544e+00
  3.85988372286674e-02
  1.10501063034648e-02
  1.25728336426159e-01
  1.79815549832937e-02
  1.62631785032468e-02
  3.86107783813291e-01
  7.24648975903829e-01
  1.25045495963763e+00
  2.01518764389143e+00
  3.04056815166578e+00
  4.21268576129244e+00
  5.00944268647146e+00
  4.54693835849554e+00
  2.32503271092484e+00
  8.41440806306271e+00
  4.25019052011886e+00
  2.31745919743391e+00
  1.04038060130896e+00
  5.15301123337211e-01
  2.50300174847139e-01
  3.49166780573024e+00
  4.61886090108967e+00
  5.17964869303152e+00
  4.78626212475628e+00
  3.24578400123904e+00
  1.54001926672016e+00
  4.80982576947690e-01
  1.41402684040663e-01
  2.76523492268872e+01
  4.27356565232165e+00
  6.45996677345861e-01
  2.56605380682814e+01
  2.00827738540458e+00
  1.20230076986570e+01

0 0 0 0 1 1 1
0 0 
9 0

0 1 1 9 1 1 1
9 0 
2 0

0 2 2 11 1 1 1
11 0 
1 0

0 3 3 12 1 1 1
12 0 
1 0

0 4 4 13 1 1 1
13 0 
1 0

0 5 5 14 1 1 1
14 0 
1 0

0 6 6 15 1 3 3
15 1 
3 0

0 9 9 18 1 3 3
18 1 
1 0

0 12 12 19 1 3 3
19 1 
1 0

0 15 15 20 1 3 3
20 1 
1 0

0 18 18 21 1 5 6
21 2 
1 1

0 23 23 22 1 5 6
22 2 
1 1

0 28 28 23 1 7 10
23 3 
1 1

1 35 35 24 1 1 1
24 0 
8 0

1 36 36 32 1 1 1
32 0 
2 0

1 37 37 34 1 1 1
34 0 
1 0

1 38 38 35 1 1 1
35 0 
1 0

1 39 39 36 1 1 1
36 0 
1 0

1 40 40 37 1 1 1
37 0 
1 0

1 41 41 38 1 1 1
38 0 
1 0

1 42 42 39 1 3 3
39 1 
5 0

1 45 45 44 1 3 3
44 1 
1 0

1 48 48 45 1 3 3
45 1 
1 0

1 51 51 46 1 3 3
46 1 
1 0

1 54 54 47 1 5 6
47 2 
1 1

1 59 59 48 1 5 6
48 2 
1 1

1 64 64 49 1 5 6
49 2 
1 1

1 69 69 50 1 7 10
50 3 
1 1

1 76 76 51 1 7 10
51 3 
1 1

1 83 83 52 1 9 15
52 4 
1 1

 -------------------------------------------------------------
 Allocate 136872 B from available memory: 104857600000 B
 There are 15625 image cells after screening.
 There are 17628 image cells for CGTO evaluation after screening.
 Real-Space grid for FFT initialized based on kinetic energy cutoff (eV) = 500.0
 Real-Space grid for FFT: (8,8,8)
 There are 4913 real-space grid points.
 There are 27 batches of real-space grid points. 
 Size of each grid batch is around 128
 Grid for AFT initialized based on kinetic energy cutoff (eV) = 500.0
 Real-Space grid for AFT: (8,8,8)
 There are 4913 real-space grid points.

 There are 5912 atom-centered grid points.

 Spacegroup symmetry group: Fm-3m
 Reducing spacegroup symmetry to symmorphic group: F m -3 m
 Monkhorst-Pack mesh is [7,7,7]
 There are 343 k points.
kpoints in Bohr
-0.3553528831 -0.3553528831 -0.3553528831
-0.2369019221 -0.2369019221 -0.4738038442
-0.1184509610 -0.1184509610 -0.5922548052
-0.0000000000 0.0000000000 -0.7107057663
0.1184509610 0.1184509610 -0.8291567273
0.2369019221 0.2369019221 -0.9476076883
0.3553528831 0.3553528831 -1.0660586494
-0.2369019221 -0.4738038442 -0.2369019221
-0.1184509610 -0.3553528831 -0.3553528831
-0.0000000000 -0.2369019221 -0.4738038442
0.1184509610 -0.1184509610 -0.5922548052
0.2369019221 0.0000000000 -0.7107057663
0.3553528831 0.1184509610 -0.8291567273
0.4738038442 0.2369019221 -0.9476076883
-0.1184509610 -0.5922548052 -0.1184509610
-0.0000000000 -0.4738038442 -0.2369019221
0.1184509610 -0.3553528831 -0.3553528831
0.2369019221 -0.2369019221 -0.4738038442
0.3553528831 -0.1184509610 -0.5922548052
0.4738038442 0.0000000000 -0.7107057663
0.5922548052 0.1184509610 -0.8291567273
-0.0000000000 -0.7107057663 -0.0000000000
0.1184509610 -0.5922548052 -0.1184509610
0.2369019221 -0.4738038442 -0.2369019221
0.3553528831 -0.3553528831 -0.3553528831
0.4738038442 -0.2369019221 -0.4738038442
0.5922548052 -0.1184509610 -0.5922548052
0.7107057663 0.0000000000 -0.7107057663
0.1184509610 -0.8291567273 0.1184509610
0.2369019221 -0.7107057663 -0.0000000000
0.3553528831 -0.5922548052 -0.1184509610
0.4738038442 -0.4738038442 -0.2369019221
0.5922548052 -0.3553528831 -0.3553528831
0.7107057663 -0.2369019221 -0.4738038442
0.8291567273 -0.1184509610 -0.5922548052
0.2369019221 -0.9476076883 0.2369019221
0.3553528831 -0.8291567273 0.1184509610
0.4738038442 -0.7107057663 -0.0000000000
0.5922548052 -0.5922548052 -0.1184509610
0.7107057663 -0.4738038442 -0.2369019221
0.8291567273 -0.3553528831 -0.3553528831
0.9476076883 -0.2369019221 -0.4738038442
0.3553528831 -1.0660586494 0.3553528831
0.4738038442 -0.9476076883 0.2369019221
0.5922548052 -0.8291567273 0.1184509610
0.7107057663 -0.7107057663 -0.0000000000
0.8291567273 -0.5922548052 -0.1184509610
0.9476076883 -0.4738038442 -0.2369019221
1.0660586494 -0.3553528831 -0.3553528831
-0.4738038442 -0.2369019221 -0.2369019221
-0.3553528831 -0.1184509610 -0.3553528831
-0.2369019221 0.0000000000 -0.4738038442
-0.1184509610 0.1184509610 -0.5922548052
-0.0000000000 0.2369019221 -0.7107057663
0.1184509610 0.3553528831 -0.8291567273
0.2369019221 0.4738038442 -0.9476076883
-0.3553528831 -0.3553528831 -0.1184509610
-0.2369019221 -0.2369019221 -0.2369019221
-0.1184509610 -0.1184509610 -0.3553528831
-0.0000000000 0.0000000000 -0.4738038442
0.1184509610 0.1184509610 -0.5922548052
0.2369019221 0.2369019221 -0.7107057663
0.3553528831 0.3553528831 -0.8291567273
-0.2369019221 -0.4738038442 -0.0000000000
-0.1184509610 -0.3553528831 -0.1184509610
-0.0000000000 -0.2369019221 -0.2369019221
0.1184509610 -0.1184509610 -0.3553528831
0.2369019221 0.0000000000 -0.4738038442
0.3553528831 0.1184509610 -0.5922548052
0.4738038442 0.2369019221 -0.7107057663
-0.1184509610 -0.5922548052 0.1184509610
-0.0000000000 -0.4738038442 -0.0000000000
0.1184509610 -0.3553528831 -0.1184509610
0.2369019221 -0.2369019221 -0.2369019221
0.3553528831 -0.1184509610 -0.3553528831
0.4738038442 0.0000000000 -0.4738038442
0.5922548052 0.1184509610 -0.5922548052
0.0000000000 -0.7107057663 0.2369019221
0.1184509610 -0.5922548052 0.1184509610
0.2369019221 -0.4738038442 -0.0000000000
0.3553528831 -0.3553528831 -0.1184509610
0.4738038442 -0.2369019221 -0.2369019221
0.5922548052 -0.1184509610 -0.3553528831
0.7107057663 0.0000000000 -0.4738038442
0.1184509610 -0.8291567273 0.3553528831
0.2369019221 -0.7107057663 0.2369019221
0.3553528831 -0.5922548052 0.1184509610
0.4738038442 -0.4738038442 -0.0000000000
0.5922548052 -0.3553528831 -0.1184509610
0.7107057663 -0.2369019221 -0.2369019221
0.8291567273 -0.1184509610 -0.3553528831
0.2369019221 -0.9476076883 0.4738038442
0.3553528831 -0.8291567273 0.3553528831
0.4738038442 -0.7107057663 0.2369019221
0.5922548052 -0.5922548052 0.1184509610
0.7107057663 -0.4738038442 -0.0000000000
0.8291567273 -0.3553528831 -0.1184509610
0.9476076883 -0.2369019221 -0.2369019221
-0.5922548052 -0.1184509610 -0.1184509610
-0.4738038442 0.0000000000 -0.2369019221
-0.3553528831 0.1184509610 -0.3553528831
-0.2369019221 0.2369019221 -0.4738038442
-0.1184509610 0.3553528831 -0.5922548052
-0.0000000000 0.4738038442 -0.7107057663
0.1184509610 0.5922548052 -0.8291567273
-0.4738038442 -0.2369019221 -0.0000000000
-0.3553528831 -0.1184509610 -0.1184509610
-0.2369019221 0.0000000000 -0.2369019221
-0.1184509610 0.1184509610 -0.3553528831
-0.0000000000 0.2369019221 -0.4738038442
0.1184509610 0.3553528831 -0.5922548052
0.2369019221 0.4738038442 -0.7107057663
-0.3553528831 -0.3553528831 0.1184509610
-0.2369019221 -0.2369019221 -0.0000000000
-0.1184509610 -0.1184509610 -0.1184509610
-0.0000000000 0.0000000000 -0.2369019221
0.1184509610 0.1184509610 -0.3553528831
0.2369019221 0.2369019221 -0.4738038442
0.3553528831 0.3553528831 -0.5922548052
-0.2369019221 -0.4738038442 0.2369019221
-0.1184509610 -0.3553528831 0.1184509610
-0.0000000000 -0.2369019221 -0.0000000000
0.1184509610 -0.1184509610 -0.1184509610
0.2369019221 0.0000000000 -0.2369019221
0.3553528831 0.1184509610 -0.3553528831
0.4738038442 0.2369019221 -0.4738038442
-0.1184509610 -0.5922548052 0.3553528831
0.0000000000 -0.4738038442 0.2369019221
0.1184509610 -0.3553528831 0.1184509610
0.2369019221 -0.2369019221 -0.0000000000
0.3553528831 -0.1184509610 -0.1184509610
0.4738038442 0.0000000000 -0.2369019221
0.5922548052 0.1184509610 -0.3553528831
0.0000000000 -0.7107057663 0.4738038442
0.1184509610 -0.5922548052 0.3553528831
0.2369019221 -0.4738038442 0.2369019221
0.3553528831 -0.3553528831 0.1184509610
0.4738038442 -0.2369019221 -0.0000000000
0.5922548052 -0.1184509610 -0.1184509610
0.7107057663 0.0000000000 -0.2369019221
0.1184509610 -0.8291567273 0.5922548052
0.2369019221 -0.7107057663 0.4738038442
0.3553528831 -0.5922548052 0.3553528831
0.4738038442 -0.4738038442 0.2369019221
0.5922548052 -0.3553528831 0.1184509610
0.7107057663 -0.2369019221 -0.0000000000
0.8291567273 -0.1184509610 -0.1184509610
-0.7107057663 0.0000000000 0.0000000000
-0.5922548052 0.1184509610 -0.1184509610
-0.4738038442 0.2369019221 -0.2369019221
-0.3553528831 0.3553528831 -0.3553528831
-0.2369019221 0.4738038442 -0.4738038442
-0.1184509610 0.5922548052 -0.5922548052
-0.0000000000 0.7107057663 -0.7107057663
-0.5922548052 -0.1184509610 0.1184509610
-0.4738038442 0.0000000000 0.0000000000
-0.3553528831 0.1184509610 -0.1184509610
-0.2369019221 0.2369019221 -0.2369019221
-0.1184509610 0.3553528831 -0.3553528831
-0.0000000000 0.4738038442 -0.4738038442
0.1184509610 0.5922548052 -0.5922548052
-0.4738038442 -0.2369019221 0.2369019221
-0.3553528831 -0.1184509610 0.1184509610
-0.2369019221 0.0000000000 0.0000000000
-0.1184509610 0.1184509610 -0.1184509610
-0.0000000000 0.2369019221 -0.2369019221
0.1184509610 0.3553528831 -0.3553528831
0.2369019221 0.4738038442 -0.4738038442
-0.3553528831 -0.3553528831 0.3553528831
-0.2369019221 -0.2369019221 0.2369019221
-0.1184509610 -0.1184509610 0.1184509610
0.0000000000 0.0000000000 0.0000000000
0.1184509610 0.1184509610 -0.1184509610
0.2369019221 0.2369019221 -0.2369019221
0.3553528831 0.3553528831 -0.3553528831
-0.2369019221 -0.4738038442 0.4738038442
-0.1184509610 -0.3553528831 0.3553528831
0.0000000000 -0.2369019221 0.2369019221
0.1184509610 -0.1184509610 0.1184509610
0.2369019221 -0.0000000000 0.0000000000
0.3553528831 0.1184509610 -0.1184509610
0.4738038442 0.2369019221 -0.2369019221
-0.1184509610 -0.5922548052 0.5922548052
0.0000000000 -0.4738038442 0.4738038442
0.1184509610 -0.3553528831 0.3553528831
0.2369019221 -0.2369019221 0.2369019221
0.3553528831 -0.1184509610 0.1184509610
0.4738038442 -0.0000000000 0.0000000000
0.5922548052 0.1184509610 -0.1184509610
0.0000000000 -0.7107057663 0.7107057663
0.1184509610 -0.5922548052 0.5922548052
0.2369019221 -0.4738038442 0.4738038442
0.3553528831 -0.3553528831 0.3553528831
0.4738038442 -0.2369019221 0.2369019221
0.5922548052 -0.1184509610 0.1184509610
0.7107057663 -0.0000000000 0.0000000000
-0.8291567273 0.1184509610 0.1184509610
-0.7107057663 0.2369019221 0.0000000000
-0.5922548052 0.3553528831 -0.1184509610
-0.4738038442 0.4738038442 -0.2369019221
-0.3553528831 0.5922548052 -0.3553528831
-0.2369019221 0.7107057663 -0.4738038442
-0.1184509610 0.8291567273 -0.5922548052
-0.7107057663 0.0000000000 0.2369019221
-0.5922548052 0.1184509610 0.1184509610
-0.4738038442 0.2369019221 0.0000000000
-0.3553528831 0.3553528831 -0.1184509610
-0.2369019221 0.4738038442 -0.2369019221
-0.1184509610 0.5922548052 -0.3553528831
-0.0000000000 0.7107057663 -0.4738038442
-0.5922548052 -0.1184509610 0.3553528831
-0.4738038442 -0.0000000000 0.2369019221
-0.3553528831 0.1184509610 0.1184509610
-0.2369019221 0.2369019221 0.0000000000
-0.1184509610 0.3553528831 -0.1184509610
-0.0000000000 0.4738038442 -0.2369019221
0.1184509610 0.5922548052 -0.3553528831
-0.4738038442 -0.2369019221 0.4738038442
-0.3553528831 -0.1184509610 0.3553528831
-0.2369019221 -0.0000000000 0.2369019221
-0.1184509610 0.1184509610 0.1184509610
0.0000000000 0.2369019221 0.0000000000
0.1184509610 0.3553528831 -0.1184509610
0.2369019221 0.4738038442 -0.2369019221
-0.3553528831 -0.3553528831 0.5922548052
-0.2369019221 -0.2369019221 0.4738038442
-0.1184509610 -0.1184509610 0.3553528831
0.0000000000 -0.0000000000 0.2369019221
0.1184509610 0.1184509610 0.1184509610
0.2369019221 0.2369019221 0.0000000000
0.3553528831 0.3553528831 -0.1184509610
-0.2369019221 -0.4738038442 0.7107057663
-0.1184509610 -0.3553528831 0.5922548052
0.0000000000 -0.2369019221 0.4738038442
0.1184509610 -0.1184509610 0.3553528831
0.2369019221 -0.0000000000 0.2369019221
0.3553528831 0.1184509610 0.1184509610
0.4738038442 0.2369019221 0.0000000000
-0.1184509610 -0.5922548052 0.8291567273
0.0000000000 -0.4738038442 0.7107057663
0.1184509610 -0.3553528831 0.5922548052
0.2369019221 -0.2369019221 0.4738038442
0.3553528831 -0.1184509610 0.3553528831
0.4738038442 -0.0000000000 0.2369019221
0.5922548052 0.1184509610 0.1184509610
-0.9476076883 0.2369019221 0.2369019221
-0.8291567273 0.3553528831 0.1184509610
-0.7107057663 0.4738038442 0.0000000000
-0.5922548052 0.5922548052 -0.1184509610
-0.4738038442 0.7107057663 -0.2369019221
-0.3553528831 0.8291567273 -0.3553528831
-0.2369019221 0.9476076883 -0.4738038442
-0.8291567273 0.1184509610 0.3553528831
-0.7107057663 0.2369019221 0.2369019221
-0.5922548052 0.3553528831 0.1184509610
-0.4738038442 0.4738038442 0.0000000000
-0.3553528831 0.5922548052 -0.1184509610
-0.2369019221 0.7107057663 -0.2369019221
-0.1184509610 0.8291567273 -0.3553528831
-0.7107057663 -0.0000000000 0.4738038442
-0.5922548052 0.1184509610 0.3553528831
-0.4738038442 0.2369019221 0.2369019221
-0.3553528831 0.3553528831 0.1184509610
-0.2369019221 0.4738038442 0.0000000000
-0.1184509610 0.5922548052 -0.1184509610
0.0000000000 0.7107057663 -0.2369019221
-0.5922548052 -0.1184509610 0.5922548052
-0.4738038442 -0.0000000000 0.4738038442
-0.3553528831 0.1184509610 0.3553528831
-0.2369019221 0.2369019221 0.2369019221
-0.1184509610 0.3553528831 0.1184509610
0.0000000000 0.4738038442 0.0000000000
0.1184509610 0.5922548052 -0.1184509610
-0.4738038442 -0.2369019221 0.7107057663
-0.3553528831 -0.1184509610 0.5922548052
-0.2369019221 -0.0000000000 0.4738038442
-0.1184509610 0.1184509610 0.3553528831
0.0000000000 0.2369019221 0.2369019221
0.1184509610 0.3553528831 0.1184509610
0.2369019221 0.4738038442 0.0000000000
-0.3553528831 -0.3553528831 0.8291567273
-0.2369019221 -0.2369019221 0.7107057663
-0.1184509610 -0.1184509610 0.5922548052
0.0000000000 -0.0000000000 0.4738038442
0.1184509610 0.1184509610 0.3553528831
0.2369019221 0.2369019221 0.2369019221
0.3553528831 0.3553528831 0.1184509610
-0.2369019221 -0.4738038442 0.9476076883
-0.1184509610 -0.3553528831 0.8291567273
0.0000000000 -0.2369019221 0.7107057663
0.1184509610 -0.1184509610 0.5922548052
0.2369019221 -0.0000000000 0.4738038442
0.3553528831 0.1184509610 0.3553528831
0.4738038442 0.2369019221 0.2369019221
-1.0660586494 0.3553528831 0.3553528831
-0.9476076883 0.4738038442 0.2369019221
-0.8291567273 0.5922548052 0.1184509610
-0.7107057663 0.7107057663 0.0000000000
-0.5922548052 0.8291567273 -0.1184509610
-0.4738038442 0.9476076883 -0.2369019221
-0.3553528831 1.0660586494 -0.3553528831
-0.9476076883 0.2369019221 0.4738038442
-0.8291567273 0.3553528831 0.3553528831
-0.7107057663 0.4738038442 0.2369019221
-0.5922548052 0.5922548052 0.1184509610
-0.4738038442 0.7107057663 0.0000000000
-0.3553528831 0.8291567273 -0.1184509610
-0.2369019221 0.9476076883 -0.2369019221
-0.8291567273 0.1184509610 0.5922548052
-0.7107057663 0.2369019221 0.4738038442
-0.5922548052 0.3553528831 0.3553528831
-0.4738038442 0.4738038442 0.2369019221
-0.3553528831 0.5922548052 0.1184509610
-0.2369019221 0.7107057663 0.0000000000
-0.1184509610 0.8291567273 -0.1184509610
-0.7107057663 -0.0000000000 0.7107057663
-0.5922548052 0.1184509610 0.5922548052
-0.4738038442 0.2369019221 0.4738038442
-0.3553528831 0.3553528831 0.3553528831
-0.2369019221 0.4738038442 0.2369019221
-0.1184509610 0.5922548052 0.1184509610
0.0000000000 0.7107057663 0.0000000000
-0.5922548052 -0.1184509610 0.8291567273
-0.4738038442 -0.0000000000 0.7107057663
-0.3553528831 0.1184509610 0.5922548052
-0.2369019221 0.2369019221 0.4738038442
-0.1184509610 0.3553528831 0.3553528831
0.0000000000 0.4738038442 0.2369019221
0.1184509610 0.5922548052 0.1184509610
-0.4738038442 -0.2369019221 0.9476076883
-0.3553528831 -0.1184509610 0.8291567273
-0.2369019221 -0.0000000000 0.7107057663
-0.1184509610 0.1184509610 0.5922548052
0.0000000000 0.2369019221 0.4738038442
0.1184509610 0.3553528831 0.3553528831
0.2369019221 0.4738038442 0.2369019221
-0.3553528831 -0.3553528831 1.0660586494
-0.2369019221 -0.2369019221 0.9476076883
-0.1184509610 -0.1184509610 0.8291567273
0.0000000000 -0.0000000000 0.7107057663
0.1184509610 0.1184509610 0.5922548052
0.2369019221 0.2369019221 0.4738038442
0.3553528831 0.3553528831 0.3553528831
 There are 6 alpha and 6 beta electrons
 Start computing overlap matrix
 Allocate 46450432 B from available memory: 104857463136 B
 Time for computing overlap matrix: 30.5350000000 s
 ====== Initialize compute kernels for all-electron RI-J (kpts) ====== 
 ========================================================== 
 Range-separated parameter omega        = 0.900000000000000022
 Threshold for 1e2c shellpair           = 0.000000000000010000
 Threshold for 2e2c SR integral         = 0.000000000000000001
 Threshold for 2e3c SR integral         = 0.000000000100000000
 Threshold for AFT G-space screening is = 0.000000000001000000
 The exponent cutoff for C/D classification (omega2 / 2) is  = 0.405000000000000027
 ========================================================== 
 === Post process the basis set for RI calculation (exp_cutoff = 0.405000000000000027 ) === 
nshells_b1 before uncontraction = 30
nshells_b1 after uncontraction = 31
nshells_baux before uncontraction = 28
nshells_baux after uncontraction = 28
===============================================
nbsf total   = 95
nbsf compact = 62
nbsf diffuse = 33
naux total   = 96
naux compact = 96
naux diffuse = 0
nshells_bnuc = 2

 Number of unique atoms is 2
 Unique atom #0 (li) has 5 shells.
 Unique atom #1 (f) has 15 shells.

Shell 0 to 4 belongs to atom li
Shell 5 to 19 belongs to atom f

 Number of unique atoms is 2
 Unique atom #0 (li) has 9 shells.
 Unique atom #1 (f) has 2 shells.

Shell 0 to 8 belongs to atom li
Shell 9 to 10 belongs to atom f

 Number of unique atom is 2
 Unique atom #0 (li) has 13 auxiliary shells.
 Unique atom #1 (f) has 15 auxiliary shells.

Auxiliary Shell 0 to 12 belongs to atom li
Auxiliary Shell 13 to 27 belongs to atom f

================= Automatically determine grid size for reciprocal space summation =================
 Range-separated parameter = 0.90000000000000 and G-space screening threshold = 0.00000000000100
The number of grid points along each axis dimension is (7, 7, 7)
Total number of grid points = 3375

Use nonortho shellpair for diffuse density
======== Initializing relevant kernel for RIJ (DD type) ========
There are 66 shellpairs in the reference unit cell
There are 25941 images and we expect to have 1712106 in total
There are 76578 shellpairs in the lattice sum after screening
======== Initializing relevant kernel for RIJ (CD type) ========
There are 220 shellpairs in the reference unit cell
There are 14723 images and we expect to have 3239060 in total
There are 127133 shellpairs in the lattice sum after screening
****** AFT -> SR ******
Maximum bra distance cutoff is 39.000000000000
Maximum bra ket distance cutoff is 19.798524149198
Maximum bra ket screening distance is 18.500000000000
Number of auxiliary image is 3829
There are 220 shellpairs in the reference unit cell
There are 3829 images and we expect to have 842380 in total
There are 127133 shellpairs in the lattice sum after screening
Available memory per thread for 2e3c calculation is 3.275344147000Gb
Finish initializing 2e3c SR with the lattice sum!
=================================================
======== Initializing relevant kernel for RIJ (CC type) ========
There are 207 shellpairs in the reference unit cell
There are 911 images and we expect to have 188577 in total
There are 3549 shellpairs in the lattice sum after screening
****** AFT -> SR ******
Maximum bra distance cutoff is 12.000000000000
Maximum bra ket distance cutoff is 19.972536543678
Maximum bra ket screening distance is 17.437500000000
Number of auxiliary image is 815
There are 207 shellpairs in the reference unit cell
There are 285 images and we expect to have 58995 in total
There are 3549 shellpairs in the lattice sum after screening
Available memory per thread for 2e3c calculation is 3.275344147000Gb
Finish initializing 2e3c SR with the lattice sum!
=================================================
======== Initializing the SR component for Vnuc (CD type) ========
Maximum bra distance cutoff is 39.000000000000
Maximum bra ket distance cutoff is 11.063391972349
Maximum bra ket screening distance is 9.533997011915
Number of auxiliary image is 3829
There are 220 shellpairs in the reference unit cell
There are 3829 images and we expect to have 842380 in total
There are 127133 shellpairs in the lattice sum after screening
Available memory per thread for 2e3c calculation is 3.275344147000Gb
Finish initializing 2e3c SR with the lattice sum!
=================================================
======== Initialize the SR component for Vnuc (CC type) ========
Maximum bra distance cutoff is 12.000000000000
Maximum bra ket distance cutoff is 12.009370768794
Maximum bra ket screening distance is 7.998388684828
Number of auxiliary image is 285
There are 207 shellpairs in the reference unit cell
There are 285 images and we expect to have 58995 in total
There are 3549 shellpairs in the lattice sum after screening
Available memory per thread for 2e3c calculation is 3.275344147000Gb
Finish initializing 2e3c SR with the lattice sum!
=================================================
 Aufbau occupation scheme, occupation determined by eigenvalue
 == 0-th k-point nmo = 83 (-0.35535,-0.35535,-0.35535) ==
 == 1-th k-point nmo = 83 (-0.23690,-0.23690,-0.47380) ==
 == 2-th k-point nmo = 82 (-0.11845,-0.11845,-0.59225) ==
 == 3-th k-point nmo = 81 (-0.00000,0.00000,-0.71071) ==
 == 4-th k-point nmo = 82 (0.11845,0.11845,-0.82916) ==
 == 5-th k-point nmo = 83 (0.23690,0.23690,-0.94761) ==
 == 6-th k-point nmo = 83 (0.35535,0.35535,-1.06606) ==
 == 7-th k-point nmo = 83 (-0.23690,-0.47380,-0.23690) ==
 == 8-th k-point nmo = 82 (-0.11845,-0.35535,-0.35535) ==
 == 9-th k-point nmo = 82 (-0.00000,-0.23690,-0.47380) ==
 == 10-th k-point nmo = 82 (0.11845,-0.11845,-0.59225) ==
 == 11-th k-point nmo = 82 (0.23690,0.00000,-0.71071) ==
 == 12-th k-point nmo = 82 (0.35535,0.11845,-0.82916) ==
 == 13-th k-point nmo = 82 (0.47380,0.23690,-0.94761) ==
 == 14-th k-point nmo = 82 (-0.11845,-0.59225,-0.11845) ==
 == 15-th k-point nmo = 82 (-0.00000,-0.47380,-0.23690) ==
 == 16-th k-point nmo = 82 (0.11845,-0.35535,-0.35535) ==
 == 17-th k-point nmo = 83 (0.23690,-0.23690,-0.47380) ==
 == 18-th k-point nmo = 82 (0.35535,-0.11845,-0.59225) ==
 == 19-th k-point nmo = 82 (0.47380,0.00000,-0.71071) ==
 == 20-th k-point nmo = 82 (0.59225,0.11845,-0.82916) ==
 == 21-th k-point nmo = 81 (-0.00000,-0.71071,-0.00000) ==
 == 22-th k-point nmo = 82 (0.11845,-0.59225,-0.11845) ==
 == 23-th k-point nmo = 83 (0.23690,-0.47380,-0.23690) ==
 == 24-th k-point nmo = 83 (0.35535,-0.35535,-0.35535) ==
 == 25-th k-point nmo = 83 (0.47380,-0.23690,-0.47380) ==
 == 26-th k-point nmo = 83 (0.59225,-0.11845,-0.59225) ==
 == 27-th k-point nmo = 82 (0.71071,0.00000,-0.71071) ==
 == 28-th k-point nmo = 82 (0.11845,-0.82916,0.11845) ==
 == 29-th k-point nmo = 82 (0.23690,-0.71071,-0.00000) ==
 == 30-th k-point nmo = 82 (0.35535,-0.59225,-0.11845) ==
 == 31-th k-point nmo = 83 (0.47380,-0.47380,-0.23690) ==
 == 32-th k-point nmo = 83 (0.59225,-0.35535,-0.35535) ==
 == 33-th k-point nmo = 82 (0.71071,-0.23690,-0.47380) ==
 == 34-th k-point nmo = 82 (0.82916,-0.11845,-0.59225) ==
 == 35-th k-point nmo = 83 (0.23690,-0.94761,0.23690) ==
 == 36-th k-point nmo = 82 (0.35535,-0.82916,0.11845) ==
 == 37-th k-point nmo = 82 (0.47380,-0.71071,-0.00000) ==
 == 38-th k-point nmo = 83 (0.59225,-0.59225,-0.11845) ==
 == 39-th k-point nmo = 82 (0.71071,-0.47380,-0.23690) ==
 == 40-th k-point nmo = 83 (0.82916,-0.35535,-0.35535) ==
 == 41-th k-point nmo = 82 (0.94761,-0.23690,-0.47380) ==
 == 42-th k-point nmo = 83 (0.35535,-1.06606,0.35535) ==
 == 43-th k-point nmo = 82 (0.47380,-0.94761,0.23690) ==
 == 44-th k-point nmo = 82 (0.59225,-0.82916,0.11845) ==
 == 45-th k-point nmo = 82 (0.71071,-0.71071,-0.00000) ==
 == 46-th k-point nmo = 82 (0.82916,-0.59225,-0.11845) ==
 == 47-th k-point nmo = 82 (0.94761,-0.47380,-0.23690) ==
 == 48-th k-point nmo = 83 (1.06606,-0.35535,-0.35535) ==
 == 49-th k-point nmo = 83 (-0.47380,-0.23690,-0.23690) ==
 == 50-th k-point nmo = 82 (-0.35535,-0.11845,-0.35535) ==
 == 51-th k-point nmo = 82 (-0.23690,0.00000,-0.47380) ==
 == 52-th k-point nmo = 82 (-0.11845,0.11845,-0.59225) ==
 == 53-th k-point nmo = 82 (-0.00000,0.23690,-0.71071) ==
 == 54-th k-point nmo = 82 (0.11845,0.35535,-0.82916) ==
 == 55-th k-point nmo = 82 (0.23690,0.47380,-0.94761) ==
 == 56-th k-point nmo = 82 (-0.35535,-0.35535,-0.11845) ==
 == 57-th k-point nmo = 83 (-0.23690,-0.23690,-0.23690) ==
 == 58-th k-point nmo = 82 (-0.11845,-0.11845,-0.35535) ==
 == 59-th k-point nmo = 81 (-0.00000,0.00000,-0.47380) ==
 == 60-th k-point nmo = 82 (0.11845,0.11845,-0.59225) ==
 == 61-th k-point nmo = 83 (0.23690,0.23690,-0.71071) ==
 == 62-th k-point nmo = 83 (0.35535,0.35535,-0.82916) ==
 == 63-th k-point nmo = 82 (-0.23690,-0.47380,-0.00000) ==
 == 64-th k-point nmo = 82 (-0.11845,-0.35535,-0.11845) ==
 == 65-th k-point nmo = 81 (-0.00000,-0.23690,-0.23690) ==
 == 66-th k-point nmo = 82 (0.11845,-0.11845,-0.35535) ==
 == 67-th k-point nmo = 82 (0.23690,0.00000,-0.47380) ==
 == 68-th k-point nmo = 82 (0.35535,0.11845,-0.59225) ==
 == 69-th k-point nmo = 82 (0.47380,0.23690,-0.71071) ==
 == 70-th k-point nmo = 82 (-0.11845,-0.59225,0.11845) ==
 == 71-th k-point nmo = 81 (-0.00000,-0.47380,-0.00000) ==
 == 72-th k-point nmo = 82 (0.11845,-0.35535,-0.11845) ==
 == 73-th k-point nmo = 83 (0.23690,-0.23690,-0.23690) ==
 == 74-th k-point nmo = 82 (0.35535,-0.11845,-0.35535) ==
 == 75-th k-point nmo = 83 (0.47380,0.00000,-0.47380) ==
 == 76-th k-point nmo = 83 (0.59225,0.11845,-0.59225) ==
 == 77-th k-point nmo = 82 (0.00000,-0.71071,0.23690) ==
 == 78-th k-point nmo = 82 (0.11845,-0.59225,0.11845) ==
 == 79-th k-point nmo = 82 (0.23690,-0.47380,-0.00000) ==
 == 80-th k-point nmo = 82 (0.35535,-0.35535,-0.11845) ==
 == 81-th k-point nmo = 83 (0.47380,-0.23690,-0.23690) ==
 == 82-th k-point nmo = 82 (0.59225,-0.11845,-0.35535) ==
 == 83-th k-point nmo = 82 (0.71071,0.00000,-0.47380) ==
 == 84-th k-point nmo = 82 (0.11845,-0.82916,0.35535) ==
 == 85-th k-point nmo = 83 (0.23690,-0.71071,0.23690) ==
 == 86-th k-point nmo = 82 (0.35535,-0.59225,0.11845) ==
 == 87-th k-point nmo = 83 (0.47380,-0.47380,-0.00000) ==
 == 88-th k-point nmo = 82 (0.59225,-0.35535,-0.11845) ==
 == 89-th k-point nmo = 83 (0.71071,-0.23690,-0.23690) ==
 == 90-th k-point nmo = 82 (0.82916,-0.11845,-0.35535) ==
 == 91-th k-point nmo = 82 (0.23690,-0.94761,0.47380) ==
 == 92-th k-point nmo = 83 (0.35535,-0.82916,0.35535) ==
 == 93-th k-point nmo = 82 (0.47380,-0.71071,0.23690) ==
 == 94-th k-point nmo = 83 (0.59225,-0.59225,0.11845) ==
 == 95-th k-point nmo = 82 (0.71071,-0.47380,-0.00000) ==
 == 96-th k-point nmo = 82 (0.82916,-0.35535,-0.11845) ==
 == 97-th k-point nmo = 83 (0.94761,-0.23690,-0.23690) ==
 == 98-th k-point nmo = 82 (-0.59225,-0.11845,-0.11845) ==
 == 99-th k-point nmo = 82 (-0.47380,0.00000,-0.23690) ==
 == 100-th k-point nmo = 82 (-0.35535,0.11845,-0.35535) ==
 == 101-th k-point nmo = 83 (-0.23690,0.23690,-0.47380) ==
 == 102-th k-point nmo = 82 (-0.11845,0.35535,-0.59225) ==
 == 103-th k-point nmo = 82 (-0.00000,0.47380,-0.71071) ==
 == 104-th k-point nmo = 82 (0.11845,0.59225,-0.82916) ==
 == 105-th k-point nmo = 82 (-0.47380,-0.23690,-0.00000) ==
 == 106-th k-point nmo = 82 (-0.35535,-0.11845,-0.11845) ==
 == 107-th k-point nmo = 81 (-0.23690,0.00000,-0.23690) ==
 == 108-th k-point nmo = 82 (-0.11845,0.11845,-0.35535) ==
 == 109-th k-point nmo = 82 (-0.00000,0.23690,-0.47380) ==
 == 110-th k-point nmo = 82 (0.11845,0.35535,-0.59225) ==
 == 111-th k-point nmo = 82 (0.23690,0.47380,-0.71071) ==
 == 112-th k-point nmo = 82 (-0.35535,-0.35535,0.11845) ==
 == 113-th k-point nmo = 81 (-0.23690,-0.23690,-0.00000) ==
 == 114-th k-point nmo = 82 (-0.11845,-0.11845,-0.11845) ==
 == 115-th k-point nmo = 81 (-0.00000,0.00000,-0.23690) ==
 == 116-th k-point nmo = 82 (0.11845,0.11845,-0.35535) ==
 == 117-th k-point nmo = 83 (0.23690,0.23690,-0.47380) ==
 == 118-th k-point nmo = 83 (0.35535,0.35535,-0.59225) ==
 == 119-th k-point nmo = 83 (-0.23690,-0.47380,0.23690) ==
 == 120-th k-point nmo = 82 (-0.11845,-0.35535,0.11845) ==
 == 121-th k-point nmo = 81 (-0.00000,-0.23690,-0.00000) ==
 == 122-th k-point nmo = 82 (0.11845,-0.11845,-0.11845) ==
 == 123-th k-point nmo = 81 (0.23690,0.00000,-0.23690) ==
 == 124-th k-point nmo = 82 (0.35535,0.11845,-0.35535) ==
 == 125-th k-point nmo = 83 (0.47380,0.23690,-0.47380) ==
 == 126-th k-point nmo = 82 (-0.11845,-0.59225,0.35535) ==
 == 127-th k-point nmo = 82 (0.00000,-0.47380,0.23690) ==
 == 128-th k-point nmo = 82 (0.11845,-0.35535,0.11845) ==
 == 129-th k-point nmo = 81 (0.23690,-0.23690,-0.00000) ==
 == 130-th k-point nmo = 82 (0.35535,-0.11845,-0.11845) ==
 == 131-th k-point nmo = 82 (0.47380,0.00000,-0.23690) ==
 == 132-th k-point nmo = 82 (0.59225,0.11845,-0.35535) ==
 == 133-th k-point nmo = 82 (0.00000,-0.71071,0.47380) ==
 == 134-th k-point nmo = 82 (0.11845,-0.59225,0.35535) ==
 == 135-th k-point nmo = 83 (0.23690,-0.47380,0.23690) ==
 == 136-th k-point nmo = 82 (0.35535,-0.35535,0.11845) ==
 == 137-th k-point nmo = 82 (0.47380,-0.23690,-0.00000) ==
 == 138-th k-point nmo = 82 (0.59225,-0.11845,-0.11845) ==
 == 139-th k-point nmo = 82 (0.71071,0.00000,-0.23690) ==
 == 140-th k-point nmo = 82 (0.11845,-0.82916,0.59225) ==
 == 141-th k-point nmo = 82 (0.23690,-0.71071,0.47380) ==
 == 142-th k-point nmo = 83 (0.35535,-0.59225,0.35535) ==
 == 143-th k-point nmo = 83 (0.47380,-0.47380,0.23690) ==
 == 144-th k-point nmo = 82 (0.59225,-0.35535,0.11845) ==
 == 145-th k-point nmo = 82 (0.71071,-0.23690,-0.00000) ==
 == 146-th k-point nmo = 82 (0.82916,-0.11845,-0.11845) ==
 == 147-th k-point nmo = 81 (-0.71071,0.00000,0.00000) ==
 == 148-th k-point nmo = 82 (-0.59225,0.11845,-0.11845) ==
 == 149-th k-point nmo = 83 (-0.47380,0.23690,-0.23690) ==
 == 150-th k-point nmo = 83 (-0.35535,0.35535,-0.35535) ==
 == 151-th k-point nmo = 83 (-0.23690,0.47380,-0.47380) ==
 == 152-th k-point nmo = 83 (-0.11845,0.59225,-0.59225) ==
 == 153-th k-point nmo = 82 (-0.00000,0.71071,-0.71071) ==
 == 154-th k-point nmo = 82 (-0.59225,-0.11845,0.11845) ==
 == 155-th k-point nmo = 81 (-0.47380,0.00000,0.00000) ==
 == 156-th k-point nmo = 82 (-0.35535,0.11845,-0.11845) ==
 == 157-th k-point nmo = 83 (-0.23690,0.23690,-0.23690) ==
 == 158-th k-point nmo = 82 (-0.11845,0.35535,-0.35535) ==
 == 159-th k-point nmo = 83 (-0.00000,0.47380,-0.47380) ==
 == 160-th k-point nmo = 83 (0.11845,0.59225,-0.59225) ==
 == 161-th k-point nmo = 83 (-0.47380,-0.23690,0.23690) ==
 == 162-th k-point nmo = 82 (-0.35535,-0.11845,0.11845) ==
 == 163-th k-point nmo = 81 (-0.23690,0.00000,0.00000) ==
 == 164-th k-point nmo = 82 (-0.11845,0.11845,-0.11845) ==
 == 165-th k-point nmo = 81 (-0.00000,0.23690,-0.23690) ==
 == 166-th k-point nmo = 82 (0.11845,0.35535,-0.35535) ==
 == 167-th k-point nmo = 83 (0.23690,0.47380,-0.47380) ==
 == 168-th k-point nmo = 83 (-0.35535,-0.35535,0.35535) ==
 == 169-th k-point nmo = 83 (-0.23690,-0.23690,0.23690) ==
 == 170-th k-point nmo = 82 (-0.11845,-0.11845,0.11845) ==
 == 171-th k-point nmo = 83 (0.00000,0.00000,0.00000) ==
 == 172-th k-point nmo = 82 (0.11845,0.11845,-0.11845) ==
 == 173-th k-point nmo = 83 (0.23690,0.23690,-0.23690) ==
 == 174-th k-point nmo = 83 (0.35535,0.35535,-0.35535) ==
 == 175-th k-point nmo = 83 (-0.23690,-0.47380,0.47380) ==
 == 176-th k-point nmo = 82 (-0.11845,-0.35535,0.35535) ==
 == 177-th k-point nmo = 81 (0.00000,-0.23690,0.23690) ==
 == 178-th k-point nmo = 82 (0.11845,-0.11845,0.11845) ==
 == 179-th k-point nmo = 81 (0.23690,-0.00000,0.00000) ==
 == 180-th k-point nmo = 82 (0.35535,0.11845,-0.11845) ==
 == 181-th k-point nmo = 83 (0.47380,0.23690,-0.23690) ==
 == 182-th k-point nmo = 83 (-0.11845,-0.59225,0.59225) ==
 == 183-th k-point nmo = 83 (0.00000,-0.47380,0.47380) ==
 == 184-th k-point nmo = 82 (0.11845,-0.35535,0.35535) ==
 == 185-th k-point nmo = 83 (0.23690,-0.23690,0.23690) ==
 == 186-th k-point nmo = 82 (0.35535,-0.11845,0.11845) ==
 == 187-th k-point nmo = 81 (0.47380,-0.00000,0.00000) ==
 == 188-th k-point nmo = 82 (0.59225,0.11845,-0.11845) ==
 == 189-th k-point nmo = 82 (0.00000,-0.71071,0.71071) ==
 == 190-th k-point nmo = 83 (0.11845,-0.59225,0.59225) ==
 == 191-th k-point nmo = 83 (0.23690,-0.47380,0.47380) ==
 == 192-th k-point nmo = 83 (0.35535,-0.35535,0.35535) ==
 == 193-th k-point nmo = 83 (0.47380,-0.23690,0.23690) ==
 == 194-th k-point nmo = 82 (0.59225,-0.11845,0.11845) ==
 == 195-th k-point nmo = 81 (0.71071,-0.00000,0.00000) ==
 == 196-th k-point nmo = 82 (-0.82916,0.11845,0.11845) ==
 == 197-th k-point nmo = 82 (-0.71071,0.23690,0.00000) ==
 == 198-th k-point nmo = 82 (-0.59225,0.35535,-0.11845) ==
 == 199-th k-point nmo = 83 (-0.47380,0.47380,-0.23690) ==
 == 200-th k-point nmo = 83 (-0.35535,0.59225,-0.35535) ==
 == 201-th k-point nmo = 82 (-0.23690,0.71071,-0.47380) ==
 == 202-th k-point nmo = 82 (-0.11845,0.82916,-0.59225) ==
 == 203-th k-point nmo = 82 (-0.71071,0.00000,0.23690) ==
 == 204-th k-point nmo = 82 (-0.59225,0.11845,0.11845) ==
 == 205-th k-point nmo = 82 (-0.47380,0.23690,0.00000) ==
 == 206-th k-point nmo = 82 (-0.35535,0.35535,-0.11845) ==
 == 207-th k-point nmo = 83 (-0.23690,0.47380,-0.23690) ==
 == 208-th k-point nmo = 82 (-0.11845,0.59225,-0.35535) ==
 == 209-th k-point nmo = 82 (-0.00000,0.71071,-0.47380) ==
 == 210-th k-point nmo = 82 (-0.59225,-0.11845,0.35535) ==
 == 211-th k-point nmo = 82 (-0.47380,-0.00000,0.23690) ==
 == 212-th k-point nmo = 82 (-0.35535,0.11845,0.11845) ==
 == 213-th k-point nmo = 81 (-0.23690,0.23690,0.00000) ==
 == 214-th k-point nmo = 82 (-0.11845,0.35535,-0.11845) ==
 == 215-th k-point nmo = 82 (-0.00000,0.47380,-0.23690) ==
 == 216-th k-point nmo = 82 (0.11845,0.59225,-0.35535) ==
 == 217-th k-point nmo = 83 (-0.47380,-0.23690,0.47380) ==
 == 218-th k-point nmo = 82 (-0.35535,-0.11845,0.35535) ==
 == 219-th k-point nmo = 81 (-0.23690,-0.00000,0.23690) ==
 == 220-th k-point nmo = 82 (-0.11845,0.11845,0.11845) ==
 == 221-th k-point nmo = 81 (0.00000,0.23690,0.00000) ==
 == 222-th k-point nmo = 82 (0.11845,0.35535,-0.11845) ==
 == 223-th k-point nmo = 83 (0.23690,0.47380,-0.23690) ==
 == 224-th k-point nmo = 83 (-0.35535,-0.35535,0.59225) ==
 == 225-th k-point nmo = 83 (-0.23690,-0.23690,0.47380) ==
 == 226-th k-point nmo = 82 (-0.11845,-0.11845,0.35535) ==
 == 227-th k-point nmo = 81 (0.00000,-0.00000,0.23690) ==
 == 228-th k-point nmo = 82 (0.11845,0.11845,0.11845) ==
 == 229-th k-point nmo = 81 (0.23690,0.23690,0.00000) ==
 == 230-th k-point nmo = 82 (0.35535,0.35535,-0.11845) ==
 == 231-th k-point nmo = 82 (-0.23690,-0.47380,0.71071) ==
 == 232-th k-point nmo = 82 (-0.11845,-0.35535,0.59225) ==
 == 233-th k-point nmo = 82 (0.00000,-0.23690,0.47380) ==
 == 234-th k-point nmo = 82 (0.11845,-0.11845,0.35535) ==
 == 235-th k-point nmo = 81 (0.23690,-0.00000,0.23690) ==
 == 236-th k-point nmo = 82 (0.35535,0.11845,0.11845) ==
 == 237-th k-point nmo = 82 (0.47380,0.23690,0.00000) ==
 == 238-th k-point nmo = 82 (-0.11845,-0.59225,0.82916) ==
 == 239-th k-point nmo = 82 (0.00000,-0.47380,0.71071) ==
 == 240-th k-point nmo = 82 (0.11845,-0.35535,0.59225) ==
 == 241-th k-point nmo = 83 (0.23690,-0.23690,0.47380) ==
 == 242-th k-point nmo = 82 (0.35535,-0.11845,0.35535) ==
 == 243-th k-point nmo = 82 (0.47380,-0.00000,0.23690) ==
 == 244-th k-point nmo = 82 (0.59225,0.11845,0.11845) ==
 == 245-th k-point nmo = 83 (-0.94761,0.23690,0.23690) ==
 == 246-th k-point nmo = 82 (-0.82916,0.35535,0.11845) ==
 == 247-th k-point nmo = 82 (-0.71071,0.47380,0.00000) ==
 == 248-th k-point nmo = 83 (-0.59225,0.59225,-0.11845) ==
 == 249-th k-point nmo = 82 (-0.47380,0.71071,-0.23690) ==
 == 250-th k-point nmo = 83 (-0.35535,0.82916,-0.35535) ==
 == 251-th k-point nmo = 82 (-0.23690,0.94761,-0.47380) ==
 == 252-th k-point nmo = 82 (-0.82916,0.11845,0.35535) ==
 == 253-th k-point nmo = 83 (-0.71071,0.23690,0.23690) ==
 == 254-th k-point nmo = 82 (-0.59225,0.35535,0.11845) ==
 == 255-th k-point nmo = 83 (-0.47380,0.47380,0.00000) ==
 == 256-th k-point nmo = 82 (-0.35535,0.59225,-0.11845) ==
 == 257-th k-point nmo = 83 (-0.23690,0.71071,-0.23690) ==
 == 258-th k-point nmo = 82 (-0.11845,0.82916,-0.35535) ==
 == 259-th k-point nmo = 82 (-0.71071,-0.00000,0.47380) ==
 == 260-th k-point nmo = 82 (-0.59225,0.11845,0.35535) ==
 == 261-th k-point nmo = 83 (-0.47380,0.23690,0.23690) ==
 == 262-th k-point nmo = 82 (-0.35535,0.35535,0.11845) ==
 == 263-th k-point nmo = 82 (-0.23690,0.47380,0.00000) ==
 == 264-th k-point nmo = 82 (-0.11845,0.59225,-0.11845) ==
 == 265-th k-point nmo = 82 (0.00000,0.71071,-0.23690) ==
 == 266-th k-point nmo = 83 (-0.59225,-0.11845,0.59225) ==
 == 267-th k-point nmo = 83 (-0.47380,-0.00000,0.47380) ==
 == 268-th k-point nmo = 82 (-0.35535,0.11845,0.35535) ==
 == 269-th k-point nmo = 83 (-0.23690,0.23690,0.23690) ==
 == 270-th k-point nmo = 82 (-0.11845,0.35535,0.11845) ==
 == 271-th k-point nmo = 81 (0.00000,0.47380,0.00000) ==
 == 272-th k-point nmo = 82 (0.11845,0.59225,-0.11845) ==
 == 273-th k-point nmo = 82 (-0.47380,-0.23690,0.71071) ==
 == 274-th k-point nmo = 82 (-0.35535,-0.11845,0.59225) ==
 == 275-th k-point nmo = 82 (-0.23690,-0.00000,0.47380) ==
 == 276-th k-point nmo = 82 (-0.11845,0.11845,0.35535) ==
 == 277-th k-point nmo = 81 (0.00000,0.23690,0.23690) ==
 == 278-th k-point nmo = 82 (0.11845,0.35535,0.11845) ==
 == 279-th k-point nmo = 82 (0.23690,0.47380,0.00000) ==
 == 280-th k-point nmo = 83 (-0.35535,-0.35535,0.82916) ==
 == 281-th k-point nmo = 83 (-0.23690,-0.23690,0.71071) ==
 == 282-th k-point nmo = 82 (-0.11845,-0.11845,0.59225) ==
 == 283-th k-point nmo = 81 (0.00000,-0.00000,0.47380) ==
 == 284-th k-point nmo = 82 (0.11845,0.11845,0.35535) ==
 == 285-th k-point nmo = 83 (0.23690,0.23690,0.23690) ==
 == 286-th k-point nmo = 82 (0.35535,0.35535,0.11845) ==
 == 287-th k-point nmo = 82 (-0.23690,-0.47380,0.94761) ==
 == 288-th k-point nmo = 82 (-0.11845,-0.35535,0.82916) ==
 == 289-th k-point nmo = 82 (0.00000,-0.23690,0.71071) ==
 == 290-th k-point nmo = 82 (0.11845,-0.11845,0.59225) ==
 == 291-th k-point nmo = 82 (0.23690,-0.00000,0.47380) ==
 == 292-th k-point nmo = 82 (0.35535,0.11845,0.35535) ==
 == 293-th k-point nmo = 83 (0.47380,0.23690,0.23690) ==
 == 294-th k-point nmo = 83 (-1.06606,0.35535,0.35535) ==
 == 295-th k-point nmo = 82 (-0.94761,0.47380,0.23690) ==
 == 296-th k-point nmo = 82 (-0.82916,0.59225,0.11845) ==
 == 297-th k-point nmo = 82 (-0.71071,0.71071,0.00000) ==
 == 298-th k-point nmo = 82 (-0.59225,0.82916,-0.11845) ==
 == 299-th k-point nmo = 82 (-0.47380,0.94761,-0.23690) ==
 == 300-th k-point nmo = 83 (-0.35535,1.06606,-0.35535) ==
 == 301-th k-point nmo = 82 (-0.94761,0.23690,0.47380) ==
 == 302-th k-point nmo = 83 (-0.82916,0.35535,0.35535) ==
 == 303-th k-point nmo = 82 (-0.71071,0.47380,0.23690) ==
 == 304-th k-point nmo = 83 (-0.59225,0.59225,0.11845) ==
 == 305-th k-point nmo = 82 (-0.47380,0.71071,0.00000) ==
 == 306-th k-point nmo = 82 (-0.35535,0.82916,-0.11845) ==
 == 307-th k-point nmo = 83 (-0.23690,0.94761,-0.23690) ==
 == 308-th k-point nmo = 82 (-0.82916,0.11845,0.59225) ==
 == 309-th k-point nmo = 82 (-0.71071,0.23690,0.47380) ==
 == 310-th k-point nmo = 83 (-0.59225,0.35535,0.35535) ==
 == 311-th k-point nmo = 83 (-0.47380,0.47380,0.23690) ==
 == 312-th k-point nmo = 82 (-0.35535,0.59225,0.11845) ==
 == 313-th k-point nmo = 82 (-0.23690,0.71071,0.00000) ==
 == 314-th k-point nmo = 82 (-0.11845,0.82916,-0.11845) ==
 == 315-th k-point nmo = 82 (-0.71071,-0.00000,0.71071) ==
 == 316-th k-point nmo = 83 (-0.59225,0.11845,0.59225) ==
 == 317-th k-point nmo = 83 (-0.47380,0.23690,0.47380) ==
 == 318-th k-point nmo = 83 (-0.35535,0.35535,0.35535) ==
 == 319-th k-point nmo = 83 (-0.23690,0.47380,0.23690) ==
 == 320-th k-point nmo = 82 (-0.11845,0.59225,0.11845) ==
 == 321-th k-point nmo = 81 (0.00000,0.71071,0.00000) ==
 == 322-th k-point nmo = 82 (-0.59225,-0.11845,0.82916) ==
 == 323-th k-point nmo = 82 (-0.47380,-0.00000,0.71071) ==
 == 324-th k-point nmo = 82 (-0.35535,0.11845,0.59225) ==
 == 325-th k-point nmo = 83 (-0.23690,0.23690,0.47380) ==
 == 326-th k-point nmo = 82 (-0.11845,0.35535,0.35535) ==
 == 327-th k-point nmo = 82 (0.00000,0.47380,0.23690) ==
 == 328-th k-point nmo = 82 (0.11845,0.59225,0.11845) ==
 == 329-th k-point nmo = 82 (-0.47380,-0.23690,0.94761) ==
 == 330-th k-point nmo = 82 (-0.35535,-0.11845,0.82916) ==
 == 331-th k-point nmo = 82 (-0.23690,-0.00000,0.71071) ==
 == 332-th k-point nmo = 82 (-0.11845,0.11845,0.59225) ==
 == 333-th k-point nmo = 82 (0.00000,0.23690,0.47380) ==
 == 334-th k-point nmo = 82 (0.11845,0.35535,0.35535) ==
 == 335-th k-point nmo = 83 (0.23690,0.47380,0.23690) ==
 == 336-th k-point nmo = 83 (-0.35535,-0.35535,1.06606) ==
 == 337-th k-point nmo = 83 (-0.23690,-0.23690,0.94761) ==
 == 338-th k-point nmo = 82 (-0.11845,-0.11845,0.82916) ==
 == 339-th k-point nmo = 81 (0.00000,-0.00000,0.71071) ==
 == 340-th k-point nmo = 82 (0.11845,0.11845,0.59225) ==
 == 341-th k-point nmo = 83 (0.23690,0.23690,0.47380) ==
 == 342-th k-point nmo = 83 (0.35535,0.35535,0.35535) ==

 Generate autoSAD guess
backing up fragment data
Atom # 0: li, charge: 0, multiplicity: 2.000000
Atom # 1: f, charge: 0, multiplicity: 2.000000
writing autosad to fragment context
Settings for isolated fragments: 
  frgm_gamma: TRUE
  frgm_center: FALSE

    Running SCF for isolated atom #0
    Fragment Input file: /n/netscratch/joonholee_lab/Lab/hieudinh//lif_solve_def2qzvp_omega_0.9_777.scratch20250909013749/autosad_frgmt_0/frgmt_input.in
    Fragment Output file: /n/netscratch/joonholee_lab/Lab/hieudinh//lif_solve_def2qzvp_omega_0.9_777.scratch20250909013749/autosad_frgmt_0/frgmt_job.out
    Fragment job begins at Tue Sep  9 01:38:27 2025

 Integrated density by DFT XC:
   Numerical integral  =     3.000000007147
   Relative error      =     0.0000002382 %
Final energy components:
 DFT Correlation            Energy =  -0.05090044545114
 DFT Exchange               Energy =  -1.75144597421909
 Kinetic (alpha)            Energy =   3.82935284817785
 Kinetic (beta)             Energy =   3.58515893685384
 Nuclear Attraction (alpha) Energy =  -9.10791001172894
 Nuclear Attraction (beta)  Energy =  -8.01914849492516
 Nuclear Repulsion          Energy =   0.00000000000000
 SEOQF                      Energy =  -0.00000000000000
 Total Coulomb              Energy =   4.05291331077687
----------------------------------------------
    SCF Energy: -7.4619798305
   Total fragment job time:  0.53 s.
    Running SCF for isolated atom #1
    Fragment Input file: /n/netscratch/joonholee_lab/Lab/hieudinh//lif_solve_def2qzvp_omega_0.9_777.scratch20250909013749/autosad_frgmt_1/frgmt_input.in
    Fragment Output file: /n/netscratch/joonholee_lab/Lab/hieudinh//lif_solve_def2qzvp_omega_0.9_777.scratch20250909013749/autosad_frgmt_1/frgmt_job.out
    Fragment job begins at Tue Sep  9 01:38:27 2025

 Integrated density by DFT XC:
   Numerical integral  =     9.000000098353
   Relative error      =     0.0000010928 %
Final energy components:
 DFT Correlation            Energy =  -0.28943664182310
 DFT Exchange               Energy =  -9.96991500891565
 Kinetic (alpha)            Energy =  51.55258412072433
 Kinetic (beta)             Energy =  47.84820569403625
 Nuclear Attraction (alpha) Energy = -125.30574122940691
 Nuclear Attraction (beta)  Energy = -113.20186276241695
 Nuclear Repulsion          Energy =   0.00000000000000
 SEOQF                      Energy =  -0.00000000020726
 Total Coulomb              Energy =  49.69105360806795
----------------------------------------------
    SCF Energy: -99.6751122199
   Total fragment job time:  0.63 s.
restoring fragment data

 ------------------------------------------------------------------------
 Allocate 231149312 B from available memory: 104811012704 B
 Time for generating SCF guess: 1.26 s

 Allocate 446984 B from available memory: 104579863392 B
 Selected algorithms for each term:
  kpts_kinetic -> @0x14a313d2d680
  kpts_nn -> @0x14a313d2d800
  kpts_rij_bigmem -> @0x14a313d2d3e0
  kpts_vnuc_df -> @0x14a313d2d380
  kpts_xc -> @0x14a313d2d2c0
 Time for computing kinetic matrix is 27.74 s
Start calculating Vnuc DD type!
Start calculating Vnuc CD type!
Start calculating Vnuc CC type!
 Time for computing nuclear attraction matrix is 65.38 s
Compute (P|Q) and use solve on the fly!
Maximum distance between P and Q is 28.75642758820560
Number of images for (P|Qn) is 1873
 Time for computing 2e2c SR integral is 0.11 s
Maximum dynamic memory per thread for 2e3c SR integrals: 0.195 GiB
Batch size for basis function pair is 2046 out of 2046
 === bvk cell = 0 has 100.000 % of the basis function pairs === 
 === bvk cell = 1 has 100.000 % of the basis function pairs === 
 === bvk cell = 2 has 99.560 % of the basis function pairs === 
 === bvk cell = 3 has 69.404 % of the basis function pairs === 
 === bvk cell = 4 has 41.642 % of the basis function pairs === 
 === bvk cell = 5 has 87.781 % of the basis function pairs === 
 === bvk cell = 6 has 100.000 % of the basis function pairs === 
 === bvk cell = 7 has 100.000 % of the basis function pairs === 
 === bvk cell = 8 has 99.756 % of the basis function pairs === 
 === bvk cell = 9 has 92.717 % of the basis function pairs === 
 === bvk cell = 10 has 41.984 % of the basis function pairs === 
 === bvk cell = 11 has 55.376 % of the basis function pairs === 
 === bvk cell = 12 has 100.000 % of the basis function pairs === 
 === bvk cell = 13 has 100.000 % of the basis function pairs === 
 === bvk cell = 14 has 99.560 % of the basis function pairs === 
 === bvk cell = 15 has 92.717 % of the basis function pairs === 
 === bvk cell = 16 has 45.552 % of the basis function pairs === 
 === bvk cell = 17 has 32.356 % of the basis function pairs === 
 === bvk cell = 18 has 58.700 % of the basis function pairs === 
 === bvk cell = 19 has 100.000 % of the basis function pairs === 
 === bvk cell = 20 has 100.000 % of the basis function pairs === 
 === bvk cell = 21 has 69.404 % of the basis function pairs === 
 === bvk cell = 22 has 41.984 % of the basis function pairs === 
 === bvk cell = 23 has 32.356 % of the basis function pairs === 
 === bvk cell = 24 has 32.307 % of the basis function pairs === 
 === bvk cell = 25 has 42.766 % of the basis function pairs === 
 === bvk cell = 26 has 80.645 % of the basis function pairs === 
 === bvk cell = 27 has 84.409 % of the basis function pairs === 
 === bvk cell = 28 has 41.642 % of the basis function pairs === 
 === bvk cell = 29 has 55.376 % of the basis function pairs === 
 === bvk cell = 30 has 58.700 % of the basis function pairs === 
 === bvk cell = 31 has 42.766 % of the basis function pairs === 
 === bvk cell = 32 has 39.541 % of the basis function pairs === 
 === bvk cell = 33 has 42.033 % of the basis function pairs === 
 === bvk cell = 34 has 41.984 % of the basis function pairs === 
 === bvk cell = 35 has 87.781 % of the basis function pairs === 
 === bvk cell = 36 has 100.000 % of the basis function pairs === 
 === bvk cell = 37 has 100.000 % of the basis function pairs === 
 === bvk cell = 38 has 80.645 % of the basis function pairs === 
 === bvk cell = 39 has 42.033 % of the basis function pairs === 
 === bvk cell = 40 has 26.637 % of the basis function pairs === 
 === bvk cell = 41 has 55.621 % of the basis function pairs === 
 === bvk cell = 42 has 100.000 % of the basis function pairs === 
 === bvk cell = 43 has 100.000 % of the basis function pairs === 
 === bvk cell = 44 has 100.000 % of the basis function pairs === 
 === bvk cell = 45 has 84.409 % of the basis function pairs === 
 === bvk cell = 46 has 41.984 % of the basis function pairs === 
 === bvk cell = 47 has 55.621 % of the basis function pairs === 
 === bvk cell = 48 has 91.691 % of the basis function pairs === 
 === bvk cell = 49 has 100.000 % of the basis function pairs === 
 === bvk cell = 50 has 100.000 % of the basis function pairs === 
 === bvk cell = 51 has 84.409 % of the basis function pairs === 
 === bvk cell = 52 has 41.984 % of the basis function pairs === 
 === bvk cell = 53 has 55.621 % of the basis function pairs === 
 === bvk cell = 54 has 91.691 % of the basis function pairs === 
 === bvk cell = 55 has 100.000 % of the basis function pairs === 
 === bvk cell = 56 has 100.000 % of the basis function pairs === 
 === bvk cell = 57 has 94.233 % of the basis function pairs === 
 === bvk cell = 58 has 45.943 % of the basis function pairs === 
 === bvk cell = 59 has 32.893 % of the basis function pairs === 
 === bvk cell = 60 has 60.508 % of the basis function pairs === 
 === bvk cell = 61 has 100.000 % of the basis function pairs === 
 === bvk cell = 62 has 100.000 % of the basis function pairs === 
 === bvk cell = 63 has 84.409 % of the basis function pairs === 
 === bvk cell = 64 has 45.943 % of the basis function pairs === 
 === bvk cell = 65 has 37.195 % of the basis function pairs === 
 === bvk cell = 66 has 39.834 % of the basis function pairs === 
 === bvk cell = 67 has 58.700 % of the basis function pairs === 
 === bvk cell = 68 has 91.056 % of the basis function pairs === 
 === bvk cell = 69 has 99.169 % of the basis function pairs === 
 === bvk cell = 70 has 41.984 % of the basis function pairs === 
 === bvk cell = 71 has 32.893 % of the basis function pairs === 
 === bvk cell = 72 has 39.834 % of the basis function pairs === 
 === bvk cell = 73 has 32.307 % of the basis function pairs === 
 === bvk cell = 74 has 42.424 % of the basis function pairs === 
 === bvk cell = 75 has 46.285 % of the basis function pairs === 
 === bvk cell = 76 has 45.943 % of the basis function pairs === 
 === bvk cell = 77 has 55.621 % of the basis function pairs === 
 === bvk cell = 78 has 60.508 % of the basis function pairs === 
 === bvk cell = 79 has 58.700 % of the basis function pairs === 
 === bvk cell = 80 has 42.424 % of the basis function pairs === 
 === bvk cell = 81 has 30.108 % of the basis function pairs === 
 === bvk cell = 82 has 37.195 % of the basis function pairs === 
 === bvk cell = 83 has 34.066 % of the basis function pairs === 
 === bvk cell = 84 has 91.691 % of the basis function pairs === 
 === bvk cell = 85 has 100.000 % of the basis function pairs === 
 === bvk cell = 86 has 91.056 % of the basis function pairs === 
 === bvk cell = 87 has 46.285 % of the basis function pairs === 
 === bvk cell = 88 has 37.195 % of the basis function pairs === 
 === bvk cell = 89 has 41.691 % of the basis function pairs === 
 === bvk cell = 90 has 64.272 % of the basis function pairs === 
 === bvk cell = 91 has 100.000 % of the basis function pairs === 
 === bvk cell = 92 has 100.000 % of the basis function pairs === 
 === bvk cell = 93 has 99.169 % of the basis function pairs === 
 === bvk cell = 94 has 45.943 % of the basis function pairs === 
 === bvk cell = 95 has 34.066 % of the basis function pairs === 
 === bvk cell = 96 has 64.272 % of the basis function pairs === 
 === bvk cell = 97 has 100.000 % of the basis function pairs === 
 === bvk cell = 98 has 100.000 % of the basis function pairs === 
 === bvk cell = 99 has 80.645 % of the basis function pairs === 
 === bvk cell = 100 has 42.033 % of the basis function pairs === 
 === bvk cell = 101 has 26.637 % of the basis function pairs === 
 === bvk cell = 102 has 55.621 % of the basis function pairs === 
 === bvk cell = 103 has 87.781 % of the basis function pairs === 
 === bvk cell = 104 has 100.000 % of the basis function pairs === 
 === bvk cell = 105 has 80.645 % of the basis function pairs === 
 === bvk cell = 106 has 42.424 % of the basis function pairs === 
 === bvk cell = 107 has 30.108 % of the basis function pairs === 
 === bvk cell = 108 has 32.893 % of the basis function pairs === 
 === bvk cell = 109 has 55.376 % of the basis function pairs === 
 === bvk cell = 110 has 87.390 % of the basis function pairs === 
 === bvk cell = 111 has 91.056 % of the basis function pairs === 
 === bvk cell = 112 has 42.033 % of the basis function pairs === 
 === bvk cell = 113 has 30.108 % of the basis function pairs === 
 === bvk cell = 114 has 37.195 % of the basis function pairs === 
 === bvk cell = 115 has 32.356 % of the basis function pairs === 
 === bvk cell = 116 has 42.913 % of the basis function pairs === 
 === bvk cell = 117 has 49.951 % of the basis function pairs === 
 === bvk cell = 118 has 46.285 % of the basis function pairs === 
 === bvk cell = 119 has 26.637 % of the basis function pairs === 
 === bvk cell = 120 has 32.893 % of the basis function pairs === 
 === bvk cell = 121 has 32.356 % of the basis function pairs === 
 === bvk cell = 122 has 24.242 % of the basis function pairs === 
 === bvk cell = 123 has 39.394 % of the basis function pairs === 
 === bvk cell = 124 has 39.541 % of the basis function pairs === 
 === bvk cell = 125 has 37.195 % of the basis function pairs === 
 === bvk cell = 126 has 55.621 % of the basis function pairs === 
 === bvk cell = 127 has 55.376 % of the basis function pairs === 
 === bvk cell = 128 has 42.913 % of the basis function pairs === 
 === bvk cell = 129 has 39.394 % of the basis function pairs === 
 === bvk cell = 130 has 23.509 % of the basis function pairs === 
 === bvk cell = 131 has 26.588 % of the basis function pairs === 
 === bvk cell = 132 has 41.691 % of the basis function pairs === 
 === bvk cell = 133 has 87.781 % of the basis function pairs === 
 === bvk cell = 134 has 87.390 % of the basis function pairs === 
 === bvk cell = 135 has 49.951 % of the basis function pairs === 
 === bvk cell = 136 has 39.541 % of the basis function pairs === 
 === bvk cell = 137 has 26.588 % of the basis function pairs === 
 === bvk cell = 138 has 45.601 % of the basis function pairs === 
 === bvk cell = 139 has 64.272 % of the basis function pairs === 
 === bvk cell = 140 has 100.000 % of the basis function pairs === 
 === bvk cell = 141 has 91.056 % of the basis function pairs === 
 === bvk cell = 142 has 46.285 % of the basis function pairs === 
 === bvk cell = 143 has 37.195 % of the basis function pairs === 
 === bvk cell = 144 has 41.691 % of the basis function pairs === 
 === bvk cell = 145 has 64.272 % of the basis function pairs === 
 === bvk cell = 146 has 91.691 % of the basis function pairs === 
 === bvk cell = 147 has 42.766 % of the basis function pairs === 
 === bvk cell = 148 has 39.541 % of the basis function pairs === 
 === bvk cell = 149 has 42.033 % of the basis function pairs === 
 === bvk cell = 150 has 41.984 % of the basis function pairs === 
 === bvk cell = 151 has 41.642 % of the basis function pairs === 
 === bvk cell = 152 has 55.376 % of the basis function pairs === 
 === bvk cell = 153 has 58.700 % of the basis function pairs === 
 === bvk cell = 154 has 39.541 % of the basis function pairs === 
 === bvk cell = 155 has 42.424 % of the basis function pairs === 
 === bvk cell = 156 has 45.943 % of the basis function pairs === 
 === bvk cell = 157 has 41.984 % of the basis function pairs === 
 === bvk cell = 158 has 40.127 % of the basis function pairs === 
 === bvk cell = 159 has 42.913 % of the basis function pairs === 
 === bvk cell = 160 has 42.424 % of the basis function pairs === 
 === bvk cell = 161 has 42.033 % of the basis function pairs === 
 === bvk cell = 162 has 45.943 % of the basis function pairs === 
 === bvk cell = 163 has 45.552 % of the basis function pairs === 
 === bvk cell = 164 has 39.785 % of the basis function pairs === 
 === bvk cell = 165 has 32.307 % of the basis function pairs === 
 === bvk cell = 166 has 39.394 % of the basis function pairs === 
 === bvk cell = 167 has 30.108 % of the basis function pairs === 
 === bvk cell = 168 has 41.984 % of the basis function pairs === 
 === bvk cell = 169 has 41.984 % of the basis function pairs === 
 === bvk cell = 170 has 39.785 % of the basis function pairs === 
 === bvk cell = 171 has 36.461 % of the basis function pairs === 
 === bvk cell = 172 has 24.242 % of the basis function pairs === 
 === bvk cell = 173 has 23.509 % of the basis function pairs === 
 === bvk cell = 174 has 37.195 % of the basis function pairs === 
 === bvk cell = 175 has 41.642 % of the basis function pairs === 
 === bvk cell = 176 has 40.127 % of the basis function pairs === 
 === bvk cell = 177 has 32.307 % of the basis function pairs === 
 === bvk cell = 178 has 24.242 % of the basis function pairs === 
 === bvk cell = 179 has 14.907 % of the basis function pairs === 
 === bvk cell = 180 has 26.588 % of the basis function pairs === 
 === bvk cell = 181 has 34.066 % of the basis function pairs === 
 === bvk cell = 182 has 55.376 % of the basis function pairs === 
 === bvk cell = 183 has 42.913 % of the basis function pairs === 
 === bvk cell = 184 has 39.394 % of the basis function pairs === 
 === bvk cell = 185 has 23.509 % of the basis function pairs === 
 === bvk cell = 186 has 26.588 % of the basis function pairs === 
 === bvk cell = 187 has 41.691 % of the basis function pairs === 
 === bvk cell = 188 has 55.621 % of the basis function pairs === 
 === bvk cell = 189 has 58.700 % of the basis function pairs === 
 === bvk cell = 190 has 42.424 % of the basis function pairs === 
 === bvk cell = 191 has 30.108 % of the basis function pairs === 
 === bvk cell = 192 has 37.195 % of the basis function pairs === 
 === bvk cell = 193 has 34.066 % of the basis function pairs === 
 === bvk cell = 194 has 55.621 % of the basis function pairs === 
 === bvk cell = 195 has 60.508 % of the basis function pairs === 
 === bvk cell = 196 has 42.766 % of the basis function pairs === 
 === bvk cell = 197 has 80.645 % of the basis function pairs === 
 === bvk cell = 198 has 84.409 % of the basis function pairs === 
 === bvk cell = 199 has 69.404 % of the basis function pairs === 
 === bvk cell = 200 has 41.984 % of the basis function pairs === 
 === bvk cell = 201 has 32.356 % of the basis function pairs === 
 === bvk cell = 202 has 32.307 % of the basis function pairs === 
 === bvk cell = 203 has 80.645 % of the basis function pairs === 
 === bvk cell = 204 has 94.233 % of the basis function pairs === 
 === bvk cell = 205 has 92.717 % of the basis function pairs === 
 === bvk cell = 206 has 69.062 % of the basis function pairs === 
 === bvk cell = 207 has 39.785 % of the basis function pairs === 
 === bvk cell = 208 has 24.242 % of the basis function pairs === 
 === bvk cell = 209 has 42.424 % of the basis function pairs === 
 === bvk cell = 210 has 84.409 % of the basis function pairs === 
 === bvk cell = 211 has 92.717 % of the basis function pairs === 
 === bvk cell = 212 has 73.314 % of the basis function pairs === 
 === bvk cell = 213 has 45.503 % of the basis function pairs === 
 === bvk cell = 214 has 36.461 % of the basis function pairs === 
 === bvk cell = 215 has 39.394 % of the basis function pairs === 
 === bvk cell = 216 has 46.285 % of the basis function pairs === 
 === bvk cell = 217 has 69.404 % of the basis function pairs === 
 === bvk cell = 218 has 69.062 % of the basis function pairs === 
 === bvk cell = 219 has 45.503 % of the basis function pairs === 
 === bvk cell = 220 has 37.341 % of the basis function pairs === 
 === bvk cell = 221 has 24.242 % of the basis function pairs === 
 === bvk cell = 222 has 39.541 % of the basis function pairs === 
 === bvk cell = 223 has 45.943 % of the basis function pairs === 
 === bvk cell = 224 has 41.984 % of the basis function pairs === 
 === bvk cell = 225 has 39.785 % of the basis function pairs === 
 === bvk cell = 226 has 36.461 % of the basis function pairs === 
 === bvk cell = 227 has 24.242 % of the basis function pairs === 
 === bvk cell = 228 has 23.509 % of the basis function pairs === 
 === bvk cell = 229 has 37.195 % of the basis function pairs === 
 === bvk cell = 230 has 41.984 % of the basis function pairs === 
 === bvk cell = 231 has 32.356 % of the basis function pairs === 
 === bvk cell = 232 has 24.242 % of the basis function pairs === 
 === bvk cell = 233 has 39.394 % of the basis function pairs === 
 === bvk cell = 234 has 39.541 % of the basis function pairs === 
 === bvk cell = 235 has 37.195 % of the basis function pairs === 
 === bvk cell = 236 has 26.637 % of the basis function pairs === 
 === bvk cell = 237 has 32.893 % of the basis function pairs === 
 === bvk cell = 238 has 32.307 % of the basis function pairs === 
 === bvk cell = 239 has 42.424 % of the basis function pairs === 
 === bvk cell = 240 has 46.285 % of the basis function pairs === 
 === bvk cell = 241 has 45.943 % of the basis function pairs === 
 === bvk cell = 242 has 41.984 % of the basis function pairs === 
 === bvk cell = 243 has 32.893 % of the basis function pairs === 
 === bvk cell = 244 has 39.834 % of the basis function pairs === 
 === bvk cell = 245 has 100.000 % of the basis function pairs === 
 === bvk cell = 246 has 100.000 % of the basis function pairs === 
 === bvk cell = 247 has 99.560 % of the basis function pairs === 
 === bvk cell = 248 has 92.717 % of the basis function pairs === 
 === bvk cell = 249 has 45.552 % of the basis function pairs === 
 === bvk cell = 250 has 32.356 % of the basis function pairs === 
 === bvk cell = 251 has 58.700 % of the basis function pairs === 
 === bvk cell = 252 has 100.000 % of the basis function pairs === 
 === bvk cell = 253 has 99.756 % of the basis function pairs === 
 === bvk cell = 254 has 97.996 % of the basis function pairs === 
 === bvk cell = 255 has 73.314 % of the basis function pairs === 
 === bvk cell = 256 has 39.785 % of the basis function pairs === 
 === bvk cell = 257 has 42.913 % of the basis function pairs === 
 === bvk cell = 258 has 91.056 % of the basis function pairs === 
 === bvk cell = 259 has 99.560 % of the basis function pairs === 
 === bvk cell = 260 has 97.996 % of the basis function pairs === 
 === bvk cell = 261 has 85.142 % of the basis function pairs === 
 === bvk cell = 262 has 45.503 % of the basis function pairs === 
 === bvk cell = 263 has 32.307 % of the basis function pairs === 
 === bvk cell = 264 has 49.951 % of the basis function pairs === 
 === bvk cell = 265 has 99.169 % of the basis function pairs === 
 === bvk cell = 266 has 92.717 % of the basis function pairs === 
 === bvk cell = 267 has 73.314 % of the basis function pairs === 
 === bvk cell = 268 has 45.503 % of the basis function pairs === 
 === bvk cell = 269 has 36.461 % of the basis function pairs === 
 === bvk cell = 270 has 39.394 % of the basis function pairs === 
 === bvk cell = 271 has 46.285 % of the basis function pairs === 
 === bvk cell = 272 has 84.409 % of the basis function pairs === 
 === bvk cell = 273 has 45.552 % of the basis function pairs === 
 === bvk cell = 274 has 39.785 % of the basis function pairs === 
 === bvk cell = 275 has 32.307 % of the basis function pairs === 
 === bvk cell = 276 has 39.394 % of the basis function pairs === 
 === bvk cell = 277 has 30.108 % of the basis function pairs === 
 === bvk cell = 278 has 42.033 % of the basis function pairs === 
 === bvk cell = 279 has 45.943 % of the basis function pairs === 
 === bvk cell = 280 has 32.356 % of the basis function pairs === 
 === bvk cell = 281 has 42.913 % of the basis function pairs === 
 === bvk cell = 282 has 49.951 % of the basis function pairs === 
 === bvk cell = 283 has 46.285 % of the basis function pairs === 
 === bvk cell = 284 has 42.033 % of the basis function pairs === 
 === bvk cell = 285 has 30.108 % of the basis function pairs === 
 === bvk cell = 286 has 37.195 % of the basis function pairs === 
 === bvk cell = 287 has 58.700 % of the basis function pairs === 
 === bvk cell = 288 has 91.056 % of the basis function pairs === 
 === bvk cell = 289 has 99.169 % of the basis function pairs === 
 === bvk cell = 290 has 84.409 % of the basis function pairs === 
 === bvk cell = 291 has 45.943 % of the basis function pairs === 
 === bvk cell = 292 has 37.195 % of the basis function pairs === 
 === bvk cell = 293 has 39.834 % of the basis function pairs === 
 === bvk cell = 294 has 100.000 % of the basis function pairs === 
 === bvk cell = 295 has 100.000 % of the basis function pairs === 
 === bvk cell = 296 has 99.756 % of the basis function pairs === 
 === bvk cell = 297 has 92.717 % of the basis function pairs === 
 === bvk cell = 298 has 41.984 % of the basis function pairs === 
 === bvk cell = 299 has 55.376 % of the basis function pairs === 
 === bvk cell = 300 has 100.000 % of the basis function pairs === 
 === bvk cell = 301 has 100.000 % of the basis function pairs === 
 === bvk cell = 302 has 100.000 % of the basis function pairs === 
 === bvk cell = 303 has 97.996 % of the basis function pairs === 
 === bvk cell = 304 has 69.062 % of the basis function pairs === 
 === bvk cell = 305 has 40.127 % of the basis function pairs === 
 === bvk cell = 306 has 87.390 % of the basis function pairs === 
 === bvk cell = 307 has 100.000 % of the basis function pairs === 
 === bvk cell = 308 has 99.756 % of the basis function pairs === 
 === bvk cell = 309 has 97.996 % of the basis function pairs === 
 === bvk cell = 310 has 73.314 % of the basis function pairs === 
 === bvk cell = 311 has 39.785 % of the basis function pairs === 
 === bvk cell = 312 has 42.913 % of the basis function pairs === 
 === bvk cell = 313 has 91.056 % of the basis function pairs === 
 === bvk cell = 314 has 100.000 % of the basis function pairs === 
 === bvk cell = 315 has 92.717 % of the basis function pairs === 
 === bvk cell = 316 has 69.062 % of the basis function pairs === 
 === bvk cell = 317 has 39.785 % of the basis function pairs === 
 === bvk cell = 318 has 24.242 % of the basis function pairs === 
 === bvk cell = 319 has 42.424 % of the basis function pairs === 
 === bvk cell = 320 has 80.645 % of the basis function pairs === 
 === bvk cell = 321 has 94.233 % of the basis function pairs === 
 === bvk cell = 322 has 41.984 % of the basis function pairs === 
 === bvk cell = 323 has 40.127 % of the basis function pairs === 
 === bvk cell = 324 has 42.913 % of the basis function pairs === 
 === bvk cell = 325 has 42.424 % of the basis function pairs === 
 === bvk cell = 326 has 39.541 % of the basis function pairs === 
 === bvk cell = 327 has 42.424 % of the basis function pairs === 
 === bvk cell = 328 has 45.943 % of the basis function pairs === 
 === bvk cell = 329 has 55.376 % of the basis function pairs === 
 === bvk cell = 330 has 87.390 % of the basis function pairs === 
 === bvk cell = 331 has 91.056 % of the basis function pairs === 
 === bvk cell = 332 has 80.645 % of the basis function pairs === 
 === bvk cell = 333 has 42.424 % of the basis function pairs === 
 === bvk cell = 334 has 30.108 % of the basis function pairs === 
 === bvk cell = 335 has 32.893 % of the basis function pairs === 
 === bvk cell = 336 has 100.000 % of the basis function pairs === 
 === bvk cell = 337 has 100.000 % of the basis function pairs === 
 === bvk cell = 338 has 100.000 % of the basis function pairs === 
 === bvk cell = 339 has 94.233 % of the basis function pairs === 
 === bvk cell = 340 has 45.943 % of the basis function pairs === 
 === bvk cell = 341 has 32.893 % of the basis function pairs === 
 === bvk cell = 342 has 60.508 % of the basis function pairs === 
Static memory requirement for 2e3c SR integrals: 0.292 GB
There are 1 munu batches for computing 2e3c SR integrals with latsum
There are 2 Q batches for computing 2e3c SR integrals with latsum
 Time for computing 2e3c SR integral (CD) is 6.81 s
Maximum dynamic memory per thread for 2e3c SR integrals: 0.016 GiB
Batch size for basis function pair is 2067 out of 2067
 === bvk cell = 0 has 100.000 % of the basis function pairs === 
 === bvk cell = 1 has 79.197 % of the basis function pairs === 
 === bvk cell = 2 has 7.837 % of the basis function pairs === 
 === bvk cell = 3 has 0.000 % of the basis function pairs === 
 === bvk cell = 4 has 0.000 % of the basis function pairs === 
 === bvk cell = 5 has 1.500 % of the basis function pairs === 
 === bvk cell = 6 has 65.506 % of the basis function pairs === 
 === bvk cell = 7 has 79.197 % of the basis function pairs === 
 === bvk cell = 8 has 22.738 % of the basis function pairs === 
 === bvk cell = 9 has 0.145 % of the basis function pairs === 
 === bvk cell = 10 has 0.000 % of the basis function pairs === 
 === bvk cell = 11 has 0.000 % of the basis function pairs === 
 === bvk cell = 12 has 9.627 % of the basis function pairs === 
 === bvk cell = 13 has 72.134 % of the basis function pairs === 
 === bvk cell = 14 has 7.837 % of the basis function pairs === 
 === bvk cell = 15 has 0.145 % of the basis function pairs === 
 === bvk cell = 16 has 0.000 % of the basis function pairs === 
 === bvk cell = 17 has 0.000 % of the basis function pairs === 
 === bvk cell = 18 has 0.000 % of the basis function pairs === 
 === bvk cell = 19 has 1.500 % of the basis function pairs === 
 === bvk cell = 20 has 15.820 % of the basis function pairs === 
 === bvk cell = 21 has 0.000 % of the basis function pairs === 
 === bvk cell = 22 has 0.000 % of the basis function pairs === 
 === bvk cell = 23 has 0.000 % of the basis function pairs === 
 === bvk cell = 24 has 0.000 % of the basis function pairs === 
 === bvk cell = 25 has 0.000 % of the basis function pairs === 
 === bvk cell = 26 has 0.000 % of the basis function pairs === 
 === bvk cell = 27 has 0.000 % of the basis function pairs === 
 === bvk cell = 28 has 0.000 % of the basis function pairs === 
 === bvk cell = 29 has 0.000 % of the basis function pairs === 
 === bvk cell = 30 has 0.000 % of the basis function pairs === 
 === bvk cell = 31 has 0.000 % of the basis function pairs === 
 === bvk cell = 32 has 0.000 % of the basis function pairs === 
 === bvk cell = 33 has 0.000 % of the basis function pairs === 
 === bvk cell = 34 has 0.000 % of the basis function pairs === 
 === bvk cell = 35 has 1.500 % of the basis function pairs === 
 === bvk cell = 36 has 9.627 % of the basis function pairs === 
 === bvk cell = 37 has 1.500 % of the basis function pairs === 
 === bvk cell = 38 has 0.000 % of the basis function pairs === 
 === bvk cell = 39 has 0.000 % of the basis function pairs === 
 === bvk cell = 40 has 0.000 % of the basis function pairs === 
 === bvk cell = 41 has 0.000 % of the basis function pairs === 
 === bvk cell = 42 has 65.506 % of the basis function pairs === 
 === bvk cell = 43 has 72.134 % of the basis function pairs === 
 === bvk cell = 44 has 15.820 % of the basis function pairs === 
 === bvk cell = 45 has 0.000 % of the basis function pairs === 
 === bvk cell = 46 has 0.000 % of the basis function pairs === 
 === bvk cell = 47 has 0.000 % of the basis function pairs === 
 === bvk cell = 48 has 10.353 % of the basis function pairs === 
 === bvk cell = 49 has 72.134 % of the basis function pairs === 
 === bvk cell = 50 has 15.820 % of the basis function pairs === 
 === bvk cell = 51 has 0.000 % of the basis function pairs === 
 === bvk cell = 52 has 0.000 % of the basis function pairs === 
 === bvk cell = 53 has 0.000 % of the basis function pairs === 
 === bvk cell = 54 has 10.353 % of the basis function pairs === 
 === bvk cell = 55 has 65.506 % of the basis function pairs === 
 === bvk cell = 56 has 15.820 % of the basis function pairs === 
 === bvk cell = 57 has 0.145 % of the basis function pairs === 
 === bvk cell = 58 has 0.000 % of the basis function pairs === 
 === bvk cell = 59 has 0.000 % of the basis function pairs === 
 === bvk cell = 60 has 0.000 % of the basis function pairs === 
 === bvk cell = 61 has 9.627 % of the basis function pairs === 
 === bvk cell = 62 has 33.817 % of the basis function pairs === 
 === bvk cell = 63 has 0.000 % of the basis function pairs === 
 === bvk cell = 64 has 0.000 % of the basis function pairs === 
 === bvk cell = 65 has 0.000 % of the basis function pairs === 
[...]
 1.14230 1.16958 1.16960 1.30851 1.41334 1.41334 1.73249 1.73260 1.81143 1.86196
 1.99088 1.99105 2.24215 2.36662 2.37175 2.47278 2.72244 2.73854 2.74695 2.86587
 2.90140 2.92453 2.95666 3.55783 3.56428 3.77809 3.78520 3.78863 4.21898 4.47993
 4.76576 5.21426 5.22392 5.50473 5.51041 5.57688 6.10417 6.10423 6.18690 6.40886
 6.41057 7.01024 7.01604 7.01606 7.33848 8.19982 8.24278 8.25321 11.60240 11.60241
 11.61928 11.62966 11.62971 11.66965 11.66968 11.66973 11.73020 13.14226 14.77152 14.92189
 15.16262 15.16375 15.31132 15.31237 15.44231 16.59692 16.59694 16.69465 16.89186 16.89217
 17.76629 56.18197 287.03578
 == 319-th k-point (-0.23690,0.47380,0.23690) occupation: 6==
 -23.85915 -1.46281 -0.67993 -0.04623 0.01470 0.02070 0.46422 0.64459 0.74518 0.75669
 0.99406 1.21605 1.21642 1.34846 1.43058 1.43605 1.64553 1.74284 1.79137 1.93971
 1.94445 2.00865 2.26694 2.34890 2.37154 2.46263 2.58464 2.65479 2.70085 2.81674
 2.89557 2.93344 2.99035 3.54030 3.60581 3.76100 3.86048 3.87474 4.22034 4.50837
 4.76505 5.01895 5.11091 5.34786 5.51399 5.54784 6.16679 6.18477 6.26923 6.53845
 6.56792 6.69476 7.40522 7.84042 8.13892 8.36768 8.41995 8.54226 11.61248 11.61626
 11.62460 11.63220 11.65096 11.65323 11.66021 11.67998 11.71120 12.60325 14.80052 14.91961
 15.05888 15.10587 15.23344 15.31970 15.34370 16.62374 16.66082 16.72344 16.94444 16.99591
 17.41369 55.89688 286.68423
 == 320-th k-point (-0.11845,0.59225,0.11845) occupation: 6==
 -23.85915 -1.46256 -0.67580 -0.05169 0.00024 0.00845 0.52268 0.64255 0.72340 0.77774
 0.84830 1.29113 1.32087 1.42361 1.48177 1.49844 1.57546 1.70962 1.75165 1.87321
 1.99893 2.07974 2.10662 2.30962 2.38267 2.52337 2.55616 2.66586 2.73282 2.80112
 2.88795 2.98417 3.13433 3.43038 3.62378 3.85744 3.93466 4.13361 4.63988 4.82460
 4.87756 4.94194 5.09424 5.13202 5.39737 6.00363 6.09429 6.20101 6.24727 6.33033
 6.49810 7.53535 7.71585 8.12332 8.30875 8.34632 8.59496 11.60522 11.61744 11.63159
 11.63695 11.64338 11.64734 11.64977 11.67557 11.72704 12.78920 14.87807 14.94005 14.97356
 15.01418 15.11606 15.12234 15.26605 16.48151 16.55946 16.67004 16.73508 16.82946 17.16311
 55.68051 286.41057
 == 321-th k-point (0.00000,0.71071,0.00000) occupation: 6==
 -23.85915 -1.46225 -0.67144 -0.07039 0.00051 0.00051 0.56643 0.65051 0.69480 0.78618
 0.78618 1.28261 1.42271 1.53117 1.58418 1.58420 1.62368 1.62368 1.70446 1.84375
 1.94195 1.94197 2.22449 2.33815 2.36193 2.36194 2.39095 2.65779 2.71575 2.82733
 2.82784 2.88247 3.12036 3.50245 3.85697 3.85700 4.15661 4.83710 4.85816 4.85818
 4.92147 5.08977 5.12966 5.12978 5.74879 5.90603 5.90603 6.13275 6.31127 6.31793
 7.59077 7.95761 7.95772 8.06373 8.41684 8.41691 11.59613 11.61140 11.61140 11.61975
 11.64361 11.64621 11.64621 11.68058 11.73823 13.20169 14.94395 14.98790 14.98791 15.00597
 15.10124 15.15086 15.15088 16.37078 16.37078 16.58367 16.58676 16.72476 16.82669 55.32415
 285.96161
 == 322-th k-point (-0.59225,-0.11845,0.82916) occupation: 6==
 -23.85915 -1.46219 -0.67180 -0.05972 -0.01514 0.00563 0.56511 0.61554 0.69793 0.76393
 0.89468 1.23064 1.33322 1.43231 1.53438 1.58636 1.61568 1.73752 1.87124 1.88099
 1.99419 2.08926 2.13408 2.15317 2.25409 2.34106 2.44065 2.63764 2.69878 2.85756
 2.87320 2.95506 3.25490 3.39044 3.60360 3.70186 3.77594 4.21323 4.59354 4.69409
 5.08982 5.11570 5.12564 5.33668 5.51795 5.83784 5.86126 6.15256 6.21947 6.39430
 6.61194 7.42785 7.50858 8.02902 8.12288 8.40038 8.89991 11.61194 11.62424 11.63033
 11.64083 11.64224 11.65064 11.66117 11.66554 11.81187 12.42402 14.85452 14.87594 15.09606
 15.11346 15.14396 15.25141 15.37203 16.33678 16.38528 16.64780 16.71666 16.83182 17.30846
 55.72214 286.46872
 == 323-th k-point (-0.47380,-0.00000,0.71071) occupation: 6==
 -23.85915 -1.46212 -0.67153 -0.04707 -0.03356 0.00870 0.57348 0.59080 0.70584 0.75118
 0.99418 1.12010 1.31762 1.44157 1.45636 1.62387 1.66941 1.83388 1.88568 1.94685
 1.98729 2.02677 2.18255 2.22901 2.38198 2.39429 2.52738 2.54014 2.55116 2.77213
 2.87366 2.88249 3.18541 3.46334 3.46852 3.65713 3.75130 4.07545 4.51249 4.94431
 5.04768 5.31679 5.42265 5.47035 5.54538 5.59637 5.92498 5.96131 6.12913 6.37814
 7.08235 7.41959 7.70105 7.73747 8.31643 8.38797 8.68219 11.61894 11.61928 11.62893
 11.63568 11.64040 11.64287 11.64962 11.67617 11.78854 12.38024 14.79323 15.03434 15.06855
 15.21813 15.26618 15.39070 15.40201 16.18787 16.39174 16.48536 16.72445 16.88256 17.55799
 55.85499 286.63607
 == 324-th k-point (-0.35535,0.11845,0.59225) occupation: 6==
 -23.85915 -1.46239 -0.67523 -0.04723 -0.01536 0.01668 0.51219 0.61418 0.73430 0.75161
 1.01481 1.12247 1.32457 1.38281 1.41916 1.51360 1.66707 1.80977 1.90081 1.93365
 1.99035 2.06816 2.12825 2.28698 2.34615 2.39500 2.43997 2.55080 2.69963 2.80852
 2.81433 2.87785 3.35909 3.54138 3.62271 3.73164 3.81504 3.96477 4.71497 4.74978
 5.00589 5.17584 5.24628 5.46953 5.51119 5.84053 6.04211 6.20175 6.31124 6.41595
 6.66799 7.39617 7.59136 8.02543 8.21577 8.33833 8.44279 11.61442 11.61797 11.62159
 11.62828 11.63955 11.65010 11.65657 11.66793 11.69915 12.27975 14.89063 14.91017 15.05810
 15.13168 15.18648 15.29153 15.33881 16.38896 16.51982 16.67480 16.78926 17.05729 17.15504
 55.74560 286.50595
 == 325-th k-point (-0.23690,0.23690,0.47380) occupation: 6==
 -23.85915 -1.46281 -0.67993 -0.04623 0.01470 0.02070 0.46422 0.64459 0.74518 0.75669
 0.99406 1.21605 1.21642 1.34846 1.43058 1.43605 1.64553 1.74284 1.79137 1.93971
 1.94445 2.00865 2.26694 2.34890 2.37154 2.46263 2.58464 2.65479 2.70085 2.81674
 2.89557 2.93344 2.99035 3.54030 3.60581 3.76100 3.86048 3.87474 4.22034 4.50837
 4.76505 5.01895 5.11091 5.34786 5.51399 5.54784 6.16679 6.18477 6.26923 6.53845
 6.56792 6.69476 7.40522 7.84042 8.13892 8.36768 8.41995 8.54226 11.61248 11.61626
 11.62460 11.63220 11.65096 11.65323 11.66021 11.67998 11.71120 12.60325 14.80052 14.91961
 15.05888 15.10587 15.23344 15.31970 15.34370 16.62374 16.66082 16.72344 16.94444 16.99591
 17.41369 55.89688 286.68423
 == 326-th k-point (-0.11845,0.35535,0.35535) occupation: 6==
 -23.85915 -1.46306 -0.68215 -0.03526 0.00828 0.03049 0.45566 0.64600 0.76197 0.76250
 1.07758 1.07926 1.15961 1.39012 1.40082 1.46949 1.62216 1.69860 1.85693 1.89009
 1.90671 2.00893 2.29839 2.31149 2.47880 2.48963 2.65303 2.80079 2.81996 2.84072
 2.93670 2.99270 3.07368 3.56110 3.57542 3.81363 3.93954 4.24353 4.54049 4.66098
 4.76451 4.96876 5.12516 5.36373 5.54581 6.21444 6.23537 6.26701 6.35880 6.56093
 6.82808 7.43063 7.48064 7.82063 7.90377 8.53623 8.66395 11.59782 11.60689 11.61913
 11.62630 11.62806 11.65279 11.65934 11.67519 11.70122 12.25261 14.81552 14.89750 14.91839
 15.02844 15.10808 15.24461 15.32399 16.65659 16.66570 16.73052 16.78127 17.13833 17.24761
 55.80038 286.56550
 == 327-th k-point (0.00000,0.47380,0.23690) occupation: 6==
 -23.85915 -1.46295 -0.68037 -0.03383 -0.00002 0.02167 0.48254 0.64540 0.74941 0.77272
 0.92434 1.19662 1.24282 1.36654 1.44124 1.48433 1.60718 1.68215 1.77538 1.87814
 1.99416 2.06589 2.21969 2.33588 2.34677 2.51098 2.62692 2.66709 2.86991 2.89366
 2.95483 3.05242 3.14586 3.45118 3.67251 3.91330 4.11264 4.12069 4.60785 4.67743
 4.77191 4.95511 5.13642 5.29330 5.46297 6.18966 6.21315 6.25805 6.27022 6.39152
 6.69623 7.48201 7.51803 7.98806 8.43147 8.53758 8.56855 11.60929 11.61022 11.61811
 11.63436 11.63665 11.64882 11.66190 11.66411 11.71589 12.20068 14.85174 14.88103 14.91846
 15.02214 15.11588 15.20183 15.27683 16.61715 16.68842 16.70856 16.75372 16.95576 17.27029
 55.74239 286.49083
 == 328-th k-point (0.11845,0.59225,0.11845) occupation: 6==
 -23.85915 -1.46256 -0.67580 -0.05169 0.00024 0.00845 0.52268 0.64255 0.72340 0.77774
 0.84830 1.29113 1.32086 1.42361 1.48177 1.49843 1.57546 1.70959 1.75156 1.87321
 1.99881 2.07972 2.10658 2.30947 2.38246 2.52140 2.55614 2.66576 2.73092 2.80051
 2.88710 2.98172 3.13413 3.42463 3.62138 3.85743 3.93182 4.13057 4.63988 4.82435
 4.87743 4.94184 5.09347 5.13197 5.39336 6.00364 6.09428 6.19879 6.24687 6.33033
 6.49593 7.53524 7.71580 8.12289 8.30848 8.34604 8.58517 11.60522 11.61744 11.63159
 11.63694 11.64338 11.64734 11.64972 11.67557 11.72696 12.78776 14.87807 14.94003 14.97355
 15.01415 15.11589 15.12233 15.26508 16.48150 16.55945 16.66999 16.73507 16.82942 17.16140
 55.68029 286.41053
 == 329-th k-point (-0.47380,-0.23690,0.94761) occupation: 6==
 -23.85915 -1.46239 -0.67523 -0.04723 -0.01536 0.01668 0.51219 0.61418 0.73430 0.75161
 1.01481 1.12247 1.32457 1.38281 1.41917 1.51360 1.66707 1.80977 1.90081 1.93370
 1.99040 2.06816 2.12827 2.28697 2.34616 2.39503 2.44016 2.55084 2.70003 2.80872
 2.81486 2.87794 3.35935 3.54287 3.62281 3.73214 3.81511 3.96508 4.71499 4.74993
 5.00588 5.17592 5.24641 5.46958 5.51236 5.84051 6.04211 6.20188 6.31174 6.41628
 6.66797 7.39616 7.59144 8.02558 8.21595 8.33840 8.44520 11.61442 11.61797 11.62159
 11.62828 11.63955 11.65010 11.65658 11.66794 11.69917 12.27971 14.89064 14.91018 15.05810
 15.13168 15.18650 15.29153 15.33909 16.38896 16.51982 16.67482 16.78926 17.05743 17.15527
 55.74565 286.50596
 == 330-th k-point (-0.35535,-0.11845,0.82916) occupation: 6==
 -23.85915 -1.46212 -0.67153 -0.04707 -0.03356 0.00870 0.57348 0.59080 0.70584 0.75118
 0.99418 1.12010 1.31762 1.44157 1.45635 1.62386 1.66939 1.83352 1.88566 1.94681
 1.98722 2.02677 2.18245 2.22787 2.38177 2.39384 2.52694 2.53906 2.54928 2.76873
 2.86981 2.87361 3.18323 3.45869 3.46741 3.65648 3.75074 4.07267 4.51241 4.94418
 5.04749 5.31686 5.42249 5.46552 5.54175 5.59428 5.92259 5.96127 6.12474 6.37746
 7.08099 7.41957 7.70063 7.73627 8.31232 8.38154 8.67844 11.61894 11.61928 11.62893
 11.63568 11.64040 11.64286 11.64960 11.67615 11.78833 12.38016 14.79322 15.03432 15.06852
 15.21815 15.26616 15.38872 15.40080 16.18785 16.39153 16.48533 16.72413 16.88174 17.55670
 55.85463 286.63599
 == 331-th k-point (-0.23690,-0.00000,0.71071) occupation: 6==
 -23.85915 -1.46219 -0.67180 -0.05972 -0.01514 0.00563 0.56511 0.61554 0.69793 0.76393
 0.89467 1.23064 1.33322 1.43231 1.53437 1.58632 1.61560 1.73752 1.87124 1.88086
 1.99374 2.08902 2.13403 2.15314 2.25394 2.34097 2.44034 2.63750 2.69851 2.85647
 2.87320 2.95223 3.25280 3.38774 3.60276 3.70155 3.77550 4.21151 4.59353 4.69405
 5.08982 5.11566 5.12563 5.33582 5.51446 5.83771 5.86109 6.15135 6.21919 6.39404
 6.61185 7.42781 7.50856 8.02885 8.12273 8.39923 8.89362 11.61194 11.62423 11.63032
 11.64081 11.64224 11.65063 11.66116 11.66552 11.81159 12.42390 14.85452 14.87594 15.09606
 15.11346 15.14394 15.25130 15.37094 16.33675 16.38528 16.64775 16.71653 16.83162 17.30825
 55.72209 286.46870
 == 332-th k-point (-0.11845,0.11845,0.59225) occupation: 6==
 -23.85915 -1.46256 -0.67580 -0.05169 0.00024 0.00845 0.52268 0.64255 0.72340 0.77774
 0.84830 1.29113 1.32087 1.42361 1.48177 1.49844 1.57546 1.70962 1.75165 1.87321
 1.99893 2.07974 2.10662 2.30962 2.38267 2.52337 2.55616 2.66586 2.73282 2.80112
 2.88795 2.98417 3.13433 3.43038 3.62378 3.85744 3.93466 4.13361 4.63988 4.82460
 4.87756 4.94194 5.09424 5.13202 5.39737 6.00363 6.09429 6.20101 6.24727 6.33033
 6.49810 7.53535 7.71585 8.12332 8.30875 8.34632 8.59496 11.60522 11.61744 11.63159
 11.63695 11.64338 11.64734 11.64977 11.67557 11.72704 12.78920 14.87807 14.94005 14.97356
 15.01418 15.11606 15.12234 15.26605 16.48151 16.55946 16.67004 16.73508 16.82946 17.16311
 55.68051 286.41057
 == 333-th k-point (0.00000,0.23690,0.47380) occupation: 6==
 -23.85915 -1.46295 -0.68037 -0.03383 -0.00002 0.02167 0.48254 0.64540 0.74941 0.77272
 0.92434 1.19662 1.24282 1.36654 1.44124 1.48433 1.60718 1.68215 1.77538 1.87814
 1.99416 2.06589 2.21969 2.33588 2.34677 2.51098 2.62692 2.66709 2.86991 2.89366
 2.95483 3.05242 3.14586 3.45118 3.67251 3.91330 4.11264 4.12069 4.60785 4.67743
 4.77191 4.95511 5.13642 5.29330 5.46297 6.18966 6.21315 6.25805 6.27022 6.39152
 6.69623 7.48201 7.51803 7.98806 8.43147 8.53758 8.56855 11.60929 11.61022 11.61811
 11.63436 11.63665 11.64882 11.66190 11.66411 11.71589 12.20068 14.85174 14.88103 14.91846
 15.02214 15.11588 15.20183 15.27683 16.61715 16.68842 16.70856 16.75372 16.95576 17.27029
 55.74239 286.49083
 == 334-th k-point (0.11845,0.35535,0.35535) occupation: 6==
 -23.85915 -1.46306 -0.68215 -0.03526 0.00828 0.03049 0.45566 0.64600 0.76197 0.76250
 1.07758 1.07926 1.15961 1.39012 1.40082 1.46950 1.62216 1.69861 1.85705 1.89009
 1.90673 2.00893 2.29839 2.31157 2.47977 2.48965 2.65407 2.80104 2.81998 2.84101
 2.93901 2.99272 3.07400 3.56108 3.57541 3.81433 3.93954 4.24795 4.54049 4.66109
 4.76461 4.96952 5.12518 5.36372 5.54581 6.21445 6.23537 6.26722 6.35883 6.56302
 6.82806 7.43065 7.48071 7.82100 7.90379 8.53995 8.66397 11.59783 11.60689 11.61913
 11.62630 11.62806 11.65279 11.65938 11.67520 11.70122 12.25306 14.81552 14.89750 14.91840
 15.02849 15.10808 15.24462 15.32399 16.65659 16.66570 16.73061 16.78136 17.13833 17.24837
 55.80047 286.56552
 == 335-th k-point (0.23690,0.47380,0.23690) occupation: 6==
 -23.85915 -1.46281 -0.67993 -0.04623 0.01470 0.02070 0.46422 0.64459 0.74518 0.75669
 0.99406 1.21605 1.21642 1.34846 1.43056 1.43603 1.64553 1.74285 1.79139 1.93962
 1.94434 2.00863 2.26678 2.34833 2.37134 2.46252 2.58379 2.65224 2.70055 2.81362
 2.89487 2.93209 2.98906 3.54003 3.60355 3.75684 3.86045 3.87446 4.21695 4.50833
 4.76502 5.01798 5.11088 5.34753 5.51237 5.54629 6.16678 6.18413 6.26903 6.53815
 6.56711 6.69399 7.40522 7.83984 8.13885 8.36650 8.41712 8.53852 11.61248 11.61625
 11.62459 11.63219 11.65095 11.65323 11.66019 11.67985 11.71118 12.60248 14.80051 14.91961
 15.05876 15.10587 15.23339 15.31933 15.34338 16.62373 16.66076 16.72329 16.94414 16.99582
 17.41320 55.89682 286.68422
 == 336-th k-point (-0.35535,-0.35535,1.06606) occupation: 6==
 -23.85915 -1.46256 -0.67792 -0.05415 0.00750 0.02412 0.46537 0.63437 0.74215 0.74216
 1.09413 1.16939 1.18874 1.37532 1.41460 1.44748 1.66208 1.76690 1.88570 1.97622
 2.00309 2.01789 2.14941 2.32186 2.33167 2.37253 2.46845 2.70702 2.75385 2.75477
 2.84096 2.85084 2.93666 3.54303 3.65397 3.71767 3.78908 3.84685 4.18996 4.45182
 4.75482 5.06722 5.14740 5.40157 5.49044 5.55503 6.13268 6.16275 6.20660 6.53210
 6.74423 6.80257 7.44950 7.63748 7.98896 8.15545 8.48481 8.51457 11.61216 11.62130
 11.62397 11.62659 11.63002 11.65735 11.66559 11.66946 11.70694 12.72835 14.77006 14.91355
 15.08649 15.12299 15.26182 15.30328 15.36537 16.58950 16.65205 16.66819 16.94730 17.09736
 17.62321 56.14951 287.00456
 == 337-th k-point (-0.23690,-0.23690,0.94761) occupation: 6==
 -23.85915 -1.46224 -0.67319 -0.05285 -0.01920 0.01243 0.53488 0.60507 0.72944 0.75870
 0.94229 1.25266 1.27950 1.36546 1.43590 1.54357 1.72726 1.75861 1.92826 1.96908
 2.03178 2.06685 2.15679 2.17781 2.31348 2.39027 2.39395 2.56786 2.65870 2.71672
 2.84390 2.91934 2.94679 3.37077 3.51982 3.62235 3.80897 3.86514 3.93111 4.67739
 4.77413 5.12570 5.26283 5.44015 5.47460 5.50539 5.68476 5.93382 6.15210 6.32384
 6.70891 6.79611 7.40805 7.79779 8.22950 8.24804 8.38927 8.46309 11.60753 11.62448
 11.63165 11.63953 11.65028 11.65178 11.65885 11.70219 11.70390 12.60801 14.90138 14.91227
 15.11145 15.19318 15.28844 15.31868 15.36365 16.30381 16.41458 16.67854 16.75306 17.05620
 17.41004 55.82137 286.59681
 == 338-th k-point (-0.11845,-0.11845,0.82916) occupation: 6==
 -23.85915 -1.46210 -0.67024 -0.07007 -0.00976 0.00218 0.58491 0.61371 0.69487 0.77744
 0.83438 1.29179 1.39537 1.44118 1.44525 1.66439 1.68389 1.72617 1.85893 1.90144
 1.94849 2.03470 2.15529 2.19206 2.20435 2.25400 2.34813 2.61830 2.74694 2.86003
 2.89653 3.08789 3.10421 3.25083 3.46156 3.85110 3.88344 4.02612 4.80104 4.84512
 4.97129 4.99026 5.16210 5.49477 5.50886 5.52912 5.88062 5.98697 6.27759 6.30622
 6.37329 7.71882 7.82455 7.94554 8.41380 8.56238 8.65430 11.59761 11.61204 11.62679
 11.64818 11.64824 11.65178 11.65208 11.67627 11.73615 12.90200 14.92270 14.94603 15.03078
 15.06501 15.20638 15.34187 15.35330 16.08790 16.47908 16.57017 16.70133 16.74490 17.11315
 55.55986 286.26117
 == 339-th k-point (0.00000,-0.00000,0.71071) occupation: 6==
 -23.85915 -1.46225 -0.67144 -0.07039 0.00051 0.00051 0.56643 0.65051 0.69480 0.78618
 0.78618 1.28261 1.42271 1.53117 1.58418 1.58420 1.62368 1.62368 1.70446 1.84375
 1.94195 1.94197 2.22449 2.33815 2.36193 2.36194 2.39095 2.65779 2.71575 2.82733
 2.82784 2.88247 3.12036 3.50245 3.85697 3.85700 4.15661 4.83710 4.85816 4.85818
 4.92147 5.08977 5.12966 5.12978 5.74879 5.90603 5.90603 6.13275 6.31127 6.31793
 7.59077 7.95761 7.95772 8.06373 8.41684 8.41691 11.59613 11.61140 11.61140 11.61975
 11.64361 11.64621 11.64621 11.68058 11.73823 13.20169 14.94395 14.98790 14.98791 15.00597
 15.10124 15.15086 15.15088 16.37078 16.37078 16.58367 16.58676 16.72476 16.82669 55.32415
 285.96161
 == 340-th k-point (0.11845,0.11845,0.59225) occupation: 6==
 -23.85915 -1.46256 -0.67580 -0.05169 0.00024 0.00845 0.52268 0.64255 0.72340 0.77774
 0.84830 1.29113 1.32086 1.42361 1.48177 1.49843 1.57546 1.70959 1.75156 1.87321
 1.99881 2.07972 2.10658 2.30947 2.38246 2.52140 2.55614 2.66576 2.73092 2.80051
 2.88710 2.98172 3.13413 3.42463 3.62138 3.85743 3.93182 4.13057 4.63988 4.82435
 4.87743 4.94184 5.09347 5.13197 5.39336 6.00364 6.09428 6.19879 6.24687 6.33033
 6.49593 7.53524 7.71580 8.12289 8.30848 8.34604 8.58517 11.60522 11.61744 11.63159
 11.63694 11.64338 11.64734 11.64972 11.67557 11.72696 12.78776 14.87807 14.94003 14.97355
 15.01415 15.11589 15.12233 15.26508 16.48150 16.55945 16.66999 16.73507 16.82942 17.16140
 55.68029 286.41053
 == 341-th k-point (0.23690,0.23690,0.47380) occupation: 6==
 -23.85915 -1.46281 -0.67993 -0.04623 0.01470 0.02070 0.46422 0.64459 0.74518 0.75669
 0.99406 1.21605 1.21642 1.34846 1.43056 1.43603 1.64553 1.74285 1.79139 1.93962
 1.94434 2.00863 2.26678 2.34833 2.37134 2.46252 2.58379 2.65224 2.70055 2.81362
 2.89487 2.93209 2.98906 3.54003 3.60355 3.75684 3.86045 3.87446 4.21695 4.50833
 4.76502 5.01798 5.11088 5.34753 5.51237 5.54629 6.16678 6.18413 6.26903 6.53815
 6.56711 6.69399 7.40522 7.83984 8.13885 8.36650 8.41712 8.53852 11.61248 11.61625
 11.62459 11.63219 11.65095 11.65323 11.66019 11.67985 11.71118 12.60248 14.80051 14.91961
 15.05876 15.10587 15.23339 15.31933 15.34338 16.62373 16.66076 16.72329 16.94414 16.99582
 17.41320 55.89682 286.68422
 == 342-th k-point (0.35535,0.35535,0.35535) occupation: 6==
 -23.85915 -1.46281 -0.68085 -0.05400 0.02798 0.02798 0.43512 0.65691 0.74034 0.74034
 1.14229 1.16958 1.16958 1.30851 1.41334 1.41334 1.73249 1.73249 1.81140 1.86200
 1.99088 1.99088 2.24182 2.36659 2.36659 2.47267 2.72207 2.72207 2.74667 2.86469
 2.90096 2.90096 2.95662 3.55776 3.55776 3.77802 3.77802 3.78861 4.21770 4.47984
 4.76574 5.21408 5.21408 5.50470 5.50470 5.57687 6.10417 6.10417 6.18690 6.40884
 6.40884 7.00939 7.01604 7.01604 7.33845 8.19849 8.24268 8.24268 11.60240 11.60240
 11.61928 11.62965 11.62965 11.66965 11.66968 11.66968 11.73018 13.14226 14.77151 14.92189
 15.16259 15.16259 15.31131 15.31131 15.44231 16.59692 16.59692 16.69464 16.89186 16.89186
 17.76570 56.18187 287.03575
 ---------------------------------------------------------------------------
 VBM is at 171-th k-point with 0.98251 eV
 CBM is at 171-th k-point with 10.17376 eV
 Band gap is 9.19125 eV


           Ground-State Mulliken Net Atomic Charges

      Atom                 Charge (a.u.)          Spin (a.u.)
   --------------------------------------------------------
      1 Li                (0.182990,0.000000)    (0.000000,0.000000)
      2  F              (-0.182990,-0.000000)    (0.000000,0.000000)
   --------------------------------------------------------
  Sum of atomic charges =     (-0.000000,-0.000000)
  Sum of spin   charges =       (0.000000,0.000000)



 Total job time:  636.96 s.
 Tue Sep  9 01:48:27 2025


        *************************************************************
        *                                                           *
        *  Thank you very much for using QCPBC. Have a nice day.    *
        *                                                           *
        *************************************************************

Running job 1 of 1
