                  Welcome to Q-Chem
           with Periodic Boundary Condition
     A Quantum Leap Into The Future Of Chemistry

 Adam Rettig, Xintian Feng, Meng-Fu Chen, Hieu Dinh, Stephen Quiton,
 Anton Ni, Paul J. Robinson, Jinghong Zhang, Joonho Lee

Contributors to earlier versions of Q-Chem not listed above:
 Evgeny Epifanovsky, Leo Cunha, Jerome F. Gonthier, Kuan-Yu Liu
 Input file: /n/netscratch/joonholee_lab/Lab/hieudinh//lif_solve_def2qzvp_omega_0.3_777.scratch20250909012058/lif_solve_def2qzvp_omega_0.3_777.0
 Scratch folder: /n/netscratch/joonholee_lab/Lab/hieudinh//lif_solve_def2qzvp_omega_0.3_777.scratch20250909012058
 Auxillary files located at: /n/holylabs/LABS/joonholee_lab/Lab/qchem_base/qcaux
 Q-Chem begins on Tue Sep  9 01:20:59 2025

 -------------------------------------------------------------
 User input:
 -------------------------------------------------------------
 $lattice
 3
 0.000000 2.005000 2.005000
 2.005000 0.000000 2.005000
 2.005000 2.005000 0.000000
 $end
 
 $unitcell
 ABSOLUTE
 0 1
 Li 0.000000 0.000000 0.000000
 F  2.005000 0.000000 0.000000
 $end
 
 $rem
 jobtype = sp
 method = pbe
 scf_convergence = 5
 scf_guess = autosad
 scf_algorithm = gdm
 basis = def2-qzvp
 aux_basis = gen
 input_bohr = false
 symmetry false
 is_basis_uctr true
 rsdf_print_level 1
 
 mp_mesh = [7,7,7]
 
 integral_direct true
 bvk_cgto true
 
 thresh 14
 mem_total 100000
 threads 32
 
 MAX_SCF_CYCLES 400
 madelung = false
 omega 0.3
 do_rij_bigmem true
 automate_g true
 print_level 10
 grid_type_xc 1
 
 thresh_1e2c_sp 1e-14
 thresh_2e3c_bra_ket_sep 1e-10
 thresh_g 1e-12
 $end
 
 $aux_basis
 Li     0
 S   7   1.00
     498.3689730              0.0207908
     162.9342738              0.0542177
      57.3246735              0.1776783
      21.6427314              0.4181150
       8.7345375              0.6535245
       3.7491039              0.5492618
       1.7006754              0.1701425
 S   1   1.00
       0.8090859             -0.0097548
 S   1   1.00
       0.4000933             -0.0050152
 S   1   1.00
       0.2035793              0.0232200
 !S   1   1.00
 !      0.1054201              0.0134535
 !S   1   1.00
 !      0.0549139              0.0006647
 P   2   1.00
      10.7024696              0.0072923
       3.6551543              0.0060940
 P   1   1.00
       1.2464013              0.0172529
 P   1   1.00
       0.4246282             -0.0160026
 P   1   1.00
       0.1446192             -0.0195111
 D   2   1.00
       1.1510647             -0.0014314
       0.6019112              0.0038969
 D   1   1.00
       0.3109573              0.0024683
 D   1   1.00
       0.1600032              0.0036451
 F   2   1.00
       0.5967918              0.0010494
       0.1790687              0.0006468
 G   1   1.00
       1.0460130             -0.0001971
 ****
 F     0
 S   7   1.00
    3514.9201549              0.1805835
    1231.2458815              0.3676084
     454.1367336              1.2707881
     175.8376258              2.8274164
      71.2081775              4.3588226
      30.0316883              2.7180994
      13.1259023             -0.0804726
 S   1   1.00
       5.9126861             -0.0023370
 S   1   1.00
       2.7284431              1.1236274
 S   1   1.00
       1.2813993              0.9999042
 S   1   1.00
       0.6082793              0.3119579
 S   1   1.00
       0.2897894              0.0312295
 P   2   1.00
      49.3740409             -0.0346332
      13.4874956             -0.0096069
 P   1   1.00
       3.9664900              0.0762067
 P   1   1.00
       1.2226629             -0.0103329
 P   1   1.00
       0.3830317              0.0018853
 D   2   1.00
      29.9719140             -0.0113316
       6.7860915             -0.0467639
 D   1   1.00
       1.8137313             -0.0167604
 D   1   1.00
       0.5157840             -0.0050777
 F   2   1.00
       2.8301877              1.0
       0.9155962              1.0
 G   1   1.00
       1.6097500             -0.0005411
 ****
 $end
 -------------------------------------------------------------
 Running PBC job

 Requested Exchange Correlation Functionals: 
  DFT Exchange:  1.00000 pbe_x
  DFT Correlation:  1.00000 pbe_c
 using 32 threads for computing.
 ---------------------------------------------------------------
      Coordinates of Atoms in Central Unit Cell (Angstroms)
    I     Atom         X            Y            Z
 ---------------------------------------------------------------
    1      Li      0.000000     0.000000     0.000000
    2       F      2.005000     0.000000     0.000000
 ---------------------------------------------------------------
 --------------------------------------------------
              Lattice Vectors (Angstroms)
              X            Y            Z
 --------------------------------------------------
   X       0.000000     2.005000     2.005000
   Y       2.005000     0.000000     2.005000
   Z       2.005000     2.005000     0.000000
 --------------------------------------------------
 --------------------------------------------------
       Reciprocal Lattice Vectors (Angstroms^-1)
              X            Y            Z
 --------------------------------------------------
   X      -1.566879     1.566879     1.566879
   Y       1.566879    -1.566879     1.566879
   Z       1.566879     1.566879    -1.566879
 --------------------------------------------------

 Single point calculation requested

 Hamiltonian contributions:
 List of terms in Hamiltonian: kpts_nn, kpts_kinetic, kpts_vnuc_df, kpts_xc, kpts_rij_bigmem

 K-Points calculation started.

 Basis set information about using solid harmonic (1) or Cartesian (0):
  li : D(1) D(1) F(1) 
  f : D(1) D(1) D(1) F(1) F(1) G(1) 

 Basis set information about using solid harmonic (1) or Cartesian (0):
  li : D(1) D(1) D(1) F(1) G(1) 
  f : D(1) D(1) D(1) F(1) G(1) 

 There are 92 basis functions in the central unit cell.
 Print atomic basis of atoms in the central unit cell:
 -------------------------------------------------------------
2 53 53 30

  0.00000000000000e+00  0.00000000000000e+00  0.00000000000000e+00
  3.78890087987467e+00  0.00000000000000e+00  0.00000000000000e+00

  1.48539770850000e+04
  2.22522364770000e+03
  5.04887390080000e+02
  1.42458475480000e+02
  4.63155995800000e+01
  1.66553354740000e+01
  6.43311861990000e+00
  2.60270438580000e+00
  1.08972454050000e+00
  4.42365959710000e+00
  1.23563949900000e+00
  4.60674706020000e-01
  9.66171669550000e-02
  4.59154522960000e-02
  2.11400487300000e-02
  3.26051092060000e+00
  6.50030431150000e-01
  1.69416710730000e-01
  3.32700000000000e+00
  5.57323437670000e-02
  2.04899592410000e-02
  2.30000000000000e-01
  7.57000000000000e-02
  1.35000000000000e-01
  1.32535973450000e+05
  1.97581125880000e+04
  4.48519969470000e+03
  1.27381510200000e+03
  4.18938312360000e+02
  1.52557219850000e+02
  5.98215248230000e+01
  2.48190769320000e+01
  1.00744466730000e+02
  3.01037282900000e+01
  1.08142832720000e+01
  4.81728867700000e+00
  1.65593342130000e+00
  6.48935195820000e-01
  2.47781045450000e-01
  2.40966541140000e+02
  5.70206997810000e+01
  1.81269521200000e+01
  6.64574046210000e+00
  2.63757228920000e+00
  1.06382172000000e+00
  4.19325627500000e-01
  1.57475882990000e-01
  5.01400000000000e+00
  1.72500000000000e+00
  5.86000000000000e-01
  3.56200000000000e+00
  1.14800000000000e+00
  2.37600000000000e+00

  4.67593013229757e-02
  8.76137465723478e-02
  1.51821576860780e-01
  2.46527731442678e-01
  3.74140539449148e-01
  5.14323804423000e-01
  6.00677517411378e-01
  5.44460466941871e-01
  3.21097242154446e-01
  2.72734215356930e-01
  7.53702662810338e-01
  3.98525272814913e-01
  1.23509628755786e-01
  7.06934606713439e-02
  3.95129614058778e-02
  2.22230636644090e-01
  1.62952044217479e-01
  1.33842808684561e-01
  6.40480761295544e+00
  3.85988372286674e-02
  1.10501063034648e-02
  1.25728336426159e-01
  1.79815549832937e-02
  1.62631785032468e-02
  3.86107783813291e-01
  7.24648975903829e-01
  1.25045495963763e+00
  2.01518764389143e+00
  3.04056815166578e+00
  4.21268576129244e+00
  5.00944268647146e+00
  4.54693835849554e+00
  2.32503271092484e+00
  8.41440806306271e+00
  4.25019052011886e+00
  2.31745919743391e+00
  1.04038060130896e+00
  5.15301123337211e-01
  2.50300174847139e-01
  3.49166780573024e+00
  4.61886090108967e+00
  5.17964869303152e+00
  4.78626212475628e+00
  3.24578400123904e+00
  1.54001926672016e+00
  4.80982576947690e-01
  1.41402684040663e-01
  2.76523492268872e+01
  4.27356565232165e+00
  6.45996677345861e-01
  2.56605380682814e+01
  2.00827738540458e+00
  1.20230076986570e+01

0 0 0 0 1 1 1
0 0 
9 0

0 1 1 9 1 1 1
9 0 
2 0

0 2 2 11 1 1 1
11 0 
1 0

0 3 3 12 1 1 1
12 0 
1 0

0 4 4 13 1 1 1
13 0 
1 0

0 5 5 14 1 1 1
14 0 
1 0

0 6 6 15 1 3 3
15 1 
3 0

0 9 9 18 1 3 3
18 1 
1 0

0 12 12 19 1 3 3
19 1 
1 0

0 15 15 20 1 3 3
20 1 
1 0

0 18 18 21 1 5 6
21 2 
1 1

0 23 23 22 1 5 6
22 2 
1 1

0 28 28 23 1 7 10
23 3 
1 1

1 35 35 24 1 1 1
24 0 
8 0

1 36 36 32 1 1 1
32 0 
2 0

1 37 37 34 1 1 1
34 0 
1 0

1 38 38 35 1 1 1
35 0 
1 0

1 39 39 36 1 1 1
36 0 
1 0

1 40 40 37 1 1 1
37 0 
1 0

1 41 41 38 1 1 1
38 0 
1 0

1 42 42 39 1 3 3
39 1 
5 0

1 45 45 44 1 3 3
44 1 
1 0

1 48 48 45 1 3 3
45 1 
1 0

1 51 51 46 1 3 3
46 1 
1 0

1 54 54 47 1 5 6
47 2 
1 1

1 59 59 48 1 5 6
48 2 
1 1

1 64 64 49 1 5 6
49 2 
1 1

1 69 69 50 1 7 10
50 3 
1 1

1 76 76 51 1 7 10
51 3 
1 1

1 83 83 52 1 9 15
52 4 
1 1

 -------------------------------------------------------------
 Allocate 136872 B from available memory: 104857600000 B
 There are 15625 image cells after screening.
 There are 17628 image cells for CGTO evaluation after screening.
 Real-Space grid for FFT initialized based on kinetic energy cutoff (eV) = 500.0
 Real-Space grid for FFT: (8,8,8)
 There are 4913 real-space grid points.
 There are 27 batches of real-space grid points. 
 Size of each grid batch is around 128
 Grid for AFT initialized based on kinetic energy cutoff (eV) = 500.0
 Real-Space grid for AFT: (8,8,8)
 There are 4913 real-space grid points.

 There are 5912 atom-centered grid points.

 Spacegroup symmetry group: Fm-3m
 Reducing spacegroup symmetry to symmorphic group: F m -3 m
 Monkhorst-Pack mesh is [7,7,7]
 There are 343 k points.
kpoints in Bohr
-0.3553528831 -0.3553528831 -0.3553528831
-0.2369019221 -0.2369019221 -0.4738038442
-0.1184509610 -0.1184509610 -0.5922548052
-0.0000000000 0.0000000000 -0.7107057663
0.1184509610 0.1184509610 -0.8291567273
0.2369019221 0.2369019221 -0.9476076883
0.3553528831 0.3553528831 -1.0660586494
-0.2369019221 -0.4738038442 -0.2369019221
-0.1184509610 -0.3553528831 -0.3553528831
-0.0000000000 -0.2369019221 -0.4738038442
0.1184509610 -0.1184509610 -0.5922548052
0.2369019221 0.0000000000 -0.7107057663
0.3553528831 0.1184509610 -0.8291567273
0.4738038442 0.2369019221 -0.9476076883
-0.1184509610 -0.5922548052 -0.1184509610
-0.0000000000 -0.4738038442 -0.2369019221
0.1184509610 -0.3553528831 -0.3553528831
0.2369019221 -0.2369019221 -0.4738038442
0.3553528831 -0.1184509610 -0.5922548052
0.4738038442 0.0000000000 -0.7107057663
0.5922548052 0.1184509610 -0.8291567273
-0.0000000000 -0.7107057663 -0.0000000000
0.1184509610 -0.5922548052 -0.1184509610
0.2369019221 -0.4738038442 -0.2369019221
0.3553528831 -0.3553528831 -0.3553528831
0.4738038442 -0.2369019221 -0.4738038442
0.5922548052 -0.1184509610 -0.5922548052
0.7107057663 0.0000000000 -0.7107057663
0.1184509610 -0.8291567273 0.1184509610
0.2369019221 -0.7107057663 -0.0000000000
0.3553528831 -0.5922548052 -0.1184509610
0.4738038442 -0.4738038442 -0.2369019221
0.5922548052 -0.3553528831 -0.3553528831
0.7107057663 -0.2369019221 -0.4738038442
0.8291567273 -0.1184509610 -0.5922548052
0.2369019221 -0.9476076883 0.2369019221
0.3553528831 -0.8291567273 0.1184509610
0.4738038442 -0.7107057663 -0.0000000000
0.5922548052 -0.5922548052 -0.1184509610
0.7107057663 -0.4738038442 -0.2369019221
0.8291567273 -0.3553528831 -0.3553528831
0.9476076883 -0.2369019221 -0.4738038442
0.3553528831 -1.0660586494 0.3553528831
0.4738038442 -0.9476076883 0.2369019221
0.5922548052 -0.8291567273 0.1184509610
0.7107057663 -0.7107057663 -0.0000000000
0.8291567273 -0.5922548052 -0.1184509610
0.9476076883 -0.4738038442 -0.2369019221
1.0660586494 -0.3553528831 -0.3553528831
-0.4738038442 -0.2369019221 -0.2369019221
-0.3553528831 -0.1184509610 -0.3553528831
-0.2369019221 0.0000000000 -0.4738038442
-0.1184509610 0.1184509610 -0.5922548052
-0.0000000000 0.2369019221 -0.7107057663
0.1184509610 0.3553528831 -0.8291567273
0.2369019221 0.4738038442 -0.9476076883
-0.3553528831 -0.3553528831 -0.1184509610
-0.2369019221 -0.2369019221 -0.2369019221
-0.1184509610 -0.1184509610 -0.3553528831
-0.0000000000 0.0000000000 -0.4738038442
0.1184509610 0.1184509610 -0.5922548052
0.2369019221 0.2369019221 -0.7107057663
0.3553528831 0.3553528831 -0.8291567273
-0.2369019221 -0.4738038442 -0.0000000000
-0.1184509610 -0.3553528831 -0.1184509610
-0.0000000000 -0.2369019221 -0.2369019221
0.1184509610 -0.1184509610 -0.3553528831
0.2369019221 0.0000000000 -0.4738038442
0.3553528831 0.1184509610 -0.5922548052
0.4738038442 0.2369019221 -0.7107057663
-0.1184509610 -0.5922548052 0.1184509610
-0.0000000000 -0.4738038442 -0.0000000000
0.1184509610 -0.3553528831 -0.1184509610
0.2369019221 -0.2369019221 -0.2369019221
0.3553528831 -0.1184509610 -0.3553528831
0.4738038442 0.0000000000 -0.4738038442
0.5922548052 0.1184509610 -0.5922548052
0.0000000000 -0.7107057663 0.2369019221
0.1184509610 -0.5922548052 0.1184509610
0.2369019221 -0.4738038442 -0.0000000000
0.3553528831 -0.3553528831 -0.1184509610
0.4738038442 -0.2369019221 -0.2369019221
0.5922548052 -0.1184509610 -0.3553528831
0.7107057663 0.0000000000 -0.4738038442
0.1184509610 -0.8291567273 0.3553528831
0.2369019221 -0.7107057663 0.2369019221
0.3553528831 -0.5922548052 0.1184509610
0.4738038442 -0.4738038442 -0.0000000000
0.5922548052 -0.3553528831 -0.1184509610
0.7107057663 -0.2369019221 -0.2369019221
0.8291567273 -0.1184509610 -0.3553528831
0.2369019221 -0.9476076883 0.4738038442
0.3553528831 -0.8291567273 0.3553528831
0.4738038442 -0.7107057663 0.2369019221
0.5922548052 -0.5922548052 0.1184509610
0.7107057663 -0.4738038442 -0.0000000000
0.8291567273 -0.3553528831 -0.1184509610
0.9476076883 -0.2369019221 -0.2369019221
-0.5922548052 -0.1184509610 -0.1184509610
-0.4738038442 0.0000000000 -0.2369019221
-0.3553528831 0.1184509610 -0.3553528831
-0.2369019221 0.2369019221 -0.4738038442
-0.1184509610 0.3553528831 -0.5922548052
-0.0000000000 0.4738038442 -0.7107057663
0.1184509610 0.5922548052 -0.8291567273
-0.4738038442 -0.2369019221 -0.0000000000
-0.3553528831 -0.1184509610 -0.1184509610
-0.2369019221 0.0000000000 -0.2369019221
-0.1184509610 0.1184509610 -0.3553528831
-0.0000000000 0.2369019221 -0.4738038442
0.1184509610 0.3553528831 -0.5922548052
0.2369019221 0.4738038442 -0.7107057663
-0.3553528831 -0.3553528831 0.1184509610
-0.2369019221 -0.2369019221 -0.0000000000
-0.1184509610 -0.1184509610 -0.1184509610
-0.0000000000 0.0000000000 -0.2369019221
0.1184509610 0.1184509610 -0.3553528831
0.2369019221 0.2369019221 -0.4738038442
0.3553528831 0.3553528831 -0.5922548052
-0.2369019221 -0.4738038442 0.2369019221
-0.1184509610 -0.3553528831 0.1184509610
-0.0000000000 -0.2369019221 -0.0000000000
0.1184509610 -0.1184509610 -0.1184509610
0.2369019221 0.0000000000 -0.2369019221
0.3553528831 0.1184509610 -0.3553528831
0.4738038442 0.2369019221 -0.4738038442
-0.1184509610 -0.5922548052 0.3553528831
0.0000000000 -0.4738038442 0.2369019221
0.1184509610 -0.3553528831 0.1184509610
0.2369019221 -0.2369019221 -0.0000000000
0.3553528831 -0.1184509610 -0.1184509610
0.4738038442 0.0000000000 -0.2369019221
0.5922548052 0.1184509610 -0.3553528831
0.0000000000 -0.7107057663 0.4738038442
0.1184509610 -0.5922548052 0.3553528831
0.2369019221 -0.4738038442 0.2369019221
0.3553528831 -0.3553528831 0.1184509610
0.4738038442 -0.2369019221 -0.0000000000
0.5922548052 -0.1184509610 -0.1184509610
0.7107057663 0.0000000000 -0.2369019221
0.1184509610 -0.8291567273 0.5922548052
0.2369019221 -0.7107057663 0.4738038442
0.3553528831 -0.5922548052 0.3553528831
0.4738038442 -0.4738038442 0.2369019221
0.5922548052 -0.3553528831 0.1184509610
0.7107057663 -0.2369019221 -0.0000000000
0.8291567273 -0.1184509610 -0.1184509610
-0.7107057663 0.0000000000 0.0000000000
-0.5922548052 0.1184509610 -0.1184509610
-0.4738038442 0.2369019221 -0.2369019221
-0.3553528831 0.3553528831 -0.3553528831
-0.2369019221 0.4738038442 -0.4738038442
-0.1184509610 0.5922548052 -0.5922548052
-0.0000000000 0.7107057663 -0.7107057663
-0.5922548052 -0.1184509610 0.1184509610
-0.4738038442 0.0000000000 0.0000000000
-0.3553528831 0.1184509610 -0.1184509610
-0.2369019221 0.2369019221 -0.2369019221
-0.1184509610 0.3553528831 -0.3553528831
-0.0000000000 0.4738038442 -0.4738038442
0.1184509610 0.5922548052 -0.5922548052
-0.4738038442 -0.2369019221 0.2369019221
-0.3553528831 -0.1184509610 0.1184509610
-0.2369019221 0.0000000000 0.0000000000
-0.1184509610 0.1184509610 -0.1184509610
-0.0000000000 0.2369019221 -0.2369019221
0.1184509610 0.3553528831 -0.3553528831
0.2369019221 0.4738038442 -0.4738038442
-0.3553528831 -0.3553528831 0.3553528831
-0.2369019221 -0.2369019221 0.2369019221
-0.1184509610 -0.1184509610 0.1184509610
0.0000000000 0.0000000000 0.0000000000
0.1184509610 0.1184509610 -0.1184509610
0.2369019221 0.2369019221 -0.2369019221
0.3553528831 0.3553528831 -0.3553528831
-0.2369019221 -0.4738038442 0.4738038442
-0.1184509610 -0.3553528831 0.3553528831
0.0000000000 -0.2369019221 0.2369019221
0.1184509610 -0.1184509610 0.1184509610
0.2369019221 -0.0000000000 0.0000000000
0.3553528831 0.1184509610 -0.1184509610
0.4738038442 0.2369019221 -0.2369019221
-0.1184509610 -0.5922548052 0.5922548052
0.0000000000 -0.4738038442 0.4738038442
0.1184509610 -0.3553528831 0.3553528831
0.2369019221 -0.2369019221 0.2369019221
0.3553528831 -0.1184509610 0.1184509610
0.4738038442 -0.0000000000 0.0000000000
0.5922548052 0.1184509610 -0.1184509610
0.0000000000 -0.7107057663 0.7107057663
0.1184509610 -0.5922548052 0.5922548052
0.2369019221 -0.4738038442 0.4738038442
0.3553528831 -0.3553528831 0.3553528831
0.4738038442 -0.2369019221 0.2369019221
0.5922548052 -0.1184509610 0.1184509610
0.7107057663 -0.0000000000 0.0000000000
-0.8291567273 0.1184509610 0.1184509610
-0.7107057663 0.2369019221 0.0000000000
-0.5922548052 0.3553528831 -0.1184509610
-0.4738038442 0.4738038442 -0.2369019221
-0.3553528831 0.5922548052 -0.3553528831
-0.2369019221 0.7107057663 -0.4738038442
-0.1184509610 0.8291567273 -0.5922548052
-0.7107057663 0.0000000000 0.2369019221
-0.5922548052 0.1184509610 0.1184509610
-0.4738038442 0.2369019221 0.0000000000
-0.3553528831 0.3553528831 -0.1184509610
-0.2369019221 0.4738038442 -0.2369019221
-0.1184509610 0.5922548052 -0.3553528831
-0.0000000000 0.7107057663 -0.4738038442
-0.5922548052 -0.1184509610 0.3553528831
-0.4738038442 -0.0000000000 0.2369019221
-0.3553528831 0.1184509610 0.1184509610
-0.2369019221 0.2369019221 0.0000000000
-0.1184509610 0.3553528831 -0.1184509610
-0.0000000000 0.4738038442 -0.2369019221
0.1184509610 0.5922548052 -0.3553528831
-0.4738038442 -0.2369019221 0.4738038442
-0.3553528831 -0.1184509610 0.3553528831
-0.2369019221 -0.0000000000 0.2369019221
-0.1184509610 0.1184509610 0.1184509610
0.0000000000 0.2369019221 0.0000000000
0.1184509610 0.3553528831 -0.1184509610
0.2369019221 0.4738038442 -0.2369019221
-0.3553528831 -0.3553528831 0.5922548052
-0.2369019221 -0.2369019221 0.4738038442
-0.1184509610 -0.1184509610 0.3553528831
0.0000000000 -0.0000000000 0.2369019221
0.1184509610 0.1184509610 0.1184509610
0.2369019221 0.2369019221 0.0000000000
0.3553528831 0.3553528831 -0.1184509610
-0.2369019221 -0.4738038442 0.7107057663
-0.1184509610 -0.3553528831 0.5922548052
0.0000000000 -0.2369019221 0.4738038442
0.1184509610 -0.1184509610 0.3553528831
0.2369019221 -0.0000000000 0.2369019221
0.3553528831 0.1184509610 0.1184509610
0.4738038442 0.2369019221 0.0000000000
-0.1184509610 -0.5922548052 0.8291567273
0.0000000000 -0.4738038442 0.7107057663
0.1184509610 -0.3553528831 0.5922548052
0.2369019221 -0.2369019221 0.4738038442
0.3553528831 -0.1184509610 0.3553528831
0.4738038442 -0.0000000000 0.2369019221
0.5922548052 0.1184509610 0.1184509610
-0.9476076883 0.2369019221 0.2369019221
-0.8291567273 0.3553528831 0.1184509610
-0.7107057663 0.4738038442 0.0000000000
-0.5922548052 0.5922548052 -0.1184509610
-0.4738038442 0.7107057663 -0.2369019221
-0.3553528831 0.8291567273 -0.3553528831
-0.2369019221 0.9476076883 -0.4738038442
-0.8291567273 0.1184509610 0.3553528831
-0.7107057663 0.2369019221 0.2369019221
-0.5922548052 0.3553528831 0.1184509610
-0.4738038442 0.4738038442 0.0000000000
-0.3553528831 0.5922548052 -0.1184509610
-0.2369019221 0.7107057663 -0.2369019221
-0.1184509610 0.8291567273 -0.3553528831
-0.7107057663 -0.0000000000 0.4738038442
-0.5922548052 0.1184509610 0.3553528831
-0.4738038442 0.2369019221 0.2369019221
-0.3553528831 0.3553528831 0.1184509610
-0.2369019221 0.4738038442 0.0000000000
-0.1184509610 0.5922548052 -0.1184509610
0.0000000000 0.7107057663 -0.2369019221
-0.5922548052 -0.1184509610 0.5922548052
-0.4738038442 -0.0000000000 0.4738038442
-0.3553528831 0.1184509610 0.3553528831
-0.2369019221 0.2369019221 0.2369019221
-0.1184509610 0.3553528831 0.1184509610
0.0000000000 0.4738038442 0.0000000000
0.1184509610 0.5922548052 -0.1184509610
-0.4738038442 -0.2369019221 0.7107057663
-0.3553528831 -0.1184509610 0.5922548052
-0.2369019221 -0.0000000000 0.4738038442
-0.1184509610 0.1184509610 0.3553528831
0.0000000000 0.2369019221 0.2369019221
0.1184509610 0.3553528831 0.1184509610
0.2369019221 0.4738038442 0.0000000000
-0.3553528831 -0.3553528831 0.8291567273
-0.2369019221 -0.2369019221 0.7107057663
-0.1184509610 -0.1184509610 0.5922548052
0.0000000000 -0.0000000000 0.4738038442
0.1184509610 0.1184509610 0.3553528831
0.2369019221 0.2369019221 0.2369019221
0.3553528831 0.3553528831 0.1184509610
-0.2369019221 -0.4738038442 0.9476076883
-0.1184509610 -0.3553528831 0.8291567273
0.0000000000 -0.2369019221 0.7107057663
0.1184509610 -0.1184509610 0.5922548052
0.2369019221 -0.0000000000 0.4738038442
0.3553528831 0.1184509610 0.3553528831
0.4738038442 0.2369019221 0.2369019221
-1.0660586494 0.3553528831 0.3553528831
-0.9476076883 0.4738038442 0.2369019221
-0.8291567273 0.5922548052 0.1184509610
-0.7107057663 0.7107057663 0.0000000000
-0.5922548052 0.8291567273 -0.1184509610
-0.4738038442 0.9476076883 -0.2369019221
-0.3553528831 1.0660586494 -0.3553528831
-0.9476076883 0.2369019221 0.4738038442
-0.8291567273 0.3553528831 0.3553528831
-0.7107057663 0.4738038442 0.2369019221
-0.5922548052 0.5922548052 0.1184509610
-0.4738038442 0.7107057663 0.0000000000
-0.3553528831 0.8291567273 -0.1184509610
-0.2369019221 0.9476076883 -0.2369019221
-0.8291567273 0.1184509610 0.5922548052
-0.7107057663 0.2369019221 0.4738038442
-0.5922548052 0.3553528831 0.3553528831
-0.4738038442 0.4738038442 0.2369019221
-0.3553528831 0.5922548052 0.1184509610
-0.2369019221 0.7107057663 0.0000000000
-0.1184509610 0.8291567273 -0.1184509610
-0.7107057663 -0.0000000000 0.7107057663
-0.5922548052 0.1184509610 0.5922548052
-0.4738038442 0.2369019221 0.4738038442
-0.3553528831 0.3553528831 0.3553528831
-0.2369019221 0.4738038442 0.2369019221
-0.1184509610 0.5922548052 0.1184509610
0.0000000000 0.7107057663 0.0000000000
-0.5922548052 -0.1184509610 0.8291567273
-0.4738038442 -0.0000000000 0.7107057663
-0.3553528831 0.1184509610 0.5922548052
-0.2369019221 0.2369019221 0.4738038442
-0.1184509610 0.3553528831 0.3553528831
0.0000000000 0.4738038442 0.2369019221
0.1184509610 0.5922548052 0.1184509610
-0.4738038442 -0.2369019221 0.9476076883
-0.3553528831 -0.1184509610 0.8291567273
-0.2369019221 -0.0000000000 0.7107057663
-0.1184509610 0.1184509610 0.5922548052
0.0000000000 0.2369019221 0.4738038442
0.1184509610 0.3553528831 0.3553528831
0.2369019221 0.4738038442 0.2369019221
-0.3553528831 -0.3553528831 1.0660586494
-0.2369019221 -0.2369019221 0.9476076883
-0.1184509610 -0.1184509610 0.8291567273
0.0000000000 -0.0000000000 0.7107057663
0.1184509610 0.1184509610 0.5922548052
0.2369019221 0.2369019221 0.4738038442
0.3553528831 0.3553528831 0.3553528831
 There are 6 alpha and 6 beta electrons
 Start computing overlap matrix
 Allocate 46450432 B from available memory: 104857463136 B
 Time for computing overlap matrix: 33.3700000000 s
 ====== Initialize compute kernels for all-electron RI-J (kpts) ====== 
 ========================================================== 
 Range-separated parameter omega        = 0.299999999999999989
 Threshold for 1e2c shellpair           = 0.000000000000010000
 Threshold for 2e2c SR integral         = 0.000000000000000001
 Threshold for 2e3c SR integral         = 0.000000000100000000
 Threshold for AFT G-space screening is = 0.000000000001000000
 The exponent cutoff for C/D classification (omega2 / 2) is  = 0.044999999999999998
 ========================================================== 
 === Post process the basis set for RI calculation (exp_cutoff = 0.044999999999999998 ) === 
nshells_b1 before uncontraction = 30
nshells_b1 after uncontraction = 30
nshells_baux before uncontraction = 28
nshells_baux after uncontraction = 28
===============================================
nbsf total   = 92
nbsf compact = 88
nbsf diffuse = 4
naux total   = 96
naux compact = 96
naux diffuse = 0
nshells_bnuc = 2

 Number of unique atoms is 2
 Unique atom #0 (li) has 11 shells.
 Unique atom #1 (f) has 17 shells.

Shell 0 to 10 belongs to atom li
Shell 11 to 27 belongs to atom f

 Number of unique atoms is 2
 Unique atom #0 (li) has 2 shells.
 Unique atom #1 (f) has 0 shells.

Shell 0 to 1 belongs to atom li

 Number of unique atom is 2
 Unique atom #0 (li) has 13 auxiliary shells.
 Unique atom #1 (f) has 15 auxiliary shells.

Auxiliary Shell 0 to 12 belongs to atom li
Auxiliary Shell 13 to 27 belongs to atom f

================= Automatically determine grid size for reciprocal space summation =================
 Range-separated parameter = 0.30000000000000 and G-space screening threshold = 0.00000000000100
The number of grid points along each axis dimension is (3, 3, 3)
Total number of grid points = 343

Use nonortho shellpair for diffuse density
======== Initializing relevant kernel for RIJ (DD type) ========
There are 3 shellpairs in the reference unit cell
There are 26589 images and we expect to have 79767 in total
There are 13095 shellpairs in the lattice sum after screening
======== Initializing relevant kernel for RIJ (CD type) ========
There are 56 shellpairs in the reference unit cell
There are 16651 images and we expect to have 932456 in total
There are 118476 shellpairs in the lattice sum after screening
****** AFT -> SR ******
Maximum bra distance cutoff is 42.000000000000
Maximum bra ket distance cutoff is 36.979730101834
Maximum bra ket screening distance is 32.906250000000
Number of auxiliary image is 4797
There are 56 shellpairs in the reference unit cell
There are 4797 images and we expect to have 268632 in total
There are 118476 shellpairs in the lattice sum after screening
Available memory per thread for 2e3c calculation is 3.275344147000Gb
Finish initializing 2e3c SR with the lattice sum!
=================================================
======== Initializing relevant kernel for RIJ (CC type) ========
There are 403 shellpairs in the reference unit cell
There are 8175 images and we expect to have 3294525 in total
There are 69291 shellpairs in the lattice sum after screening
****** AFT -> SR ******
Maximum bra distance cutoff is 34.000000000000
Maximum bra ket distance cutoff is 40.772076789667
Maximum bra ket screening distance is 30.437500000000
Number of auxiliary image is 4389
There are 403 shellpairs in the reference unit cell
There are 2731 images and we expect to have 1100593 in total
There are 69291 shellpairs in the lattice sum after screening
Available memory per thread for 2e3c calculation is 3.275344147000Gb
Finish initializing 2e3c SR with the lattice sum!
=================================================
======== Initializing the SR component for Vnuc (CD type) ========
Maximum bra distance cutoff is 42.000000000000
Maximum bra ket distance cutoff is 30.634253998064
Maximum bra ket screening distance is 26.529449973802
Number of auxiliary image is 4797
There are 56 shellpairs in the reference unit cell
There are 4797 images and we expect to have 268632 in total
There are 118476 shellpairs in the lattice sum after screening
Available memory per thread for 2e3c calculation is 3.275344147000Gb
Finish initializing 2e3c SR with the lattice sum!
=================================================
======== Initialize the SR component for Vnuc (CC type) ========
Maximum bra distance cutoff is 34.000000000000
Maximum bra ket distance cutoff is 34.296485010202
Maximum bra ket screening distance is 23.902388373585
Number of auxiliary image is 2731
There are 403 shellpairs in the reference unit cell
There are 2731 images and we expect to have 1100593 in total
There are 69291 shellpairs in the lattice sum after screening
Available memory per thread for 2e3c calculation is 3.275344147000Gb
Finish initializing 2e3c SR with the lattice sum!
=================================================
 Aufbau occupation scheme, occupation determined by eigenvalue
 == 0-th k-point nmo = 83 (-0.35535,-0.35535,-0.35535) ==
 == 1-th k-point nmo = 83 (-0.23690,-0.23690,-0.47380) ==
 == 2-th k-point nmo = 82 (-0.11845,-0.11845,-0.59225) ==
 == 3-th k-point nmo = 81 (-0.00000,0.00000,-0.71071) ==
 == 4-th k-point nmo = 82 (0.11845,0.11845,-0.82916) ==
 == 5-th k-point nmo = 83 (0.23690,0.23690,-0.94761) ==
 == 6-th k-point nmo = 83 (0.35535,0.35535,-1.06606) ==
 == 7-th k-point nmo = 83 (-0.23690,-0.47380,-0.23690) ==
 == 8-th k-point nmo = 82 (-0.11845,-0.35535,-0.35535) ==
 == 9-th k-point nmo = 82 (-0.00000,-0.23690,-0.47380) ==
 == 10-th k-point nmo = 82 (0.11845,-0.11845,-0.59225) ==
 == 11-th k-point nmo = 82 (0.23690,0.00000,-0.71071) ==
 == 12-th k-point nmo = 82 (0.35535,0.11845,-0.82916) ==
 == 13-th k-point nmo = 82 (0.47380,0.23690,-0.94761) ==
 == 14-th k-point nmo = 82 (-0.11845,-0.59225,-0.11845) ==
 == 15-th k-point nmo = 82 (-0.00000,-0.47380,-0.23690) ==
 == 16-th k-point nmo = 82 (0.11845,-0.35535,-0.35535) ==
 == 17-th k-point nmo = 83 (0.23690,-0.23690,-0.47380) ==
 == 18-th k-point nmo = 82 (0.35535,-0.11845,-0.59225) ==
 == 19-th k-point nmo = 82 (0.47380,0.00000,-0.71071) ==
 == 20-th k-point nmo = 82 (0.59225,0.11845,-0.82916) ==
 == 21-th k-point nmo = 81 (-0.00000,-0.71071,-0.00000) ==
 == 22-th k-point nmo = 82 (0.11845,-0.59225,-0.11845) ==
 == 23-th k-point nmo = 83 (0.23690,-0.47380,-0.23690) ==
 == 24-th k-point nmo = 83 (0.35535,-0.35535,-0.35535) ==
 == 25-th k-point nmo = 83 (0.47380,-0.23690,-0.47380) ==
 == 26-th k-point nmo = 83 (0.59225,-0.11845,-0.59225) ==
 == 27-th k-point nmo = 82 (0.71071,0.00000,-0.71071) ==
 == 28-th k-point nmo = 82 (0.11845,-0.82916,0.11845) ==
 == 29-th k-point nmo = 82 (0.23690,-0.71071,-0.00000) ==
 == 30-th k-point nmo = 82 (0.35535,-0.59225,-0.11845) ==
 == 31-th k-point nmo = 83 (0.47380,-0.47380,-0.23690) ==
 == 32-th k-point nmo = 83 (0.59225,-0.35535,-0.35535) ==
 == 33-th k-point nmo = 82 (0.71071,-0.23690,-0.47380) ==
 == 34-th k-point nmo = 82 (0.82916,-0.11845,-0.59225) ==
 == 35-th k-point nmo = 83 (0.23690,-0.94761,0.23690) ==
 == 36-th k-point nmo = 82 (0.35535,-0.82916,0.11845) ==
 == 37-th k-point nmo = 82 (0.47380,-0.71071,-0.00000) ==
 == 38-th k-point nmo = 83 (0.59225,-0.59225,-0.11845) ==
 == 39-th k-point nmo = 82 (0.71071,-0.47380,-0.23690) ==
 == 40-th k-point nmo = 83 (0.82916,-0.35535,-0.35535) ==
 == 41-th k-point nmo = 82 (0.94761,-0.23690,-0.47380) ==
 == 42-th k-point nmo = 83 (0.35535,-1.06606,0.35535) ==
 == 43-th k-point nmo = 82 (0.47380,-0.94761,0.23690) ==
 == 44-th k-point nmo = 82 (0.59225,-0.82916,0.11845) ==
 == 45-th k-point nmo = 82 (0.71071,-0.71071,-0.00000) ==
 == 46-th k-point nmo = 82 (0.82916,-0.59225,-0.11845) ==
 == 47-th k-point nmo = 82 (0.94761,-0.47380,-0.23690) ==
 == 48-th k-point nmo = 83 (1.06606,-0.35535,-0.35535) ==
 == 49-th k-point nmo = 83 (-0.47380,-0.23690,-0.23690) ==
 == 50-th k-point nmo = 82 (-0.35535,-0.11845,-0.35535) ==
 == 51-th k-point nmo = 82 (-0.23690,0.00000,-0.47380) ==
 == 52-th k-point nmo = 82 (-0.11845,0.11845,-0.59225) ==
 == 53-th k-point nmo = 82 (-0.00000,0.23690,-0.71071) ==
 == 54-th k-point nmo = 82 (0.11845,0.35535,-0.82916) ==
 == 55-th k-point nmo = 82 (0.23690,0.47380,-0.94761) ==
 == 56-th k-point nmo = 82 (-0.35535,-0.35535,-0.11845) ==
 == 57-th k-point nmo = 83 (-0.23690,-0.23690,-0.23690) ==
 == 58-th k-point nmo = 82 (-0.11845,-0.11845,-0.35535) ==
 == 59-th k-point nmo = 81 (-0.00000,0.00000,-0.47380) ==
 == 60-th k-point nmo = 82 (0.11845,0.11845,-0.59225) ==
 == 61-th k-point nmo = 83 (0.23690,0.23690,-0.71071) ==
 == 62-th k-point nmo = 83 (0.35535,0.35535,-0.82916) ==
 == 63-th k-point nmo = 82 (-0.23690,-0.47380,-0.00000) ==
 == 64-th k-point nmo = 82 (-0.11845,-0.35535,-0.11845) ==
 == 65-th k-point nmo = 81 (-0.00000,-0.23690,-0.23690) ==
 == 66-th k-point nmo = 82 (0.11845,-0.11845,-0.35535) ==
 == 67-th k-point nmo = 82 (0.23690,0.00000,-0.47380) ==
 == 68-th k-point nmo = 82 (0.35535,0.11845,-0.59225) ==
 == 69-th k-point nmo = 82 (0.47380,0.23690,-0.71071) ==
 == 70-th k-point nmo = 82 (-0.11845,-0.59225,0.11845) ==
 == 71-th k-point nmo = 81 (-0.00000,-0.47380,-0.00000) ==
 == 72-th k-point nmo = 82 (0.11845,-0.35535,-0.11845) ==
 == 73-th k-point nmo = 83 (0.23690,-0.23690,-0.23690) ==
 == 74-th k-point nmo = 82 (0.35535,-0.11845,-0.35535) ==
 == 75-th k-point nmo = 83 (0.47380,0.00000,-0.47380) ==
 == 76-th k-point nmo = 83 (0.59225,0.11845,-0.59225) ==
 == 77-th k-point nmo = 82 (0.00000,-0.71071,0.23690) ==
 == 78-th k-point nmo = 82 (0.11845,-0.59225,0.11845) ==
 == 79-th k-point nmo = 82 (0.23690,-0.47380,-0.00000) ==
 == 80-th k-point nmo = 82 (0.35535,-0.35535,-0.11845) ==
 == 81-th k-point nmo = 83 (0.47380,-0.23690,-0.23690) ==
 == 82-th k-point nmo = 82 (0.59225,-0.11845,-0.35535) ==
 == 83-th k-point nmo = 82 (0.71071,0.00000,-0.47380) ==
 == 84-th k-point nmo = 82 (0.11845,-0.82916,0.35535) ==
 == 85-th k-point nmo = 83 (0.23690,-0.71071,0.23690) ==
 == 86-th k-point nmo = 82 (0.35535,-0.59225,0.11845) ==
 == 87-th k-point nmo = 83 (0.47380,-0.47380,-0.00000) ==
 == 88-th k-point nmo = 82 (0.59225,-0.35535,-0.11845) ==
 == 89-th k-point nmo = 83 (0.71071,-0.23690,-0.23690) ==
 == 90-th k-point nmo = 82 (0.82916,-0.11845,-0.35535) ==
 == 91-th k-point nmo = 82 (0.23690,-0.94761,0.47380) ==
 == 92-th k-point nmo = 83 (0.35535,-0.82916,0.35535) ==
 == 93-th k-point nmo = 82 (0.47380,-0.71071,0.23690) ==
 == 94-th k-point nmo = 83 (0.59225,-0.59225,0.11845) ==
 == 95-th k-point nmo = 82 (0.71071,-0.47380,-0.00000) ==
 == 96-th k-point nmo = 82 (0.82916,-0.35535,-0.11845) ==
 == 97-th k-point nmo = 83 (0.94761,-0.23690,-0.23690) ==
 == 98-th k-point nmo = 82 (-0.59225,-0.11845,-0.11845) ==
 == 99-th k-point nmo = 82 (-0.47380,0.00000,-0.23690) ==
 == 100-th k-point nmo = 82 (-0.35535,0.11845,-0.35535) ==
 == 101-th k-point nmo = 83 (-0.23690,0.23690,-0.47380) ==
 == 102-th k-point nmo = 82 (-0.11845,0.35535,-0.59225) ==
 == 103-th k-point nmo = 82 (-0.00000,0.47380,-0.71071) ==
 == 104-th k-point nmo = 82 (0.11845,0.59225,-0.82916) ==
 == 105-th k-point nmo = 82 (-0.47380,-0.23690,-0.00000) ==
 == 106-th k-point nmo = 82 (-0.35535,-0.11845,-0.11845) ==
 == 107-th k-point nmo = 81 (-0.23690,0.00000,-0.23690) ==
 == 108-th k-point nmo = 82 (-0.11845,0.11845,-0.35535) ==
 == 109-th k-point nmo = 82 (-0.00000,0.23690,-0.47380) ==
 == 110-th k-point nmo = 82 (0.11845,0.35535,-0.59225) ==
 == 111-th k-point nmo = 82 (0.23690,0.47380,-0.71071) ==
 == 112-th k-point nmo = 82 (-0.35535,-0.35535,0.11845) ==
 == 113-th k-point nmo = 81 (-0.23690,-0.23690,-0.00000) ==
 == 114-th k-point nmo = 82 (-0.11845,-0.11845,-0.11845) ==
 == 115-th k-point nmo = 81 (-0.00000,0.00000,-0.23690) ==
 == 116-th k-point nmo = 82 (0.11845,0.11845,-0.35535) ==
 == 117-th k-point nmo = 83 (0.23690,0.23690,-0.47380) ==
 == 118-th k-point nmo = 83 (0.35535,0.35535,-0.59225) ==
 == 119-th k-point nmo = 83 (-0.23690,-0.47380,0.23690) ==
 == 120-th k-point nmo = 82 (-0.11845,-0.35535,0.11845) ==
 == 121-th k-point nmo = 81 (-0.00000,-0.23690,-0.00000) ==
 == 122-th k-point nmo = 82 (0.11845,-0.11845,-0.11845) ==
 == 123-th k-point nmo = 81 (0.23690,0.00000,-0.23690) ==
 == 124-th k-point nmo = 82 (0.35535,0.11845,-0.35535) ==
 == 125-th k-point nmo = 83 (0.47380,0.23690,-0.47380) ==
 == 126-th k-point nmo = 82 (-0.11845,-0.59225,0.35535) ==
 == 127-th k-point nmo = 82 (0.00000,-0.47380,0.23690) ==
 == 128-th k-point nmo = 82 (0.11845,-0.35535,0.11845) ==
 == 129-th k-point nmo = 81 (0.23690,-0.23690,-0.00000) ==
 == 130-th k-point nmo = 82 (0.35535,-0.11845,-0.11845) ==
 == 131-th k-point nmo = 82 (0.47380,0.00000,-0.23690) ==
 == 132-th k-point nmo = 82 (0.59225,0.11845,-0.35535) ==
 == 133-th k-point nmo = 82 (0.00000,-0.71071,0.47380) ==
 == 134-th k-point nmo = 82 (0.11845,-0.59225,0.35535) ==
 == 135-th k-point nmo = 83 (0.23690,-0.47380,0.23690) ==
 == 136-th k-point nmo = 82 (0.35535,-0.35535,0.11845) ==
 == 137-th k-point nmo = 82 (0.47380,-0.23690,-0.00000) ==
 == 138-th k-point nmo = 82 (0.59225,-0.11845,-0.11845) ==
 == 139-th k-point nmo = 82 (0.71071,0.00000,-0.23690) ==
 == 140-th k-point nmo = 82 (0.11845,-0.82916,0.59225) ==
 == 141-th k-point nmo = 82 (0.23690,-0.71071,0.47380) ==
 == 142-th k-point nmo = 83 (0.35535,-0.59225,0.35535) ==
 == 143-th k-point nmo = 83 (0.47380,-0.47380,0.23690) ==
 == 144-th k-point nmo = 82 (0.59225,-0.35535,0.11845) ==
 == 145-th k-point nmo = 82 (0.71071,-0.23690,-0.00000) ==
 == 146-th k-point nmo = 82 (0.82916,-0.11845,-0.11845) ==
 == 147-th k-point nmo = 81 (-0.71071,0.00000,0.00000) ==
 == 148-th k-point nmo = 82 (-0.59225,0.11845,-0.11845) ==
 == 149-th k-point nmo = 83 (-0.47380,0.23690,-0.23690) ==
 == 150-th k-point nmo = 83 (-0.35535,0.35535,-0.35535) ==
 == 151-th k-point nmo = 83 (-0.23690,0.47380,-0.47380) ==
 == 152-th k-point nmo = 83 (-0.11845,0.59225,-0.59225) ==
 == 153-th k-point nmo = 82 (-0.00000,0.71071,-0.71071) ==
 == 154-th k-point nmo = 82 (-0.59225,-0.11845,0.11845) ==
 == 155-th k-point nmo = 81 (-0.47380,0.00000,0.00000) ==
 == 156-th k-point nmo = 82 (-0.35535,0.11845,-0.11845) ==
 == 157-th k-point nmo = 83 (-0.23690,0.23690,-0.23690) ==
 == 158-th k-point nmo = 82 (-0.11845,0.35535,-0.35535) ==
 == 159-th k-point nmo = 83 (-0.00000,0.47380,-0.47380) ==
 == 160-th k-point nmo = 83 (0.11845,0.59225,-0.59225) ==
 == 161-th k-point nmo = 83 (-0.47380,-0.23690,0.23690) ==
 == 162-th k-point nmo = 82 (-0.35535,-0.11845,0.11845) ==
 == 163-th k-point nmo = 81 (-0.23690,0.00000,0.00000) ==
 == 164-th k-point nmo = 82 (-0.11845,0.11845,-0.11845) ==
 == 165-th k-point nmo = 81 (-0.00000,0.23690,-0.23690) ==
 == 166-th k-point nmo = 82 (0.11845,0.35535,-0.35535) ==
 == 167-th k-point nmo = 83 (0.23690,0.47380,-0.47380) ==
 == 168-th k-point nmo = 83 (-0.35535,-0.35535,0.35535) ==
 == 169-th k-point nmo = 83 (-0.23690,-0.23690,0.23690) ==
 == 170-th k-point nmo = 82 (-0.11845,-0.11845,0.11845) ==
 == 171-th k-point nmo = 83 (0.00000,0.00000,0.00000) ==
 == 172-th k-point nmo = 82 (0.11845,0.11845,-0.11845) ==
 == 173-th k-point nmo = 83 (0.23690,0.23690,-0.23690) ==
 == 174-th k-point nmo = 83 (0.35535,0.35535,-0.35535) ==
 == 175-th k-point nmo = 83 (-0.23690,-0.47380,0.47380) ==
 == 176-th k-point nmo = 82 (-0.11845,-0.35535,0.35535) ==
 == 177-th k-point nmo = 81 (0.00000,-0.23690,0.23690) ==
 == 178-th k-point nmo = 82 (0.11845,-0.11845,0.11845) ==
 == 179-th k-point nmo = 81 (0.23690,-0.00000,0.00000) ==
 == 180-th k-point nmo = 82 (0.35535,0.11845,-0.11845) ==
 == 181-th k-point nmo = 83 (0.47380,0.23690,-0.23690) ==
 == 182-th k-point nmo = 83 (-0.11845,-0.59225,0.59225) ==
 == 183-th k-point nmo = 83 (0.00000,-0.47380,0.47380) ==
 == 184-th k-point nmo = 82 (0.11845,-0.35535,0.35535) ==
 == 185-th k-point nmo = 83 (0.23690,-0.23690,0.23690) ==
 == 186-th k-point nmo = 82 (0.35535,-0.11845,0.11845) ==
 == 187-th k-point nmo = 81 (0.47380,-0.00000,0.00000) ==
 == 188-th k-point nmo = 82 (0.59225,0.11845,-0.11845) ==
 == 189-th k-point nmo = 82 (0.00000,-0.71071,0.71071) ==
 == 190-th k-point nmo = 83 (0.11845,-0.59225,0.59225) ==
 == 191-th k-point nmo = 83 (0.23690,-0.47380,0.47380) ==
 == 192-th k-point nmo = 83 (0.35535,-0.35535,0.35535) ==
 == 193-th k-point nmo = 83 (0.47380,-0.23690,0.23690) ==
 == 194-th k-point nmo = 82 (0.59225,-0.11845,0.11845) ==
 == 195-th k-point nmo = 81 (0.71071,-0.00000,0.00000) ==
 == 196-th k-point nmo = 82 (-0.82916,0.11845,0.11845) ==
 == 197-th k-point nmo = 82 (-0.71071,0.23690,0.00000) ==
 == 198-th k-point nmo = 82 (-0.59225,0.35535,-0.11845) ==
 == 199-th k-point nmo = 83 (-0.47380,0.47380,-0.23690) ==
 == 200-th k-point nmo = 83 (-0.35535,0.59225,-0.35535) ==
 == 201-th k-point nmo = 82 (-0.23690,0.71071,-0.47380) ==
 == 202-th k-point nmo = 82 (-0.11845,0.82916,-0.59225) ==
 == 203-th k-point nmo = 82 (-0.71071,0.00000,0.23690) ==
 == 204-th k-point nmo = 82 (-0.59225,0.11845,0.11845) ==
 == 205-th k-point nmo = 82 (-0.47380,0.23690,0.00000) ==
 == 206-th k-point nmo = 82 (-0.35535,0.35535,-0.11845) ==
 == 207-th k-point nmo = 83 (-0.23690,0.47380,-0.23690) ==
 == 208-th k-point nmo = 82 (-0.11845,0.59225,-0.35535) ==
 == 209-th k-point nmo = 82 (-0.00000,0.71071,-0.47380) ==
 == 210-th k-point nmo = 82 (-0.59225,-0.11845,0.35535) ==
 == 211-th k-point nmo = 82 (-0.47380,-0.00000,0.23690) ==
 == 212-th k-point nmo = 82 (-0.35535,0.11845,0.11845) ==
 == 213-th k-point nmo = 81 (-0.23690,0.23690,0.00000) ==
 == 214-th k-point nmo = 82 (-0.11845,0.35535,-0.11845) ==
 == 215-th k-point nmo = 82 (-0.00000,0.47380,-0.23690) ==
 == 216-th k-point nmo = 82 (0.11845,0.59225,-0.35535) ==
 == 217-th k-point nmo = 83 (-0.47380,-0.23690,0.47380) ==
 == 218-th k-point nmo = 82 (-0.35535,-0.11845,0.35535) ==
 == 219-th k-point nmo = 81 (-0.23690,-0.00000,0.23690) ==
 == 220-th k-point nmo = 82 (-0.11845,0.11845,0.11845) ==
 == 221-th k-point nmo = 81 (0.00000,0.23690,0.00000) ==
 == 222-th k-point nmo = 82 (0.11845,0.35535,-0.11845) ==
 == 223-th k-point nmo = 83 (0.23690,0.47380,-0.23690) ==
 == 224-th k-point nmo = 83 (-0.35535,-0.35535,0.59225) ==
 == 225-th k-point nmo = 83 (-0.23690,-0.23690,0.47380) ==
 == 226-th k-point nmo = 82 (-0.11845,-0.11845,0.35535) ==
 == 227-th k-point nmo = 81 (0.00000,-0.00000,0.23690) ==
 == 228-th k-point nmo = 82 (0.11845,0.11845,0.11845) ==
 == 229-th k-point nmo = 81 (0.23690,0.23690,0.00000) ==
 == 230-th k-point nmo = 82 (0.35535,0.35535,-0.11845) ==
 == 231-th k-point nmo = 82 (-0.23690,-0.47380,0.71071) ==
 == 232-th k-point nmo = 82 (-0.11845,-0.35535,0.59225) ==
 == 233-th k-point nmo = 82 (0.00000,-0.23690,0.47380) ==
 == 234-th k-point nmo = 82 (0.11845,-0.11845,0.35535) ==
 == 235-th k-point nmo = 81 (0.23690,-0.00000,0.23690) ==
 == 236-th k-point nmo = 82 (0.35535,0.11845,0.11845) ==
 == 237-th k-point nmo = 82 (0.47380,0.23690,0.00000) ==
 == 238-th k-point nmo = 82 (-0.11845,-0.59225,0.82916) ==
 == 239-th k-point nmo = 82 (0.00000,-0.47380,0.71071) ==
 == 240-th k-point nmo = 82 (0.11845,-0.35535,0.59225) ==
 == 241-th k-point nmo = 83 (0.23690,-0.23690,0.47380) ==
 == 242-th k-point nmo = 82 (0.35535,-0.11845,0.35535) ==
 == 243-th k-point nmo = 82 (0.47380,-0.00000,0.23690) ==
 == 244-th k-point nmo = 82 (0.59225,0.11845,0.11845) ==
 == 245-th k-point nmo = 83 (-0.94761,0.23690,0.23690) ==
 == 246-th k-point nmo = 82 (-0.82916,0.35535,0.11845) ==
 == 247-th k-point nmo = 82 (-0.71071,0.47380,0.00000) ==
 == 248-th k-point nmo = 83 (-0.59225,0.59225,-0.11845) ==
 == 249-th k-point nmo = 82 (-0.47380,0.71071,-0.23690) ==
 == 250-th k-point nmo = 83 (-0.35535,0.82916,-0.35535) ==
 == 251-th k-point nmo = 82 (-0.23690,0.94761,-0.47380) ==
 == 252-th k-point nmo = 82 (-0.82916,0.11845,0.35535) ==
 == 253-th k-point nmo = 83 (-0.71071,0.23690,0.23690) ==
 == 254-th k-point nmo = 82 (-0.59225,0.35535,0.11845) ==
 == 255-th k-point nmo = 83 (-0.47380,0.47380,0.00000) ==
 == 256-th k-point nmo = 82 (-0.35535,0.59225,-0.11845) ==
 == 257-th k-point nmo = 83 (-0.23690,0.71071,-0.23690) ==
 == 258-th k-point nmo = 82 (-0.11845,0.82916,-0.35535) ==
 == 259-th k-point nmo = 82 (-0.71071,-0.00000,0.47380) ==
 == 260-th k-point nmo = 82 (-0.59225,0.11845,0.35535) ==
 == 261-th k-point nmo = 83 (-0.47380,0.23690,0.23690) ==
 == 262-th k-point nmo = 82 (-0.35535,0.35535,0.11845) ==
 == 263-th k-point nmo = 82 (-0.23690,0.47380,0.00000) ==
 == 264-th k-point nmo = 82 (-0.11845,0.59225,-0.11845) ==
 == 265-th k-point nmo = 82 (0.00000,0.71071,-0.23690) ==
 == 266-th k-point nmo = 83 (-0.59225,-0.11845,0.59225) ==
 == 267-th k-point nmo = 83 (-0.47380,-0.00000,0.47380) ==
 == 268-th k-point nmo = 82 (-0.35535,0.11845,0.35535) ==
 == 269-th k-point nmo = 83 (-0.23690,0.23690,0.23690) ==
 == 270-th k-point nmo = 82 (-0.11845,0.35535,0.11845) ==
 == 271-th k-point nmo = 81 (0.00000,0.47380,0.00000) ==
 == 272-th k-point nmo = 82 (0.11845,0.59225,-0.11845) ==
 == 273-th k-point nmo = 82 (-0.47380,-0.23690,0.71071) ==
 == 274-th k-point nmo = 82 (-0.35535,-0.11845,0.59225) ==
 == 275-th k-point nmo = 82 (-0.23690,-0.00000,0.47380) ==
 == 276-th k-point nmo = 82 (-0.11845,0.11845,0.35535) ==
 == 277-th k-point nmo = 81 (0.00000,0.23690,0.23690) ==
 == 278-th k-point nmo = 82 (0.11845,0.35535,0.11845) ==
 == 279-th k-point nmo = 82 (0.23690,0.47380,0.00000) ==
 == 280-th k-point nmo = 83 (-0.35535,-0.35535,0.82916) ==
 == 281-th k-point nmo = 83 (-0.23690,-0.23690,0.71071) ==
 == 282-th k-point nmo = 82 (-0.11845,-0.11845,0.59225) ==
 == 283-th k-point nmo = 81 (0.00000,-0.00000,0.47380) ==
 == 284-th k-point nmo = 82 (0.11845,0.11845,0.35535) ==
 == 285-th k-point nmo = 83 (0.23690,0.23690,0.23690) ==
 == 286-th k-point nmo = 82 (0.35535,0.35535,0.11845) ==
 == 287-th k-point nmo = 82 (-0.23690,-0.47380,0.94761) ==
 == 288-th k-point nmo = 82 (-0.11845,-0.35535,0.82916) ==
 == 289-th k-point nmo = 82 (0.00000,-0.23690,0.71071) ==
 == 290-th k-point nmo = 82 (0.11845,-0.11845,0.59225) ==
 == 291-th k-point nmo = 82 (0.23690,-0.00000,0.47380) ==
 == 292-th k-point nmo = 82 (0.35535,0.11845,0.35535) ==
 == 293-th k-point nmo = 83 (0.47380,0.23690,0.23690) ==
 == 294-th k-point nmo = 83 (-1.06606,0.35535,0.35535) ==
 == 295-th k-point nmo = 82 (-0.94761,0.47380,0.23690) ==
 == 296-th k-point nmo = 82 (-0.82916,0.59225,0.11845) ==
 == 297-th k-point nmo = 82 (-0.71071,0.71071,0.00000) ==
 == 298-th k-point nmo = 82 (-0.59225,0.82916,-0.11845) ==
 == 299-th k-point nmo = 82 (-0.47380,0.94761,-0.23690) ==
 == 300-th k-point nmo = 83 (-0.35535,1.06606,-0.35535) ==
 == 301-th k-point nmo = 82 (-0.94761,0.23690,0.47380) ==
 == 302-th k-point nmo = 83 (-0.82916,0.35535,0.35535) ==
 == 303-th k-point nmo = 82 (-0.71071,0.47380,0.23690) ==
 == 304-th k-point nmo = 83 (-0.59225,0.59225,0.11845) ==
 == 305-th k-point nmo = 82 (-0.47380,0.71071,0.00000) ==
 == 306-th k-point nmo = 82 (-0.35535,0.82916,-0.11845) ==
 == 307-th k-point nmo = 83 (-0.23690,0.94761,-0.23690) ==
 == 308-th k-point nmo = 82 (-0.82916,0.11845,0.59225) ==
 == 309-th k-point nmo = 82 (-0.71071,0.23690,0.47380) ==
 == 310-th k-point nmo = 83 (-0.59225,0.35535,0.35535) ==
 == 311-th k-point nmo = 83 (-0.47380,0.47380,0.23690) ==
 == 312-th k-point nmo = 82 (-0.35535,0.59225,0.11845) ==
 == 313-th k-point nmo = 82 (-0.23690,0.71071,0.00000) ==
 == 314-th k-point nmo = 82 (-0.11845,0.82916,-0.11845) ==
 == 315-th k-point nmo = 82 (-0.71071,-0.00000,0.71071) ==
 == 316-th k-point nmo = 83 (-0.59225,0.11845,0.59225) ==
 == 317-th k-point nmo = 83 (-0.47380,0.23690,0.47380) ==
 == 318-th k-point nmo = 83 (-0.35535,0.35535,0.35535) ==
 == 319-th k-point nmo = 83 (-0.23690,0.47380,0.23690) ==
 == 320-th k-point nmo = 82 (-0.11845,0.59225,0.11845) ==
 == 321-th k-point nmo = 81 (0.00000,0.71071,0.00000) ==
 == 322-th k-point nmo = 82 (-0.59225,-0.11845,0.82916) ==
 == 323-th k-point nmo = 82 (-0.47380,-0.00000,0.71071) ==
 == 324-th k-point nmo = 82 (-0.35535,0.11845,0.59225) ==
 == 325-th k-point nmo = 83 (-0.23690,0.23690,0.47380) ==
 == 326-th k-point nmo = 82 (-0.11845,0.35535,0.35535) ==
 == 327-th k-point nmo = 82 (0.00000,0.47380,0.23690) ==
 == 328-th k-point nmo = 82 (0.11845,0.59225,0.11845) ==
 == 329-th k-point nmo = 82 (-0.47380,-0.23690,0.94761) ==
 == 330-th k-point nmo = 82 (-0.35535,-0.11845,0.82916) ==
 == 331-th k-point nmo = 82 (-0.23690,-0.00000,0.71071) ==
 == 332-th k-point nmo = 82 (-0.11845,0.11845,0.59225) ==
 == 333-th k-point nmo = 82 (0.00000,0.23690,0.47380) ==
 == 334-th k-point nmo = 82 (0.11845,0.35535,0.35535) ==
 == 335-th k-point nmo = 83 (0.23690,0.47380,0.23690) ==
 == 336-th k-point nmo = 83 (-0.35535,-0.35535,1.06606) ==
 == 337-th k-point nmo = 83 (-0.23690,-0.23690,0.94761) ==
 == 338-th k-point nmo = 82 (-0.11845,-0.11845,0.82916) ==
 == 339-th k-point nmo = 81 (0.00000,-0.00000,0.71071) ==
 == 340-th k-point nmo = 82 (0.11845,0.11845,0.59225) ==
 == 341-th k-point nmo = 83 (0.23690,0.23690,0.47380) ==
 == 342-th k-point nmo = 83 (0.35535,0.35535,0.35535) ==

 Generate autoSAD guess
backing up fragment data
Atom # 0: li, charge: 0, multiplicity: 2.000000
Atom # 1: f, charge: 0, multiplicity: 2.000000
writing autosad to fragment context
Settings for isolated fragments: 
  frgm_gamma: TRUE
  frgm_center: FALSE

    Running SCF for isolated atom #0
    Fragment Input file: /n/netscratch/joonholee_lab/Lab/hieudinh//lif_solve_def2qzvp_omega_0.3_777.scratch20250909012058/autosad_frgmt_0/frgmt_input.in
    Fragment Output file: /n/netscratch/joonholee_lab/Lab/hieudinh//lif_solve_def2qzvp_omega_0.3_777.scratch20250909012058/autosad_frgmt_0/frgmt_job.out
    Fragment job begins at Tue Sep  9 01:21:44 2025

 Integrated density by DFT XC:
   Numerical integral  =     3.000000007147
   Relative error      =     0.0000002382 %
Final energy components:
 DFT Correlation            Energy =  -0.05090044545114
 DFT Exchange               Energy =  -1.75144597421910
 Kinetic (alpha)            Energy =   3.82935284817785
 Kinetic (beta)             Energy =   3.58515893685386
 Nuclear Attraction (alpha) Energy =  -9.10791001172894
 Nuclear Attraction (beta)  Energy =  -8.01914849492520
 Nuclear Repulsion          Energy =   0.00000000000000
 SEOQF                      Energy =  -0.00000000000000
 Total Coulomb              Energy =   4.05291331077688
----------------------------------------------
    SCF Energy: -7.4619798305
   Total fragment job time:  0.48 s.
    Running SCF for isolated atom #1
    Fragment Input file: /n/netscratch/joonholee_lab/Lab/hieudinh//lif_solve_def2qzvp_omega_0.3_777.scratch20250909012058/autosad_frgmt_1/frgmt_input.in
    Fragment Output file: /n/netscratch/joonholee_lab/Lab/hieudinh//lif_solve_def2qzvp_omega_0.3_777.scratch20250909012058/autosad_frgmt_1/frgmt_job.out
    Fragment job begins at Tue Sep  9 01:21:44 2025

 Integrated density by DFT XC:
   Numerical integral  =     9.000000098353
   Relative error      =     0.0000010928 %
Final energy components:
 DFT Correlation            Energy =  -0.28943664182310
 DFT Exchange               Energy =  -9.96991500891564
 Kinetic (alpha)            Energy =  51.55258412072423
 Kinetic (beta)             Energy =  47.84820569403632
 Nuclear Attraction (alpha) Energy = -125.30574122940678
 Nuclear Attraction (beta)  Energy = -113.20186276241702
 Nuclear Repulsion          Energy =   0.00000000000000
 SEOQF                      Energy =  -0.00000000020726
 Total Coulomb              Energy =  49.69105360806793
----------------------------------------------
    SCF Energy: -99.6751122199
   Total fragment job time:  0.66 s.
restoring fragment data

 ------------------------------------------------------------------------
 Allocate 231149312 B from available memory: 104811012704 B
 Time for generating SCF guess: 1.23 s

 Allocate 446984 B from available memory: 104579863392 B
 Selected algorithms for each term:
  kpts_kinetic -> @0x15476ecd7680
  kpts_nn -> @0x15476ecd7800
  kpts_rij_bigmem -> @0x15476ecd73e0
  kpts_vnuc_df -> @0x15476ecd7380
  kpts_xc -> @0x15476ecd72c0
 Time for computing kinetic matrix is 27.98 s
Start calculating Vnuc DD type!
Start calculating Vnuc CD type!
Start calculating Vnuc CC type!
 Time for computing nuclear attraction matrix is 57.21 s
Compute (P|Q) and use solve on the fly!
Maximum distance between P and Q is 37.07317869796985
Number of images for (P|Qn) is 3451
 Time for computing 2e2c SR integral is 0.16 s
Maximum dynamic memory per thread for 2e3c SR integrals: 0.058 GiB
Batch size for basis function pair is 352 out of 352
 === bvk cell = 0 has 100.000 % of the basis function pairs === 
 === bvk cell = 1 has 100.000 % of the basis function pairs === 
 === bvk cell = 2 has 100.000 % of the basis function pairs === 
 === bvk cell = 3 has 100.000 % of the basis function pairs === 
 === bvk cell = 4 has 100.000 % of the basis function pairs === 
 === bvk cell = 5 has 100.000 % of the basis function pairs === 
 === bvk cell = 6 has 100.000 % of the basis function pairs === 
 === bvk cell = 7 has 100.000 % of the basis function pairs === 
 === bvk cell = 8 has 100.000 % of the basis function pairs === 
 === bvk cell = 9 has 100.000 % of the basis function pairs === 
 === bvk cell = 10 has 100.000 % of the basis function pairs === 
 === bvk cell = 11 has 100.000 % of the basis function pairs === 
 === bvk cell = 12 has 100.000 % of the basis function pairs === 
 === bvk cell = 13 has 100.000 % of the basis function pairs === 
 === bvk cell = 14 has 100.000 % of the basis function pairs === 
 === bvk cell = 15 has 100.000 % of the basis function pairs === 
 === bvk cell = 16 has 100.000 % of the basis function pairs === 
 === bvk cell = 17 has 100.000 % of the basis function pairs === 
 === bvk cell = 18 has 100.000 % of the basis function pairs === 
 === bvk cell = 19 has 100.000 % of the basis function pairs === 
 === bvk cell = 20 has 100.000 % of the basis function pairs === 
 === bvk cell = 21 has 100.000 % of the basis function pairs === 
 === bvk cell = 22 has 100.000 % of the basis function pairs === 
 === bvk cell = 23 has 100.000 % of the basis function pairs === 
 === bvk cell = 24 has 100.000 % of the basis function pairs === 
 === bvk cell = 25 has 100.000 % of the basis function pairs === 
 === bvk cell = 26 has 100.000 % of the basis function pairs === 
 === bvk cell = 27 has 100.000 % of the basis function pairs === 
 === bvk cell = 28 has 100.000 % of the basis function pairs === 
 === bvk cell = 29 has 100.000 % of the basis function pairs === 
 === bvk cell = 30 has 100.000 % of the basis function pairs === 
 === bvk cell = 31 has 100.000 % of the basis function pairs === 
 === bvk cell = 32 has 100.000 % of the basis function pairs === 
 === bvk cell = 33 has 100.000 % of the basis function pairs === 
 === bvk cell = 34 has 100.000 % of the basis function pairs === 
 === bvk cell = 35 has 100.000 % of the basis function pairs === 
 === bvk cell = 36 has 100.000 % of the basis function pairs === 
 === bvk cell = 37 has 100.000 % of the basis function pairs === 
 === bvk cell = 38 has 100.000 % of the basis function pairs === 
 === bvk cell = 39 has 100.000 % of the basis function pairs === 
 === bvk cell = 40 has 100.000 % of the basis function pairs === 
 === bvk cell = 41 has 100.000 % of the basis function pairs === 
 === bvk cell = 42 has 100.000 % of the basis function pairs === 
 === bvk cell = 43 has 100.000 % of the basis function pairs === 
 === bvk cell = 44 has 100.000 % of the basis function pairs === 
 === bvk cell = 45 has 100.000 % of the basis function pairs === 
 === bvk cell = 46 has 100.000 % of the basis function pairs === 
 === bvk cell = 47 has 100.000 % of the basis function pairs === 
 === bvk cell = 48 has 100.000 % of the basis function pairs === 
 === bvk cell = 49 has 100.000 % of the basis function pairs === 
 === bvk cell = 50 has 100.000 % of the basis function pairs === 
 === bvk cell = 51 has 100.000 % of the basis function pairs === 
 === bvk cell = 52 has 100.000 % of the basis function pairs === 
 === bvk cell = 53 has 100.000 % of the basis function pairs === 
 === bvk cell = 54 has 100.000 % of the basis function pairs === 
 === bvk cell = 55 has 100.000 % of the basis function pairs === 
 === bvk cell = 56 has 100.000 % of the basis function pairs === 
 === bvk cell = 57 has 100.000 % of the basis function pairs === 
 === bvk cell = 58 has 100.000 % of the basis function pairs === 
 === bvk cell = 59 has 100.000 % of the basis function pairs === 
 === bvk cell = 60 has 100.000 % of the basis function pairs === 
 === bvk cell = 61 has 100.000 % of the basis function pairs === 
 === bvk cell = 62 has 100.000 % of the basis function pairs === 
 === bvk cell = 63 has 100.000 % of the basis function pairs === 
 === bvk cell = 64 has 100.000 % of the basis function pairs === 
 === bvk cell = 65 has 100.000 % of the basis function pairs === 
 === bvk cell = 66 has 100.000 % of the basis function pairs === 
 === bvk cell = 67 has 100.000 % of the basis function pairs === 
 === bvk cell = 68 has 100.000 % of the basis function pairs === 
 === bvk cell = 69 has 100.000 % of the basis function pairs === 
 === bvk cell = 70 has 100.000 % of the basis function pairs === 
 === bvk cell = 71 has 100.000 % of the basis function pairs === 
 === bvk cell = 72 has 100.000 % of the basis function pairs === 
 === bvk cell = 73 has 100.000 % of the basis function pairs === 
 === bvk cell = 74 has 100.000 % of the basis function pairs === 
 === bvk cell = 75 has 100.000 % of the basis function pairs === 
 === bvk cell = 76 has 100.000 % of the basis function pairs === 
 === bvk cell = 77 has 100.000 % of the basis function pairs === 
 === bvk cell = 78 has 100.000 % of the basis function pairs === 
 === bvk cell = 79 has 100.000 % of the basis function pairs === 
 === bvk cell = 80 has 100.000 % of the basis function pairs === 
 === bvk cell = 81 has 100.000 % of the basis function pairs === 
 === bvk cell = 82 has 100.000 % of the basis function pairs === 
 === bvk cell = 83 has 100.000 % of the basis function pairs === 
 === bvk cell = 84 has 100.000 % of the basis function pairs === 
 === bvk cell = 85 has 100.000 % of the basis function pairs === 
 === bvk cell = 86 has 100.000 % of the basis function pairs === 
 === bvk cell = 87 has 100.000 % of the basis function pairs === 
 === bvk cell = 88 has 100.000 % of the basis function pairs === 
 === bvk cell = 89 has 100.000 % of the basis function pairs === 
 === bvk cell = 90 has 100.000 % of the basis function pairs === 
 === bvk cell = 91 has 100.000 % of the basis function pairs === 
 === bvk cell = 92 has 100.000 % of the basis function pairs === 
 === bvk cell = 93 has 100.000 % of the basis function pairs === 
 === bvk cell = 94 has 100.000 % of the basis function pairs === 
 === bvk cell = 95 has 100.000 % of the basis function pairs === 
 === bvk cell = 96 has 100.000 % of the basis function pairs === 
 === bvk cell = 97 has 100.000 % of the basis function pairs === 
 === bvk cell = 98 has 100.000 % of the basis function pairs === 
 === bvk cell = 99 has 100.000 % of the basis function pairs === 
 === bvk cell = 100 has 100.000 % of the basis function pairs === 
 === bvk cell = 101 has 100.000 % of the basis function pairs === 
 === bvk cell = 102 has 100.000 % of the basis function pairs === 
 === bvk cell = 103 has 100.000 % of the basis function pairs === 
 === bvk cell = 104 has 100.000 % of the basis function pairs === 
 === bvk cell = 105 has 100.000 % of the basis function pairs === 
 === bvk cell = 106 has 100.000 % of the basis function pairs === 
 === bvk cell = 107 has 100.000 % of the basis function pairs === 
 === bvk cell = 108 has 100.000 % of the basis function pairs === 
 === bvk cell = 109 has 100.000 % of the basis function pairs === 
 === bvk cell = 110 has 100.000 % of the basis function pairs === 
 === bvk cell = 111 has 100.000 % of the basis function pairs === 
 === bvk cell = 112 has 100.000 % of the basis function pairs === 
 === bvk cell = 113 has 100.000 % of the basis function pairs === 
 === bvk cell = 114 has 100.000 % of the basis function pairs === 
 === bvk cell = 115 has 100.000 % of the basis function pairs === 
 === bvk cell = 116 has 100.000 % of the basis function pairs === 
 === bvk cell = 117 has 100.000 % of the basis function pairs === 
 === bvk cell = 118 has 100.000 % of the basis function pairs === 
 === bvk cell = 119 has 100.000 % of the basis function pairs === 
 === bvk cell = 120 has 100.000 % of the basis function pairs === 
 === bvk cell = 121 has 100.000 % of the basis function pairs === 
 === bvk cell = 122 has 100.000 % of the basis function pairs === 
 === bvk cell = 123 has 100.000 % of the basis function pairs === 
 === bvk cell = 124 has 100.000 % of the basis function pairs === 
 === bvk cell = 125 has 100.000 % of the basis function pairs === 
 === bvk cell = 126 has 100.000 % of the basis function pairs === 
 === bvk cell = 127 has 100.000 % of the basis function pairs === 
 === bvk cell = 128 has 100.000 % of the basis function pairs === 
 === bvk cell = 129 has 100.000 % of the basis function pairs === 
 === bvk cell = 130 has 100.000 % of the basis function pairs === 
 === bvk cell = 131 has 100.000 % of the basis function pairs === 
 === bvk cell = 132 has 100.000 % of the basis function pairs === 
 === bvk cell = 133 has 100.000 % of the basis function pairs === 
 === bvk cell = 134 has 100.000 % of the basis function pairs === 
 === bvk cell = 135 has 100.000 % of the basis function pairs === 
 === bvk cell = 136 has 100.000 % of the basis function pairs === 
 === bvk cell = 137 has 100.000 % of the basis function pairs === 
 === bvk cell = 138 has 100.000 % of the basis function pairs === 
 === bvk cell = 139 has 100.000 % of the basis function pairs === 
 === bvk cell = 140 has 100.000 % of the basis function pairs === 
 === bvk cell = 141 has 100.000 % of the basis function pairs === 
 === bvk cell = 142 has 100.000 % of the basis function pairs === 
 === bvk cell = 143 has 100.000 % of the basis function pairs === 
 === bvk cell = 144 has 100.000 % of the basis function pairs === 
 === bvk cell = 145 has 100.000 % of the basis function pairs === 
 === bvk cell = 146 has 100.000 % of the basis function pairs === 
 === bvk cell = 147 has 100.000 % of the basis function pairs === 
 === bvk cell = 148 has 100.000 % of the basis function pairs === 
 === bvk cell = 149 has 100.000 % of the basis function pairs === 
 === bvk cell = 150 has 100.000 % of the basis function pairs === 
 === bvk cell = 151 has 100.000 % of the basis function pairs === 
 === bvk cell = 152 has 100.000 % of the basis function pairs === 
 === bvk cell = 153 has 100.000 % of the basis function pairs === 
 === bvk cell = 154 has 100.000 % of the basis function pairs === 
 === bvk cell = 155 has 100.000 % of the basis function pairs === 
 === bvk cell = 156 has 100.000 % of the basis function pairs === 
 === bvk cell = 157 has 100.000 % of the basis function pairs === 
 === bvk cell = 158 has 100.000 % of the basis function pairs === 
 === bvk cell = 159 has 100.000 % of the basis function pairs === 
 === bvk cell = 160 has 100.000 % of the basis function pairs === 
 === bvk cell = 161 has 100.000 % of the basis function pairs === 
 === bvk cell = 162 has 100.000 % of the basis function pairs === 
 === bvk cell = 163 has 100.000 % of the basis function pairs === 
 === bvk cell = 164 has 100.000 % of the basis function pairs === 
 === bvk cell = 165 has 100.000 % of the basis function pairs === 
 === bvk cell = 166 has 100.000 % of the basis function pairs === 
 === bvk cell = 167 has 100.000 % of the basis function pairs === 
 === bvk cell = 168 has 100.000 % of the basis function pairs === 
 === bvk cell = 169 has 100.000 % of the basis function pairs === 
 === bvk cell = 170 has 100.000 % of the basis function pairs === 
 === bvk cell = 171 has 100.000 % of the basis function pairs === 
 === bvk cell = 172 has 100.000 % of the basis function pairs === 
 === bvk cell = 173 has 100.000 % of the basis function pairs === 
 === bvk cell = 174 has 100.000 % of the basis function pairs === 
 === bvk cell = 175 has 100.000 % of the basis function pairs === 
 === bvk cell = 176 has 100.000 % of the basis function pairs === 
 === bvk cell = 177 has 100.000 % of the basis function pairs === 
 === bvk cell = 178 has 100.000 % of the basis function pairs === 
 === bvk cell = 179 has 100.000 % of the basis function pairs === 
 === bvk cell = 180 has 100.000 % of the basis function pairs === 
 === bvk cell = 181 has 100.000 % of the basis function pairs === 
 === bvk cell = 182 has 100.000 % of the basis function pairs === 
 === bvk cell = 183 has 100.000 % of the basis function pairs === 
 === bvk cell = 184 has 100.000 % of the basis function pairs === 
 === bvk cell = 185 has 100.000 % of the basis function pairs === 
 === bvk cell = 186 has 100.000 % of the basis function pairs === 
 === bvk cell = 187 has 100.000 % of the basis function pairs === 
 === bvk cell = 188 has 100.000 % of the basis function pairs === 
 === bvk cell = 189 has 100.000 % of the basis function pairs === 
 === bvk cell = 190 has 100.000 % of the basis function pairs === 
 === bvk cell = 191 has 100.000 % of the basis function pairs === 
 === bvk cell = 192 has 100.000 % of the basis function pairs === 
 === bvk cell = 193 has 100.000 % of the basis function pairs === 
 === bvk cell = 194 has 100.000 % of the basis function pairs === 
 === bvk cell = 195 has 100.000 % of the basis function pairs === 
 === bvk cell = 196 has 100.000 % of the basis function pairs === 
 === bvk cell = 197 has 100.000 % of the basis function pairs === 
 === bvk cell = 198 has 100.000 % of the basis function pairs === 
 === bvk cell = 199 has 100.000 % of the basis function pairs === 
 === bvk cell = 200 has 100.000 % of the basis function pairs === 
 === bvk cell = 201 has 100.000 % of the basis function pairs === 
 === bvk cell = 202 has 100.000 % of the basis function pairs === 
 === bvk cell = 203 has 100.000 % of the basis function pairs === 
 === bvk cell = 204 has 100.000 % of the basis function pairs === 
 === bvk cell = 205 has 100.000 % of the basis function pairs === 
 === bvk cell = 206 has 100.000 % of the basis function pairs === 
 === bvk cell = 207 has 100.000 % of the basis function pairs === 
 === bvk cell = 208 has 100.000 % of the basis function pairs === 
 === bvk cell = 209 has 100.000 % of the basis function pairs === 
 === bvk cell = 210 has 100.000 % of the basis function pairs === 
 === bvk cell = 211 has 100.000 % of the basis function pairs === 
 === bvk cell = 212 has 100.000 % of the basis function pairs === 
 === bvk cell = 213 has 100.000 % of the basis function pairs === 
 === bvk cell = 214 has 100.000 % of the basis function pairs === 
 === bvk cell = 215 has 100.000 % of the basis function pairs === 
 === bvk cell = 216 has 100.000 % of the basis function pairs === 
 === bvk cell = 217 has 100.000 % of the basis function pairs === 
 === bvk cell = 218 has 100.000 % of the basis function pairs === 
 === bvk cell = 219 has 100.000 % of the basis function pairs === 
 === bvk cell = 220 has 100.000 % of the basis function pairs === 
 === bvk cell = 221 has 100.000 % of the basis function pairs === 
 === bvk cell = 222 has 100.000 % of the basis function pairs === 
 === bvk cell = 223 has 100.000 % of the basis function pairs === 
 === bvk cell = 224 has 100.000 % of the basis function pairs === 
 === bvk cell = 225 has 100.000 % of the basis function pairs === 
 === bvk cell = 226 has 100.000 % of the basis function pairs === 
 === bvk cell = 227 has 100.000 % of the basis function pairs === 
 === bvk cell = 228 has 100.000 % of the basis function pairs === 
 === bvk cell = 229 has 100.000 % of the basis function pairs === 
 === bvk cell = 230 has 100.000 % of the basis function pairs === 
 === bvk cell = 231 has 100.000 % of the basis function pairs === 
 === bvk cell = 232 has 100.000 % of the basis function pairs === 
 === bvk cell = 233 has 100.000 % of the basis function pairs === 
 === bvk cell = 234 has 100.000 % of the basis function pairs === 
 === bvk cell = 235 has 100.000 % of the basis function pairs === 
 === bvk cell = 236 has 100.000 % of the basis function pairs === 
 === bvk cell = 237 has 100.000 % of the basis function pairs === 
 === bvk cell = 238 has 100.000 % of the basis function pairs === 
 === bvk cell = 239 has 100.000 % of the basis function pairs === 
 === bvk cell = 240 has 100.000 % of the basis function pairs === 
 === bvk cell = 241 has 100.000 % of the basis function pairs === 
 === bvk cell = 242 has 100.000 % of the basis function pairs === 
 === bvk cell = 243 has 100.000 % of the basis function pairs === 
 === bvk cell = 244 has 100.000 % of the basis function pairs === 
 === bvk cell = 245 has 100.000 % of the basis function pairs === 
 === bvk cell = 246 has 100.000 % of the basis function pairs === 
 === bvk cell = 247 has 100.000 % of the basis function pairs === 
 === bvk cell = 248 has 100.000 % of the basis function pairs === 
 === bvk cell = 249 has 100.000 % of the basis function pairs === 
 === bvk cell = 250 has 100.000 % of the basis function pairs === 
 === bvk cell = 251 has 100.000 % of the basis function pairs === 
 === bvk cell = 252 has 100.000 % of the basis function pairs === 
 === bvk cell = 253 has 100.000 % of the basis function pairs === 
 === bvk cell = 254 has 100.000 % of the basis function pairs === 
 === bvk cell = 255 has 100.000 % of the basis function pairs === 
 === bvk cell = 256 has 100.000 % of the basis function pairs === 
 === bvk cell = 257 has 100.000 % of the basis function pairs === 
 === bvk cell = 258 has 100.000 % of the basis function pairs === 
 === bvk cell = 259 has 100.000 % of the basis function pairs === 
 === bvk cell = 260 has 100.000 % of the basis function pairs === 
 === bvk cell = 261 has 100.000 % of the basis function pairs === 
 === bvk cell = 262 has 100.000 % of the basis function pairs === 
 === bvk cell = 263 has 100.000 % of the basis function pairs === 
 === bvk cell = 264 has 100.000 % of the basis function pairs === 
 === bvk cell = 265 has 100.000 % of the basis function pairs === 
 === bvk cell = 266 has 100.000 % of the basis function pairs === 
 === bvk cell = 267 has 100.000 % of the basis function pairs === 
 === bvk cell = 268 has 100.000 % of the basis function pairs === 
 === bvk cell = 269 has 100.000 % of the basis function pairs === 
 === bvk cell = 270 has 100.000 % of the basis function pairs === 
 === bvk cell = 271 has 100.000 % of the basis function pairs === 
 === bvk cell = 272 has 100.000 % of the basis function pairs === 
 === bvk cell = 273 has 100.000 % of the basis function pairs === 
 === bvk cell = 274 has 100.000 % of the basis function pairs === 
 === bvk cell = 275 has 100.000 % of the basis function pairs === 
 === bvk cell = 276 has 100.000 % of the basis function pairs === 
 === bvk cell = 277 has 100.000 % of the basis function pairs === 
 === bvk cell = 278 has 100.000 % of the basis function pairs === 
 === bvk cell = 279 has 100.000 % of the basis function pairs === 
 === bvk cell = 280 has 100.000 % of the basis function pairs === 
 === bvk cell = 281 has 100.000 % of the basis function pairs === 
 === bvk cell = 282 has 100.000 % of the basis function pairs === 
 === bvk cell = 283 has 100.000 % of the basis function pairs === 
 === bvk cell = 284 has 100.000 % of the basis function pairs === 
 === bvk cell = 285 has 100.000 % of the basis function pairs === 
 === bvk cell = 286 has 100.000 % of the basis function pairs === 
 === bvk cell = 287 has 100.000 % of the basis function pairs === 
 === bvk cell = 288 has 100.000 % of the basis function pairs === 
 === bvk cell = 289 has 100.000 % of the basis function pairs === 
 === bvk cell = 290 has 100.000 % of the basis function pairs === 
 === bvk cell = 291 has 100.000 % of the basis function pairs === 
 === bvk cell = 292 has 100.000 % of the basis function pairs === 
 === bvk cell = 293 has 100.000 % of the basis function pairs === 
 === bvk cell = 294 has 100.000 % of the basis function pairs === 
 === bvk cell = 295 has 100.000 % of the basis function pairs === 
 === bvk cell = 296 has 100.000 % of the basis function pairs === 
 === bvk cell = 297 has 100.000 % of the basis function pairs === 
 === bvk cell = 298 has 100.000 % of the basis function pairs === 
 === bvk cell = 299 has 100.000 % of the basis function pairs === 
 === bvk cell = 300 has 100.000 % of the basis function pairs === 
 === bvk cell = 301 has 100.000 % of the basis function pairs === 
 === bvk cell = 302 has 100.000 % of the basis function pairs === 
 === bvk cell = 303 has 100.000 % of the basis function pairs === 
 === bvk cell = 304 has 100.000 % of the basis function pairs === 
 === bvk cell = 305 has 100.000 % of the basis function pairs === 
 === bvk cell = 306 has 100.000 % of the basis function pairs === 
 === bvk cell = 307 has 100.000 % of the basis function pairs === 
 === bvk cell = 308 has 100.000 % of the basis function pairs === 
 === bvk cell = 309 has 100.000 % of the basis function pairs === 
 === bvk cell = 310 has 100.000 % of the basis function pairs === 
 === bvk cell = 311 has 100.000 % of the basis function pairs === 
 === bvk cell = 312 has 100.000 % of the basis function pairs === 
 === bvk cell = 313 has 100.000 % of the basis function pairs === 
 === bvk cell = 314 has 100.000 % of the basis function pairs === 
 === bvk cell = 315 has 100.000 % of the basis function pairs === 
 === bvk cell = 316 has 100.000 % of the basis function pairs === 
 === bvk cell = 317 has 100.000 % of the basis function pairs === 
 === bvk cell = 318 has 100.000 % of the basis function pairs === 
 === bvk cell = 319 has 100.000 % of the basis function pairs === 
 === bvk cell = 320 has 100.000 % of the basis function pairs === 
 === bvk cell = 321 has 100.000 % of the basis function pairs === 
 === bvk cell = 322 has 100.000 % of the basis function pairs === 
 === bvk cell = 323 has 100.000 % of the basis function pairs === 
 === bvk cell = 324 has 100.000 % of the basis function pairs === 
 === bvk cell = 325 has 100.000 % of the basis function pairs === 
 === bvk cell = 326 has 100.000 % of the basis function pairs === 
 === bvk cell = 327 has 100.000 % of the basis function pairs === 
 === bvk cell = 328 has 100.000 % of the basis function pairs === 
 === bvk cell = 329 has 100.000 % of the basis function pairs === 
 === bvk cell = 330 has 100.000 % of the basis function pairs === 
 === bvk cell = 331 has 100.000 % of the basis function pairs === 
 === bvk cell = 332 has 100.000 % of the basis function pairs === 
 === bvk cell = 333 has 100.000 % of the basis function pairs === 
 === bvk cell = 334 has 100.000 % of the basis function pairs === 
 === bvk cell = 335 has 100.000 % of the basis function pairs === 
 === bvk cell = 336 has 100.000 % of the basis function pairs === 
 === bvk cell = 337 has 100.000 % of the basis function pairs === 
 === bvk cell = 338 has 100.000 % of the basis function pairs === 
 === bvk cell = 339 has 100.000 % of the basis function pairs === 
 === bvk cell = 340 has 100.000 % of the basis function pairs === 
 === bvk cell = 341 has 100.000 % of the basis function pairs === 
 === bvk cell = 342 has 100.000 % of the basis function pairs === 
Static memory requirement for 2e3c SR integrals: 0.086 GB
There are 1 munu batches for computing 2e3c SR integrals with latsum
There are 2 Q batches for computing 2e3c SR integrals with latsum
 Time for computing 2e3c SR integral (CD) is 12.74 s
Maximum dynamic memory per thread for 2e3c SR integrals: 0.225 GiB
Batch size for basis function pair is 4077 out of 4077
 === bvk cell = 0 has 100.000 % of the basis function pairs === 
 === bvk cell = 1 has 89.821 % of the basis function pairs === 
 === bvk cell = 2 has 54.967 % of the basis function pairs === 
 === bvk cell = 3 has 33.014 % of the basis function pairs === 
 === bvk cell = 4 has 30.415 % of the basis function pairs === 
 === bvk cell = 5 has 49.816 % of the basis function pairs === 
 === bvk cell = 6 has 84.646 % of the basis function pairs === 
 === bvk cell = 7 has 89.821 % of the basis function pairs === 
 === bvk cell = 8 has 60.584 % of the basis function pairs === 
 === bvk cell = 9 has 43.831 % of the basis function pairs === 
 === bvk cell = 10 has 21.928 % of the basis function pairs === 
 === bvk cell = 11 has 37.822 % of the basis function pairs === 
 === bvk cell = 12 has 58.376 % of the basis function pairs === 
 === bvk cell = 13 has 85.872 % of the basis function pairs === 
 === bvk cell = 14 has 54.967 % of the basis function pairs === 
 === bvk cell = 15 has 43.831 % of the basis function pairs === 
 === bvk cell = 16 has 21.168 % of the basis function pairs === 
 === bvk cell = 17 has 20.260 % of the basis function pairs === 
 === bvk cell = 18 has 37.626 % of the basis function pairs === 
 === bvk cell = 19 has 54.623 % of the basis function pairs === 
 === bvk cell = 20 has 60.265 % of the basis function pairs === 
 === bvk cell = 21 has 33.014 % of the basis function pairs === 
 === bvk cell = 22 has 21.928 % of the basis function pairs === 
 === bvk cell = 23 has 20.260 % of the basis function pairs === 
 === bvk cell = 24 has 17.758 % of the basis function pairs === 
 === bvk cell = 25 has 25.779 % of the basis function pairs === 
 === bvk cell = 26 has 40.643 % of the basis function pairs === 
 === bvk cell = 27 has 40.594 % of the basis function pairs === 
 === bvk cell = 28 has 30.415 % of the basis function pairs === 
 === bvk cell = 29 has 37.822 % of the basis function pairs === 
 === bvk cell = 30 has 37.626 % of the basis function pairs === 
 === bvk cell = 31 has 25.779 % of the basis function pairs === 
 === bvk cell = 32 has 17.954 % of the basis function pairs === 
 === bvk cell = 33 has 21.364 % of the basis function pairs === 
 === bvk cell = 34 has 22.001 % of the basis function pairs === 
 === bvk cell = 35 has 49.816 % of the basis function pairs === 
 === bvk cell = 36 has 58.376 % of the basis function pairs === 
 === bvk cell = 37 has 54.623 % of the basis function pairs === 
 === bvk cell = 38 has 40.643 % of the basis function pairs === 
 === bvk cell = 39 has 21.364 % of the basis function pairs === 
 === bvk cell = 40 has 19.230 % of the basis function pairs === 
 === bvk cell = 41 has 38.877 % of the basis function pairs === 
 === bvk cell = 42 has 84.646 % of the basis function pairs === 
 === bvk cell = 43 has 85.872 % of the basis function pairs === 
 === bvk cell = 44 has 60.265 % of the basis function pairs === 
 === bvk cell = 45 has 40.594 % of the basis function pairs === 
 === bvk cell = 46 has 22.001 % of the basis function pairs === 
 === bvk cell = 47 has 38.877 % of the basis function pairs === 
 === bvk cell = 48 has 55.139 % of the basis function pairs === 
 === bvk cell = 49 has 85.872 % of the basis function pairs === 
 === bvk cell = 50 has 60.265 % of the basis function pairs === 
 === bvk cell = 51 has 40.594 % of the basis function pairs === 
 === bvk cell = 52 has 22.001 % of the basis function pairs === 
 === bvk cell = 53 has 38.877 % of the basis function pairs === 
 === bvk cell = 54 has 55.139 % of the basis function pairs === 
 === bvk cell = 55 has 84.646 % of the basis function pairs === 
 === bvk cell = 56 has 60.265 % of the basis function pairs === 
 === bvk cell = 57 has 46.137 % of the basis function pairs === 
 === bvk cell = 58 has 22.001 % of the basis function pairs === 
 === bvk cell = 59 has 22.222 % of the basis function pairs === 
 === bvk cell = 60 has 39.858 % of the basis function pairs === 
[...]
 1.14232 1.16958 1.16958 1.30853 1.41333 1.41333 1.73263 1.73263 1.81146 1.86197
 1.99128 1.99128 2.24239 2.37189 2.37189 2.47294 2.74250 2.74250 2.74707 2.89075
 2.93208 2.93208 2.95639 3.56226 3.56227 3.78773 3.78859 3.78859 4.22136 4.48176
 4.76576 5.22647 5.22647 5.51079 5.51079 5.57587 6.10446 6.10446 6.18679 6.40991
 6.40991 7.01093 7.01608 7.01608 7.33845 8.20185 8.25576 8.25576 11.60241 11.60241
 11.61928 11.62971 11.62971 11.66969 11.66971 11.66971 11.73061 13.14158 14.77162 14.92189
 15.16406 15.16406 15.31248 15.31248 15.44196 16.59696 16.59696 16.69470 16.89205 16.89205
 17.76667 56.18199 287.03577
 == 319-th k-point (-0.23690,0.47380,0.23690) occupation: 6==
 -23.85915 -1.46281 -0.67993 -0.04623 0.01470 0.02070 0.46422 0.64460 0.74518 0.75669
 0.99406 1.21606 1.21641 1.34847 1.43069 1.43607 1.64557 1.74286 1.79146 1.93981
 1.94469 2.00866 2.26690 2.34966 2.37250 2.46300 2.59003 2.66084 2.69997 2.82334
 2.89711 2.93300 2.99453 3.54020 3.61754 3.77328 3.86136 3.87527 4.22415 4.50837
 4.76520 5.02160 5.11114 5.34800 5.52078 5.55364 6.16686 6.18639 6.26960 6.53935
 6.57151 6.69466 7.40526 7.84276 8.13969 8.36738 8.43399 8.55033 11.61248 11.61628
 11.62468 11.63221 11.65098 11.65326 11.66031 11.68025 11.71120 12.60479 14.80053 14.91962
 15.05920 15.10590 15.23345 15.32101 15.34513 16.62377 16.66097 16.72378 16.94593 16.99643
 17.41332 55.89681 286.68421
 == 320-th k-point (-0.11845,0.59225,0.11845) occupation: 6==
 -23.85915 -1.46256 -0.67580 -0.05169 0.00024 0.00845 0.52268 0.64255 0.72340 0.77774
 0.84829 1.29114 1.32086 1.42358 1.48178 1.49856 1.57550 1.70956 1.75139 1.87338
 1.99860 2.07999 2.10648 2.30930 2.38251 2.51704 2.55650 2.66577 2.72839 2.80964
 2.88571 2.97595 3.13729 3.41320 3.61814 3.85831 3.92438 4.12533 4.63992 4.82384
 4.87938 4.94145 5.09271 5.13266 5.38518 6.00363 6.09459 6.19342 6.24552 6.33049
 6.49133 7.53496 7.71714 8.12226 8.30795 8.34976 8.56495 11.60523 11.61744 11.63158
 11.63693 11.64346 11.64736 11.64961 11.67556 11.72683 12.78577 14.87808 14.93999 14.97373
 15.01408 15.11570 15.12242 15.26309 16.48149 16.55958 16.66987 16.73512 16.82936 17.15735
 55.67973 286.41040
 == 321-th k-point (0.00000,0.71071,0.00000) occupation: 6==
 -23.85915 -1.46225 -0.67144 -0.07039 0.00051 0.00051 0.56643 0.65052 0.69480 0.78617
 0.78617 1.28262 1.42272 1.53116 1.58434 1.58434 1.62377 1.62377 1.70441 1.84381
 1.94214 1.94214 2.22442 2.33758 2.36193 2.36193 2.39084 2.65769 2.71539 2.83408
 2.83408 2.88219 3.12048 3.50208 3.85744 3.85744 4.15559 4.83705 4.85839 4.85839
 4.92140 5.08975 5.13156 5.13156 5.74868 5.90644 5.90644 6.13274 6.31123 6.31799
 7.59078 7.95867 7.95867 8.06349 8.41955 8.41955 11.59613 11.61141 11.61141 11.61975
 11.64361 11.64621 11.64621 11.68058 11.73823 13.20123 14.94395 14.98797 14.98797 15.00596
 15.10123 15.15118 15.15118 16.37087 16.37087 16.58367 16.58674 16.72477 16.82666 55.32415
 285.96160
 == 322-th k-point (-0.59225,-0.11845,0.82916) occupation: 6==
 -23.85915 -1.46219 -0.67180 -0.05972 -0.01514 0.00563 0.56511 0.61554 0.69792 0.76393
 0.89467 1.23064 1.33323 1.43230 1.53432 1.58625 1.61594 1.73735 1.87126 1.88078
 1.99462 2.08885 2.13406 2.15315 2.25387 2.34097 2.44167 2.63759 2.69970 2.85920
 2.87193 2.94515 3.24648 3.38654 3.59649 3.70235 3.77435 4.19024 4.59356 4.69399
 5.08727 5.11568 5.12564 5.33158 5.51282 5.83710 5.86165 6.15133 6.21977 6.39360
 6.60896 7.42783 7.50789 8.02622 8.12313 8.39859 8.88228 11.61194 11.62424 11.63033
 11.64080 11.64225 11.65061 11.66119 11.66554 11.80980 12.42291 14.85452 14.87593 15.09585
 15.11345 15.14396 15.25072 15.37040 16.33686 16.38526 16.64786 16.71637 16.83157 17.30722
 55.72194 286.46866
 == 323-th k-point (-0.47380,-0.00000,0.71071) occupation: 6==
 -23.85915 -1.46212 -0.67153 -0.04707 -0.03356 0.00870 0.57348 0.59080 0.70584 0.75118
 0.99418 1.12011 1.31763 1.44157 1.45635 1.62387 1.66941 1.83339 1.88568 1.94680
 1.98714 2.02677 2.18267 2.22702 2.38203 2.39362 2.52707 2.53929 2.54904 2.76868
 2.86185 2.87432 3.18400 3.45901 3.46752 3.65697 3.75188 4.07746 4.51234 4.94402
 5.04788 5.31688 5.42290 5.46315 5.54221 5.59342 5.92123 5.96143 6.12588 6.37757
 7.08308 7.41961 7.70023 7.73746 8.31290 8.37914 8.68056 11.61894 11.61927 11.62892
 11.63568 11.64040 11.64286 11.64959 11.67614 11.78866 12.38018 14.79321 15.03430 15.06854
 15.21816 15.26619 15.38787 15.40093 16.18785 16.39140 16.48538 16.72433 16.88172 17.55765
 55.85479 286.63602
 == 324-th k-point (-0.35535,0.11845,0.59225) occupation: 6==
 -23.85915 -1.46239 -0.67523 -0.04723 -0.01536 0.01668 0.51219 0.61418 0.73430 0.75161
 1.01480 1.12247 1.32457 1.38282 1.41917 1.51360 1.66708 1.80979 1.90091 1.93360
 1.99042 2.06792 2.12827 2.28697 2.34699 2.39521 2.44006 2.55082 2.69911 2.80869
 2.81514 2.87752 3.35868 3.54294 3.62197 3.73319 3.81503 3.96631 4.71513 4.75020
 5.00602 5.17512 5.24661 5.46945 5.51152 5.84052 6.04218 6.20219 6.31079 6.41670
 6.66776 7.39615 7.59147 8.02479 8.21535 8.34063 8.44558 11.61442 11.61797 11.62159
 11.62828 11.63955 11.65010 11.65657 11.66797 11.69917 12.27956 14.89064 14.91020 15.05811
 15.13157 15.18652 15.29151 15.33896 16.38898 16.51984 16.67488 16.78919 17.05778 17.15501
 55.74561 286.50594
 == 325-th k-point (-0.23690,0.23690,0.47380) occupation: 6==
 -23.85915 -1.46281 -0.67993 -0.04623 0.01470 0.02070 0.46422 0.64460 0.74518 0.75669
 0.99406 1.21606 1.21641 1.34847 1.43069 1.43607 1.64557 1.74286 1.79146 1.93981
 1.94469 2.00866 2.26690 2.34966 2.37250 2.46300 2.59003 2.66084 2.69997 2.82334
 2.89711 2.93300 2.99453 3.54020 3.61754 3.77328 3.86136 3.87527 4.22415 4.50837
 4.76520 5.02160 5.11114 5.34800 5.52078 5.55364 6.16686 6.18639 6.26960 6.53935
 6.57151 6.69466 7.40526 7.84276 8.13969 8.36738 8.43399 8.55033 11.61248 11.61628
 11.62468 11.63221 11.65098 11.65326 11.66031 11.68025 11.71120 12.60479 14.80053 14.91962
 15.05920 15.10590 15.23345 15.32101 15.34513 16.62377 16.66097 16.72378 16.94593 16.99643
 17.41332 55.89681 286.68421
 == 326-th k-point (-0.11845,0.35535,0.35535) occupation: 6==
 -23.85915 -1.46306 -0.68216 -0.03526 0.00828 0.03049 0.45566 0.64600 0.76197 0.76250
 1.07760 1.07924 1.15960 1.39011 1.40081 1.46949 1.62217 1.69862 1.85691 1.89003
 1.90681 2.00836 2.29814 2.31141 2.47828 2.48840 2.65347 2.79790 2.80075 2.84041
 2.93654 2.99142 3.07334 3.56027 3.57588 3.81389 3.93941 4.24128 4.54033 4.66097
 4.76449 4.96854 5.12462 5.36326 5.54569 6.21435 6.23532 6.26688 6.35861 6.55911
 6.82849 7.43051 7.48060 7.82073 7.90370 8.53397 8.66010 11.59781 11.60689 11.61913
 11.62629 11.62805 11.65279 11.65932 11.67520 11.70083 12.25235 14.81550 14.89750 14.91839
 15.02842 15.10801 15.24452 15.32401 16.65658 16.66570 16.73049 16.78126 17.13852 17.24680
 55.80023 286.56546
 == 327-th k-point (0.00000,0.47380,0.23690) occupation: 6==
 -23.85915 -1.46295 -0.68037 -0.03383 -0.00002 0.02167 0.48254 0.64540 0.74941 0.77272
 0.92434 1.19662 1.24281 1.36654 1.44125 1.48435 1.60716 1.68199 1.77543 1.87813
 1.99420 2.06590 2.21948 2.33577 2.34650 2.51036 2.62739 2.65043 2.86977 2.87822
 2.95378 3.04330 3.14440 3.45194 3.67097 3.91390 4.10280 4.11972 4.60753 4.67482
 4.77189 4.95502 5.13616 5.29374 5.46111 6.18963 6.21254 6.25772 6.27021 6.39157
 6.69582 7.48199 7.51804 7.98759 8.43109 8.53125 8.56802 11.60930 11.61022 11.61809
 11.63437 11.63665 11.64883 11.66149 11.66411 11.71570 12.20088 14.85169 14.88098 14.91845
 15.02212 15.11583 15.20188 15.27661 16.61715 16.68843 16.70845 16.75373 16.95554 17.26994
 55.74235 286.49082
 == 328-th k-point (0.11845,0.59225,0.11845) occupation: 6==
 -23.85915 -1.46256 -0.67580 -0.05169 0.00024 0.00845 0.52268 0.64255 0.72340 0.77774
 0.84829 1.29114 1.32086 1.42358 1.48178 1.49856 1.57550 1.70956 1.75139 1.87338
 1.99860 2.07999 2.10648 2.30930 2.38251 2.51704 2.55650 2.66577 2.72839 2.80964
 2.88571 2.97595 3.13729 3.41320 3.61814 3.85831 3.92438 4.12533 4.63992 4.82384
 4.87938 4.94145 5.09271 5.13266 5.38518 6.00363 6.09459 6.19342 6.24552 6.33049
 6.49133 7.53496 7.71714 8.12226 8.30795 8.34976 8.56495 11.60523 11.61744 11.63158
 11.63693 11.64346 11.64736 11.64961 11.67556 11.72683 12.78577 14.87808 14.93999 14.97373
 15.01408 15.11570 15.12242 15.26309 16.48149 16.55958 16.66987 16.73512 16.82936 17.15735
 55.67973 286.41040
 == 329-th k-point (-0.47380,-0.23690,0.94761) occupation: 6==
 -23.85915 -1.46239 -0.67523 -0.04723 -0.01536 0.01668 0.51219 0.61418 0.73430 0.75161
 1.01480 1.12247 1.32457 1.38282 1.41917 1.51360 1.66708 1.80979 1.90091 1.93360
 1.99042 2.06792 2.12827 2.28697 2.34699 2.39521 2.44006 2.55082 2.69911 2.80869
 2.81513 2.87752 3.35868 3.54294 3.62197 3.73319 3.81503 3.96631 4.71513 4.75020
 5.00602 5.17512 5.24661 5.46945 5.51152 5.84052 6.04218 6.20219 6.31079 6.41670
 6.66776 7.39615 7.59147 8.02479 8.21535 8.34063 8.44557 11.61442 11.61797 11.62159
 11.62828 11.63955 11.65010 11.65657 11.66797 11.69917 12.27956 14.89064 14.91020 15.05811
 15.13157 15.18652 15.29151 15.33896 16.38898 16.51984 16.67488 16.78919 17.05778 17.15501
 55.74561 286.50594
 == 330-th k-point (-0.35535,-0.11845,0.82916) occupation: 6==
 -23.85915 -1.46212 -0.67153 -0.04707 -0.03356 0.00870 0.57348 0.59080 0.70584 0.75118
 0.99418 1.12011 1.31763 1.44157 1.45635 1.62387 1.66941 1.83339 1.88568 1.94680
 1.98714 2.02677 2.18267 2.22702 2.38203 2.39362 2.52707 2.53929 2.54904 2.76868
 2.86185 2.87432 3.18400 3.45901 3.46752 3.65697 3.75188 4.07746 4.51234 4.94402
 5.04788 5.31688 5.42290 5.46315 5.54221 5.59342 5.92123 5.96143 6.12588 6.37757
 7.08308 7.41961 7.70023 7.73746 8.31290 8.37914 8.68056 11.61894 11.61927 11.62892
 11.63568 11.64040 11.64286 11.64959 11.67614 11.78866 12.38018 14.79321 15.03430 15.06854
 15.21816 15.26619 15.38787 15.40093 16.18785 16.39140 16.48538 16.72433 16.88172 17.55765
 55.85479 286.63602
 == 331-th k-point (-0.23690,-0.00000,0.71071) occupation: 6==
 -23.85915 -1.46219 -0.67180 -0.05972 -0.01514 0.00563 0.56511 0.61554 0.69792 0.76393
 0.89467 1.23064 1.33323 1.43230 1.53432 1.58625 1.61594 1.73735 1.87126 1.88078
 1.99462 2.08885 2.13406 2.15315 2.25387 2.34097 2.44167 2.63759 2.69970 2.85920
 2.87193 2.94515 3.24648 3.38654 3.59649 3.70235 3.77435 4.19024 4.59356 4.69399
 5.08727 5.11568 5.12564 5.33158 5.51282 5.83710 5.86165 6.15133 6.21977 6.39360
 6.60896 7.42783 7.50789 8.02622 8.12313 8.39859 8.88228 11.61194 11.62424 11.63033
 11.64080 11.64225 11.65061 11.66119 11.66554 11.80980 12.42291 14.85452 14.87593 15.09585
 15.11345 15.14396 15.25072 15.37040 16.33686 16.38526 16.64786 16.71637 16.83157 17.30722
 55.72194 286.46866
 == 332-th k-point (-0.11845,0.11845,0.59225) occupation: 6==
 -23.85915 -1.46256 -0.67580 -0.05169 0.00024 0.00845 0.52268 0.64255 0.72340 0.77774
 0.84829 1.29114 1.32086 1.42358 1.48178 1.49856 1.57550 1.70956 1.75139 1.87338
 1.99860 2.07999 2.10648 2.30930 2.38251 2.51704 2.55650 2.66577 2.72839 2.80964
 2.88571 2.97595 3.13729 3.41320 3.61814 3.85831 3.92438 4.12533 4.63992 4.82384
 4.87938 4.94145 5.09271 5.13266 5.38518 6.00363 6.09459 6.19342 6.24552 6.33049
 6.49133 7.53496 7.71714 8.12226 8.30795 8.34976 8.56495 11.60523 11.61744 11.63158
 11.63693 11.64346 11.64736 11.64961 11.67556 11.72683 12.78577 14.87808 14.93999 14.97373
 15.01408 15.11570 15.12242 15.26309 16.48149 16.55958 16.66987 16.73512 16.82936 17.15735
 55.67973 286.41040
 == 333-th k-point (0.00000,0.23690,0.47380) occupation: 6==
 -23.85915 -1.46295 -0.68037 -0.03383 -0.00002 0.02167 0.48254 0.64540 0.74941 0.77272
 0.92434 1.19662 1.24281 1.36654 1.44125 1.48435 1.60716 1.68199 1.77543 1.87813
 1.99420 2.06590 2.21948 2.33577 2.34650 2.51036 2.62739 2.65043 2.86977 2.87822
 2.95378 3.04330 3.14440 3.45194 3.67097 3.91390 4.10280 4.11972 4.60753 4.67482
 4.77189 4.95502 5.13616 5.29374 5.46111 6.18963 6.21254 6.25772 6.27021 6.39157
 6.69582 7.48199 7.51804 7.98759 8.43109 8.53126 8.56802 11.60930 11.61022 11.61809
 11.63437 11.63665 11.64883 11.66149 11.66411 11.71570 12.20088 14.85169 14.88098 14.91845
 15.02212 15.11583 15.20188 15.27661 16.61715 16.68843 16.70845 16.75373 16.95554 17.26994
 55.74235 286.49082
 == 334-th k-point (0.11845,0.35535,0.35535) occupation: 6==
 -23.85915 -1.46306 -0.68216 -0.03526 0.00828 0.03049 0.45566 0.64600 0.76197 0.76250
 1.07760 1.07924 1.15960 1.39011 1.40081 1.46949 1.62217 1.69862 1.85691 1.89003
 1.90681 2.00836 2.29814 2.31141 2.47828 2.48840 2.65347 2.79790 2.80075 2.84041
 2.93654 2.99142 3.07334 3.56027 3.57588 3.81389 3.93941 4.24129 4.54033 4.66097
 4.76449 4.96854 5.12462 5.36326 5.54569 6.21435 6.23532 6.26688 6.35861 6.55911
 6.82849 7.43051 7.48060 7.82073 7.90370 8.53397 8.66010 11.59781 11.60689 11.61913
 11.62629 11.62805 11.65279 11.65932 11.67520 11.70083 12.25235 14.81550 14.89750 14.91839
 15.02842 15.10801 15.24452 15.32401 16.65658 16.66570 16.73049 16.78126 17.13852 17.24680
 55.80023 286.56546
 == 335-th k-point (0.23690,0.47380,0.23690) occupation: 6==
 -23.85915 -1.46281 -0.67993 -0.04623 0.01470 0.02070 0.46422 0.64460 0.74518 0.75669
 0.99406 1.21606 1.21641 1.34847 1.43069 1.43607 1.64557 1.74286 1.79146 1.93981
 1.94469 2.00866 2.26690 2.34966 2.37250 2.46300 2.59002 2.66084 2.69997 2.82334
 2.89711 2.93300 2.99453 3.54020 3.61754 3.77328 3.86136 3.87527 4.22415 4.50837
 4.76520 5.02160 5.11114 5.34800 5.52078 5.55364 6.16686 6.18639 6.26960 6.53935
 6.57151 6.69466 7.40526 7.84276 8.13969 8.36738 8.43399 8.55033 11.61248 11.61628
 11.62468 11.63221 11.65098 11.65326 11.66031 11.68025 11.71120 12.60479 14.80053 14.91962
 15.05920 15.10590 15.23345 15.32101 15.34513 16.62377 16.66097 16.72378 16.94593 16.99643
 17.41332 55.89681 286.68421
 == 336-th k-point (-0.35535,-0.35535,1.06606) occupation: 6==
 -23.85915 -1.46255 -0.67792 -0.05415 0.00750 0.02412 0.46537 0.63437 0.74215 0.74216
 1.09413 1.16941 1.18871 1.37533 1.41442 1.44744 1.66210 1.76680 1.88567 1.97595
 2.00324 2.01726 2.14922 2.32165 2.33156 2.37137 2.46786 2.70485 2.75379 2.75469
 2.81472 2.85079 2.93388 3.54190 3.64960 3.71771 3.78379 3.84680 4.18876 4.45179
 4.75478 5.06727 5.14645 5.40069 5.48982 5.55031 6.13257 6.16253 6.20634 6.53093
 6.74406 6.80239 7.44951 7.63738 7.98675 8.15284 8.48117 8.50111 11.61211 11.62129
 11.62397 11.62659 11.63002 11.65733 11.66556 11.66946 11.70654 12.72692 14.77006 14.91354
 15.08649 15.12288 15.26167 15.30309 15.36421 16.58943 16.65204 16.66806 16.94704 17.09652
 17.62262 56.14939 287.00453
 == 337-th k-point (-0.23690,-0.23690,0.94761) occupation: 6==
 -23.85915 -1.46224 -0.67319 -0.05285 -0.01920 0.01243 0.53488 0.60507 0.72944 0.75870
 0.94229 1.25268 1.27947 1.36547 1.43595 1.54358 1.72723 1.75871 1.92794 1.96894
 2.03201 2.06702 2.15697 2.17796 2.31330 2.38971 2.39409 2.56991 2.65630 2.71652
 2.84302 2.92151 2.94610 3.36995 3.51677 3.62511 3.81006 3.86462 3.92870 4.67739
 4.77406 5.12546 5.26344 5.44041 5.47112 5.50783 5.68466 5.93408 6.15163 6.32336
 6.70927 6.79331 7.40799 7.79747 8.22697 8.24977 8.38555 8.46918 11.60755 11.62448
 11.63165 11.63953 11.65028 11.65178 11.65881 11.70216 11.70391 12.60737 14.90138 14.91226
 15.11141 15.19328 15.28850 15.31927 15.36264 16.30380 16.41463 16.67855 16.75297 17.05657
 17.40825 55.82107 286.59674
 == 338-th k-point (-0.11845,-0.11845,0.82916) occupation: 6==
 -23.85915 -1.46210 -0.67024 -0.07007 -0.00976 0.00218 0.58491 0.61371 0.69487 0.77744
 0.83438 1.29180 1.39540 1.44115 1.44529 1.66399 1.68629 1.72666 1.85924 1.90141
 1.94846 2.03441 2.15831 2.18997 2.20441 2.25406 2.34960 2.61815 2.74675 2.87044
 2.89613 3.07874 3.10785 3.30359 3.46826 3.84822 3.88380 4.02369 4.80180 4.84759
 4.97127 4.98970 5.17397 5.49476 5.50854 5.52982 5.87993 6.01204 6.27614 6.30630
 6.37241 7.71624 7.82616 7.94944 8.41250 8.59570 8.65560 11.59761 11.61205 11.62691
 11.64818 11.64836 11.65176 11.65222 11.67626 11.73609 12.90158 14.92279 14.94622 15.03072
 15.06501 15.21052 15.34176 15.35347 16.08789 16.48500 16.57017 16.70110 16.74492 17.11213
 55.55969 286.26112
 == 339-th k-point (0.00000,-0.00000,0.71071) occupation: 6==
 -23.85915 -1.46225 -0.67144 -0.07039 0.00051 0.00051 0.56643 0.65052 0.69480 0.78617
 0.78617 1.28262 1.42272 1.53116 1.58434 1.58434 1.62377 1.62377 1.70441 1.84381
 1.94214 1.94214 2.22442 2.33758 2.36193 2.36193 2.39084 2.65769 2.71539 2.83408
 2.83408 2.88219 3.12048 3.50208 3.85744 3.85744 4.15559 4.83705 4.85839 4.85839
 4.92140 5.08975 5.13156 5.13156 5.74868 5.90644 5.90644 6.13274 6.31123 6.31799
 7.59078 7.95867 7.95867 8.06349 8.41955 8.41955 11.59613 11.61141 11.61141 11.61975
 11.64361 11.64621 11.64621 11.68058 11.73823 13.20123 14.94395 14.98797 14.98797 15.00596
 15.10123 15.15118 15.15118 16.37087 16.37087 16.58367 16.58674 16.72477 16.82666 55.32415
 285.96160
 == 340-th k-point (0.11845,0.11845,0.59225) occupation: 6==
 -23.85915 -1.46256 -0.67580 -0.05169 0.00024 0.00845 0.52268 0.64255 0.72340 0.77774
 0.84829 1.29114 1.32086 1.42358 1.48178 1.49856 1.57550 1.70956 1.75139 1.87338
 1.99860 2.07999 2.10648 2.30930 2.38251 2.51704 2.55650 2.66577 2.72839 2.80964
 2.88571 2.97595 3.13729 3.41320 3.61814 3.85831 3.92438 4.12533 4.63992 4.82384
 4.87938 4.94145 5.09271 5.13266 5.38518 6.00363 6.09459 6.19342 6.24552 6.33049
 6.49133 7.53496 7.71714 8.12226 8.30795 8.34976 8.56495 11.60523 11.61744 11.63158
 11.63693 11.64346 11.64736 11.64961 11.67556 11.72683 12.78577 14.87808 14.93999 14.97373
 15.01408 15.11570 15.12242 15.26309 16.48149 16.55958 16.66987 16.73512 16.82936 17.15735
 55.67973 286.41040
 == 341-th k-point (0.23690,0.23690,0.47380) occupation: 6==
 -23.85915 -1.46281 -0.67993 -0.04623 0.01470 0.02070 0.46422 0.64460 0.74518 0.75669
 0.99406 1.21606 1.21641 1.34847 1.43069 1.43607 1.64557 1.74286 1.79146 1.93981
 1.94469 2.00866 2.26690 2.34966 2.37250 2.46300 2.59002 2.66084 2.69997 2.82334
 2.89711 2.93300 2.99453 3.54020 3.61754 3.77328 3.86136 3.87527 4.22415 4.50837
 4.76520 5.02160 5.11114 5.34800 5.52078 5.55364 6.16686 6.18639 6.26960 6.53935
 6.57151 6.69466 7.40526 7.84276 8.13969 8.36738 8.43399 8.55033 11.61248 11.61628
 11.62468 11.63221 11.65098 11.65326 11.66031 11.68025 11.71120 12.60479 14.80053 14.91962
 15.05920 15.10590 15.23345 15.32101 15.34513 16.62377 16.66097 16.72378 16.94593 16.99643
 17.41332 55.89681 286.68421
 == 342-th k-point (0.35535,0.35535,0.35535) occupation: 6==
 -23.85915 -1.46281 -0.68085 -0.05400 0.02798 0.02798 0.43512 0.65691 0.74034 0.74034
 1.14232 1.16958 1.16958 1.30853 1.41333 1.41333 1.73263 1.73263 1.81146 1.86197
 1.99128 1.99128 2.24239 2.37189 2.37189 2.47294 2.74250 2.74250 2.74707 2.89075
 2.93208 2.93208 2.95639 3.56227 3.56227 3.78773 3.78859 3.78859 4.22136 4.48176
 4.76576 5.22648 5.22648 5.51079 5.51079 5.57587 6.10446 6.10446 6.18679 6.40991
 6.40991 7.01093 7.01608 7.01608 7.33845 8.20185 8.25576 8.25576 11.60241 11.60241
 11.61928 11.62971 11.62971 11.66969 11.66971 11.66971 11.73061 13.14158 14.77162 14.92189
 15.16406 15.16406 15.31248 15.31248 15.44196 16.59696 16.59696 16.69470 16.89205 16.89205
 17.76667 56.18199 287.03577
 ---------------------------------------------------------------------------
 VBM is at 171-th k-point with 0.98251 eV
 CBM is at 171-th k-point with 10.17376 eV
 Band gap is 9.19125 eV


           Ground-State Mulliken Net Atomic Charges

      Atom                 Charge (a.u.)          Spin (a.u.)
   --------------------------------------------------------
      1 Li                (0.181897,0.000000)    (0.000000,0.000000)
      2  F              (-0.181897,-0.000000)    (0.000000,0.000000)
   --------------------------------------------------------
  Sum of atomic charges =     (-0.000000,-0.000000)
  Sum of spin   charges =       (0.000000,0.000000)



 Total job time:  473.60 s.
 Tue Sep  9 01:28:53 2025


        *************************************************************
        *                                                           *
        *  Thank you very much for using QCPBC. Have a nice day.    *
        *                                                           *
        *************************************************************

Running job 1 of 1
