                  Welcome to Q-Chem
           with Periodic Boundary Condition
     A Quantum Leap Into The Future Of Chemistry

 Adam Rettig, Xintian Feng, Meng-Fu Chen, Hieu Dinh, Stephen Quiton,
 Anton Ni, Paul J. Robinson, Jinghong Zhang, Joonho Lee

Contributors to earlier versions of Q-Chem not listed above:
 Evgeny Epifanovsky, Leo Cunha, Jerome F. Gonthier, Kuan-Yu Liu
 Input file: /n/netscratch/joonholee_lab/Lab/hieudinh//lif_solve_def2qzvp_omega_0.6_777.scratch20250909012856/lif_solve_def2qzvp_omega_0.6_777.0
 Scratch folder: /n/netscratch/joonholee_lab/Lab/hieudinh//lif_solve_def2qzvp_omega_0.6_777.scratch20250909012856
 Auxillary files located at: /n/holylabs/LABS/joonholee_lab/Lab/qchem_base/qcaux
 Q-Chem begins on Tue Sep  9 01:28:57 2025

 -------------------------------------------------------------
 User input:
 -------------------------------------------------------------
 $lattice
 3
 0.000000 2.005000 2.005000
 2.005000 0.000000 2.005000
 2.005000 2.005000 0.000000
 $end
 
 $unitcell
 ABSOLUTE
 0 1
 Li 0.000000 0.000000 0.000000
 F  2.005000 0.000000 0.000000
 $end
 
 $rem
 jobtype = sp
 method = pbe
 scf_convergence = 5
 scf_guess = autosad
 scf_algorithm = gdm
 basis = def2-qzvp
 aux_basis = gen
 input_bohr = false
 symmetry false
 is_basis_uctr true
 rsdf_print_level 1
 
 mp_mesh = [7,7,7]
 
 integral_direct true
 bvk_cgto true
 
 thresh 14
 mem_total 100000
 threads 32
 
 MAX_SCF_CYCLES 400
 madelung = false
 omega 0.6
 do_rij_bigmem true
 automate_g true
 print_level 10
 grid_type_xc 1
 
 thresh_1e2c_sp 1e-14
 thresh_2e3c_bra_ket_sep 1e-10
 thresh_g 1e-12
 $end
 
 $aux_basis
 Li     0
 S   7   1.00
     498.3689730              0.0207908
     162.9342738              0.0542177
      57.3246735              0.1776783
      21.6427314              0.4181150
       8.7345375              0.6535245
       3.7491039              0.5492618
       1.7006754              0.1701425
 S   1   1.00
       0.8090859             -0.0097548
 S   1   1.00
       0.4000933             -0.0050152
 S   1   1.00
       0.2035793              0.0232200
 !S   1   1.00
 !      0.1054201              0.0134535
 !S   1   1.00
 !      0.0549139              0.0006647
 P   2   1.00
      10.7024696              0.0072923
       3.6551543              0.0060940
 P   1   1.00
       1.2464013              0.0172529
 P   1   1.00
       0.4246282             -0.0160026
 P   1   1.00
       0.1446192             -0.0195111
 D   2   1.00
       1.1510647             -0.0014314
       0.6019112              0.0038969
 D   1   1.00
       0.3109573              0.0024683
 D   1   1.00
       0.1600032              0.0036451
 F   2   1.00
       0.5967918              0.0010494
       0.1790687              0.0006468
 G   1   1.00
       1.0460130             -0.0001971
 ****
 F     0
 S   7   1.00
    3514.9201549              0.1805835
    1231.2458815              0.3676084
     454.1367336              1.2707881
     175.8376258              2.8274164
      71.2081775              4.3588226
      30.0316883              2.7180994
      13.1259023             -0.0804726
 S   1   1.00
       5.9126861             -0.0023370
 S   1   1.00
       2.7284431              1.1236274
 S   1   1.00
       1.2813993              0.9999042
 S   1   1.00
       0.6082793              0.3119579
 S   1   1.00
       0.2897894              0.0312295
 P   2   1.00
      49.3740409             -0.0346332
      13.4874956             -0.0096069
 P   1   1.00
       3.9664900              0.0762067
 P   1   1.00
       1.2226629             -0.0103329
 P   1   1.00
       0.3830317              0.0018853
 D   2   1.00
      29.9719140             -0.0113316
       6.7860915             -0.0467639
 D   1   1.00
       1.8137313             -0.0167604
 D   1   1.00
       0.5157840             -0.0050777
 F   2   1.00
       2.8301877              1.0
       0.9155962              1.0
 G   1   1.00
       1.6097500             -0.0005411
 ****
 $end
 -------------------------------------------------------------
 Running PBC job

 Requested Exchange Correlation Functionals: 
  DFT Exchange:  1.00000 pbe_x
  DFT Correlation:  1.00000 pbe_c
 using 32 threads for computing.
 ---------------------------------------------------------------
      Coordinates of Atoms in Central Unit Cell (Angstroms)
    I     Atom         X            Y            Z
 ---------------------------------------------------------------
    1      Li      0.000000     0.000000     0.000000
    2       F      2.005000     0.000000     0.000000
 ---------------------------------------------------------------
 --------------------------------------------------
              Lattice Vectors (Angstroms)
              X            Y            Z
 --------------------------------------------------
   X       0.000000     2.005000     2.005000
   Y       2.005000     0.000000     2.005000
   Z       2.005000     2.005000     0.000000
 --------------------------------------------------
 --------------------------------------------------
       Reciprocal Lattice Vectors (Angstroms^-1)
              X            Y            Z
 --------------------------------------------------
   X      -1.566879     1.566879     1.566879
   Y       1.566879    -1.566879     1.566879
   Z       1.566879     1.566879    -1.566879
 --------------------------------------------------

 Single point calculation requested

 Hamiltonian contributions:
 List of terms in Hamiltonian: kpts_nn, kpts_kinetic, kpts_vnuc_df, kpts_xc, kpts_rij_bigmem

 K-Points calculation started.

 Basis set information about using solid harmonic (1) or Cartesian (0):
  li : D(1) D(1) F(1) 
  f : D(1) D(1) D(1) F(1) F(1) G(1) 

 Basis set information about using solid harmonic (1) or Cartesian (0):
  li : D(1) D(1) D(1) F(1) G(1) 
  f : D(1) D(1) D(1) F(1) G(1) 

 There are 92 basis functions in the central unit cell.
 Print atomic basis of atoms in the central unit cell:
 -------------------------------------------------------------
2 53 53 30

  0.00000000000000e+00  0.00000000000000e+00  0.00000000000000e+00
  3.78890087987467e+00  0.00000000000000e+00  0.00000000000000e+00

  1.48539770850000e+04
  2.22522364770000e+03
  5.04887390080000e+02
  1.42458475480000e+02
  4.63155995800000e+01
  1.66553354740000e+01
  6.43311861990000e+00
  2.60270438580000e+00
  1.08972454050000e+00
  4.42365959710000e+00
  1.23563949900000e+00
  4.60674706020000e-01
  9.66171669550000e-02
  4.59154522960000e-02
  2.11400487300000e-02
  3.26051092060000e+00
  6.50030431150000e-01
  1.69416710730000e-01
  3.32700000000000e+00
  5.57323437670000e-02
  2.04899592410000e-02
  2.30000000000000e-01
  7.57000000000000e-02
  1.35000000000000e-01
  1.32535973450000e+05
  1.97581125880000e+04
  4.48519969470000e+03
  1.27381510200000e+03
  4.18938312360000e+02
  1.52557219850000e+02
  5.98215248230000e+01
  2.48190769320000e+01
  1.00744466730000e+02
  3.01037282900000e+01
  1.08142832720000e+01
  4.81728867700000e+00
  1.65593342130000e+00
  6.48935195820000e-01
  2.47781045450000e-01
  2.40966541140000e+02
  5.70206997810000e+01
  1.81269521200000e+01
  6.64574046210000e+00
  2.63757228920000e+00
  1.06382172000000e+00
  4.19325627500000e-01
  1.57475882990000e-01
  5.01400000000000e+00
  1.72500000000000e+00
  5.86000000000000e-01
  3.56200000000000e+00
  1.14800000000000e+00
  2.37600000000000e+00

  4.67593013229757e-02
  8.76137465723478e-02
  1.51821576860780e-01
  2.46527731442678e-01
  3.74140539449148e-01
  5.14323804423000e-01
  6.00677517411378e-01
  5.44460466941871e-01
  3.21097242154446e-01
  2.72734215356930e-01
  7.53702662810338e-01
  3.98525272814913e-01
  1.23509628755786e-01
  7.06934606713439e-02
  3.95129614058778e-02
  2.22230636644090e-01
  1.62952044217479e-01
  1.33842808684561e-01
  6.40480761295544e+00
  3.85988372286674e-02
  1.10501063034648e-02
  1.25728336426159e-01
  1.79815549832937e-02
  1.62631785032468e-02
  3.86107783813291e-01
  7.24648975903829e-01
  1.25045495963763e+00
  2.01518764389143e+00
  3.04056815166578e+00
  4.21268576129244e+00
  5.00944268647146e+00
  4.54693835849554e+00
  2.32503271092484e+00
  8.41440806306271e+00
  4.25019052011886e+00
  2.31745919743391e+00
  1.04038060130896e+00
  5.15301123337211e-01
  2.50300174847139e-01
  3.49166780573024e+00
  4.61886090108967e+00
  5.17964869303152e+00
  4.78626212475628e+00
  3.24578400123904e+00
  1.54001926672016e+00
  4.80982576947690e-01
  1.41402684040663e-01
  2.76523492268872e+01
  4.27356565232165e+00
  6.45996677345861e-01
  2.56605380682814e+01
  2.00827738540458e+00
  1.20230076986570e+01

0 0 0 0 1 1 1
0 0 
9 0

0 1 1 9 1 1 1
9 0 
2 0

0 2 2 11 1 1 1
11 0 
1 0

0 3 3 12 1 1 1
12 0 
1 0

0 4 4 13 1 1 1
13 0 
1 0

0 5 5 14 1 1 1
14 0 
1 0

0 6 6 15 1 3 3
15 1 
3 0

0 9 9 18 1 3 3
18 1 
1 0

0 12 12 19 1 3 3
19 1 
1 0

0 15 15 20 1 3 3
20 1 
1 0

0 18 18 21 1 5 6
21 2 
1 1

0 23 23 22 1 5 6
22 2 
1 1

0 28 28 23 1 7 10
23 3 
1 1

1 35 35 24 1 1 1
24 0 
8 0

1 36 36 32 1 1 1
32 0 
2 0

1 37 37 34 1 1 1
34 0 
1 0

1 38 38 35 1 1 1
35 0 
1 0

1 39 39 36 1 1 1
36 0 
1 0

1 40 40 37 1 1 1
37 0 
1 0

1 41 41 38 1 1 1
38 0 
1 0

1 42 42 39 1 3 3
39 1 
5 0

1 45 45 44 1 3 3
44 1 
1 0

1 48 48 45 1 3 3
45 1 
1 0

1 51 51 46 1 3 3
46 1 
1 0

1 54 54 47 1 5 6
47 2 
1 1

1 59 59 48 1 5 6
48 2 
1 1

1 64 64 49 1 5 6
49 2 
1 1

1 69 69 50 1 7 10
50 3 
1 1

1 76 76 51 1 7 10
51 3 
1 1

1 83 83 52 1 9 15
52 4 
1 1

 -------------------------------------------------------------
 Allocate 136872 B from available memory: 104857600000 B
 There are 15625 image cells after screening.
 There are 17628 image cells for CGTO evaluation after screening.
 Real-Space grid for FFT initialized based on kinetic energy cutoff (eV) = 500.0
 Real-Space grid for FFT: (8,8,8)
 There are 4913 real-space grid points.
 There are 27 batches of real-space grid points. 
 Size of each grid batch is around 128
 Grid for AFT initialized based on kinetic energy cutoff (eV) = 500.0
 Real-Space grid for AFT: (8,8,8)
 There are 4913 real-space grid points.

 There are 5912 atom-centered grid points.

 Spacegroup symmetry group: Fm-3m
 Reducing spacegroup symmetry to symmorphic group: F m -3 m
 Monkhorst-Pack mesh is [7,7,7]
 There are 343 k points.
kpoints in Bohr
-0.3553528831 -0.3553528831 -0.3553528831
-0.2369019221 -0.2369019221 -0.4738038442
-0.1184509610 -0.1184509610 -0.5922548052
-0.0000000000 0.0000000000 -0.7107057663
0.1184509610 0.1184509610 -0.8291567273
0.2369019221 0.2369019221 -0.9476076883
0.3553528831 0.3553528831 -1.0660586494
-0.2369019221 -0.4738038442 -0.2369019221
-0.1184509610 -0.3553528831 -0.3553528831
-0.0000000000 -0.2369019221 -0.4738038442
0.1184509610 -0.1184509610 -0.5922548052
0.2369019221 0.0000000000 -0.7107057663
0.3553528831 0.1184509610 -0.8291567273
0.4738038442 0.2369019221 -0.9476076883
-0.1184509610 -0.5922548052 -0.1184509610
-0.0000000000 -0.4738038442 -0.2369019221
0.1184509610 -0.3553528831 -0.3553528831
0.2369019221 -0.2369019221 -0.4738038442
0.3553528831 -0.1184509610 -0.5922548052
0.4738038442 0.0000000000 -0.7107057663
0.5922548052 0.1184509610 -0.8291567273
-0.0000000000 -0.7107057663 -0.0000000000
0.1184509610 -0.5922548052 -0.1184509610
0.2369019221 -0.4738038442 -0.2369019221
0.3553528831 -0.3553528831 -0.3553528831
0.4738038442 -0.2369019221 -0.4738038442
0.5922548052 -0.1184509610 -0.5922548052
0.7107057663 0.0000000000 -0.7107057663
0.1184509610 -0.8291567273 0.1184509610
0.2369019221 -0.7107057663 -0.0000000000
0.3553528831 -0.5922548052 -0.1184509610
0.4738038442 -0.4738038442 -0.2369019221
0.5922548052 -0.3553528831 -0.3553528831
0.7107057663 -0.2369019221 -0.4738038442
0.8291567273 -0.1184509610 -0.5922548052
0.2369019221 -0.9476076883 0.2369019221
0.3553528831 -0.8291567273 0.1184509610
0.4738038442 -0.7107057663 -0.0000000000
0.5922548052 -0.5922548052 -0.1184509610
0.7107057663 -0.4738038442 -0.2369019221
0.8291567273 -0.3553528831 -0.3553528831
0.9476076883 -0.2369019221 -0.4738038442
0.3553528831 -1.0660586494 0.3553528831
0.4738038442 -0.9476076883 0.2369019221
0.5922548052 -0.8291567273 0.1184509610
0.7107057663 -0.7107057663 -0.0000000000
0.8291567273 -0.5922548052 -0.1184509610
0.9476076883 -0.4738038442 -0.2369019221
1.0660586494 -0.3553528831 -0.3553528831
-0.4738038442 -0.2369019221 -0.2369019221
-0.3553528831 -0.1184509610 -0.3553528831
-0.2369019221 0.0000000000 -0.4738038442
-0.1184509610 0.1184509610 -0.5922548052
-0.0000000000 0.2369019221 -0.7107057663
0.1184509610 0.3553528831 -0.8291567273
0.2369019221 0.4738038442 -0.9476076883
-0.3553528831 -0.3553528831 -0.1184509610
-0.2369019221 -0.2369019221 -0.2369019221
-0.1184509610 -0.1184509610 -0.3553528831
-0.0000000000 0.0000000000 -0.4738038442
0.1184509610 0.1184509610 -0.5922548052
0.2369019221 0.2369019221 -0.7107057663
0.3553528831 0.3553528831 -0.8291567273
-0.2369019221 -0.4738038442 -0.0000000000
-0.1184509610 -0.3553528831 -0.1184509610
-0.0000000000 -0.2369019221 -0.2369019221
0.1184509610 -0.1184509610 -0.3553528831
0.2369019221 0.0000000000 -0.4738038442
0.3553528831 0.1184509610 -0.5922548052
0.4738038442 0.2369019221 -0.7107057663
-0.1184509610 -0.5922548052 0.1184509610
-0.0000000000 -0.4738038442 -0.0000000000
0.1184509610 -0.3553528831 -0.1184509610
0.2369019221 -0.2369019221 -0.2369019221
0.3553528831 -0.1184509610 -0.3553528831
0.4738038442 0.0000000000 -0.4738038442
0.5922548052 0.1184509610 -0.5922548052
0.0000000000 -0.7107057663 0.2369019221
0.1184509610 -0.5922548052 0.1184509610
0.2369019221 -0.4738038442 -0.0000000000
0.3553528831 -0.3553528831 -0.1184509610
0.4738038442 -0.2369019221 -0.2369019221
0.5922548052 -0.1184509610 -0.3553528831
0.7107057663 0.0000000000 -0.4738038442
0.1184509610 -0.8291567273 0.3553528831
0.2369019221 -0.7107057663 0.2369019221
0.3553528831 -0.5922548052 0.1184509610
0.4738038442 -0.4738038442 -0.0000000000
0.5922548052 -0.3553528831 -0.1184509610
0.7107057663 -0.2369019221 -0.2369019221
0.8291567273 -0.1184509610 -0.3553528831
0.2369019221 -0.9476076883 0.4738038442
0.3553528831 -0.8291567273 0.3553528831
0.4738038442 -0.7107057663 0.2369019221
0.5922548052 -0.5922548052 0.1184509610
0.7107057663 -0.4738038442 -0.0000000000
0.8291567273 -0.3553528831 -0.1184509610
0.9476076883 -0.2369019221 -0.2369019221
-0.5922548052 -0.1184509610 -0.1184509610
-0.4738038442 0.0000000000 -0.2369019221
-0.3553528831 0.1184509610 -0.3553528831
-0.2369019221 0.2369019221 -0.4738038442
-0.1184509610 0.3553528831 -0.5922548052
-0.0000000000 0.4738038442 -0.7107057663
0.1184509610 0.5922548052 -0.8291567273
-0.4738038442 -0.2369019221 -0.0000000000
-0.3553528831 -0.1184509610 -0.1184509610
-0.2369019221 0.0000000000 -0.2369019221
-0.1184509610 0.1184509610 -0.3553528831
-0.0000000000 0.2369019221 -0.4738038442
0.1184509610 0.3553528831 -0.5922548052
0.2369019221 0.4738038442 -0.7107057663
-0.3553528831 -0.3553528831 0.1184509610
-0.2369019221 -0.2369019221 -0.0000000000
-0.1184509610 -0.1184509610 -0.1184509610
-0.0000000000 0.0000000000 -0.2369019221
0.1184509610 0.1184509610 -0.3553528831
0.2369019221 0.2369019221 -0.4738038442
0.3553528831 0.3553528831 -0.5922548052
-0.2369019221 -0.4738038442 0.2369019221
-0.1184509610 -0.3553528831 0.1184509610
-0.0000000000 -0.2369019221 -0.0000000000
0.1184509610 -0.1184509610 -0.1184509610
0.2369019221 0.0000000000 -0.2369019221
0.3553528831 0.1184509610 -0.3553528831
0.4738038442 0.2369019221 -0.4738038442
-0.1184509610 -0.5922548052 0.3553528831
0.0000000000 -0.4738038442 0.2369019221
0.1184509610 -0.3553528831 0.1184509610
0.2369019221 -0.2369019221 -0.0000000000
0.3553528831 -0.1184509610 -0.1184509610
0.4738038442 0.0000000000 -0.2369019221
0.5922548052 0.1184509610 -0.3553528831
0.0000000000 -0.7107057663 0.4738038442
0.1184509610 -0.5922548052 0.3553528831
0.2369019221 -0.4738038442 0.2369019221
0.3553528831 -0.3553528831 0.1184509610
0.4738038442 -0.2369019221 -0.0000000000
0.5922548052 -0.1184509610 -0.1184509610
0.7107057663 0.0000000000 -0.2369019221
0.1184509610 -0.8291567273 0.5922548052
0.2369019221 -0.7107057663 0.4738038442
0.3553528831 -0.5922548052 0.3553528831
0.4738038442 -0.4738038442 0.2369019221
0.5922548052 -0.3553528831 0.1184509610
0.7107057663 -0.2369019221 -0.0000000000
0.8291567273 -0.1184509610 -0.1184509610
-0.7107057663 0.0000000000 0.0000000000
-0.5922548052 0.1184509610 -0.1184509610
-0.4738038442 0.2369019221 -0.2369019221
-0.3553528831 0.3553528831 -0.3553528831
-0.2369019221 0.4738038442 -0.4738038442
-0.1184509610 0.5922548052 -0.5922548052
-0.0000000000 0.7107057663 -0.7107057663
-0.5922548052 -0.1184509610 0.1184509610
-0.4738038442 0.0000000000 0.0000000000
-0.3553528831 0.1184509610 -0.1184509610
-0.2369019221 0.2369019221 -0.2369019221
-0.1184509610 0.3553528831 -0.3553528831
-0.0000000000 0.4738038442 -0.4738038442
0.1184509610 0.5922548052 -0.5922548052
-0.4738038442 -0.2369019221 0.2369019221
-0.3553528831 -0.1184509610 0.1184509610
-0.2369019221 0.0000000000 0.0000000000
-0.1184509610 0.1184509610 -0.1184509610
-0.0000000000 0.2369019221 -0.2369019221
0.1184509610 0.3553528831 -0.3553528831
0.2369019221 0.4738038442 -0.4738038442
-0.3553528831 -0.3553528831 0.3553528831
-0.2369019221 -0.2369019221 0.2369019221
-0.1184509610 -0.1184509610 0.1184509610
0.0000000000 0.0000000000 0.0000000000
0.1184509610 0.1184509610 -0.1184509610
0.2369019221 0.2369019221 -0.2369019221
0.3553528831 0.3553528831 -0.3553528831
-0.2369019221 -0.4738038442 0.4738038442
-0.1184509610 -0.3553528831 0.3553528831
0.0000000000 -0.2369019221 0.2369019221
0.1184509610 -0.1184509610 0.1184509610
0.2369019221 -0.0000000000 0.0000000000
0.3553528831 0.1184509610 -0.1184509610
0.4738038442 0.2369019221 -0.2369019221
-0.1184509610 -0.5922548052 0.5922548052
0.0000000000 -0.4738038442 0.4738038442
0.1184509610 -0.3553528831 0.3553528831
0.2369019221 -0.2369019221 0.2369019221
0.3553528831 -0.1184509610 0.1184509610
0.4738038442 -0.0000000000 0.0000000000
0.5922548052 0.1184509610 -0.1184509610
0.0000000000 -0.7107057663 0.7107057663
0.1184509610 -0.5922548052 0.5922548052
0.2369019221 -0.4738038442 0.4738038442
0.3553528831 -0.3553528831 0.3553528831
0.4738038442 -0.2369019221 0.2369019221
0.5922548052 -0.1184509610 0.1184509610
0.7107057663 -0.0000000000 0.0000000000
-0.8291567273 0.1184509610 0.1184509610
-0.7107057663 0.2369019221 0.0000000000
-0.5922548052 0.3553528831 -0.1184509610
-0.4738038442 0.4738038442 -0.2369019221
-0.3553528831 0.5922548052 -0.3553528831
-0.2369019221 0.7107057663 -0.4738038442
-0.1184509610 0.8291567273 -0.5922548052
-0.7107057663 0.0000000000 0.2369019221
-0.5922548052 0.1184509610 0.1184509610
-0.4738038442 0.2369019221 0.0000000000
-0.3553528831 0.3553528831 -0.1184509610
-0.2369019221 0.4738038442 -0.2369019221
-0.1184509610 0.5922548052 -0.3553528831
-0.0000000000 0.7107057663 -0.4738038442
-0.5922548052 -0.1184509610 0.3553528831
-0.4738038442 -0.0000000000 0.2369019221
-0.3553528831 0.1184509610 0.1184509610
-0.2369019221 0.2369019221 0.0000000000
-0.1184509610 0.3553528831 -0.1184509610
-0.0000000000 0.4738038442 -0.2369019221
0.1184509610 0.5922548052 -0.3553528831
-0.4738038442 -0.2369019221 0.4738038442
-0.3553528831 -0.1184509610 0.3553528831
-0.2369019221 -0.0000000000 0.2369019221
-0.1184509610 0.1184509610 0.1184509610
0.0000000000 0.2369019221 0.0000000000
0.1184509610 0.3553528831 -0.1184509610
0.2369019221 0.4738038442 -0.2369019221
-0.3553528831 -0.3553528831 0.5922548052
-0.2369019221 -0.2369019221 0.4738038442
-0.1184509610 -0.1184509610 0.3553528831
0.0000000000 -0.0000000000 0.2369019221
0.1184509610 0.1184509610 0.1184509610
0.2369019221 0.2369019221 0.0000000000
0.3553528831 0.3553528831 -0.1184509610
-0.2369019221 -0.4738038442 0.7107057663
-0.1184509610 -0.3553528831 0.5922548052
0.0000000000 -0.2369019221 0.4738038442
0.1184509610 -0.1184509610 0.3553528831
0.2369019221 -0.0000000000 0.2369019221
0.3553528831 0.1184509610 0.1184509610
0.4738038442 0.2369019221 0.0000000000
-0.1184509610 -0.5922548052 0.8291567273
0.0000000000 -0.4738038442 0.7107057663
0.1184509610 -0.3553528831 0.5922548052
0.2369019221 -0.2369019221 0.4738038442
0.3553528831 -0.1184509610 0.3553528831
0.4738038442 -0.0000000000 0.2369019221
0.5922548052 0.1184509610 0.1184509610
-0.9476076883 0.2369019221 0.2369019221
-0.8291567273 0.3553528831 0.1184509610
-0.7107057663 0.4738038442 0.0000000000
-0.5922548052 0.5922548052 -0.1184509610
-0.4738038442 0.7107057663 -0.2369019221
-0.3553528831 0.8291567273 -0.3553528831
-0.2369019221 0.9476076883 -0.4738038442
-0.8291567273 0.1184509610 0.3553528831
-0.7107057663 0.2369019221 0.2369019221
-0.5922548052 0.3553528831 0.1184509610
-0.4738038442 0.4738038442 0.0000000000
-0.3553528831 0.5922548052 -0.1184509610
-0.2369019221 0.7107057663 -0.2369019221
-0.1184509610 0.8291567273 -0.3553528831
-0.7107057663 -0.0000000000 0.4738038442
-0.5922548052 0.1184509610 0.3553528831
-0.4738038442 0.2369019221 0.2369019221
-0.3553528831 0.3553528831 0.1184509610
-0.2369019221 0.4738038442 0.0000000000
-0.1184509610 0.5922548052 -0.1184509610
0.0000000000 0.7107057663 -0.2369019221
-0.5922548052 -0.1184509610 0.5922548052
-0.4738038442 -0.0000000000 0.4738038442
-0.3553528831 0.1184509610 0.3553528831
-0.2369019221 0.2369019221 0.2369019221
-0.1184509610 0.3553528831 0.1184509610
0.0000000000 0.4738038442 0.0000000000
0.1184509610 0.5922548052 -0.1184509610
-0.4738038442 -0.2369019221 0.7107057663
-0.3553528831 -0.1184509610 0.5922548052
-0.2369019221 -0.0000000000 0.4738038442
-0.1184509610 0.1184509610 0.3553528831
0.0000000000 0.2369019221 0.2369019221
0.1184509610 0.3553528831 0.1184509610
0.2369019221 0.4738038442 0.0000000000
-0.3553528831 -0.3553528831 0.8291567273
-0.2369019221 -0.2369019221 0.7107057663
-0.1184509610 -0.1184509610 0.5922548052
0.0000000000 -0.0000000000 0.4738038442
0.1184509610 0.1184509610 0.3553528831
0.2369019221 0.2369019221 0.2369019221
0.3553528831 0.3553528831 0.1184509610
-0.2369019221 -0.4738038442 0.9476076883
-0.1184509610 -0.3553528831 0.8291567273
0.0000000000 -0.2369019221 0.7107057663
0.1184509610 -0.1184509610 0.5922548052
0.2369019221 -0.0000000000 0.4738038442
0.3553528831 0.1184509610 0.3553528831
0.4738038442 0.2369019221 0.2369019221
-1.0660586494 0.3553528831 0.3553528831
-0.9476076883 0.4738038442 0.2369019221
-0.8291567273 0.5922548052 0.1184509610
-0.7107057663 0.7107057663 0.0000000000
-0.5922548052 0.8291567273 -0.1184509610
-0.4738038442 0.9476076883 -0.2369019221
-0.3553528831 1.0660586494 -0.3553528831
-0.9476076883 0.2369019221 0.4738038442
-0.8291567273 0.3553528831 0.3553528831
-0.7107057663 0.4738038442 0.2369019221
-0.5922548052 0.5922548052 0.1184509610
-0.4738038442 0.7107057663 0.0000000000
-0.3553528831 0.8291567273 -0.1184509610
-0.2369019221 0.9476076883 -0.2369019221
-0.8291567273 0.1184509610 0.5922548052
-0.7107057663 0.2369019221 0.4738038442
-0.5922548052 0.3553528831 0.3553528831
-0.4738038442 0.4738038442 0.2369019221
-0.3553528831 0.5922548052 0.1184509610
-0.2369019221 0.7107057663 0.0000000000
-0.1184509610 0.8291567273 -0.1184509610
-0.7107057663 -0.0000000000 0.7107057663
-0.5922548052 0.1184509610 0.5922548052
-0.4738038442 0.2369019221 0.4738038442
-0.3553528831 0.3553528831 0.3553528831
-0.2369019221 0.4738038442 0.2369019221
-0.1184509610 0.5922548052 0.1184509610
0.0000000000 0.7107057663 0.0000000000
-0.5922548052 -0.1184509610 0.8291567273
-0.4738038442 -0.0000000000 0.7107057663
-0.3553528831 0.1184509610 0.5922548052
-0.2369019221 0.2369019221 0.4738038442
-0.1184509610 0.3553528831 0.3553528831
0.0000000000 0.4738038442 0.2369019221
0.1184509610 0.5922548052 0.1184509610
-0.4738038442 -0.2369019221 0.9476076883
-0.3553528831 -0.1184509610 0.8291567273
-0.2369019221 -0.0000000000 0.7107057663
-0.1184509610 0.1184509610 0.5922548052
0.0000000000 0.2369019221 0.4738038442
0.1184509610 0.3553528831 0.3553528831
0.2369019221 0.4738038442 0.2369019221
-0.3553528831 -0.3553528831 1.0660586494
-0.2369019221 -0.2369019221 0.9476076883
-0.1184509610 -0.1184509610 0.8291567273
0.0000000000 -0.0000000000 0.7107057663
0.1184509610 0.1184509610 0.5922548052
0.2369019221 0.2369019221 0.4738038442
0.3553528831 0.3553528831 0.3553528831
 There are 6 alpha and 6 beta electrons
 Start computing overlap matrix
 Allocate 46450432 B from available memory: 104857463136 B
 Time for computing overlap matrix: 30.2830000000 s
 ====== Initialize compute kernels for all-electron RI-J (kpts) ====== 
 ========================================================== 
 Range-separated parameter omega        = 0.599999999999999978
 Threshold for 1e2c shellpair           = 0.000000000000010000
 Threshold for 2e2c SR integral         = 0.000000000000000001
 Threshold for 2e3c SR integral         = 0.000000000100000000
 Threshold for AFT G-space screening is = 0.000000000001000000
 The exponent cutoff for C/D classification (omega2 / 2) is  = 0.179999999999999993
 ========================================================== 
 === Post process the basis set for RI calculation (exp_cutoff = 0.179999999999999993 ) === 
nshells_b1 before uncontraction = 30
nshells_b1 after uncontraction = 31
nshells_baux before uncontraction = 28
nshells_baux after uncontraction = 28
===============================================
nbsf total   = 95
nbsf compact = 68
nbsf diffuse = 27
naux total   = 96
naux compact = 96
naux diffuse = 0
nshells_bnuc = 2

 Number of unique atoms is 2
 Unique atom #0 (li) has 6 shells.
 Unique atom #1 (f) has 16 shells.

Shell 0 to 5 belongs to atom li
Shell 6 to 21 belongs to atom f

 Number of unique atoms is 2
 Unique atom #0 (li) has 8 shells.
 Unique atom #1 (f) has 1 shells.

Shell 0 to 7 belongs to atom li
Shell 8 to 8 belongs to atom f

 Number of unique atom is 2
 Unique atom #0 (li) has 13 auxiliary shells.
 Unique atom #1 (f) has 15 auxiliary shells.

Auxiliary Shell 0 to 12 belongs to atom li
Auxiliary Shell 13 to 27 belongs to atom f

================= Automatically determine grid size for reciprocal space summation =================
 Range-separated parameter = 0.60000000000000 and G-space screening threshold = 0.00000000000100
The number of grid points along each axis dimension is (5, 5, 5)
Total number of grid points = 1331

Use nonortho shellpair for diffuse density
======== Initializing relevant kernel for RIJ (DD type) ========
There are 45 shellpairs in the reference unit cell
There are 26313 images and we expect to have 1184085 in total
There are 63069 shellpairs in the lattice sum after screening
======== Initializing relevant kernel for RIJ (CD type) ========
There are 198 shellpairs in the reference unit cell
There are 14939 images and we expect to have 2957922 in total
There are 137232 shellpairs in the lattice sum after screening
****** AFT -> SR ******
Maximum bra distance cutoff is 39.000000000000
Maximum bra ket distance cutoff is 24.073630136986
Maximum bra ket screening distance is 21.468750000000
Number of auxiliary image is 3829
There are 198 shellpairs in the reference unit cell
There are 3829 images and we expect to have 758142 in total
There are 137232 shellpairs in the lattice sum after screening
Available memory per thread for 2e3c calculation is 3.275344147000Gb
Finish initializing 2e3c SR with the lattice sum!
=================================================
======== Initializing relevant kernel for RIJ (CC type) ========
There are 250 shellpairs in the reference unit cell
There are 1873 images and we expect to have 468250 in total
There are 6959 shellpairs in the lattice sum after screening
****** AFT -> SR ******
Maximum bra distance cutoff is 15.000000000000
Maximum bra ket distance cutoff is 23.750713608742
Maximum bra ket screening distance is 20.437500000000
Number of auxiliary image is 1217
There are 250 shellpairs in the reference unit cell
There are 437 images and we expect to have 109250 in total
There are 6959 shellpairs in the lattice sum after screening
Available memory per thread for 2e3c calculation is 3.275344147000Gb
Finish initializing 2e3c SR with the lattice sum!
=================================================
======== Initializing the SR component for Vnuc (CD type) ========
Maximum bra distance cutoff is 39.000000000000
Maximum bra ket distance cutoff is 16.349677604964
Maximum bra ket screening distance is 13.839230860025
Number of auxiliary image is 3829
There are 198 shellpairs in the reference unit cell
There are 3829 images and we expect to have 758142 in total
There are 137232 shellpairs in the lattice sum after screening
Available memory per thread for 2e3c calculation is 3.275344147000Gb
Finish initializing 2e3c SR with the lattice sum!
=================================================
======== Initialize the SR component for Vnuc (CC type) ========
Maximum bra distance cutoff is 15.000000000000
Maximum bra ket distance cutoff is 16.491629898159
Maximum bra ket screening distance is 12.239733225022
Number of auxiliary image is 527
There are 250 shellpairs in the reference unit cell
There are 437 images and we expect to have 109250 in total
There are 6959 shellpairs in the lattice sum after screening
Available memory per thread for 2e3c calculation is 3.275344147000Gb
Finish initializing 2e3c SR with the lattice sum!
=================================================
 Aufbau occupation scheme, occupation determined by eigenvalue
 == 0-th k-point nmo = 83 (-0.35535,-0.35535,-0.35535) ==
 == 1-th k-point nmo = 83 (-0.23690,-0.23690,-0.47380) ==
 == 2-th k-point nmo = 82 (-0.11845,-0.11845,-0.59225) ==
 == 3-th k-point nmo = 81 (-0.00000,0.00000,-0.71071) ==
 == 4-th k-point nmo = 82 (0.11845,0.11845,-0.82916) ==
 == 5-th k-point nmo = 83 (0.23690,0.23690,-0.94761) ==
 == 6-th k-point nmo = 83 (0.35535,0.35535,-1.06606) ==
 == 7-th k-point nmo = 83 (-0.23690,-0.47380,-0.23690) ==
 == 8-th k-point nmo = 82 (-0.11845,-0.35535,-0.35535) ==
 == 9-th k-point nmo = 82 (-0.00000,-0.23690,-0.47380) ==
 == 10-th k-point nmo = 82 (0.11845,-0.11845,-0.59225) ==
 == 11-th k-point nmo = 82 (0.23690,0.00000,-0.71071) ==
 == 12-th k-point nmo = 82 (0.35535,0.11845,-0.82916) ==
 == 13-th k-point nmo = 82 (0.47380,0.23690,-0.94761) ==
 == 14-th k-point nmo = 82 (-0.11845,-0.59225,-0.11845) ==
 == 15-th k-point nmo = 82 (-0.00000,-0.47380,-0.23690) ==
 == 16-th k-point nmo = 82 (0.11845,-0.35535,-0.35535) ==
 == 17-th k-point nmo = 83 (0.23690,-0.23690,-0.47380) ==
 == 18-th k-point nmo = 82 (0.35535,-0.11845,-0.59225) ==
 == 19-th k-point nmo = 82 (0.47380,0.00000,-0.71071) ==
 == 20-th k-point nmo = 82 (0.59225,0.11845,-0.82916) ==
 == 21-th k-point nmo = 81 (-0.00000,-0.71071,-0.00000) ==
 == 22-th k-point nmo = 82 (0.11845,-0.59225,-0.11845) ==
 == 23-th k-point nmo = 83 (0.23690,-0.47380,-0.23690) ==
 == 24-th k-point nmo = 83 (0.35535,-0.35535,-0.35535) ==
 == 25-th k-point nmo = 83 (0.47380,-0.23690,-0.47380) ==
 == 26-th k-point nmo = 83 (0.59225,-0.11845,-0.59225) ==
 == 27-th k-point nmo = 82 (0.71071,0.00000,-0.71071) ==
 == 28-th k-point nmo = 82 (0.11845,-0.82916,0.11845) ==
 == 29-th k-point nmo = 82 (0.23690,-0.71071,-0.00000) ==
 == 30-th k-point nmo = 82 (0.35535,-0.59225,-0.11845) ==
 == 31-th k-point nmo = 83 (0.47380,-0.47380,-0.23690) ==
 == 32-th k-point nmo = 83 (0.59225,-0.35535,-0.35535) ==
 == 33-th k-point nmo = 82 (0.71071,-0.23690,-0.47380) ==
 == 34-th k-point nmo = 82 (0.82916,-0.11845,-0.59225) ==
 == 35-th k-point nmo = 83 (0.23690,-0.94761,0.23690) ==
 == 36-th k-point nmo = 82 (0.35535,-0.82916,0.11845) ==
 == 37-th k-point nmo = 82 (0.47380,-0.71071,-0.00000) ==
 == 38-th k-point nmo = 83 (0.59225,-0.59225,-0.11845) ==
 == 39-th k-point nmo = 82 (0.71071,-0.47380,-0.23690) ==
 == 40-th k-point nmo = 83 (0.82916,-0.35535,-0.35535) ==
 == 41-th k-point nmo = 82 (0.94761,-0.23690,-0.47380) ==
 == 42-th k-point nmo = 83 (0.35535,-1.06606,0.35535) ==
 == 43-th k-point nmo = 82 (0.47380,-0.94761,0.23690) ==
 == 44-th k-point nmo = 82 (0.59225,-0.82916,0.11845) ==
 == 45-th k-point nmo = 82 (0.71071,-0.71071,-0.00000) ==
 == 46-th k-point nmo = 82 (0.82916,-0.59225,-0.11845) ==
 == 47-th k-point nmo = 82 (0.94761,-0.47380,-0.23690) ==
 == 48-th k-point nmo = 83 (1.06606,-0.35535,-0.35535) ==
 == 49-th k-point nmo = 83 (-0.47380,-0.23690,-0.23690) ==
 == 50-th k-point nmo = 82 (-0.35535,-0.11845,-0.35535) ==
 == 51-th k-point nmo = 82 (-0.23690,0.00000,-0.47380) ==
 == 52-th k-point nmo = 82 (-0.11845,0.11845,-0.59225) ==
 == 53-th k-point nmo = 82 (-0.00000,0.23690,-0.71071) ==
 == 54-th k-point nmo = 82 (0.11845,0.35535,-0.82916) ==
 == 55-th k-point nmo = 82 (0.23690,0.47380,-0.94761) ==
 == 56-th k-point nmo = 82 (-0.35535,-0.35535,-0.11845) ==
 == 57-th k-point nmo = 83 (-0.23690,-0.23690,-0.23690) ==
 == 58-th k-point nmo = 82 (-0.11845,-0.11845,-0.35535) ==
 == 59-th k-point nmo = 81 (-0.00000,0.00000,-0.47380) ==
 == 60-th k-point nmo = 82 (0.11845,0.11845,-0.59225) ==
 == 61-th k-point nmo = 83 (0.23690,0.23690,-0.71071) ==
 == 62-th k-point nmo = 83 (0.35535,0.35535,-0.82916) ==
 == 63-th k-point nmo = 82 (-0.23690,-0.47380,-0.00000) ==
 == 64-th k-point nmo = 82 (-0.11845,-0.35535,-0.11845) ==
 == 65-th k-point nmo = 81 (-0.00000,-0.23690,-0.23690) ==
 == 66-th k-point nmo = 82 (0.11845,-0.11845,-0.35535) ==
 == 67-th k-point nmo = 82 (0.23690,0.00000,-0.47380) ==
 == 68-th k-point nmo = 82 (0.35535,0.11845,-0.59225) ==
 == 69-th k-point nmo = 82 (0.47380,0.23690,-0.71071) ==
 == 70-th k-point nmo = 82 (-0.11845,-0.59225,0.11845) ==
 == 71-th k-point nmo = 81 (-0.00000,-0.47380,-0.00000) ==
 == 72-th k-point nmo = 82 (0.11845,-0.35535,-0.11845) ==
 == 73-th k-point nmo = 83 (0.23690,-0.23690,-0.23690) ==
 == 74-th k-point nmo = 82 (0.35535,-0.11845,-0.35535) ==
 == 75-th k-point nmo = 83 (0.47380,0.00000,-0.47380) ==
 == 76-th k-point nmo = 83 (0.59225,0.11845,-0.59225) ==
 == 77-th k-point nmo = 82 (0.00000,-0.71071,0.23690) ==
 == 78-th k-point nmo = 82 (0.11845,-0.59225,0.11845) ==
 == 79-th k-point nmo = 82 (0.23690,-0.47380,-0.00000) ==
 == 80-th k-point nmo = 82 (0.35535,-0.35535,-0.11845) ==
 == 81-th k-point nmo = 83 (0.47380,-0.23690,-0.23690) ==
 == 82-th k-point nmo = 82 (0.59225,-0.11845,-0.35535) ==
 == 83-th k-point nmo = 82 (0.71071,0.00000,-0.47380) ==
 == 84-th k-point nmo = 82 (0.11845,-0.82916,0.35535) ==
 == 85-th k-point nmo = 83 (0.23690,-0.71071,0.23690) ==
 == 86-th k-point nmo = 82 (0.35535,-0.59225,0.11845) ==
 == 87-th k-point nmo = 83 (0.47380,-0.47380,-0.00000) ==
 == 88-th k-point nmo = 82 (0.59225,-0.35535,-0.11845) ==
 == 89-th k-point nmo = 83 (0.71071,-0.23690,-0.23690) ==
 == 90-th k-point nmo = 82 (0.82916,-0.11845,-0.35535) ==
 == 91-th k-point nmo = 82 (0.23690,-0.94761,0.47380) ==
 == 92-th k-point nmo = 83 (0.35535,-0.82916,0.35535) ==
 == 93-th k-point nmo = 82 (0.47380,-0.71071,0.23690) ==
 == 94-th k-point nmo = 83 (0.59225,-0.59225,0.11845) ==
 == 95-th k-point nmo = 82 (0.71071,-0.47380,-0.00000) ==
 == 96-th k-point nmo = 82 (0.82916,-0.35535,-0.11845) ==
 == 97-th k-point nmo = 83 (0.94761,-0.23690,-0.23690) ==
 == 98-th k-point nmo = 82 (-0.59225,-0.11845,-0.11845) ==
 == 99-th k-point nmo = 82 (-0.47380,0.00000,-0.23690) ==
 == 100-th k-point nmo = 82 (-0.35535,0.11845,-0.35535) ==
 == 101-th k-point nmo = 83 (-0.23690,0.23690,-0.47380) ==
 == 102-th k-point nmo = 82 (-0.11845,0.35535,-0.59225) ==
 == 103-th k-point nmo = 82 (-0.00000,0.47380,-0.71071) ==
 == 104-th k-point nmo = 82 (0.11845,0.59225,-0.82916) ==
 == 105-th k-point nmo = 82 (-0.47380,-0.23690,-0.00000) ==
 == 106-th k-point nmo = 82 (-0.35535,-0.11845,-0.11845) ==
 == 107-th k-point nmo = 81 (-0.23690,0.00000,-0.23690) ==
 == 108-th k-point nmo = 82 (-0.11845,0.11845,-0.35535) ==
 == 109-th k-point nmo = 82 (-0.00000,0.23690,-0.47380) ==
 == 110-th k-point nmo = 82 (0.11845,0.35535,-0.59225) ==
 == 111-th k-point nmo = 82 (0.23690,0.47380,-0.71071) ==
 == 112-th k-point nmo = 82 (-0.35535,-0.35535,0.11845) ==
 == 113-th k-point nmo = 81 (-0.23690,-0.23690,-0.00000) ==
 == 114-th k-point nmo = 82 (-0.11845,-0.11845,-0.11845) ==
 == 115-th k-point nmo = 81 (-0.00000,0.00000,-0.23690) ==
 == 116-th k-point nmo = 82 (0.11845,0.11845,-0.35535) ==
 == 117-th k-point nmo = 83 (0.23690,0.23690,-0.47380) ==
 == 118-th k-point nmo = 83 (0.35535,0.35535,-0.59225) ==
 == 119-th k-point nmo = 83 (-0.23690,-0.47380,0.23690) ==
 == 120-th k-point nmo = 82 (-0.11845,-0.35535,0.11845) ==
 == 121-th k-point nmo = 81 (-0.00000,-0.23690,-0.00000) ==
 == 122-th k-point nmo = 82 (0.11845,-0.11845,-0.11845) ==
 == 123-th k-point nmo = 81 (0.23690,0.00000,-0.23690) ==
 == 124-th k-point nmo = 82 (0.35535,0.11845,-0.35535) ==
 == 125-th k-point nmo = 83 (0.47380,0.23690,-0.47380) ==
 == 126-th k-point nmo = 82 (-0.11845,-0.59225,0.35535) ==
 == 127-th k-point nmo = 82 (0.00000,-0.47380,0.23690) ==
 == 128-th k-point nmo = 82 (0.11845,-0.35535,0.11845) ==
 == 129-th k-point nmo = 81 (0.23690,-0.23690,-0.00000) ==
 == 130-th k-point nmo = 82 (0.35535,-0.11845,-0.11845) ==
 == 131-th k-point nmo = 82 (0.47380,0.00000,-0.23690) ==
 == 132-th k-point nmo = 82 (0.59225,0.11845,-0.35535) ==
 == 133-th k-point nmo = 82 (0.00000,-0.71071,0.47380) ==
 == 134-th k-point nmo = 82 (0.11845,-0.59225,0.35535) ==
 == 135-th k-point nmo = 83 (0.23690,-0.47380,0.23690) ==
 == 136-th k-point nmo = 82 (0.35535,-0.35535,0.11845) ==
 == 137-th k-point nmo = 82 (0.47380,-0.23690,-0.00000) ==
 == 138-th k-point nmo = 82 (0.59225,-0.11845,-0.11845) ==
 == 139-th k-point nmo = 82 (0.71071,0.00000,-0.23690) ==
 == 140-th k-point nmo = 82 (0.11845,-0.82916,0.59225) ==
 == 141-th k-point nmo = 82 (0.23690,-0.71071,0.47380) ==
 == 142-th k-point nmo = 83 (0.35535,-0.59225,0.35535) ==
 == 143-th k-point nmo = 83 (0.47380,-0.47380,0.23690) ==
 == 144-th k-point nmo = 82 (0.59225,-0.35535,0.11845) ==
 == 145-th k-point nmo = 82 (0.71071,-0.23690,-0.00000) ==
 == 146-th k-point nmo = 82 (0.82916,-0.11845,-0.11845) ==
 == 147-th k-point nmo = 81 (-0.71071,0.00000,0.00000) ==
 == 148-th k-point nmo = 82 (-0.59225,0.11845,-0.11845) ==
 == 149-th k-point nmo = 83 (-0.47380,0.23690,-0.23690) ==
 == 150-th k-point nmo = 83 (-0.35535,0.35535,-0.35535) ==
 == 151-th k-point nmo = 83 (-0.23690,0.47380,-0.47380) ==
 == 152-th k-point nmo = 83 (-0.11845,0.59225,-0.59225) ==
 == 153-th k-point nmo = 82 (-0.00000,0.71071,-0.71071) ==
 == 154-th k-point nmo = 82 (-0.59225,-0.11845,0.11845) ==
 == 155-th k-point nmo = 81 (-0.47380,0.00000,0.00000) ==
 == 156-th k-point nmo = 82 (-0.35535,0.11845,-0.11845) ==
 == 157-th k-point nmo = 83 (-0.23690,0.23690,-0.23690) ==
 == 158-th k-point nmo = 82 (-0.11845,0.35535,-0.35535) ==
 == 159-th k-point nmo = 83 (-0.00000,0.47380,-0.47380) ==
 == 160-th k-point nmo = 83 (0.11845,0.59225,-0.59225) ==
 == 161-th k-point nmo = 83 (-0.47380,-0.23690,0.23690) ==
 == 162-th k-point nmo = 82 (-0.35535,-0.11845,0.11845) ==
 == 163-th k-point nmo = 81 (-0.23690,0.00000,0.00000) ==
 == 164-th k-point nmo = 82 (-0.11845,0.11845,-0.11845) ==
 == 165-th k-point nmo = 81 (-0.00000,0.23690,-0.23690) ==
 == 166-th k-point nmo = 82 (0.11845,0.35535,-0.35535) ==
 == 167-th k-point nmo = 83 (0.23690,0.47380,-0.47380) ==
 == 168-th k-point nmo = 83 (-0.35535,-0.35535,0.35535) ==
 == 169-th k-point nmo = 83 (-0.23690,-0.23690,0.23690) ==
 == 170-th k-point nmo = 82 (-0.11845,-0.11845,0.11845) ==
 == 171-th k-point nmo = 83 (0.00000,0.00000,0.00000) ==
 == 172-th k-point nmo = 82 (0.11845,0.11845,-0.11845) ==
 == 173-th k-point nmo = 83 (0.23690,0.23690,-0.23690) ==
 == 174-th k-point nmo = 83 (0.35535,0.35535,-0.35535) ==
 == 175-th k-point nmo = 83 (-0.23690,-0.47380,0.47380) ==
 == 176-th k-point nmo = 82 (-0.11845,-0.35535,0.35535) ==
 == 177-th k-point nmo = 81 (0.00000,-0.23690,0.23690) ==
 == 178-th k-point nmo = 82 (0.11845,-0.11845,0.11845) ==
 == 179-th k-point nmo = 81 (0.23690,-0.00000,0.00000) ==
 == 180-th k-point nmo = 82 (0.35535,0.11845,-0.11845) ==
 == 181-th k-point nmo = 83 (0.47380,0.23690,-0.23690) ==
 == 182-th k-point nmo = 83 (-0.11845,-0.59225,0.59225) ==
 == 183-th k-point nmo = 83 (0.00000,-0.47380,0.47380) ==
 == 184-th k-point nmo = 82 (0.11845,-0.35535,0.35535) ==
 == 185-th k-point nmo = 83 (0.23690,-0.23690,0.23690) ==
 == 186-th k-point nmo = 82 (0.35535,-0.11845,0.11845) ==
 == 187-th k-point nmo = 81 (0.47380,-0.00000,0.00000) ==
 == 188-th k-point nmo = 82 (0.59225,0.11845,-0.11845) ==
 == 189-th k-point nmo = 82 (0.00000,-0.71071,0.71071) ==
 == 190-th k-point nmo = 83 (0.11845,-0.59225,0.59225) ==
 == 191-th k-point nmo = 83 (0.23690,-0.47380,0.47380) ==
 == 192-th k-point nmo = 83 (0.35535,-0.35535,0.35535) ==
 == 193-th k-point nmo = 83 (0.47380,-0.23690,0.23690) ==
 == 194-th k-point nmo = 82 (0.59225,-0.11845,0.11845) ==
 == 195-th k-point nmo = 81 (0.71071,-0.00000,0.00000) ==
 == 196-th k-point nmo = 82 (-0.82916,0.11845,0.11845) ==
 == 197-th k-point nmo = 82 (-0.71071,0.23690,0.00000) ==
 == 198-th k-point nmo = 82 (-0.59225,0.35535,-0.11845) ==
 == 199-th k-point nmo = 83 (-0.47380,0.47380,-0.23690) ==
 == 200-th k-point nmo = 83 (-0.35535,0.59225,-0.35535) ==
 == 201-th k-point nmo = 82 (-0.23690,0.71071,-0.47380) ==
 == 202-th k-point nmo = 82 (-0.11845,0.82916,-0.59225) ==
 == 203-th k-point nmo = 82 (-0.71071,0.00000,0.23690) ==
 == 204-th k-point nmo = 82 (-0.59225,0.11845,0.11845) ==
 == 205-th k-point nmo = 82 (-0.47380,0.23690,0.00000) ==
 == 206-th k-point nmo = 82 (-0.35535,0.35535,-0.11845) ==
 == 207-th k-point nmo = 83 (-0.23690,0.47380,-0.23690) ==
 == 208-th k-point nmo = 82 (-0.11845,0.59225,-0.35535) ==
 == 209-th k-point nmo = 82 (-0.00000,0.71071,-0.47380) ==
 == 210-th k-point nmo = 82 (-0.59225,-0.11845,0.35535) ==
 == 211-th k-point nmo = 82 (-0.47380,-0.00000,0.23690) ==
 == 212-th k-point nmo = 82 (-0.35535,0.11845,0.11845) ==
 == 213-th k-point nmo = 81 (-0.23690,0.23690,0.00000) ==
 == 214-th k-point nmo = 82 (-0.11845,0.35535,-0.11845) ==
 == 215-th k-point nmo = 82 (-0.00000,0.47380,-0.23690) ==
 == 216-th k-point nmo = 82 (0.11845,0.59225,-0.35535) ==
 == 217-th k-point nmo = 83 (-0.47380,-0.23690,0.47380) ==
 == 218-th k-point nmo = 82 (-0.35535,-0.11845,0.35535) ==
 == 219-th k-point nmo = 81 (-0.23690,-0.00000,0.23690) ==
 == 220-th k-point nmo = 82 (-0.11845,0.11845,0.11845) ==
 == 221-th k-point nmo = 81 (0.00000,0.23690,0.00000) ==
 == 222-th k-point nmo = 82 (0.11845,0.35535,-0.11845) ==
 == 223-th k-point nmo = 83 (0.23690,0.47380,-0.23690) ==
 == 224-th k-point nmo = 83 (-0.35535,-0.35535,0.59225) ==
 == 225-th k-point nmo = 83 (-0.23690,-0.23690,0.47380) ==
 == 226-th k-point nmo = 82 (-0.11845,-0.11845,0.35535) ==
 == 227-th k-point nmo = 81 (0.00000,-0.00000,0.23690) ==
 == 228-th k-point nmo = 82 (0.11845,0.11845,0.11845) ==
 == 229-th k-point nmo = 81 (0.23690,0.23690,0.00000) ==
 == 230-th k-point nmo = 82 (0.35535,0.35535,-0.11845) ==
 == 231-th k-point nmo = 82 (-0.23690,-0.47380,0.71071) ==
 == 232-th k-point nmo = 82 (-0.11845,-0.35535,0.59225) ==
 == 233-th k-point nmo = 82 (0.00000,-0.23690,0.47380) ==
 == 234-th k-point nmo = 82 (0.11845,-0.11845,0.35535) ==
 == 235-th k-point nmo = 81 (0.23690,-0.00000,0.23690) ==
 == 236-th k-point nmo = 82 (0.35535,0.11845,0.11845) ==
 == 237-th k-point nmo = 82 (0.47380,0.23690,0.00000) ==
 == 238-th k-point nmo = 82 (-0.11845,-0.59225,0.82916) ==
 == 239-th k-point nmo = 82 (0.00000,-0.47380,0.71071) ==
 == 240-th k-point nmo = 82 (0.11845,-0.35535,0.59225) ==
 == 241-th k-point nmo = 83 (0.23690,-0.23690,0.47380) ==
 == 242-th k-point nmo = 82 (0.35535,-0.11845,0.35535) ==
 == 243-th k-point nmo = 82 (0.47380,-0.00000,0.23690) ==
 == 244-th k-point nmo = 82 (0.59225,0.11845,0.11845) ==
 == 245-th k-point nmo = 83 (-0.94761,0.23690,0.23690) ==
 == 246-th k-point nmo = 82 (-0.82916,0.35535,0.11845) ==
 == 247-th k-point nmo = 82 (-0.71071,0.47380,0.00000) ==
 == 248-th k-point nmo = 83 (-0.59225,0.59225,-0.11845) ==
 == 249-th k-point nmo = 82 (-0.47380,0.71071,-0.23690) ==
 == 250-th k-point nmo = 83 (-0.35535,0.82916,-0.35535) ==
 == 251-th k-point nmo = 82 (-0.23690,0.94761,-0.47380) ==
 == 252-th k-point nmo = 82 (-0.82916,0.11845,0.35535) ==
 == 253-th k-point nmo = 83 (-0.71071,0.23690,0.23690) ==
 == 254-th k-point nmo = 82 (-0.59225,0.35535,0.11845) ==
 == 255-th k-point nmo = 83 (-0.47380,0.47380,0.00000) ==
 == 256-th k-point nmo = 82 (-0.35535,0.59225,-0.11845) ==
 == 257-th k-point nmo = 83 (-0.23690,0.71071,-0.23690) ==
 == 258-th k-point nmo = 82 (-0.11845,0.82916,-0.35535) ==
 == 259-th k-point nmo = 82 (-0.71071,-0.00000,0.47380) ==
 == 260-th k-point nmo = 82 (-0.59225,0.11845,0.35535) ==
 == 261-th k-point nmo = 83 (-0.47380,0.23690,0.23690) ==
 == 262-th k-point nmo = 82 (-0.35535,0.35535,0.11845) ==
 == 263-th k-point nmo = 82 (-0.23690,0.47380,0.00000) ==
 == 264-th k-point nmo = 82 (-0.11845,0.59225,-0.11845) ==
 == 265-th k-point nmo = 82 (0.00000,0.71071,-0.23690) ==
 == 266-th k-point nmo = 83 (-0.59225,-0.11845,0.59225) ==
 == 267-th k-point nmo = 83 (-0.47380,-0.00000,0.47380) ==
 == 268-th k-point nmo = 82 (-0.35535,0.11845,0.35535) ==
 == 269-th k-point nmo = 83 (-0.23690,0.23690,0.23690) ==
 == 270-th k-point nmo = 82 (-0.11845,0.35535,0.11845) ==
 == 271-th k-point nmo = 81 (0.00000,0.47380,0.00000) ==
 == 272-th k-point nmo = 82 (0.11845,0.59225,-0.11845) ==
 == 273-th k-point nmo = 82 (-0.47380,-0.23690,0.71071) ==
 == 274-th k-point nmo = 82 (-0.35535,-0.11845,0.59225) ==
 == 275-th k-point nmo = 82 (-0.23690,-0.00000,0.47380) ==
 == 276-th k-point nmo = 82 (-0.11845,0.11845,0.35535) ==
 == 277-th k-point nmo = 81 (0.00000,0.23690,0.23690) ==
 == 278-th k-point nmo = 82 (0.11845,0.35535,0.11845) ==
 == 279-th k-point nmo = 82 (0.23690,0.47380,0.00000) ==
 == 280-th k-point nmo = 83 (-0.35535,-0.35535,0.82916) ==
 == 281-th k-point nmo = 83 (-0.23690,-0.23690,0.71071) ==
 == 282-th k-point nmo = 82 (-0.11845,-0.11845,0.59225) ==
 == 283-th k-point nmo = 81 (0.00000,-0.00000,0.47380) ==
 == 284-th k-point nmo = 82 (0.11845,0.11845,0.35535) ==
 == 285-th k-point nmo = 83 (0.23690,0.23690,0.23690) ==
 == 286-th k-point nmo = 82 (0.35535,0.35535,0.11845) ==
 == 287-th k-point nmo = 82 (-0.23690,-0.47380,0.94761) ==
 == 288-th k-point nmo = 82 (-0.11845,-0.35535,0.82916) ==
 == 289-th k-point nmo = 82 (0.00000,-0.23690,0.71071) ==
 == 290-th k-point nmo = 82 (0.11845,-0.11845,0.59225) ==
 == 291-th k-point nmo = 82 (0.23690,-0.00000,0.47380) ==
 == 292-th k-point nmo = 82 (0.35535,0.11845,0.35535) ==
 == 293-th k-point nmo = 83 (0.47380,0.23690,0.23690) ==
 == 294-th k-point nmo = 83 (-1.06606,0.35535,0.35535) ==
 == 295-th k-point nmo = 82 (-0.94761,0.47380,0.23690) ==
 == 296-th k-point nmo = 82 (-0.82916,0.59225,0.11845) ==
 == 297-th k-point nmo = 82 (-0.71071,0.71071,0.00000) ==
 == 298-th k-point nmo = 82 (-0.59225,0.82916,-0.11845) ==
 == 299-th k-point nmo = 82 (-0.47380,0.94761,-0.23690) ==
 == 300-th k-point nmo = 83 (-0.35535,1.06606,-0.35535) ==
 == 301-th k-point nmo = 82 (-0.94761,0.23690,0.47380) ==
 == 302-th k-point nmo = 83 (-0.82916,0.35535,0.35535) ==
 == 303-th k-point nmo = 82 (-0.71071,0.47380,0.23690) ==
 == 304-th k-point nmo = 83 (-0.59225,0.59225,0.11845) ==
 == 305-th k-point nmo = 82 (-0.47380,0.71071,0.00000) ==
 == 306-th k-point nmo = 82 (-0.35535,0.82916,-0.11845) ==
 == 307-th k-point nmo = 83 (-0.23690,0.94761,-0.23690) ==
 == 308-th k-point nmo = 82 (-0.82916,0.11845,0.59225) ==
 == 309-th k-point nmo = 82 (-0.71071,0.23690,0.47380) ==
 == 310-th k-point nmo = 83 (-0.59225,0.35535,0.35535) ==
 == 311-th k-point nmo = 83 (-0.47380,0.47380,0.23690) ==
 == 312-th k-point nmo = 82 (-0.35535,0.59225,0.11845) ==
 == 313-th k-point nmo = 82 (-0.23690,0.71071,0.00000) ==
 == 314-th k-point nmo = 82 (-0.11845,0.82916,-0.11845) ==
 == 315-th k-point nmo = 82 (-0.71071,-0.00000,0.71071) ==
 == 316-th k-point nmo = 83 (-0.59225,0.11845,0.59225) ==
 == 317-th k-point nmo = 83 (-0.47380,0.23690,0.47380) ==
 == 318-th k-point nmo = 83 (-0.35535,0.35535,0.35535) ==
 == 319-th k-point nmo = 83 (-0.23690,0.47380,0.23690) ==
 == 320-th k-point nmo = 82 (-0.11845,0.59225,0.11845) ==
 == 321-th k-point nmo = 81 (0.00000,0.71071,0.00000) ==
 == 322-th k-point nmo = 82 (-0.59225,-0.11845,0.82916) ==
 == 323-th k-point nmo = 82 (-0.47380,-0.00000,0.71071) ==
 == 324-th k-point nmo = 82 (-0.35535,0.11845,0.59225) ==
 == 325-th k-point nmo = 83 (-0.23690,0.23690,0.47380) ==
 == 326-th k-point nmo = 82 (-0.11845,0.35535,0.35535) ==
 == 327-th k-point nmo = 82 (0.00000,0.47380,0.23690) ==
 == 328-th k-point nmo = 82 (0.11845,0.59225,0.11845) ==
 == 329-th k-point nmo = 82 (-0.47380,-0.23690,0.94761) ==
 == 330-th k-point nmo = 82 (-0.35535,-0.11845,0.82916) ==
 == 331-th k-point nmo = 82 (-0.23690,-0.00000,0.71071) ==
 == 332-th k-point nmo = 82 (-0.11845,0.11845,0.59225) ==
 == 333-th k-point nmo = 82 (0.00000,0.23690,0.47380) ==
 == 334-th k-point nmo = 82 (0.11845,0.35535,0.35535) ==
 == 335-th k-point nmo = 83 (0.23690,0.47380,0.23690) ==
 == 336-th k-point nmo = 83 (-0.35535,-0.35535,1.06606) ==
 == 337-th k-point nmo = 83 (-0.23690,-0.23690,0.94761) ==
 == 338-th k-point nmo = 82 (-0.11845,-0.11845,0.82916) ==
 == 339-th k-point nmo = 81 (0.00000,-0.00000,0.71071) ==
 == 340-th k-point nmo = 82 (0.11845,0.11845,0.59225) ==
 == 341-th k-point nmo = 83 (0.23690,0.23690,0.47380) ==
 == 342-th k-point nmo = 83 (0.35535,0.35535,0.35535) ==

 Generate autoSAD guess
backing up fragment data
Atom # 0: li, charge: 0, multiplicity: 2.000000
Atom # 1: f, charge: 0, multiplicity: 2.000000
writing autosad to fragment context
Settings for isolated fragments: 
  frgm_gamma: TRUE
  frgm_center: FALSE

    Running SCF for isolated atom #0
    Fragment Input file: /n/netscratch/joonholee_lab/Lab/hieudinh//lif_solve_def2qzvp_omega_0.6_777.scratch20250909012856/autosad_frgmt_0/frgmt_input.in
    Fragment Output file: /n/netscratch/joonholee_lab/Lab/hieudinh//lif_solve_def2qzvp_omega_0.6_777.scratch20250909012856/autosad_frgmt_0/frgmt_job.out
    Fragment job begins at Tue Sep  9 01:29:34 2025

 Integrated density by DFT XC:
   Numerical integral  =     3.000000007147
   Relative error      =     0.0000002382 %
Final energy components:
 DFT Correlation            Energy =  -0.05090044545114
 DFT Exchange               Energy =  -1.75144597421910
 Kinetic (alpha)            Energy =   3.82935284817785
 Kinetic (beta)             Energy =   3.58515893685386
 Nuclear Attraction (alpha) Energy =  -9.10791001172894
 Nuclear Attraction (beta)  Energy =  -8.01914849492518
 Nuclear Repulsion          Energy =   0.00000000000000
 SEOQF                      Energy =  -0.00000000000000
 Total Coulomb              Energy =   4.05291331077687
----------------------------------------------
    SCF Energy: -7.4619798305
   Total fragment job time:  0.50 s.
    Running SCF for isolated atom #1
    Fragment Input file: /n/netscratch/joonholee_lab/Lab/hieudinh//lif_solve_def2qzvp_omega_0.6_777.scratch20250909012856/autosad_frgmt_1/frgmt_input.in
    Fragment Output file: /n/netscratch/joonholee_lab/Lab/hieudinh//lif_solve_def2qzvp_omega_0.6_777.scratch20250909012856/autosad_frgmt_1/frgmt_job.out
    Fragment job begins at Tue Sep  9 01:29:34 2025

 Integrated density by DFT XC:
   Numerical integral  =     9.000000098353
   Relative error      =     0.0000010928 %
Final energy components:
 DFT Correlation            Energy =  -0.28943664182310
 DFT Exchange               Energy =  -9.96991500891565
 Kinetic (alpha)            Energy =  51.55258412072421
 Kinetic (beta)             Energy =  47.84820569403629
 Nuclear Attraction (alpha) Energy = -125.30574122940676
 Nuclear Attraction (beta)  Energy = -113.20186276241706
 Nuclear Repulsion          Energy =   0.00000000000000
 SEOQF                      Energy =  -0.00000000020726
 Total Coulomb              Energy =  49.69105360806795
----------------------------------------------
    SCF Energy: -99.6751122199
   Total fragment job time:  0.54 s.
restoring fragment data

 ------------------------------------------------------------------------
 Allocate 231149312 B from available memory: 104811012704 B
 Time for generating SCF guess: 1.12 s

 Allocate 446984 B from available memory: 104579863392 B
 Selected algorithms for each term:
  kpts_kinetic -> @0x14aa7540f680
  kpts_nn -> @0x14aa7540f800
  kpts_rij_bigmem -> @0x14aa7540f3e0
  kpts_vnuc_df -> @0x14aa7540f380
  kpts_xc -> @0x14aa7540f2c0
 Time for computing kinetic matrix is 29.19 s
Start calculating Vnuc DD type!
Start calculating Vnuc CD type!
Start calculating Vnuc CC type!
 Time for computing nuclear attraction matrix is 65.25 s
Compute (P|Q) and use solve on the fly!
Maximum distance between P and Q is 30.17566373239437
Number of images for (P|Qn) is 2041
 Time for computing 2e2c SR integral is 0.13 s
Maximum dynamic memory per thread for 2e3c SR integrals: 0.202 GiB
Batch size for basis function pair is 1836 out of 1836
 === bvk cell = 0 has 100.000 % of the basis function pairs === 
 === bvk cell = 1 has 100.000 % of the basis function pairs === 
 === bvk cell = 2 has 100.000 % of the basis function pairs === 
 === bvk cell = 3 has 84.532 % of the basis function pairs === 
 === bvk cell = 4 has 54.684 % of the basis function pairs === 
 === bvk cell = 5 has 100.000 % of the basis function pairs === 
 === bvk cell = 6 has 100.000 % of the basis function pairs === 
 === bvk cell = 7 has 100.000 % of the basis function pairs === 
 === bvk cell = 8 has 100.000 % of the basis function pairs === 
 === bvk cell = 9 has 97.712 % of the basis function pairs === 
 === bvk cell = 10 has 52.723 % of the basis function pairs === 
 === bvk cell = 11 has 70.316 % of the basis function pairs === 
 === bvk cell = 12 has 100.000 % of the basis function pairs === 
 === bvk cell = 13 has 100.000 % of the basis function pairs === 
 === bvk cell = 14 has 100.000 % of the basis function pairs === 
 === bvk cell = 15 has 97.712 % of the basis function pairs === 
 === bvk cell = 16 has 55.882 % of the basis function pairs === 
 === bvk cell = 17 has 41.394 % of the basis function pairs === 
 === bvk cell = 18 has 74.237 % of the basis function pairs === 
 === bvk cell = 19 has 100.000 % of the basis function pairs === 
 === bvk cell = 20 has 100.000 % of the basis function pairs === 
 === bvk cell = 21 has 84.532 % of the basis function pairs === 
 === bvk cell = 22 has 52.723 % of the basis function pairs === 
 === bvk cell = 23 has 41.394 % of the basis function pairs === 
 === bvk cell = 24 has 40.523 % of the basis function pairs === 
 === bvk cell = 25 has 56.481 % of the basis function pairs === 
 === bvk cell = 26 has 97.876 % of the basis function pairs === 
 === bvk cell = 27 has 97.712 % of the basis function pairs === 
 === bvk cell = 28 has 54.684 % of the basis function pairs === 
 === bvk cell = 29 has 70.316 % of the basis function pairs === 
 === bvk cell = 30 has 74.237 % of the basis function pairs === 
 === bvk cell = 31 has 56.481 % of the basis function pairs === 
 === bvk cell = 32 has 48.638 % of the basis function pairs === 
 === bvk cell = 33 has 51.797 % of the basis function pairs === 
 === bvk cell = 34 has 52.560 % of the basis function pairs === 
 === bvk cell = 35 has 100.000 % of the basis function pairs === 
 === bvk cell = 36 has 100.000 % of the basis function pairs === 
 === bvk cell = 37 has 100.000 % of the basis function pairs === 
 === bvk cell = 38 has 97.876 % of the basis function pairs === 
 === bvk cell = 39 has 51.797 % of the basis function pairs === 
 === bvk cell = 40 has 34.749 % of the basis function pairs === 
 === bvk cell = 41 has 70.153 % of the basis function pairs === 
 === bvk cell = 42 has 100.000 % of the basis function pairs === 
 === bvk cell = 43 has 100.000 % of the basis function pairs === 
 === bvk cell = 44 has 100.000 % of the basis function pairs === 
 === bvk cell = 45 has 97.712 % of the basis function pairs === 
 === bvk cell = 46 has 52.560 % of the basis function pairs === 
 === bvk cell = 47 has 70.153 % of the basis function pairs === 
 === bvk cell = 48 has 100.000 % of the basis function pairs === 
 === bvk cell = 49 has 100.000 % of the basis function pairs === 
 === bvk cell = 50 has 100.000 % of the basis function pairs === 
 === bvk cell = 51 has 97.712 % of the basis function pairs === 
 === bvk cell = 52 has 52.560 % of the basis function pairs === 
 === bvk cell = 53 has 70.153 % of the basis function pairs === 
 === bvk cell = 54 has 100.000 % of the basis function pairs === 
 === bvk cell = 55 has 100.000 % of the basis function pairs === 
 === bvk cell = 56 has 100.000 % of the basis function pairs === 
 === bvk cell = 57 has 98.693 % of the basis function pairs === 
 === bvk cell = 58 has 56.318 % of the basis function pairs === 
 === bvk cell = 59 has 41.993 % of the basis function pairs === 
 === bvk cell = 60 has 75.054 % of the basis function pairs === 
 === bvk cell = 61 has 100.000 % of the basis function pairs === 
 === bvk cell = 62 has 100.000 % of the basis function pairs === 
 === bvk cell = 63 has 97.712 % of the basis function pairs === 
 === bvk cell = 64 has 56.318 % of the basis function pairs === 
 === bvk cell = 65 has 44.390 % of the basis function pairs === 
 === bvk cell = 66 has 49.782 % of the basis function pairs === 
 === bvk cell = 67 has 74.237 % of the basis function pairs === 
 === bvk cell = 68 has 100.000 % of the basis function pairs === 
 === bvk cell = 69 has 100.000 % of the basis function pairs === 
 === bvk cell = 70 has 52.560 % of the basis function pairs === 
 === bvk cell = 71 has 41.993 % of the basis function pairs === 
 === bvk cell = 72 has 49.782 % of the basis function pairs === 
 === bvk cell = 73 has 40.523 % of the basis function pairs === 
 === bvk cell = 74 has 55.937 % of the basis function pairs === 
 === bvk cell = 75 has 60.403 % of the basis function pairs === 
 === bvk cell = 76 has 59.205 % of the basis function pairs === 
 === bvk cell = 77 has 70.153 % of the basis function pairs === 
 === bvk cell = 78 has 75.054 % of the basis function pairs === 
 === bvk cell = 79 has 74.237 % of the basis function pairs === 
 === bvk cell = 80 has 55.937 % of the basis function pairs === 
 === bvk cell = 81 has 37.800 % of the basis function pairs === 
 === bvk cell = 82 has 46.569 % of the basis function pairs === 
 === bvk cell = 83 has 46.187 % of the basis function pairs === 
 === bvk cell = 84 has 100.000 % of the basis function pairs === 
 === bvk cell = 85 has 100.000 % of the basis function pairs === 
 === bvk cell = 86 has 100.000 % of the basis function pairs === 
 === bvk cell = 87 has 60.403 % of the basis function pairs === 
 === bvk cell = 88 has 46.569 % of the basis function pairs === 
 === bvk cell = 89 has 54.521 % of the basis function pairs === 
 === bvk cell = 90 has 75.054 % of the basis function pairs === 
 === bvk cell = 91 has 100.000 % of the basis function pairs === 
 === bvk cell = 92 has 100.000 % of the basis function pairs === 
 === bvk cell = 93 has 100.000 % of the basis function pairs === 
 === bvk cell = 94 has 59.205 % of the basis function pairs === 
 === bvk cell = 95 has 46.187 % of the basis function pairs === 
 === bvk cell = 96 has 75.054 % of the basis function pairs === 
 === bvk cell = 97 has 100.000 % of the basis function pairs === 
 === bvk cell = 98 has 100.000 % of the basis function pairs === 
 === bvk cell = 99 has 97.876 % of the basis function pairs === 
 === bvk cell = 100 has 51.797 % of the basis function pairs === 
 === bvk cell = 101 has 34.749 % of the basis function pairs === 
 === bvk cell = 102 has 70.153 % of the basis function pairs === 
 === bvk cell = 103 has 100.000 % of the basis function pairs === 
 === bvk cell = 104 has 100.000 % of the basis function pairs === 
 === bvk cell = 105 has 97.876 % of the basis function pairs === 
 === bvk cell = 106 has 52.397 % of the basis function pairs === 
 === bvk cell = 107 has 36.438 % of the basis function pairs === 
 === bvk cell = 108 has 41.993 % of the basis function pairs === 
 === bvk cell = 109 has 70.316 % of the basis function pairs === 
 === bvk cell = 110 has 100.000 % of the basis function pairs === 
 === bvk cell = 111 has 100.000 % of the basis function pairs === 
 === bvk cell = 112 has 51.797 % of the basis function pairs === 
 === bvk cell = 113 has 36.438 % of the basis function pairs === 
 === bvk cell = 114 has 44.390 % of the basis function pairs === 
 === bvk cell = 115 has 41.394 % of the basis function pairs === 
 === bvk cell = 116 has 56.481 % of the basis function pairs === 
 === bvk cell = 117 has 64.488 % of the basis function pairs === 
 === bvk cell = 118 has 60.403 % of the basis function pairs === 
 === bvk cell = 119 has 34.749 % of the basis function pairs === 
 === bvk cell = 120 has 41.993 % of the basis function pairs === 
 === bvk cell = 121 has 41.394 % of the basis function pairs === 
 === bvk cell = 122 has 30.991 % of the basis function pairs === 
 === bvk cell = 123 has 48.475 % of the basis function pairs === 
 === bvk cell = 124 has 48.638 % of the basis function pairs === 
 === bvk cell = 125 has 46.569 % of the basis function pairs === 
 === bvk cell = 126 has 70.153 % of the basis function pairs === 
 === bvk cell = 127 has 70.316 % of the basis function pairs === 
 === bvk cell = 128 has 56.481 % of the basis function pairs === 
 === bvk cell = 129 has 48.475 % of the basis function pairs === 
 === bvk cell = 130 has 28.813 % of the basis function pairs === 
 === bvk cell = 131 has 34.695 % of the basis function pairs === 
 === bvk cell = 132 has 54.521 % of the basis function pairs === 
 === bvk cell = 133 has 100.000 % of the basis function pairs === 
 === bvk cell = 134 has 100.000 % of the basis function pairs === 
 === bvk cell = 135 has 64.488 % of the basis function pairs === 
 === bvk cell = 136 has 48.638 % of the basis function pairs === 
 === bvk cell = 137 has 34.695 % of the basis function pairs === 
 === bvk cell = 138 has 58.606 % of the basis function pairs === 
 === bvk cell = 139 has 75.054 % of the basis function pairs === 
 === bvk cell = 140 has 100.000 % of the basis function pairs === 
 === bvk cell = 141 has 100.000 % of the basis function pairs === 
 === bvk cell = 142 has 60.403 % of the basis function pairs === 
 === bvk cell = 143 has 46.569 % of the basis function pairs === 
 === bvk cell = 144 has 54.521 % of the basis function pairs === 
 === bvk cell = 145 has 75.054 % of the basis function pairs === 
 === bvk cell = 146 has 100.000 % of the basis function pairs === 
 === bvk cell = 147 has 56.481 % of the basis function pairs === 
 === bvk cell = 148 has 48.638 % of the basis function pairs === 
 === bvk cell = 149 has 51.797 % of the basis function pairs === 
 === bvk cell = 150 has 52.560 % of the basis function pairs === 
 === bvk cell = 151 has 54.684 % of the basis function pairs === 
 === bvk cell = 152 has 70.316 % of the basis function pairs === 
 === bvk cell = 153 has 74.237 % of the basis function pairs === 
 === bvk cell = 154 has 48.638 % of the basis function pairs === 
 === bvk cell = 155 has 52.397 % of the basis function pairs === 
 === bvk cell = 156 has 56.318 % of the basis function pairs === 
 === bvk cell = 157 has 52.723 % of the basis function pairs === 
 === bvk cell = 158 has 52.996 % of the basis function pairs === 
 === bvk cell = 159 has 56.481 % of the basis function pairs === 
 === bvk cell = 160 has 55.937 % of the basis function pairs === 
 === bvk cell = 161 has 51.797 % of the basis function pairs === 
 === bvk cell = 162 has 56.318 % of the basis function pairs === 
 === bvk cell = 163 has 55.882 % of the basis function pairs === 
 === bvk cell = 164 has 49.020 % of the basis function pairs === 
 === bvk cell = 165 has 40.523 % of the basis function pairs === 
 === bvk cell = 166 has 48.475 % of the basis function pairs === 
 === bvk cell = 167 has 37.800 % of the basis function pairs === 
 === bvk cell = 168 has 52.560 % of the basis function pairs === 
 === bvk cell = 169 has 52.723 % of the basis function pairs === 
 === bvk cell = 170 has 49.020 % of the basis function pairs === 
 === bvk cell = 171 has 43.573 % of the basis function pairs === 
 === bvk cell = 172 has 29.630 % of the basis function pairs === 
 === bvk cell = 173 has 28.813 % of the basis function pairs === 
 === bvk cell = 174 has 46.569 % of the basis function pairs === 
 === bvk cell = 175 has 54.684 % of the basis function pairs === 
 === bvk cell = 176 has 52.996 % of the basis function pairs === 
 === bvk cell = 177 has 40.523 % of the basis function pairs === 
 === bvk cell = 178 has 29.630 % of the basis function pairs === 
 === bvk cell = 179 has 19.063 % of the basis function pairs === 
 === bvk cell = 180 has 34.695 % of the basis function pairs === 
 === bvk cell = 181 has 46.187 % of the basis function pairs === 
 === bvk cell = 182 has 70.316 % of the basis function pairs === 
 === bvk cell = 183 has 56.481 % of the basis function pairs === 
 === bvk cell = 184 has 48.475 % of the basis function pairs === 
 === bvk cell = 185 has 28.813 % of the basis function pairs === 
 === bvk cell = 186 has 34.695 % of the basis function pairs === 
 === bvk cell = 187 has 54.521 % of the basis function pairs === 
 === bvk cell = 188 has 70.153 % of the basis function pairs === 
 === bvk cell = 189 has 74.237 % of the basis function pairs === 
 === bvk cell = 190 has 55.937 % of the basis function pairs === 
 === bvk cell = 191 has 37.800 % of the basis function pairs === 
 === bvk cell = 192 has 46.569 % of the basis function pairs === 
 === bvk cell = 193 has 46.187 % of the basis function pairs === 
 === bvk cell = 194 has 70.153 % of the basis function pairs === 
 === bvk cell = 195 has 75.054 % of the basis function pairs === 
 === bvk cell = 196 has 56.481 % of the basis function pairs === 
 === bvk cell = 197 has 97.876 % of the basis function pairs === 
 === bvk cell = 198 has 97.712 % of the basis function pairs === 
 === bvk cell = 199 has 84.532 % of the basis function pairs === 
 === bvk cell = 200 has 52.723 % of the basis function pairs === 
 === bvk cell = 201 has 41.394 % of the basis function pairs === 
 === bvk cell = 202 has 40.523 % of the basis function pairs === 
 === bvk cell = 203 has 97.876 % of the basis function pairs === 
 === bvk cell = 204 has 98.693 % of the basis function pairs === 
 === bvk cell = 205 has 97.712 % of the basis function pairs === 
 === bvk cell = 206 has 84.150 % of the basis function pairs === 
 === bvk cell = 207 has 49.020 % of the basis function pairs === 
 === bvk cell = 208 has 30.991 % of the basis function pairs === 
 === bvk cell = 209 has 55.937 % of the basis function pairs === 
 === bvk cell = 210 has 97.712 % of the basis function pairs === 
 === bvk cell = 211 has 97.712 % of the basis function pairs === 
 === bvk cell = 212 has 84.532 % of the basis function pairs === 
 === bvk cell = 213 has 55.828 % of the basis function pairs === 
 === bvk cell = 214 has 43.573 % of the basis function pairs === 
 === bvk cell = 215 has 48.475 % of the basis function pairs === 
 === bvk cell = 216 has 60.403 % of the basis function pairs === 
 === bvk cell = 217 has 84.532 % of the basis function pairs === 
 === bvk cell = 218 has 84.150 % of the basis function pairs === 
 === bvk cell = 219 has 55.828 % of the basis function pairs === 
 === bvk cell = 220 has 44.553 % of the basis function pairs === 
 === bvk cell = 221 has 29.630 % of the basis function pairs === 
 === bvk cell = 222 has 48.638 % of the basis function pairs === 
 === bvk cell = 223 has 59.205 % of the basis function pairs === 
 === bvk cell = 224 has 52.723 % of the basis function pairs === 
 === bvk cell = 225 has 49.020 % of the basis function pairs === 
 === bvk cell = 226 has 43.573 % of the basis function pairs === 
 === bvk cell = 227 has 29.630 % of the basis function pairs === 
 === bvk cell = 228 has 28.813 % of the basis function pairs === 
 === bvk cell = 229 has 46.569 % of the basis function pairs === 
 === bvk cell = 230 has 52.560 % of the basis function pairs === 
 === bvk cell = 231 has 41.394 % of the basis function pairs === 
 === bvk cell = 232 has 30.991 % of the basis function pairs === 
 === bvk cell = 233 has 48.475 % of the basis function pairs === 
 === bvk cell = 234 has 48.638 % of the basis function pairs === 
 === bvk cell = 235 has 46.569 % of the basis function pairs === 
 === bvk cell = 236 has 34.749 % of the basis function pairs === 
 === bvk cell = 237 has 41.993 % of the basis function pairs === 
 === bvk cell = 238 has 40.523 % of the basis function pairs === 
 === bvk cell = 239 has 55.937 % of the basis function pairs === 
 === bvk cell = 240 has 60.403 % of the basis function pairs === 
 === bvk cell = 241 has 59.205 % of the basis function pairs === 
 === bvk cell = 242 has 52.560 % of the basis function pairs === 
 === bvk cell = 243 has 41.993 % of the basis function pairs === 
 === bvk cell = 244 has 49.782 % of the basis function pairs === 
 === bvk cell = 245 has 100.000 % of the basis function pairs === 
 === bvk cell = 246 has 100.000 % of the basis function pairs === 
 === bvk cell = 247 has 100.000 % of the basis function pairs === 
 === bvk cell = 248 has 97.712 % of the basis function pairs === 
 === bvk cell = 249 has 55.882 % of the basis function pairs === 
 === bvk cell = 250 has 41.394 % of the basis function pairs === 
 === bvk cell = 251 has 74.237 % of the basis function pairs === 
 === bvk cell = 252 has 100.000 % of the basis function pairs === 
 === bvk cell = 253 has 100.000 % of the basis function pairs === 
 === bvk cell = 254 has 98.693 % of the basis function pairs === 
 === bvk cell = 255 has 84.532 % of the basis function pairs === 
 === bvk cell = 256 has 49.020 % of the basis function pairs === 
 === bvk cell = 257 has 56.481 % of the basis function pairs === 
 === bvk cell = 258 has 100.000 % of the basis function pairs === 
 === bvk cell = 259 has 100.000 % of the basis function pairs === 
 === bvk cell = 260 has 98.693 % of the basis function pairs === 
 === bvk cell = 261 has 88.453 % of the basis function pairs === 
 === bvk cell = 262 has 55.828 % of the basis function pairs === 
 === bvk cell = 263 has 40.523 % of the basis function pairs === 
 === bvk cell = 264 has 64.488 % of the basis function pairs === 
 === bvk cell = 265 has 100.000 % of the basis function pairs === 
 === bvk cell = 266 has 97.712 % of the basis function pairs === 
 === bvk cell = 267 has 84.532 % of the basis function pairs === 
 === bvk cell = 268 has 55.828 % of the basis function pairs === 
 === bvk cell = 269 has 43.573 % of the basis function pairs === 
 === bvk cell = 270 has 48.475 % of the basis function pairs === 
 === bvk cell = 271 has 60.403 % of the basis function pairs === 
 === bvk cell = 272 has 97.712 % of the basis function pairs === 
 === bvk cell = 273 has 55.882 % of the basis function pairs === 
 === bvk cell = 274 has 49.020 % of the basis function pairs === 
 === bvk cell = 275 has 40.523 % of the basis function pairs === 
 === bvk cell = 276 has 48.475 % of the basis function pairs === 
 === bvk cell = 277 has 37.800 % of the basis function pairs === 
 === bvk cell = 278 has 51.797 % of the basis function pairs === 
 === bvk cell = 279 has 56.318 % of the basis function pairs === 
 === bvk cell = 280 has 41.394 % of the basis function pairs === 
 === bvk cell = 281 has 56.481 % of the basis function pairs === 
 === bvk cell = 282 has 64.488 % of the basis function pairs === 
 === bvk cell = 283 has 60.403 % of the basis function pairs === 
 === bvk cell = 284 has 51.797 % of the basis function pairs === 
 === bvk cell = 285 has 36.438 % of the basis function pairs === 
 === bvk cell = 286 has 44.390 % of the basis function pairs === 
 === bvk cell = 287 has 74.237 % of the basis function pairs === 
 === bvk cell = 288 has 100.000 % of the basis function pairs === 
 === bvk cell = 289 has 100.000 % of the basis function pairs === 
 === bvk cell = 290 has 97.712 % of the basis function pairs === 
 === bvk cell = 291 has 56.318 % of the basis function pairs === 
 === bvk cell = 292 has 44.390 % of the basis function pairs === 
 === bvk cell = 293 has 49.782 % of the basis function pairs === 
 === bvk cell = 294 has 100.000 % of the basis function pairs === 
 === bvk cell = 295 has 100.000 % of the basis function pairs === 
 === bvk cell = 296 has 100.000 % of the basis function pairs === 
 === bvk cell = 297 has 97.712 % of the basis function pairs === 
 === bvk cell = 298 has 52.723 % of the basis function pairs === 
 === bvk cell = 299 has 70.316 % of the basis function pairs === 
 === bvk cell = 300 has 100.000 % of the basis function pairs === 
 === bvk cell = 301 has 100.000 % of the basis function pairs === 
 === bvk cell = 302 has 100.000 % of the basis function pairs === 
 === bvk cell = 303 has 98.693 % of the basis function pairs === 
 === bvk cell = 304 has 84.150 % of the basis function pairs === 
 === bvk cell = 305 has 52.996 % of the basis function pairs === 
 === bvk cell = 306 has 100.000 % of the basis function pairs === 
 === bvk cell = 307 has 100.000 % of the basis function pairs === 
 === bvk cell = 308 has 100.000 % of the basis function pairs === 
 === bvk cell = 309 has 98.693 % of the basis function pairs === 
 === bvk cell = 310 has 84.532 % of the basis function pairs === 
 === bvk cell = 311 has 49.020 % of the basis function pairs === 
 === bvk cell = 312 has 56.481 % of the basis function pairs === 
 === bvk cell = 313 has 100.000 % of the basis function pairs === 
 === bvk cell = 314 has 100.000 % of the basis function pairs === 
 === bvk cell = 315 has 97.712 % of the basis function pairs === 
 === bvk cell = 316 has 84.150 % of the basis function pairs === 
 === bvk cell = 317 has 49.020 % of the basis function pairs === 
 === bvk cell = 318 has 30.991 % of the basis function pairs === 
 === bvk cell = 319 has 55.937 % of the basis function pairs === 
 === bvk cell = 320 has 97.876 % of the basis function pairs === 
 === bvk cell = 321 has 98.693 % of the basis function pairs === 
 === bvk cell = 322 has 52.723 % of the basis function pairs === 
 === bvk cell = 323 has 52.996 % of the basis function pairs === 
 === bvk cell = 324 has 56.481 % of the basis function pairs === 
 === bvk cell = 325 has 55.937 % of the basis function pairs === 
 === bvk cell = 326 has 48.638 % of the basis function pairs === 
 === bvk cell = 327 has 52.397 % of the basis function pairs === 
 === bvk cell = 328 has 56.318 % of the basis function pairs === 
 === bvk cell = 329 has 70.316 % of the basis function pairs === 
 === bvk cell = 330 has 100.000 % of the basis function pairs === 
 === bvk cell = 331 has 100.000 % of the basis function pairs === 
 === bvk cell = 332 has 97.876 % of the basis function pairs === 
 === bvk cell = 333 has 52.397 % of the basis function pairs === 
 === bvk cell = 334 has 36.438 % of the basis function pairs === 
 === bvk cell = 335 has 41.993 % of the basis function pairs === 
 === bvk cell = 336 has 100.000 % of the basis function pairs === 
 === bvk cell = 337 has 100.000 % of the basis function pairs === 
 === bvk cell = 338 has 100.000 % of the basis function pairs === 
 === bvk cell = 339 has 98.693 % of the basis function pairs === 
 === bvk cell = 340 has 56.318 % of the basis function pairs === 
 === bvk cell = 341 has 41.993 % of the basis function pairs === 
 === bvk cell = 342 has 75.054 % of the basis function pairs === 
Static memory requirement for 2e3c SR integrals: 0.303 GB
There are 1 munu batches for computing 2e3c SR integrals with latsum
There are 2 Q batches for computing 2e3c SR integrals with latsum
 Time for computing 2e3c SR integral (CD) is 8.13 s
Maximum dynamic memory per thread for 2e3c SR integrals: 0.032 GiB
Batch size for basis function pair is 2470 out of 2470
 === bvk cell = 0 has 100.000 % of the basis function pairs === 
 === bvk cell = 1 has 82.591 % of the basis function pairs === 
 === bvk cell = 2 has 20.202 % of the basis function pairs === 
 === bvk cell = 3 has 0.000 % of the basis function pairs === 
 === bvk cell = 4 has 0.810 % of the basis function pairs === 
 === bvk cell = 5 has 9.757 % of the basis function pairs === 
 === bvk cell = 6 has 71.134 % of the basis function pairs === 
 === bvk cell = 7 has 82.591 % of the basis function pairs === 
 === bvk cell = 8 has 33.603 % of the basis function pairs === 
 === bvk cell = 9 has 8.988 % of the basis function pairs === 
 === bvk cell = 10 has 0.000 % of the basis function pairs === 
 === bvk cell = 11 has 2.794 % of the basis function pairs === 
 === bvk cell = 12 has 24.372 % of the basis function pairs === 
 === bvk cell = 13 has 76.680 % of the basis function pairs === 
 === bvk cell = 14 has 20.202 % of the basis function pairs === 
 === bvk cell = 15 has 8.988 % of the basis function pairs === 
 === bvk cell = 16 has 0.000 % of the basis function pairs === 
 === bvk cell = 17 has 0.000 % of the basis function pairs === 
 === bvk cell = 18 has 1.862 % of the basis function pairs === 
 === bvk cell = 19 has 17.571 % of the basis function pairs === 
 === bvk cell = 20 has 29.555 % of the basis function pairs === 
 === bvk cell = 21 has 0.000 % of the basis function pairs === 
 === bvk cell = 22 has 0.000 % of the basis function pairs === 
 === bvk cell = 23 has 0.000 % of the basis function pairs === 
 === bvk cell = 24 has 0.000 % of the basis function pairs === 
 === bvk cell = 25 has 0.000 % of the basis function pairs === 
 === bvk cell = 26 has 1.053 % of the basis function pairs === 
 === bvk cell = 27 has 3.522 % of the basis function pairs === 
 === bvk cell = 28 has 0.810 % of the basis function pairs === 
 === bvk cell = 29 has 2.794 % of the basis function pairs === 
 === bvk cell = 30 has 1.862 % of the basis function pairs === 
 === bvk cell = 31 has 0.000 % of the basis function pairs === 
 === bvk cell = 32 has 0.000 % of the basis function pairs === 
 === bvk cell = 33 has 0.000 % of the basis function pairs === 
 === bvk cell = 34 has 0.000 % of the basis function pairs === 
 === bvk cell = 35 has 9.757 % of the basis function pairs === 
 === bvk cell = 36 has 24.372 % of the basis function pairs === 
 === bvk cell = 37 has 17.571 % of the basis function pairs === 
 === bvk cell = 38 has 1.053 % of the basis function pairs === 
 === bvk cell = 39 has 0.000 % of the basis function pairs === 
 === bvk cell = 40 has 0.000 % of the basis function pairs === 
 === bvk cell = 41 has 4.534 % of the basis function pairs === 
 === bvk cell = 42 has 71.134 % of the basis function pairs === 
 === bvk cell = 43 has 76.680 % of the basis function pairs === 
 === bvk cell = 44 has 29.555 % of the basis function pairs === 
 === bvk cell = 45 has 3.522 % of the basis function pairs === 
 === bvk cell = 46 has 0.000 % of the basis function pairs === 
 === bvk cell = 47 has 4.534 % of the basis function pairs === 
 === bvk cell = 48 has 19.636 % of the basis function pairs === 
 === bvk cell = 49 has 76.680 % of the basis function pairs === 
 === bvk cell = 50 has 29.555 % of the basis function pairs === 
 === bvk cell = 51 has 3.522 % of the basis function pairs === 
 === bvk cell = 52 has 0.000 % of the basis function pairs === 
 === bvk cell = 53 has 4.534 % of the basis function pairs === 
 === bvk cell = 54 has 19.636 % of the basis function pairs === 
 === bvk cell = 55 has 71.134 % of the basis function pairs === 
 === bvk cell = 56 has 29.555 % of the basis function pairs === 
 === bvk cell = 57 has 9.514 % of the basis function pairs === 
 === bvk cell = 58 has 0.000 % of the basis function pairs === 
 === bvk cell = 59 has 0.000 % of the basis function pairs === 
 === bvk cell = 60 has 5.061 % of the basis function pairs === 
 === bvk cell = 61 has 24.372 % of the basis function pairs === 
 === bvk cell = 62 has 44.615 % of the basis function pairs === 
 === bvk cell = 63 has 3.522 % of the basis function pairs === 
 === bvk cell = 64 has 0.000 % of the basis function pairs === 
 === bvk cell = 65 has 0.000 % of the basis function pairs === 
[...]
 1.14231 1.16957 1.16958 1.30851 1.41334 1.41334 1.73254 1.73265 1.81138 1.86182
 1.99087 1.99104 2.24220 2.36599 2.37104 2.47265 2.72472 2.74067 2.74709 2.86587
 2.90470 2.92947 2.95672 3.55743 3.56389 3.77757 3.78462 3.78860 4.21197 4.47993
 4.76575 5.21512 5.22519 5.50402 5.50952 5.57741 6.10423 6.10430 6.18688 6.40884
 6.41057 7.00138 7.01605 7.01606 7.33831 8.19120 8.24203 8.25243 11.60240 11.60241
 11.61927 11.62966 11.62971 11.66962 11.66967 11.66972 11.73020 13.14239 14.77152 14.92189
 15.16271 15.16389 15.31119 15.31222 15.44246 16.59693 16.59695 16.69463 16.89185 16.89216
 17.76119 56.18106 287.03557
 == 319-th k-point (-0.23690,0.47380,0.23690) occupation: 6==
 -23.85915 -1.46281 -0.67993 -0.04623 0.01470 0.02070 0.46422 0.64459 0.74518 0.75669
 0.99406 1.21605 1.21641 1.34846 1.43058 1.43605 1.64556 1.74281 1.79131 1.93973
 1.94449 2.00865 2.26703 2.34877 2.37202 2.46237 2.58440 2.65543 2.70088 2.81664
 2.89544 2.93275 2.99221 3.54091 3.60449 3.75825 3.86022 3.87460 4.21787 4.50834
 4.76509 5.01890 5.11099 5.34876 5.51241 5.54647 6.16678 6.18457 6.26928 6.53419
 6.56763 6.69319 7.40524 7.84051 8.13867 8.36342 8.41917 8.54138 11.61248 11.61626
 11.62460 11.63220 11.65096 11.65324 11.66021 11.67996 11.71116 12.60359 14.80052 14.91962
 15.05887 15.10588 15.23358 15.31939 15.34345 16.62373 16.66083 16.72341 16.94435 16.99571
 17.41157 55.89642 286.68413
 == 320-th k-point (-0.11845,0.59225,0.11845) occupation: 6==
 -23.85915 -1.46256 -0.67580 -0.05169 0.00024 0.00845 0.52268 0.64255 0.72340 0.77774
 0.84830 1.29114 1.32086 1.42361 1.48178 1.49844 1.57549 1.70961 1.75158 1.87325
 1.99897 2.07990 2.10661 2.30964 2.38257 2.52349 2.55618 2.66540 2.73200 2.80094
 2.88754 2.98255 3.13434 3.43077 3.62359 3.85737 3.93025 4.13109 4.63988 4.82476
 4.87751 4.94148 5.09392 5.13201 5.39770 6.00359 6.09428 6.19979 6.24586 6.33035
 6.49642 7.53529 7.71586 8.12291 8.30853 8.34610 8.59160 11.60522 11.61744 11.63158
 11.63695 11.64338 11.64734 11.64978 11.67557 11.72700 12.78815 14.87807 14.94007 14.97356
 15.01415 15.11598 15.12234 15.26597 16.48152 16.55945 16.67000 16.73507 16.82946 17.16139
 55.68022 286.41051
 == 321-th k-point (0.00000,0.71071,0.00000) occupation: 6==
 -23.85915 -1.46225 -0.67144 -0.07039 0.00051 0.00051 0.56643 0.65052 0.69480 0.78618
 0.78618 1.28262 1.42273 1.53116 1.58419 1.58420 1.62370 1.62370 1.70448 1.84360
 1.94198 1.94200 2.22444 2.33768 2.36194 2.36195 2.39037 2.65757 2.71454 2.82733
 2.82784 2.88191 3.12048 3.50254 3.85697 3.85700 4.15142 4.83712 4.85815 4.85818
 4.92110 5.08977 5.12966 5.12978 5.74827 5.90602 5.90603 6.13273 6.31104 6.31799
 7.59077 7.95762 7.95773 8.06380 8.41683 8.41690 11.59613 11.61140 11.61140 11.61975
 11.64361 11.64621 11.64621 11.68057 11.73822 13.19870 14.94396 14.98790 14.98791 15.00589
 15.10124 15.15086 15.15088 16.37078 16.37078 16.58367 16.58646 16.72477 16.82660 55.32413
 285.96160
 == 322-th k-point (-0.59225,-0.11845,0.82916) occupation: 6==
 -23.85915 -1.46219 -0.67180 -0.05972 -0.01514 0.00563 0.56511 0.61554 0.69792 0.76393
 0.89468 1.23064 1.33323 1.43232 1.53439 1.58636 1.61569 1.73752 1.87127 1.88098
 1.99384 2.08932 2.13403 2.15298 2.25410 2.34040 2.44072 2.63748 2.69875 2.85750
 2.87267 2.95392 3.25274 3.38765 3.60244 3.70193 3.76801 4.20492 4.59353 4.69412
 5.08844 5.11572 5.12551 5.33464 5.51739 5.83701 5.86130 6.15038 6.21943 6.39292
 6.60424 7.42788 7.50811 8.02521 8.12297 8.39893 8.89852 11.61194 11.62423 11.63033
 11.64082 11.64224 11.65063 11.66117 11.66550 11.81145 12.42267 14.85452 14.87594 15.09594
 15.11343 15.14396 15.25103 15.37186 16.33679 16.38528 16.64779 16.71665 16.83158 17.30450
 55.72150 286.46857
 == 323-th k-point (-0.47380,-0.00000,0.71071) occupation: 6==
 -23.85915 -1.46212 -0.67153 -0.04707 -0.03356 0.00870 0.57348 0.59080 0.70584 0.75118
 0.99418 1.12011 1.31763 1.44158 1.45637 1.62389 1.66941 1.83394 1.88566 1.94676
 1.98721 2.02661 2.18239 2.22926 2.38185 2.39429 2.52700 2.54019 2.55079 2.77125
 2.87290 2.88219 3.18471 3.46089 3.46849 3.65627 3.74546 4.06832 4.51250 4.94432
 5.04690 5.31616 5.42114 5.47032 5.54368 5.59636 5.92495 5.96122 6.12444 6.37750
 7.07237 7.41899 7.70101 7.73379 8.31413 8.38795 8.67801 11.61894 11.61929 11.62893
 11.63568 11.64040 11.64287 11.64962 11.67617 11.78807 12.38010 14.79323 15.03434 15.06851
 15.21797 15.26597 15.39068 15.40131 16.18787 16.39174 16.48532 16.72407 16.88230 17.55296
 55.85407 286.63587
 == 324-th k-point (-0.35535,0.11845,0.59225) occupation: 6==
 -23.85915 -1.46239 -0.67523 -0.04723 -0.01536 0.01668 0.51219 0.61418 0.73430 0.75161
 1.01481 1.12247 1.32458 1.38282 1.41916 1.51361 1.66707 1.80978 1.90070 1.93360
 1.99032 2.06809 2.12827 2.28679 2.34610 2.39464 2.44015 2.55077 2.69963 2.80841
 2.81427 2.87772 3.35819 3.53954 3.61840 3.73160 3.81352 3.96464 4.71496 4.74974
 5.00571 5.17569 5.24627 5.46865 5.50960 5.83990 6.04201 6.20156 6.30781 6.41392
 6.66665 7.39599 7.59136 8.02486 8.21498 8.33766 8.43998 11.61442 11.61797 11.62159
 11.62828 11.63955 11.65010 11.65655 11.66793 11.69912 12.27974 14.89063 14.91017 15.05809
 15.13165 15.18647 15.29138 15.33832 16.38895 16.51980 16.67477 16.78921 17.05728 17.15277
 55.74514 286.50584
 == 325-th k-point (-0.23690,0.23690,0.47380) occupation: 6==
 -23.85915 -1.46281 -0.67993 -0.04623 0.01470 0.02070 0.46422 0.64459 0.74518 0.75669
 0.99406 1.21605 1.21641 1.34846 1.43058 1.43605 1.64556 1.74281 1.79131 1.93973
 1.94449 2.00865 2.26703 2.34877 2.37202 2.46237 2.58440 2.65543 2.70088 2.81664
 2.89544 2.93275 2.99221 3.54091 3.60449 3.75825 3.86022 3.87460 4.21787 4.50834
 4.76509 5.01890 5.11099 5.34876 5.51241 5.54647 6.16678 6.18457 6.26928 6.53419
 6.56763 6.69319 7.40524 7.84051 8.13867 8.36342 8.41917 8.54138 11.61248 11.61626
 11.62460 11.63220 11.65096 11.65324 11.66021 11.67996 11.71116 12.60359 14.80052 14.91962
 15.05887 15.10588 15.23358 15.31939 15.34345 16.62373 16.66083 16.72341 16.94435 16.99571
 17.41157 55.89642 286.68413
 == 326-th k-point (-0.11845,0.35535,0.35535) occupation: 6==
 -23.85915 -1.46306 -0.68216 -0.03526 0.00828 0.03049 0.45566 0.64600 0.76197 0.76250
 1.07759 1.07925 1.15960 1.39011 1.40082 1.46949 1.62213 1.69857 1.85692 1.89011
 1.90672 2.00906 2.29878 2.31166 2.47907 2.48920 2.65443 2.80106 2.81945 2.84126
 2.93847 2.99341 3.07387 3.56143 3.57520 3.81328 3.93951 4.24163 4.54049 4.66102
 4.76451 4.96885 5.12514 5.36447 5.54494 6.21431 6.23554 6.26720 6.35842 6.55755
 6.82837 7.43082 7.48073 7.82047 7.90368 8.53409 8.66379 11.59783 11.60689 11.61913
 11.62630 11.62805 11.65278 11.65936 11.67520 11.70121 12.25291 14.81552 14.89750 14.91839
 15.02845 15.10807 15.24474 15.32386 16.65663 16.66571 16.73054 16.78130 17.13846 17.24617
 55.80011 286.56544
 == 327-th k-point (0.00000,0.47380,0.23690) occupation: 6==
 -23.85915 -1.46295 -0.68037 -0.03383 -0.00002 0.02167 0.48254 0.64540 0.74941 0.77272
 0.92434 1.19662 1.24282 1.36653 1.44124 1.48435 1.60715 1.68210 1.77539 1.87815
 1.99416 2.06613 2.21992 2.33591 2.34687 2.51101 2.62642 2.66696 2.86990 2.89309
 2.95551 3.05337 3.14489 3.45176 3.67059 3.91219 4.11227 4.11973 4.60786 4.67736
 4.77196 4.95485 5.13636 5.29349 5.46019 6.18982 6.21272 6.25663 6.27023 6.39063
 6.69561 7.48209 7.51802 7.98766 8.43054 8.53732 8.56658 11.60929 11.61022 11.61811
 11.63437 11.63665 11.64882 11.66189 11.66409 11.71584 12.20041 14.85173 14.88103 14.91846
 15.02211 15.11586 15.20184 15.27643 16.61718 16.68843 16.70849 16.75370 16.95543 17.26934
 55.74216 286.49078
 == 328-th k-point (0.11845,0.59225,0.11845) occupation: 6==
 -23.85915 -1.46256 -0.67580 -0.05169 0.00024 0.00845 0.52268 0.64255 0.72340 0.77774
 0.84830 1.29114 1.32086 1.42361 1.48177 1.49843 1.57549 1.70958 1.75148 1.87326
 1.99886 2.07987 2.10657 2.30952 2.38234 2.52153 2.55617 2.66535 2.72988 2.80031
 2.88665 2.98049 3.13415 3.42485 3.62141 3.85737 3.92723 4.12847 4.63988 4.82450
 4.87739 4.94138 5.09327 5.13196 5.39347 6.00360 6.09427 6.19746 6.24547 6.33034
 6.49417 7.53517 7.71581 8.12253 8.30829 8.34582 8.58159 11.60522 11.61744 11.63158
 11.63694 11.64338 11.64734 11.64972 11.67556 11.72693 12.78690 14.87807 14.94005 14.97354
 15.01412 15.11583 15.12233 15.26496 16.48151 16.55945 16.66996 16.73507 16.82941 17.15963
 55.68000 286.41046
 == 329-th k-point (-0.47380,-0.23690,0.94761) occupation: 6==
 -23.85915 -1.46239 -0.67523 -0.04723 -0.01536 0.01668 0.51219 0.61418 0.73430 0.75161
 1.01481 1.12247 1.32458 1.38282 1.41917 1.51362 1.66707 1.80979 1.90070 1.93365
 1.99038 2.06810 2.12829 2.28678 2.34621 2.39464 2.44034 2.55079 2.69991 2.80860
 2.81471 2.87779 3.35846 3.54108 3.61851 3.73205 3.81356 3.96489 4.71497 4.74987
 5.00569 5.17577 5.24638 5.46869 5.51070 5.83987 6.04201 6.20169 6.30833 6.41429
 6.66663 7.39599 7.59143 8.02498 8.21513 8.33767 8.44237 11.61442 11.61797 11.62159
 11.62829 11.63955 11.65010 11.65656 11.66793 11.69913 12.27971 14.89064 14.91018 15.05809
 15.13166 15.18649 15.29138 15.33859 16.38894 16.51980 16.67479 16.78922 17.05741 17.15302
 55.74519 286.50585
 == 330-th k-point (-0.35535,-0.11845,0.82916) occupation: 6==
 -23.85915 -1.46212 -0.67153 -0.04707 -0.03356 0.00870 0.57348 0.59080 0.70584 0.75118
 0.99418 1.12011 1.31763 1.44157 1.45636 1.62387 1.66938 1.83361 1.88563 1.94672
 1.98714 2.02662 2.18229 2.22806 2.38165 2.39383 2.52650 2.53908 2.54894 2.76790
 2.86960 2.87285 3.18249 3.45624 3.46734 3.65561 3.74493 4.06565 4.51242 4.94419
 5.04671 5.31624 5.42097 5.46550 5.54009 5.59427 5.92257 5.96118 6.12012 6.37684
 7.07109 7.41897 7.70060 7.73264 8.31010 8.38154 8.67436 11.61894 11.61928 11.62892
 11.63568 11.64040 11.64286 11.64960 11.67615 11.78787 12.38002 14.79322 15.03432 15.06848
 15.21799 15.26595 15.38871 15.40012 16.18785 16.39153 16.48529 16.72375 16.88149 17.55173
 55.85371 286.63579
 == 331-th k-point (-0.23690,-0.00000,0.71071) occupation: 6==
 -23.85915 -1.46219 -0.67180 -0.05972 -0.01514 0.00563 0.56511 0.61554 0.69792 0.76393
 0.89468 1.23064 1.33323 1.43232 1.53439 1.58632 1.61562 1.73752 1.87126 1.88084
 1.99341 2.08908 2.13398 2.15294 2.25395 2.34029 2.44038 2.63731 2.69849 2.85640
 2.87266 2.95113 3.25076 3.38483 3.60164 3.70163 3.76755 4.20325 4.59352 4.69407
 5.08845 5.11568 5.12548 5.33382 5.51388 5.83689 5.86113 6.14914 6.21916 6.39264
 6.60413 7.42784 7.50809 8.02503 8.12283 8.39776 8.89234 11.61194 11.62423 11.63032
 11.64081 11.64224 11.65062 11.66115 11.66548 11.81118 12.42254 14.85452 14.87594 15.09594
 15.11343 15.14395 15.25092 15.37077 16.33676 16.38527 16.64774 16.71652 16.83137 17.30428
 55.72145 286.46856
 == 332-th k-point (-0.11845,0.11845,0.59225) occupation: 6==
 -23.85915 -1.46256 -0.67580 -0.05169 0.00024 0.00845 0.52268 0.64255 0.72340 0.77774
 0.84830 1.29114 1.32086 1.42361 1.48178 1.49844 1.57549 1.70961 1.75158 1.87325
 1.99897 2.07990 2.10661 2.30964 2.38257 2.52349 2.55618 2.66540 2.73200 2.80094
 2.88754 2.98255 3.13434 3.43077 3.62359 3.85737 3.93025 4.13109 4.63988 4.82476
 4.87751 4.94148 5.09392 5.13201 5.39770 6.00359 6.09428 6.19979 6.24586 6.33035
 6.49642 7.53529 7.71586 8.12291 8.30853 8.34610 8.59160 11.60522 11.61744 11.63158
 11.63695 11.64338 11.64734 11.64978 11.67557 11.72700 12.78815 14.87807 14.94007 14.97356
 15.01415 15.11598 15.12234 15.26597 16.48152 16.55945 16.67000 16.73507 16.82946 17.16139
 55.68022 286.41051
 == 333-th k-point (0.00000,0.23690,0.47380) occupation: 6==
 -23.85915 -1.46295 -0.68037 -0.03383 -0.00002 0.02167 0.48254 0.64540 0.74941 0.77272
 0.92434 1.19662 1.24282 1.36653 1.44124 1.48435 1.60715 1.68210 1.77539 1.87815
 1.99416 2.06613 2.21992 2.33591 2.34687 2.51101 2.62642 2.66696 2.86990 2.89309
 2.95551 3.05337 3.14489 3.45176 3.67059 3.91219 4.11227 4.11973 4.60786 4.67736
 4.77196 4.95485 5.13636 5.29349 5.46019 6.18982 6.21272 6.25663 6.27023 6.39063
 6.69561 7.48209 7.51802 7.98766 8.43054 8.53732 8.56658 11.60929 11.61022 11.61811
 11.63437 11.63665 11.64882 11.66189 11.66409 11.71584 12.20041 14.85173 14.88103 14.91846
 15.02211 15.11586 15.20184 15.27643 16.61718 16.68843 16.70849 16.75370 16.95543 17.26934
 55.74216 286.49078
 == 334-th k-point (0.11845,0.35535,0.35535) occupation: 6==
 -23.85915 -1.46306 -0.68216 -0.03526 0.00828 0.03049 0.45566 0.64600 0.76197 0.76250
 1.07759 1.07925 1.15960 1.39011 1.40083 1.46951 1.62213 1.69858 1.85703 1.89011
 1.90675 2.00906 2.29878 2.31177 2.47997 2.48924 2.65546 2.80128 2.81944 2.84151
 2.94075 2.99343 3.07416 3.56144 3.57520 3.81394 3.93952 4.24594 4.54049 4.66113
 4.76461 4.96959 5.12516 5.36446 5.54495 6.21432 6.23554 6.26740 6.35846 6.55956
 6.82836 7.43083 7.48079 7.82082 7.90371 8.53771 8.66381 11.59783 11.60689 11.61913
 11.62630 11.62806 11.65278 11.65939 11.67521 11.70121 12.25334 14.81552 14.89751 14.91840
 15.02850 15.10807 15.24474 15.32386 16.65663 16.66571 16.73064 16.78138 17.13846 17.24691
 55.80020 286.56546
 == 335-th k-point (0.23690,0.47380,0.23690) occupation: 6==
 -23.85915 -1.46281 -0.67993 -0.04623 0.01470 0.02070 0.46422 0.64459 0.74518 0.75669
 0.99406 1.21605 1.21641 1.34845 1.43056 1.43604 1.64556 1.74282 1.79133 1.93963
 1.94437 2.00864 2.26694 2.34811 2.37183 2.46214 2.58340 2.65272 2.70060 2.81302
 2.89462 2.93150 2.99092 3.54076 3.60203 3.75376 3.86021 3.87417 4.21415 4.50830
 4.76507 5.01782 5.11097 5.34853 5.51055 5.54468 6.16677 6.18385 6.26906 6.53391
 6.56677 6.69235 7.40524 7.83977 8.13862 8.36217 8.41619 8.53737 11.61248 11.61625
 11.62459 11.63219 11.65095 11.65323 11.66019 11.67981 11.71113 12.60278 14.80051 14.91962
 15.05874 15.10588 15.23354 15.31897 15.34309 16.62372 16.66075 16.72324 16.94403 16.99559
 17.41105 55.89636 286.68412
 == 336-th k-point (-0.35535,-0.35535,1.06606) occupation: 6==
 -23.85915 -1.46255 -0.67792 -0.05415 0.00750 0.02412 0.46537 0.63437 0.74215 0.74216
 1.09413 1.16940 1.18873 1.37531 1.41461 1.44749 1.66209 1.76695 1.88571 1.97608
 2.00309 2.01782 2.14927 2.32175 2.33126 2.37174 2.46919 2.70846 2.75408 2.75488
 2.84081 2.85118 2.93748 3.54248 3.65088 3.71713 3.78914 3.84572 4.18567 4.45182
 4.75481 5.06720 5.14741 5.40191 5.48994 5.55401 6.13267 6.16273 6.20651 6.53188
 6.74424 6.79210 7.44680 7.63746 7.98873 8.15184 8.48392 8.51451 11.61216 11.62130
 11.62396 11.62659 11.63002 11.65735 11.66559 11.66943 11.70694 12.72835 14.77006 14.91355
 15.08650 15.12298 15.26187 15.30320 15.36508 16.58950 16.65203 16.66815 16.94731 17.09738
 17.61839 56.14854 287.00435
 == 337-th k-point (-0.23690,-0.23690,0.94761) occupation: 6==
 -23.85915 -1.46224 -0.67319 -0.05285 -0.01920 0.01243 0.53488 0.60507 0.72944 0.75870
 0.94229 1.25267 1.27949 1.36547 1.43591 1.54356 1.72725 1.75864 1.92820 1.96907
 2.03159 2.06677 2.15634 2.17802 2.31281 2.39022 2.39383 2.56705 2.65838 2.71671
 2.84350 2.91870 2.94689 3.37065 3.51576 3.62132 3.80852 3.86535 3.92426 4.67738
 4.77412 5.12589 5.26279 5.43810 5.47379 5.50431 5.68467 5.93367 6.15174 6.32320
 6.70862 6.78468 7.40771 7.79686 8.22411 8.24770 8.38772 8.46257 11.60753 11.62448
 11.63165 11.63953 11.65028 11.65177 11.65884 11.70214 11.70387 12.60795 14.90138 14.91226
 15.11148 15.19316 15.28801 15.31849 15.36331 16.30380 16.41455 16.67853 16.75302 17.05615
 17.40525 55.82060 286.59664
 == 338-th k-point (-0.11845,-0.11845,0.82916) occupation: 6==
 -23.85915 -1.46210 -0.67024 -0.07007 -0.00976 0.00218 0.58491 0.61371 0.69487 0.77744
 0.83438 1.29180 1.39538 1.44118 1.44526 1.66434 1.68389 1.72617 1.85894 1.90150
 1.94849 2.03431 2.15530 2.19121 2.20435 2.25341 2.34813 2.61813 2.74615 2.85960
 2.89586 3.08125 3.10409 3.25094 3.46154 3.84566 3.88337 4.01923 4.80104 4.84504
 4.97129 4.99008 5.16212 5.49478 5.50768 5.52903 5.87782 5.98701 6.27602 6.30625
 6.37225 7.71754 7.82455 7.94539 8.41169 8.56245 8.65409 11.59761 11.61204 11.62679
 11.64818 11.64823 11.65176 11.65208 11.67625 11.73610 12.89838 14.92270 14.94602 15.03074
 15.06501 15.20638 15.34146 15.35328 16.08790 16.47909 16.57001 16.70113 16.74490 17.11094
 55.55950 286.26108
 == 339-th k-point (0.00000,-0.00000,0.71071) occupation: 6==
 -23.85915 -1.46225 -0.67144 -0.07039 0.00051 0.00051 0.56643 0.65052 0.69480 0.78618
 0.78618 1.28262 1.42273 1.53116 1.58419 1.58420 1.62370 1.62370 1.70448 1.84360
 1.94198 1.94200 2.22444 2.33768 2.36194 2.36195 2.39037 2.65757 2.71454 2.82733
 2.82784 2.88191 3.12048 3.50254 3.85697 3.85700 4.15142 4.83712 4.85815 4.85818
 4.92110 5.08977 5.12966 5.12978 5.74827 5.90602 5.90603 6.13273 6.31104 6.31799
 7.59077 7.95762 7.95773 8.06380 8.41683 8.41690 11.59613 11.61140 11.61140 11.61975
 11.64361 11.64621 11.64621 11.68057 11.73822 13.19870 14.94396 14.98790 14.98791 15.00589
 15.10124 15.15086 15.15088 16.37078 16.37078 16.58367 16.58646 16.72477 16.82660 55.32413
 285.96160
 == 340-th k-point (0.11845,0.11845,0.59225) occupation: 6==
 -23.85915 -1.46256 -0.67580 -0.05169 0.00024 0.00845 0.52268 0.64255 0.72340 0.77774
 0.84830 1.29114 1.32086 1.42361 1.48177 1.49843 1.57549 1.70958 1.75148 1.87326
 1.99886 2.07987 2.10657 2.30952 2.38234 2.52153 2.55617 2.66535 2.72988 2.80031
 2.88665 2.98049 3.13415 3.42485 3.62141 3.85737 3.92723 4.12847 4.63988 4.82450
 4.87739 4.94138 5.09327 5.13196 5.39347 6.00360 6.09427 6.19746 6.24547 6.33034
 6.49417 7.53517 7.71581 8.12253 8.30829 8.34582 8.58159 11.60522 11.61744 11.63158
 11.63694 11.64338 11.64734 11.64972 11.67556 11.72693 12.78690 14.87807 14.94005 14.97354
 15.01412 15.11583 15.12233 15.26496 16.48151 16.55945 16.66996 16.73507 16.82941 17.15963
 55.68000 286.41046
 == 341-th k-point (0.23690,0.23690,0.47380) occupation: 6==
 -23.85915 -1.46281 -0.67993 -0.04623 0.01470 0.02070 0.46422 0.64459 0.74518 0.75669
 0.99406 1.21605 1.21641 1.34845 1.43056 1.43604 1.64556 1.74282 1.79133 1.93963
 1.94437 2.00864 2.26694 2.34811 2.37183 2.46214 2.58340 2.65272 2.70060 2.81302
 2.89462 2.93150 2.99092 3.54076 3.60203 3.75376 3.86021 3.87417 4.21415 4.50830
 4.76507 5.01782 5.11097 5.34853 5.51055 5.54468 6.16677 6.18385 6.26906 6.53391
 6.56677 6.69235 7.40524 7.83977 8.13862 8.36217 8.41619 8.53737 11.61248 11.61625
 11.62459 11.63219 11.65095 11.65323 11.66019 11.67981 11.71113 12.60278 14.80051 14.91962
 15.05874 15.10588 15.23354 15.31897 15.34309 16.62372 16.66075 16.72324 16.94403 16.99559
 17.41105 55.89636 286.68412
 == 342-th k-point (0.35535,0.35535,0.35535) occupation: 6==
 -23.85915 -1.46281 -0.68085 -0.05400 0.02798 0.02798 0.43512 0.65691 0.74034 0.74034
 1.14231 1.16957 1.16957 1.30850 1.41334 1.41334 1.73254 1.73254 1.81135 1.86186
 1.99087 1.99087 2.24186 2.36593 2.36593 2.47244 2.72449 2.72449 2.74666 2.86469
 2.90443 2.90443 2.95669 3.55735 3.55735 3.77749 3.77749 3.78850 4.21065 4.47984
 4.76574 5.21500 5.21500 5.50396 5.50396 5.57740 6.10423 6.10423 6.18688 6.40882
 6.40882 7.00054 7.01605 7.01605 7.33829 8.18985 8.24192 8.24192 11.60240 11.60240
 11.61927 11.62966 11.62966 11.66961 11.66967 11.66967 11.73018 13.14236 14.77151 14.92189
 15.16270 15.16270 15.31118 15.31118 15.44246 16.59693 16.59693 16.69463 16.89185 16.89185
 17.76060 56.18096 287.03555
 ---------------------------------------------------------------------------
 VBM is at 171-th k-point with 0.98251 eV
 CBM is at 171-th k-point with 10.17377 eV
 Band gap is 9.19126 eV


           Ground-State Mulliken Net Atomic Charges

      Atom                 Charge (a.u.)          Spin (a.u.)
   --------------------------------------------------------
      1 Li                (0.183581,0.000000)    (0.000000,0.000000)
      2  F              (-0.183581,-0.000000)    (0.000000,0.000000)
   --------------------------------------------------------
  Sum of atomic charges =     (-0.000000,-0.000000)
  Sum of spin   charges =       (0.000000,0.000000)



 Total job time:  529.00 s.
 Tue Sep  9 01:37:46 2025


        *************************************************************
        *                                                           *
        *  Thank you very much for using QCPBC. Have a nice day.    *
        *                                                           *
        *************************************************************

Running job 1 of 1
