                  Welcome to Q-Chem
           with Periodic Boundary Condition
     A Quantum Leap Into The Future Of Chemistry

 Adam Rettig, Xintian Feng, Meng-Fu Chen, Hieu Dinh, Stephen Quiton,
 Anton Ni, Paul J. Robinson, Jinghong Zhang, Joonho Lee

Contributors to earlier versions of Q-Chem not listed above:
 Evgeny Epifanovsky, Leo Cunha, Jerome F. Gonthier, Kuan-Yu Liu
 Input file: /n/netscratch/joonholee_lab/Lab/hieudinh//lif_solve_def2qzvp_omega_0.9_999.scratch20250909040308/lif_solve_def2qzvp_omega_0.9_999.0
 Scratch folder: /n/netscratch/joonholee_lab/Lab/hieudinh//lif_solve_def2qzvp_omega_0.9_999.scratch20250909040308
 Auxillary files located at: /n/holylabs/LABS/joonholee_lab/Lab/qchem_base/qcaux
 Q-Chem begins on Tue Sep  9 04:03:09 2025

 -------------------------------------------------------------
 User input:
 -------------------------------------------------------------
 $lattice
 3
 0.000000 2.005000 2.005000
 2.005000 0.000000 2.005000
 2.005000 2.005000 0.000000
 $end
 
 $unitcell
 ABSOLUTE
 0 1
 Li 0.000000 0.000000 0.000000
 F  2.005000 0.000000 0.000000
 $end
 
 $rem
 jobtype = sp
 method = pbe
 scf_convergence = 5
 scf_guess = autosad
 scf_algorithm = gdm
 basis = def2-qzvp
 aux_basis = gen
 input_bohr = false
 symmetry false
 is_basis_uctr true
 rsdf_print_level 1
 
 mp_mesh = [9,9,9]
 
 integral_direct true
 bvk_cgto true
 
 thresh 14
 mem_total 100000
 threads 32
 
 MAX_SCF_CYCLES 400
 madelung = false
 omega 0.9
 do_rij_bigmem true
 automate_g true
 print_level 10
 grid_type_xc 1
 
 thresh_1e2c_sp 1e-14
 thresh_2e3c_bra_ket_sep 1e-10
 thresh_g 1e-12
 $end
 
 $aux_basis
 Li     0
 S   7   1.00
     498.3689730              0.0207908
     162.9342738              0.0542177
      57.3246735              0.1776783
      21.6427314              0.4181150
       8.7345375              0.6535245
       3.7491039              0.5492618
       1.7006754              0.1701425
 S   1   1.00
       0.8090859             -0.0097548
 S   1   1.00
       0.4000933             -0.0050152
 S   1   1.00
       0.2035793              0.0232200
 !S   1   1.00
 !      0.1054201              0.0134535
 !S   1   1.00
 !      0.0549139              0.0006647
 P   2   1.00
      10.7024696              0.0072923
       3.6551543              0.0060940
 P   1   1.00
       1.2464013              0.0172529
 P   1   1.00
       0.4246282             -0.0160026
 P   1   1.00
       0.1446192             -0.0195111
 D   2   1.00
       1.1510647             -0.0014314
       0.6019112              0.0038969
 D   1   1.00
       0.3109573              0.0024683
 D   1   1.00
       0.1600032              0.0036451
 F   2   1.00
       0.5967918              0.0010494
       0.1790687              0.0006468
 G   1   1.00
       1.0460130             -0.0001971
 ****
 F     0
 S   7   1.00
    3514.9201549              0.1805835
    1231.2458815              0.3676084
     454.1367336              1.2707881
     175.8376258              2.8274164
      71.2081775              4.3588226
      30.0316883              2.7180994
      13.1259023             -0.0804726
 S   1   1.00
       5.9126861             -0.0023370
 S   1   1.00
       2.7284431              1.1236274
 S   1   1.00
       1.2813993              0.9999042
 S   1   1.00
       0.6082793              0.3119579
 S   1   1.00
       0.2897894              0.0312295
 P   2   1.00
      49.3740409             -0.0346332
      13.4874956             -0.0096069
 P   1   1.00
       3.9664900              0.0762067
 P   1   1.00
       1.2226629             -0.0103329
 P   1   1.00
       0.3830317              0.0018853
 D   2   1.00
      29.9719140             -0.0113316
       6.7860915             -0.0467639
 D   1   1.00
       1.8137313             -0.0167604
 D   1   1.00
       0.5157840             -0.0050777
 F   2   1.00
       2.8301877              1.0
       0.9155962              1.0
 G   1   1.00
       1.6097500             -0.0005411
 ****
 $end
 -------------------------------------------------------------
 Running PBC job

 Requested Exchange Correlation Functionals: 
  DFT Exchange:  1.00000 pbe_x
  DFT Correlation:  1.00000 pbe_c
 using 32 threads for computing.
 ---------------------------------------------------------------
      Coordinates of Atoms in Central Unit Cell (Angstroms)
    I     Atom         X            Y            Z
 ---------------------------------------------------------------
    1      Li      0.000000     0.000000     0.000000
    2       F      2.005000     0.000000     0.000000
 ---------------------------------------------------------------
 --------------------------------------------------
              Lattice Vectors (Angstroms)
              X            Y            Z
 --------------------------------------------------
   X       0.000000     2.005000     2.005000
   Y       2.005000     0.000000     2.005000
   Z       2.005000     2.005000     0.000000
 --------------------------------------------------
 --------------------------------------------------
       Reciprocal Lattice Vectors (Angstroms^-1)
              X            Y            Z
 --------------------------------------------------
   X      -1.566879     1.566879     1.566879
   Y       1.566879    -1.566879     1.566879
   Z       1.566879     1.566879    -1.566879
 --------------------------------------------------

 Single point calculation requested

 Hamiltonian contributions:
 List of terms in Hamiltonian: kpts_nn, kpts_kinetic, kpts_vnuc_df, kpts_xc, kpts_rij_bigmem

 K-Points calculation started.

 Basis set information about using solid harmonic (1) or Cartesian (0):
  li : D(1) D(1) F(1) 
  f : D(1) D(1) D(1) F(1) F(1) G(1) 

 Basis set information about using solid harmonic (1) or Cartesian (0):
  li : D(1) D(1) D(1) F(1) G(1) 
  f : D(1) D(1) D(1) F(1) G(1) 

 There are 92 basis functions in the central unit cell.
 Print atomic basis of atoms in the central unit cell:
 -------------------------------------------------------------
2 53 53 30

  0.00000000000000e+00  0.00000000000000e+00  0.00000000000000e+00
  3.78890087987467e+00  0.00000000000000e+00  0.00000000000000e+00

  1.48539770850000e+04
  2.22522364770000e+03
  5.04887390080000e+02
  1.42458475480000e+02
  4.63155995800000e+01
  1.66553354740000e+01
  6.43311861990000e+00
  2.60270438580000e+00
  1.08972454050000e+00
  4.42365959710000e+00
  1.23563949900000e+00
  4.60674706020000e-01
  9.66171669550000e-02
  4.59154522960000e-02
  2.11400487300000e-02
  3.26051092060000e+00
  6.50030431150000e-01
  1.69416710730000e-01
  3.32700000000000e+00
  5.57323437670000e-02
  2.04899592410000e-02
  2.30000000000000e-01
  7.57000000000000e-02
  1.35000000000000e-01
  1.32535973450000e+05
  1.97581125880000e+04
  4.48519969470000e+03
  1.27381510200000e+03
  4.18938312360000e+02
  1.52557219850000e+02
  5.98215248230000e+01
  2.48190769320000e+01
  1.00744466730000e+02
  3.01037282900000e+01
  1.08142832720000e+01
  4.81728867700000e+00
  1.65593342130000e+00
  6.48935195820000e-01
  2.47781045450000e-01
  2.40966541140000e+02
  5.70206997810000e+01
  1.81269521200000e+01
  6.64574046210000e+00
  2.63757228920000e+00
  1.06382172000000e+00
  4.19325627500000e-01
  1.57475882990000e-01
  5.01400000000000e+00
  1.72500000000000e+00
  5.86000000000000e-01
  3.56200000000000e+00
  1.14800000000000e+00
  2.37600000000000e+00

  4.67593013229757e-02
  8.76137465723478e-02
  1.51821576860780e-01
  2.46527731442678e-01
  3.74140539449148e-01
  5.14323804423000e-01
  6.00677517411378e-01
  5.44460466941871e-01
  3.21097242154446e-01
  2.72734215356930e-01
  7.53702662810338e-01
  3.98525272814913e-01
  1.23509628755786e-01
  7.06934606713439e-02
  3.95129614058778e-02
  2.22230636644090e-01
  1.62952044217479e-01
  1.33842808684561e-01
  6.40480761295544e+00
  3.85988372286674e-02
  1.10501063034648e-02
  1.25728336426159e-01
  1.79815549832937e-02
  1.62631785032468e-02
  3.86107783813291e-01
  7.24648975903829e-01
  1.25045495963763e+00
  2.01518764389143e+00
  3.04056815166578e+00
  4.21268576129244e+00
  5.00944268647146e+00
  4.54693835849554e+00
  2.32503271092484e+00
  8.41440806306271e+00
  4.25019052011886e+00
  2.31745919743391e+00
  1.04038060130896e+00
  5.15301123337211e-01
  2.50300174847139e-01
  3.49166780573024e+00
  4.61886090108967e+00
  5.17964869303152e+00
  4.78626212475628e+00
  3.24578400123904e+00
  1.54001926672016e+00
  4.80982576947690e-01
  1.41402684040663e-01
  2.76523492268872e+01
  4.27356565232165e+00
  6.45996677345861e-01
  2.56605380682814e+01
  2.00827738540458e+00
  1.20230076986570e+01

0 0 0 0 1 1 1
0 0 
9 0

0 1 1 9 1 1 1
9 0 
2 0

0 2 2 11 1 1 1
11 0 
1 0

0 3 3 12 1 1 1
12 0 
1 0

0 4 4 13 1 1 1
13 0 
1 0

0 5 5 14 1 1 1
14 0 
1 0

0 6 6 15 1 3 3
15 1 
3 0

0 9 9 18 1 3 3
18 1 
1 0

0 12 12 19 1 3 3
19 1 
1 0

0 15 15 20 1 3 3
20 1 
1 0

0 18 18 21 1 5 6
21 2 
1 1

0 23 23 22 1 5 6
22 2 
1 1

0 28 28 23 1 7 10
23 3 
1 1

1 35 35 24 1 1 1
24 0 
8 0

1 36 36 32 1 1 1
32 0 
2 0

1 37 37 34 1 1 1
34 0 
1 0

1 38 38 35 1 1 1
35 0 
1 0

1 39 39 36 1 1 1
36 0 
1 0

1 40 40 37 1 1 1
37 0 
1 0

1 41 41 38 1 1 1
38 0 
1 0

1 42 42 39 1 3 3
39 1 
5 0

1 45 45 44 1 3 3
44 1 
1 0

1 48 48 45 1 3 3
45 1 
1 0

1 51 51 46 1 3 3
46 1 
1 0

1 54 54 47 1 5 6
47 2 
1 1

1 59 59 48 1 5 6
48 2 
1 1

1 64 64 49 1 5 6
49 2 
1 1

1 69 69 50 1 7 10
50 3 
1 1

1 76 76 51 1 7 10
51 3 
1 1

1 83 83 52 1 9 15
52 4 
1 1

 -------------------------------------------------------------
 Allocate 136872 B from available memory: 104857600000 B
 There are 15625 image cells after screening.
 There are 17628 image cells for CGTO evaluation after screening.
 Real-Space grid for FFT initialized based on kinetic energy cutoff (eV) = 500.0
 Real-Space grid for FFT: (8,8,8)
 There are 4913 real-space grid points.
 There are 27 batches of real-space grid points. 
 Size of each grid batch is around 128
 Grid for AFT initialized based on kinetic energy cutoff (eV) = 500.0
 Real-Space grid for AFT: (8,8,8)
 There are 4913 real-space grid points.

 There are 5912 atom-centered grid points.

 Spacegroup symmetry group: Fm-3m
 Reducing spacegroup symmetry to symmorphic group: F m -3 m
 Monkhorst-Pack mesh is [9,9,9]
 There are 729 k points.
kpoints in Bohr
-0.3685141010 -0.3685141010 -0.3685141010
-0.2763855758 -0.2763855758 -0.4606426263
-0.1842570505 -0.1842570505 -0.5527711515
-0.0921285253 -0.0921285253 -0.6448996768
-0.0000000000 0.0000000000 -0.7370282020
0.0921285253 0.0921285253 -0.8291567273
0.1842570505 0.1842570505 -0.9212852525
0.2763855758 0.2763855758 -1.0134137778
0.3685141010 0.3685141010 -1.1055423031
-0.2763855758 -0.4606426263 -0.2763855758
-0.1842570505 -0.3685141010 -0.3685141010
-0.0921285253 -0.2763855758 -0.4606426263
-0.0000000000 -0.1842570505 -0.5527711515
0.0921285253 -0.0921285253 -0.6448996768
0.1842570505 0.0000000000 -0.7370282020
0.2763855758 0.0921285253 -0.8291567273
0.3685141010 0.1842570505 -0.9212852525
0.4606426263 0.2763855758 -1.0134137778
-0.1842570505 -0.5527711515 -0.1842570505
-0.0921285253 -0.4606426263 -0.2763855758
-0.0000000000 -0.3685141010 -0.3685141010
0.0921285253 -0.2763855758 -0.4606426263
0.1842570505 -0.1842570505 -0.5527711515
0.2763855758 -0.0921285253 -0.6448996768
0.3685141010 0.0000000000 -0.7370282020
0.4606426263 0.0921285253 -0.8291567273
0.5527711515 0.1842570505 -0.9212852525
-0.0921285253 -0.6448996768 -0.0921285253
-0.0000000000 -0.5527711515 -0.1842570505
0.0921285253 -0.4606426263 -0.2763855758
0.1842570505 -0.3685141010 -0.3685141010
0.2763855758 -0.2763855758 -0.4606426263
0.3685141010 -0.1842570505 -0.5527711515
0.4606426263 -0.0921285253 -0.6448996768
0.5527711515 0.0000000000 -0.7370282020
0.6448996768 0.0921285253 -0.8291567273
0.0000000000 -0.7370282020 -0.0000000000
0.0921285253 -0.6448996768 -0.0921285253
0.1842570505 -0.5527711515 -0.1842570505
0.2763855758 -0.4606426263 -0.2763855758
0.3685141010 -0.3685141010 -0.3685141010
0.4606426263 -0.2763855758 -0.4606426263
0.5527711515 -0.1842570505 -0.5527711515
0.6448996768 -0.0921285253 -0.6448996768
0.7370282020 0.0000000000 -0.7370282020
0.0921285253 -0.8291567273 0.0921285253
0.1842570505 -0.7370282020 -0.0000000000
0.2763855758 -0.6448996768 -0.0921285253
0.3685141010 -0.5527711515 -0.1842570505
0.4606426263 -0.4606426263 -0.2763855758
0.5527711515 -0.3685141010 -0.3685141010
0.6448996768 -0.2763855758 -0.4606426263
0.7370282020 -0.1842570505 -0.5527711515
0.8291567273 -0.0921285253 -0.6448996768
0.1842570505 -0.9212852525 0.1842570505
0.2763855758 -0.8291567273 0.0921285253
0.3685141010 -0.7370282020 -0.0000000000
0.4606426263 -0.6448996768 -0.0921285253
0.5527711515 -0.5527711515 -0.1842570505
0.6448996768 -0.4606426263 -0.2763855758
0.7370282020 -0.3685141010 -0.3685141010
0.8291567273 -0.2763855758 -0.4606426263
0.9212852525 -0.1842570505 -0.5527711515
0.2763855758 -1.0134137778 0.2763855758
0.3685141010 -0.9212852525 0.1842570505
0.4606426263 -0.8291567273 0.0921285253
0.5527711515 -0.7370282020 -0.0000000000
0.6448996768 -0.6448996768 -0.0921285253
0.7370282020 -0.5527711515 -0.1842570505
0.8291567273 -0.4606426263 -0.2763855758
0.9212852525 -0.3685141010 -0.3685141010
1.0134137778 -0.2763855758 -0.4606426263
0.3685141010 -1.1055423031 0.3685141010
0.4606426263 -1.0134137778 0.2763855758
0.5527711515 -0.9212852525 0.1842570505
0.6448996768 -0.8291567273 0.0921285253
0.7370282020 -0.7370282020 -0.0000000000
0.8291567273 -0.6448996768 -0.0921285253
0.9212852525 -0.5527711515 -0.1842570505
1.0134137778 -0.4606426263 -0.2763855758
1.1055423031 -0.3685141010 -0.3685141010
-0.4606426263 -0.2763855758 -0.2763855758
-0.3685141010 -0.1842570505 -0.3685141010
-0.2763855758 -0.0921285253 -0.4606426263
-0.1842570505 0.0000000000 -0.5527711515
-0.0921285253 0.0921285253 -0.6448996768
-0.0000000000 0.1842570505 -0.7370282020
0.0921285253 0.2763855758 -0.8291567273
0.1842570505 0.3685141010 -0.9212852525
0.2763855758 0.4606426263 -1.0134137778
-0.3685141010 -0.3685141010 -0.1842570505
-0.2763855758 -0.2763855758 -0.2763855758
-0.1842570505 -0.1842570505 -0.3685141010
-0.0921285253 -0.0921285253 -0.4606426263
-0.0000000000 0.0000000000 -0.5527711515
0.0921285253 0.0921285253 -0.6448996768
0.1842570505 0.1842570505 -0.7370282020
0.2763855758 0.2763855758 -0.8291567273
0.3685141010 0.3685141010 -0.9212852525
-0.2763855758 -0.4606426263 -0.0921285253
-0.1842570505 -0.3685141010 -0.1842570505
-0.0921285253 -0.2763855758 -0.2763855758
-0.0000000000 -0.1842570505 -0.3685141010
0.0921285253 -0.0921285253 -0.4606426263
0.1842570505 0.0000000000 -0.5527711515
0.2763855758 0.0921285253 -0.6448996768
0.3685141010 0.1842570505 -0.7370282020
0.4606426263 0.2763855758 -0.8291567273
-0.1842570505 -0.5527711515 -0.0000000000
-0.0921285253 -0.4606426263 -0.0921285253
-0.0000000000 -0.3685141010 -0.1842570505
0.0921285253 -0.2763855758 -0.2763855758
0.1842570505 -0.1842570505 -0.3685141010
0.2763855758 -0.0921285253 -0.4606426263
0.3685141010 0.0000000000 -0.5527711515
0.4606426263 0.0921285253 -0.6448996768
0.5527711515 0.1842570505 -0.7370282020
-0.0921285253 -0.6448996768 0.0921285253
-0.0000000000 -0.5527711515 -0.0000000000
0.0921285253 -0.4606426263 -0.0921285253
0.1842570505 -0.3685141010 -0.1842570505
0.2763855758 -0.2763855758 -0.2763855758
0.3685141010 -0.1842570505 -0.3685141010
0.4606426263 -0.0921285253 -0.4606426263
0.5527711515 0.0000000000 -0.5527711515
0.6448996768 0.0921285253 -0.6448996768
0.0000000000 -0.7370282020 0.1842570505
0.0921285253 -0.6448996768 0.0921285253
0.1842570505 -0.5527711515 -0.0000000000
0.2763855758 -0.4606426263 -0.0921285253
0.3685141010 -0.3685141010 -0.1842570505
0.4606426263 -0.2763855758 -0.2763855758
0.5527711515 -0.1842570505 -0.3685141010
0.6448996768 -0.0921285253 -0.4606426263
0.7370282020 0.0000000000 -0.5527711515
0.0921285253 -0.8291567273 0.2763855758
0.1842570505 -0.7370282020 0.1842570505
0.2763855758 -0.6448996768 0.0921285253
0.3685141010 -0.5527711515 -0.0000000000
0.4606426263 -0.4606426263 -0.0921285253
0.5527711515 -0.3685141010 -0.1842570505
0.6448996768 -0.2763855758 -0.2763855758
0.7370282020 -0.1842570505 -0.3685141010
0.8291567273 -0.0921285253 -0.4606426263
0.1842570505 -0.9212852525 0.3685141010
0.2763855758 -0.8291567273 0.2763855758
0.3685141010 -0.7370282020 0.1842570505
0.4606426263 -0.6448996768 0.0921285253
0.5527711515 -0.5527711515 -0.0000000000
0.6448996768 -0.4606426263 -0.0921285253
0.7370282020 -0.3685141010 -0.1842570505
0.8291567273 -0.2763855758 -0.2763855758
0.9212852525 -0.1842570505 -0.3685141010
0.2763855758 -1.0134137778 0.4606426263
0.3685141010 -0.9212852525 0.3685141010
0.4606426263 -0.8291567273 0.2763855758
0.5527711515 -0.7370282020 0.1842570505
0.6448996768 -0.6448996768 0.0921285253
0.7370282020 -0.5527711515 -0.0000000000
0.8291567273 -0.4606426263 -0.0921285253
0.9212852525 -0.3685141010 -0.1842570505
1.0134137778 -0.2763855758 -0.2763855758
-0.5527711515 -0.1842570505 -0.1842570505
-0.4606426263 -0.0921285253 -0.2763855758
-0.3685141010 0.0000000000 -0.3685141010
-0.2763855758 0.0921285253 -0.4606426263
-0.1842570505 0.1842570505 -0.5527711515
-0.0921285253 0.2763855758 -0.6448996768
-0.0000000000 0.3685141010 -0.7370282020
0.0921285253 0.4606426263 -0.8291567273
0.1842570505 0.5527711515 -0.9212852525
-0.4606426263 -0.2763855758 -0.0921285253
-0.3685141010 -0.1842570505 -0.1842570505
-0.2763855758 -0.0921285253 -0.2763855758
-0.1842570505 0.0000000000 -0.3685141010
-0.0921285253 0.0921285253 -0.4606426263
-0.0000000000 0.1842570505 -0.5527711515
0.0921285253 0.2763855758 -0.6448996768
0.1842570505 0.3685141010 -0.7370282020
0.2763855758 0.4606426263 -0.8291567273
-0.3685141010 -0.3685141010 -0.0000000000
-0.2763855758 -0.2763855758 -0.0921285253
-0.1842570505 -0.1842570505 -0.1842570505
-0.0921285253 -0.0921285253 -0.2763855758
-0.0000000000 0.0000000000 -0.3685141010
0.0921285253 0.0921285253 -0.4606426263
0.1842570505 0.1842570505 -0.5527711515
0.2763855758 0.2763855758 -0.6448996768
0.3685141010 0.3685141010 -0.7370282020
-0.2763855758 -0.4606426263 0.0921285253
-0.1842570505 -0.3685141010 -0.0000000000
-0.0921285253 -0.2763855758 -0.0921285253
-0.0000000000 -0.1842570505 -0.1842570505
0.0921285253 -0.0921285253 -0.2763855758
0.1842570505 0.0000000000 -0.3685141010
0.2763855758 0.0921285253 -0.4606426263
0.3685141010 0.1842570505 -0.5527711515
0.4606426263 0.2763855758 -0.6448996768
-0.1842570505 -0.5527711515 0.1842570505
-0.0921285253 -0.4606426263 0.0921285253
0.0000000000 -0.3685141010 -0.0000000000
0.0921285253 -0.2763855758 -0.0921285253
0.1842570505 -0.1842570505 -0.1842570505
0.2763855758 -0.0921285253 -0.2763855758
0.3685141010 0.0000000000 -0.3685141010
0.4606426263 0.0921285253 -0.4606426263
0.5527711515 0.1842570505 -0.5527711515
-0.0921285253 -0.6448996768 0.2763855758
0.0000000000 -0.5527711515 0.1842570505
0.0921285253 -0.4606426263 0.0921285253
0.1842570505 -0.3685141010 -0.0000000000
0.2763855758 -0.2763855758 -0.0921285253
0.3685141010 -0.1842570505 -0.1842570505
0.4606426263 -0.0921285253 -0.2763855758
0.5527711515 0.0000000000 -0.3685141010
0.6448996768 0.0921285253 -0.4606426263
0.0000000000 -0.7370282020 0.3685141010
0.0921285253 -0.6448996768 0.2763855758
0.1842570505 -0.5527711515 0.1842570505
0.2763855758 -0.4606426263 0.0921285253
0.3685141010 -0.3685141010 -0.0000000000
0.4606426263 -0.2763855758 -0.0921285253
0.5527711515 -0.1842570505 -0.1842570505
0.6448996768 -0.0921285253 -0.2763855758
0.7370282020 0.0000000000 -0.3685141010
0.0921285253 -0.8291567273 0.4606426263
0.1842570505 -0.7370282020 0.3685141010
0.2763855758 -0.6448996768 0.2763855758
0.3685141010 -0.5527711515 0.1842570505
0.4606426263 -0.4606426263 0.0921285253
0.5527711515 -0.3685141010 -0.0000000000
0.6448996768 -0.2763855758 -0.0921285253
0.7370282020 -0.1842570505 -0.1842570505
0.8291567273 -0.0921285253 -0.2763855758
0.1842570505 -0.9212852525 0.5527711515
0.2763855758 -0.8291567273 0.4606426263
0.3685141010 -0.7370282020 0.3685141010
0.4606426263 -0.6448996768 0.2763855758
0.5527711515 -0.5527711515 0.1842570505
0.6448996768 -0.4606426263 0.0921285253
0.7370282020 -0.3685141010 -0.0000000000
0.8291567273 -0.2763855758 -0.0921285253
0.9212852525 -0.1842570505 -0.1842570505
-0.6448996768 -0.0921285253 -0.0921285253
-0.5527711515 0.0000000000 -0.1842570505
-0.4606426263 0.0921285253 -0.2763855758
-0.3685141010 0.1842570505 -0.3685141010
-0.2763855758 0.2763855758 -0.4606426263
-0.1842570505 0.3685141010 -0.5527711515
-0.0921285253 0.4606426263 -0.6448996768
-0.0000000000 0.5527711515 -0.7370282020
0.0921285253 0.6448996768 -0.8291567273
-0.5527711515 -0.1842570505 -0.0000000000
-0.4606426263 -0.0921285253 -0.0921285253
-0.3685141010 0.0000000000 -0.1842570505
-0.2763855758 0.0921285253 -0.2763855758
-0.1842570505 0.1842570505 -0.3685141010
-0.0921285253 0.2763855758 -0.4606426263
-0.0000000000 0.3685141010 -0.5527711515
0.0921285253 0.4606426263 -0.6448996768
0.1842570505 0.5527711515 -0.7370282020
-0.4606426263 -0.2763855758 0.0921285253
-0.3685141010 -0.1842570505 -0.0000000000
-0.2763855758 -0.0921285253 -0.0921285253
-0.1842570505 0.0000000000 -0.1842570505
-0.0921285253 0.0921285253 -0.2763855758
-0.0000000000 0.1842570505 -0.3685141010
0.0921285253 0.2763855758 -0.4606426263
0.1842570505 0.3685141010 -0.5527711515
0.2763855758 0.4606426263 -0.6448996768
-0.3685141010 -0.3685141010 0.1842570505
-0.2763855758 -0.2763855758 0.0921285253
-0.1842570505 -0.1842570505 -0.0000000000
-0.0921285253 -0.0921285253 -0.0921285253
-0.0000000000 0.0000000000 -0.1842570505
0.0921285253 0.0921285253 -0.2763855758
0.1842570505 0.1842570505 -0.3685141010
0.2763855758 0.2763855758 -0.4606426263
0.3685141010 0.3685141010 -0.5527711515
-0.2763855758 -0.4606426263 0.2763855758
-0.1842570505 -0.3685141010 0.1842570505
-0.0921285253 -0.2763855758 0.0921285253
0.0000000000 -0.1842570505 -0.0000000000
0.0921285253 -0.0921285253 -0.0921285253
0.1842570505 0.0000000000 -0.1842570505
0.2763855758 0.0921285253 -0.2763855758
0.3685141010 0.1842570505 -0.3685141010
0.4606426263 0.2763855758 -0.4606426263
-0.1842570505 -0.5527711515 0.3685141010
-0.0921285253 -0.4606426263 0.2763855758
0.0000000000 -0.3685141010 0.1842570505
0.0921285253 -0.2763855758 0.0921285253
0.1842570505 -0.1842570505 -0.0000000000
0.2763855758 -0.0921285253 -0.0921285253
0.3685141010 0.0000000000 -0.1842570505
0.4606426263 0.0921285253 -0.2763855758
0.5527711515 0.1842570505 -0.3685141010
-0.0921285253 -0.6448996768 0.4606426263
0.0000000000 -0.5527711515 0.3685141010
0.0921285253 -0.4606426263 0.2763855758
0.1842570505 -0.3685141010 0.1842570505
0.2763855758 -0.2763855758 0.0921285253
0.3685141010 -0.1842570505 -0.0000000000
0.4606426263 -0.0921285253 -0.0921285253
0.5527711515 0.0000000000 -0.1842570505
0.6448996768 0.0921285253 -0.2763855758
0.0000000000 -0.7370282020 0.5527711515
0.0921285253 -0.6448996768 0.4606426263
0.1842570505 -0.5527711515 0.3685141010
0.2763855758 -0.4606426263 0.2763855758
0.3685141010 -0.3685141010 0.1842570505
0.4606426263 -0.2763855758 0.0921285253
0.5527711515 -0.1842570505 -0.0000000000
0.6448996768 -0.0921285253 -0.0921285253
0.7370282020 0.0000000000 -0.1842570505
0.0921285253 -0.8291567273 0.6448996768
0.1842570505 -0.7370282020 0.5527711515
0.2763855758 -0.6448996768 0.4606426263
0.3685141010 -0.5527711515 0.3685141010
0.4606426263 -0.4606426263 0.2763855758
0.5527711515 -0.3685141010 0.1842570505
0.6448996768 -0.2763855758 0.0921285253
0.7370282020 -0.1842570505 -0.0000000000
0.8291567273 -0.0921285253 -0.0921285253
-0.7370282020 0.0000000000 0.0000000000
-0.6448996768 0.0921285253 -0.0921285253
-0.5527711515 0.1842570505 -0.1842570505
-0.4606426263 0.2763855758 -0.2763855758
-0.3685141010 0.3685141010 -0.3685141010
-0.2763855758 0.4606426263 -0.4606426263
-0.1842570505 0.5527711515 -0.5527711515
-0.0921285253 0.6448996768 -0.6448996768
-0.0000000000 0.7370282020 -0.7370282020
-0.6448996768 -0.0921285253 0.0921285253
-0.5527711515 0.0000000000 0.0000000000
-0.4606426263 0.0921285253 -0.0921285253
-0.3685141010 0.1842570505 -0.1842570505
-0.2763855758 0.2763855758 -0.2763855758
-0.1842570505 0.3685141010 -0.3685141010
-0.0921285253 0.4606426263 -0.4606426263
-0.0000000000 0.5527711515 -0.5527711515
0.0921285253 0.6448996768 -0.6448996768
-0.5527711515 -0.1842570505 0.1842570505
-0.4606426263 -0.0921285253 0.0921285253
-0.3685141010 0.0000000000 0.0000000000
-0.2763855758 0.0921285253 -0.0921285253
-0.1842570505 0.1842570505 -0.1842570505
-0.0921285253 0.2763855758 -0.2763855758
-0.0000000000 0.3685141010 -0.3685141010
0.0921285253 0.4606426263 -0.4606426263
0.1842570505 0.5527711515 -0.5527711515
-0.4606426263 -0.2763855758 0.2763855758
-0.3685141010 -0.1842570505 0.1842570505
-0.2763855758 -0.0921285253 0.0921285253
-0.1842570505 0.0000000000 0.0000000000
-0.0921285253 0.0921285253 -0.0921285253
-0.0000000000 0.1842570505 -0.1842570505
0.0921285253 0.2763855758 -0.2763855758
0.1842570505 0.3685141010 -0.3685141010
0.2763855758 0.4606426263 -0.4606426263
-0.3685141010 -0.3685141010 0.3685141010
-0.2763855758 -0.2763855758 0.2763855758
-0.1842570505 -0.1842570505 0.1842570505
-0.0921285253 -0.0921285253 0.0921285253
0.0000000000 0.0000000000 0.0000000000
0.0921285253 0.0921285253 -0.0921285253
0.1842570505 0.1842570505 -0.1842570505
0.2763855758 0.2763855758 -0.2763855758
0.3685141010 0.3685141010 -0.3685141010
-0.2763855758 -0.4606426263 0.4606426263
-0.1842570505 -0.3685141010 0.3685141010
-0.0921285253 -0.2763855758 0.2763855758
0.0000000000 -0.1842570505 0.1842570505
0.0921285253 -0.0921285253 0.0921285253
0.1842570505 -0.0000000000 0.0000000000
0.2763855758 0.0921285253 -0.0921285253
0.3685141010 0.1842570505 -0.1842570505
0.4606426263 0.2763855758 -0.2763855758
-0.1842570505 -0.5527711515 0.5527711515
-0.0921285253 -0.4606426263 0.4606426263
0.0000000000 -0.3685141010 0.3685141010
0.0921285253 -0.2763855758 0.2763855758
0.1842570505 -0.1842570505 0.1842570505
0.2763855758 -0.0921285253 0.0921285253
0.3685141010 -0.0000000000 0.0000000000
0.4606426263 0.0921285253 -0.0921285253
0.5527711515 0.1842570505 -0.1842570505
-0.0921285253 -0.6448996768 0.6448996768
0.0000000000 -0.5527711515 0.5527711515
0.0921285253 -0.4606426263 0.4606426263
0.1842570505 -0.3685141010 0.3685141010
0.2763855758 -0.2763855758 0.2763855758
0.3685141010 -0.1842570505 0.1842570505
0.4606426263 -0.0921285253 0.0921285253
0.5527711515 -0.0000000000 0.0000000000
0.6448996768 0.0921285253 -0.0921285253
0.0000000000 -0.7370282020 0.7370282020
0.0921285253 -0.6448996768 0.6448996768
0.1842570505 -0.5527711515 0.5527711515
0.2763855758 -0.4606426263 0.4606426263
0.3685141010 -0.3685141010 0.3685141010
0.4606426263 -0.2763855758 0.2763855758
0.5527711515 -0.1842570505 0.1842570505
0.6448996768 -0.0921285253 0.0921285253
0.7370282020 -0.0000000000 0.0000000000
-0.8291567273 0.0921285253 0.0921285253
-0.7370282020 0.1842570505 0.0000000000
-0.6448996768 0.2763855758 -0.0921285253
-0.5527711515 0.3685141010 -0.1842570505
-0.4606426263 0.4606426263 -0.2763855758
-0.3685141010 0.5527711515 -0.3685141010
-0.2763855758 0.6448996768 -0.4606426263
-0.1842570505 0.7370282020 -0.5527711515
-0.0921285253 0.8291567273 -0.6448996768
-0.7370282020 0.0000000000 0.1842570505
-0.6448996768 0.0921285253 0.0921285253
-0.5527711515 0.1842570505 0.0000000000
-0.4606426263 0.2763855758 -0.0921285253
-0.3685141010 0.3685141010 -0.1842570505
-0.2763855758 0.4606426263 -0.2763855758
-0.1842570505 0.5527711515 -0.3685141010
-0.0921285253 0.6448996768 -0.4606426263
-0.0000000000 0.7370282020 -0.5527711515
-0.6448996768 -0.0921285253 0.2763855758
-0.5527711515 0.0000000000 0.1842570505
-0.4606426263 0.0921285253 0.0921285253
-0.3685141010 0.1842570505 0.0000000000
-0.2763855758 0.2763855758 -0.0921285253
-0.1842570505 0.3685141010 -0.1842570505
-0.0921285253 0.4606426263 -0.2763855758
-0.0000000000 0.5527711515 -0.3685141010
0.0921285253 0.6448996768 -0.4606426263
-0.5527711515 -0.1842570505 0.3685141010
-0.4606426263 -0.0921285253 0.2763855758
-0.3685141010 -0.0000000000 0.1842570505
-0.2763855758 0.0921285253 0.0921285253
-0.1842570505 0.1842570505 0.0000000000
-0.0921285253 0.2763855758 -0.0921285253
-0.0000000000 0.3685141010 -0.1842570505
0.0921285253 0.4606426263 -0.2763855758
0.1842570505 0.5527711515 -0.3685141010
-0.4606426263 -0.2763855758 0.4606426263
-0.3685141010 -0.1842570505 0.3685141010
-0.2763855758 -0.0921285253 0.2763855758
-0.1842570505 -0.0000000000 0.1842570505
-0.0921285253 0.0921285253 0.0921285253
0.0000000000 0.1842570505 0.0000000000
0.0921285253 0.2763855758 -0.0921285253
0.1842570505 0.3685141010 -0.1842570505
0.2763855758 0.4606426263 -0.2763855758
-0.3685141010 -0.3685141010 0.5527711515
-0.2763855758 -0.2763855758 0.4606426263
-0.1842570505 -0.1842570505 0.3685141010
-0.0921285253 -0.0921285253 0.2763855758
0.0000000000 -0.0000000000 0.1842570505
0.0921285253 0.0921285253 0.0921285253
0.1842570505 0.1842570505 0.0000000000
0.2763855758 0.2763855758 -0.0921285253
0.3685141010 0.3685141010 -0.1842570505
-0.2763855758 -0.4606426263 0.6448996768
-0.1842570505 -0.3685141010 0.5527711515
-0.0921285253 -0.2763855758 0.4606426263
0.0000000000 -0.1842570505 0.3685141010
0.0921285253 -0.0921285253 0.2763855758
0.1842570505 -0.0000000000 0.1842570505
0.2763855758 0.0921285253 0.0921285253
0.3685141010 0.1842570505 0.0000000000
0.4606426263 0.2763855758 -0.0921285253
-0.1842570505 -0.5527711515 0.7370282020
-0.0921285253 -0.4606426263 0.6448996768
0.0000000000 -0.3685141010 0.5527711515
0.0921285253 -0.2763855758 0.4606426263
0.1842570505 -0.1842570505 0.3685141010
0.2763855758 -0.0921285253 0.2763855758
0.3685141010 -0.0000000000 0.1842570505
0.4606426263 0.0921285253 0.0921285253
0.5527711515 0.1842570505 0.0000000000
-0.0921285253 -0.6448996768 0.8291567273
0.0000000000 -0.5527711515 0.7370282020
0.0921285253 -0.4606426263 0.6448996768
0.1842570505 -0.3685141010 0.5527711515
0.2763855758 -0.2763855758 0.4606426263
0.3685141010 -0.1842570505 0.3685141010
0.4606426263 -0.0921285253 0.2763855758
0.5527711515 -0.0000000000 0.1842570505
0.6448996768 0.0921285253 0.0921285253
-0.9212852525 0.1842570505 0.1842570505
-0.8291567273 0.2763855758 0.0921285253
-0.7370282020 0.3685141010 0.0000000000
-0.6448996768 0.4606426263 -0.0921285253
-0.5527711515 0.5527711515 -0.1842570505
-0.4606426263 0.6448996768 -0.2763855758
-0.3685141010 0.7370282020 -0.3685141010
-0.2763855758 0.8291567273 -0.4606426263
-0.1842570505 0.9212852525 -0.5527711515
-0.8291567273 0.0921285253 0.2763855758
-0.7370282020 0.1842570505 0.1842570505
-0.6448996768 0.2763855758 0.0921285253
-0.5527711515 0.3685141010 0.0000000000
-0.4606426263 0.4606426263 -0.0921285253
-0.3685141010 0.5527711515 -0.1842570505
-0.2763855758 0.6448996768 -0.2763855758
-0.1842570505 0.7370282020 -0.3685141010
-0.0921285253 0.8291567273 -0.4606426263
-0.7370282020 -0.0000000000 0.3685141010
-0.6448996768 0.0921285253 0.2763855758
-0.5527711515 0.1842570505 0.1842570505
-0.4606426263 0.2763855758 0.0921285253
-0.3685141010 0.3685141010 0.0000000000
-0.2763855758 0.4606426263 -0.0921285253
-0.1842570505 0.5527711515 -0.1842570505
-0.0921285253 0.6448996768 -0.2763855758
-0.0000000000 0.7370282020 -0.3685141010
-0.6448996768 -0.0921285253 0.4606426263
-0.5527711515 0.0000000000 0.3685141010
-0.4606426263 0.0921285253 0.2763855758
-0.3685141010 0.1842570505 0.1842570505
-0.2763855758 0.2763855758 0.0921285253
-0.1842570505 0.3685141010 0.0000000000
-0.0921285253 0.4606426263 -0.0921285253
-0.0000000000 0.5527711515 -0.1842570505
0.0921285253 0.6448996768 -0.2763855758
-0.5527711515 -0.1842570505 0.5527711515
-0.4606426263 -0.0921285253 0.4606426263
-0.3685141010 -0.0000000000 0.3685141010
-0.2763855758 0.0921285253 0.2763855758
-0.1842570505 0.1842570505 0.1842570505
-0.0921285253 0.2763855758 0.0921285253
0.0000000000 0.3685141010 0.0000000000
0.0921285253 0.4606426263 -0.0921285253
0.1842570505 0.5527711515 -0.1842570505
-0.4606426263 -0.2763855758 0.6448996768
-0.3685141010 -0.1842570505 0.5527711515
-0.2763855758 -0.0921285253 0.4606426263
-0.1842570505 -0.0000000000 0.3685141010
-0.0921285253 0.0921285253 0.2763855758
0.0000000000 0.1842570505 0.1842570505
0.0921285253 0.2763855758 0.0921285253
0.1842570505 0.3685141010 0.0000000000
0.2763855758 0.4606426263 -0.0921285253
-0.3685141010 -0.3685141010 0.7370282020
-0.2763855758 -0.2763855758 0.6448996768
-0.1842570505 -0.1842570505 0.5527711515
-0.0921285253 -0.0921285253 0.4606426263
0.0000000000 -0.0000000000 0.3685141010
0.0921285253 0.0921285253 0.2763855758
0.1842570505 0.1842570505 0.1842570505
0.2763855758 0.2763855758 0.0921285253
0.3685141010 0.3685141010 0.0000000000
-0.2763855758 -0.4606426263 0.8291567273
-0.1842570505 -0.3685141010 0.7370282020
-0.0921285253 -0.2763855758 0.6448996768
0.0000000000 -0.1842570505 0.5527711515
0.0921285253 -0.0921285253 0.4606426263
0.1842570505 -0.0000000000 0.3685141010
0.2763855758 0.0921285253 0.2763855758
0.3685141010 0.1842570505 0.1842570505
0.4606426263 0.2763855758 0.0921285253
-0.1842570505 -0.5527711515 0.9212852525
-0.0921285253 -0.4606426263 0.8291567273
0.0000000000 -0.3685141010 0.7370282020
0.0921285253 -0.2763855758 0.6448996768
0.1842570505 -0.1842570505 0.5527711515
0.2763855758 -0.0921285253 0.4606426263
0.3685141010 -0.0000000000 0.3685141010
0.4606426263 0.0921285253 0.2763855758
0.5527711515 0.1842570505 0.1842570505
-1.0134137778 0.2763855758 0.2763855758
-0.9212852525 0.3685141010 0.1842570505
-0.8291567273 0.4606426263 0.0921285253
-0.7370282020 0.5527711515 0.0000000000
-0.6448996768 0.6448996768 -0.0921285253
-0.5527711515 0.7370282020 -0.1842570505
-0.4606426263 0.8291567273 -0.2763855758
-0.3685141010 0.9212852525 -0.3685141010
-0.2763855758 1.0134137778 -0.4606426263
-0.9212852525 0.1842570505 0.3685141010
-0.8291567273 0.2763855758 0.2763855758
-0.7370282020 0.3685141010 0.1842570505
-0.6448996768 0.4606426263 0.0921285253
-0.5527711515 0.5527711515 0.0000000000
-0.4606426263 0.6448996768 -0.0921285253
-0.3685141010 0.7370282020 -0.1842570505
-0.2763855758 0.8291567273 -0.2763855758
-0.1842570505 0.9212852525 -0.3685141010
-0.8291567273 0.0921285253 0.4606426263
-0.7370282020 0.1842570505 0.3685141010
-0.6448996768 0.2763855758 0.2763855758
-0.5527711515 0.3685141010 0.1842570505
-0.4606426263 0.4606426263 0.0921285253
-0.3685141010 0.5527711515 0.0000000000
-0.2763855758 0.6448996768 -0.0921285253
-0.1842570505 0.7370282020 -0.1842570505
-0.0921285253 0.8291567273 -0.2763855758
-0.7370282020 -0.0000000000 0.5527711515
-0.6448996768 0.0921285253 0.4606426263
-0.5527711515 0.1842570505 0.3685141010
-0.4606426263 0.2763855758 0.2763855758
-0.3685141010 0.3685141010 0.1842570505
-0.2763855758 0.4606426263 0.0921285253
-0.1842570505 0.5527711515 0.0000000000
-0.0921285253 0.6448996768 -0.0921285253
0.0000000000 0.7370282020 -0.1842570505
-0.6448996768 -0.0921285253 0.6448996768
-0.5527711515 -0.0000000000 0.5527711515
-0.4606426263 0.0921285253 0.4606426263
-0.3685141010 0.1842570505 0.3685141010
-0.2763855758 0.2763855758 0.2763855758
-0.1842570505 0.3685141010 0.1842570505
-0.0921285253 0.4606426263 0.0921285253
0.0000000000 0.5527711515 0.0000000000
0.0921285253 0.6448996768 -0.0921285253
-0.5527711515 -0.1842570505 0.7370282020
-0.4606426263 -0.0921285253 0.6448996768
-0.3685141010 -0.0000000000 0.5527711515
-0.2763855758 0.0921285253 0.4606426263
-0.1842570505 0.1842570505 0.3685141010
-0.0921285253 0.2763855758 0.2763855758
0.0000000000 0.3685141010 0.1842570505
0.0921285253 0.4606426263 0.0921285253
0.1842570505 0.5527711515 0.0000000000
-0.4606426263 -0.2763855758 0.8291567273
-0.3685141010 -0.1842570505 0.7370282020
-0.2763855758 -0.0921285253 0.6448996768
-0.1842570505 -0.0000000000 0.5527711515
-0.0921285253 0.0921285253 0.4606426263
0.0000000000 0.1842570505 0.3685141010
0.0921285253 0.2763855758 0.2763855758
0.1842570505 0.3685141010 0.1842570505
0.2763855758 0.4606426263 0.0921285253
-0.3685141010 -0.3685141010 0.9212852525
-0.2763855758 -0.2763855758 0.8291567273
-0.1842570505 -0.1842570505 0.7370282020
-0.0921285253 -0.0921285253 0.6448996768
0.0000000000 -0.0000000000 0.5527711515
0.0921285253 0.0921285253 0.4606426263
0.1842570505 0.1842570505 0.3685141010
0.2763855758 0.2763855758 0.2763855758
0.3685141010 0.3685141010 0.1842570505
-0.2763855758 -0.4606426263 1.0134137778
-0.1842570505 -0.3685141010 0.9212852525
-0.0921285253 -0.2763855758 0.8291567273
0.0000000000 -0.1842570505 0.7370282020
0.0921285253 -0.0921285253 0.6448996768
0.1842570505 -0.0000000000 0.5527711515
0.2763855758 0.0921285253 0.4606426263
0.3685141010 0.1842570505 0.3685141010
0.4606426263 0.2763855758 0.2763855758
-1.1055423031 0.3685141010 0.3685141010
-1.0134137778 0.4606426263 0.2763855758
-0.9212852525 0.5527711515 0.1842570505
-0.8291567273 0.6448996768 0.0921285253
-0.7370282020 0.7370282020 0.0000000000
-0.6448996768 0.8291567273 -0.0921285253
-0.5527711515 0.9212852525 -0.1842570505
-0.4606426263 1.0134137778 -0.2763855758
-0.3685141010 1.1055423031 -0.3685141010
-1.0134137778 0.2763855758 0.4606426263
-0.9212852525 0.3685141010 0.3685141010
-0.8291567273 0.4606426263 0.2763855758
-0.7370282020 0.5527711515 0.1842570505
-0.6448996768 0.6448996768 0.0921285253
-0.5527711515 0.7370282020 0.0000000000
-0.4606426263 0.8291567273 -0.0921285253
-0.3685141010 0.9212852525 -0.1842570505
-0.2763855758 1.0134137778 -0.2763855758
-0.9212852525 0.1842570505 0.5527711515
-0.8291567273 0.2763855758 0.4606426263
-0.7370282020 0.3685141010 0.3685141010
-0.6448996768 0.4606426263 0.2763855758
-0.5527711515 0.5527711515 0.1842570505
-0.4606426263 0.6448996768 0.0921285253
-0.3685141010 0.7370282020 0.0000000000
-0.2763855758 0.8291567273 -0.0921285253
-0.1842570505 0.9212852525 -0.1842570505
-0.8291567273 0.0921285253 0.6448996768
-0.7370282020 0.1842570505 0.5527711515
-0.6448996768 0.2763855758 0.4606426263
-0.5527711515 0.3685141010 0.3685141010
-0.4606426263 0.4606426263 0.2763855758
-0.3685141010 0.5527711515 0.1842570505
-0.2763855758 0.6448996768 0.0921285253
-0.1842570505 0.7370282020 0.0000000000
-0.0921285253 0.8291567273 -0.0921285253
-0.7370282020 -0.0000000000 0.7370282020
-0.6448996768 0.0921285253 0.6448996768
-0.5527711515 0.1842570505 0.5527711515
-0.4606426263 0.2763855758 0.4606426263
-0.3685141010 0.3685141010 0.3685141010
-0.2763855758 0.4606426263 0.2763855758
-0.1842570505 0.5527711515 0.1842570505
-0.0921285253 0.6448996768 0.0921285253
0.0000000000 0.7370282020 0.0000000000
-0.6448996768 -0.0921285253 0.8291567273
-0.5527711515 -0.0000000000 0.7370282020
-0.4606426263 0.0921285253 0.6448996768
-0.3685141010 0.1842570505 0.5527711515
-0.2763855758 0.2763855758 0.4606426263
-0.1842570505 0.3685141010 0.3685141010
-0.0921285253 0.4606426263 0.2763855758
0.0000000000 0.5527711515 0.1842570505
0.0921285253 0.6448996768 0.0921285253
-0.5527711515 -0.1842570505 0.9212852525
-0.4606426263 -0.0921285253 0.8291567273
-0.3685141010 -0.0000000000 0.7370282020
-0.2763855758 0.0921285253 0.6448996768
-0.1842570505 0.1842570505 0.5527711515
-0.0921285253 0.2763855758 0.4606426263
0.0000000000 0.3685141010 0.3685141010
0.0921285253 0.4606426263 0.2763855758
0.1842570505 0.5527711515 0.1842570505
-0.4606426263 -0.2763855758 1.0134137778
-0.3685141010 -0.1842570505 0.9212852525
-0.2763855758 -0.0921285253 0.8291567273
-0.1842570505 -0.0000000000 0.7370282020
-0.0921285253 0.0921285253 0.6448996768
0.0000000000 0.1842570505 0.5527711515
0.0921285253 0.2763855758 0.4606426263
0.1842570505 0.3685141010 0.3685141010
0.2763855758 0.4606426263 0.2763855758
-0.3685141010 -0.3685141010 1.1055423031
-0.2763855758 -0.2763855758 1.0134137778
-0.1842570505 -0.1842570505 0.9212852525
-0.0921285253 -0.0921285253 0.8291567273
0.0000000000 -0.0000000000 0.7370282020
0.0921285253 0.0921285253 0.6448996768
0.1842570505 0.1842570505 0.5527711515
0.2763855758 0.2763855758 0.4606426263
0.3685141010 0.3685141010 0.3685141010
 There are 6 alpha and 6 beta electrons
 Start computing overlap matrix
 Allocate 98724096 B from available memory: 104857463136 B
 Time for computing overlap matrix: 29.6340000000 s
 ====== Initialize compute kernels for all-electron RI-J (kpts) ====== 
 ========================================================== 
 Range-separated parameter omega        = 0.900000000000000022
 Threshold for 1e2c shellpair           = 0.000000000000010000
 Threshold for 2e2c SR integral         = 0.000000000000000001
 Threshold for 2e3c SR integral         = 0.000000000100000000
 Threshold for AFT G-space screening is = 0.000000000001000000
 The exponent cutoff for C/D classification (omega2 / 2) is  = 0.405000000000000027
 ========================================================== 
 === Post process the basis set for RI calculation (exp_cutoff = 0.405000000000000027 ) === 
nshells_b1 before uncontraction = 30
nshells_b1 after uncontraction = 31
nshells_baux before uncontraction = 28
nshells_baux after uncontraction = 28
===============================================
nbsf total   = 95
nbsf compact = 62
nbsf diffuse = 33
naux total   = 96
naux compact = 96
naux diffuse = 0
nshells_bnuc = 2

 Number of unique atoms is 2
 Unique atom #0 (li) has 5 shells.
 Unique atom #1 (f) has 15 shells.

Shell 0 to 4 belongs to atom li
Shell 5 to 19 belongs to atom f

 Number of unique atoms is 2
 Unique atom #0 (li) has 9 shells.
 Unique atom #1 (f) has 2 shells.

Shell 0 to 8 belongs to atom li
Shell 9 to 10 belongs to atom f

 Number of unique atom is 2
 Unique atom #0 (li) has 13 auxiliary shells.
 Unique atom #1 (f) has 15 auxiliary shells.

Auxiliary Shell 0 to 12 belongs to atom li
Auxiliary Shell 13 to 27 belongs to atom f

================= Automatically determine grid size for reciprocal space summation =================
 Range-separated parameter = 0.90000000000000 and G-space screening threshold = 0.00000000000100
The number of grid points along each axis dimension is (7, 7, 7)
Total number of grid points = 3375

Use nonortho shellpair for diffuse density
======== Initializing relevant kernel for RIJ (DD type) ========
There are 66 shellpairs in the reference unit cell
There are 25941 images and we expect to have 1712106 in total
There are 76578 shellpairs in the lattice sum after screening
======== Initializing relevant kernel for RIJ (CD type) ========
There are 220 shellpairs in the reference unit cell
There are 14723 images and we expect to have 3239060 in total
There are 127133 shellpairs in the lattice sum after screening
****** AFT -> SR ******
Maximum bra distance cutoff is 39.000000000000
Maximum bra ket distance cutoff is 19.798524149198
Maximum bra ket screening distance is 18.500000000000
Number of auxiliary image is 3829
There are 220 shellpairs in the reference unit cell
There are 3829 images and we expect to have 842380 in total
There are 127133 shellpairs in the lattice sum after screening
Available memory per thread for 2e3c calculation is 3.273710595000Gb
Finish initializing 2e3c SR with the lattice sum!
=================================================
======== Initializing relevant kernel for RIJ (CC type) ========
There are 207 shellpairs in the reference unit cell
There are 911 images and we expect to have 188577 in total
There are 3549 shellpairs in the lattice sum after screening
****** AFT -> SR ******
Maximum bra distance cutoff is 12.000000000000
Maximum bra ket distance cutoff is 19.972536543678
Maximum bra ket screening distance is 17.437500000000
Number of auxiliary image is 815
There are 207 shellpairs in the reference unit cell
There are 285 images and we expect to have 58995 in total
There are 3549 shellpairs in the lattice sum after screening
Available memory per thread for 2e3c calculation is 3.273710595000Gb
Finish initializing 2e3c SR with the lattice sum!
=================================================
======== Initializing the SR component for Vnuc (CD type) ========
Maximum bra distance cutoff is 39.000000000000
Maximum bra ket distance cutoff is 11.063391972349
Maximum bra ket screening distance is 9.533997011915
Number of auxiliary image is 3829
There are 220 shellpairs in the reference unit cell
There are 3829 images and we expect to have 842380 in total
There are 127133 shellpairs in the lattice sum after screening
Available memory per thread for 2e3c calculation is 3.273710595000Gb
Finish initializing 2e3c SR with the lattice sum!
=================================================
======== Initialize the SR component for Vnuc (CC type) ========
Maximum bra distance cutoff is 12.000000000000
Maximum bra ket distance cutoff is 12.009370768794
Maximum bra ket screening distance is 7.998388684828
Number of auxiliary image is 285
There are 207 shellpairs in the reference unit cell
There are 285 images and we expect to have 58995 in total
There are 3549 shellpairs in the lattice sum after screening
Available memory per thread for 2e3c calculation is 3.273710595000Gb
Finish initializing 2e3c SR with the lattice sum!
=================================================
 Aufbau occupation scheme, occupation determined by eigenvalue
 == 0-th k-point nmo = 83 (-0.36851,-0.36851,-0.36851) ==
 == 1-th k-point nmo = 83 (-0.27639,-0.27639,-0.46064) ==
 == 2-th k-point nmo = 82 (-0.18426,-0.18426,-0.55277) ==
 == 3-th k-point nmo = 81 (-0.09213,-0.09213,-0.64490) ==
 == 4-th k-point nmo = 81 (-0.00000,0.00000,-0.73703) ==
 == 5-th k-point nmo = 81 (0.09213,0.09213,-0.82916) ==
 == 6-th k-point nmo = 83 (0.18426,0.18426,-0.92129) ==
 == 7-th k-point nmo = 83 (0.27639,0.27639,-1.01341) ==
 == 8-th k-point nmo = 83 (0.36851,0.36851,-1.10554) ==
 == 9-th k-point nmo = 83 (-0.27639,-0.46064,-0.27639) ==
 == 10-th k-point nmo = 83 (-0.18426,-0.36851,-0.36851) ==
 == 11-th k-point nmo = 82 (-0.09213,-0.27639,-0.46064) ==
 == 12-th k-point nmo = 81 (-0.00000,-0.18426,-0.55277) ==
 == 13-th k-point nmo = 81 (0.09213,-0.09213,-0.64490) ==
 == 14-th k-point nmo = 81 (0.18426,0.00000,-0.73703) ==
 == 15-th k-point nmo = 82 (0.27639,0.09213,-0.82916) ==
 == 16-th k-point nmo = 82 (0.36851,0.18426,-0.92129) ==
 == 17-th k-point nmo = 82 (0.46064,0.27639,-1.01341) ==
 == 18-th k-point nmo = 82 (-0.18426,-0.55277,-0.18426) ==
 == 19-th k-point nmo = 82 (-0.09213,-0.46064,-0.27639) ==
 == 20-th k-point nmo = 83 (-0.00000,-0.36851,-0.36851) ==
 == 21-th k-point nmo = 82 (0.09213,-0.27639,-0.46064) ==
 == 22-th k-point nmo = 82 (0.18426,-0.18426,-0.55277) ==
 == 23-th k-point nmo = 82 (0.27639,-0.09213,-0.64490) ==
 == 24-th k-point nmo = 82 (0.36851,0.00000,-0.73703) ==
 == 25-th k-point nmo = 82 (0.46064,0.09213,-0.82916) ==
 == 26-th k-point nmo = 82 (0.55277,0.18426,-0.92129) ==
 == 27-th k-point nmo = 81 (-0.09213,-0.64490,-0.09213) ==
 == 28-th k-point nmo = 81 (-0.00000,-0.55277,-0.18426) ==
 == 29-th k-point nmo = 82 (0.09213,-0.46064,-0.27639) ==
 == 30-th k-point nmo = 83 (0.18426,-0.36851,-0.36851) ==
 == 31-th k-point nmo = 83 (0.27639,-0.27639,-0.46064) ==
 == 32-th k-point nmo = 82 (0.36851,-0.18426,-0.55277) ==
 == 33-th k-point nmo = 82 (0.46064,-0.09213,-0.64490) ==
 == 34-th k-point nmo = 82 (0.55277,0.00000,-0.73703) ==
 == 35-th k-point nmo = 81 (0.64490,0.09213,-0.82916) ==
 == 36-th k-point nmo = 81 (0.00000,-0.73703,-0.00000) ==
 == 37-th k-point nmo = 81 (0.09213,-0.64490,-0.09213) ==
 == 38-th k-point nmo = 82 (0.18426,-0.55277,-0.18426) ==
 == 39-th k-point nmo = 83 (0.27639,-0.46064,-0.27639) ==
 == 40-th k-point nmo = 83 (0.36851,-0.36851,-0.36851) ==
 == 41-th k-point nmo = 83 (0.46064,-0.27639,-0.46064) ==
 == 42-th k-point nmo = 83 (0.55277,-0.18426,-0.55277) ==
 == 43-th k-point nmo = 83 (0.64490,-0.09213,-0.64490) ==
 == 44-th k-point nmo = 81 (0.73703,0.00000,-0.73703) ==
 == 45-th k-point nmo = 81 (0.09213,-0.82916,0.09213) ==
 == 46-th k-point nmo = 81 (0.18426,-0.73703,-0.00000) ==
 == 47-th k-point nmo = 82 (0.27639,-0.64490,-0.09213) ==
 == 48-th k-point nmo = 82 (0.36851,-0.55277,-0.18426) ==
 == 49-th k-point nmo = 83 (0.46064,-0.46064,-0.27639) ==
 == 50-th k-point nmo = 83 (0.55277,-0.36851,-0.36851) ==
 == 51-th k-point nmo = 82 (0.64490,-0.27639,-0.46064) ==
 == 52-th k-point nmo = 82 (0.73703,-0.18426,-0.55277) ==
 == 53-th k-point nmo = 81 (0.82916,-0.09213,-0.64490) ==
 == 54-th k-point nmo = 83 (0.18426,-0.92129,0.18426) ==
 == 55-th k-point nmo = 82 (0.27639,-0.82916,0.09213) ==
 == 56-th k-point nmo = 82 (0.36851,-0.73703,-0.00000) ==
 == 57-th k-point nmo = 82 (0.46064,-0.64490,-0.09213) ==
 == 58-th k-point nmo = 83 (0.55277,-0.55277,-0.18426) ==
 == 59-th k-point nmo = 82 (0.64490,-0.46064,-0.27639) ==
 == 60-th k-point nmo = 83 (0.73703,-0.36851,-0.36851) ==
 == 61-th k-point nmo = 82 (0.82916,-0.27639,-0.46064) ==
 == 62-th k-point nmo = 82 (0.92129,-0.18426,-0.55277) ==
 == 63-th k-point nmo = 83 (0.27639,-1.01341,0.27639) ==
 == 64-th k-point nmo = 82 (0.36851,-0.92129,0.18426) ==
 == 65-th k-point nmo = 82 (0.46064,-0.82916,0.09213) ==
 == 66-th k-point nmo = 82 (0.55277,-0.73703,-0.00000) ==
 == 67-th k-point nmo = 83 (0.64490,-0.64490,-0.09213) ==
 == 68-th k-point nmo = 82 (0.73703,-0.55277,-0.18426) ==
 == 69-th k-point nmo = 82 (0.82916,-0.46064,-0.27639) ==
 == 70-th k-point nmo = 83 (0.92129,-0.36851,-0.36851) ==
 == 71-th k-point nmo = 82 (1.01341,-0.27639,-0.46064) ==
 == 72-th k-point nmo = 83 (0.36851,-1.10554,0.36851) ==
 == 73-th k-point nmo = 82 (0.46064,-1.01341,0.27639) ==
 == 74-th k-point nmo = 82 (0.55277,-0.92129,0.18426) ==
 == 75-th k-point nmo = 81 (0.64490,-0.82916,0.09213) ==
 == 76-th k-point nmo = 81 (0.73703,-0.73703,-0.00000) ==
 == 77-th k-point nmo = 81 (0.82916,-0.64490,-0.09213) ==
 == 78-th k-point nmo = 82 (0.92129,-0.55277,-0.18426) ==
 == 79-th k-point nmo = 82 (1.01341,-0.46064,-0.27639) ==
 == 80-th k-point nmo = 83 (1.10554,-0.36851,-0.36851) ==
 == 81-th k-point nmo = 83 (-0.46064,-0.27639,-0.27639) ==
 == 82-th k-point nmo = 83 (-0.36851,-0.18426,-0.36851) ==
 == 83-th k-point nmo = 82 (-0.27639,-0.09213,-0.46064) ==
 == 84-th k-point nmo = 81 (-0.18426,0.00000,-0.55277) ==
 == 85-th k-point nmo = 81 (-0.09213,0.09213,-0.64490) ==
 == 86-th k-point nmo = 81 (-0.00000,0.18426,-0.73703) ==
 == 87-th k-point nmo = 82 (0.09213,0.27639,-0.82916) ==
 == 88-th k-point nmo = 82 (0.18426,0.36851,-0.92129) ==
 == 89-th k-point nmo = 82 (0.27639,0.46064,-1.01341) ==
 == 90-th k-point nmo = 83 (-0.36851,-0.36851,-0.18426) ==
 == 91-th k-point nmo = 83 (-0.27639,-0.27639,-0.27639) ==
 == 92-th k-point nmo = 82 (-0.18426,-0.18426,-0.36851) ==
 == 93-th k-point nmo = 82 (-0.09213,-0.09213,-0.46064) ==
 == 94-th k-point nmo = 81 (-0.00000,0.00000,-0.55277) ==
 == 95-th k-point nmo = 81 (0.09213,0.09213,-0.64490) ==
 == 96-th k-point nmo = 83 (0.18426,0.18426,-0.73703) ==
 == 97-th k-point nmo = 83 (0.27639,0.27639,-0.82916) ==
 == 98-th k-point nmo = 83 (0.36851,0.36851,-0.92129) ==
 == 99-th k-point nmo = 82 (-0.27639,-0.46064,-0.09213) ==
 == 100-th k-point nmo = 82 (-0.18426,-0.36851,-0.18426) ==
 == 101-th k-point nmo = 81 (-0.09213,-0.27639,-0.27639) ==
 == 102-th k-point nmo = 82 (-0.00000,-0.18426,-0.36851) ==
 == 103-th k-point nmo = 82 (0.09213,-0.09213,-0.46064) ==
 == 104-th k-point nmo = 81 (0.18426,0.00000,-0.55277) ==
 == 105-th k-point nmo = 82 (0.27639,0.09213,-0.64490) ==
 == 106-th k-point nmo = 82 (0.36851,0.18426,-0.73703) ==
 == 107-th k-point nmo = 82 (0.46064,0.27639,-0.82916) ==
 == 108-th k-point nmo = 81 (-0.18426,-0.55277,-0.00000) ==
 == 109-th k-point nmo = 82 (-0.09213,-0.46064,-0.09213) ==
 == 110-th k-point nmo = 82 (-0.00000,-0.36851,-0.18426) ==
 == 111-th k-point nmo = 81 (0.09213,-0.27639,-0.27639) ==
 == 112-th k-point nmo = 82 (0.18426,-0.18426,-0.36851) ==
 == 113-th k-point nmo = 82 (0.27639,-0.09213,-0.46064) ==
 == 114-th k-point nmo = 82 (0.36851,0.00000,-0.55277) ==
 == 115-th k-point nmo = 82 (0.46064,0.09213,-0.64490) ==
 == 116-th k-point nmo = 82 (0.55277,0.18426,-0.73703) ==
 == 117-th k-point nmo = 81 (-0.09213,-0.64490,0.09213) ==
 == 118-th k-point nmo = 81 (-0.00000,-0.55277,-0.00000) ==
 == 119-th k-point nmo = 82 (0.09213,-0.46064,-0.09213) ==
 == 120-th k-point nmo = 82 (0.18426,-0.36851,-0.18426) ==
 == 121-th k-point nmo = 83 (0.27639,-0.27639,-0.27639) ==
 == 122-th k-point nmo = 83 (0.36851,-0.18426,-0.36851) ==
 == 123-th k-point nmo = 83 (0.46064,-0.09213,-0.46064) ==
 == 124-th k-point nmo = 83 (0.55277,0.00000,-0.55277) ==
 == 125-th k-point nmo = 83 (0.64490,0.09213,-0.64490) ==
 == 126-th k-point nmo = 81 (0.00000,-0.73703,0.18426) ==
 == 127-th k-point nmo = 81 (0.09213,-0.64490,0.09213) ==
 == 128-th k-point nmo = 81 (0.18426,-0.55277,-0.00000) ==
 == 129-th k-point nmo = 82 (0.27639,-0.46064,-0.09213) ==
 == 130-th k-point nmo = 83 (0.36851,-0.36851,-0.18426) ==
 == 131-th k-point nmo = 83 (0.46064,-0.27639,-0.27639) ==
 == 132-th k-point nmo = 82 (0.55277,-0.18426,-0.36851) ==
 == 133-th k-point nmo = 82 (0.64490,-0.09213,-0.46064) ==
 == 134-th k-point nmo = 82 (0.73703,0.00000,-0.55277) ==
 == 135-th k-point nmo = 82 (0.09213,-0.82916,0.27639) ==
 == 136-th k-point nmo = 83 (0.18426,-0.73703,0.18426) ==
 == 137-th k-point nmo = 82 (0.27639,-0.64490,0.09213) ==
 == 138-th k-point nmo = 82 (0.36851,-0.55277,-0.00000) ==
 == 139-th k-point nmo = 83 (0.46064,-0.46064,-0.09213) ==
 == 140-th k-point nmo = 82 (0.55277,-0.36851,-0.18426) ==
 == 141-th k-point nmo = 83 (0.64490,-0.27639,-0.27639) ==
 == 142-th k-point nmo = 82 (0.73703,-0.18426,-0.36851) ==
 == 143-th k-point nmo = 82 (0.82916,-0.09213,-0.46064) ==
 == 144-th k-point nmo = 82 (0.18426,-0.92129,0.36851) ==
 == 145-th k-point nmo = 83 (0.27639,-0.82916,0.27639) ==
 == 146-th k-point nmo = 82 (0.36851,-0.73703,0.18426) ==
 == 147-th k-point nmo = 82 (0.46064,-0.64490,0.09213) ==
 == 148-th k-point nmo = 83 (0.55277,-0.55277,-0.00000) ==
 == 149-th k-point nmo = 82 (0.64490,-0.46064,-0.09213) ==
 == 150-th k-point nmo = 82 (0.73703,-0.36851,-0.18426) ==
 == 151-th k-point nmo = 83 (0.82916,-0.27639,-0.27639) ==
 == 152-th k-point nmo = 82 (0.92129,-0.18426,-0.36851) ==
 == 153-th k-point nmo = 82 (0.27639,-1.01341,0.46064) ==
 == 154-th k-point nmo = 83 (0.36851,-0.92129,0.36851) ==
 == 155-th k-point nmo = 82 (0.46064,-0.82916,0.27639) ==
 == 156-th k-point nmo = 82 (0.55277,-0.73703,0.18426) ==
 == 157-th k-point nmo = 83 (0.64490,-0.64490,0.09213) ==
 == 158-th k-point nmo = 82 (0.73703,-0.55277,-0.00000) ==
 == 159-th k-point nmo = 82 (0.82916,-0.46064,-0.09213) ==
 == 160-th k-point nmo = 82 (0.92129,-0.36851,-0.18426) ==
 == 161-th k-point nmo = 83 (1.01341,-0.27639,-0.27639) ==
 == 162-th k-point nmo = 82 (-0.55277,-0.18426,-0.18426) ==
 == 163-th k-point nmo = 82 (-0.46064,-0.09213,-0.27639) ==
 == 164-th k-point nmo = 83 (-0.36851,0.00000,-0.36851) ==
 == 165-th k-point nmo = 82 (-0.27639,0.09213,-0.46064) ==
 == 166-th k-point nmo = 82 (-0.18426,0.18426,-0.55277) ==
 == 167-th k-point nmo = 82 (-0.09213,0.27639,-0.64490) ==
 == 168-th k-point nmo = 82 (-0.00000,0.36851,-0.73703) ==
 == 169-th k-point nmo = 82 (0.09213,0.46064,-0.82916) ==
 == 170-th k-point nmo = 82 (0.18426,0.55277,-0.92129) ==
 == 171-th k-point nmo = 82 (-0.46064,-0.27639,-0.09213) ==
 == 172-th k-point nmo = 82 (-0.36851,-0.18426,-0.18426) ==
 == 173-th k-point nmo = 81 (-0.27639,-0.09213,-0.27639) ==
 == 174-th k-point nmo = 82 (-0.18426,0.00000,-0.36851) ==
 == 175-th k-point nmo = 82 (-0.09213,0.09213,-0.46064) ==
 == 176-th k-point nmo = 81 (-0.00000,0.18426,-0.55277) ==
 == 177-th k-point nmo = 82 (0.09213,0.27639,-0.64490) ==
 == 178-th k-point nmo = 82 (0.18426,0.36851,-0.73703) ==
 == 179-th k-point nmo = 82 (0.27639,0.46064,-0.82916) ==
 == 180-th k-point nmo = 83 (-0.36851,-0.36851,-0.00000) ==
 == 181-th k-point nmo = 81 (-0.27639,-0.27639,-0.09213) ==
 == 182-th k-point nmo = 83 (-0.18426,-0.18426,-0.18426) ==
 == 183-th k-point nmo = 81 (-0.09213,-0.09213,-0.27639) ==
 == 184-th k-point nmo = 81 (-0.00000,0.00000,-0.36851) ==
 == 185-th k-point nmo = 82 (0.09213,0.09213,-0.46064) ==
 == 186-th k-point nmo = 82 (0.18426,0.18426,-0.55277) ==
 == 187-th k-point nmo = 83 (0.27639,0.27639,-0.64490) ==
 == 188-th k-point nmo = 83 (0.36851,0.36851,-0.73703) ==
 == 189-th k-point nmo = 82 (-0.27639,-0.46064,0.09213) ==
 == 190-th k-point nmo = 82 (-0.18426,-0.36851,-0.00000) ==
 == 191-th k-point nmo = 81 (-0.09213,-0.27639,-0.09213) ==
 == 192-th k-point nmo = 81 (-0.00000,-0.18426,-0.18426) ==
 == 193-th k-point nmo = 81 (0.09213,-0.09213,-0.27639) ==
 == 194-th k-point nmo = 82 (0.18426,0.00000,-0.36851) ==
 == 195-th k-point nmo = 82 (0.27639,0.09213,-0.46064) ==
 == 196-th k-point nmo = 82 (0.36851,0.18426,-0.55277) ==
 == 197-th k-point nmo = 82 (0.46064,0.27639,-0.64490) ==
 == 198-th k-point nmo = 82 (-0.18426,-0.55277,0.18426) ==
 == 199-th k-point nmo = 82 (-0.09213,-0.46064,0.09213) ==
 == 200-th k-point nmo = 81 (0.00000,-0.36851,-0.00000) ==
 == 201-th k-point nmo = 81 (0.09213,-0.27639,-0.09213) ==
 == 202-th k-point nmo = 83 (0.18426,-0.18426,-0.18426) ==
 == 203-th k-point nmo = 81 (0.27639,-0.09213,-0.27639) ==
 == 204-th k-point nmo = 83 (0.36851,0.00000,-0.36851) ==
 == 205-th k-point nmo = 83 (0.46064,0.09213,-0.46064) ==
 == 206-th k-point nmo = 83 (0.55277,0.18426,-0.55277) ==
 == 207-th k-point nmo = 82 (-0.09213,-0.64490,0.27639) ==
 == 208-th k-point nmo = 81 (0.00000,-0.55277,0.18426) ==
 == 209-th k-point nmo = 82 (0.09213,-0.46064,0.09213) ==
 == 210-th k-point nmo = 82 (0.18426,-0.36851,-0.00000) ==
 == 211-th k-point nmo = 81 (0.27639,-0.27639,-0.09213) ==
 == 212-th k-point nmo = 82 (0.36851,-0.18426,-0.18426) ==
 == 213-th k-point nmo = 82 (0.46064,-0.09213,-0.27639) ==
 == 214-th k-point nmo = 82 (0.55277,0.00000,-0.36851) ==
 == 215-th k-point nmo = 82 (0.64490,0.09213,-0.46064) ==
 == 216-th k-point nmo = 82 (0.00000,-0.73703,0.36851) ==
 == 217-th k-point nmo = 82 (0.09213,-0.64490,0.27639) ==
 == 218-th k-point nmo = 82 (0.18426,-0.55277,0.18426) ==
 == 219-th k-point nmo = 82 (0.27639,-0.46064,0.09213) ==
 == 220-th k-point nmo = 83 (0.36851,-0.36851,-0.00000) ==
 == 221-th k-point nmo = 82 (0.46064,-0.27639,-0.09213) ==
 == 222-th k-point nmo = 82 (0.55277,-0.18426,-0.18426) ==
 == 223-th k-point nmo = 82 (0.64490,-0.09213,-0.27639) ==
 == 224-th k-point nmo = 82 (0.73703,0.00000,-0.36851) ==
 == 225-th k-point nmo = 82 (0.09213,-0.82916,0.46064) ==
 == 226-th k-point nmo = 82 (0.18426,-0.73703,0.36851) ==
 == 227-th k-point nmo = 83 (0.27639,-0.64490,0.27639) ==
 == 228-th k-point nmo = 82 (0.36851,-0.55277,0.18426) ==
 == 229-th k-point nmo = 83 (0.46064,-0.46064,0.09213) ==
 == 230-th k-point nmo = 82 (0.55277,-0.36851,-0.00000) ==
 == 231-th k-point nmo = 82 (0.64490,-0.27639,-0.09213) ==
 == 232-th k-point nmo = 83 (0.73703,-0.18426,-0.18426) ==
 == 233-th k-point nmo = 82 (0.82916,-0.09213,-0.27639) ==
 == 234-th k-point nmo = 82 (0.18426,-0.92129,0.55277) ==
 == 235-th k-point nmo = 82 (0.27639,-0.82916,0.46064) ==
 == 236-th k-point nmo = 83 (0.36851,-0.73703,0.36851) ==
 == 237-th k-point nmo = 82 (0.46064,-0.64490,0.27639) ==
 == 238-th k-point nmo = 83 (0.55277,-0.55277,0.18426) ==
 == 239-th k-point nmo = 82 (0.64490,-0.46064,0.09213) ==
 == 240-th k-point nmo = 82 (0.73703,-0.36851,-0.00000) ==
 == 241-th k-point nmo = 82 (0.82916,-0.27639,-0.09213) ==
 == 242-th k-point nmo = 83 (0.92129,-0.18426,-0.18426) ==
 == 243-th k-point nmo = 81 (-0.64490,-0.09213,-0.09213) ==
 == 244-th k-point nmo = 81 (-0.55277,0.00000,-0.18426) ==
 == 245-th k-point nmo = 82 (-0.46064,0.09213,-0.27639) ==
 == 246-th k-point nmo = 83 (-0.36851,0.18426,-0.36851) ==
 == 247-th k-point nmo = 83 (-0.27639,0.27639,-0.46064) ==
 == 248-th k-point nmo = 82 (-0.18426,0.36851,-0.55277) ==
 == 249-th k-point nmo = 82 (-0.09213,0.46064,-0.64490) ==
 == 250-th k-point nmo = 82 (-0.00000,0.55277,-0.73703) ==
 == 251-th k-point nmo = 81 (0.09213,0.64490,-0.82916) ==
 == 252-th k-point nmo = 81 (-0.55277,-0.18426,-0.00000) ==
 == 253-th k-point nmo = 82 (-0.46064,-0.09213,-0.09213) ==
 == 254-th k-point nmo = 82 (-0.36851,0.00000,-0.18426) ==
 == 255-th k-point nmo = 81 (-0.27639,0.09213,-0.27639) ==
 == 256-th k-point nmo = 82 (-0.18426,0.18426,-0.36851) ==
 == 257-th k-point nmo = 82 (-0.09213,0.27639,-0.46064) ==
 == 258-th k-point nmo = 82 (-0.00000,0.36851,-0.55277) ==
 == 259-th k-point nmo = 82 (0.09213,0.46064,-0.64490) ==
 == 260-th k-point nmo = 82 (0.18426,0.55277,-0.73703) ==
 == 261-th k-point nmo = 82 (-0.46064,-0.27639,0.09213) ==
 == 262-th k-point nmo = 82 (-0.36851,-0.18426,-0.00000) ==
 == 263-th k-point nmo = 81 (-0.27639,-0.09213,-0.09213) ==
 == 264-th k-point nmo = 81 (-0.18426,0.00000,-0.18426) ==
 == 265-th k-point nmo = 81 (-0.09213,0.09213,-0.27639) ==
 == 266-th k-point nmo = 82 (-0.00000,0.18426,-0.36851) ==
 == 267-th k-point nmo = 82 (0.09213,0.27639,-0.46064) ==
 == 268-th k-point nmo = 82 (0.18426,0.36851,-0.55277) ==
 == 269-th k-point nmo = 82 (0.27639,0.46064,-0.64490) ==
 == 270-th k-point nmo = 83 (-0.36851,-0.36851,0.18426) ==
 == 271-th k-point nmo = 81 (-0.27639,-0.27639,0.09213) ==
 == 272-th k-point nmo = 81 (-0.18426,-0.18426,-0.00000) ==
 == 273-th k-point nmo = 82 (-0.09213,-0.09213,-0.09213) ==
 == 274-th k-point nmo = 81 (-0.00000,0.00000,-0.18426) ==
 == 275-th k-point nmo = 81 (0.09213,0.09213,-0.27639) ==
 == 276-th k-point nmo = 82 (0.18426,0.18426,-0.36851) ==
 == 277-th k-point nmo = 83 (0.27639,0.27639,-0.46064) ==
 == 278-th k-point nmo = 83 (0.36851,0.36851,-0.55277) ==
 == 279-th k-point nmo = 83 (-0.27639,-0.46064,0.27639) ==
 == 280-th k-point nmo = 82 (-0.18426,-0.36851,0.18426) ==
 == 281-th k-point nmo = 81 (-0.09213,-0.27639,0.09213) ==
 == 282-th k-point nmo = 81 (0.00000,-0.18426,-0.00000) ==
 == 283-th k-point nmo = 82 (0.09213,-0.09213,-0.09213) ==
 == 284-th k-point nmo = 81 (0.18426,0.00000,-0.18426) ==
 == 285-th k-point nmo = 81 (0.27639,0.09213,-0.27639) ==
 == 286-th k-point nmo = 83 (0.36851,0.18426,-0.36851) ==
 == 287-th k-point nmo = 83 (0.46064,0.27639,-0.46064) ==
 == 288-th k-point nmo = 82 (-0.18426,-0.55277,0.36851) ==
 == 289-th k-point nmo = 82 (-0.09213,-0.46064,0.27639) ==
 == 290-th k-point nmo = 82 (0.00000,-0.36851,0.18426) ==
 == 291-th k-point nmo = 81 (0.09213,-0.27639,0.09213) ==
 == 292-th k-point nmo = 81 (0.18426,-0.18426,-0.00000) ==
 == 293-th k-point nmo = 81 (0.27639,-0.09213,-0.09213) ==
 == 294-th k-point nmo = 82 (0.36851,0.00000,-0.18426) ==
 == 295-th k-point nmo = 82 (0.46064,0.09213,-0.27639) ==
 == 296-th k-point nmo = 82 (0.55277,0.18426,-0.36851) ==
 == 297-th k-point nmo = 82 (-0.09213,-0.64490,0.46064) ==
 == 298-th k-point nmo = 82 (0.00000,-0.55277,0.36851) ==
 == 299-th k-point nmo = 82 (0.09213,-0.46064,0.27639) ==
 == 300-th k-point nmo = 82 (0.18426,-0.36851,0.18426) ==
 == 301-th k-point nmo = 81 (0.27639,-0.27639,0.09213) ==
 == 302-th k-point nmo = 82 (0.36851,-0.18426,-0.00000) ==
 == 303-th k-point nmo = 82 (0.46064,-0.09213,-0.09213) ==
 == 304-th k-point nmo = 81 (0.55277,0.00000,-0.18426) ==
 == 305-th k-point nmo = 82 (0.64490,0.09213,-0.27639) ==
 == 306-th k-point nmo = 82 (0.00000,-0.73703,0.55277) ==
 == 307-th k-point nmo = 82 (0.09213,-0.64490,0.46064) ==
 == 308-th k-point nmo = 82 (0.18426,-0.55277,0.36851) ==
 == 309-th k-point nmo = 83 (0.27639,-0.46064,0.27639) ==
 == 310-th k-point nmo = 83 (0.36851,-0.36851,0.18426) ==
 == 311-th k-point nmo = 82 (0.46064,-0.27639,0.09213) ==
 == 312-th k-point nmo = 81 (0.55277,-0.18426,-0.00000) ==
 == 313-th k-point nmo = 81 (0.64490,-0.09213,-0.09213) ==
 == 314-th k-point nmo = 81 (0.73703,0.00000,-0.18426) ==
 == 315-th k-point nmo = 81 (0.09213,-0.82916,0.64490) ==
 == 316-th k-point nmo = 82 (0.18426,-0.73703,0.55277) ==
 == 317-th k-point nmo = 82 (0.27639,-0.64490,0.46064) ==
 == 318-th k-point nmo = 83 (0.36851,-0.55277,0.36851) ==
 == 319-th k-point nmo = 83 (0.46064,-0.46064,0.27639) ==
 == 320-th k-point nmo = 82 (0.55277,-0.36851,0.18426) ==
 == 321-th k-point nmo = 82 (0.64490,-0.27639,0.09213) ==
 == 322-th k-point nmo = 81 (0.73703,-0.18426,-0.00000) ==
 == 323-th k-point nmo = 81 (0.82916,-0.09213,-0.09213) ==
 == 324-th k-point nmo = 81 (-0.73703,0.00000,0.00000) ==
 == 325-th k-point nmo = 81 (-0.64490,0.09213,-0.09213) ==
 == 326-th k-point nmo = 82 (-0.55277,0.18426,-0.18426) ==
 == 327-th k-point nmo = 83 (-0.46064,0.27639,-0.27639) ==
 == 328-th k-point nmo = 83 (-0.36851,0.36851,-0.36851) ==
 == 329-th k-point nmo = 83 (-0.27639,0.46064,-0.46064) ==
 == 330-th k-point nmo = 83 (-0.18426,0.55277,-0.55277) ==
 == 331-th k-point nmo = 83 (-0.09213,0.64490,-0.64490) ==
 == 332-th k-point nmo = 81 (-0.00000,0.73703,-0.73703) ==
 == 333-th k-point nmo = 81 (-0.64490,-0.09213,0.09213) ==
 == 334-th k-point nmo = 81 (-0.55277,0.00000,0.00000) ==
 == 335-th k-point nmo = 82 (-0.46064,0.09213,-0.09213) ==
 == 336-th k-point nmo = 82 (-0.36851,0.18426,-0.18426) ==
 == 337-th k-point nmo = 83 (-0.27639,0.27639,-0.27639) ==
 == 338-th k-point nmo = 83 (-0.18426,0.36851,-0.36851) ==
 == 339-th k-point nmo = 83 (-0.09213,0.46064,-0.46064) ==
 == 340-th k-point nmo = 83 (-0.00000,0.55277,-0.55277) ==
 == 341-th k-point nmo = 83 (0.09213,0.64490,-0.64490) ==
 == 342-th k-point nmo = 82 (-0.55277,-0.18426,0.18426) ==
 == 343-th k-point nmo = 82 (-0.46064,-0.09213,0.09213) ==
 == 344-th k-point nmo = 81 (-0.36851,0.00000,0.00000) ==
 == 345-th k-point nmo = 81 (-0.27639,0.09213,-0.09213) ==
 == 346-th k-point nmo = 83 (-0.18426,0.18426,-0.18426) ==
 == 347-th k-point nmo = 81 (-0.09213,0.27639,-0.27639) ==
 == 348-th k-point nmo = 83 (-0.00000,0.36851,-0.36851) ==
 == 349-th k-point nmo = 83 (0.09213,0.46064,-0.46064) ==
 == 350-th k-point nmo = 83 (0.18426,0.55277,-0.55277) ==
 == 351-th k-point nmo = 83 (-0.46064,-0.27639,0.27639) ==
 == 352-th k-point nmo = 82 (-0.36851,-0.18426,0.18426) ==
 == 353-th k-point nmo = 81 (-0.27639,-0.09213,0.09213) ==
 == 354-th k-point nmo = 81 (-0.18426,0.00000,0.00000) ==
 == 355-th k-point nmo = 82 (-0.09213,0.09213,-0.09213) ==
 == 356-th k-point nmo = 81 (-0.00000,0.18426,-0.18426) ==
 == 357-th k-point nmo = 81 (0.09213,0.27639,-0.27639) ==
 == 358-th k-point nmo = 83 (0.18426,0.36851,-0.36851) ==
 == 359-th k-point nmo = 83 (0.27639,0.46064,-0.46064) ==
 == 360-th k-point nmo = 83 (-0.36851,-0.36851,0.36851) ==
 == 361-th k-point nmo = 83 (-0.27639,-0.27639,0.27639) ==
 == 362-th k-point nmo = 83 (-0.18426,-0.18426,0.18426) ==
 == 363-th k-point nmo = 82 (-0.09213,-0.09213,0.09213) ==
 == 364-th k-point nmo = 83 (0.00000,0.00000,0.00000) ==
 == 365-th k-point nmo = 82 (0.09213,0.09213,-0.09213) ==
 == 366-th k-point nmo = 83 (0.18426,0.18426,-0.18426) ==
 == 367-th k-point nmo = 83 (0.27639,0.27639,-0.27639) ==
 == 368-th k-point nmo = 83 (0.36851,0.36851,-0.36851) ==
 == 369-th k-point nmo = 83 (-0.27639,-0.46064,0.46064) ==
 == 370-th k-point nmo = 83 (-0.18426,-0.36851,0.36851) ==
 == 371-th k-point nmo = 81 (-0.09213,-0.27639,0.27639) ==
 == 372-th k-point nmo = 81 (0.00000,-0.18426,0.18426) ==
 == 373-th k-point nmo = 82 (0.09213,-0.09213,0.09213) ==
 == 374-th k-point nmo = 81 (0.18426,-0.00000,0.00000) ==
 == 375-th k-point nmo = 81 (0.27639,0.09213,-0.09213) ==
 == 376-th k-point nmo = 82 (0.36851,0.18426,-0.18426) ==
 == 377-th k-point nmo = 83 (0.46064,0.27639,-0.27639) ==
 == 378-th k-point nmo = 83 (-0.18426,-0.55277,0.55277) ==
 == 379-th k-point nmo = 83 (-0.09213,-0.46064,0.46064) ==
 == 380-th k-point nmo = 83 (0.00000,-0.36851,0.36851) ==
 == 381-th k-point nmo = 81 (0.09213,-0.27639,0.27639) ==
 == 382-th k-point nmo = 83 (0.18426,-0.18426,0.18426) ==
 == 383-th k-point nmo = 81 (0.27639,-0.09213,0.09213) ==
 == 384-th k-point nmo = 81 (0.36851,-0.00000,0.00000) ==
 == 385-th k-point nmo = 82 (0.46064,0.09213,-0.09213) ==
 == 386-th k-point nmo = 82 (0.55277,0.18426,-0.18426) ==
 == 387-th k-point nmo = 83 (-0.09213,-0.64490,0.64490) ==
 == 388-th k-point nmo = 83 (0.00000,-0.55277,0.55277) ==
 == 389-th k-point nmo = 83 (0.09213,-0.46064,0.46064) ==
 == 390-th k-point nmo = 83 (0.18426,-0.36851,0.36851) ==
 == 391-th k-point nmo = 83 (0.27639,-0.27639,0.27639) ==
 == 392-th k-point nmo = 82 (0.36851,-0.18426,0.18426) ==
 == 393-th k-point nmo = 82 (0.46064,-0.09213,0.09213) ==
 == 394-th k-point nmo = 81 (0.55277,-0.00000,0.00000) ==
 == 395-th k-point nmo = 81 (0.64490,0.09213,-0.09213) ==
 == 396-th k-point nmo = 81 (0.00000,-0.73703,0.73703) ==
 == 397-th k-point nmo = 83 (0.09213,-0.64490,0.64490) ==
 == 398-th k-point nmo = 83 (0.18426,-0.55277,0.55277) ==
 == 399-th k-point nmo = 83 (0.27639,-0.46064,0.46064) ==
 == 400-th k-point nmo = 83 (0.36851,-0.36851,0.36851) ==
 == 401-th k-point nmo = 83 (0.46064,-0.27639,0.27639) ==
 == 402-th k-point nmo = 82 (0.55277,-0.18426,0.18426) ==
 == 403-th k-point nmo = 81 (0.64490,-0.09213,0.09213) ==
 == 404-th k-point nmo = 81 (0.73703,-0.00000,0.00000) ==
 == 405-th k-point nmo = 81 (-0.82916,0.09213,0.09213) ==
 == 406-th k-point nmo = 81 (-0.73703,0.18426,0.00000) ==
 == 407-th k-point nmo = 82 (-0.64490,0.27639,-0.09213) ==
 == 408-th k-point nmo = 82 (-0.55277,0.36851,-0.18426) ==
 == 409-th k-point nmo = 83 (-0.46064,0.46064,-0.27639) ==
 == 410-th k-point nmo = 83 (-0.36851,0.55277,-0.36851) ==
 == 411-th k-point nmo = 82 (-0.27639,0.64490,-0.46064) ==
 == 412-th k-point nmo = 82 (-0.18426,0.73703,-0.55277) ==
 == 413-th k-point nmo = 81 (-0.09213,0.82916,-0.64490) ==
 == 414-th k-point nmo = 81 (-0.73703,0.00000,0.18426) ==
 == 415-th k-point nmo = 81 (-0.64490,0.09213,0.09213) ==
 == 416-th k-point nmo = 81 (-0.55277,0.18426,0.00000) ==
 == 417-th k-point nmo = 82 (-0.46064,0.27639,-0.09213) ==
 == 418-th k-point nmo = 83 (-0.36851,0.36851,-0.18426) ==
 == 419-th k-point nmo = 83 (-0.27639,0.46064,-0.27639) ==
 == 420-th k-point nmo = 82 (-0.18426,0.55277,-0.36851) ==
 == 421-th k-point nmo = 82 (-0.09213,0.64490,-0.46064) ==
 == 422-th k-point nmo = 82 (-0.00000,0.73703,-0.55277) ==
 == 423-th k-point nmo = 82 (-0.64490,-0.09213,0.27639) ==
 == 424-th k-point nmo = 81 (-0.55277,0.00000,0.18426) ==
 == 425-th k-point nmo = 82 (-0.46064,0.09213,0.09213) ==
 == 426-th k-point nmo = 82 (-0.36851,0.18426,0.00000) ==
 == 427-th k-point nmo = 81 (-0.27639,0.27639,-0.09213) ==
 == 428-th k-point nmo = 82 (-0.18426,0.36851,-0.18426) ==
 == 429-th k-point nmo = 82 (-0.09213,0.46064,-0.27639) ==
 == 430-th k-point nmo = 82 (-0.00000,0.55277,-0.36851) ==
 == 431-th k-point nmo = 82 (0.09213,0.64490,-0.46064) ==
 == 432-th k-point nmo = 82 (-0.55277,-0.18426,0.36851) ==
 == 433-th k-point nmo = 82 (-0.46064,-0.09213,0.27639) ==
 == 434-th k-point nmo = 82 (-0.36851,-0.00000,0.18426) ==
 == 435-th k-point nmo = 81 (-0.27639,0.09213,0.09213) ==
 == 436-th k-point nmo = 81 (-0.18426,0.18426,0.00000) ==
 == 437-th k-point nmo = 81 (-0.09213,0.27639,-0.09213) ==
 == 438-th k-point nmo = 82 (-0.00000,0.36851,-0.18426) ==
 == 439-th k-point nmo = 82 (0.09213,0.46064,-0.27639) ==
 == 440-th k-point nmo = 82 (0.18426,0.55277,-0.36851) ==
 == 441-th k-point nmo = 83 (-0.46064,-0.27639,0.46064) ==
 == 442-th k-point nmo = 83 (-0.36851,-0.18426,0.36851) ==
 == 443-th k-point nmo = 81 (-0.27639,-0.09213,0.27639) ==
 == 444-th k-point nmo = 81 (-0.18426,-0.00000,0.18426) ==
 == 445-th k-point nmo = 82 (-0.09213,0.09213,0.09213) ==
 == 446-th k-point nmo = 81 (0.00000,0.18426,0.00000) ==
 == 447-th k-point nmo = 81 (0.09213,0.27639,-0.09213) ==
 == 448-th k-point nmo = 82 (0.18426,0.36851,-0.18426) ==
 == 449-th k-point nmo = 83 (0.27639,0.46064,-0.27639) ==
 == 450-th k-point nmo = 83 (-0.36851,-0.36851,0.55277) ==
 == 451-th k-point nmo = 83 (-0.27639,-0.27639,0.46064) ==
 == 452-th k-point nmo = 82 (-0.18426,-0.18426,0.36851) ==
 == 453-th k-point nmo = 81 (-0.09213,-0.09213,0.27639) ==
 == 454-th k-point nmo = 81 (0.00000,-0.00000,0.18426) ==
 == 455-th k-point nmo = 82 (0.09213,0.09213,0.09213) ==
 == 456-th k-point nmo = 81 (0.18426,0.18426,0.00000) ==
 == 457-th k-point nmo = 81 (0.27639,0.27639,-0.09213) ==
 == 458-th k-point nmo = 83 (0.36851,0.36851,-0.18426) ==
 == 459-th k-point nmo = 82 (-0.27639,-0.46064,0.64490) ==
 == 460-th k-point nmo = 82 (-0.18426,-0.36851,0.55277) ==
 == 461-th k-point nmo = 82 (-0.09213,-0.27639,0.46064) ==
 == 462-th k-point nmo = 82 (0.00000,-0.18426,0.36851) ==
 == 463-th k-point nmo = 81 (0.09213,-0.09213,0.27639) ==
 == 464-th k-point nmo = 81 (0.18426,-0.00000,0.18426) ==
 == 465-th k-point nmo = 81 (0.27639,0.09213,0.09213) ==
 == 466-th k-point nmo = 82 (0.36851,0.18426,0.00000) ==
 == 467-th k-point nmo = 82 (0.46064,0.27639,-0.09213) ==
 == 468-th k-point nmo = 82 (-0.18426,-0.55277,0.73703) ==
 == 469-th k-point nmo = 82 (-0.09213,-0.46064,0.64490) ==
 == 470-th k-point nmo = 82 (0.00000,-0.36851,0.55277) ==
 == 471-th k-point nmo = 82 (0.09213,-0.27639,0.46064) ==
 == 472-th k-point nmo = 82 (0.18426,-0.18426,0.36851) ==
 == 473-th k-point nmo = 81 (0.27639,-0.09213,0.27639) ==
 == 474-th k-point nmo = 82 (0.36851,-0.00000,0.18426) ==
 == 475-th k-point nmo = 82 (0.46064,0.09213,0.09213) ==
 == 476-th k-point nmo = 81 (0.55277,0.18426,0.00000) ==
 == 477-th k-point nmo = 81 (-0.09213,-0.64490,0.82916) ==
 == 478-th k-point nmo = 82 (0.00000,-0.55277,0.73703) ==
 == 479-th k-point nmo = 82 (0.09213,-0.46064,0.64490) ==
 == 480-th k-point nmo = 82 (0.18426,-0.36851,0.55277) ==
 == 481-th k-point nmo = 83 (0.27639,-0.27639,0.46064) ==
 == 482-th k-point nmo = 83 (0.36851,-0.18426,0.36851) ==
 == 483-th k-point nmo = 82 (0.46064,-0.09213,0.27639) ==
 == 484-th k-point nmo = 81 (0.55277,-0.00000,0.18426) ==
 == 485-th k-point nmo = 81 (0.64490,0.09213,0.09213) ==
 == 486-th k-point nmo = 83 (-0.92129,0.18426,0.18426) ==
 == 487-th k-point nmo = 82 (-0.82916,0.27639,0.09213) ==
 == 488-th k-point nmo = 82 (-0.73703,0.36851,0.00000) ==
 == 489-th k-point nmo = 82 (-0.64490,0.46064,-0.09213) ==
 == 490-th k-point nmo = 83 (-0.55277,0.55277,-0.18426) ==
 == 491-th k-point nmo = 82 (-0.46064,0.64490,-0.27639) ==
 == 492-th k-point nmo = 83 (-0.36851,0.73703,-0.36851) ==
 == 493-th k-point nmo = 82 (-0.27639,0.82916,-0.46064) ==
 == 494-th k-point nmo = 82 (-0.18426,0.92129,-0.55277) ==
 == 495-th k-point nmo = 82 (-0.82916,0.09213,0.27639) ==
 == 496-th k-point nmo = 83 (-0.73703,0.18426,0.18426) ==
 == 497-th k-point nmo = 82 (-0.64490,0.27639,0.09213) ==
 == 498-th k-point nmo = 82 (-0.55277,0.36851,0.00000) ==
 == 499-th k-point nmo = 83 (-0.46064,0.46064,-0.09213) ==
 == 500-th k-point nmo = 82 (-0.36851,0.55277,-0.18426) ==
 == 501-th k-point nmo = 83 (-0.27639,0.64490,-0.27639) ==
 == 502-th k-point nmo = 82 (-0.18426,0.73703,-0.36851) ==
 == 503-th k-point nmo = 82 (-0.09213,0.82916,-0.46064) ==
 == 504-th k-point nmo = 82 (-0.73703,-0.00000,0.36851) ==
 == 505-th k-point nmo = 82 (-0.64490,0.09213,0.27639) ==
 == 506-th k-point nmo = 82 (-0.55277,0.18426,0.18426) ==
 == 507-th k-point nmo = 82 (-0.46064,0.27639,0.09213) ==
 == 508-th k-point nmo = 83 (-0.36851,0.36851,0.00000) ==
 == 509-th k-point nmo = 82 (-0.27639,0.46064,-0.09213) ==
 == 510-th k-point nmo = 82 (-0.18426,0.55277,-0.18426) ==
 == 511-th k-point nmo = 82 (-0.09213,0.64490,-0.27639) ==
 == 512-th k-point nmo = 82 (-0.00000,0.73703,-0.36851) ==
 == 513-th k-point nmo = 82 (-0.64490,-0.09213,0.46064) ==
 == 514-th k-point nmo = 82 (-0.55277,0.00000,0.36851) ==
 == 515-th k-point nmo = 82 (-0.46064,0.09213,0.27639) ==
 == 516-th k-point nmo = 82 (-0.36851,0.18426,0.18426) ==
 == 517-th k-point nmo = 81 (-0.27639,0.27639,0.09213) ==
 == 518-th k-point nmo = 82 (-0.18426,0.36851,0.00000) ==
 == 519-th k-point nmo = 82 (-0.09213,0.46064,-0.09213) ==
 == 520-th k-point nmo = 81 (-0.00000,0.55277,-0.18426) ==
 == 521-th k-point nmo = 82 (0.09213,0.64490,-0.27639) ==
 == 522-th k-point nmo = 83 (-0.55277,-0.18426,0.55277) ==
 == 523-th k-point nmo = 83 (-0.46064,-0.09213,0.46064) ==
 == 524-th k-point nmo = 83 (-0.36851,-0.00000,0.36851) ==
 == 525-th k-point nmo = 81 (-0.27639,0.09213,0.27639) ==
 == 526-th k-point nmo = 83 (-0.18426,0.18426,0.18426) ==
 == 527-th k-point nmo = 81 (-0.09213,0.27639,0.09213) ==
 == 528-th k-point nmo = 81 (0.00000,0.36851,0.00000) ==
 == 529-th k-point nmo = 82 (0.09213,0.46064,-0.09213) ==
 == 530-th k-point nmo = 82 (0.18426,0.55277,-0.18426) ==
 == 531-th k-point nmo = 82 (-0.46064,-0.27639,0.64490) ==
 == 532-th k-point nmo = 82 (-0.36851,-0.18426,0.55277) ==
 == 533-th k-point nmo = 82 (-0.27639,-0.09213,0.46064) ==
 == 534-th k-point nmo = 82 (-0.18426,-0.00000,0.36851) ==
 == 535-th k-point nmo = 81 (-0.09213,0.09213,0.27639) ==
 == 536-th k-point nmo = 81 (0.00000,0.18426,0.18426) ==
 == 537-th k-point nmo = 81 (0.09213,0.27639,0.09213) ==
 == 538-th k-point nmo = 82 (0.18426,0.36851,0.00000) ==
 == 539-th k-point nmo = 82 (0.27639,0.46064,-0.09213) ==
 == 540-th k-point nmo = 83 (-0.36851,-0.36851,0.73703) ==
 == 541-th k-point nmo = 83 (-0.27639,-0.27639,0.64490) ==
 == 542-th k-point nmo = 82 (-0.18426,-0.18426,0.55277) ==
 == 543-th k-point nmo = 82 (-0.09213,-0.09213,0.46064) ==
 == 544-th k-point nmo = 81 (0.00000,-0.00000,0.36851) ==
 == 545-th k-point nmo = 81 (0.09213,0.09213,0.27639) ==
 == 546-th k-point nmo = 83 (0.18426,0.18426,0.18426) ==
 == 547-th k-point nmo = 81 (0.27639,0.27639,0.09213) ==
 == 548-th k-point nmo = 83 (0.36851,0.36851,0.00000) ==
 == 549-th k-point nmo = 82 (-0.27639,-0.46064,0.82916) ==
 == 550-th k-point nmo = 82 (-0.18426,-0.36851,0.73703) ==
 == 551-th k-point nmo = 82 (-0.09213,-0.27639,0.64490) ==
 == 552-th k-point nmo = 81 (0.00000,-0.18426,0.55277) ==
 == 553-th k-point nmo = 82 (0.09213,-0.09213,0.46064) ==
 == 554-th k-point nmo = 82 (0.18426,-0.00000,0.36851) ==
 == 555-th k-point nmo = 81 (0.27639,0.09213,0.27639) ==
 == 556-th k-point nmo = 82 (0.36851,0.18426,0.18426) ==
 == 557-th k-point nmo = 82 (0.46064,0.27639,0.09213) ==
 == 558-th k-point nmo = 82 (-0.18426,-0.55277,0.92129) ==
 == 559-th k-point nmo = 82 (-0.09213,-0.46064,0.82916) ==
 == 560-th k-point nmo = 82 (0.00000,-0.36851,0.73703) ==
 == 561-th k-point nmo = 82 (0.09213,-0.27639,0.64490) ==
 == 562-th k-point nmo = 82 (0.18426,-0.18426,0.55277) ==
 == 563-th k-point nmo = 82 (0.27639,-0.09213,0.46064) ==
 == 564-th k-point nmo = 83 (0.36851,-0.00000,0.36851) ==
 == 565-th k-point nmo = 82 (0.46064,0.09213,0.27639) ==
 == 566-th k-point nmo = 82 (0.55277,0.18426,0.18426) ==
 == 567-th k-point nmo = 83 (-1.01341,0.27639,0.27639) ==
 == 568-th k-point nmo = 82 (-0.92129,0.36851,0.18426) ==
 == 569-th k-point nmo = 82 (-0.82916,0.46064,0.09213) ==
 == 570-th k-point nmo = 82 (-0.73703,0.55277,0.00000) ==
 == 571-th k-point nmo = 83 (-0.64490,0.64490,-0.09213) ==
 == 572-th k-point nmo = 82 (-0.55277,0.73703,-0.18426) ==
 == 573-th k-point nmo = 82 (-0.46064,0.82916,-0.27639) ==
 == 574-th k-point nmo = 83 (-0.36851,0.92129,-0.36851) ==
 == 575-th k-point nmo = 82 (-0.27639,1.01341,-0.46064) ==
 == 576-th k-point nmo = 82 (-0.92129,0.18426,0.36851) ==
 == 577-th k-point nmo = 83 (-0.82916,0.27639,0.27639) ==
 == 578-th k-point nmo = 82 (-0.73703,0.36851,0.18426) ==
 == 579-th k-point nmo = 82 (-0.64490,0.46064,0.09213) ==
 == 580-th k-point nmo = 83 (-0.55277,0.55277,0.00000) ==
 == 581-th k-point nmo = 82 (-0.46064,0.64490,-0.09213) ==
 == 582-th k-point nmo = 82 (-0.36851,0.73703,-0.18426) ==
 == 583-th k-point nmo = 83 (-0.27639,0.82916,-0.27639) ==
 == 584-th k-point nmo = 82 (-0.18426,0.92129,-0.36851) ==
 == 585-th k-point nmo = 82 (-0.82916,0.09213,0.46064) ==
 == 586-th k-point nmo = 82 (-0.73703,0.18426,0.36851) ==
 == 587-th k-point nmo = 83 (-0.64490,0.27639,0.27639) ==
 == 588-th k-point nmo = 82 (-0.55277,0.36851,0.18426) ==
 == 589-th k-point nmo = 83 (-0.46064,0.46064,0.09213) ==
 == 590-th k-point nmo = 82 (-0.36851,0.55277,0.00000) ==
 == 591-th k-point nmo = 82 (-0.27639,0.64490,-0.09213) ==
 == 592-th k-point nmo = 83 (-0.18426,0.73703,-0.18426) ==
 == 593-th k-point nmo = 82 (-0.09213,0.82916,-0.27639) ==
 == 594-th k-point nmo = 82 (-0.73703,-0.00000,0.55277) ==
 == 595-th k-point nmo = 82 (-0.64490,0.09213,0.46064) ==
 == 596-th k-point nmo = 82 (-0.55277,0.18426,0.36851) ==
 == 597-th k-point nmo = 83 (-0.46064,0.27639,0.27639) ==
 == 598-th k-point nmo = 83 (-0.36851,0.36851,0.18426) ==
 == 599-th k-point nmo = 82 (-0.27639,0.46064,0.09213) ==
[...]
 1.00843 1.09777 1.31445 1.44283 1.52053 1.59873 1.64894 1.81708 1.86798 1.92974
 2.01274 2.03708 2.17550 2.28464 2.29294 2.39580 2.40438 2.61356 2.62342 2.76280
 2.83245 2.88800 3.20017 3.40398 3.49692 3.65681 3.74618 4.21763 4.49110 4.88944
 5.09402 5.22151 5.43010 5.43184 5.52118 5.68894 5.83664 5.93218 6.08006 6.38819
 7.11457 7.44819 7.56057 7.85784 8.25528 8.38532 8.79594 11.61785 11.62833 11.63474
 11.63604 11.63661 11.64039 11.65504 11.66679 11.83791 12.37445 14.78569 15.00621 15.09638
 15.17499 15.27113 15.37394 15.39701 16.21571 16.41086 16.43632 16.67093 16.82696 17.57184
 55.75670 286.51148
 == 705-th k-point (-0.27639,0.09213,0.64490) occupation: 6==
 -23.85914 -1.46232 -0.67379 -0.05167 -0.01558 0.01099 0.53578 0.61442 0.71978 0.75944
 0.93600 1.18979 1.35750 1.39388 1.45596 1.51798 1.66247 1.76784 1.88095 1.90808
 2.00585 2.11105 2.12263 2.23367 2.29605 2.37107 2.42963 2.60170 2.78583 2.79771
 2.81792 2.88821 3.28603 3.46042 3.65207 3.69123 3.83668 3.98343 4.71417 4.76005
 4.89621 5.13785 5.18134 5.44549 5.51168 5.84687 5.98699 6.16659 6.30845 6.42569
 6.56853 7.40101 7.45715 8.06301 8.17419 8.32116 8.57812 11.61301 11.62067 11.62864
 11.63522 11.63974 11.65040 11.65424 11.67763 11.74581 12.32015 14.89153 14.92850 15.00193
 15.12223 15.15065 15.28092 15.34945 16.36630 16.49105 16.65313 16.78921 16.92170 17.21054
 55.74136 286.49489
 == 706-th k-point (-0.18426,0.18426,0.55277) occupation: 6==
 -23.85914 -1.46264 -0.67733 -0.04751 0.00176 0.01399 0.49850 0.63540 0.73539 0.76629
 0.91643 1.26501 1.27025 1.38737 1.44385 1.46793 1.60680 1.74191 1.79867 1.92045
 1.99047 2.06940 2.20911 2.23771 2.35705 2.46501 2.61659 2.66704 2.78724 2.85738
 2.88306 2.98879 3.02170 3.50584 3.77301 3.80998 3.87421 4.15065 4.56203 4.69206
 4.78741 5.04714 5.14125 5.31270 5.46060 6.01847 6.11891 6.22766 6.27548 6.42365
 6.52887 7.43295 7.55079 8.11952 8.23085 8.34891 8.50380 11.60808 11.61862 11.61866
 11.63930 11.64734 11.65181 11.66622 11.68738 11.70650 12.50780 14.83370 14.91282 14.92518
 15.06864 15.12496 15.21366 15.29399 16.55035 16.58735 16.69669 16.70061 16.89330 17.24916
 55.79966 286.56358
 == 707-th k-point (-0.09213,0.27639,0.46064) occupation: 6==
 -23.85914 -1.46291 -0.68034 -0.03695 0.00206 0.02398 0.47515 0.64021 0.75116 0.76589
 0.97027 1.17978 1.21149 1.37515 1.42873 1.48131 1.61873 1.70669 1.80657 1.88813
 1.98563 2.02581 2.22858 2.34580 2.36340 2.48755 2.59031 2.74911 2.85808 2.86078
 2.89188 2.96812 3.23749 3.52699 3.62377 3.89690 3.99368 4.17656 4.58583 4.74019
 4.83007 4.98609 5.14379 5.36949 5.49640 6.17742 6.18084 6.24658 6.34610 6.40938
 6.72028 7.47070 7.52398 7.89775 8.27928 8.50494 8.59205 11.59961 11.61176 11.61756
 11.62901 11.63974 11.64832 11.65527 11.68194 11.70144 12.14102 14.83635 14.90655 14.95212
 15.03583 15.12135 15.23934 15.29584 16.61026 16.66229 16.70234 16.75212 17.00112 17.27706
 55.77376 286.53207
 == 708-th k-point (0.00000,0.36851,0.36851) occupation: 6==
 -23.85914 -1.46302 -0.68152 -0.02906 -0.00379 0.03005 0.46736 0.63609 0.76378 0.76523
 1.07145 1.08180 1.14498 1.40341 1.41049 1.49079 1.61263 1.70283 1.85489 1.86467
 1.93525 2.07203 2.16572 2.26540 2.47686 2.51058 2.58771 2.80589 2.83807 2.86326
 2.88790 2.96839 2.98603 3.25338 3.54920 3.58392 3.92670 4.17706 4.18499 4.57242
 4.66182 4.99582 5.07283 5.15930 5.33898 5.61740 6.18895 6.27862 6.29825 6.31516
 6.55385 6.88552 7.56031 7.58751 8.06363 8.42922 8.62468 8.67026 11.60034 11.60904
 11.62268 11.63175 11.63681 11.64568 11.67194 11.67938 11.70181 12.41328 14.83650 14.87658
 15.01676 15.08435 15.13192 15.22636 15.37248 16.61572 16.71206 16.72510 16.79971 17.20916
 17.23528 55.78418 286.54539
 == 709-th k-point (0.09213,0.46064,0.27639) occupation: 6==
 -23.85914 -1.46291 -0.68034 -0.03695 0.00206 0.02398 0.47515 0.64021 0.75116 0.76589
 0.97027 1.17978 1.21149 1.37515 1.42873 1.48133 1.61874 1.70679 1.80659 1.88814
 1.98563 2.02585 2.22888 2.34605 2.36361 2.48823 2.59048 2.75135 2.86027 2.86558
 2.90054 2.96927 3.24332 3.53054 3.62378 3.89679 3.99571 4.18270 4.58609 4.74067
 4.83386 4.98844 5.14382 5.37231 5.49638 6.17744 6.18090 6.24662 6.34618 6.40966
 6.72015 7.47078 7.52422 7.89810 8.27979 8.50565 8.59890 11.59961 11.61177 11.61756
 11.62903 11.63976 11.64832 11.65530 11.68219 11.70163 12.14107 14.83637 14.90656 14.95237
 15.03598 15.12135 15.23966 15.29584 16.61026 16.66235 16.70235 16.75214 17.00115 17.27701
 55.77376 286.53207
 == 710-th k-point (0.18426,0.55277,0.18426) occupation: 6==
 -23.85914 -1.46264 -0.67733 -0.04751 0.00176 0.01399 0.49850 0.63540 0.73539 0.76629
 0.91643 1.26501 1.27025 1.38738 1.44384 1.46792 1.60679 1.74190 1.79871 1.92045
 1.99041 2.06939 2.20911 2.23761 2.35706 2.46536 2.61654 2.66610 2.78483 2.85685
 2.88335 2.98841 3.02126 3.50378 3.77231 3.80660 3.87420 4.15079 4.56203 4.69202
 4.78728 5.04642 5.14122 5.31278 5.45862 6.01852 6.11891 6.22756 6.27548 6.42246
 6.52789 7.43292 7.55071 8.11923 8.23074 8.34911 8.50000 11.60808 11.61862 11.61866
 11.63929 11.64734 11.65178 11.66621 11.68736 11.70648 12.50748 14.83370 14.91282 14.92518
 15.06854 15.12496 15.21365 15.29357 16.55036 16.58734 16.69669 16.70059 16.89333 17.24844
 55.79953 286.56355
 == 711-th k-point (-0.46064,-0.27639,1.01341) occupation: 6==
 -23.85914 -1.46250 -0.67677 -0.05049 -0.00321 0.02043 0.48668 0.62476 0.74025 0.74839
 1.04564 1.13217 1.27111 1.39598 1.40384 1.47472 1.66000 1.78379 1.92384 1.93943
 1.96843 2.04813 2.18282 2.26996 2.32229 2.44719 2.46994 2.53493 2.73054 2.80030
 2.84826 2.87402 3.42656 3.59883 3.65325 3.75248 3.78123 4.10988 4.57425 4.74360
 4.98845 5.18760 5.22960 5.46826 5.51963 6.04250 6.10027 6.22132 6.43200 6.45883
 6.67204 7.37882 7.63545 7.99133 8.12330 8.27441 8.50779 11.61073 11.61484 11.62064
 11.62546 11.63674 11.65125 11.65732 11.66805 11.68095 12.28133 14.82169 14.90666 15.04720
 15.14034 15.16263 15.29323 15.33422 16.52516 16.58869 16.68531 16.86495 17.04902 17.27986
 55.86586 286.65629
 == 712-th k-point (-0.36851,-0.18426,0.92129) occupation: 6==
 -23.85914 -1.46223 -0.67317 -0.04627 -0.02737 0.01324 0.53786 0.60151 0.72717 0.74964
 1.01465 1.11369 1.34713 1.36607 1.44084 1.54804 1.70953 1.83208 1.91402 1.96750
 2.00263 2.03125 2.20576 2.26811 2.28351 2.36665 2.46355 2.48682 2.60452 2.75760
 2.80199 2.88348 3.34371 3.45873 3.54850 3.68368 3.78716 3.85910 4.65903 4.86042
 5.03697 5.25774 5.40940 5.46692 5.49501 5.60165 5.94273 6.08428 6.26315 6.36065
 6.78576 7.39982 7.62282 8.03647 8.22428 8.31984 8.37997 11.61385 11.61968 11.62680
 11.63259 11.63939 11.64931 11.65091 11.67267 11.70449 12.35235 14.86238 14.97805 15.07041
 15.18819 15.26995 15.31360 15.35577 16.21725 16.43807 16.59618 16.75842 16.99551 17.22472
 55.68363 286.42986
 == 713-th k-point (-0.27639,-0.09213,0.82916) occupation: 6==
 -23.85914 -1.46210 -0.67090 -0.05789 -0.02351 0.00607 0.58718 0.59056 0.69851 0.75845
 0.92518 1.20943 1.30605 1.44354 1.47577 1.64379 1.67587 1.81260 1.82847 1.94080
 1.98638 2.10651 2.11197 2.18168 2.30885 2.37254 2.42621 2.53593 2.64368 2.80818
 2.86763 3.05268 3.08717 3.44315 3.54126 3.70472 3.75448 4.06604 4.57835 4.84899
 4.96772 5.23757 5.31668 5.42838 5.53363 5.57812 5.95219 5.99890 6.26245 6.42091
 6.95752 7.41162 7.49873 7.74358 8.28636 8.47668 8.67878 11.61245 11.62533 11.62973
 11.63340 11.64554 11.64789 11.65517 11.68633 11.79297 12.39484 14.82127 14.96349 15.04963
 15.16322 15.29518 15.30417 15.38386 16.16965 16.45412 16.52342 16.72844 16.88055 17.57795
 55.87414 286.65825
 == 714-th k-point (-0.18426,-0.00000,0.73703) occupation: 6==
 -23.85914 -1.46217 -0.67112 -0.06574 -0.01013 0.00313 0.57251 0.62294 0.69196 0.77070
 0.85592 1.27407 1.34298 1.43863 1.58379 1.58675 1.61580 1.70834 1.86018 1.88420
 1.99327 2.01153 2.14454 2.19071 2.26888 2.35553 2.42894 2.62850 2.67444 2.86815
 2.89582 3.08298 3.26013 3.48365 3.78839 3.79672 4.02520 4.60756 4.75757 4.83113
 5.03824 5.08389 5.14413 5.30679 5.80103 5.81129 5.96683 6.22855 6.34303 6.41273
 7.51532 7.58597 7.71698 8.06380 8.20645 8.51209 11.60665 11.62007 11.62402 11.63297
 11.64457 11.64733 11.66082 11.67069 11.74631 12.63182 14.84990 14.90434 14.94737 15.07881
 15.08982 15.16848 15.24863 16.28932 16.33299 16.66203 16.68155 16.75979 17.12452 55.59106
 286.30465
 == 715-th k-point (-0.09213,0.09213,0.64490) occupation: 6==
 -23.85914 -1.46241 -0.67370 -0.05981 -0.00131 0.00486 0.54384 0.64168 0.71084 0.78082
 0.82337 1.29053 1.36267 1.45934 1.51592 1.53743 1.56905 1.69085 1.79316 1.83498
 1.97995 2.01128 2.15697 2.30466 2.37293 2.47739 2.54327 2.67878 2.68456 2.80503
 2.87758 3.01185 3.13409 3.51253 3.78299 3.84363 4.09069 4.69594 4.71443 4.88738
 4.94907 4.97714 5.06252 5.14342 5.83802 5.97014 6.02638 6.20371 6.32600 6.35966
 7.57677 7.61511 7.78762 8.10353 8.26753 8.36296 11.60253 11.61657 11.62523 11.63411
 11.64197 11.64444 11.64618 11.67676 11.72789 12.82897 14.89944 14.91825 14.97246 15.01420
 15.04005 15.10374 15.13210 16.43871 16.49512 16.61139 16.71238 16.73335 16.85860 55.38813
 286.04820
 == 716-th k-point (0.00000,0.18426,0.55277) occupation: 6==
 -23.85914 -1.46270 -0.67735 -0.04490 -0.00104 0.01285 0.51041 0.64421 0.73018 0.77503
 0.86995 1.24477 1.35270 1.35795 1.46932 1.49118 1.61474 1.71257 1.71350 1.87073
 2.03303 2.06025 2.13737 2.34733 2.36064 2.51016 2.54515 2.62695 2.87090 2.87798
 2.94656 3.04931 3.23068 3.50983 3.84894 3.86716 3.95321 4.59520 4.80212 4.86175
 4.87079 4.99251 5.12305 5.21680 6.01009 6.11724 6.12727 6.23507 6.35407 6.43409
 7.49136 7.53060 7.60049 8.13790 8.31966 8.43509 11.60568 11.62081 11.62833 11.63019
 11.63649 11.64359 11.65218 11.66323 11.69324 12.37887 14.84752 14.93191 14.96413 14.98157
 15.03911 15.10736 15.17941 16.51882 16.56728 16.66304 16.74453 16.83432 17.00520 55.59755
 286.31288
 == 717-th k-point (0.09213,0.27639,0.46064) occupation: 6==
 -23.85914 -1.46291 -0.68034 -0.03695 0.00206 0.02398 0.47515 0.64021 0.75116 0.76589
 0.97027 1.17978 1.21149 1.37515 1.42873 1.48133 1.61874 1.70679 1.80659 1.88814
 1.98563 2.02585 2.22888 2.34605 2.36361 2.48823 2.59048 2.75135 2.86027 2.86558
 2.90054 2.96927 3.24332 3.53054 3.62378 3.89679 3.99571 4.18270 4.58609 4.74067
 4.83386 4.98844 5.14382 5.37231 5.49638 6.17744 6.18090 6.24662 6.34618 6.40966
 6.72015 7.47078 7.52422 7.89810 8.27979 8.50565 8.59890 11.59961 11.61177 11.61756
 11.62903 11.63976 11.64832 11.65530 11.68219 11.70163 12.14107 14.83637 14.90656 14.95237
 15.03598 15.12135 15.23966 15.29584 16.61026 16.66235 16.70235 16.75214 17.00115 17.27701
 55.77376 286.53207
 == 718-th k-point (0.18426,0.36851,0.36851) occupation: 6==
 -23.85914 -1.46294 -0.68137 -0.04346 0.01435 0.02951 0.45087 0.64710 0.75324 0.75454
 1.09431 1.10866 1.16557 1.37108 1.40466 1.45308 1.64547 1.74647 1.84957 1.84977
 1.92854 1.98787 2.31175 2.34437 2.42254 2.51390 2.56185 2.68427 2.79896 2.79962
 2.87801 2.94123 2.95019 3.53138 3.60095 3.62230 3.91740 3.91774 4.24034 4.50906
 4.75633 4.98768 5.09545 5.37216 5.49425 5.54615 6.17598 6.22459 6.25064 6.46933
 6.70110 6.78830 7.41196 7.77061 7.82604 8.36063 8.49577 8.61531 11.60901 11.60996
 11.61933 11.62651 11.62870 11.66327 11.66744 11.68927 11.70261 12.62719 14.79765 14.91527
 15.04405 15.08906 15.25343 15.29537 15.34386 16.65021 16.65426 16.73105 16.85917 17.10453
 17.40309 55.90062 286.68992
 == 719-th k-point (0.27639,0.46064,0.27639) occupation: 6==
 -23.85914 -1.46278 -0.67998 -0.05017 0.01890 0.02317 0.45392 0.64649 0.74355 0.74897
 1.04417 1.19863 1.20438 1.33821 1.42226 1.42573 1.67159 1.74416 1.82947 1.89898
 1.95298 2.01077 2.27765 2.30998 2.41287 2.43796 2.56580 2.66386 2.70667 2.79085
 2.89279 2.89590 2.96986 3.54395 3.64715 3.76093 3.82451 3.88384 4.21636 4.47650
 4.76265 4.99963 5.10050 5.39466 5.51436 5.53320 6.16096 6.18965 6.25132 6.63131
 6.64825 6.77651 7.36759 7.71992 8.04483 8.28565 8.38573 8.49621 11.61252 11.61462
 11.62421 11.62832 11.64123 11.66091 11.66442 11.67354 11.70720 12.71532 14.78274 14.91903
 15.05486 15.10105 15.25917 15.33054 15.33637 16.61710 16.66084 16.71149 16.99885 17.04038
 17.54508 56.00948 286.82413
 == 720-th k-point (-0.36851,-0.36851,1.10554) occupation: 6==
 -23.85914 -1.46261 -0.67868 -0.05568 0.01477 0.02542 0.45408 0.64189 0.73961 0.74036
 1.11921 1.16715 1.18731 1.35095 1.41160 1.43293 1.67270 1.75057 1.86558 1.98524
 2.00090 2.01665 2.13066 2.33173 2.34209 2.38188 2.54155 2.71019 2.74501 2.78028
 2.83049 2.83555 2.94820 3.57173 3.69585 3.71326 3.80286 3.85743 4.19272 4.42049
 4.76040 5.04080 5.11023 5.42828 5.49108 5.54857 6.15048 6.16773 6.19626 6.61129
 6.74017 6.95825 7.46394 7.64281 7.91925 8.05338 8.44603 8.47703 11.61273 11.61627
 11.62307 11.62607 11.62848 11.66144 11.66523 11.66911 11.71232 12.77750 14.75319 14.91660
 15.07643 15.10462 15.27815 15.30290 15.35738 16.60585 16.65018 16.66921 17.00820 17.09011
 17.78892 56.26139 287.13832
 == 721-th k-point (-0.27639,-0.27639,1.01341) occupation: 6==
 -23.85914 -1.46238 -0.67528 -0.05199 -0.00946 0.01726 0.50221 0.61759 0.73758 0.75139
 0.99504 1.21828 1.24075 1.39285 1.42962 1.47271 1.70921 1.73987 1.93228 1.97950
 2.01808 2.06205 2.17761 2.23145 2.29333 2.34301 2.40639 2.61938 2.69169 2.74844
 2.86996 2.88950 2.93260 3.46043 3.55801 3.66969 3.78007 3.84681 4.10014 4.55596
 4.75145 5.14556 5.20530 5.35926 5.50643 5.51266 5.92517 6.04934 6.18450 6.37707
 6.61247 6.69774 7.41011 7.73654 8.10530 8.30079 8.44979 8.48318 11.61178 11.62473
 11.62634 11.63671 11.64627 11.65201 11.65912 11.68308 11.70300 12.65798 14.82945 14.90923
 15.12802 15.15756 15.23892 15.31894 15.36026 16.49974 16.52018 16.68720 16.85994 17.04913
 17.26268 55.82673 286.60993
 == 722-th k-point (-0.18426,-0.18426,0.92129) occupation: 6==
 -23.85914 -1.46218 -0.67185 -0.05958 -0.01648 0.00758 0.55955 0.60408 0.71600 0.76724
 0.88942 1.28794 1.33715 1.35755 1.44731 1.58227 1.72873 1.72939 1.91109 1.94729
 2.02273 2.06394 2.08475 2.17204 2.32315 2.33946 2.41959 2.61024 2.62668 2.74033
 2.88891 2.95882 2.97591 3.33364 3.50284 3.56500 3.84100 3.86093 3.91191 4.78554
 4.80032 5.06989 5.28173 5.31822 5.48887 5.50241 5.77010 5.84150 6.12480 6.32512
 6.66206 6.70905 7.43362 7.89119 8.15604 8.34365 8.47971 8.48910 11.60698 11.62031
 11.63500 11.63804 11.64927 11.65151 11.66817 11.71137 11.71495 12.64542 14.92226 14.96648
 15.07774 15.21393 15.28200 15.30555 15.34747 16.31813 16.32775 16.65858 16.74203 17.01240
 17.40996 55.82515 286.59630
 == 723-th k-point (-0.09213,-0.09213,0.82916) occupation: 6==
 -23.85914 -1.46211 -0.67005 -0.07257 -0.00663 0.00085 0.58464 0.62473 0.68936 0.78060
 0.81741 1.28590 1.42675 1.44849 1.48159 1.66728 1.70554 1.71341 1.84810 1.85711
 1.93059 2.05078 2.15953 2.19604 2.20385 2.27822 2.34893 2.62504 2.74070 2.84182
 2.88765 3.02684 3.12010 3.46097 3.86863 3.89231 4.09345 4.64546 4.83467 4.92678
 4.98137 5.01270 5.44839 5.46805 5.51287 5.54490 5.81862 6.22480 6.30541 6.33155
 7.53360 7.85425 7.97288 8.03520 8.48846 8.66630 11.59760 11.60784 11.61347 11.63315
 11.64702 11.64771 11.65227 11.67993 11.74203 13.04646 14.86386 14.94682 14.98443 15.02236
 15.08166 15.33814 15.36447 16.06415 16.11187 16.56498 16.68356 16.73220 16.97516 55.44700
 286.11797
 == 724-th k-point (0.00000,-0.00000,0.73703) occupation: 6==
 -23.85914 -1.46220 -0.67080 -0.07277 -0.00019 -0.00019 0.57302 0.64781 0.69075 0.78606
 0.78606 1.28033 1.43419 1.52411 1.60356 1.60357 1.63595 1.63596 1.68746 1.88802
 1.92966 1.92968 2.24806 2.27080 2.31499 2.31500 2.37624 2.66235 2.72547 2.83138
 2.83218 2.88937 3.11893 3.49340 3.87000 3.87006 4.16348 4.82728 4.89981 4.91553
 4.91560 5.09546 5.15669 5.15685 5.73475 5.83641 5.83643 6.13365 6.30812 6.31207
 7.57859 8.02565 8.02587 8.07148 8.45775 8.45782 11.59613 11.60829 11.60829 11.61918
 11.64466 11.64647 11.64647 11.68161 11.74064 13.24754 14.93968 14.98981 15.00864 15.00865
 15.10447 15.19026 15.19028 16.29569 16.29569 16.56707 16.58359 16.72088 16.82529 55.30969
 285.94342
 == 725-th k-point (0.09213,0.09213,0.64490) occupation: 6==
 -23.85914 -1.46241 -0.67370 -0.05981 -0.00131 0.00486 0.54384 0.64168 0.71084 0.78082
 0.82337 1.29054 1.36267 1.45933 1.51592 1.53742 1.56905 1.69084 1.79319 1.83499
 1.97991 2.01128 2.15697 2.30460 2.37287 2.47740 2.54287 2.67868 2.68425 2.80471
 2.87757 3.01082 3.13403 3.51248 3.78297 3.84364 4.08963 4.69577 4.71443 4.88731
 4.94901 4.97715 5.06244 5.14338 5.83791 5.97015 6.02638 6.20365 6.32600 6.35962
 7.57677 7.61505 7.78762 8.10331 8.26747 8.36278 11.60253 11.61657 11.62523 11.63411
 11.64197 11.64444 11.64618 11.67676 11.72787 12.82860 14.89943 14.91825 14.97245 15.01419
 15.04005 15.10373 15.13210 16.43871 16.49512 16.61138 16.71231 16.73335 16.85858 55.38812
 286.04819
 == 726-th k-point (0.18426,0.18426,0.55277) occupation: 6==
 -23.85914 -1.46264 -0.67733 -0.04751 0.00176 0.01399 0.49850 0.63540 0.73539 0.76629
 0.91643 1.26501 1.27025 1.38738 1.44384 1.46792 1.60679 1.74190 1.79871 1.92045
 1.99041 2.06939 2.20911 2.23761 2.35706 2.46536 2.61654 2.66610 2.78483 2.85685
 2.88335 2.98841 3.02126 3.50378 3.77231 3.80660 3.87420 4.15079 4.56203 4.69202
 4.78728 5.04642 5.14122 5.31278 5.45862 6.01852 6.11891 6.22756 6.27548 6.42246
 6.52789 7.43292 7.55071 8.11923 8.23074 8.34911 8.50000 11.60808 11.61862 11.61866
 11.63929 11.64734 11.65178 11.66621 11.68736 11.70648 12.50748 14.83370 14.91282 14.92518
 15.06854 15.12496 15.21365 15.29357 16.55036 16.58734 16.69669 16.70059 16.89333 17.24844
 55.79953 286.56355
 == 727-th k-point (0.27639,0.27639,0.46064) occupation: 6==
 -23.85914 -1.46278 -0.67998 -0.05017 0.01890 0.02317 0.45392 0.64649 0.74355 0.74897
 1.04417 1.19863 1.20438 1.33821 1.42226 1.42573 1.67159 1.74416 1.82947 1.89898
 1.95298 2.01077 2.27765 2.30998 2.41287 2.43796 2.56580 2.66386 2.70667 2.79085
 2.89279 2.89590 2.96986 3.54395 3.64715 3.76093 3.82451 3.88384 4.21636 4.47650
 4.76265 4.99963 5.10050 5.39466 5.51436 5.53320 6.16096 6.18965 6.25132 6.63131
 6.64825 6.77651 7.36759 7.71992 8.04483 8.28565 8.38573 8.49621 11.61252 11.61462
 11.62421 11.62832 11.64123 11.66091 11.66442 11.67354 11.70720 12.71532 14.78274 14.91903
 15.05486 15.10105 15.25917 15.33054 15.33637 16.61710 16.66084 16.71149 16.99885 17.04038
 17.54508 56.00948 286.82413
 == 728-th k-point (0.36851,0.36851,0.36851) occupation: 6==
 -23.85914 -1.46277 -0.68051 -0.05558 0.02783 0.02783 0.43507 0.65647 0.73826 0.73826
 1.15072 1.17623 1.17623 1.29750 1.41348 1.41348 1.72910 1.72910 1.80980 1.90115
 1.99584 1.99584 2.20386 2.34807 2.34807 2.47953 2.72991 2.73637 2.73637 2.87558
 2.87558 2.87907 2.95996 3.59239 3.59239 3.76696 3.76696 3.79325 4.20867 4.43911
 4.76599 5.22357 5.22357 5.50576 5.50576 5.58839 6.11358 6.11358 6.17622 6.46271
 6.46271 7.00085 7.00085 7.10252 7.34762 8.10362 8.23078 8.23078 11.60226 11.60226
 11.61908 11.62813 11.62813 11.66627 11.66627 11.67016 11.73566 13.15927 14.75479 14.92167
 15.16780 15.16780 15.31228 15.31228 15.44918 16.59445 16.59445 16.68551 16.91440 16.91440
 17.87161 56.26988 287.14305
 ---------------------------------------------------------------------------
 VBM is at 364-th k-point with 0.98254 eV
 CBM is at 364-th k-point with 10.17361 eV
 Band gap is 9.19107 eV


           Ground-State Mulliken Net Atomic Charges

      Atom                 Charge (a.u.)          Spin (a.u.)
   --------------------------------------------------------
      1 Li                (0.075128,0.000000)    (0.000000,0.000000)
      2  F              (-0.075128,-0.000000)    (0.000000,0.000000)
   --------------------------------------------------------
  Sum of atomic charges =      (-0.000000,0.000000)
  Sum of spin   charges =       (0.000000,0.000000)



 Total job time:  1584.09 s.
 Tue Sep  9 04:29:33 2025


        *************************************************************
        *                                                           *
        *  Thank you very much for using QCPBC. Have a nice day.    *
        *                                                           *
        *************************************************************

Running job 1 of 1
