                  Welcome to Q-Chem
           with Periodic Boundary Condition
     A Quantum Leap Into The Future Of Chemistry

 Adam Rettig, Xintian Feng, Meng-Fu Chen, Hieu Dinh, Stephen Quiton,
 Anton Ni, Paul J. Robinson, Jinghong Zhang, Joonho Lee

Contributors to earlier versions of Q-Chem not listed above:
 Evgeny Epifanovsky, Leo Cunha, Jerome F. Gonthier, Kuan-Yu Liu
 Input file: /n/netscratch/joonholee_lab/Lab/hieudinh//lif_solve_def2qzvp_omega_0.9_666.scratch20250909005619/lif_solve_def2qzvp_omega_0.9_666.0
 Scratch folder: /n/netscratch/joonholee_lab/Lab/hieudinh//lif_solve_def2qzvp_omega_0.9_666.scratch20250909005619
 Auxillary files located at: /n/holylabs/LABS/joonholee_lab/Lab/qchem_base/qcaux
 Q-Chem begins on Tue Sep  9 00:56:20 2025

 -------------------------------------------------------------
 User input:
 -------------------------------------------------------------
 $lattice
 3
 0.000000 2.005000 2.005000
 2.005000 0.000000 2.005000
 2.005000 2.005000 0.000000
 $end
 
 $unitcell
 ABSOLUTE
 0 1
 Li 0.000000 0.000000 0.000000
 F  2.005000 0.000000 0.000000
 $end
 
 $rem
 jobtype = sp
 method = pbe
 scf_convergence = 5
 scf_guess = autosad
 scf_algorithm = gdm
 basis = def2-qzvp
 aux_basis = gen
 input_bohr = false
 symmetry false
 is_basis_uctr true
 rsdf_print_level 1
 
 mp_mesh = [6,6,6]
 
 integral_direct true
 bvk_cgto true
 
 thresh 14
 mem_total 100000
 threads 32
 
 MAX_SCF_CYCLES 400
 madelung = false
 omega 0.9
 do_rij_bigmem true
 automate_g true
 print_level 10
 grid_type_xc 1
 
 thresh_1e2c_sp 1e-14
 thresh_2e3c_bra_ket_sep 1e-10
 thresh_g 1e-12
 $end
 
 $aux_basis
 Li     0
 S   7   1.00
     498.3689730              0.0207908
     162.9342738              0.0542177
      57.3246735              0.1776783
      21.6427314              0.4181150
       8.7345375              0.6535245
       3.7491039              0.5492618
       1.7006754              0.1701425
 S   1   1.00
       0.8090859             -0.0097548
 S   1   1.00
       0.4000933             -0.0050152
 S   1   1.00
       0.2035793              0.0232200
 !S   1   1.00
 !      0.1054201              0.0134535
 !S   1   1.00
 !      0.0549139              0.0006647
 P   2   1.00
      10.7024696              0.0072923
       3.6551543              0.0060940
 P   1   1.00
       1.2464013              0.0172529
 P   1   1.00
       0.4246282             -0.0160026
 P   1   1.00
       0.1446192             -0.0195111
 D   2   1.00
       1.1510647             -0.0014314
       0.6019112              0.0038969
 D   1   1.00
       0.3109573              0.0024683
 D   1   1.00
       0.1600032              0.0036451
 F   2   1.00
       0.5967918              0.0010494
       0.1790687              0.0006468
 G   1   1.00
       1.0460130             -0.0001971
 ****
 F     0
 S   7   1.00
    3514.9201549              0.1805835
    1231.2458815              0.3676084
     454.1367336              1.2707881
     175.8376258              2.8274164
      71.2081775              4.3588226
      30.0316883              2.7180994
      13.1259023             -0.0804726
 S   1   1.00
       5.9126861             -0.0023370
 S   1   1.00
       2.7284431              1.1236274
 S   1   1.00
       1.2813993              0.9999042
 S   1   1.00
       0.6082793              0.3119579
 S   1   1.00
       0.2897894              0.0312295
 P   2   1.00
      49.3740409             -0.0346332
      13.4874956             -0.0096069
 P   1   1.00
       3.9664900              0.0762067
 P   1   1.00
       1.2226629             -0.0103329
 P   1   1.00
       0.3830317              0.0018853
 D   2   1.00
      29.9719140             -0.0113316
       6.7860915             -0.0467639
 D   1   1.00
       1.8137313             -0.0167604
 D   1   1.00
       0.5157840             -0.0050777
 F   2   1.00
       2.8301877              1.0
       0.9155962              1.0
 G   1   1.00
       1.6097500             -0.0005411
 ****
 $end
 -------------------------------------------------------------
 Running PBC job

 Requested Exchange Correlation Functionals: 
  DFT Exchange:  1.00000 pbe_x
  DFT Correlation:  1.00000 pbe_c
 using 32 threads for computing.
 ---------------------------------------------------------------
      Coordinates of Atoms in Central Unit Cell (Angstroms)
    I     Atom         X            Y            Z
 ---------------------------------------------------------------
    1      Li      0.000000     0.000000     0.000000
    2       F      2.005000     0.000000     0.000000
 ---------------------------------------------------------------
 --------------------------------------------------
              Lattice Vectors (Angstroms)
              X            Y            Z
 --------------------------------------------------
   X       0.000000     2.005000     2.005000
   Y       2.005000     0.000000     2.005000
   Z       2.005000     2.005000     0.000000
 --------------------------------------------------
 --------------------------------------------------
       Reciprocal Lattice Vectors (Angstroms^-1)
              X            Y            Z
 --------------------------------------------------
   X      -1.566879     1.566879     1.566879
   Y       1.566879    -1.566879     1.566879
   Z       1.566879     1.566879    -1.566879
 --------------------------------------------------

 Single point calculation requested

 Hamiltonian contributions:
 List of terms in Hamiltonian: kpts_nn, kpts_kinetic, kpts_vnuc_df, kpts_xc, kpts_rij_bigmem

 K-Points calculation started.

 Basis set information about using solid harmonic (1) or Cartesian (0):
  li : D(1) D(1) F(1) 
  f : D(1) D(1) D(1) F(1) F(1) G(1) 

 Basis set information about using solid harmonic (1) or Cartesian (0):
  li : D(1) D(1) D(1) F(1) G(1) 
  f : D(1) D(1) D(1) F(1) G(1) 

 There are 92 basis functions in the central unit cell.
 Print atomic basis of atoms in the central unit cell:
 -------------------------------------------------------------
2 53 53 30

  0.00000000000000e+00  0.00000000000000e+00  0.00000000000000e+00
  3.78890087987467e+00  0.00000000000000e+00  0.00000000000000e+00

  1.48539770850000e+04
  2.22522364770000e+03
  5.04887390080000e+02
  1.42458475480000e+02
  4.63155995800000e+01
  1.66553354740000e+01
  6.43311861990000e+00
  2.60270438580000e+00
  1.08972454050000e+00
  4.42365959710000e+00
  1.23563949900000e+00
  4.60674706020000e-01
  9.66171669550000e-02
  4.59154522960000e-02
  2.11400487300000e-02
  3.26051092060000e+00
  6.50030431150000e-01
  1.69416710730000e-01
  3.32700000000000e+00
  5.57323437670000e-02
  2.04899592410000e-02
  2.30000000000000e-01
  7.57000000000000e-02
  1.35000000000000e-01
  1.32535973450000e+05
  1.97581125880000e+04
  4.48519969470000e+03
  1.27381510200000e+03
  4.18938312360000e+02
  1.52557219850000e+02
  5.98215248230000e+01
  2.48190769320000e+01
  1.00744466730000e+02
  3.01037282900000e+01
  1.08142832720000e+01
  4.81728867700000e+00
  1.65593342130000e+00
  6.48935195820000e-01
  2.47781045450000e-01
  2.40966541140000e+02
  5.70206997810000e+01
  1.81269521200000e+01
  6.64574046210000e+00
  2.63757228920000e+00
  1.06382172000000e+00
  4.19325627500000e-01
  1.57475882990000e-01
  5.01400000000000e+00
  1.72500000000000e+00
  5.86000000000000e-01
  3.56200000000000e+00
  1.14800000000000e+00
  2.37600000000000e+00

  4.67593013229757e-02
  8.76137465723478e-02
  1.51821576860780e-01
  2.46527731442678e-01
  3.74140539449148e-01
  5.14323804423000e-01
  6.00677517411378e-01
  5.44460466941871e-01
  3.21097242154446e-01
  2.72734215356930e-01
  7.53702662810338e-01
  3.98525272814913e-01
  1.23509628755786e-01
  7.06934606713439e-02
  3.95129614058778e-02
  2.22230636644090e-01
  1.62952044217479e-01
  1.33842808684561e-01
  6.40480761295544e+00
  3.85988372286674e-02
  1.10501063034648e-02
  1.25728336426159e-01
  1.79815549832937e-02
  1.62631785032468e-02
  3.86107783813291e-01
  7.24648975903829e-01
  1.25045495963763e+00
  2.01518764389143e+00
  3.04056815166578e+00
  4.21268576129244e+00
  5.00944268647146e+00
  4.54693835849554e+00
  2.32503271092484e+00
  8.41440806306271e+00
  4.25019052011886e+00
  2.31745919743391e+00
  1.04038060130896e+00
  5.15301123337211e-01
  2.50300174847139e-01
  3.49166780573024e+00
  4.61886090108967e+00
  5.17964869303152e+00
  4.78626212475628e+00
  3.24578400123904e+00
  1.54001926672016e+00
  4.80982576947690e-01
  1.41402684040663e-01
  2.76523492268872e+01
  4.27356565232165e+00
  6.45996677345861e-01
  2.56605380682814e+01
  2.00827738540458e+00
  1.20230076986570e+01

0 0 0 0 1 1 1
0 0 
9 0

0 1 1 9 1 1 1
9 0 
2 0

0 2 2 11 1 1 1
11 0 
1 0

0 3 3 12 1 1 1
12 0 
1 0

0 4 4 13 1 1 1
13 0 
1 0

0 5 5 14 1 1 1
14 0 
1 0

0 6 6 15 1 3 3
15 1 
3 0

0 9 9 18 1 3 3
18 1 
1 0

0 12 12 19 1 3 3
19 1 
1 0

0 15 15 20 1 3 3
20 1 
1 0

0 18 18 21 1 5 6
21 2 
1 1

0 23 23 22 1 5 6
22 2 
1 1

0 28 28 23 1 7 10
23 3 
1 1

1 35 35 24 1 1 1
24 0 
8 0

1 36 36 32 1 1 1
32 0 
2 0

1 37 37 34 1 1 1
34 0 
1 0

1 38 38 35 1 1 1
35 0 
1 0

1 39 39 36 1 1 1
36 0 
1 0

1 40 40 37 1 1 1
37 0 
1 0

1 41 41 38 1 1 1
38 0 
1 0

1 42 42 39 1 3 3
39 1 
5 0

1 45 45 44 1 3 3
44 1 
1 0

1 48 48 45 1 3 3
45 1 
1 0

1 51 51 46 1 3 3
46 1 
1 0

1 54 54 47 1 5 6
47 2 
1 1

1 59 59 48 1 5 6
48 2 
1 1

1 64 64 49 1 5 6
49 2 
1 1

1 69 69 50 1 7 10
50 3 
1 1

1 76 76 51 1 7 10
51 3 
1 1

1 83 83 52 1 9 15
52 4 
1 1

 -------------------------------------------------------------
 Allocate 136872 B from available memory: 104857600000 B
 There are 15625 image cells after screening.
 There are 17628 image cells for CGTO evaluation after screening.
 Real-Space grid for FFT initialized based on kinetic energy cutoff (eV) = 500.0
 Real-Space grid for FFT: (8,8,8)
 There are 4913 real-space grid points.
 There are 27 batches of real-space grid points. 
 Size of each grid batch is around 128
 Grid for AFT initialized based on kinetic energy cutoff (eV) = 500.0
 Real-Space grid for AFT: (8,8,8)
 There are 4913 real-space grid points.

 There are 5912 atom-centered grid points.

 Spacegroup symmetry group: Fm-3m
 Reducing spacegroup symmetry to symmorphic group: F m -3 m
 Monkhorst-Pack mesh is [6,6,6]
 There are 216 k points.
kpoints in Bohr
-0.2763855758 -0.2763855758 -0.2763855758
-0.1381927879 -0.1381927879 -0.4145783636
-0.0000000000 0.0000000000 -0.5527711515
0.1381927879 0.1381927879 -0.6909639394
0.2763855758 0.2763855758 -0.8291567273
0.4145783636 0.4145783636 -0.9673495152
-0.1381927879 -0.4145783636 -0.1381927879
-0.0000000000 -0.2763855758 -0.2763855758
0.1381927879 -0.1381927879 -0.4145783636
0.2763855758 0.0000000000 -0.5527711515
0.4145783636 0.1381927879 -0.6909639394
0.5527711515 0.2763855758 -0.8291567273
-0.0000000000 -0.5527711515 -0.0000000000
0.1381927879 -0.4145783636 -0.1381927879
0.2763855758 -0.2763855758 -0.2763855758
0.4145783636 -0.1381927879 -0.4145783636
0.5527711515 0.0000000000 -0.5527711515
0.6909639394 0.1381927879 -0.6909639394
0.1381927879 -0.6909639394 0.1381927879
0.2763855758 -0.5527711515 -0.0000000000
0.4145783636 -0.4145783636 -0.1381927879
0.5527711515 -0.2763855758 -0.2763855758
0.6909639394 -0.1381927879 -0.4145783636
0.8291567273 0.0000000000 -0.5527711515
0.2763855758 -0.8291567273 0.2763855758
0.4145783636 -0.6909639394 0.1381927879
0.5527711515 -0.5527711515 -0.0000000000
0.6909639394 -0.4145783636 -0.1381927879
0.8291567273 -0.2763855758 -0.2763855758
0.9673495152 -0.1381927879 -0.4145783636
0.4145783636 -0.9673495152 0.4145783636
0.5527711515 -0.8291567273 0.2763855758
0.6909639394 -0.6909639394 0.1381927879
0.8291567273 -0.5527711515 -0.0000000000
0.9673495152 -0.4145783636 -0.1381927879
1.1055423031 -0.2763855758 -0.2763855758
-0.4145783636 -0.1381927879 -0.1381927879
-0.2763855758 0.0000000000 -0.2763855758
-0.1381927879 0.1381927879 -0.4145783636
-0.0000000000 0.2763855758 -0.5527711515
0.1381927879 0.4145783636 -0.6909639394
0.2763855758 0.5527711515 -0.8291567273
-0.2763855758 -0.2763855758 -0.0000000000
-0.1381927879 -0.1381927879 -0.1381927879
-0.0000000000 0.0000000000 -0.2763855758
0.1381927879 0.1381927879 -0.4145783636
0.2763855758 0.2763855758 -0.5527711515
0.4145783636 0.4145783636 -0.6909639394
-0.1381927879 -0.4145783636 0.1381927879
-0.0000000000 -0.2763855758 -0.0000000000
0.1381927879 -0.1381927879 -0.1381927879
0.2763855758 0.0000000000 -0.2763855758
0.4145783636 0.1381927879 -0.4145783636
0.5527711515 0.2763855758 -0.5527711515
0.0000000000 -0.5527711515 0.2763855758
0.1381927879 -0.4145783636 0.1381927879
0.2763855758 -0.2763855758 -0.0000000000
0.4145783636 -0.1381927879 -0.1381927879
0.5527711515 0.0000000000 -0.2763855758
0.6909639394 0.1381927879 -0.4145783636
0.1381927879 -0.6909639394 0.4145783636
0.2763855758 -0.5527711515 0.2763855758
0.4145783636 -0.4145783636 0.1381927879
0.5527711515 -0.2763855758 -0.0000000000
0.6909639394 -0.1381927879 -0.1381927879
0.8291567273 0.0000000000 -0.2763855758
0.2763855758 -0.8291567273 0.5527711515
0.4145783636 -0.6909639394 0.4145783636
0.5527711515 -0.5527711515 0.2763855758
0.6909639394 -0.4145783636 0.1381927879
0.8291567273 -0.2763855758 -0.0000000000
0.9673495152 -0.1381927879 -0.1381927879
-0.5527711515 0.0000000000 0.0000000000
-0.4145783636 0.1381927879 -0.1381927879
-0.2763855758 0.2763855758 -0.2763855758
-0.1381927879 0.4145783636 -0.4145783636
-0.0000000000 0.5527711515 -0.5527711515
0.1381927879 0.6909639394 -0.6909639394
-0.4145783636 -0.1381927879 0.1381927879
-0.2763855758 0.0000000000 0.0000000000
-0.1381927879 0.1381927879 -0.1381927879
-0.0000000000 0.2763855758 -0.2763855758
0.1381927879 0.4145783636 -0.4145783636
0.2763855758 0.5527711515 -0.5527711515
-0.2763855758 -0.2763855758 0.2763855758
-0.1381927879 -0.1381927879 0.1381927879
0.0000000000 0.0000000000 0.0000000000
0.1381927879 0.1381927879 -0.1381927879
0.2763855758 0.2763855758 -0.2763855758
0.4145783636 0.4145783636 -0.4145783636
-0.1381927879 -0.4145783636 0.4145783636
0.0000000000 -0.2763855758 0.2763855758
0.1381927879 -0.1381927879 0.1381927879
0.2763855758 -0.0000000000 0.0000000000
0.4145783636 0.1381927879 -0.1381927879
0.5527711515 0.2763855758 -0.2763855758
0.0000000000 -0.5527711515 0.5527711515
0.1381927879 -0.4145783636 0.4145783636
0.2763855758 -0.2763855758 0.2763855758
0.4145783636 -0.1381927879 0.1381927879
0.5527711515 -0.0000000000 0.0000000000
0.6909639394 0.1381927879 -0.1381927879
0.1381927879 -0.6909639394 0.6909639394
0.2763855758 -0.5527711515 0.5527711515
0.4145783636 -0.4145783636 0.4145783636
0.5527711515 -0.2763855758 0.2763855758
0.6909639394 -0.1381927879 0.1381927879
0.8291567273 -0.0000000000 0.0000000000
-0.6909639394 0.1381927879 0.1381927879
-0.5527711515 0.2763855758 0.0000000000
-0.4145783636 0.4145783636 -0.1381927879
-0.2763855758 0.5527711515 -0.2763855758
-0.1381927879 0.6909639394 -0.4145783636
-0.0000000000 0.8291567273 -0.5527711515
-0.5527711515 -0.0000000000 0.2763855758
-0.4145783636 0.1381927879 0.1381927879
-0.2763855758 0.2763855758 0.0000000000
-0.1381927879 0.4145783636 -0.1381927879
-0.0000000000 0.5527711515 -0.2763855758
0.1381927879 0.6909639394 -0.4145783636
-0.4145783636 -0.1381927879 0.4145783636
-0.2763855758 -0.0000000000 0.2763855758
-0.1381927879 0.1381927879 0.1381927879
0.0000000000 0.2763855758 0.0000000000
0.1381927879 0.4145783636 -0.1381927879
0.2763855758 0.5527711515 -0.2763855758
-0.2763855758 -0.2763855758 0.5527711515
-0.1381927879 -0.1381927879 0.4145783636
0.0000000000 -0.0000000000 0.2763855758
0.1381927879 0.1381927879 0.1381927879
0.2763855758 0.2763855758 0.0000000000
0.4145783636 0.4145783636 -0.1381927879
-0.1381927879 -0.4145783636 0.6909639394
0.0000000000 -0.2763855758 0.5527711515
0.1381927879 -0.1381927879 0.4145783636
0.2763855758 -0.0000000000 0.2763855758
0.4145783636 0.1381927879 0.1381927879
0.5527711515 0.2763855758 0.0000000000
0.0000000000 -0.5527711515 0.8291567273
0.1381927879 -0.4145783636 0.6909639394
0.2763855758 -0.2763855758 0.5527711515
0.4145783636 -0.1381927879 0.4145783636
0.5527711515 -0.0000000000 0.2763855758
0.6909639394 0.1381927879 0.1381927879
-0.8291567273 0.2763855758 0.2763855758
-0.6909639394 0.4145783636 0.1381927879
-0.5527711515 0.5527711515 0.0000000000
-0.4145783636 0.6909639394 -0.1381927879
-0.2763855758 0.8291567273 -0.2763855758
-0.1381927879 0.9673495152 -0.4145783636
-0.6909639394 0.1381927879 0.4145783636
-0.5527711515 0.2763855758 0.2763855758
-0.4145783636 0.4145783636 0.1381927879
-0.2763855758 0.5527711515 0.0000000000
-0.1381927879 0.6909639394 -0.1381927879
0.0000000000 0.8291567273 -0.2763855758
-0.5527711515 -0.0000000000 0.5527711515
-0.4145783636 0.1381927879 0.4145783636
-0.2763855758 0.2763855758 0.2763855758
-0.1381927879 0.4145783636 0.1381927879
0.0000000000 0.5527711515 0.0000000000
0.1381927879 0.6909639394 -0.1381927879
-0.4145783636 -0.1381927879 0.6909639394
-0.2763855758 -0.0000000000 0.5527711515
-0.1381927879 0.1381927879 0.4145783636
0.0000000000 0.2763855758 0.2763855758
0.1381927879 0.4145783636 0.1381927879
0.2763855758 0.5527711515 0.0000000000
-0.2763855758 -0.2763855758 0.8291567273
-0.1381927879 -0.1381927879 0.6909639394
0.0000000000 -0.0000000000 0.5527711515
0.1381927879 0.1381927879 0.4145783636
0.2763855758 0.2763855758 0.2763855758
0.4145783636 0.4145783636 0.1381927879
-0.1381927879 -0.4145783636 0.9673495152
0.0000000000 -0.2763855758 0.8291567273
0.1381927879 -0.1381927879 0.6909639394
0.2763855758 -0.0000000000 0.5527711515
0.4145783636 0.1381927879 0.4145783636
0.5527711515 0.2763855758 0.2763855758
-0.9673495152 0.4145783636 0.4145783636
-0.8291567273 0.5527711515 0.2763855758
-0.6909639394 0.6909639394 0.1381927879
-0.5527711515 0.8291567273 0.0000000000
-0.4145783636 0.9673495152 -0.1381927879
-0.2763855758 1.1055423031 -0.2763855758
-0.8291567273 0.2763855758 0.5527711515
-0.6909639394 0.4145783636 0.4145783636
-0.5527711515 0.5527711515 0.2763855758
-0.4145783636 0.6909639394 0.1381927879
-0.2763855758 0.8291567273 0.0000000000
-0.1381927879 0.9673495152 -0.1381927879
-0.6909639394 0.1381927879 0.6909639394
-0.5527711515 0.2763855758 0.5527711515
-0.4145783636 0.4145783636 0.4145783636
-0.2763855758 0.5527711515 0.2763855758
-0.1381927879 0.6909639394 0.1381927879
0.0000000000 0.8291567273 0.0000000000
-0.5527711515 -0.0000000000 0.8291567273
-0.4145783636 0.1381927879 0.6909639394
-0.2763855758 0.2763855758 0.5527711515
-0.1381927879 0.4145783636 0.4145783636
0.0000000000 0.5527711515 0.2763855758
0.1381927879 0.6909639394 0.1381927879
-0.4145783636 -0.1381927879 0.9673495152
-0.2763855758 -0.0000000000 0.8291567273
-0.1381927879 0.1381927879 0.6909639394
0.0000000000 0.2763855758 0.5527711515
0.1381927879 0.4145783636 0.4145783636
0.2763855758 0.5527711515 0.2763855758
-0.2763855758 -0.2763855758 1.1055423031
-0.1381927879 -0.1381927879 0.9673495152
0.0000000000 -0.0000000000 0.8291567273
0.1381927879 0.1381927879 0.6909639394
0.2763855758 0.2763855758 0.5527711515
0.4145783636 0.4145783636 0.4145783636
 There are 6 alpha and 6 beta electrons
 Start computing overlap matrix
 Allocate 29251584 B from available memory: 104857463136 B
 Time for computing overlap matrix: 30.9030000000 s
 ====== Initialize compute kernels for all-electron RI-J (kpts) ====== 
 ========================================================== 
 Range-separated parameter omega        = 0.900000000000000022
 Threshold for 1e2c shellpair           = 0.000000000000010000
 Threshold for 2e2c SR integral         = 0.000000000000000001
 Threshold for 2e3c SR integral         = 0.000000000100000000
 Threshold for AFT G-space screening is = 0.000000000001000000
 The exponent cutoff for C/D classification (omega2 / 2) is  = 0.405000000000000027
 ========================================================== 
 === Post process the basis set for RI calculation (exp_cutoff = 0.405000000000000027 ) === 
nshells_b1 before uncontraction = 30
nshells_b1 after uncontraction = 31
nshells_baux before uncontraction = 28
nshells_baux after uncontraction = 28
===============================================
nbsf total   = 95
nbsf compact = 62
nbsf diffuse = 33
naux total   = 96
naux compact = 96
naux diffuse = 0
nshells_bnuc = 2

 Number of unique atoms is 2
 Unique atom #0 (li) has 5 shells.
 Unique atom #1 (f) has 15 shells.

Shell 0 to 4 belongs to atom li
Shell 5 to 19 belongs to atom f

 Number of unique atoms is 2
 Unique atom #0 (li) has 9 shells.
 Unique atom #1 (f) has 2 shells.

Shell 0 to 8 belongs to atom li
Shell 9 to 10 belongs to atom f

 Number of unique atom is 2
 Unique atom #0 (li) has 13 auxiliary shells.
 Unique atom #1 (f) has 15 auxiliary shells.

Auxiliary Shell 0 to 12 belongs to atom li
Auxiliary Shell 13 to 27 belongs to atom f

================= Automatically determine grid size for reciprocal space summation =================
 Range-separated parameter = 0.90000000000000 and G-space screening threshold = 0.00000000000100
The number of grid points along each axis dimension is (7, 7, 7)
Total number of grid points = 3375

Use nonortho shellpair for diffuse density
======== Initializing relevant kernel for RIJ (DD type) ========
There are 66 shellpairs in the reference unit cell
There are 25941 images and we expect to have 1712106 in total
There are 76578 shellpairs in the lattice sum after screening
======== Initializing relevant kernel for RIJ (CD type) ========
There are 220 shellpairs in the reference unit cell
There are 14723 images and we expect to have 3239060 in total
There are 127133 shellpairs in the lattice sum after screening
****** AFT -> SR ******
Maximum bra distance cutoff is 39.000000000000
Maximum bra ket distance cutoff is 19.798524149198
Maximum bra ket screening distance is 18.500000000000
Number of auxiliary image is 3829
There are 220 shellpairs in the reference unit cell
There are 3829 images and we expect to have 842380 in total
There are 127133 shellpairs in the lattice sum after screening
Available memory per thread for 2e3c calculation is 3.275881611000Gb
Finish initializing 2e3c SR with the lattice sum!
=================================================
======== Initializing relevant kernel for RIJ (CC type) ========
There are 207 shellpairs in the reference unit cell
There are 911 images and we expect to have 188577 in total
There are 3549 shellpairs in the lattice sum after screening
****** AFT -> SR ******
Maximum bra distance cutoff is 12.000000000000
Maximum bra ket distance cutoff is 19.972536543678
Maximum bra ket screening distance is 17.437500000000
Number of auxiliary image is 815
There are 207 shellpairs in the reference unit cell
There are 285 images and we expect to have 58995 in total
There are 3549 shellpairs in the lattice sum after screening
Available memory per thread for 2e3c calculation is 3.275881611000Gb
Finish initializing 2e3c SR with the lattice sum!
=================================================
======== Initializing the SR component for Vnuc (CD type) ========
Maximum bra distance cutoff is 39.000000000000
Maximum bra ket distance cutoff is 11.063391972349
Maximum bra ket screening distance is 9.533997011915
Number of auxiliary image is 3829
There are 220 shellpairs in the reference unit cell
There are 3829 images and we expect to have 842380 in total
There are 127133 shellpairs in the lattice sum after screening
Available memory per thread for 2e3c calculation is 3.275881611000Gb
Finish initializing 2e3c SR with the lattice sum!
=================================================
======== Initialize the SR component for Vnuc (CC type) ========
Maximum bra distance cutoff is 12.000000000000
Maximum bra ket distance cutoff is 12.009370768794
Maximum bra ket screening distance is 7.998388684828
Number of auxiliary image is 285
There are 207 shellpairs in the reference unit cell
There are 285 images and we expect to have 58995 in total
There are 3549 shellpairs in the lattice sum after screening
Available memory per thread for 2e3c calculation is 3.275881611000Gb
Finish initializing 2e3c SR with the lattice sum!
=================================================
 Aufbau occupation scheme, occupation determined by eigenvalue
 == 0-th k-point nmo = 83 (-0.27639,-0.27639,-0.27639) ==
 == 1-th k-point nmo = 82 (-0.13819,-0.13819,-0.41458) ==
 == 2-th k-point nmo = 81 (-0.00000,0.00000,-0.55277) ==
 == 3-th k-point nmo = 82 (0.13819,0.13819,-0.69096) ==
 == 4-th k-point nmo = 83 (0.27639,0.27639,-0.82916) ==
 == 5-th k-point nmo = 83 (0.41458,0.41458,-0.96735) ==
 == 6-th k-point nmo = 82 (-0.13819,-0.41458,-0.13819) ==
 == 7-th k-point nmo = 81 (-0.00000,-0.27639,-0.27639) ==
 == 8-th k-point nmo = 82 (0.13819,-0.13819,-0.41458) ==
 == 9-th k-point nmo = 82 (0.27639,0.00000,-0.55277) ==
 == 10-th k-point nmo = 82 (0.41458,0.13819,-0.69096) ==
 == 11-th k-point nmo = 82 (0.55277,0.27639,-0.82916) ==
 == 12-th k-point nmo = 81 (-0.00000,-0.55277,-0.00000) ==
 == 13-th k-point nmo = 82 (0.13819,-0.41458,-0.13819) ==
 == 14-th k-point nmo = 83 (0.27639,-0.27639,-0.27639) ==
 == 15-th k-point nmo = 83 (0.41458,-0.13819,-0.41458) ==
 == 16-th k-point nmo = 83 (0.55277,0.00000,-0.55277) ==
 == 17-th k-point nmo = 82 (0.69096,0.13819,-0.69096) ==
 == 18-th k-point nmo = 82 (0.13819,-0.69096,0.13819) ==
 == 19-th k-point nmo = 82 (0.27639,-0.55277,-0.00000) ==
 == 20-th k-point nmo = 83 (0.41458,-0.41458,-0.13819) ==
 == 21-th k-point nmo = 83 (0.55277,-0.27639,-0.27639) ==
 == 22-th k-point nmo = 82 (0.69096,-0.13819,-0.41458) ==
 == 23-th k-point nmo = 82 (0.82916,0.00000,-0.55277) ==
 == 24-th k-point nmo = 83 (0.27639,-0.82916,0.27639) ==
 == 25-th k-point nmo = 82 (0.41458,-0.69096,0.13819) ==
 == 26-th k-point nmo = 83 (0.55277,-0.55277,-0.00000) ==
 == 27-th k-point nmo = 82 (0.69096,-0.41458,-0.13819) ==
 == 28-th k-point nmo = 83 (0.82916,-0.27639,-0.27639) ==
 == 29-th k-point nmo = 82 (0.96735,-0.13819,-0.41458) ==
 == 30-th k-point nmo = 83 (0.41458,-0.96735,0.41458) ==
 == 31-th k-point nmo = 82 (0.55277,-0.82916,0.27639) ==
 == 32-th k-point nmo = 82 (0.69096,-0.69096,0.13819) ==
 == 33-th k-point nmo = 82 (0.82916,-0.55277,-0.00000) ==
 == 34-th k-point nmo = 82 (0.96735,-0.41458,-0.13819) ==
 == 35-th k-point nmo = 83 (1.10554,-0.27639,-0.27639) ==
 == 36-th k-point nmo = 82 (-0.41458,-0.13819,-0.13819) ==
 == 37-th k-point nmo = 81 (-0.27639,0.00000,-0.27639) ==
 == 38-th k-point nmo = 82 (-0.13819,0.13819,-0.41458) ==
 == 39-th k-point nmo = 82 (-0.00000,0.27639,-0.55277) ==
 == 40-th k-point nmo = 82 (0.13819,0.41458,-0.69096) ==
 == 41-th k-point nmo = 82 (0.27639,0.55277,-0.82916) ==
 == 42-th k-point nmo = 81 (-0.27639,-0.27639,-0.00000) ==
 == 43-th k-point nmo = 82 (-0.13819,-0.13819,-0.13819) ==
 == 44-th k-point nmo = 81 (-0.00000,0.00000,-0.27639) ==
 == 45-th k-point nmo = 82 (0.13819,0.13819,-0.41458) ==
 == 46-th k-point nmo = 83 (0.27639,0.27639,-0.55277) ==
 == 47-th k-point nmo = 83 (0.41458,0.41458,-0.69096) ==
 == 48-th k-point nmo = 82 (-0.13819,-0.41458,0.13819) ==
 == 49-th k-point nmo = 81 (-0.00000,-0.27639,-0.00000) ==
 == 50-th k-point nmo = 82 (0.13819,-0.13819,-0.13819) ==
 == 51-th k-point nmo = 81 (0.27639,0.00000,-0.27639) ==
 == 52-th k-point nmo = 83 (0.41458,0.13819,-0.41458) ==
 == 53-th k-point nmo = 83 (0.55277,0.27639,-0.55277) ==
 == 54-th k-point nmo = 82 (0.00000,-0.55277,0.27639) ==
 == 55-th k-point nmo = 82 (0.13819,-0.41458,0.13819) ==
 == 56-th k-point nmo = 81 (0.27639,-0.27639,-0.00000) ==
 == 57-th k-point nmo = 82 (0.41458,-0.13819,-0.13819) ==
 == 58-th k-point nmo = 82 (0.55277,0.00000,-0.27639) ==
 == 59-th k-point nmo = 82 (0.69096,0.13819,-0.41458) ==
 == 60-th k-point nmo = 82 (0.13819,-0.69096,0.41458) ==
 == 61-th k-point nmo = 83 (0.27639,-0.55277,0.27639) ==
 == 62-th k-point nmo = 83 (0.41458,-0.41458,0.13819) ==
 == 63-th k-point nmo = 82 (0.55277,-0.27639,-0.00000) ==
 == 64-th k-point nmo = 82 (0.69096,-0.13819,-0.13819) ==
 == 65-th k-point nmo = 82 (0.82916,0.00000,-0.27639) ==
 == 66-th k-point nmo = 82 (0.27639,-0.82916,0.55277) ==
 == 67-th k-point nmo = 83 (0.41458,-0.69096,0.41458) ==
 == 68-th k-point nmo = 83 (0.55277,-0.55277,0.27639) ==
 == 69-th k-point nmo = 82 (0.69096,-0.41458,0.13819) ==
 == 70-th k-point nmo = 82 (0.82916,-0.27639,-0.00000) ==
 == 71-th k-point nmo = 82 (0.96735,-0.13819,-0.13819) ==
 == 72-th k-point nmo = 81 (-0.55277,0.00000,0.00000) ==
 == 73-th k-point nmo = 82 (-0.41458,0.13819,-0.13819) ==
 == 74-th k-point nmo = 83 (-0.27639,0.27639,-0.27639) ==
 == 75-th k-point nmo = 83 (-0.13819,0.41458,-0.41458) ==
 == 76-th k-point nmo = 83 (-0.00000,0.55277,-0.55277) ==
 == 77-th k-point nmo = 82 (0.13819,0.69096,-0.69096) ==
 == 78-th k-point nmo = 82 (-0.41458,-0.13819,0.13819) ==
 == 79-th k-point nmo = 81 (-0.27639,0.00000,0.00000) ==
 == 80-th k-point nmo = 82 (-0.13819,0.13819,-0.13819) ==
 == 81-th k-point nmo = 81 (-0.00000,0.27639,-0.27639) ==
 == 82-th k-point nmo = 83 (0.13819,0.41458,-0.41458) ==
 == 83-th k-point nmo = 83 (0.27639,0.55277,-0.55277) ==
 == 84-th k-point nmo = 83 (-0.27639,-0.27639,0.27639) ==
 == 85-th k-point nmo = 82 (-0.13819,-0.13819,0.13819) ==
 == 86-th k-point nmo = 83 (0.00000,0.00000,0.00000) ==
 == 87-th k-point nmo = 82 (0.13819,0.13819,-0.13819) ==
 == 88-th k-point nmo = 83 (0.27639,0.27639,-0.27639) ==
 == 89-th k-point nmo = 83 (0.41458,0.41458,-0.41458) ==
 == 90-th k-point nmo = 83 (-0.13819,-0.41458,0.41458) ==
 == 91-th k-point nmo = 81 (0.00000,-0.27639,0.27639) ==
 == 92-th k-point nmo = 82 (0.13819,-0.13819,0.13819) ==
 == 93-th k-point nmo = 81 (0.27639,-0.00000,0.00000) ==
 == 94-th k-point nmo = 82 (0.41458,0.13819,-0.13819) ==
 == 95-th k-point nmo = 83 (0.55277,0.27639,-0.27639) ==
 == 96-th k-point nmo = 83 (0.00000,-0.55277,0.55277) ==
 == 97-th k-point nmo = 83 (0.13819,-0.41458,0.41458) ==
 == 98-th k-point nmo = 83 (0.27639,-0.27639,0.27639) ==
 == 99-th k-point nmo = 82 (0.41458,-0.13819,0.13819) ==
 == 100-th k-point nmo = 81 (0.55277,-0.00000,0.00000) ==
 == 101-th k-point nmo = 82 (0.69096,0.13819,-0.13819) ==
 == 102-th k-point nmo = 82 (0.13819,-0.69096,0.69096) ==
 == 103-th k-point nmo = 83 (0.27639,-0.55277,0.55277) ==
 == 104-th k-point nmo = 83 (0.41458,-0.41458,0.41458) ==
 == 105-th k-point nmo = 83 (0.55277,-0.27639,0.27639) ==
 == 106-th k-point nmo = 82 (0.69096,-0.13819,0.13819) ==
 == 107-th k-point nmo = 81 (0.82916,-0.00000,0.00000) ==
 == 108-th k-point nmo = 82 (-0.69096,0.13819,0.13819) ==
 == 109-th k-point nmo = 82 (-0.55277,0.27639,0.00000) ==
 == 110-th k-point nmo = 83 (-0.41458,0.41458,-0.13819) ==
 == 111-th k-point nmo = 83 (-0.27639,0.55277,-0.27639) ==
 == 112-th k-point nmo = 82 (-0.13819,0.69096,-0.41458) ==
 == 113-th k-point nmo = 82 (-0.00000,0.82916,-0.55277) ==
 == 114-th k-point nmo = 82 (-0.55277,-0.00000,0.27639) ==
 == 115-th k-point nmo = 82 (-0.41458,0.13819,0.13819) ==
 == 116-th k-point nmo = 81 (-0.27639,0.27639,0.00000) ==
 == 117-th k-point nmo = 82 (-0.13819,0.41458,-0.13819) ==
 == 118-th k-point nmo = 82 (-0.00000,0.55277,-0.27639) ==
 == 119-th k-point nmo = 82 (0.13819,0.69096,-0.41458) ==
 == 120-th k-point nmo = 83 (-0.41458,-0.13819,0.41458) ==
 == 121-th k-point nmo = 81 (-0.27639,-0.00000,0.27639) ==
 == 122-th k-point nmo = 82 (-0.13819,0.13819,0.13819) ==
 == 123-th k-point nmo = 81 (0.00000,0.27639,0.00000) ==
 == 124-th k-point nmo = 82 (0.13819,0.41458,-0.13819) ==
 == 125-th k-point nmo = 83 (0.27639,0.55277,-0.27639) ==
 == 126-th k-point nmo = 83 (-0.27639,-0.27639,0.55277) ==
 == 127-th k-point nmo = 82 (-0.13819,-0.13819,0.41458) ==
 == 128-th k-point nmo = 81 (0.00000,-0.00000,0.27639) ==
 == 129-th k-point nmo = 82 (0.13819,0.13819,0.13819) ==
 == 130-th k-point nmo = 81 (0.27639,0.27639,0.00000) ==
 == 131-th k-point nmo = 83 (0.41458,0.41458,-0.13819) ==
 == 132-th k-point nmo = 82 (-0.13819,-0.41458,0.69096) ==
 == 133-th k-point nmo = 82 (0.00000,-0.27639,0.55277) ==
 == 134-th k-point nmo = 82 (0.13819,-0.13819,0.41458) ==
 == 135-th k-point nmo = 81 (0.27639,-0.00000,0.27639) ==
 == 136-th k-point nmo = 82 (0.41458,0.13819,0.13819) ==
 == 137-th k-point nmo = 82 (0.55277,0.27639,0.00000) ==
 == 138-th k-point nmo = 82 (0.00000,-0.55277,0.82916) ==
 == 139-th k-point nmo = 82 (0.13819,-0.41458,0.69096) ==
 == 140-th k-point nmo = 83 (0.27639,-0.27639,0.55277) ==
 == 141-th k-point nmo = 83 (0.41458,-0.13819,0.41458) ==
 == 142-th k-point nmo = 82 (0.55277,-0.00000,0.27639) ==
 == 143-th k-point nmo = 82 (0.69096,0.13819,0.13819) ==
 == 144-th k-point nmo = 83 (-0.82916,0.27639,0.27639) ==
 == 145-th k-point nmo = 82 (-0.69096,0.41458,0.13819) ==
 == 146-th k-point nmo = 83 (-0.55277,0.55277,0.00000) ==
 == 147-th k-point nmo = 82 (-0.41458,0.69096,-0.13819) ==
 == 148-th k-point nmo = 83 (-0.27639,0.82916,-0.27639) ==
 == 149-th k-point nmo = 82 (-0.13819,0.96735,-0.41458) ==
 == 150-th k-point nmo = 82 (-0.69096,0.13819,0.41458) ==
 == 151-th k-point nmo = 83 (-0.55277,0.27639,0.27639) ==
 == 152-th k-point nmo = 83 (-0.41458,0.41458,0.13819) ==
 == 153-th k-point nmo = 82 (-0.27639,0.55277,0.00000) ==
 == 154-th k-point nmo = 82 (-0.13819,0.69096,-0.13819) ==
 == 155-th k-point nmo = 82 (0.00000,0.82916,-0.27639) ==
 == 156-th k-point nmo = 83 (-0.55277,-0.00000,0.55277) ==
 == 157-th k-point nmo = 83 (-0.41458,0.13819,0.41458) ==
 == 158-th k-point nmo = 83 (-0.27639,0.27639,0.27639) ==
 == 159-th k-point nmo = 82 (-0.13819,0.41458,0.13819) ==
 == 160-th k-point nmo = 81 (0.00000,0.55277,0.00000) ==
 == 161-th k-point nmo = 82 (0.13819,0.69096,-0.13819) ==
 == 162-th k-point nmo = 82 (-0.41458,-0.13819,0.69096) ==
 == 163-th k-point nmo = 82 (-0.27639,-0.00000,0.55277) ==
 == 164-th k-point nmo = 82 (-0.13819,0.13819,0.41458) ==
 == 165-th k-point nmo = 81 (0.00000,0.27639,0.27639) ==
 == 166-th k-point nmo = 82 (0.13819,0.41458,0.13819) ==
 == 167-th k-point nmo = 82 (0.27639,0.55277,0.00000) ==
 == 168-th k-point nmo = 83 (-0.27639,-0.27639,0.82916) ==
 == 169-th k-point nmo = 82 (-0.13819,-0.13819,0.69096) ==
 == 170-th k-point nmo = 81 (0.00000,-0.00000,0.55277) ==
 == 171-th k-point nmo = 82 (0.13819,0.13819,0.41458) ==
 == 172-th k-point nmo = 83 (0.27639,0.27639,0.27639) ==
 == 173-th k-point nmo = 83 (0.41458,0.41458,0.13819) ==
 == 174-th k-point nmo = 82 (-0.13819,-0.41458,0.96735) ==
 == 175-th k-point nmo = 82 (0.00000,-0.27639,0.82916) ==
 == 176-th k-point nmo = 82 (0.13819,-0.13819,0.69096) ==
 == 177-th k-point nmo = 82 (0.27639,-0.00000,0.55277) ==
 == 178-th k-point nmo = 83 (0.41458,0.13819,0.41458) ==
 == 179-th k-point nmo = 83 (0.55277,0.27639,0.27639) ==
 == 180-th k-point nmo = 83 (-0.96735,0.41458,0.41458) ==
 == 181-th k-point nmo = 82 (-0.82916,0.55277,0.27639) ==
 == 182-th k-point nmo = 82 (-0.69096,0.69096,0.13819) ==
 == 183-th k-point nmo = 82 (-0.55277,0.82916,0.00000) ==
 == 184-th k-point nmo = 82 (-0.41458,0.96735,-0.13819) ==
 == 185-th k-point nmo = 83 (-0.27639,1.10554,-0.27639) ==
 == 186-th k-point nmo = 82 (-0.82916,0.27639,0.55277) ==
 == 187-th k-point nmo = 83 (-0.69096,0.41458,0.41458) ==
 == 188-th k-point nmo = 83 (-0.55277,0.55277,0.27639) ==
 == 189-th k-point nmo = 82 (-0.41458,0.69096,0.13819) ==
 == 190-th k-point nmo = 82 (-0.27639,0.82916,0.00000) ==
 == 191-th k-point nmo = 82 (-0.13819,0.96735,-0.13819) ==
 == 192-th k-point nmo = 82 (-0.69096,0.13819,0.69096) ==
 == 193-th k-point nmo = 83 (-0.55277,0.27639,0.55277) ==
 == 194-th k-point nmo = 83 (-0.41458,0.41458,0.41458) ==
 == 195-th k-point nmo = 83 (-0.27639,0.55277,0.27639) ==
 == 196-th k-point nmo = 82 (-0.13819,0.69096,0.13819) ==
 == 197-th k-point nmo = 81 (0.00000,0.82916,0.00000) ==
 == 198-th k-point nmo = 82 (-0.55277,-0.00000,0.82916) ==
 == 199-th k-point nmo = 82 (-0.41458,0.13819,0.69096) ==
 == 200-th k-point nmo = 83 (-0.27639,0.27639,0.55277) ==
 == 201-th k-point nmo = 83 (-0.13819,0.41458,0.41458) ==
 == 202-th k-point nmo = 82 (0.00000,0.55277,0.27639) ==
 == 203-th k-point nmo = 82 (0.13819,0.69096,0.13819) ==
 == 204-th k-point nmo = 82 (-0.41458,-0.13819,0.96735) ==
 == 205-th k-point nmo = 82 (-0.27639,-0.00000,0.82916) ==
 == 206-th k-point nmo = 82 (-0.13819,0.13819,0.69096) ==
 == 207-th k-point nmo = 82 (0.00000,0.27639,0.55277) ==
 == 208-th k-point nmo = 83 (0.13819,0.41458,0.41458) ==
 == 209-th k-point nmo = 83 (0.27639,0.55277,0.27639) ==
 == 210-th k-point nmo = 83 (-0.27639,-0.27639,1.10554) ==
 == 211-th k-point nmo = 82 (-0.13819,-0.13819,0.96735) ==
 == 212-th k-point nmo = 81 (0.00000,-0.00000,0.82916) ==
 == 213-th k-point nmo = 82 (0.13819,0.13819,0.69096) ==
 == 214-th k-point nmo = 83 (0.27639,0.27639,0.55277) ==
 == 215-th k-point nmo = 83 (0.41458,0.41458,0.41458) ==

 Generate autoSAD guess
backing up fragment data
Atom # 0: li, charge: 0, multiplicity: 2.000000
Atom # 1: f, charge: 0, multiplicity: 2.000000
writing autosad to fragment context
Settings for isolated fragments: 
  frgm_gamma: TRUE
  frgm_center: FALSE

    Running SCF for isolated atom #0
    Fragment Input file: /n/netscratch/joonholee_lab/Lab/hieudinh//lif_solve_def2qzvp_omega_0.9_666.scratch20250909005619/autosad_frgmt_0/frgmt_input.in
    Fragment Output file: /n/netscratch/joonholee_lab/Lab/hieudinh//lif_solve_def2qzvp_omega_0.9_666.scratch20250909005619/autosad_frgmt_0/frgmt_job.out
    Fragment job begins at Tue Sep  9 00:56:57 2025

 Integrated density by DFT XC:
   Numerical integral  =     3.000000007147
   Relative error      =     0.0000002382 %
Final energy components:
 DFT Correlation            Energy =  -0.05090044545114
 DFT Exchange               Energy =  -1.75144597421909
 Kinetic (alpha)            Energy =   3.82935284817783
 Kinetic (beta)             Energy =   3.58515893685386
 Nuclear Attraction (alpha) Energy =  -9.10791001172891
 Nuclear Attraction (beta)  Energy =  -8.01914849492519
 Nuclear Repulsion          Energy =   0.00000000000000
 SEOQF                      Energy =  -0.00000000000000
 Total Coulomb              Energy =   4.05291331077686
----------------------------------------------
    SCF Energy: -7.4619798305
   Total fragment job time:  0.49 s.
    Running SCF for isolated atom #1
    Fragment Input file: /n/netscratch/joonholee_lab/Lab/hieudinh//lif_solve_def2qzvp_omega_0.9_666.scratch20250909005619/autosad_frgmt_1/frgmt_input.in
    Fragment Output file: /n/netscratch/joonholee_lab/Lab/hieudinh//lif_solve_def2qzvp_omega_0.9_666.scratch20250909005619/autosad_frgmt_1/frgmt_job.out
    Fragment job begins at Tue Sep  9 00:56:57 2025

 Integrated density by DFT XC:
   Numerical integral  =     9.000000098353
   Relative error      =     0.0000010928 %
Final energy components:
 DFT Correlation            Energy =  -0.28943664182310
 DFT Exchange               Energy =  -9.96991500891564
 Kinetic (alpha)            Energy =  51.55258412072419
 Kinetic (beta)             Energy =  47.84820569403626
 Nuclear Attraction (alpha) Energy = -125.30574122940673
 Nuclear Attraction (beta)  Energy = -113.20186276241698
 Nuclear Repulsion          Energy =   0.00000000000000
 SEOQF                      Energy =  -0.00000000020726
 Total Coulomb              Energy =  49.69105360806793
----------------------------------------------
    SCF Energy: -99.6751122199
   Total fragment job time:  0.53 s.
restoring fragment data

 ------------------------------------------------------------------------
 Allocate 145565312 B from available memory: 104828211552 B
 Time for generating SCF guess: 1.09 s

 Allocate 446984 B from available memory: 104682646240 B
 Selected algorithms for each term:
  kpts_kinetic -> @0x15084750d680
  kpts_nn -> @0x15084750d800
  kpts_rij_bigmem -> @0x15084750d3e0
  kpts_vnuc_df -> @0x15084750d380
  kpts_xc -> @0x15084750d2c0
 Time for computing kinetic matrix is 27.25 s
Start calculating Vnuc DD type!
Start calculating Vnuc CD type!
Start calculating Vnuc CC type!
 Time for computing nuclear attraction matrix is 62.23 s
Compute (P|Q) and use solve on the fly!
Maximum distance between P and Q is 28.75642758820560
Number of images for (P|Qn) is 1873
 Time for computing 2e2c SR integral is 0.11 s
Maximum dynamic memory per thread for 2e3c SR integrals: 0.151 GiB
Batch size for basis function pair is 2046 out of 2046
 === bvk cell = 0 has 100.000 % of the basis function pairs === 
 === bvk cell = 1 has 100.000 % of the basis function pairs === 
 === bvk cell = 2 has 99.560 % of the basis function pairs === 
 === bvk cell = 3 has 70.723 % of the basis function pairs === 
 === bvk cell = 4 has 87.781 % of the basis function pairs === 
 === bvk cell = 5 has 100.000 % of the basis function pairs === 
 === bvk cell = 6 has 100.000 % of the basis function pairs === 
 === bvk cell = 7 has 99.756 % of the basis function pairs === 
 === bvk cell = 8 has 92.717 % of the basis function pairs === 
 === bvk cell = 9 has 55.376 % of the basis function pairs === 
 === bvk cell = 10 has 100.000 % of the basis function pairs === 
 === bvk cell = 11 has 100.000 % of the basis function pairs === 
 === bvk cell = 12 has 99.560 % of the basis function pairs === 
 === bvk cell = 13 has 92.717 % of the basis function pairs === 
 === bvk cell = 14 has 45.552 % of the basis function pairs === 
 === bvk cell = 15 has 58.700 % of the basis function pairs === 
 === bvk cell = 16 has 100.000 % of the basis function pairs === 
 === bvk cell = 17 has 100.000 % of the basis function pairs === 
 === bvk cell = 18 has 70.723 % of the basis function pairs === 
 === bvk cell = 19 has 55.376 % of the basis function pairs === 
 === bvk cell = 20 has 58.700 % of the basis function pairs === 
 === bvk cell = 21 has 42.766 % of the basis function pairs === 
 === bvk cell = 22 has 80.645 % of the basis function pairs === 
 === bvk cell = 23 has 84.409 % of the basis function pairs === 
 === bvk cell = 24 has 87.781 % of the basis function pairs === 
 === bvk cell = 25 has 100.000 % of the basis function pairs === 
 === bvk cell = 26 has 100.000 % of the basis function pairs === 
 === bvk cell = 27 has 80.645 % of the basis function pairs === 
 === bvk cell = 28 has 42.180 % of the basis function pairs === 
 === bvk cell = 29 has 55.621 % of the basis function pairs === 
 === bvk cell = 30 has 100.000 % of the basis function pairs === 
 === bvk cell = 31 has 100.000 % of the basis function pairs === 
 === bvk cell = 32 has 100.000 % of the basis function pairs === 
 === bvk cell = 33 has 84.409 % of the basis function pairs === 
 === bvk cell = 34 has 55.621 % of the basis function pairs === 
 === bvk cell = 35 has 91.691 % of the basis function pairs === 
 === bvk cell = 36 has 100.000 % of the basis function pairs === 
 === bvk cell = 37 has 100.000 % of the basis function pairs === 
 === bvk cell = 38 has 84.409 % of the basis function pairs === 
 === bvk cell = 39 has 55.621 % of the basis function pairs === 
 === bvk cell = 40 has 91.691 % of the basis function pairs === 
 === bvk cell = 41 has 100.000 % of the basis function pairs === 
 === bvk cell = 42 has 100.000 % of the basis function pairs === 
 === bvk cell = 43 has 94.233 % of the basis function pairs === 
 === bvk cell = 44 has 46.090 % of the basis function pairs === 
 === bvk cell = 45 has 60.508 % of the basis function pairs === 
 === bvk cell = 46 has 100.000 % of the basis function pairs === 
 === bvk cell = 47 has 100.000 % of the basis function pairs === 
 === bvk cell = 48 has 84.409 % of the basis function pairs === 
 === bvk cell = 49 has 46.090 % of the basis function pairs === 
 === bvk cell = 50 has 39.834 % of the basis function pairs === 
 === bvk cell = 51 has 58.700 % of the basis function pairs === 
 === bvk cell = 52 has 91.056 % of the basis function pairs === 
 === bvk cell = 53 has 99.169 % of the basis function pairs === 
 === bvk cell = 54 has 55.621 % of the basis function pairs === 
 === bvk cell = 55 has 60.508 % of the basis function pairs === 
 === bvk cell = 56 has 58.700 % of the basis function pairs === 
 === bvk cell = 57 has 42.424 % of the basis function pairs === 
 === bvk cell = 58 has 46.285 % of the basis function pairs === 
 === bvk cell = 59 has 47.263 % of the basis function pairs === 
 === bvk cell = 60 has 91.691 % of the basis function pairs === 
 === bvk cell = 61 has 100.000 % of the basis function pairs === 
 === bvk cell = 62 has 91.056 % of the basis function pairs === 
 === bvk cell = 63 has 46.285 % of the basis function pairs === 
 === bvk cell = 64 has 41.691 % of the basis function pairs === 
 === bvk cell = 65 has 64.272 % of the basis function pairs === 
 === bvk cell = 66 has 100.000 % of the basis function pairs === 
 === bvk cell = 67 has 100.000 % of the basis function pairs === 
 === bvk cell = 68 has 99.169 % of the basis function pairs === 
 === bvk cell = 69 has 47.263 % of the basis function pairs === 
 === bvk cell = 70 has 64.272 % of the basis function pairs === 
 === bvk cell = 71 has 100.000 % of the basis function pairs === 
 === bvk cell = 72 has 100.000 % of the basis function pairs === 
 === bvk cell = 73 has 80.645 % of the basis function pairs === 
 === bvk cell = 74 has 42.180 % of the basis function pairs === 
 === bvk cell = 75 has 55.621 % of the basis function pairs === 
 === bvk cell = 76 has 87.781 % of the basis function pairs === 
 === bvk cell = 77 has 100.000 % of the basis function pairs === 
 === bvk cell = 78 has 80.645 % of the basis function pairs === 
 === bvk cell = 79 has 42.424 % of the basis function pairs === 
 === bvk cell = 80 has 46.090 % of the basis function pairs === 
 === bvk cell = 81 has 55.376 % of the basis function pairs === 
 === bvk cell = 82 has 87.390 % of the basis function pairs === 
 === bvk cell = 83 has 91.056 % of the basis function pairs === 
 === bvk cell = 84 has 42.180 % of the basis function pairs === 
 === bvk cell = 85 has 46.090 % of the basis function pairs === 
 === bvk cell = 86 has 45.552 % of the basis function pairs === 
 === bvk cell = 87 has 42.913 % of the basis function pairs === 
 === bvk cell = 88 has 49.951 % of the basis function pairs === 
 === bvk cell = 89 has 46.285 % of the basis function pairs === 
 === bvk cell = 90 has 55.621 % of the basis function pairs === 
 === bvk cell = 91 has 55.376 % of the basis function pairs === 
 === bvk cell = 92 has 42.913 % of the basis function pairs === 
 === bvk cell = 93 has 39.394 % of the basis function pairs === 
 === bvk cell = 94 has 39.687 % of the basis function pairs === 
 === bvk cell = 95 has 41.691 % of the basis function pairs === 
 === bvk cell = 96 has 87.781 % of the basis function pairs === 
 === bvk cell = 97 has 87.390 % of the basis function pairs === 
 === bvk cell = 98 has 49.951 % of the basis function pairs === 
 === bvk cell = 99 has 39.687 % of the basis function pairs === 
 === bvk cell = 100 has 45.601 % of the basis function pairs === 
 === bvk cell = 101 has 64.272 % of the basis function pairs === 
 === bvk cell = 102 has 100.000 % of the basis function pairs === 
 === bvk cell = 103 has 91.056 % of the basis function pairs === 
 === bvk cell = 104 has 46.285 % of the basis function pairs === 
 === bvk cell = 105 has 41.691 % of the basis function pairs === 
 === bvk cell = 106 has 64.272 % of the basis function pairs === 
 === bvk cell = 107 has 91.691 % of the basis function pairs === 
 === bvk cell = 108 has 42.766 % of the basis function pairs === 
 === bvk cell = 109 has 80.645 % of the basis function pairs === 
 === bvk cell = 110 has 84.409 % of the basis function pairs === 
 === bvk cell = 111 has 70.723 % of the basis function pairs === 
 === bvk cell = 112 has 55.376 % of the basis function pairs === 
 === bvk cell = 113 has 58.700 % of the basis function pairs === 
 === bvk cell = 114 has 80.645 % of the basis function pairs === 
 === bvk cell = 115 has 94.233 % of the basis function pairs === 
 === bvk cell = 116 has 92.717 % of the basis function pairs === 
 === bvk cell = 117 has 69.208 % of the basis function pairs === 
 === bvk cell = 118 has 42.913 % of the basis function pairs === 
 === bvk cell = 119 has 42.424 % of the basis function pairs === 
 === bvk cell = 120 has 84.409 % of the basis function pairs === 
 === bvk cell = 121 has 92.717 % of the basis function pairs === 
 === bvk cell = 122 has 73.314 % of the basis function pairs === 
 === bvk cell = 123 has 45.503 % of the basis function pairs === 
 === bvk cell = 124 has 39.394 % of the basis function pairs === 
 === bvk cell = 125 has 46.285 % of the basis function pairs === 
 === bvk cell = 126 has 70.723 % of the basis function pairs === 
 === bvk cell = 127 has 69.208 % of the basis function pairs === 
 === bvk cell = 128 has 45.503 % of the basis function pairs === 
 === bvk cell = 129 has 37.341 % of the basis function pairs === 
 === bvk cell = 130 has 39.687 % of the basis function pairs === 
 === bvk cell = 131 has 47.263 % of the basis function pairs === 
 === bvk cell = 132 has 55.376 % of the basis function pairs === 
 === bvk cell = 133 has 42.913 % of the basis function pairs === 
 === bvk cell = 134 has 39.394 % of the basis function pairs === 
 === bvk cell = 135 has 39.687 % of the basis function pairs === 
 === bvk cell = 136 has 41.691 % of the basis function pairs === 
 === bvk cell = 137 has 55.621 % of the basis function pairs === 
 === bvk cell = 138 has 58.700 % of the basis function pairs === 
 === bvk cell = 139 has 42.424 % of the basis function pairs === 
 === bvk cell = 140 has 46.285 % of the basis function pairs === 
 === bvk cell = 141 has 47.263 % of the basis function pairs === 
 === bvk cell = 142 has 55.621 % of the basis function pairs === 
 === bvk cell = 143 has 60.508 % of the basis function pairs === 
 === bvk cell = 144 has 100.000 % of the basis function pairs === 
 === bvk cell = 145 has 100.000 % of the basis function pairs === 
 === bvk cell = 146 has 99.560 % of the basis function pairs === 
 === bvk cell = 147 has 92.717 % of the basis function pairs === 
 === bvk cell = 148 has 45.552 % of the basis function pairs === 
 === bvk cell = 149 has 58.700 % of the basis function pairs === 
 === bvk cell = 150 has 100.000 % of the basis function pairs === 
 === bvk cell = 151 has 99.756 % of the basis function pairs === 
 === bvk cell = 152 has 97.996 % of the basis function pairs === 
 === bvk cell = 153 has 73.314 % of the basis function pairs === 
 === bvk cell = 154 has 42.913 % of the basis function pairs === 
 === bvk cell = 155 has 91.056 % of the basis function pairs === 
 === bvk cell = 156 has 99.560 % of the basis function pairs === 
 === bvk cell = 157 has 97.996 % of the basis function pairs === 
 === bvk cell = 158 has 85.142 % of the basis function pairs === 
 === bvk cell = 159 has 45.503 % of the basis function pairs === 
 === bvk cell = 160 has 49.951 % of the basis function pairs === 
 === bvk cell = 161 has 99.169 % of the basis function pairs === 
 === bvk cell = 162 has 92.717 % of the basis function pairs === 
 === bvk cell = 163 has 73.314 % of the basis function pairs === 
 === bvk cell = 164 has 45.503 % of the basis function pairs === 
 === bvk cell = 165 has 39.394 % of the basis function pairs === 
 === bvk cell = 166 has 46.285 % of the basis function pairs === 
 === bvk cell = 167 has 84.409 % of the basis function pairs === 
 === bvk cell = 168 has 45.552 % of the basis function pairs === 
 === bvk cell = 169 has 42.913 % of the basis function pairs === 
 === bvk cell = 170 has 49.951 % of the basis function pairs === 
 === bvk cell = 171 has 46.285 % of the basis function pairs === 
 === bvk cell = 172 has 42.180 % of the basis function pairs === 
 === bvk cell = 173 has 46.090 % of the basis function pairs === 
 === bvk cell = 174 has 58.700 % of the basis function pairs === 
 === bvk cell = 175 has 91.056 % of the basis function pairs === 
 === bvk cell = 176 has 99.169 % of the basis function pairs === 
 === bvk cell = 177 has 84.409 % of the basis function pairs === 
 === bvk cell = 178 has 46.090 % of the basis function pairs === 
 === bvk cell = 179 has 39.834 % of the basis function pairs === 
 === bvk cell = 180 has 100.000 % of the basis function pairs === 
 === bvk cell = 181 has 100.000 % of the basis function pairs === 
 === bvk cell = 182 has 99.756 % of the basis function pairs === 
 === bvk cell = 183 has 92.717 % of the basis function pairs === 
 === bvk cell = 184 has 55.376 % of the basis function pairs === 
 === bvk cell = 185 has 100.000 % of the basis function pairs === 
 === bvk cell = 186 has 100.000 % of the basis function pairs === 
 === bvk cell = 187 has 100.000 % of the basis function pairs === 
 === bvk cell = 188 has 97.996 % of the basis function pairs === 
 === bvk cell = 189 has 69.208 % of the basis function pairs === 
 === bvk cell = 190 has 87.390 % of the basis function pairs === 
 === bvk cell = 191 has 100.000 % of the basis function pairs === 
 === bvk cell = 192 has 99.756 % of the basis function pairs === 
 === bvk cell = 193 has 97.996 % of the basis function pairs === 
 === bvk cell = 194 has 73.314 % of the basis function pairs === 
 === bvk cell = 195 has 42.913 % of the basis function pairs === 
 === bvk cell = 196 has 91.056 % of the basis function pairs === 
 === bvk cell = 197 has 100.000 % of the basis function pairs === 
 === bvk cell = 198 has 92.717 % of the basis function pairs === 
 === bvk cell = 199 has 69.208 % of the basis function pairs === 
 === bvk cell = 200 has 42.913 % of the basis function pairs === 
 === bvk cell = 201 has 42.424 % of the basis function pairs === 
 === bvk cell = 202 has 80.645 % of the basis function pairs === 
 === bvk cell = 203 has 94.233 % of the basis function pairs === 
 === bvk cell = 204 has 55.376 % of the basis function pairs === 
 === bvk cell = 205 has 87.390 % of the basis function pairs === 
 === bvk cell = 206 has 91.056 % of the basis function pairs === 
 === bvk cell = 207 has 80.645 % of the basis function pairs === 
 === bvk cell = 208 has 42.424 % of the basis function pairs === 
 === bvk cell = 209 has 46.090 % of the basis function pairs === 
 === bvk cell = 210 has 100.000 % of the basis function pairs === 
 === bvk cell = 211 has 100.000 % of the basis function pairs === 
 === bvk cell = 212 has 100.000 % of the basis function pairs === 
 === bvk cell = 213 has 94.233 % of the basis function pairs === 
 === bvk cell = 214 has 46.090 % of the basis function pairs === 
 === bvk cell = 215 has 60.508 % of the basis function pairs === 
Static memory requirement for 2e3c SR integrals: 0.227 GB
There are 1 munu batches for computing 2e3c SR integrals with latsum
There are 2 Q batches for computing 2e3c SR integrals with latsum
 Time for computing 2e3c SR integral (CD) is 6.62 s
Maximum dynamic memory per thread for 2e3c SR integrals: 0.016 GiB
Batch size for basis function pair is 2067 out of 2067
 === bvk cell = 0 has 100.000 % of the basis function pairs === 
 === bvk cell = 1 has 79.197 % of the basis function pairs === 
 === bvk cell = 2 has 7.837 % of the basis function pairs === 
 === bvk cell = 3 has 0.000 % of the basis function pairs === 
 === bvk cell = 4 has 1.500 % of the basis function pairs === 
 === bvk cell = 5 has 65.506 % of the basis function pairs === 
 === bvk cell = 6 has 79.197 % of the basis function pairs === 
 === bvk cell = 7 has 22.738 % of the basis function pairs === 
 === bvk cell = 8 has 0.145 % of the basis function pairs === 
 === bvk cell = 9 has 0.000 % of the basis function pairs === 
 === bvk cell = 10 has 9.627 % of the basis function pairs === 
 === bvk cell = 11 has 72.134 % of the basis function pairs === 
 === bvk cell = 12 has 7.837 % of the basis function pairs === 
 === bvk cell = 13 has 0.145 % of the basis function pairs === 
 === bvk cell = 14 has 0.000 % of the basis function pairs === 
 === bvk cell = 15 has 0.000 % of the basis function pairs === 
 === bvk cell = 16 has 1.500 % of the basis function pairs === 
 === bvk cell = 17 has 15.820 % of the basis function pairs === 
 === bvk cell = 18 has 0.000 % of the basis function pairs === 
 === bvk cell = 19 has 0.000 % of the basis function pairs === 
 === bvk cell = 20 has 0.000 % of the basis function pairs === 
 === bvk cell = 21 has 0.000 % of the basis function pairs === 
 === bvk cell = 22 has 0.000 % of the basis function pairs === 
 === bvk cell = 23 has 0.000 % of the basis function pairs === 
 === bvk cell = 24 has 1.500 % of the basis function pairs === 
 === bvk cell = 25 has 9.627 % of the basis function pairs === 
 === bvk cell = 26 has 1.500 % of the basis function pairs === 
 === bvk cell = 27 has 0.000 % of the basis function pairs === 
 === bvk cell = 28 has 0.000 % of the basis function pairs === 
 === bvk cell = 29 has 0.000 % of the basis function pairs === 
 === bvk cell = 30 has 65.506 % of the basis function pairs === 
 === bvk cell = 31 has 72.134 % of the basis function pairs === 
 === bvk cell = 32 has 15.820 % of the basis function pairs === 
 === bvk cell = 33 has 0.000 % of the basis function pairs === 
 === bvk cell = 34 has 0.000 % of the basis function pairs === 
 === bvk cell = 35 has 10.353 % of the basis function pairs === 
 === bvk cell = 36 has 72.134 % of the basis function pairs === 
 === bvk cell = 37 has 15.820 % of the basis function pairs === 
 === bvk cell = 38 has 0.000 % of the basis function pairs === 
 === bvk cell = 39 has 0.000 % of the basis function pairs === 
 === bvk cell = 40 has 10.353 % of the basis function pairs === 
 === bvk cell = 41 has 65.506 % of the basis function pairs === 
 === bvk cell = 42 has 15.820 % of the basis function pairs === 
 === bvk cell = 43 has 0.145 % of the basis function pairs === 
 === bvk cell = 44 has 0.000 % of the basis function pairs === 
 === bvk cell = 45 has 0.000 % of the basis function pairs === 
 === bvk cell = 46 has 9.627 % of the basis function pairs === 
 === bvk cell = 47 has 33.817 % of the basis function pairs === 
 === bvk cell = 48 has 0.000 % of the basis function pairs === 
 === bvk cell = 49 has 0.000 % of the basis function pairs === 
 === bvk cell = 50 has 0.000 % of the basis function pairs === 
 === bvk cell = 51 has 0.000 % of the basis function pairs === 
 === bvk cell = 52 has 0.435 % of the basis function pairs === 
 === bvk cell = 53 has 0.581 % of the basis function pairs === 
 === bvk cell = 54 has 0.000 % of the basis function pairs === 
 === bvk cell = 55 has 0.000 % of the basis function pairs === 
 === bvk cell = 56 has 0.000 % of the basis function pairs === 
 === bvk cell = 57 has 0.000 % of the basis function pairs === 
 === bvk cell = 58 has 0.000 % of the basis function pairs === 
 === bvk cell = 59 has 0.000 % of the basis function pairs === 
 === bvk cell = 60 has 10.353 % of the basis function pairs === 
 === bvk cell = 61 has 9.627 % of the basis function pairs === 
 === bvk cell = 62 has 0.435 % of the basis function pairs === 
 === bvk cell = 63 has 0.000 % of the basis function pairs === 
 === bvk cell = 64 has 0.000 % of the basis function pairs === 
 === bvk cell = 65 has 0.581 % of the basis function pairs === 
 === bvk cell = 66 has 65.506 % of the basis function pairs === 
 === bvk cell = 67 has 33.817 % of the basis function pairs === 
 === bvk cell = 68 has 0.581 % of the basis function pairs === 
 === bvk cell = 69 has 0.000 % of the basis function pairs === 
 === bvk cell = 70 has 0.581 % of the basis function pairs === 
 === bvk cell = 71 has 28.641 % of the basis function pairs === 
 === bvk cell = 72 has 1.500 % of the basis function pairs === 
 === bvk cell = 73 has 0.000 % of the basis function pairs === 
 === bvk cell = 74 has 0.000 % of the basis function pairs === 
 === bvk cell = 75 has 0.000 % of the basis function pairs === 
 === bvk cell = 76 has 1.500 % of the basis function pairs === 
 === bvk cell = 77 has 9.627 % of the basis function pairs === 
 === bvk cell = 78 has 0.000 % of the basis function pairs === 
 === bvk cell = 79 has 0.000 % of the basis function pairs === 
 === bvk cell = 80 has 0.000 % of the basis function pairs === 
 === bvk cell = 81 has 0.000 % of the basis function pairs === 
 === bvk cell = 82 has 0.435 % of the basis function pairs === 
 === bvk cell = 83 has 0.435 % of the basis function pairs === 
 === bvk cell = 84 has 0.000 % of the basis function pairs === 
 === bvk cell = 85 has 0.000 % of the basis function pairs === 
 === bvk cell = 86 has 0.000 % of the basis function pairs === 
 === bvk cell = 87 has 0.000 % of the basis function pairs === 
 === bvk cell = 88 has 0.000 % of the basis function pairs === 
 === bvk cell = 89 has 0.000 % of the basis function pairs === 
 === bvk cell = 90 has 0.000 % of the basis function pairs === 
 === bvk cell = 91 has 0.000 % of the basis function pairs === 
 === bvk cell = 92 has 0.000 % of the basis function pairs === 
 === bvk cell = 93 has 0.000 % of the basis function pairs === 
 === bvk cell = 94 has 0.000 % of the basis function pairs === 
 === bvk cell = 95 has 0.000 % of the basis function pairs === 
 === bvk cell = 96 has 1.500 % of the basis function pairs === 
 === bvk cell = 97 has 0.435 % of the basis function pairs === 
 === bvk cell = 98 has 0.000 % of the basis function pairs === 
 === bvk cell = 99 has 0.000 % of the basis function pairs === 
 === bvk cell = 100 has 0.000 % of the basis function pairs === 
 === bvk cell = 101 has 0.581 % of the basis function pairs === 
 === bvk cell = 102 has 9.627 % of the basis function pairs === 
 === bvk cell = 103 has 0.435 % of the basis function pairs === 
 === bvk cell = 104 has 0.000 % of the basis function pairs === 
 === bvk cell = 105 has 0.000 % of the basis function pairs === 
 === bvk cell = 106 has 0.581 % of the basis function pairs === 
 === bvk cell = 107 has 10.353 % of the basis function pairs === 
 === bvk cell = 108 has 0.000 % of the basis function pairs === 
 === bvk cell = 109 has 0.000 % of the basis function pairs === 
 === bvk cell = 110 has 0.000 % of the basis function pairs === 
 === bvk cell = 111 has 0.000 % of the basis function pairs === 
 === bvk cell = 112 has 0.000 % of the basis function pairs === 
 === bvk cell = 113 has 0.000 % of the basis function pairs === 
 === bvk cell = 114 has 0.000 % of the basis function pairs === 
 === bvk cell = 115 has 0.145 % of the basis function pairs === 
 === bvk cell = 116 has 0.145 % of the basis function pairs === 
 === bvk cell = 117 has 0.000 % of the basis function pairs === 
 === bvk cell = 118 has 0.000 % of the basis function pairs === 
 === bvk cell = 119 has 0.000 % of the basis function pairs === 
 === bvk cell = 120 has 0.000 % of the basis function pairs === 
 === bvk cell = 121 has 0.145 % of the basis function pairs === 
 === bvk cell = 122 has 0.000 % of the basis function pairs === 
 === bvk cell = 123 has 0.000 % of the basis function pairs === 
 === bvk cell = 124 has 0.000 % of the basis function pairs === 
 === bvk cell = 125 has 0.000 % of the basis function pairs === 
 === bvk cell = 126 has 0.000 % of the basis function pairs === 
 === bvk cell = 127 has 0.000 % of the basis function pairs === 
 === bvk cell = 128 has 0.000 % of the basis function pairs === 
 === bvk cell = 129 has 0.000 % of the basis function pairs === 
 === bvk cell = 130 has 0.000 % of the basis function pairs === 
 === bvk cell = 131 has 0.000 % of the basis function pairs === 
 === bvk cell = 132 has 0.000 % of the basis function pairs === 
 === bvk cell = 133 has 0.000 % of the basis function pairs === 
 === bvk cell = 134 has 0.000 % of the basis function pairs === 
 === bvk cell = 135 has 0.000 % of the basis function pairs === 
 === bvk cell = 136 has 0.000 % of the basis function pairs === 
 === bvk cell = 137 has 0.000 % of the basis function pairs === 
 === bvk cell = 138 has 0.000 % of the basis function pairs === 
 === bvk cell = 139 has 0.000 % of the basis function pairs === 
 === bvk cell = 140 has 0.000 % of the basis function pairs === 
 === bvk cell = 141 has 0.000 % of the basis function pairs === 
 === bvk cell = 142 has 0.000 % of the basis function pairs === 
 === bvk cell = 143 has 0.000 % of the basis function pairs === 
 === bvk cell = 144 has 1.500 % of the basis function pairs === 
 === bvk cell = 145 has 15.820 % of the basis function pairs === 
 === bvk cell = 146 has 7.837 % of the basis function pairs === 
 === bvk cell = 147 has 0.145 % of the basis function pairs === 
 === bvk cell = 148 has 0.000 % of the basis function pairs === 
 === bvk cell = 149 has 0.000 % of the basis function pairs === 
 === bvk cell = 150 has 15.820 % of the basis function pairs === 
 === bvk cell = 151 has 22.738 % of the basis function pairs === 
 === bvk cell = 152 has 6.918 % of the basis function pairs === 
 === bvk cell = 153 has 0.000 % of the basis function pairs === 
 === bvk cell = 154 has 0.000 % of the basis function pairs === 
 === bvk cell = 155 has 0.435 % of the basis function pairs === 
 === bvk cell = 156 has 7.837 % of the basis function pairs === 
 === bvk cell = 157 has 6.918 % of the basis function pairs === 
 === bvk cell = 158 has 0.145 % of the basis function pairs === 
 === bvk cell = 159 has 0.000 % of the basis function pairs === 
 === bvk cell = 160 has 0.000 % of the basis function pairs === 
 === bvk cell = 161 has 0.581 % of the basis function pairs === 
 === bvk cell = 162 has 0.145 % of the basis function pairs === 
 === bvk cell = 163 has 0.000 % of the basis function pairs === 
 === bvk cell = 164 has 0.000 % of the basis function pairs === 
 === bvk cell = 165 has 0.000 % of the basis function pairs === 
 === bvk cell = 166 has 0.000 % of the basis function pairs === 
 === bvk cell = 167 has 0.000 % of the basis function pairs === 
 === bvk cell = 168 has 0.000 % of the basis function pairs === 
 === bvk cell = 169 has 0.000 % of the basis function pairs === 
 === bvk cell = 170 has 0.000 % of the basis function pairs === 
 === bvk cell = 171 has 0.000 % of the basis function pairs === 
 === bvk cell = 172 has 0.000 % of the basis function pairs === 
 === bvk cell = 173 has 0.000 % of the basis function pairs === 
 === bvk cell = 174 has 0.000 % of the basis function pairs === 
 === bvk cell = 175 has 0.435 % of the basis function pairs === 
 === bvk cell = 176 has 0.581 % of the basis function pairs === 
 === bvk cell = 177 has 0.000 % of the basis function pairs === 
 === bvk cell = 178 has 0.000 % of the basis function pairs === 
 === bvk cell = 179 has 0.000 % of the basis function pairs === 
 === bvk cell = 180 has 72.134 % of the basis function pairs === 
 === bvk cell = 181 has 79.197 % of the basis function pairs === 
 === bvk cell = 182 has 22.738 % of the basis function pairs === 
 === bvk cell = 183 has 0.145 % of the basis function pairs === 
 === bvk cell = 184 has 0.000 % of the basis function pairs === 
 === bvk cell = 185 has 9.627 % of the basis function pairs === 
 === bvk cell = 186 has 79.197 % of the basis function pairs === 
 === bvk cell = 187 has 48.524 % of the basis function pairs === 
 === bvk cell = 188 has 6.918 % of the basis function pairs === 
 === bvk cell = 189 has 0.000 % of the basis function pairs === 
 === bvk cell = 190 has 0.435 % of the basis function pairs === 
 === bvk cell = 191 has 33.817 % of the basis function pairs === 
 === bvk cell = 192 has 22.738 % of the basis function pairs === 
 === bvk cell = 193 has 6.918 % of the basis function pairs === 
 === bvk cell = 194 has 0.000 % of the basis function pairs === 
 === bvk cell = 195 has 0.000 % of the basis function pairs === 
 === bvk cell = 196 has 0.435 % of the basis function pairs === 
 === bvk cell = 197 has 15.820 % of the basis function pairs === 
 === bvk cell = 198 has 0.145 % of the basis function pairs === 
 === bvk cell = 199 has 0.000 % of the basis function pairs === 
 === bvk cell = 200 has 0.000 % of the basis function pairs === 
 === bvk cell = 201 has 0.000 % of the basis function pairs === 
 === bvk cell = 202 has 0.000 % of the basis function pairs === 
 === bvk cell = 203 has 0.145 % of the basis function pairs === 
 === bvk cell = 204 has 0.000 % of the basis function pairs === 
 === bvk cell = 205 has 0.435 % of the basis function pairs === 
 === bvk cell = 206 has 0.435 % of the basis function pairs === 
 === bvk cell = 207 has 0.000 % of the basis function pairs === 
 === bvk cell = 208 has 0.000 % of the basis function pairs === 
 === bvk cell = 209 has 0.000 % of the basis function pairs === 
 === bvk cell = 210 has 9.627 % of the basis function pairs === 
 === bvk cell = 211 has 33.817 % of the basis function pairs === 
 === bvk cell = 212 has 15.820 % of the basis function pairs === 
 === bvk cell = 213 has 0.145 % of the basis function pairs === 
 === bvk cell = 214 has 0.000 % of the basis function pairs === 
 === bvk cell = 215 has 0.000 % of the basis function pairs === 
Static memory requirement for 2e3c SR integrals: 0.024 GB
There are 1 munu batches for computing 2e3c SR integrals with latsum
There are 2 Q batches for computing 2e3c SR integrals with latsum
 Time for computing 2e3c SR integral (CC) is 0.21 s
 Time for RI-J this SCF iteration is 24.90 s
 Time for RI-J this SCF iteration is 17.89 s
 ----------------------------------------------
 Guess energy: -107.3903174503
 ----------------------------------------------
 Guess energy components:
 DFT Correlation    Energy =  -0.39357259185445
 DFT Exchange       Energy = -12.25058578002343
 Kinetic            Energy = 109.22993666541183
 Nuclear Attraction Energy = -202.72107214490688
 Nuclear Repulsion  Energy = -31.10949437582012
 Total Coulomb      Energy =  29.85447077691879
 ----------------------------------------------
  Cycle       Energy        RMS Gradient
 ----------------------------------------------
 Time for RI-J this SCF iteration is 17.89 s
    1    -107.4081949608      2.69e-01   Descent step
 Energy components after cycle 1:
 DFT Correlation    Energy =  -0.39322675844556
 DFT Exchange       Energy = -12.20576872337248
 Kinetic            Energy = 108.89339318993726
 Nuclear Attraction Energy = -202.13579399845901
 Nuclear Repulsion  Energy = -31.10949437582012
 Total Coulomb      Energy =  29.54269570538233
 Time for RI-J this SCF iteration is 17.82 s
    2    -107.4230606323      2.27e-01   Descent step
 Energy components after cycle 2:
 DFT Correlation    Energy =  -0.39293855188086
 DFT Exchange       Energy = -12.16138266149130
 Kinetic            Energy = 108.56026502515861
 Nuclear Attraction Energy = -201.55366926054751
 Nuclear Repulsion  Energy = -31.10949437582012
 Total Coulomb      Energy =  29.23415919230116
 Time for RI-J this SCF iteration is 17.91 s
    3    -107.4349847148      1.87e-01   Descent step
 Energy components after cycle 3:
 DFT Correlation    Energy =  -0.39270434831279
 DFT Exchange       Energy = -12.11742039867056
 Kinetic            Energy = 108.23091461509645
 Nuclear Attraction Energy = -200.97506996809199
 Nuclear Repulsion  Energy = -31.10949437582012
 Total Coulomb      Energy =  28.92878976104219
 Time for RI-J this SCF iteration is 17.83 s
    4    -107.4440249636      1.48e-01   Descent step
 Energy components after cycle 4:
 DFT Correlation    Energy =  -0.39252033733783
 DFT Exchange       Energy = -12.07389626235341
 Kinetic            Energy = 107.90611260992621
 Nuclear Attraction Energy = -200.40089039776473
 Nuclear Repulsion  Energy = -31.10949437582012
 Total Coulomb      Energy =  28.62666379978015
 Time for RI-J this SCF iteration is 17.74 s
    5    -107.4502320891      1.09e-01   Descent step
 Energy components after cycle 5:
 DFT Correlation    Energy =  -0.39238162894467
 DFT Exchange       Energy = -12.03087506411887
 Kinetic            Energy = 107.58758745498395
 Nuclear Attraction Energy = -199.83327012576325
 Nuclear Repulsion  Energy = -31.10949437582012
 Total Coulomb      Energy =  28.32820165056066
 Time for RI-J this SCF iteration is 17.81 s
    6    -107.4536613781      7.02e-02   Descent step
 Energy components after cycle 6:
 DFT Correlation    Energy =  -0.39227916105206
 DFT Exchange       Energy = -11.98859949375101
 Kinetic            Energy = 107.28015995447565
 Nuclear Attraction Energy = -199.27849089053547
 Nuclear Repulsion  Energy = -31.10949437582012
 Total Coulomb      Energy =  28.03504258861735
 Time for RI-J this SCF iteration is 17.74 s
    7    -107.4544454988      3.16e-02   Descent step
 Energy components after cycle 7:
 DFT Correlation    Energy =  -0.39217884384904
 DFT Exchange       Energy = -11.94873383880857
 Kinetic            Energy = 107.00905574523759
 Nuclear Attraction Energy = -198.77165834676623
 Nuclear Repulsion  Energy = -31.10949437582012
 Total Coulomb      Energy =  27.75856416122362
 Time for RI-J this SCF iteration is 17.76 s
    8    -107.4545898559      7.84e-03   Normal BFGS step
 Energy components after cycle 8:
 DFT Correlation    Energy =  -0.39206118751639
 DFT Exchange       Energy = -11.95978292555108
 Kinetic            Energy = 107.13653129306769
 Nuclear Attraction Energy = -198.96460682903034
 Nuclear Repulsion  Energy = -31.10949437582012
 Total Coulomb      Energy =  27.83482416896835
 Time for RI-J this SCF iteration is 17.77 s
    9    -107.4545904215      2.47e-04   Normal BFGS step
 Energy components after cycle 9:
 DFT Correlation    Energy =  -0.39206700601606
 DFT Exchange       Energy = -11.95950653805726
 Kinetic            Energy = 107.12836998858720
 Nuclear Attraction Energy = -198.95536492252529
 Nuclear Repulsion  Energy = -31.10949437582012
 Total Coulomb      Energy =  27.83347243235128
 Time for RI-J this SCF iteration is 17.78 s
   10    -107.4545904294      4.38e-05   Normal BFGS step
 Energy components after cycle 10:
 DFT Correlation    Energy =  -0.39206657913253
 DFT Exchange       Energy = -11.95950896738238
 Kinetic            Energy = 107.12865652738222
 Nuclear Attraction Energy = -198.95555182026564
 Nuclear Repulsion  Energy = -31.10949437582012
 Total Coulomb      Energy =  27.83337478583266
 Time for RI-J this SCF iteration is 17.75 s
   11    -107.4545904300      1.53e-05   Normal BFGS step
 Energy components after cycle 11:
 DFT Correlation    Energy =  -0.39206646201805
 DFT Exchange       Energy = -11.95951016833898
 Kinetic            Energy = 107.12875217219326
 Nuclear Attraction Energy = -198.95565698329028
 Nuclear Repulsion  Energy = -31.10949437582012
 Total Coulomb      Energy =  27.83338538725211
 Time for RI-J this SCF iteration is 17.85 s
   12    -107.4545904300      1.13e-06   Normal BFGS step
 Energy components after cycle 12:
 DFT Correlation    Energy =  -0.39206648198656
 DFT Exchange       Energy = -11.95950951725802
 Kinetic            Energy = 107.12872799397766
 Nuclear Attraction Energy = -198.95563455105238
 Nuclear Repulsion  Energy = -31.10949437582012
 Total Coulomb      Energy =  27.83338650211058
   12    -107.4545904300      1.13e-06  Convergence criterion met
 ----------------------------------------------
 Final energy components:
 DFT Correlation    Energy =  -0.39206648198656
 DFT Exchange       Energy = -11.95950951725802
 Kinetic            Energy = 107.12872799397766
 Nuclear Attraction Energy = -198.95563455105238
 Nuclear Repulsion  Energy = -31.10949437582012
 Total Coulomb      Energy =  27.83338650211058
 ----------------------------------------------
 Final energy is -107.4545904300

 SCF time:   CPU 14885.01s  wall 589.00s 
 Total wall time for computing Kinetic: 0.11 s (14)
 Total wall time for computing RIJ-BIGMEM: 256.44 s (14)
 Total wall time for computing RSDF Vnuc: 0.15 s (14)
 Total wall time for computing DFT XC: 190.42 s (14)
 ---------------------------------------------------------------------------
                        Orbital Energies (a.u.)
 ---------------------------------------------------------------------------
 == 0-th k-point (-0.27639,-0.27639,-0.27639) occupation: 6==
 -23.85915 -1.46327 -0.68430 -0.03722 0.02961 0.02961 0.43212 0.66788 0.76332 0.76332
 1.08448 1.11154 1.11154 1.39179 1.39179 1.39186 1.63738 1.75039 1.75039 1.82869
 1.98820 1.98820 2.38243 2.47469 2.57291 2.57291 2.76392 2.78541 2.78541 2.82568
 2.82568 2.87424 2.97720 3.15381 3.15381 3.76364 3.96798 3.96798 4.28024 4.73551
 4.73551 4.76412 4.79667 5.20925 5.20925 5.45679 6.25519 6.25519 6.29165 6.30439
 6.30439 6.55026 7.43749 7.43749 7.47674 8.52993 8.57865 8.57865 11.60739 11.60739
 11.62621 11.63546 11.63546 11.66926 11.68440 11.70337 11.70337 13.01550 14.91290 14.92245
 14.95365 14.95365 15.15998 15.15998 15.36227 16.69593 16.69593 16.70963 16.70963 16.77768
 17.23134 55.79214 286.55549
 == 1-th k-point (-0.13819,-0.13819,-0.41458) occupation: 6==
 -23.85915 -1.46330 -0.68359 -0.02706 0.01815 0.01959 0.45864 0.67438 0.76231 0.78309
 0.90103 1.20256 1.20914 1.34576 1.37512 1.49053 1.56379 1.64277 1.76598 1.92732
 1.95448 2.06457 2.26754 2.33984 2.47187 2.55903 2.64104 2.74182 2.85447 2.92516
 3.01171 3.09068 3.15566 3.50776 3.64391 3.95549 4.01828 4.28863 4.53346 4.78595
 4.82767 4.86308 5.06772 5.12957 5.33629 6.20244 6.25459 6.31566 6.33989 6.39092
 6.71956 7.48302 7.67900 7.85167 8.44593 8.58779 8.70190 11.60756 11.60879 11.61594
 11.62324 11.63168 11.64668 11.65885 11.66123 11.72009 12.33994 14.81976 14.92709 14.95075
 14.96177 15.07995 15.12383 15.21634 16.68821 16.69895 16.75109 16.77194 16.83084 17.31018
 55.77381 286.52514
 == 2-th k-point (-0.00000,0.00000,-0.55277) occupation: 6==
 -23.85915 -1.46280 -0.67776 -0.04619 0.00779 0.00779 0.51212 0.68104 0.72734 0.78928
 0.78928 1.30762 1.34417 1.41118 1.41119 1.59441 1.60522 1.62167 1.62168 1.84524
 2.04196 2.04201 2.05615 2.48562 2.58814 2.58822 2.59764 2.62791 2.79856 2.84954
 2.85028 2.88452 3.13396 3.54951 3.86764 3.86764 4.12867 4.64643 4.64643 4.90815
 5.03104 5.05437 5.05461 5.06588 5.96331 6.16772 6.16775 6.18154 6.37571 6.38894
 7.69960 7.73748 7.73753 7.98914 8.42917 8.42952 11.59613 11.61717 11.61717 11.62666
 11.63527 11.64143 11.64143 11.66642 11.71522 12.70716 14.88251 14.88251 14.97313 15.06702
 15.06971 15.06975 15.10374 16.62316 16.62372 16.62373 16.76416 16.77255 16.93982 55.51428
 286.19882
 == 3-th k-point (0.13819,0.13819,-0.69096) occupation: 6==
 -23.85915 -1.46226 -0.67240 -0.06171 -0.00845 0.00553 0.55451 0.62155 0.71028 0.77429
 0.85425 1.28792 1.36000 1.40680 1.48960 1.54585 1.64398 1.71919 1.87498 1.89370
 1.98230 2.01383 2.13935 2.19962 2.32058 2.40805 2.46718 2.60496 2.71392 2.84282
 2.88241 2.98482 3.09233 3.35124 3.53983 3.84123 3.84329 4.01249 4.72781 4.81601
 4.82968 5.03365 5.18615 5.20078 5.48460 5.82478 5.93549 6.13167 6.30067 6.32798
 6.38727 7.51865 7.75735 8.00583 8.22756 8.33586 8.56570 11.60409 11.61723 11.63273
 11.64205 11.64795 11.65159 11.66078 11.67428 11.72548 12.76489 14.91088 14.93175 14.97357
 15.05875 15.16590 15.18908 15.33241 16.35309 16.41139 16.66246 16.72772 16.79821 17.13798
 55.66969 286.40084
 == 4-th k-point (0.27639,0.27639,-0.82916) occupation: 6==
 -23.85915 -1.46223 -0.67317 -0.04433 -0.03074 0.01486 0.53984 0.59269 0.73605 0.75556
 0.97471 1.22976 1.23921 1.35319 1.42751 1.62852 1.68752 1.86679 1.89820 1.96044
 2.01972 2.03038 2.17280 2.27576 2.34602 2.42346 2.46045 2.50109 2.64740 2.69373
 2.79973 2.88014 2.93124 3.20311 3.64159 3.67386 3.72315 3.78714 3.95842 4.72667
 4.74129 5.14233 5.36766 5.45595 5.54532 5.54696 5.63028 5.81168 6.09160 6.25158
 6.81977 7.24425 7.62061 7.71835 7.75480 8.38158 8.44731 8.50559 11.59806 11.63390
 11.63478 11.63814 11.64863 11.65153 11.65262 11.69927 11.70068 12.56213 14.88922 14.93487
 15.11966 15.26431 15.30723 15.32297 15.38103 16.24519 16.30922 16.63564 16.69223 17.18513
 17.85404 56.14619 286.99117
 == 5-th k-point (0.41458,0.41458,-0.96735) occupation: 6==
 -23.85915 -1.46273 -0.67924 -0.04403 0.00083 0.02713 0.47002 0.63033 0.75078 0.75270
 1.10869 1.12541 1.13912 1.39172 1.41184 1.49520 1.62541 1.81342 1.87621 1.88938
 1.90137 2.00088 2.25221 2.26494 2.40136 2.45434 2.59413 2.67582 2.78803 2.81974
 2.85154 2.89004 2.92619 3.43304 3.60136 3.65505 3.86445 3.92891 4.21363 4.52031
 4.73585 5.04304 5.16747 5.35185 5.50875 5.51483 6.15675 6.16741 6.23102 6.39557
 6.70728 6.82487 7.40021 7.71619 8.01707 8.31812 8.53004 8.60584 11.60644 11.61400
[...]
 0.85425 1.28792 1.36000 1.40680 1.48960 1.54587 1.64399 1.71954 1.87553 1.89370
 1.98245 2.01383 2.13950 2.19987 2.32069 2.40805 2.46867 2.60801 2.71391 2.84293
 2.88322 2.99130 3.09237 3.36149 3.54235 3.84329 3.84759 4.01399 4.72782 4.81633
 4.82969 5.03402 5.18778 5.20079 5.49168 5.82505 5.93549 6.13638 6.30068 6.33266
 6.38751 7.51885 7.75737 8.00634 8.22813 8.33589 8.58298 11.60409 11.61723 11.63274
 11.64206 11.64795 11.65167 11.66078 11.67428 11.72553 12.76594 14.91088 14.93179 14.97357
 15.05882 15.16590 15.18944 15.33454 16.35319 16.41139 16.66257 16.72772 16.79877 17.14071
 55.67012 286.40093
 == 192-th k-point (-0.69096,0.13819,0.69096) occupation: 6==
 -23.85915 -1.46226 -0.67240 -0.06171 -0.00845 0.00553 0.55452 0.62155 0.71028 0.77429
 0.85425 1.28792 1.36000 1.40680 1.48960 1.54586 1.64398 1.71939 1.87538 1.89369
 1.98231 2.01383 2.13940 2.19982 2.32054 2.40805 2.46738 2.60804 2.71390 2.84287
 2.88285 2.98757 3.09235 3.36163 3.54154 3.84332 3.84775 4.01282 4.72781 4.81629
 4.82968 5.03399 5.18721 5.20080 5.49183 5.82485 5.93550 6.13640 6.30068 6.33283
 6.38738 7.51874 7.75733 8.00602 8.22793 8.33596 8.58344 11.60409 11.61723 11.63274
 11.64205 11.64795 11.65167 11.66078 11.67428 11.72549 12.76548 14.91088 14.93178 14.97357
 15.05882 15.16590 15.18931 15.33459 16.35317 16.41140 16.66250 16.72772 16.79876 17.14087
 55.67014 286.40094
 == 193-th k-point (-0.55277,0.27639,0.55277) occupation: 6==
 -23.85915 -1.46255 -0.67750 -0.05266 0.00564 0.01994 0.47607 0.63284 0.73946 0.74884
 1.01752 1.21583 1.23108 1.38027 1.42352 1.42992 1.68381 1.72119 1.91629 1.94684
 1.96272 2.05249 2.21799 2.26684 2.34084 2.36185 2.48486 2.66430 2.67801 2.77614
 2.88132 2.89369 2.94812 3.54009 3.66517 3.67857 3.79995 3.85338 4.18141 4.48560
 4.75846 5.08949 5.14879 5.38308 5.50770 5.52273 6.11874 6.14579 6.22783 6.54028
 6.63053 6.64720 7.37160 7.85826 8.06022 8.22728 8.45939 8.50927 11.61667 11.61815
 11.62279 11.63414 11.64591 11.65486 11.66023 11.67298 11.70561 12.68907 14.79015 14.91569
 15.09782 15.12669 15.24904 15.32828 15.33654 16.58515 16.62634 16.69921 16.98969 17.00863
 17.42161 55.98193 286.79632
 == 194-th k-point (-0.41458,0.41458,0.41458) occupation: 6==
 -23.85915 -1.46270 -0.67998 -0.05803 0.02759 0.02759 0.43490 0.65599 0.73507 0.73507
 1.16683 1.18719 1.18722 1.27744 1.41279 1.41279 1.72346 1.72361 1.80722 2.00632
 2.00636 2.01191 2.09351 2.31958 2.32553 2.49270 2.70241 2.79369 2.80222 2.80222
 2.84550 2.90588 2.96755 3.64804 3.64845 3.74359 3.75599 3.80109 4.19425 4.37035
 4.76639 5.23888 5.25189 5.50208 5.50712 5.60611 6.11608 6.11609 6.15862 6.55109
 6.55135 6.98182 6.98182 7.19948 7.66218 7.71176 8.21487 8.22717 11.60208 11.60208
 11.61920 11.62572 11.62572 11.66133 11.66134 11.67126 11.74469 13.18847 14.72738 14.92121
 15.17598 15.17750 15.31106 15.31210 15.45931 16.58932 16.58932 16.67070 16.94727 16.94732
 18.07661 56.44622 287.35698
 == 195-th k-point (-0.27639,0.55277,0.27639) occupation: 6==
 -23.85915 -1.46255 -0.67750 -0.05266 0.00564 0.01994 0.47607 0.63284 0.73946 0.74884
 1.01752 1.21583 1.23108 1.38027 1.42352 1.42992 1.68381 1.72119 1.91629 1.94684
 1.96272 2.05249 2.21799 2.26684 2.34084 2.36185 2.48486 2.66430 2.67801 2.77614
 2.88132 2.89369 2.94812 3.54009 3.66517 3.67857 3.79995 3.85338 4.18141 4.48560
 4.75846 5.08949 5.14879 5.38308 5.50770 5.52273 6.11874 6.14579 6.22783 6.54028
 6.63053 6.64720 7.37160 7.85826 8.06022 8.22728 8.45939 8.50927 11.61667 11.61815
 11.62279 11.63414 11.64591 11.65486 11.66023 11.67298 11.70561 12.68907 14.79015 14.91569
 15.09782 15.12669 15.24904 15.32828 15.33654 16.58515 16.62634 16.69921 16.98969 17.00863
 17.42161 55.98193 286.79632
 == 196-th k-point (-0.13819,0.69096,0.13819) occupation: 6==
 -23.85915 -1.46226 -0.67240 -0.06171 -0.00845 0.00553 0.55452 0.62155 0.71028 0.77429
 0.85425 1.28792 1.36000 1.40680 1.48960 1.54586 1.64398 1.71939 1.87538 1.89369
 1.98231 2.01383 2.13940 2.19982 2.32054 2.40805 2.46738 2.60804 2.71390 2.84287
 2.88285 2.98757 3.09235 3.36163 3.54154 3.84332 3.84775 4.01282 4.72781 4.81629
 4.82968 5.03399 5.18721 5.20080 5.49183 5.82485 5.93550 6.13640 6.30068 6.33283
 6.38738 7.51874 7.75733 8.00602 8.22793 8.33596 8.58344 11.60409 11.61723 11.63274
 11.64205 11.64795 11.65167 11.66078 11.67428 11.72549 12.76548 14.91088 14.93178 14.97357
 15.05882 15.16590 15.18931 15.33459 16.35317 16.41140 16.66250 16.72772 16.79876 17.14087
 55.67014 286.40094
 == 197-th k-point (0.00000,0.82916,0.00000) occupation: 6==
 -23.85915 -1.46211 -0.66978 -0.07649 -0.00127 -0.00127 0.58433 0.64368 0.68359 0.78592
 0.78592 1.27690 1.45559 1.51281 1.63272 1.63272 1.65761 1.67201 1.67207 1.92275
 1.92275 2.04031 2.08261 2.20244 2.20250 2.31901 2.31941 2.66945 2.73896 2.83991
 2.84099 2.90668 3.11667 3.47630 3.90681 3.90695 4.17659 4.81153 4.86219 5.03557
 5.03587 5.10436 5.34964 5.34964 5.57171 5.57178 5.71496 6.13676 6.30285 6.30447
 7.55889 8.08357 8.13970 8.14016 8.68475 8.68494 11.59613 11.59757 11.59757 11.61831
 11.64638 11.64682 11.64682 11.68309 11.74452 13.32017 14.93267 14.96111 15.04527 15.04531
 15.10947 15.38372 15.38374 16.02591 16.02591 16.53777 16.58474 16.71482 16.82467 55.28844
 285.91663
 == 198-th k-point (-0.55277,-0.00000,0.82916) occupation: 6==
 -23.85915 -1.46208 -0.67055 -0.05970 -0.02233 0.00441 0.58663 0.60626 0.68298 0.75839
 0.92300 1.20648 1.29678 1.44766 1.57852 1.62617 1.64050 1.76736 1.82069 1.89798
 2.02046 2.09753 2.10972 2.18823 2.24750 2.37079 2.43090 2.53150 2.64897 2.80982
 2.86963 3.05367 3.15698 3.43579 3.58378 3.71675 3.74987 4.30429 4.52022 4.65192
 4.99175 5.18498 5.31368 5.44545 5.52462 5.56139 5.94818 6.05559 6.14962 6.36878
 7.09185 7.38936 7.50334 7.74282 8.43692 8.51456 8.76068 11.61859 11.62747 11.63048
 11.63448 11.64412 11.64557 11.65911 11.67933 11.85971 12.36554 14.79327 14.89020 15.06293
 15.14239 15.28650 15.30617 15.39405 16.15148 16.51659 16.58216 16.60744 16.79328 17.59286
 55.78298 286.54428
 == 199-th k-point (-0.41458,0.13819,0.69096) occupation: 6==
 -23.85915 -1.46223 -0.67317 -0.04679 -0.02633 0.01267 0.53727 0.60466 0.72320 0.74866
 1.04493 1.07463 1.34968 1.38756 1.47909 1.48799 1.71827 1.81614 1.93151 1.97499
 1.98993 2.01219 2.20154 2.26646 2.30911 2.38213 2.43925 2.45344 2.58741 2.77743
 2.79926 2.88916 3.43224 3.43782 3.47213 3.67834 3.80519 3.81404 4.69394 4.86452
 5.09715 5.19534 5.42286 5.46202 5.47092 5.59452 5.96372 6.10710 6.27893 6.38246
 6.76920 7.40612 7.61515 8.13242 8.19559 8.26397 8.35289 11.61840 11.62247 11.62398
 11.62862 11.63872 11.64981 11.65091 11.67463 11.69559 12.34644 14.87445 14.97993 15.10737
 15.14406 15.26941 15.31176 15.35566 16.21115 16.45795 16.61274 16.81005 16.93267 17.25009
 55.69095 286.43799
 == 200-th k-point (-0.27639,0.27639,0.55277) occupation: 6==
 -23.85915 -1.46255 -0.67750 -0.05266 0.00564 0.01994 0.47607 0.63284 0.73946 0.74884
 1.01752 1.21583 1.23108 1.38027 1.42352 1.42992 1.68381 1.72119 1.91629 1.94684
 1.96272 2.05249 2.21799 2.26684 2.34084 2.36185 2.48486 2.66430 2.67801 2.77614
 2.88132 2.89369 2.94812 3.54009 3.66517 3.67857 3.79995 3.85338 4.18141 4.48560
 4.75846 5.08949 5.14879 5.38308 5.50770 5.52273 6.11874 6.14579 6.22783 6.54028
 6.63053 6.64720 7.37160 7.85826 8.06022 8.22728 8.45939 8.50927 11.61667 11.61815
 11.62279 11.63414 11.64591 11.65486 11.66023 11.67298 11.70561 12.68907 14.79015 14.91569
 15.09782 15.12669 15.24904 15.32828 15.33654 16.58515 16.62634 16.69921 16.98969 17.00863
 17.42161 55.98193 286.79632
 == 201-th k-point (-0.13819,0.41458,0.41458) occupation: 6==
 -23.85915 -1.46273 -0.67924 -0.04403 0.00083 0.02713 0.47002 0.63033 0.75078 0.75270
 1.10869 1.12541 1.13912 1.39171 1.41184 1.49519 1.62540 1.81323 1.87620 1.88938
 1.90126 2.00087 2.25147 2.26494 2.40104 2.45429 2.58880 2.67529 2.78783 2.81977
 2.84777 2.88993 2.92278 3.42456 3.59936 3.65503 3.86442 3.92505 4.21211 4.52030
 4.73581 5.04301 5.16745 5.34867 5.50454 5.50875 6.15675 6.16720 6.23086 6.39528
 6.70733 6.82486 7.40019 7.71579 8.01701 8.31382 8.52176 8.60577 11.60644 11.61399
 11.62298 11.62996 11.63045 11.65453 11.66619 11.68623 11.70288 12.56952 14.80717 14.90444
 15.06684 15.13295 15.23306 15.30632 15.32429 16.59620 16.64607 16.70987 16.79455 17.16594
 17.42957 55.93977 286.74019
 == 202-th k-point (0.00000,0.55277,0.27639) occupation: 6==
 -23.85915 -1.46258 -0.67675 -0.04277 -0.01073 0.01671 0.51033 0.62400 0.73414 0.76326
 0.94320 1.17728 1.31950 1.38108 1.42320 1.53647 1.62879 1.76561 1.78666 1.86596
 2.01808 2.06970 2.20052 2.28912 2.30351 2.44706 2.51736 2.55744 2.83001 2.85797
 2.89371 2.94456 3.19177 3.46964 3.70295 3.81105 3.95071 4.07568 4.63269 4.75476
 4.81395 5.03605 5.17259 5.38632 5.51171 6.07095 6.13827 6.24288 6.25053 6.45219
 6.59228 7.43979 7.48334 8.08160 8.31792 8.37580 8.59638 11.61543 11.61553 11.62175
 11.63272 11.64000 11.65297 11.65523 11.65996 11.72768 12.22576 14.87129 14.91373 14.94951
 15.06684 15.13368 15.26515 15.30719 16.51583 16.64659 16.66765 16.73848 17.04924 17.18970
 55.75592 286.51134
 == 203-th k-point (0.13819,0.69096,0.13819) occupation: 6==
 -23.85915 -1.46226 -0.67240 -0.06171 -0.00845 0.00553 0.55452 0.62155 0.71028 0.77429
 0.85425 1.28792 1.36000 1.40680 1.48960 1.54587 1.64399 1.71954 1.87553 1.89370
 1.98245 2.01383 2.13950 2.19987 2.32069 2.40805 2.46867 2.60801 2.71391 2.84293
 2.88322 2.99130 3.09237 3.36149 3.54235 3.84329 3.84759 4.01399 4.72782 4.81633
 4.82969 5.03402 5.18778 5.20079 5.49168 5.82505 5.93549 6.13638 6.30068 6.33266
 6.38751 7.51885 7.75737 8.00634 8.22813 8.33589 8.58298 11.60409 11.61723 11.63274
 11.64206 11.64795 11.65167 11.66078 11.67428 11.72553 12.76594 14.91088 14.93179 14.97357
 15.05882 15.16590 15.18944 15.33454 16.35319 16.41139 16.66257 16.72772 16.79877 17.14071
 55.67012 286.40093
 == 204-th k-point (-0.41458,-0.13819,0.96735) occupation: 6==
 -23.85915 -1.46223 -0.67317 -0.04679 -0.02633 0.01267 0.53727 0.60466 0.72320 0.74866
 1.04493 1.07462 1.34968 1.38756 1.47910 1.48797 1.71830 1.81613 1.93149 1.97465
 1.98992 2.01219 2.20001 2.26635 2.30911 2.38237 2.43923 2.45241 2.58779 2.77562
 2.79986 2.88910 3.43429 3.43724 3.47329 3.67795 3.80502 3.81428 4.69377 4.86455
 5.09715 5.19532 5.42159 5.46336 5.47020 5.59488 5.96373 6.10645 6.28078 6.38220
 6.76927 7.40612 7.61503 8.13099 8.19590 8.26391 8.35627 11.61840 11.62247 11.62399
 11.62862 11.63872 11.64982 11.65091 11.67464 11.69559 12.34643 14.87443 14.97994 15.10737
 15.14405 15.26929 15.31147 15.35616 16.21115 16.45795 16.61258 16.80996 16.93310 17.25040
 55.69106 286.43802
 == 205-th k-point (-0.27639,-0.00000,0.82916) occupation: 6==
 -23.85915 -1.46208 -0.67055 -0.05970 -0.02233 0.00441 0.58663 0.60626 0.68298 0.75839
 0.92300 1.20648 1.29678 1.44766 1.57852 1.62617 1.64050 1.76736 1.82069 1.89798
 2.02046 2.09753 2.10972 2.18823 2.24750 2.37079 2.43090 2.53150 2.64897 2.80982
 2.86963 3.05367 3.15698 3.43579 3.58378 3.71675 3.74987 4.30429 4.52022 4.65192
 4.99175 5.18498 5.31368 5.44545 5.52462 5.56139 5.94818 6.05559 6.14962 6.36878
 7.09185 7.38936 7.50334 7.74282 8.43692 8.51456 8.76068 11.61859 11.62747 11.63048
 11.63448 11.64412 11.64557 11.65911 11.67933 11.85971 12.36554 14.79327 14.89020 15.06293
 15.14239 15.28650 15.30617 15.39405 16.15148 16.51659 16.58216 16.60744 16.79328 17.59286
 55.78298 286.54428
 == 206-th k-point (-0.13819,0.13819,0.69096) occupation: 6==
 -23.85915 -1.46226 -0.67240 -0.06171 -0.00845 0.00553 0.55452 0.62155 0.71028 0.77429
 0.85425 1.28792 1.36000 1.40680 1.48960 1.54586 1.64398 1.71939 1.87538 1.89369
 1.98231 2.01383 2.13940 2.19982 2.32054 2.40805 2.46738 2.60804 2.71390 2.84287
 2.88285 2.98757 3.09235 3.36163 3.54154 3.84332 3.84775 4.01282 4.72781 4.81629
 4.82968 5.03399 5.18721 5.20080 5.49183 5.82485 5.93550 6.13640 6.30068 6.33283
 6.38738 7.51874 7.75733 8.00602 8.22793 8.33596 8.58344 11.60409 11.61723 11.63274
 11.64205 11.64795 11.65167 11.66078 11.67428 11.72549 12.76548 14.91088 14.93178 14.97357
 15.05882 15.16590 15.18931 15.33459 16.35317 16.41140 16.66250 16.72772 16.79876 17.14087
 55.67014 286.40094
 == 207-th k-point (0.00000,0.27639,0.55277) occupation: 6==
 -23.85915 -1.46258 -0.67675 -0.04277 -0.01073 0.01671 0.51033 0.62400 0.73414 0.76326
 0.94320 1.17728 1.31950 1.38108 1.42320 1.53647 1.62879 1.76561 1.78666 1.86596
 2.01808 2.06970 2.20052 2.28912 2.30351 2.44706 2.51736 2.55744 2.83001 2.85797
 2.89371 2.94456 3.19177 3.46964 3.70295 3.81105 3.95071 4.07568 4.63269 4.75476
 4.81395 5.03605 5.17259 5.38632 5.51171 6.07095 6.13827 6.24288 6.25053 6.45219
 6.59228 7.43979 7.48334 8.08160 8.31792 8.37580 8.59638 11.61543 11.61553 11.62175
 11.63272 11.64000 11.65297 11.65523 11.65996 11.72768 12.22576 14.87129 14.91373 14.94951
 15.06684 15.13368 15.26515 15.30719 16.51583 16.64659 16.66765 16.73848 17.04924 17.18970
 55.75592 286.51134
 == 208-th k-point (0.13819,0.41458,0.41458) occupation: 6==
 -23.85915 -1.46273 -0.67924 -0.04403 0.00083 0.02713 0.47002 0.63033 0.75078 0.75270
 1.10869 1.12541 1.13912 1.39172 1.41184 1.49520 1.62541 1.81342 1.87621 1.88938
 1.90137 2.00088 2.25221 2.26494 2.40136 2.45434 2.59413 2.67582 2.78803 2.81974
 2.85154 2.89004 2.92619 3.43304 3.60136 3.65505 3.86445 3.92891 4.21363 4.52031
 4.73585 5.04304 5.16747 5.35185 5.50875 5.51483 6.15675 6.16741 6.23102 6.39557
 6.70728 6.82487 7.40021 7.71619 8.01707 8.31812 8.53004 8.60584 11.60644 11.61400
 11.62299 11.62996 11.63048 11.65453 11.66626 11.68637 11.70289 12.57132 14.80717 14.90444
 15.06685 15.13295 15.23353 15.30632 15.32632 16.59620 16.64625 16.70990 16.79460 17.16595
 17.42963 55.93978 286.74019
 == 209-th k-point (0.27639,0.55277,0.27639) occupation: 6==
 -23.85915 -1.46255 -0.67750 -0.05266 0.00564 0.01994 0.47607 0.63284 0.73946 0.74884
 1.01752 1.21583 1.23108 1.38027 1.42352 1.43000 1.68382 1.72119 1.91629 1.94682
 1.96284 2.05247 2.21793 2.26668 2.34089 2.36203 2.48524 2.66559 2.67589 2.77391
 2.88137 2.89912 2.94749 3.54003 3.66748 3.67650 3.80027 3.85220 4.18021 4.48563
 4.75846 5.08873 5.14891 5.38316 5.50621 5.52376 6.11874 6.14550 6.22771 6.54060
 6.62946 6.64776 7.37158 7.85797 8.06044 8.22786 8.46552 8.50670 11.61670 11.61815
 11.62280 11.63414 11.64590 11.65487 11.66020 11.67295 11.70565 12.68847 14.79016 14.91569
 15.09773 15.12670 15.24906 15.32858 15.33618 16.58517 16.62631 16.69909 16.98965 17.00903
 17.42159 55.98191 286.79632
 == 210-th k-point (-0.27639,-0.27639,1.10554) occupation: 6==
 -23.85915 -1.46255 -0.67750 -0.05266 0.00564 0.01994 0.47607 0.63284 0.73946 0.74884
 1.01752 1.21583 1.23108 1.38027 1.42352 1.43000 1.68382 1.72119 1.91629 1.94682
 1.96284 2.05247 2.21793 2.26668 2.34089 2.36203 2.48524 2.66559 2.67589 2.77391
 2.88137 2.89912 2.94749 3.54003 3.66748 3.67650 3.80027 3.85220 4.18021 4.48563
 4.75846 5.08873 5.14891 5.38316 5.50621 5.52376 6.11874 6.14550 6.22771 6.54060
 6.62946 6.64776 7.37158 7.85797 8.06044 8.22786 8.46552 8.50670 11.61670 11.61815
 11.62280 11.63414 11.64590 11.65487 11.66020 11.67295 11.70565 12.68847 14.79016 14.91569
 15.09773 15.12670 15.24906 15.32858 15.33618 16.58517 16.62631 16.69909 16.98965 17.00903
 17.42159 55.98191 286.79632
 == 211-th k-point (-0.13819,-0.13819,0.96735) occupation: 6==
 -23.85915 -1.46226 -0.67240 -0.06171 -0.00845 0.00553 0.55452 0.62155 0.71028 0.77429
 0.85425 1.28792 1.36000 1.40680 1.48960 1.54587 1.64399 1.71954 1.87553 1.89370
 1.98245 2.01383 2.13950 2.19987 2.32069 2.40805 2.46867 2.60801 2.71391 2.84293
 2.88322 2.99130 3.09237 3.36149 3.54235 3.84329 3.84759 4.01399 4.72782 4.81633
 4.82969 5.03402 5.18778 5.20079 5.49168 5.82505 5.93549 6.13638 6.30068 6.33266
 6.38751 7.51885 7.75737 8.00634 8.22813 8.33589 8.58298 11.60409 11.61723 11.63274
 11.64206 11.64795 11.65167 11.66078 11.67428 11.72553 12.76594 14.91088 14.93179 14.97357
 15.05882 15.16590 15.18944 15.33454 16.35319 16.41139 16.66257 16.72772 16.79877 17.14071
 55.67012 286.40093
 == 212-th k-point (0.00000,-0.00000,0.82916) occupation: 6==
 -23.85915 -1.46211 -0.66978 -0.07649 -0.00127 -0.00127 0.58433 0.64368 0.68359 0.78592
 0.78592 1.27690 1.45559 1.51281 1.63272 1.63272 1.65761 1.67201 1.67207 1.92275
 1.92275 2.04031 2.08261 2.20244 2.20250 2.31901 2.31941 2.66945 2.73896 2.83991
 2.84099 2.90668 3.11667 3.47630 3.90681 3.90695 4.17659 4.81153 4.86219 5.03557
 5.03587 5.10436 5.34964 5.34964 5.57171 5.57178 5.71496 6.13676 6.30285 6.30447
 7.55889 8.08357 8.13970 8.14016 8.68475 8.68494 11.59613 11.59757 11.59757 11.61831
 11.64638 11.64682 11.64682 11.68309 11.74452 13.32017 14.93267 14.96111 15.04527 15.04531
 15.10947 15.38372 15.38374 16.02591 16.02591 16.53777 16.58474 16.71482 16.82467 55.28844
 285.91663
 == 213-th k-point (0.13819,0.13819,0.69096) occupation: 6==
 -23.85915 -1.46226 -0.67240 -0.06171 -0.00845 0.00553 0.55452 0.62155 0.71028 0.77429
 0.85425 1.28792 1.36000 1.40680 1.48960 1.54587 1.64399 1.71954 1.87553 1.89370
 1.98245 2.01383 2.13950 2.19987 2.32069 2.40805 2.46867 2.60801 2.71391 2.84293
 2.88322 2.99130 3.09237 3.36149 3.54235 3.84329 3.84759 4.01399 4.72782 4.81633
 4.82969 5.03402 5.18778 5.20079 5.49168 5.82505 5.93549 6.13638 6.30068 6.33266
 6.38751 7.51885 7.75737 8.00634 8.22813 8.33589 8.58298 11.60409 11.61723 11.63274
 11.64206 11.64795 11.65167 11.66078 11.67428 11.72553 12.76594 14.91088 14.93179 14.97357
 15.05882 15.16590 15.18944 15.33454 16.35319 16.41139 16.66257 16.72772 16.79877 17.14071
 55.67012 286.40093
 == 214-th k-point (0.27639,0.27639,0.55277) occupation: 6==
 -23.85915 -1.46255 -0.67750 -0.05266 0.00564 0.01994 0.47607 0.63284 0.73946 0.74884
 1.01752 1.21583 1.23108 1.38027 1.42352 1.43000 1.68382 1.72119 1.91629 1.94682
 1.96284 2.05247 2.21793 2.26668 2.34089 2.36203 2.48524 2.66559 2.67589 2.77391
 2.88137 2.89912 2.94749 3.54003 3.66748 3.67650 3.80027 3.85220 4.18021 4.48563
 4.75846 5.08873 5.14891 5.38316 5.50621 5.52376 6.11874 6.14550 6.22771 6.54060
 6.62946 6.64776 7.37158 7.85797 8.06044 8.22786 8.46552 8.50670 11.61670 11.61815
 11.62280 11.63414 11.64590 11.65487 11.66020 11.67295 11.70565 12.68847 14.79016 14.91569
 15.09773 15.12670 15.24906 15.32858 15.33618 16.58517 16.62631 16.69909 16.98965 17.00903
 17.42159 55.98191 286.79632
 == 215-th k-point (0.41458,0.41458,0.41458) occupation: 6==
 -23.85915 -1.46270 -0.67998 -0.05803 0.02759 0.02759 0.43490 0.65599 0.73507 0.73507
 1.16683 1.18719 1.18719 1.27744 1.41279 1.41279 1.72346 1.72346 1.80722 2.00632
 2.00632 2.01194 2.09317 2.31953 2.31953 2.49267 2.70229 2.79266 2.79266 2.80222
 2.80222 2.90431 2.96757 3.64805 3.64805 3.74347 3.74347 3.80108 4.19230 4.37035
 4.76639 5.23864 5.23864 5.50206 5.50206 5.60619 6.11608 6.11608 6.15859 6.55110
 6.55110 6.98182 6.98182 7.19866 7.66218 7.70885 8.21474 8.21474 11.60208 11.60208
 11.61919 11.62572 11.62572 11.66133 11.66133 11.67124 11.74466 13.18850 14.72738 14.92121
 15.17596 15.17596 15.31105 15.31105 15.45934 16.58932 16.58932 16.67067 16.94727 16.94727
 18.07550 56.44603 287.35694
 ---------------------------------------------------------------------------
 VBM is at 86-th k-point with 0.98255 eV
 CBM is at 86-th k-point with 10.17377 eV
 Band gap is 9.19122 eV


           Ground-State Mulliken Net Atomic Charges

      Atom                 Charge (a.u.)          Spin (a.u.)
   --------------------------------------------------------
      1 Li                (0.166263,0.000000)    (0.000000,0.000000)
      2  F              (-0.166263,-0.000000)    (0.000000,0.000000)
   --------------------------------------------------------
  Sum of atomic charges =     (-0.000000,-0.000000)
  Sum of spin   charges =       (0.000000,0.000000)



 Total job time:  589.44 s.
 Tue Sep  9 01:06:10 2025


        *************************************************************
        *                                                           *
        *  Thank you very much for using QCPBC. Have a nice day.    *
        *                                                           *
        *************************************************************

Running job 1 of 1
