                  Welcome to Q-Chem
           with Periodic Boundary Condition
     A Quantum Leap Into The Future Of Chemistry

 Adam Rettig, Xintian Feng, Meng-Fu Chen, Hieu Dinh, Stephen Quiton,
 Anton Ni, Paul J. Robinson, Jinghong Zhang, Joonho Lee

Contributors to earlier versions of Q-Chem not listed above:
 Evgeny Epifanovsky, Leo Cunha, Jerome F. Gonthier, Kuan-Yu Liu
 Input file: /n/netscratch/joonholee_lab/Lab/hieudinh//lif_solve_def2qzvp_omega_0.6_666.scratch20250909004846/lif_solve_def2qzvp_omega_0.6_666.0
 Scratch folder: /n/netscratch/joonholee_lab/Lab/hieudinh//lif_solve_def2qzvp_omega_0.6_666.scratch20250909004846
 Auxillary files located at: /n/holylabs/LABS/joonholee_lab/Lab/qchem_base/qcaux
 Q-Chem begins on Tue Sep  9 00:48:47 2025

 -------------------------------------------------------------
 User input:
 -------------------------------------------------------------
 $lattice
 3
 0.000000 2.005000 2.005000
 2.005000 0.000000 2.005000
 2.005000 2.005000 0.000000
 $end
 
 $unitcell
 ABSOLUTE
 0 1
 Li 0.000000 0.000000 0.000000
 F  2.005000 0.000000 0.000000
 $end
 
 $rem
 jobtype = sp
 method = pbe
 scf_convergence = 5
 scf_guess = autosad
 scf_algorithm = gdm
 basis = def2-qzvp
 aux_basis = gen
 input_bohr = false
 symmetry false
 is_basis_uctr true
 rsdf_print_level 1
 
 mp_mesh = [6,6,6]
 
 integral_direct true
 bvk_cgto true
 
 thresh 14
 mem_total 100000
 threads 32
 
 MAX_SCF_CYCLES 400
 madelung = false
 omega 0.6
 do_rij_bigmem true
 automate_g true
 print_level 10
 grid_type_xc 1
 
 thresh_1e2c_sp 1e-14
 thresh_2e3c_bra_ket_sep 1e-10
 thresh_g 1e-12
 $end
 
 $aux_basis
 Li     0
 S   7   1.00
     498.3689730              0.0207908
     162.9342738              0.0542177
      57.3246735              0.1776783
      21.6427314              0.4181150
       8.7345375              0.6535245
       3.7491039              0.5492618
       1.7006754              0.1701425
 S   1   1.00
       0.8090859             -0.0097548
 S   1   1.00
       0.4000933             -0.0050152
 S   1   1.00
       0.2035793              0.0232200
 !S   1   1.00
 !      0.1054201              0.0134535
 !S   1   1.00
 !      0.0549139              0.0006647
 P   2   1.00
      10.7024696              0.0072923
       3.6551543              0.0060940
 P   1   1.00
       1.2464013              0.0172529
 P   1   1.00
       0.4246282             -0.0160026
 P   1   1.00
       0.1446192             -0.0195111
 D   2   1.00
       1.1510647             -0.0014314
       0.6019112              0.0038969
 D   1   1.00
       0.3109573              0.0024683
 D   1   1.00
       0.1600032              0.0036451
 F   2   1.00
       0.5967918              0.0010494
       0.1790687              0.0006468
 G   1   1.00
       1.0460130             -0.0001971
 ****
 F     0
 S   7   1.00
    3514.9201549              0.1805835
    1231.2458815              0.3676084
     454.1367336              1.2707881
     175.8376258              2.8274164
      71.2081775              4.3588226
      30.0316883              2.7180994
      13.1259023             -0.0804726
 S   1   1.00
       5.9126861             -0.0023370
 S   1   1.00
       2.7284431              1.1236274
 S   1   1.00
       1.2813993              0.9999042
 S   1   1.00
       0.6082793              0.3119579
 S   1   1.00
       0.2897894              0.0312295
 P   2   1.00
      49.3740409             -0.0346332
      13.4874956             -0.0096069
 P   1   1.00
       3.9664900              0.0762067
 P   1   1.00
       1.2226629             -0.0103329
 P   1   1.00
       0.3830317              0.0018853
 D   2   1.00
      29.9719140             -0.0113316
       6.7860915             -0.0467639
 D   1   1.00
       1.8137313             -0.0167604
 D   1   1.00
       0.5157840             -0.0050777
 F   2   1.00
       2.8301877              1.0
       0.9155962              1.0
 G   1   1.00
       1.6097500             -0.0005411
 ****
 $end
 -------------------------------------------------------------
 Running PBC job

 Requested Exchange Correlation Functionals: 
  DFT Exchange:  1.00000 pbe_x
  DFT Correlation:  1.00000 pbe_c
 using 32 threads for computing.
 ---------------------------------------------------------------
      Coordinates of Atoms in Central Unit Cell (Angstroms)
    I     Atom         X            Y            Z
 ---------------------------------------------------------------
    1      Li      0.000000     0.000000     0.000000
    2       F      2.005000     0.000000     0.000000
 ---------------------------------------------------------------
 --------------------------------------------------
              Lattice Vectors (Angstroms)
              X            Y            Z
 --------------------------------------------------
   X       0.000000     2.005000     2.005000
   Y       2.005000     0.000000     2.005000
   Z       2.005000     2.005000     0.000000
 --------------------------------------------------
 --------------------------------------------------
       Reciprocal Lattice Vectors (Angstroms^-1)
              X            Y            Z
 --------------------------------------------------
   X      -1.566879     1.566879     1.566879
   Y       1.566879    -1.566879     1.566879
   Z       1.566879     1.566879    -1.566879
 --------------------------------------------------

 Single point calculation requested

 Hamiltonian contributions:
 List of terms in Hamiltonian: kpts_nn, kpts_kinetic, kpts_vnuc_df, kpts_xc, kpts_rij_bigmem

 K-Points calculation started.

 Basis set information about using solid harmonic (1) or Cartesian (0):
  li : D(1) D(1) F(1) 
  f : D(1) D(1) D(1) F(1) F(1) G(1) 

 Basis set information about using solid harmonic (1) or Cartesian (0):
  li : D(1) D(1) D(1) F(1) G(1) 
  f : D(1) D(1) D(1) F(1) G(1) 

 There are 92 basis functions in the central unit cell.
 Print atomic basis of atoms in the central unit cell:
 -------------------------------------------------------------
2 53 53 30

  0.00000000000000e+00  0.00000000000000e+00  0.00000000000000e+00
  3.78890087987467e+00  0.00000000000000e+00  0.00000000000000e+00

  1.48539770850000e+04
  2.22522364770000e+03
  5.04887390080000e+02
  1.42458475480000e+02
  4.63155995800000e+01
  1.66553354740000e+01
  6.43311861990000e+00
  2.60270438580000e+00
  1.08972454050000e+00
  4.42365959710000e+00
  1.23563949900000e+00
  4.60674706020000e-01
  9.66171669550000e-02
  4.59154522960000e-02
  2.11400487300000e-02
  3.26051092060000e+00
  6.50030431150000e-01
  1.69416710730000e-01
  3.32700000000000e+00
  5.57323437670000e-02
  2.04899592410000e-02
  2.30000000000000e-01
  7.57000000000000e-02
  1.35000000000000e-01
  1.32535973450000e+05
  1.97581125880000e+04
  4.48519969470000e+03
  1.27381510200000e+03
  4.18938312360000e+02
  1.52557219850000e+02
  5.98215248230000e+01
  2.48190769320000e+01
  1.00744466730000e+02
  3.01037282900000e+01
  1.08142832720000e+01
  4.81728867700000e+00
  1.65593342130000e+00
  6.48935195820000e-01
  2.47781045450000e-01
  2.40966541140000e+02
  5.70206997810000e+01
  1.81269521200000e+01
  6.64574046210000e+00
  2.63757228920000e+00
  1.06382172000000e+00
  4.19325627500000e-01
  1.57475882990000e-01
  5.01400000000000e+00
  1.72500000000000e+00
  5.86000000000000e-01
  3.56200000000000e+00
  1.14800000000000e+00
  2.37600000000000e+00

  4.67593013229757e-02
  8.76137465723478e-02
  1.51821576860780e-01
  2.46527731442678e-01
  3.74140539449148e-01
  5.14323804423000e-01
  6.00677517411378e-01
  5.44460466941871e-01
  3.21097242154446e-01
  2.72734215356930e-01
  7.53702662810338e-01
  3.98525272814913e-01
  1.23509628755786e-01
  7.06934606713439e-02
  3.95129614058778e-02
  2.22230636644090e-01
  1.62952044217479e-01
  1.33842808684561e-01
  6.40480761295544e+00
  3.85988372286674e-02
  1.10501063034648e-02
  1.25728336426159e-01
  1.79815549832937e-02
  1.62631785032468e-02
  3.86107783813291e-01
  7.24648975903829e-01
  1.25045495963763e+00
  2.01518764389143e+00
  3.04056815166578e+00
  4.21268576129244e+00
  5.00944268647146e+00
  4.54693835849554e+00
  2.32503271092484e+00
  8.41440806306271e+00
  4.25019052011886e+00
  2.31745919743391e+00
  1.04038060130896e+00
  5.15301123337211e-01
  2.50300174847139e-01
  3.49166780573024e+00
  4.61886090108967e+00
  5.17964869303152e+00
  4.78626212475628e+00
  3.24578400123904e+00
  1.54001926672016e+00
  4.80982576947690e-01
  1.41402684040663e-01
  2.76523492268872e+01
  4.27356565232165e+00
  6.45996677345861e-01
  2.56605380682814e+01
  2.00827738540458e+00
  1.20230076986570e+01

0 0 0 0 1 1 1
0 0 
9 0

0 1 1 9 1 1 1
9 0 
2 0

0 2 2 11 1 1 1
11 0 
1 0

0 3 3 12 1 1 1
12 0 
1 0

0 4 4 13 1 1 1
13 0 
1 0

0 5 5 14 1 1 1
14 0 
1 0

0 6 6 15 1 3 3
15 1 
3 0

0 9 9 18 1 3 3
18 1 
1 0

0 12 12 19 1 3 3
19 1 
1 0

0 15 15 20 1 3 3
20 1 
1 0

0 18 18 21 1 5 6
21 2 
1 1

0 23 23 22 1 5 6
22 2 
1 1

0 28 28 23 1 7 10
23 3 
1 1

1 35 35 24 1 1 1
24 0 
8 0

1 36 36 32 1 1 1
32 0 
2 0

1 37 37 34 1 1 1
34 0 
1 0

1 38 38 35 1 1 1
35 0 
1 0

1 39 39 36 1 1 1
36 0 
1 0

1 40 40 37 1 1 1
37 0 
1 0

1 41 41 38 1 1 1
38 0 
1 0

1 42 42 39 1 3 3
39 1 
5 0

1 45 45 44 1 3 3
44 1 
1 0

1 48 48 45 1 3 3
45 1 
1 0

1 51 51 46 1 3 3
46 1 
1 0

1 54 54 47 1 5 6
47 2 
1 1

1 59 59 48 1 5 6
48 2 
1 1

1 64 64 49 1 5 6
49 2 
1 1

1 69 69 50 1 7 10
50 3 
1 1

1 76 76 51 1 7 10
51 3 
1 1

1 83 83 52 1 9 15
52 4 
1 1

 -------------------------------------------------------------
 Allocate 136872 B from available memory: 104857600000 B
 There are 15625 image cells after screening.
 There are 17628 image cells for CGTO evaluation after screening.
 Real-Space grid for FFT initialized based on kinetic energy cutoff (eV) = 500.0
 Real-Space grid for FFT: (8,8,8)
 There are 4913 real-space grid points.
 There are 27 batches of real-space grid points. 
 Size of each grid batch is around 128
 Grid for AFT initialized based on kinetic energy cutoff (eV) = 500.0
 Real-Space grid for AFT: (8,8,8)
 There are 4913 real-space grid points.

 There are 5912 atom-centered grid points.

 Spacegroup symmetry group: Fm-3m
 Reducing spacegroup symmetry to symmorphic group: F m -3 m
 Monkhorst-Pack mesh is [6,6,6]
 There are 216 k points.
kpoints in Bohr
-0.2763855758 -0.2763855758 -0.2763855758
-0.1381927879 -0.1381927879 -0.4145783636
-0.0000000000 0.0000000000 -0.5527711515
0.1381927879 0.1381927879 -0.6909639394
0.2763855758 0.2763855758 -0.8291567273
0.4145783636 0.4145783636 -0.9673495152
-0.1381927879 -0.4145783636 -0.1381927879
-0.0000000000 -0.2763855758 -0.2763855758
0.1381927879 -0.1381927879 -0.4145783636
0.2763855758 0.0000000000 -0.5527711515
0.4145783636 0.1381927879 -0.6909639394
0.5527711515 0.2763855758 -0.8291567273
-0.0000000000 -0.5527711515 -0.0000000000
0.1381927879 -0.4145783636 -0.1381927879
0.2763855758 -0.2763855758 -0.2763855758
0.4145783636 -0.1381927879 -0.4145783636
0.5527711515 0.0000000000 -0.5527711515
0.6909639394 0.1381927879 -0.6909639394
0.1381927879 -0.6909639394 0.1381927879
0.2763855758 -0.5527711515 -0.0000000000
0.4145783636 -0.4145783636 -0.1381927879
0.5527711515 -0.2763855758 -0.2763855758
0.6909639394 -0.1381927879 -0.4145783636
0.8291567273 0.0000000000 -0.5527711515
0.2763855758 -0.8291567273 0.2763855758
0.4145783636 -0.6909639394 0.1381927879
0.5527711515 -0.5527711515 -0.0000000000
0.6909639394 -0.4145783636 -0.1381927879
0.8291567273 -0.2763855758 -0.2763855758
0.9673495152 -0.1381927879 -0.4145783636
0.4145783636 -0.9673495152 0.4145783636
0.5527711515 -0.8291567273 0.2763855758
0.6909639394 -0.6909639394 0.1381927879
0.8291567273 -0.5527711515 -0.0000000000
0.9673495152 -0.4145783636 -0.1381927879
1.1055423031 -0.2763855758 -0.2763855758
-0.4145783636 -0.1381927879 -0.1381927879
-0.2763855758 0.0000000000 -0.2763855758
-0.1381927879 0.1381927879 -0.4145783636
-0.0000000000 0.2763855758 -0.5527711515
0.1381927879 0.4145783636 -0.6909639394
0.2763855758 0.5527711515 -0.8291567273
-0.2763855758 -0.2763855758 -0.0000000000
-0.1381927879 -0.1381927879 -0.1381927879
-0.0000000000 0.0000000000 -0.2763855758
0.1381927879 0.1381927879 -0.4145783636
0.2763855758 0.2763855758 -0.5527711515
0.4145783636 0.4145783636 -0.6909639394
-0.1381927879 -0.4145783636 0.1381927879
-0.0000000000 -0.2763855758 -0.0000000000
0.1381927879 -0.1381927879 -0.1381927879
0.2763855758 0.0000000000 -0.2763855758
0.4145783636 0.1381927879 -0.4145783636
0.5527711515 0.2763855758 -0.5527711515
0.0000000000 -0.5527711515 0.2763855758
0.1381927879 -0.4145783636 0.1381927879
0.2763855758 -0.2763855758 -0.0000000000
0.4145783636 -0.1381927879 -0.1381927879
0.5527711515 0.0000000000 -0.2763855758
0.6909639394 0.1381927879 -0.4145783636
0.1381927879 -0.6909639394 0.4145783636
0.2763855758 -0.5527711515 0.2763855758
0.4145783636 -0.4145783636 0.1381927879
0.5527711515 -0.2763855758 -0.0000000000
0.6909639394 -0.1381927879 -0.1381927879
0.8291567273 0.0000000000 -0.2763855758
0.2763855758 -0.8291567273 0.5527711515
0.4145783636 -0.6909639394 0.4145783636
0.5527711515 -0.5527711515 0.2763855758
0.6909639394 -0.4145783636 0.1381927879
0.8291567273 -0.2763855758 -0.0000000000
0.9673495152 -0.1381927879 -0.1381927879
-0.5527711515 0.0000000000 0.0000000000
-0.4145783636 0.1381927879 -0.1381927879
-0.2763855758 0.2763855758 -0.2763855758
-0.1381927879 0.4145783636 -0.4145783636
-0.0000000000 0.5527711515 -0.5527711515
0.1381927879 0.6909639394 -0.6909639394
-0.4145783636 -0.1381927879 0.1381927879
-0.2763855758 0.0000000000 0.0000000000
-0.1381927879 0.1381927879 -0.1381927879
-0.0000000000 0.2763855758 -0.2763855758
0.1381927879 0.4145783636 -0.4145783636
0.2763855758 0.5527711515 -0.5527711515
-0.2763855758 -0.2763855758 0.2763855758
-0.1381927879 -0.1381927879 0.1381927879
0.0000000000 0.0000000000 0.0000000000
0.1381927879 0.1381927879 -0.1381927879
0.2763855758 0.2763855758 -0.2763855758
0.4145783636 0.4145783636 -0.4145783636
-0.1381927879 -0.4145783636 0.4145783636
0.0000000000 -0.2763855758 0.2763855758
0.1381927879 -0.1381927879 0.1381927879
0.2763855758 -0.0000000000 0.0000000000
0.4145783636 0.1381927879 -0.1381927879
0.5527711515 0.2763855758 -0.2763855758
0.0000000000 -0.5527711515 0.5527711515
0.1381927879 -0.4145783636 0.4145783636
0.2763855758 -0.2763855758 0.2763855758
0.4145783636 -0.1381927879 0.1381927879
0.5527711515 -0.0000000000 0.0000000000
0.6909639394 0.1381927879 -0.1381927879
0.1381927879 -0.6909639394 0.6909639394
0.2763855758 -0.5527711515 0.5527711515
0.4145783636 -0.4145783636 0.4145783636
0.5527711515 -0.2763855758 0.2763855758
0.6909639394 -0.1381927879 0.1381927879
0.8291567273 -0.0000000000 0.0000000000
-0.6909639394 0.1381927879 0.1381927879
-0.5527711515 0.2763855758 0.0000000000
-0.4145783636 0.4145783636 -0.1381927879
-0.2763855758 0.5527711515 -0.2763855758
-0.1381927879 0.6909639394 -0.4145783636
-0.0000000000 0.8291567273 -0.5527711515
-0.5527711515 -0.0000000000 0.2763855758
-0.4145783636 0.1381927879 0.1381927879
-0.2763855758 0.2763855758 0.0000000000
-0.1381927879 0.4145783636 -0.1381927879
-0.0000000000 0.5527711515 -0.2763855758
0.1381927879 0.6909639394 -0.4145783636
-0.4145783636 -0.1381927879 0.4145783636
-0.2763855758 -0.0000000000 0.2763855758
-0.1381927879 0.1381927879 0.1381927879
0.0000000000 0.2763855758 0.0000000000
0.1381927879 0.4145783636 -0.1381927879
0.2763855758 0.5527711515 -0.2763855758
-0.2763855758 -0.2763855758 0.5527711515
-0.1381927879 -0.1381927879 0.4145783636
0.0000000000 -0.0000000000 0.2763855758
0.1381927879 0.1381927879 0.1381927879
0.2763855758 0.2763855758 0.0000000000
0.4145783636 0.4145783636 -0.1381927879
-0.1381927879 -0.4145783636 0.6909639394
0.0000000000 -0.2763855758 0.5527711515
0.1381927879 -0.1381927879 0.4145783636
0.2763855758 -0.0000000000 0.2763855758
0.4145783636 0.1381927879 0.1381927879
0.5527711515 0.2763855758 0.0000000000
0.0000000000 -0.5527711515 0.8291567273
0.1381927879 -0.4145783636 0.6909639394
0.2763855758 -0.2763855758 0.5527711515
0.4145783636 -0.1381927879 0.4145783636
0.5527711515 -0.0000000000 0.2763855758
0.6909639394 0.1381927879 0.1381927879
-0.8291567273 0.2763855758 0.2763855758
-0.6909639394 0.4145783636 0.1381927879
-0.5527711515 0.5527711515 0.0000000000
-0.4145783636 0.6909639394 -0.1381927879
-0.2763855758 0.8291567273 -0.2763855758
-0.1381927879 0.9673495152 -0.4145783636
-0.6909639394 0.1381927879 0.4145783636
-0.5527711515 0.2763855758 0.2763855758
-0.4145783636 0.4145783636 0.1381927879
-0.2763855758 0.5527711515 0.0000000000
-0.1381927879 0.6909639394 -0.1381927879
0.0000000000 0.8291567273 -0.2763855758
-0.5527711515 -0.0000000000 0.5527711515
-0.4145783636 0.1381927879 0.4145783636
-0.2763855758 0.2763855758 0.2763855758
-0.1381927879 0.4145783636 0.1381927879
0.0000000000 0.5527711515 0.0000000000
0.1381927879 0.6909639394 -0.1381927879
-0.4145783636 -0.1381927879 0.6909639394
-0.2763855758 -0.0000000000 0.5527711515
-0.1381927879 0.1381927879 0.4145783636
0.0000000000 0.2763855758 0.2763855758
0.1381927879 0.4145783636 0.1381927879
0.2763855758 0.5527711515 0.0000000000
-0.2763855758 -0.2763855758 0.8291567273
-0.1381927879 -0.1381927879 0.6909639394
0.0000000000 -0.0000000000 0.5527711515
0.1381927879 0.1381927879 0.4145783636
0.2763855758 0.2763855758 0.2763855758
0.4145783636 0.4145783636 0.1381927879
-0.1381927879 -0.4145783636 0.9673495152
0.0000000000 -0.2763855758 0.8291567273
0.1381927879 -0.1381927879 0.6909639394
0.2763855758 -0.0000000000 0.5527711515
0.4145783636 0.1381927879 0.4145783636
0.5527711515 0.2763855758 0.2763855758
-0.9673495152 0.4145783636 0.4145783636
-0.8291567273 0.5527711515 0.2763855758
-0.6909639394 0.6909639394 0.1381927879
-0.5527711515 0.8291567273 0.0000000000
-0.4145783636 0.9673495152 -0.1381927879
-0.2763855758 1.1055423031 -0.2763855758
-0.8291567273 0.2763855758 0.5527711515
-0.6909639394 0.4145783636 0.4145783636
-0.5527711515 0.5527711515 0.2763855758
-0.4145783636 0.6909639394 0.1381927879
-0.2763855758 0.8291567273 0.0000000000
-0.1381927879 0.9673495152 -0.1381927879
-0.6909639394 0.1381927879 0.6909639394
-0.5527711515 0.2763855758 0.5527711515
-0.4145783636 0.4145783636 0.4145783636
-0.2763855758 0.5527711515 0.2763855758
-0.1381927879 0.6909639394 0.1381927879
0.0000000000 0.8291567273 0.0000000000
-0.5527711515 -0.0000000000 0.8291567273
-0.4145783636 0.1381927879 0.6909639394
-0.2763855758 0.2763855758 0.5527711515
-0.1381927879 0.4145783636 0.4145783636
0.0000000000 0.5527711515 0.2763855758
0.1381927879 0.6909639394 0.1381927879
-0.4145783636 -0.1381927879 0.9673495152
-0.2763855758 -0.0000000000 0.8291567273
-0.1381927879 0.1381927879 0.6909639394
0.0000000000 0.2763855758 0.5527711515
0.1381927879 0.4145783636 0.4145783636
0.2763855758 0.5527711515 0.2763855758
-0.2763855758 -0.2763855758 1.1055423031
-0.1381927879 -0.1381927879 0.9673495152
0.0000000000 -0.0000000000 0.8291567273
0.1381927879 0.1381927879 0.6909639394
0.2763855758 0.2763855758 0.5527711515
0.4145783636 0.4145783636 0.4145783636
 There are 6 alpha and 6 beta electrons
 Start computing overlap matrix
 Allocate 29251584 B from available memory: 104857463136 B
 Time for computing overlap matrix: 30.5920000000 s
 ====== Initialize compute kernels for all-electron RI-J (kpts) ====== 
 ========================================================== 
 Range-separated parameter omega        = 0.599999999999999978
 Threshold for 1e2c shellpair           = 0.000000000000010000
 Threshold for 2e2c SR integral         = 0.000000000000000001
 Threshold for 2e3c SR integral         = 0.000000000100000000
 Threshold for AFT G-space screening is = 0.000000000001000000
 The exponent cutoff for C/D classification (omega2 / 2) is  = 0.179999999999999993
 ========================================================== 
 === Post process the basis set for RI calculation (exp_cutoff = 0.179999999999999993 ) === 
nshells_b1 before uncontraction = 30
nshells_b1 after uncontraction = 31
nshells_baux before uncontraction = 28
nshells_baux after uncontraction = 28
===============================================
nbsf total   = 95
nbsf compact = 68
nbsf diffuse = 27
naux total   = 96
naux compact = 96
naux diffuse = 0
nshells_bnuc = 2

 Number of unique atoms is 2
 Unique atom #0 (li) has 6 shells.
 Unique atom #1 (f) has 16 shells.

Shell 0 to 5 belongs to atom li
Shell 6 to 21 belongs to atom f

 Number of unique atoms is 2
 Unique atom #0 (li) has 8 shells.
 Unique atom #1 (f) has 1 shells.

Shell 0 to 7 belongs to atom li
Shell 8 to 8 belongs to atom f

 Number of unique atom is 2
 Unique atom #0 (li) has 13 auxiliary shells.
 Unique atom #1 (f) has 15 auxiliary shells.

Auxiliary Shell 0 to 12 belongs to atom li
Auxiliary Shell 13 to 27 belongs to atom f

================= Automatically determine grid size for reciprocal space summation =================
 Range-separated parameter = 0.60000000000000 and G-space screening threshold = 0.00000000000100
The number of grid points along each axis dimension is (5, 5, 5)
Total number of grid points = 1331

Use nonortho shellpair for diffuse density
======== Initializing relevant kernel for RIJ (DD type) ========
There are 45 shellpairs in the reference unit cell
There are 26313 images and we expect to have 1184085 in total
There are 63069 shellpairs in the lattice sum after screening
======== Initializing relevant kernel for RIJ (CD type) ========
There are 198 shellpairs in the reference unit cell
There are 14939 images and we expect to have 2957922 in total
There are 137232 shellpairs in the lattice sum after screening
****** AFT -> SR ******
Maximum bra distance cutoff is 39.000000000000
Maximum bra ket distance cutoff is 24.073630136986
Maximum bra ket screening distance is 21.468750000000
Number of auxiliary image is 3829
There are 198 shellpairs in the reference unit cell
There are 3829 images and we expect to have 758142 in total
There are 137232 shellpairs in the lattice sum after screening
Available memory per thread for 2e3c calculation is 3.275881611000Gb
Finish initializing 2e3c SR with the lattice sum!
=================================================
======== Initializing relevant kernel for RIJ (CC type) ========
There are 250 shellpairs in the reference unit cell
There are 1873 images and we expect to have 468250 in total
There are 6959 shellpairs in the lattice sum after screening
****** AFT -> SR ******
Maximum bra distance cutoff is 15.000000000000
Maximum bra ket distance cutoff is 23.750713608742
Maximum bra ket screening distance is 20.437500000000
Number of auxiliary image is 1217
There are 250 shellpairs in the reference unit cell
There are 437 images and we expect to have 109250 in total
There are 6959 shellpairs in the lattice sum after screening
Available memory per thread for 2e3c calculation is 3.275881611000Gb
Finish initializing 2e3c SR with the lattice sum!
=================================================
======== Initializing the SR component for Vnuc (CD type) ========
Maximum bra distance cutoff is 39.000000000000
Maximum bra ket distance cutoff is 16.349677604964
Maximum bra ket screening distance is 13.839230860025
Number of auxiliary image is 3829
There are 198 shellpairs in the reference unit cell
There are 3829 images and we expect to have 758142 in total
There are 137232 shellpairs in the lattice sum after screening
Available memory per thread for 2e3c calculation is 3.275881611000Gb
Finish initializing 2e3c SR with the lattice sum!
=================================================
======== Initialize the SR component for Vnuc (CC type) ========
Maximum bra distance cutoff is 15.000000000000
Maximum bra ket distance cutoff is 16.491629898159
Maximum bra ket screening distance is 12.239733225022
Number of auxiliary image is 527
There are 250 shellpairs in the reference unit cell
There are 437 images and we expect to have 109250 in total
There are 6959 shellpairs in the lattice sum after screening
Available memory per thread for 2e3c calculation is 3.275881611000Gb
Finish initializing 2e3c SR with the lattice sum!
=================================================
 Aufbau occupation scheme, occupation determined by eigenvalue
 == 0-th k-point nmo = 83 (-0.27639,-0.27639,-0.27639) ==
 == 1-th k-point nmo = 82 (-0.13819,-0.13819,-0.41458) ==
 == 2-th k-point nmo = 81 (-0.00000,0.00000,-0.55277) ==
 == 3-th k-point nmo = 82 (0.13819,0.13819,-0.69096) ==
 == 4-th k-point nmo = 83 (0.27639,0.27639,-0.82916) ==
 == 5-th k-point nmo = 83 (0.41458,0.41458,-0.96735) ==
 == 6-th k-point nmo = 82 (-0.13819,-0.41458,-0.13819) ==
 == 7-th k-point nmo = 81 (-0.00000,-0.27639,-0.27639) ==
 == 8-th k-point nmo = 82 (0.13819,-0.13819,-0.41458) ==
 == 9-th k-point nmo = 82 (0.27639,0.00000,-0.55277) ==
 == 10-th k-point nmo = 82 (0.41458,0.13819,-0.69096) ==
 == 11-th k-point nmo = 82 (0.55277,0.27639,-0.82916) ==
 == 12-th k-point nmo = 81 (-0.00000,-0.55277,-0.00000) ==
 == 13-th k-point nmo = 82 (0.13819,-0.41458,-0.13819) ==
 == 14-th k-point nmo = 83 (0.27639,-0.27639,-0.27639) ==
 == 15-th k-point nmo = 83 (0.41458,-0.13819,-0.41458) ==
 == 16-th k-point nmo = 83 (0.55277,0.00000,-0.55277) ==
 == 17-th k-point nmo = 82 (0.69096,0.13819,-0.69096) ==
 == 18-th k-point nmo = 82 (0.13819,-0.69096,0.13819) ==
 == 19-th k-point nmo = 82 (0.27639,-0.55277,-0.00000) ==
 == 20-th k-point nmo = 83 (0.41458,-0.41458,-0.13819) ==
 == 21-th k-point nmo = 83 (0.55277,-0.27639,-0.27639) ==
 == 22-th k-point nmo = 82 (0.69096,-0.13819,-0.41458) ==
 == 23-th k-point nmo = 82 (0.82916,0.00000,-0.55277) ==
 == 24-th k-point nmo = 83 (0.27639,-0.82916,0.27639) ==
 == 25-th k-point nmo = 82 (0.41458,-0.69096,0.13819) ==
 == 26-th k-point nmo = 83 (0.55277,-0.55277,-0.00000) ==
 == 27-th k-point nmo = 82 (0.69096,-0.41458,-0.13819) ==
 == 28-th k-point nmo = 83 (0.82916,-0.27639,-0.27639) ==
 == 29-th k-point nmo = 82 (0.96735,-0.13819,-0.41458) ==
 == 30-th k-point nmo = 83 (0.41458,-0.96735,0.41458) ==
 == 31-th k-point nmo = 82 (0.55277,-0.82916,0.27639) ==
 == 32-th k-point nmo = 82 (0.69096,-0.69096,0.13819) ==
 == 33-th k-point nmo = 82 (0.82916,-0.55277,-0.00000) ==
 == 34-th k-point nmo = 82 (0.96735,-0.41458,-0.13819) ==
 == 35-th k-point nmo = 83 (1.10554,-0.27639,-0.27639) ==
 == 36-th k-point nmo = 82 (-0.41458,-0.13819,-0.13819) ==
 == 37-th k-point nmo = 81 (-0.27639,0.00000,-0.27639) ==
 == 38-th k-point nmo = 82 (-0.13819,0.13819,-0.41458) ==
 == 39-th k-point nmo = 82 (-0.00000,0.27639,-0.55277) ==
 == 40-th k-point nmo = 82 (0.13819,0.41458,-0.69096) ==
 == 41-th k-point nmo = 82 (0.27639,0.55277,-0.82916) ==
 == 42-th k-point nmo = 81 (-0.27639,-0.27639,-0.00000) ==
 == 43-th k-point nmo = 82 (-0.13819,-0.13819,-0.13819) ==
 == 44-th k-point nmo = 81 (-0.00000,0.00000,-0.27639) ==
 == 45-th k-point nmo = 82 (0.13819,0.13819,-0.41458) ==
 == 46-th k-point nmo = 83 (0.27639,0.27639,-0.55277) ==
 == 47-th k-point nmo = 83 (0.41458,0.41458,-0.69096) ==
 == 48-th k-point nmo = 82 (-0.13819,-0.41458,0.13819) ==
 == 49-th k-point nmo = 81 (-0.00000,-0.27639,-0.00000) ==
 == 50-th k-point nmo = 82 (0.13819,-0.13819,-0.13819) ==
 == 51-th k-point nmo = 81 (0.27639,0.00000,-0.27639) ==
 == 52-th k-point nmo = 83 (0.41458,0.13819,-0.41458) ==
 == 53-th k-point nmo = 83 (0.55277,0.27639,-0.55277) ==
 == 54-th k-point nmo = 82 (0.00000,-0.55277,0.27639) ==
 == 55-th k-point nmo = 82 (0.13819,-0.41458,0.13819) ==
 == 56-th k-point nmo = 81 (0.27639,-0.27639,-0.00000) ==
 == 57-th k-point nmo = 82 (0.41458,-0.13819,-0.13819) ==
 == 58-th k-point nmo = 82 (0.55277,0.00000,-0.27639) ==
 == 59-th k-point nmo = 82 (0.69096,0.13819,-0.41458) ==
 == 60-th k-point nmo = 82 (0.13819,-0.69096,0.41458) ==
 == 61-th k-point nmo = 83 (0.27639,-0.55277,0.27639) ==
 == 62-th k-point nmo = 83 (0.41458,-0.41458,0.13819) ==
 == 63-th k-point nmo = 82 (0.55277,-0.27639,-0.00000) ==
 == 64-th k-point nmo = 82 (0.69096,-0.13819,-0.13819) ==
 == 65-th k-point nmo = 82 (0.82916,0.00000,-0.27639) ==
 == 66-th k-point nmo = 82 (0.27639,-0.82916,0.55277) ==
 == 67-th k-point nmo = 83 (0.41458,-0.69096,0.41458) ==
 == 68-th k-point nmo = 83 (0.55277,-0.55277,0.27639) ==
 == 69-th k-point nmo = 82 (0.69096,-0.41458,0.13819) ==
 == 70-th k-point nmo = 82 (0.82916,-0.27639,-0.00000) ==
 == 71-th k-point nmo = 82 (0.96735,-0.13819,-0.13819) ==
 == 72-th k-point nmo = 81 (-0.55277,0.00000,0.00000) ==
 == 73-th k-point nmo = 82 (-0.41458,0.13819,-0.13819) ==
 == 74-th k-point nmo = 83 (-0.27639,0.27639,-0.27639) ==
 == 75-th k-point nmo = 83 (-0.13819,0.41458,-0.41458) ==
 == 76-th k-point nmo = 83 (-0.00000,0.55277,-0.55277) ==
 == 77-th k-point nmo = 82 (0.13819,0.69096,-0.69096) ==
 == 78-th k-point nmo = 82 (-0.41458,-0.13819,0.13819) ==
 == 79-th k-point nmo = 81 (-0.27639,0.00000,0.00000) ==
 == 80-th k-point nmo = 82 (-0.13819,0.13819,-0.13819) ==
 == 81-th k-point nmo = 81 (-0.00000,0.27639,-0.27639) ==
 == 82-th k-point nmo = 83 (0.13819,0.41458,-0.41458) ==
 == 83-th k-point nmo = 83 (0.27639,0.55277,-0.55277) ==
 == 84-th k-point nmo = 83 (-0.27639,-0.27639,0.27639) ==
 == 85-th k-point nmo = 82 (-0.13819,-0.13819,0.13819) ==
 == 86-th k-point nmo = 83 (0.00000,0.00000,0.00000) ==
 == 87-th k-point nmo = 82 (0.13819,0.13819,-0.13819) ==
 == 88-th k-point nmo = 83 (0.27639,0.27639,-0.27639) ==
 == 89-th k-point nmo = 83 (0.41458,0.41458,-0.41458) ==
 == 90-th k-point nmo = 83 (-0.13819,-0.41458,0.41458) ==
 == 91-th k-point nmo = 81 (0.00000,-0.27639,0.27639) ==
 == 92-th k-point nmo = 82 (0.13819,-0.13819,0.13819) ==
 == 93-th k-point nmo = 81 (0.27639,-0.00000,0.00000) ==
 == 94-th k-point nmo = 82 (0.41458,0.13819,-0.13819) ==
 == 95-th k-point nmo = 83 (0.55277,0.27639,-0.27639) ==
 == 96-th k-point nmo = 83 (0.00000,-0.55277,0.55277) ==
 == 97-th k-point nmo = 83 (0.13819,-0.41458,0.41458) ==
 == 98-th k-point nmo = 83 (0.27639,-0.27639,0.27639) ==
 == 99-th k-point nmo = 82 (0.41458,-0.13819,0.13819) ==
 == 100-th k-point nmo = 81 (0.55277,-0.00000,0.00000) ==
 == 101-th k-point nmo = 82 (0.69096,0.13819,-0.13819) ==
 == 102-th k-point nmo = 82 (0.13819,-0.69096,0.69096) ==
 == 103-th k-point nmo = 83 (0.27639,-0.55277,0.55277) ==
 == 104-th k-point nmo = 83 (0.41458,-0.41458,0.41458) ==
 == 105-th k-point nmo = 83 (0.55277,-0.27639,0.27639) ==
 == 106-th k-point nmo = 82 (0.69096,-0.13819,0.13819) ==
 == 107-th k-point nmo = 81 (0.82916,-0.00000,0.00000) ==
 == 108-th k-point nmo = 82 (-0.69096,0.13819,0.13819) ==
 == 109-th k-point nmo = 82 (-0.55277,0.27639,0.00000) ==
 == 110-th k-point nmo = 83 (-0.41458,0.41458,-0.13819) ==
 == 111-th k-point nmo = 83 (-0.27639,0.55277,-0.27639) ==
 == 112-th k-point nmo = 82 (-0.13819,0.69096,-0.41458) ==
 == 113-th k-point nmo = 82 (-0.00000,0.82916,-0.55277) ==
 == 114-th k-point nmo = 82 (-0.55277,-0.00000,0.27639) ==
 == 115-th k-point nmo = 82 (-0.41458,0.13819,0.13819) ==
 == 116-th k-point nmo = 81 (-0.27639,0.27639,0.00000) ==
 == 117-th k-point nmo = 82 (-0.13819,0.41458,-0.13819) ==
 == 118-th k-point nmo = 82 (-0.00000,0.55277,-0.27639) ==
 == 119-th k-point nmo = 82 (0.13819,0.69096,-0.41458) ==
 == 120-th k-point nmo = 83 (-0.41458,-0.13819,0.41458) ==
 == 121-th k-point nmo = 81 (-0.27639,-0.00000,0.27639) ==
 == 122-th k-point nmo = 82 (-0.13819,0.13819,0.13819) ==
 == 123-th k-point nmo = 81 (0.00000,0.27639,0.00000) ==
 == 124-th k-point nmo = 82 (0.13819,0.41458,-0.13819) ==
 == 125-th k-point nmo = 83 (0.27639,0.55277,-0.27639) ==
 == 126-th k-point nmo = 83 (-0.27639,-0.27639,0.55277) ==
 == 127-th k-point nmo = 82 (-0.13819,-0.13819,0.41458) ==
 == 128-th k-point nmo = 81 (0.00000,-0.00000,0.27639) ==
 == 129-th k-point nmo = 82 (0.13819,0.13819,0.13819) ==
 == 130-th k-point nmo = 81 (0.27639,0.27639,0.00000) ==
 == 131-th k-point nmo = 83 (0.41458,0.41458,-0.13819) ==
 == 132-th k-point nmo = 82 (-0.13819,-0.41458,0.69096) ==
 == 133-th k-point nmo = 82 (0.00000,-0.27639,0.55277) ==
 == 134-th k-point nmo = 82 (0.13819,-0.13819,0.41458) ==
 == 135-th k-point nmo = 81 (0.27639,-0.00000,0.27639) ==
 == 136-th k-point nmo = 82 (0.41458,0.13819,0.13819) ==
 == 137-th k-point nmo = 82 (0.55277,0.27639,0.00000) ==
 == 138-th k-point nmo = 82 (0.00000,-0.55277,0.82916) ==
 == 139-th k-point nmo = 82 (0.13819,-0.41458,0.69096) ==
 == 140-th k-point nmo = 83 (0.27639,-0.27639,0.55277) ==
 == 141-th k-point nmo = 83 (0.41458,-0.13819,0.41458) ==
 == 142-th k-point nmo = 82 (0.55277,-0.00000,0.27639) ==
 == 143-th k-point nmo = 82 (0.69096,0.13819,0.13819) ==
 == 144-th k-point nmo = 83 (-0.82916,0.27639,0.27639) ==
 == 145-th k-point nmo = 82 (-0.69096,0.41458,0.13819) ==
 == 146-th k-point nmo = 83 (-0.55277,0.55277,0.00000) ==
 == 147-th k-point nmo = 82 (-0.41458,0.69096,-0.13819) ==
 == 148-th k-point nmo = 83 (-0.27639,0.82916,-0.27639) ==
 == 149-th k-point nmo = 82 (-0.13819,0.96735,-0.41458) ==
 == 150-th k-point nmo = 82 (-0.69096,0.13819,0.41458) ==
 == 151-th k-point nmo = 83 (-0.55277,0.27639,0.27639) ==
 == 152-th k-point nmo = 83 (-0.41458,0.41458,0.13819) ==
 == 153-th k-point nmo = 82 (-0.27639,0.55277,0.00000) ==
 == 154-th k-point nmo = 82 (-0.13819,0.69096,-0.13819) ==
 == 155-th k-point nmo = 82 (0.00000,0.82916,-0.27639) ==
 == 156-th k-point nmo = 83 (-0.55277,-0.00000,0.55277) ==
 == 157-th k-point nmo = 83 (-0.41458,0.13819,0.41458) ==
 == 158-th k-point nmo = 83 (-0.27639,0.27639,0.27639) ==
 == 159-th k-point nmo = 82 (-0.13819,0.41458,0.13819) ==
 == 160-th k-point nmo = 81 (0.00000,0.55277,0.00000) ==
 == 161-th k-point nmo = 82 (0.13819,0.69096,-0.13819) ==
 == 162-th k-point nmo = 82 (-0.41458,-0.13819,0.69096) ==
 == 163-th k-point nmo = 82 (-0.27639,-0.00000,0.55277) ==
 == 164-th k-point nmo = 82 (-0.13819,0.13819,0.41458) ==
 == 165-th k-point nmo = 81 (0.00000,0.27639,0.27639) ==
 == 166-th k-point nmo = 82 (0.13819,0.41458,0.13819) ==
 == 167-th k-point nmo = 82 (0.27639,0.55277,0.00000) ==
 == 168-th k-point nmo = 83 (-0.27639,-0.27639,0.82916) ==
 == 169-th k-point nmo = 82 (-0.13819,-0.13819,0.69096) ==
 == 170-th k-point nmo = 81 (0.00000,-0.00000,0.55277) ==
 == 171-th k-point nmo = 82 (0.13819,0.13819,0.41458) ==
 == 172-th k-point nmo = 83 (0.27639,0.27639,0.27639) ==
 == 173-th k-point nmo = 83 (0.41458,0.41458,0.13819) ==
 == 174-th k-point nmo = 82 (-0.13819,-0.41458,0.96735) ==
 == 175-th k-point nmo = 82 (0.00000,-0.27639,0.82916) ==
 == 176-th k-point nmo = 82 (0.13819,-0.13819,0.69096) ==
 == 177-th k-point nmo = 82 (0.27639,-0.00000,0.55277) ==
 == 178-th k-point nmo = 83 (0.41458,0.13819,0.41458) ==
 == 179-th k-point nmo = 83 (0.55277,0.27639,0.27639) ==
 == 180-th k-point nmo = 83 (-0.96735,0.41458,0.41458) ==
 == 181-th k-point nmo = 82 (-0.82916,0.55277,0.27639) ==
 == 182-th k-point nmo = 82 (-0.69096,0.69096,0.13819) ==
 == 183-th k-point nmo = 82 (-0.55277,0.82916,0.00000) ==
 == 184-th k-point nmo = 82 (-0.41458,0.96735,-0.13819) ==
 == 185-th k-point nmo = 83 (-0.27639,1.10554,-0.27639) ==
 == 186-th k-point nmo = 82 (-0.82916,0.27639,0.55277) ==
 == 187-th k-point nmo = 83 (-0.69096,0.41458,0.41458) ==
 == 188-th k-point nmo = 83 (-0.55277,0.55277,0.27639) ==
 == 189-th k-point nmo = 82 (-0.41458,0.69096,0.13819) ==
 == 190-th k-point nmo = 82 (-0.27639,0.82916,0.00000) ==
 == 191-th k-point nmo = 82 (-0.13819,0.96735,-0.13819) ==
 == 192-th k-point nmo = 82 (-0.69096,0.13819,0.69096) ==
 == 193-th k-point nmo = 83 (-0.55277,0.27639,0.55277) ==
 == 194-th k-point nmo = 83 (-0.41458,0.41458,0.41458) ==
 == 195-th k-point nmo = 83 (-0.27639,0.55277,0.27639) ==
 == 196-th k-point nmo = 82 (-0.13819,0.69096,0.13819) ==
 == 197-th k-point nmo = 81 (0.00000,0.82916,0.00000) ==
 == 198-th k-point nmo = 82 (-0.55277,-0.00000,0.82916) ==
 == 199-th k-point nmo = 82 (-0.41458,0.13819,0.69096) ==
 == 200-th k-point nmo = 83 (-0.27639,0.27639,0.55277) ==
 == 201-th k-point nmo = 83 (-0.13819,0.41458,0.41458) ==
 == 202-th k-point nmo = 82 (0.00000,0.55277,0.27639) ==
 == 203-th k-point nmo = 82 (0.13819,0.69096,0.13819) ==
 == 204-th k-point nmo = 82 (-0.41458,-0.13819,0.96735) ==
 == 205-th k-point nmo = 82 (-0.27639,-0.00000,0.82916) ==
 == 206-th k-point nmo = 82 (-0.13819,0.13819,0.69096) ==
 == 207-th k-point nmo = 82 (0.00000,0.27639,0.55277) ==
 == 208-th k-point nmo = 83 (0.13819,0.41458,0.41458) ==
 == 209-th k-point nmo = 83 (0.27639,0.55277,0.27639) ==
 == 210-th k-point nmo = 83 (-0.27639,-0.27639,1.10554) ==
 == 211-th k-point nmo = 82 (-0.13819,-0.13819,0.96735) ==
 == 212-th k-point nmo = 81 (0.00000,-0.00000,0.82916) ==
 == 213-th k-point nmo = 82 (0.13819,0.13819,0.69096) ==
 == 214-th k-point nmo = 83 (0.27639,0.27639,0.55277) ==
 == 215-th k-point nmo = 83 (0.41458,0.41458,0.41458) ==

 Generate autoSAD guess
backing up fragment data
Atom # 0: li, charge: 0, multiplicity: 2.000000
Atom # 1: f, charge: 0, multiplicity: 2.000000
writing autosad to fragment context
Settings for isolated fragments: 
  frgm_gamma: TRUE
  frgm_center: FALSE

    Running SCF for isolated atom #0
    Fragment Input file: /n/netscratch/joonholee_lab/Lab/hieudinh//lif_solve_def2qzvp_omega_0.6_666.scratch20250909004846/autosad_frgmt_0/frgmt_input.in
    Fragment Output file: /n/netscratch/joonholee_lab/Lab/hieudinh//lif_solve_def2qzvp_omega_0.6_666.scratch20250909004846/autosad_frgmt_0/frgmt_job.out
    Fragment job begins at Tue Sep  9 00:49:24 2025

 Integrated density by DFT XC:
   Numerical integral  =     3.000000007147
   Relative error      =     0.0000002382 %
Final energy components:
 DFT Correlation            Energy =  -0.05090044545114
 DFT Exchange               Energy =  -1.75144597421909
 Kinetic (alpha)            Energy =   3.82935284817784
 Kinetic (beta)             Energy =   3.58515893685386
 Nuclear Attraction (alpha) Energy =  -9.10791001172892
 Nuclear Attraction (beta)  Energy =  -8.01914849492518
 Nuclear Repulsion          Energy =   0.00000000000000
 SEOQF                      Energy =  -0.00000000000000
 Total Coulomb              Energy =   4.05291331077686
----------------------------------------------
    SCF Energy: -7.4619798305
   Total fragment job time:  0.62 s.
    Running SCF for isolated atom #1
    Fragment Input file: /n/netscratch/joonholee_lab/Lab/hieudinh//lif_solve_def2qzvp_omega_0.6_666.scratch20250909004846/autosad_frgmt_1/frgmt_input.in
    Fragment Output file: /n/netscratch/joonholee_lab/Lab/hieudinh//lif_solve_def2qzvp_omega_0.6_666.scratch20250909004846/autosad_frgmt_1/frgmt_job.out
    Fragment job begins at Tue Sep  9 00:49:24 2025

 Integrated density by DFT XC:
   Numerical integral  =     9.000000098353
   Relative error      =     0.0000010928 %
Final energy components:
 DFT Correlation            Energy =  -0.28943664182310
 DFT Exchange               Energy =  -9.96991500891565
 Kinetic (alpha)            Energy =  51.55258412072413
 Kinetic (beta)             Energy =  47.84820569403624
 Nuclear Attraction (alpha) Energy = -125.30574122940675
 Nuclear Attraction (beta)  Energy = -113.20186276241702
 Nuclear Repulsion          Energy =   0.00000000000000
 SEOQF                      Energy =  -0.00000000020726
 Total Coulomb              Energy =  49.69105360806797
----------------------------------------------
    SCF Energy: -99.6751122199
   Total fragment job time:  0.62 s.
restoring fragment data

 ------------------------------------------------------------------------
 Allocate 145565312 B from available memory: 104828211552 B
 Time for generating SCF guess: 1.32 s

 Allocate 446984 B from available memory: 104682646240 B
 Selected algorithms for each term:
  kpts_kinetic -> @0x150c1149d680
  kpts_nn -> @0x150c1149d800
  kpts_rij_bigmem -> @0x150c1149d3e0
  kpts_vnuc_df -> @0x150c1149d380
  kpts_xc -> @0x150c1149d2c0
 Time for computing kinetic matrix is 27.80 s
Start calculating Vnuc DD type!
Start calculating Vnuc CD type!
Start calculating Vnuc CC type!
 Time for computing nuclear attraction matrix is 56.36 s
Compute (P|Q) and use solve on the fly!
Maximum distance between P and Q is 30.17566373239437
Number of images for (P|Qn) is 2041
 Time for computing 2e2c SR integral is 0.11 s
Maximum dynamic memory per thread for 2e3c SR integrals: 0.153 GiB
Batch size for basis function pair is 1836 out of 1836
 === bvk cell = 0 has 100.000 % of the basis function pairs === 
 === bvk cell = 1 has 100.000 % of the basis function pairs === 
 === bvk cell = 2 has 100.000 % of the basis function pairs === 
 === bvk cell = 3 has 86.819 % of the basis function pairs === 
 === bvk cell = 4 has 100.000 % of the basis function pairs === 
 === bvk cell = 5 has 100.000 % of the basis function pairs === 
 === bvk cell = 6 has 100.000 % of the basis function pairs === 
 === bvk cell = 7 has 100.000 % of the basis function pairs === 
 === bvk cell = 8 has 97.712 % of the basis function pairs === 
 === bvk cell = 9 has 70.316 % of the basis function pairs === 
 === bvk cell = 10 has 100.000 % of the basis function pairs === 
 === bvk cell = 11 has 100.000 % of the basis function pairs === 
 === bvk cell = 12 has 100.000 % of the basis function pairs === 
 === bvk cell = 13 has 97.712 % of the basis function pairs === 
 === bvk cell = 14 has 56.699 % of the basis function pairs === 
 === bvk cell = 15 has 74.237 % of the basis function pairs === 
 === bvk cell = 16 has 100.000 % of the basis function pairs === 
 === bvk cell = 17 has 100.000 % of the basis function pairs === 
 === bvk cell = 18 has 86.819 % of the basis function pairs === 
 === bvk cell = 19 has 70.316 % of the basis function pairs === 
 === bvk cell = 20 has 74.237 % of the basis function pairs === 
 === bvk cell = 21 has 56.481 % of the basis function pairs === 
 === bvk cell = 22 has 97.876 % of the basis function pairs === 
 === bvk cell = 23 has 97.712 % of the basis function pairs === 
 === bvk cell = 24 has 100.000 % of the basis function pairs === 
 === bvk cell = 25 has 100.000 % of the basis function pairs === 
 === bvk cell = 26 has 100.000 % of the basis function pairs === 
 === bvk cell = 27 has 97.876 % of the basis function pairs === 
 === bvk cell = 28 has 52.778 % of the basis function pairs === 
 === bvk cell = 29 has 70.153 % of the basis function pairs === 
 === bvk cell = 30 has 100.000 % of the basis function pairs === 
 === bvk cell = 31 has 100.000 % of the basis function pairs === 
 === bvk cell = 32 has 100.000 % of the basis function pairs === 
 === bvk cell = 33 has 97.712 % of the basis function pairs === 
 === bvk cell = 34 has 70.153 % of the basis function pairs === 
 === bvk cell = 35 has 100.000 % of the basis function pairs === 
 === bvk cell = 36 has 100.000 % of the basis function pairs === 
 === bvk cell = 37 has 100.000 % of the basis function pairs === 
 === bvk cell = 38 has 97.712 % of the basis function pairs === 
 === bvk cell = 39 has 70.153 % of the basis function pairs === 
 === bvk cell = 40 has 100.000 % of the basis function pairs === 
 === bvk cell = 41 has 100.000 % of the basis function pairs === 
 === bvk cell = 42 has 100.000 % of the basis function pairs === 
 === bvk cell = 43 has 98.693 % of the basis function pairs === 
 === bvk cell = 44 has 57.298 % of the basis function pairs === 
 === bvk cell = 45 has 75.054 % of the basis function pairs === 
 === bvk cell = 46 has 100.000 % of the basis function pairs === 
 === bvk cell = 47 has 100.000 % of the basis function pairs === 
 === bvk cell = 48 has 97.712 % of the basis function pairs === 
 === bvk cell = 49 has 57.298 % of the basis function pairs === 
 === bvk cell = 50 has 49.782 % of the basis function pairs === 
 === bvk cell = 51 has 74.237 % of the basis function pairs === 
 === bvk cell = 52 has 100.000 % of the basis function pairs === 
 === bvk cell = 53 has 100.000 % of the basis function pairs === 
 === bvk cell = 54 has 70.153 % of the basis function pairs === 
 === bvk cell = 55 has 75.054 % of the basis function pairs === 
 === bvk cell = 56 has 74.237 % of the basis function pairs === 
 === bvk cell = 57 has 55.937 % of the basis function pairs === 
 === bvk cell = 58 has 60.403 % of the basis function pairs === 
 === bvk cell = 59 has 61.492 % of the basis function pairs === 
 === bvk cell = 60 has 100.000 % of the basis function pairs === 
 === bvk cell = 61 has 100.000 % of the basis function pairs === 
 === bvk cell = 62 has 100.000 % of the basis function pairs === 
 === bvk cell = 63 has 60.403 % of the basis function pairs === 
 === bvk cell = 64 has 54.521 % of the basis function pairs === 
 === bvk cell = 65 has 75.054 % of the basis function pairs === 
 === bvk cell = 66 has 100.000 % of the basis function pairs === 
 === bvk cell = 67 has 100.000 % of the basis function pairs === 
 === bvk cell = 68 has 100.000 % of the basis function pairs === 
 === bvk cell = 69 has 61.492 % of the basis function pairs === 
 === bvk cell = 70 has 75.054 % of the basis function pairs === 
 === bvk cell = 71 has 100.000 % of the basis function pairs === 
 === bvk cell = 72 has 100.000 % of the basis function pairs === 
 === bvk cell = 73 has 97.876 % of the basis function pairs === 
 === bvk cell = 74 has 52.778 % of the basis function pairs === 
 === bvk cell = 75 has 70.153 % of the basis function pairs === 
 === bvk cell = 76 has 100.000 % of the basis function pairs === 
 === bvk cell = 77 has 100.000 % of the basis function pairs === 
 === bvk cell = 78 has 97.876 % of the basis function pairs === 
 === bvk cell = 79 has 52.397 % of the basis function pairs === 
 === bvk cell = 80 has 57.298 % of the basis function pairs === 
 === bvk cell = 81 has 70.316 % of the basis function pairs === 
 === bvk cell = 82 has 100.000 % of the basis function pairs === 
 === bvk cell = 83 has 100.000 % of the basis function pairs === 
 === bvk cell = 84 has 52.778 % of the basis function pairs === 
 === bvk cell = 85 has 57.298 % of the basis function pairs === 
 === bvk cell = 86 has 56.699 % of the basis function pairs === 
 === bvk cell = 87 has 56.481 % of the basis function pairs === 
 === bvk cell = 88 has 64.488 % of the basis function pairs === 
 === bvk cell = 89 has 60.403 % of the basis function pairs === 
 === bvk cell = 90 has 70.153 % of the basis function pairs === 
 === bvk cell = 91 has 70.316 % of the basis function pairs === 
 === bvk cell = 92 has 56.481 % of the basis function pairs === 
 === bvk cell = 93 has 48.475 % of the basis function pairs === 
 === bvk cell = 94 has 49.619 % of the basis function pairs === 
 === bvk cell = 95 has 54.521 % of the basis function pairs === 
 === bvk cell = 96 has 100.000 % of the basis function pairs === 
 === bvk cell = 97 has 100.000 % of the basis function pairs === 
 === bvk cell = 98 has 64.488 % of the basis function pairs === 
 === bvk cell = 99 has 49.619 % of the basis function pairs === 
 === bvk cell = 100 has 58.606 % of the basis function pairs === 
 === bvk cell = 101 has 75.054 % of the basis function pairs === 
 === bvk cell = 102 has 100.000 % of the basis function pairs === 
 === bvk cell = 103 has 100.000 % of the basis function pairs === 
 === bvk cell = 104 has 60.403 % of the basis function pairs === 
 === bvk cell = 105 has 54.521 % of the basis function pairs === 
 === bvk cell = 106 has 75.054 % of the basis function pairs === 
 === bvk cell = 107 has 100.000 % of the basis function pairs === 
 === bvk cell = 108 has 56.481 % of the basis function pairs === 
 === bvk cell = 109 has 97.876 % of the basis function pairs === 
 === bvk cell = 110 has 97.712 % of the basis function pairs === 
 === bvk cell = 111 has 86.819 % of the basis function pairs === 
 === bvk cell = 112 has 70.316 % of the basis function pairs === 
 === bvk cell = 113 has 74.237 % of the basis function pairs === 
 === bvk cell = 114 has 97.876 % of the basis function pairs === 
 === bvk cell = 115 has 98.693 % of the basis function pairs === 
 === bvk cell = 116 has 97.712 % of the basis function pairs === 
 === bvk cell = 117 has 85.131 % of the basis function pairs === 
 === bvk cell = 118 has 56.481 % of the basis function pairs === 
 === bvk cell = 119 has 55.937 % of the basis function pairs === 
 === bvk cell = 120 has 97.712 % of the basis function pairs === 
 === bvk cell = 121 has 97.712 % of the basis function pairs === 
 === bvk cell = 122 has 84.532 % of the basis function pairs === 
 === bvk cell = 123 has 55.828 % of the basis function pairs === 
 === bvk cell = 124 has 48.475 % of the basis function pairs === 
 === bvk cell = 125 has 60.403 % of the basis function pairs === 
 === bvk cell = 126 has 86.819 % of the basis function pairs === 
 === bvk cell = 127 has 85.131 % of the basis function pairs === 
 === bvk cell = 128 has 55.828 % of the basis function pairs === 
 === bvk cell = 129 has 44.553 % of the basis function pairs === 
 === bvk cell = 130 has 49.619 % of the basis function pairs === 
 === bvk cell = 131 has 61.492 % of the basis function pairs === 
 === bvk cell = 132 has 70.316 % of the basis function pairs === 
 === bvk cell = 133 has 56.481 % of the basis function pairs === 
 === bvk cell = 134 has 48.475 % of the basis function pairs === 
 === bvk cell = 135 has 49.619 % of the basis function pairs === 
 === bvk cell = 136 has 54.521 % of the basis function pairs === 
 === bvk cell = 137 has 70.153 % of the basis function pairs === 
 === bvk cell = 138 has 74.237 % of the basis function pairs === 
 === bvk cell = 139 has 55.937 % of the basis function pairs === 
 === bvk cell = 140 has 60.403 % of the basis function pairs === 
 === bvk cell = 141 has 61.492 % of the basis function pairs === 
 === bvk cell = 142 has 70.153 % of the basis function pairs === 
 === bvk cell = 143 has 75.054 % of the basis function pairs === 
 === bvk cell = 144 has 100.000 % of the basis function pairs === 
 === bvk cell = 145 has 100.000 % of the basis function pairs === 
 === bvk cell = 146 has 100.000 % of the basis function pairs === 
 === bvk cell = 147 has 97.712 % of the basis function pairs === 
 === bvk cell = 148 has 56.699 % of the basis function pairs === 
 === bvk cell = 149 has 74.237 % of the basis function pairs === 
 === bvk cell = 150 has 100.000 % of the basis function pairs === 
 === bvk cell = 151 has 100.000 % of the basis function pairs === 
 === bvk cell = 152 has 98.693 % of the basis function pairs === 
 === bvk cell = 153 has 84.532 % of the basis function pairs === 
 === bvk cell = 154 has 56.481 % of the basis function pairs === 
 === bvk cell = 155 has 100.000 % of the basis function pairs === 
 === bvk cell = 156 has 100.000 % of the basis function pairs === 
 === bvk cell = 157 has 98.693 % of the basis function pairs === 
 === bvk cell = 158 has 88.453 % of the basis function pairs === 
 === bvk cell = 159 has 55.828 % of the basis function pairs === 
 === bvk cell = 160 has 64.488 % of the basis function pairs === 
 === bvk cell = 161 has 100.000 % of the basis function pairs === 
 === bvk cell = 162 has 97.712 % of the basis function pairs === 
 === bvk cell = 163 has 84.532 % of the basis function pairs === 
 === bvk cell = 164 has 55.828 % of the basis function pairs === 
 === bvk cell = 165 has 48.475 % of the basis function pairs === 
 === bvk cell = 166 has 60.403 % of the basis function pairs === 
 === bvk cell = 167 has 97.712 % of the basis function pairs === 
 === bvk cell = 168 has 56.699 % of the basis function pairs === 
 === bvk cell = 169 has 56.481 % of the basis function pairs === 
 === bvk cell = 170 has 64.488 % of the basis function pairs === 
 === bvk cell = 171 has 60.403 % of the basis function pairs === 
 === bvk cell = 172 has 52.778 % of the basis function pairs === 
 === bvk cell = 173 has 57.298 % of the basis function pairs === 
 === bvk cell = 174 has 74.237 % of the basis function pairs === 
 === bvk cell = 175 has 100.000 % of the basis function pairs === 
 === bvk cell = 176 has 100.000 % of the basis function pairs === 
 === bvk cell = 177 has 97.712 % of the basis function pairs === 
 === bvk cell = 178 has 57.298 % of the basis function pairs === 
 === bvk cell = 179 has 49.782 % of the basis function pairs === 
 === bvk cell = 180 has 100.000 % of the basis function pairs === 
 === bvk cell = 181 has 100.000 % of the basis function pairs === 
 === bvk cell = 182 has 100.000 % of the basis function pairs === 
 === bvk cell = 183 has 97.712 % of the basis function pairs === 
 === bvk cell = 184 has 70.316 % of the basis function pairs === 
 === bvk cell = 185 has 100.000 % of the basis function pairs === 
 === bvk cell = 186 has 100.000 % of the basis function pairs === 
 === bvk cell = 187 has 100.000 % of the basis function pairs === 
 === bvk cell = 188 has 98.693 % of the basis function pairs === 
 === bvk cell = 189 has 85.131 % of the basis function pairs === 
 === bvk cell = 190 has 100.000 % of the basis function pairs === 
 === bvk cell = 191 has 100.000 % of the basis function pairs === 
 === bvk cell = 192 has 100.000 % of the basis function pairs === 
 === bvk cell = 193 has 98.693 % of the basis function pairs === 
 === bvk cell = 194 has 84.532 % of the basis function pairs === 
 === bvk cell = 195 has 56.481 % of the basis function pairs === 
 === bvk cell = 196 has 100.000 % of the basis function pairs === 
 === bvk cell = 197 has 100.000 % of the basis function pairs === 
 === bvk cell = 198 has 97.712 % of the basis function pairs === 
 === bvk cell = 199 has 85.131 % of the basis function pairs === 
 === bvk cell = 200 has 56.481 % of the basis function pairs === 
 === bvk cell = 201 has 55.937 % of the basis function pairs === 
 === bvk cell = 202 has 97.876 % of the basis function pairs === 
 === bvk cell = 203 has 98.693 % of the basis function pairs === 
 === bvk cell = 204 has 70.316 % of the basis function pairs === 
 === bvk cell = 205 has 100.000 % of the basis function pairs === 
 === bvk cell = 206 has 100.000 % of the basis function pairs === 
 === bvk cell = 207 has 97.876 % of the basis function pairs === 
 === bvk cell = 208 has 52.397 % of the basis function pairs === 
 === bvk cell = 209 has 57.298 % of the basis function pairs === 
 === bvk cell = 210 has 100.000 % of the basis function pairs === 
 === bvk cell = 211 has 100.000 % of the basis function pairs === 
 === bvk cell = 212 has 100.000 % of the basis function pairs === 
 === bvk cell = 213 has 98.693 % of the basis function pairs === 
 === bvk cell = 214 has 57.298 % of the basis function pairs === 
 === bvk cell = 215 has 75.054 % of the basis function pairs === 
Static memory requirement for 2e3c SR integrals: 0.230 GB
There are 1 munu batches for computing 2e3c SR integrals with latsum
There are 2 Q batches for computing 2e3c SR integrals with latsum
 Time for computing 2e3c SR integral (CD) is 8.13 s
Maximum dynamic memory per thread for 2e3c SR integrals: 0.032 GiB
Batch size for basis function pair is 2470 out of 2470
 === bvk cell = 0 has 100.000 % of the basis function pairs === 
 === bvk cell = 1 has 82.591 % of the basis function pairs === 
 === bvk cell = 2 has 20.202 % of the basis function pairs === 
 === bvk cell = 3 has 0.810 % of the basis function pairs === 
 === bvk cell = 4 has 9.757 % of the basis function pairs === 
 === bvk cell = 5 has 71.134 % of the basis function pairs === 
 === bvk cell = 6 has 82.591 % of the basis function pairs === 
 === bvk cell = 7 has 33.603 % of the basis function pairs === 
 === bvk cell = 8 has 8.988 % of the basis function pairs === 
 === bvk cell = 9 has 2.794 % of the basis function pairs === 
 === bvk cell = 10 has 24.372 % of the basis function pairs === 
 === bvk cell = 11 has 76.680 % of the basis function pairs === 
 === bvk cell = 12 has 20.202 % of the basis function pairs === 
 === bvk cell = 13 has 8.988 % of the basis function pairs === 
 === bvk cell = 14 has 0.000 % of the basis function pairs === 
 === bvk cell = 15 has 1.862 % of the basis function pairs === 
 === bvk cell = 16 has 17.571 % of the basis function pairs === 
 === bvk cell = 17 has 29.555 % of the basis function pairs === 
 === bvk cell = 18 has 0.810 % of the basis function pairs === 
 === bvk cell = 19 has 2.794 % of the basis function pairs === 
 === bvk cell = 20 has 1.862 % of the basis function pairs === 
 === bvk cell = 21 has 0.000 % of the basis function pairs === 
 === bvk cell = 22 has 1.053 % of the basis function pairs === 
 === bvk cell = 23 has 3.522 % of the basis function pairs === 
 === bvk cell = 24 has 9.757 % of the basis function pairs === 
 === bvk cell = 25 has 24.372 % of the basis function pairs === 
 === bvk cell = 26 has 17.571 % of the basis function pairs === 
 === bvk cell = 27 has 1.053 % of the basis function pairs === 
 === bvk cell = 28 has 0.000 % of the basis function pairs === 
 === bvk cell = 29 has 4.534 % of the basis function pairs === 
 === bvk cell = 30 has 71.134 % of the basis function pairs === 
 === bvk cell = 31 has 76.680 % of the basis function pairs === 
 === bvk cell = 32 has 29.555 % of the basis function pairs === 
 === bvk cell = 33 has 3.522 % of the basis function pairs === 
 === bvk cell = 34 has 4.534 % of the basis function pairs === 
 === bvk cell = 35 has 19.636 % of the basis function pairs === 
 === bvk cell = 36 has 76.680 % of the basis function pairs === 
 === bvk cell = 37 has 29.555 % of the basis function pairs === 
 === bvk cell = 38 has 3.522 % of the basis function pairs === 
 === bvk cell = 39 has 4.534 % of the basis function pairs === 
 === bvk cell = 40 has 19.636 % of the basis function pairs === 
 === bvk cell = 41 has 71.134 % of the basis function pairs === 
 === bvk cell = 42 has 29.555 % of the basis function pairs === 
 === bvk cell = 43 has 9.514 % of the basis function pairs === 
 === bvk cell = 44 has 0.000 % of the basis function pairs === 
 === bvk cell = 45 has 5.061 % of the basis function pairs === 
 === bvk cell = 46 has 24.372 % of the basis function pairs === 
 === bvk cell = 47 has 44.615 % of the basis function pairs === 
 === bvk cell = 48 has 3.522 % of the basis function pairs === 
 === bvk cell = 49 has 0.000 % of the basis function pairs === 
 === bvk cell = 50 has 0.000 % of the basis function pairs === 
 === bvk cell = 51 has 1.862 % of the basis function pairs === 
 === bvk cell = 52 has 9.271 % of the basis function pairs === 
 === bvk cell = 53 has 13.806 % of the basis function pairs === 
 === bvk cell = 54 has 4.534 % of the basis function pairs === 
 === bvk cell = 55 has 5.061 % of the basis function pairs === 
 === bvk cell = 56 has 1.862 % of the basis function pairs === 
 === bvk cell = 57 has 0.000 % of the basis function pairs === 
 === bvk cell = 58 has 0.000 % of the basis function pairs === 
 === bvk cell = 59 has 0.810 % of the basis function pairs === 
 === bvk cell = 60 has 19.636 % of the basis function pairs === 
 === bvk cell = 61 has 24.372 % of the basis function pairs === 
 === bvk cell = 62 has 9.271 % of the basis function pairs === 
 === bvk cell = 63 has 0.000 % of the basis function pairs === 
 === bvk cell = 64 has 1.741 % of the basis function pairs === 
 === bvk cell = 65 has 8.664 % of the basis function pairs === 
 === bvk cell = 66 has 71.134 % of the basis function pairs === 
 === bvk cell = 67 has 44.615 % of the basis function pairs === 
 === bvk cell = 68 has 13.806 % of the basis function pairs === 
 === bvk cell = 69 has 0.810 % of the basis function pairs === 
 === bvk cell = 70 has 8.664 % of the basis function pairs === 
 === bvk cell = 71 has 40.283 % of the basis function pairs === 
 === bvk cell = 72 has 17.571 % of the basis function pairs === 
 === bvk cell = 73 has 1.053 % of the basis function pairs === 
 === bvk cell = 74 has 0.000 % of the basis function pairs === 
 === bvk cell = 75 has 4.534 % of the basis function pairs === 
 === bvk cell = 76 has 9.757 % of the basis function pairs === 
 === bvk cell = 77 has 24.372 % of the basis function pairs === 
 === bvk cell = 78 has 1.053 % of the basis function pairs === 
 === bvk cell = 79 has 0.000 % of the basis function pairs === 
 === bvk cell = 80 has 0.000 % of the basis function pairs === 
 === bvk cell = 81 has 2.794 % of the basis function pairs === 
 === bvk cell = 82 has 8.543 % of the basis function pairs === 
 === bvk cell = 83 has 9.271 % of the basis function pairs === 
 === bvk cell = 84 has 0.000 % of the basis function pairs === 
 === bvk cell = 85 has 0.000 % of the basis function pairs === 
 === bvk cell = 86 has 0.000 % of the basis function pairs === 
 === bvk cell = 87 has 0.000 % of the basis function pairs === 
 === bvk cell = 88 has 1.053 % of the basis function pairs === 
 === bvk cell = 89 has 0.000 % of the basis function pairs === 
 === bvk cell = 90 has 4.534 % of the basis function pairs === 
 === bvk cell = 91 has 2.794 % of the basis function pairs === 
 === bvk cell = 92 has 0.000 % of the basis function pairs === 
 === bvk cell = 93 has 0.000 % of the basis function pairs === 
 === bvk cell = 94 has 0.000 % of the basis function pairs === 
 === bvk cell = 95 has 1.741 % of the basis function pairs === 
 === bvk cell = 96 has 9.757 % of the basis function pairs === 
 === bvk cell = 97 has 8.543 % of the basis function pairs === 
 === bvk cell = 98 has 1.053 % of the basis function pairs === 
 === bvk cell = 99 has 0.000 % of the basis function pairs === 
 === bvk cell = 100 has 4.534 % of the basis function pairs === 
 === bvk cell = 101 has 8.664 % of the basis function pairs === 
 === bvk cell = 102 has 24.372 % of the basis function pairs === 
 === bvk cell = 103 has 9.271 % of the basis function pairs === 
 === bvk cell = 104 has 0.000 % of the basis function pairs === 
 === bvk cell = 105 has 1.741 % of the basis function pairs === 
 === bvk cell = 106 has 8.664 % of the basis function pairs === 
 === bvk cell = 107 has 19.636 % of the basis function pairs === 
 === bvk cell = 108 has 0.000 % of the basis function pairs === 
 === bvk cell = 109 has 1.053 % of the basis function pairs === 
 === bvk cell = 110 has 3.522 % of the basis function pairs === 
 === bvk cell = 111 has 0.810 % of the basis function pairs === 
 === bvk cell = 112 has 2.794 % of the basis function pairs === 
 === bvk cell = 113 has 1.862 % of the basis function pairs === 
 === bvk cell = 114 has 1.053 % of the basis function pairs === 
 === bvk cell = 115 has 9.514 % of the basis function pairs === 
 === bvk cell = 116 has 8.988 % of the basis function pairs === 
 === bvk cell = 117 has 0.000 % of the basis function pairs === 
 === bvk cell = 118 has 0.000 % of the basis function pairs === 
 === bvk cell = 119 has 0.000 % of the basis function pairs === 
 === bvk cell = 120 has 3.522 % of the basis function pairs === 
 === bvk cell = 121 has 8.988 % of the basis function pairs === 
 === bvk cell = 122 has 2.470 % of the basis function pairs === 
 === bvk cell = 123 has 0.000 % of the basis function pairs === 
 === bvk cell = 124 has 0.000 % of the basis function pairs === 
 === bvk cell = 125 has 0.000 % of the basis function pairs === 
 === bvk cell = 126 has 0.810 % of the basis function pairs === 
 === bvk cell = 127 has 0.000 % of the basis function pairs === 
 === bvk cell = 128 has 0.000 % of the basis function pairs === 
 === bvk cell = 129 has 0.000 % of the basis function pairs === 
 === bvk cell = 130 has 0.000 % of the basis function pairs === 
 === bvk cell = 131 has 0.810 % of the basis function pairs === 
 === bvk cell = 132 has 2.794 % of the basis function pairs === 
 === bvk cell = 133 has 0.000 % of the basis function pairs === 
 === bvk cell = 134 has 0.000 % of the basis function pairs === 
 === bvk cell = 135 has 0.000 % of the basis function pairs === 
 === bvk cell = 136 has 1.741 % of the basis function pairs === 
 === bvk cell = 137 has 4.534 % of the basis function pairs === 
 === bvk cell = 138 has 1.862 % of the basis function pairs === 
 === bvk cell = 139 has 0.000 % of the basis function pairs === 
 === bvk cell = 140 has 0.000 % of the basis function pairs === 
 === bvk cell = 141 has 0.810 % of the basis function pairs === 
 === bvk cell = 142 has 4.534 % of the basis function pairs === 
 === bvk cell = 143 has 5.061 % of the basis function pairs === 
 === bvk cell = 144 has 17.571 % of the basis function pairs === 
 === bvk cell = 145 has 29.555 % of the basis function pairs === 
 === bvk cell = 146 has 20.202 % of the basis function pairs === 
 === bvk cell = 147 has 8.988 % of the basis function pairs === 
 === bvk cell = 148 has 0.000 % of the basis function pairs === 
 === bvk cell = 149 has 1.862 % of the basis function pairs === 
 === bvk cell = 150 has 29.555 % of the basis function pairs === 
 === bvk cell = 151 has 33.603 % of the basis function pairs === 
 === bvk cell = 152 has 18.300 % of the basis function pairs === 
 === bvk cell = 153 has 2.470 % of the basis function pairs === 
 === bvk cell = 154 has 0.000 % of the basis function pairs === 
 === bvk cell = 155 has 9.271 % of the basis function pairs === 
 === bvk cell = 156 has 20.202 % of the basis function pairs === 
 === bvk cell = 157 has 18.300 % of the basis function pairs === 
 === bvk cell = 158 has 8.988 % of the basis function pairs === 
 === bvk cell = 159 has 0.000 % of the basis function pairs === 
 === bvk cell = 160 has 1.053 % of the basis function pairs === 
 === bvk cell = 161 has 13.806 % of the basis function pairs === 
 === bvk cell = 162 has 8.988 % of the basis function pairs === 
 === bvk cell = 163 has 2.470 % of the basis function pairs === 
 === bvk cell = 164 has 0.000 % of the basis function pairs === 
 === bvk cell = 165 has 0.000 % of the basis function pairs === 
 === bvk cell = 166 has 0.000 % of the basis function pairs === 
 === bvk cell = 167 has 3.522 % of the basis function pairs === 
 === bvk cell = 168 has 0.000 % of the basis function pairs === 
 === bvk cell = 169 has 0.000 % of the basis function pairs === 
 === bvk cell = 170 has 1.053 % of the basis function pairs === 
 === bvk cell = 171 has 0.000 % of the basis function pairs === 
 === bvk cell = 172 has 0.000 % of the basis function pairs === 
 === bvk cell = 173 has 0.000 % of the basis function pairs === 
 === bvk cell = 174 has 1.862 % of the basis function pairs === 
 === bvk cell = 175 has 9.271 % of the basis function pairs === 
 === bvk cell = 176 has 13.806 % of the basis function pairs === 
 === bvk cell = 177 has 3.522 % of the basis function pairs === 
 === bvk cell = 178 has 0.000 % of the basis function pairs === 
 === bvk cell = 179 has 0.000 % of the basis function pairs === 
 === bvk cell = 180 has 76.680 % of the basis function pairs === 
 === bvk cell = 181 has 82.591 % of the basis function pairs === 
 === bvk cell = 182 has 33.603 % of the basis function pairs === 
 === bvk cell = 183 has 8.988 % of the basis function pairs === 
 === bvk cell = 184 has 2.794 % of the basis function pairs === 
 === bvk cell = 185 has 24.372 % of the basis function pairs === 
 === bvk cell = 186 has 82.591 % of the basis function pairs === 
 === bvk cell = 187 has 56.923 % of the basis function pairs === 
 === bvk cell = 188 has 18.300 % of the basis function pairs === 
 === bvk cell = 189 has 0.000 % of the basis function pairs === 
 === bvk cell = 190 has 8.543 % of the basis function pairs === 
 === bvk cell = 191 has 44.615 % of the basis function pairs === 
 === bvk cell = 192 has 33.603 % of the basis function pairs === 
 === bvk cell = 193 has 18.300 % of the basis function pairs === 
 === bvk cell = 194 has 2.470 % of the basis function pairs === 
 === bvk cell = 195 has 0.000 % of the basis function pairs === 
 === bvk cell = 196 has 9.271 % of the basis function pairs === 
 === bvk cell = 197 has 29.555 % of the basis function pairs === 
 === bvk cell = 198 has 8.988 % of the basis function pairs === 
 === bvk cell = 199 has 0.000 % of the basis function pairs === 
 === bvk cell = 200 has 0.000 % of the basis function pairs === 
 === bvk cell = 201 has 0.000 % of the basis function pairs === 
 === bvk cell = 202 has 1.053 % of the basis function pairs === 
 === bvk cell = 203 has 9.514 % of the basis function pairs === 
 === bvk cell = 204 has 2.794 % of the basis function pairs === 
 === bvk cell = 205 has 8.543 % of the basis function pairs === 
 === bvk cell = 206 has 9.271 % of the basis function pairs === 
 === bvk cell = 207 has 1.053 % of the basis function pairs === 
 === bvk cell = 208 has 0.000 % of the basis function pairs === 
 === bvk cell = 209 has 0.000 % of the basis function pairs === 
 === bvk cell = 210 has 24.372 % of the basis function pairs === 
 === bvk cell = 211 has 44.615 % of the basis function pairs === 
 === bvk cell = 212 has 29.555 % of the basis function pairs === 
 === bvk cell = 213 has 9.514 % of the basis function pairs === 
 === bvk cell = 214 has 0.000 % of the basis function pairs === 
 === bvk cell = 215 has 5.061 % of the basis function pairs === 
Static memory requirement for 2e3c SR integrals: 0.047 GB
There are 1 munu batches for computing 2e3c SR integrals with latsum
There are 2 Q batches for computing 2e3c SR integrals with latsum
 Time for computing 2e3c SR integral (CC) is 0.47 s
 Time for RI-J this SCF iteration is 16.79 s
 Time for RI-J this SCF iteration is 8.30 s
 ----------------------------------------------
 Guess energy: -107.3903179969
 ----------------------------------------------
 Guess energy components:
 DFT Correlation    Energy =  -0.39357257372151
 DFT Exchange       Energy = -12.25058535615735
 Kinetic            Energy = 109.22993884713728
 Nuclear Attraction Energy = -202.72106989605516
 Nuclear Repulsion  Energy = -31.10949437582012
 Total Coulomb      Energy =  29.85446535771817
 ----------------------------------------------
  Cycle       Energy        RMS Gradient
 ----------------------------------------------
 Time for RI-J this SCF iteration is 7.92 s
    1    -107.4081954431      2.69e-01   Descent step
 Energy components after cycle 1:
 DFT Correlation    Energy =  -0.39322673725499
 DFT Exchange       Energy = -12.20576835944054
 Kinetic            Energy = 108.89339625850620
 Nuclear Attraction Energy = -202.13579264319020
 Nuclear Repulsion  Energy = -31.10949437582012
 Total Coulomb      Energy =  29.54269041413522
 Time for RI-J this SCF iteration is 8.21 s
    2    -107.4230610509      2.27e-01   Descent step
 Energy components after cycle 2:
 DFT Correlation    Energy =  -0.39293852729623
 DFT Exchange       Energy = -12.16138236235356
 Kinetic            Energy = 108.56026906876801
 Nuclear Attraction Energy = -201.55366889055344
 Nuclear Repulsion  Energy = -31.10949437582012
 Total Coulomb      Energy =  29.23415403638313
 Time for RI-J this SCF iteration is 7.92 s
    3    -107.4349850701      1.87e-01   Descent step
 Energy components after cycle 3:
 DFT Correlation    Energy =  -0.39270431994749
 DFT Exchange       Energy = -12.11742017104170
 Kinetic            Energy = 108.23091975696570
 Nuclear Attraction Energy = -200.97507071251337
 Nuclear Repulsion  Energy = -31.10949437582012
 Total Coulomb      Energy =  28.92878475223487
 Time for RI-J this SCF iteration is 7.93 s
    4    -107.4440252561      1.48e-01   Descent step
 Energy components after cycle 4:
 DFT Correlation    Energy =  -0.39252030469421
 DFT Exchange       Energy = -12.07389611638902
 Kinetic            Energy = 107.90611903732135
 Nuclear Attraction Energy = -200.40089245529990
 Nuclear Repulsion  Energy = -31.10949437582012
 Total Coulomb      Energy =  28.62665895877784
 Time for RI-J this SCF iteration is 8.22 s
    5    -107.4502323193      1.09e-01   Descent step
 Energy components after cycle 5:
 DFT Correlation    Energy =  -0.39238159126752
 DFT Exchange       Energy = -12.03087501763158
 Kinetic            Energy = 107.58759549351348
 Nuclear Attraction Energy = -199.83327384918570
 Nuclear Repulsion  Energy = -31.10949437582012
 Total Coulomb      Energy =  28.32819702106660
 Time for RI-J this SCF iteration is 7.95 s
    6    -107.4536615473      7.02e-02   Descent step
 Energy components after cycle 6:
 DFT Correlation    Energy =  -0.39227911683066
 DFT Exchange       Energy = -11.98859958873177
 Kinetic            Energy = 107.28017033680872
 Nuclear Attraction Energy = -199.27849710626799
 Nuclear Repulsion  Energy = -31.10949437582012
 Total Coulomb      Energy =  28.03503830351303
 Time for RI-J this SCF iteration is 7.96 s
    7    -107.4544456163      3.16e-02   Descent step
 Energy components after cycle 7:
 DFT Correlation    Energy =  -0.39217878754728
 DFT Exchange       Energy = -11.94873430025011
 Kinetic            Energy = 107.00907181534062
 Nuclear Attraction Energy = -198.77167124806530
 Nuclear Repulsion  Energy = -31.10949437582012
 Total Coulomb      Energy =  27.75856128008666
 Time for RI-J this SCF iteration is 7.94 s
    8    -107.4545899871      7.83e-03   Normal BFGS step
 Energy components after cycle 8:
 DFT Correlation    Energy =  -0.39206112462747
 DFT Exchange       Energy = -11.95978435231480
 Kinetic            Energy = 107.13655592611565
 Nuclear Attraction Energy = -198.96463280735412
 Nuclear Repulsion  Energy = -31.10949437582012
 Total Coulomb      Energy =  27.83482674693421
 Time for RI-J this SCF iteration is 7.96 s
    9    -107.4545905531      2.46e-04   Normal BFGS step
 Energy components after cycle 9:
 DFT Correlation    Energy =  -0.39206693908329
 DFT Exchange       Energy = -11.95950808637091
 Kinetic            Energy = 107.12839633673424
 Nuclear Attraction Energy = -198.95539309897114
 Nuclear Repulsion  Energy = -31.10949437582012
 Total Coulomb      Energy =  27.83347561042999
 Time for RI-J this SCF iteration is 8.02 s
   10    -107.4545905610      4.39e-05   Normal BFGS step
 Energy components after cycle 10:
 DFT Correlation    Energy =  -0.39206651241072
 DFT Exchange       Energy = -11.95951048689778
 Kinetic            Energy = 107.12868256237400
 Nuclear Attraction Energy = -198.95557953971442
 Nuclear Repulsion  Energy = -31.10949437582012
 Total Coulomb      Energy =  27.83337779148117
 Time for RI-J this SCF iteration is 8.43 s
   11    -107.4545905616      1.53e-05   Normal BFGS step
 Energy components after cycle 11:
 DFT Correlation    Energy =  -0.39206639535866
 DFT Exchange       Energy = -11.95951168571990
 Kinetic            Energy = 107.12877819206960
 Nuclear Attraction Energy = -198.95568467670279
 Nuclear Repulsion  Energy = -31.10949437582012
 Total Coulomb      Energy =  27.83338837990706
 Time for RI-J this SCF iteration is 7.89 s
   12    -107.4545905616      1.13e-06   Normal BFGS step
 Energy components after cycle 12:
 DFT Correlation    Energy =  -0.39206641531900
 DFT Exchange       Energy = -11.95951103598679
 Kinetic            Energy = 107.12875403569093
 Nuclear Attraction Energy = -198.95566227376125
 Nuclear Repulsion  Energy = -31.10949437582012
 Total Coulomb      Energy =  27.83338950356458
   12    -107.4545905616      1.13e-06  Convergence criterion met
 ----------------------------------------------
 Final energy components:
 DFT Correlation    Energy =  -0.39206641531900
 DFT Exchange       Energy = -11.95951103598679
 Kinetic            Energy = 107.12875403569093
 Nuclear Attraction Energy = -198.95566227376125
 Nuclear Repulsion  Energy = -31.10949437582012
 Total Coulomb      Energy =  27.83338950356458
 ----------------------------------------------
 Final energy is -107.4545905616

 SCF time:   CPU 10457.11s  wall 449.00s 
 Total wall time for computing Kinetic: 0.17 s (14)
 Total wall time for computing RIJ-BIGMEM: 121.46 s (14)
 Total wall time for computing RSDF Vnuc: 0.16 s (14)
 Total wall time for computing DFT XC: 191.06 s (14)
 ---------------------------------------------------------------------------
                        Orbital Energies (a.u.)
 ---------------------------------------------------------------------------
 == 0-th k-point (-0.27639,-0.27639,-0.27639) occupation: 6==
 -23.85915 -1.46327 -0.68430 -0.03722 0.02961 0.02961 0.43212 0.66788 0.76332 0.76332
 1.08450 1.11153 1.11153 1.39180 1.39180 1.39185 1.63732 1.75042 1.75042 1.82865
 1.98832 1.98832 2.38325 2.47461 2.57444 2.57444 2.76392 2.78544 2.78544 2.82569
 2.82569 2.87457 2.97785 3.15842 3.15842 3.76419 3.96774 3.96774 4.27748 4.73548
 4.73548 4.76414 4.79666 5.21013 5.21013 5.45803 6.25510 6.25510 6.29147 6.30506
 6.30506 6.54697 7.43761 7.43761 7.47682 8.52681 8.57834 8.57834 11.60739 11.60739
 11.62621 11.63547 11.63547 11.66926 11.68440 11.70336 11.70336 13.01602 14.91290 14.92245
 14.95364 14.95364 15.16007 15.16007 15.36261 16.69597 16.69597 16.70968 16.70968 16.77770
 17.22988 55.79188 286.55543
 == 1-th k-point (-0.13819,-0.13819,-0.41458) occupation: 6==
 -23.85915 -1.46330 -0.68359 -0.02706 0.01815 0.01959 0.45864 0.67438 0.76231 0.78309
 0.90104 1.20254 1.20914 1.34576 1.37512 1.49052 1.56377 1.64279 1.76598 1.92729
 1.95458 2.06476 2.26810 2.34000 2.47274 2.55954 2.64096 2.74178 2.85454 2.92575
 3.01172 3.09352 3.15583 3.51015 3.64289 3.95545 4.01613 4.28861 4.53347 4.78595
 4.82769 4.86242 5.06781 5.13061 5.33528 6.20223 6.25466 6.31514 6.34027 6.39092
 6.71829 7.48302 7.67905 7.85206 8.44578 8.58657 8.70041 11.60756 11.60880 11.61594
 11.62325 11.63168 11.64671 11.65886 11.66122 11.72006 12.34043 14.81976 14.92710 14.95075
 14.96171 15.07996 15.12402 15.21620 16.68821 16.69898 16.75110 16.77194 16.83081 17.30935
 55.77364 286.52510
 == 2-th k-point (-0.00000,0.00000,-0.55277) occupation: 6==
 -23.85915 -1.46280 -0.67776 -0.04619 0.00779 0.00779 0.51212 0.68104 0.72734 0.78928
 0.78928 1.30763 1.34417 1.41118 1.41119 1.59441 1.60517 1.62169 1.62170 1.84532
 2.04206 2.04211 2.05613 2.48509 2.58815 2.58823 2.59786 2.62734 2.79999 2.84964
 2.85042 2.88451 3.13410 3.55024 3.86766 3.86767 4.12582 4.64643 4.64643 4.90851
 5.03106 5.05437 5.05462 5.06538 5.96270 6.16773 6.16776 6.18160 6.37577 6.38842
 7.69952 7.73751 7.73756 7.98957 8.42914 8.42949 11.59613 11.61717 11.61717 11.62666
 11.63527 11.64144 11.64144 11.66642 11.71521 12.70548 14.88251 14.88251 14.97317 15.06703
 15.06971 15.06975 15.10364 16.62317 16.62372 16.62373 16.76417 16.77242 16.93953 55.51425
 286.19881
 == 3-th k-point (0.13819,0.13819,-0.69096) occupation: 6==
 -23.85915 -1.46226 -0.67240 -0.06171 -0.00845 0.00553 0.55451 0.62155 0.71028 0.77429
 0.85425 1.28793 1.35999 1.40681 1.48960 1.54585 1.64399 1.71919 1.87493 1.89371
 1.98213 2.01393 2.13925 2.19963 2.32054 2.40806 2.46578 2.60435 2.71352 2.84230
 2.88221 2.98188 3.09213 3.34992 3.53993 3.83427 3.84317 4.00831 4.72780 4.81604
 4.82960 5.03366 5.18537 5.20073 5.48348 5.82392 5.93546 6.12993 6.30068 6.32283
 6.38718 7.51843 7.75728 8.00522 8.22661 8.33552 8.56153 11.60409 11.61724 11.63273
 11.64203 11.64795 11.65159 11.66077 11.67428 11.72541 12.76322 14.91088 14.93176 14.97357
 15.05875 15.16589 15.18891 15.33199 16.35309 16.41138 16.66245 16.72772 16.79812 17.13509
 55.66922 286.40073
 == 4-th k-point (0.27639,0.27639,-0.82916) occupation: 6==
 -23.85915 -1.46223 -0.67317 -0.04433 -0.03074 0.01486 0.53984 0.59269 0.73605 0.75556
 0.97471 1.22978 1.23920 1.35320 1.42752 1.62852 1.68750 1.86665 1.89822 1.96051
 2.01982 2.03032 2.17284 2.27575 2.34496 2.42365 2.46042 2.50002 2.64757 2.69338
 2.79979 2.88027 2.93247 3.20312 3.64156 3.67305 3.71820 3.78685 3.94992 4.72668
 4.74127 5.14267 5.36766 5.45359 5.54397 5.54689 5.63026 5.81170 6.09079 6.25138
 6.81967 7.23140 7.61018 7.71056 7.75472 8.38161 8.44631 8.50558 11.59806 11.63390
 11.63478 11.63814 11.64863 11.65153 11.65260 11.69917 11.70068 12.56213 14.88921 14.93487
 15.11970 15.26431 15.30647 15.32272 15.38102 16.24518 16.30923 16.63564 16.69222 17.18513
 17.84446 56.14457 286.99082
 == 5-th k-point (0.41458,0.41458,-0.96735) occupation: 6==
 -23.85915 -1.46273 -0.67924 -0.04403 0.00083 0.02713 0.47002 0.63033 0.75078 0.75270
 1.10869 1.12540 1.13913 1.39171 1.41185 1.49521 1.62541 1.81331 1.87619 1.88945
 1.90132 2.00089 2.25231 2.26517 2.40134 2.45373 2.59374 2.67734 2.78834 2.81978
 2.85201 2.89027 2.92721 3.43280 3.60066 3.65451 3.86442 3.92691 4.21094 4.52030
 4.73582 5.04309 5.16744 5.35241 5.50788 5.51357 6.15681 6.16739 6.23109 6.39544
[...]
 0.85425 1.28793 1.35999 1.40682 1.48960 1.54587 1.64400 1.71954 1.87546 1.89371
 1.98227 2.01393 2.13940 2.19987 2.32065 2.40806 2.46728 2.60770 2.71354 2.84241
 2.88303 2.98833 3.09217 3.36052 3.54243 3.84083 3.84317 4.00990 4.72780 4.81639
 4.82962 5.03403 5.18695 5.20074 5.49089 5.82417 5.93547 6.13484 6.30068 6.32745
 6.38742 7.51863 7.75730 8.00575 8.22719 8.33555 8.57901 11.60409 11.61724 11.63274
 11.64204 11.64795 11.65167 11.66077 11.67428 11.72546 12.76430 14.91088 14.93179 14.97357
 15.05882 15.16589 15.18926 15.33418 16.35319 16.41138 16.66255 16.72772 16.79869 17.13784
 55.66965 286.40083
 == 192-th k-point (-0.69096,0.13819,0.69096) occupation: 6==
 -23.85915 -1.46226 -0.67240 -0.06171 -0.00845 0.00553 0.55452 0.62156 0.71028 0.77429
 0.85425 1.28793 1.35999 1.40681 1.48960 1.54586 1.64399 1.71938 1.87532 1.89370
 1.98213 2.01394 2.13930 2.19983 2.32050 2.40806 2.46602 2.60767 2.71351 2.84234
 2.88263 2.98480 3.09214 3.36056 3.54169 3.84083 3.84320 4.00875 4.72779 4.81635
 4.82961 5.03402 5.18644 5.20075 5.49088 5.82399 5.93547 6.13482 6.30069 6.32751
 6.38730 7.51852 7.75726 8.00541 8.22700 8.33562 8.57930 11.60409 11.61724 11.63274
 11.64204 11.64795 11.65167 11.66077 11.67428 11.72542 12.76388 14.91087 14.93179 14.97357
 15.05882 15.16589 15.18914 15.33419 16.35316 16.41139 16.66248 16.72772 16.79867 17.13796
 55.66967 286.40083
 == 193-th k-point (-0.55277,0.27639,0.55277) occupation: 6==
 -23.85915 -1.46255 -0.67750 -0.05266 0.00564 0.01994 0.47607 0.63284 0.73946 0.74884
 1.01752 1.21584 1.23106 1.38027 1.42353 1.42993 1.68385 1.72119 1.91629 1.94672
 1.96271 2.05243 2.21810 2.26637 2.34033 2.36196 2.48509 2.66429 2.67872 2.77596
 2.88126 2.89310 2.94958 3.54000 3.66437 3.67384 3.79981 3.85320 4.17884 4.48560
 4.75847 5.08948 5.14882 5.38341 5.50644 5.52199 6.11867 6.14565 6.22769 6.53760
 6.62456 6.64704 7.37126 7.85705 8.05998 8.22436 8.45907 8.50844 11.61667 11.61815
 11.62279 11.63414 11.64592 11.65486 11.66022 11.67296 11.70560 12.68919 14.79015 14.91569
 15.09783 15.12669 15.24909 15.32814 15.33622 16.58514 16.62631 16.69916 16.98965 17.00860
 17.41836 55.98125 286.79617
 == 194-th k-point (-0.41458,0.41458,0.41458) occupation: 6==
 -23.85915 -1.46270 -0.67998 -0.05803 0.02759 0.02759 0.43490 0.65599 0.73507 0.73507
 1.16685 1.18718 1.18720 1.27743 1.41279 1.41279 1.72352 1.72366 1.80717 2.00632
 2.00636 2.01171 2.09328 2.31885 2.32483 2.49245 2.70246 2.79793 2.80222 2.80222
 2.85223 2.90588 2.96773 3.64804 3.64845 3.74271 3.75518 3.80089 4.18514 4.37035
 4.76638 5.23956 5.25320 5.50145 5.50637 5.60654 6.11608 6.11609 6.15866 6.55109
 6.55135 6.98183 6.98183 7.19514 7.66212 7.69233 8.21402 8.22642 11.60208 11.60208
 11.61917 11.62572 11.62572 11.66133 11.66134 11.67120 11.74469 13.18851 14.72738 14.92121
 15.17606 15.17764 15.31094 15.31196 15.45943 16.58932 16.58932 16.67066 16.94727 16.94732
 18.06867 56.44471 287.35665
 == 195-th k-point (-0.27639,0.55277,0.27639) occupation: 6==
 -23.85915 -1.46255 -0.67750 -0.05266 0.00564 0.01994 0.47607 0.63284 0.73946 0.74884
 1.01752 1.21584 1.23106 1.38027 1.42353 1.42993 1.68385 1.72119 1.91629 1.94672
 1.96271 2.05243 2.21810 2.26637 2.34033 2.36196 2.48509 2.66429 2.67872 2.77596
 2.88126 2.89310 2.94958 3.54000 3.66437 3.67384 3.79981 3.85320 4.17884 4.48560
 4.75847 5.08948 5.14882 5.38341 5.50644 5.52199 6.11867 6.14565 6.22769 6.53760
 6.62456 6.64704 7.37126 7.85705 8.05998 8.22436 8.45907 8.50844 11.61667 11.61815
 11.62279 11.63414 11.64592 11.65486 11.66022 11.67296 11.70560 12.68919 14.79015 14.91569
 15.09783 15.12669 15.24909 15.32814 15.33622 16.58514 16.62631 16.69916 16.98965 17.00860
 17.41836 55.98125 286.79617
 == 196-th k-point (-0.13819,0.69096,0.13819) occupation: 6==
 -23.85915 -1.46226 -0.67240 -0.06171 -0.00845 0.00553 0.55452 0.62156 0.71028 0.77429
 0.85425 1.28793 1.35999 1.40681 1.48960 1.54586 1.64399 1.71938 1.87532 1.89370
 1.98213 2.01394 2.13930 2.19983 2.32050 2.40806 2.46602 2.60767 2.71351 2.84234
 2.88263 2.98480 3.09214 3.36056 3.54169 3.84083 3.84320 4.00875 4.72779 4.81635
 4.82961 5.03402 5.18644 5.20075 5.49088 5.82399 5.93547 6.13482 6.30069 6.32751
 6.38730 7.51852 7.75726 8.00541 8.22700 8.33562 8.57930 11.60409 11.61724 11.63274
 11.64204 11.64795 11.65167 11.66077 11.67428 11.72542 12.76388 14.91087 14.93179 14.97357
 15.05882 15.16589 15.18914 15.33419 16.35316 16.41139 16.66248 16.72772 16.79867 17.13796
 55.66967 286.40083
 == 197-th k-point (0.00000,0.82916,0.00000) occupation: 6==
 -23.85915 -1.46211 -0.66978 -0.07649 -0.00127 -0.00127 0.58433 0.64368 0.68359 0.78592
 0.78592 1.27691 1.45561 1.51281 1.63274 1.63274 1.65761 1.67201 1.67207 1.92277
 1.92277 2.04031 2.08183 2.20244 2.20250 2.31836 2.31941 2.66919 2.73779 2.83991
 2.84099 2.90531 3.11679 3.47631 3.90680 3.90694 4.16987 4.81152 4.86220 5.03557
 5.03587 5.10436 5.34964 5.34964 5.57170 5.57177 5.71448 6.13674 6.30291 6.30428
 7.55889 8.08358 8.13970 8.14016 8.68474 8.68493 11.59613 11.59757 11.59757 11.61832
 11.64637 11.64682 11.64682 11.68309 11.74451 13.31643 14.93267 14.96111 15.04527 15.04531
 15.10947 15.38372 15.38374 16.02591 16.02591 16.53746 16.58473 16.71484 16.82459 55.28841
 285.91662
 == 198-th k-point (-0.55277,-0.00000,0.82916) occupation: 6==
 -23.85915 -1.46208 -0.67055 -0.05970 -0.02233 0.00441 0.58663 0.60627 0.68298 0.75839
 0.92300 1.20649 1.29679 1.44767 1.57853 1.62618 1.64053 1.76741 1.82069 1.89797
 2.02020 2.09714 2.10977 2.18833 2.24725 2.37075 2.43090 2.53135 2.64823 2.80990
 2.86816 3.05315 3.15710 3.43575 3.58087 3.71673 3.74069 4.28814 4.52022 4.65187
 4.99176 5.18472 5.31369 5.44357 5.52462 5.56133 5.94564 6.05564 6.14955 6.36800
 7.07660 7.38937 7.50010 7.74282 8.43694 8.51466 8.75658 11.61859 11.62744 11.63048
 11.63448 11.64412 11.64557 11.65911 11.67932 11.85855 12.36515 14.79326 14.89020 15.06293
 15.14236 15.28651 15.30574 15.39404 16.15148 16.51660 16.58201 16.60743 16.79293 17.58746
 55.78212 286.54409
 == 199-th k-point (-0.41458,0.13819,0.69096) occupation: 6==
 -23.85915 -1.46223 -0.67317 -0.04679 -0.02633 0.01267 0.53727 0.60466 0.72320 0.74866
 1.04493 1.07463 1.34969 1.38757 1.47910 1.48800 1.71823 1.81617 1.93118 1.97509
 1.98986 2.01210 2.20136 2.26641 2.30912 2.38202 2.43884 2.45329 2.58743 2.77729
 2.79891 2.88889 3.42542 3.43771 3.47198 3.67833 3.80371 3.81220 4.69385 4.86447
 5.09668 5.19516 5.42244 5.45998 5.47047 5.59431 5.96339 6.10688 6.27505 6.38226
 6.76516 7.40573 7.61510 8.13229 8.19423 8.26275 8.34966 11.61840 11.62247 11.62398
 11.62862 11.63872 11.64979 11.65091 11.67463 11.69555 12.34643 14.87445 14.97992 15.10732
 15.14403 15.26930 15.31172 15.35502 16.21115 16.45793 16.61268 16.80998 16.93229 17.24769
 55.69045 286.43788
 == 200-th k-point (-0.27639,0.27639,0.55277) occupation: 6==
 -23.85915 -1.46255 -0.67750 -0.05266 0.00564 0.01994 0.47607 0.63284 0.73946 0.74884
 1.01752 1.21584 1.23106 1.38027 1.42353 1.42993 1.68385 1.72119 1.91629 1.94672
 1.96271 2.05243 2.21810 2.26637 2.34033 2.36196 2.48509 2.66429 2.67872 2.77596
 2.88126 2.89310 2.94958 3.54000 3.66437 3.67384 3.79981 3.85320 4.17884 4.48560
 4.75847 5.08948 5.14882 5.38341 5.50644 5.52199 6.11867 6.14565 6.22769 6.53760
 6.62456 6.64704 7.37126 7.85705 8.05998 8.22436 8.45907 8.50844 11.61667 11.61815
 11.62279 11.63414 11.64592 11.65486 11.66022 11.67296 11.70560 12.68919 14.79015 14.91569
 15.09783 15.12669 15.24909 15.32814 15.33622 16.58514 16.62631 16.69916 16.98965 17.00860
 17.41836 55.98125 286.79617
 == 201-th k-point (-0.13819,0.41458,0.41458) occupation: 6==
 -23.85915 -1.46273 -0.67924 -0.04403 0.00083 0.02713 0.47002 0.63033 0.75078 0.75270
 1.10869 1.12540 1.13912 1.39170 1.41185 1.49519 1.62541 1.81311 1.87618 1.88945
 1.90121 2.00088 2.25153 2.26517 2.40111 2.45369 2.58853 2.67691 2.78814 2.81984
 2.84836 2.89014 2.92395 3.42427 3.59862 3.65451 3.86439 3.92333 4.20949 4.52029
 4.73579 5.04313 5.16742 5.34920 5.50330 5.50788 6.15681 6.16719 6.23094 6.39515
 6.70016 6.82495 7.40015 7.71561 8.01666 8.30915 8.52099 8.60566 11.60644 11.61399
 11.62298 11.62996 11.63044 11.65453 11.66619 11.68622 11.70288 12.56960 14.80717 14.90444
 15.06685 15.13294 15.23315 15.30618 15.32396 16.59621 16.64607 16.70992 16.79455 17.16599
 17.42652 55.93921 286.74006
 == 202-th k-point (0.00000,0.55277,0.27639) occupation: 6==
 -23.85915 -1.46258 -0.67675 -0.04277 -0.01073 0.01671 0.51033 0.62400 0.73414 0.76325
 0.94320 1.17728 1.31951 1.38108 1.42321 1.53648 1.62880 1.76563 1.78654 1.86592
 2.01822 2.06971 2.20066 2.28914 2.30341 2.44660 2.51725 2.55734 2.82980 2.85819
 2.89334 2.94508 3.19037 3.46931 3.70036 3.80931 3.95062 4.07396 4.63271 4.75469
 4.81396 5.03584 5.17239 5.38583 5.50925 6.07105 6.13797 6.24124 6.25052 6.44733
 6.59218 7.43983 7.48336 8.08046 8.31787 8.37427 8.59374 11.61542 11.61554 11.62175
 11.63272 11.64000 11.65298 11.65523 11.65992 11.72760 12.22557 14.87129 14.91373 14.94951
 15.06682 15.13363 15.26495 15.30682 16.51585 16.64651 16.66765 16.73841 17.04896 17.18783
 55.75554 286.51125
 == 203-th k-point (0.13819,0.69096,0.13819) occupation: 6==
 -23.85915 -1.46226 -0.67240 -0.06171 -0.00845 0.00553 0.55452 0.62156 0.71028 0.77429
 0.85425 1.28793 1.35999 1.40682 1.48960 1.54587 1.64400 1.71954 1.87546 1.89371
 1.98227 2.01393 2.13940 2.19987 2.32065 2.40806 2.46728 2.60770 2.71354 2.84241
 2.88303 2.98833 3.09217 3.36052 3.54243 3.84083 3.84317 4.00990 4.72780 4.81639
 4.82962 5.03403 5.18695 5.20074 5.49089 5.82417 5.93547 6.13484 6.30068 6.32745
 6.38742 7.51863 7.75730 8.00575 8.22719 8.33555 8.57901 11.60409 11.61724 11.63274
 11.64204 11.64795 11.65167 11.66077 11.67428 11.72546 12.76430 14.91088 14.93179 14.97357
 15.05882 15.16589 15.18926 15.33418 16.35319 16.41138 16.66255 16.72772 16.79869 17.13784
 55.66965 286.40083
 == 204-th k-point (-0.41458,-0.13819,0.96735) occupation: 6==
 -23.85915 -1.46223 -0.67317 -0.04679 -0.02633 0.01267 0.53727 0.60466 0.72320 0.74866
 1.04493 1.07463 1.34969 1.38757 1.47911 1.48799 1.71826 1.81617 1.93117 1.97474
 1.98986 2.01210 2.19988 2.26630 2.30912 2.38229 2.43882 2.45224 2.58773 2.77556
 2.79942 2.88881 3.42750 3.43710 3.47314 3.67795 3.80357 3.81239 4.69369 4.86449
 5.09669 5.19513 5.42125 5.46126 5.46966 5.59464 5.96341 6.10627 6.27688 6.38199
 6.76523 7.40573 7.61498 8.13091 8.19453 8.26268 8.35298 11.61840 11.62247 11.62399
 11.62862 11.63872 11.64979 11.65091 11.67464 11.69555 12.34643 14.87443 14.97993 15.10732
 15.14402 15.26920 15.31142 15.35549 16.21115 16.45793 16.61254 16.80989 16.93272 17.24800
 55.69056 286.43790
 == 205-th k-point (-0.27639,-0.00000,0.82916) occupation: 6==
 -23.85915 -1.46208 -0.67055 -0.05970 -0.02233 0.00441 0.58663 0.60627 0.68298 0.75839
 0.92300 1.20649 1.29679 1.44767 1.57853 1.62618 1.64053 1.76741 1.82069 1.89797
 2.02020 2.09714 2.10977 2.18833 2.24725 2.37075 2.43090 2.53135 2.64823 2.80990
 2.86816 3.05315 3.15710 3.43575 3.58087 3.71673 3.74069 4.28814 4.52022 4.65187
 4.99176 5.18472 5.31369 5.44357 5.52462 5.56133 5.94564 6.05564 6.14955 6.36800
 7.07660 7.38937 7.50010 7.74282 8.43694 8.51466 8.75658 11.61859 11.62744 11.63048
 11.63448 11.64412 11.64557 11.65911 11.67932 11.85855 12.36515 14.79326 14.89020 15.06293
 15.14236 15.28651 15.30574 15.39404 16.15148 16.51660 16.58201 16.60743 16.79293 17.58746
 55.78212 286.54409
 == 206-th k-point (-0.13819,0.13819,0.69096) occupation: 6==
 -23.85915 -1.46226 -0.67240 -0.06171 -0.00845 0.00553 0.55452 0.62156 0.71028 0.77429
 0.85425 1.28793 1.35999 1.40681 1.48960 1.54586 1.64399 1.71938 1.87532 1.89370
 1.98213 2.01394 2.13930 2.19983 2.32050 2.40806 2.46602 2.60767 2.71351 2.84234
 2.88263 2.98480 3.09214 3.36056 3.54169 3.84083 3.84320 4.00875 4.72779 4.81635
 4.82961 5.03402 5.18644 5.20075 5.49088 5.82399 5.93547 6.13482 6.30069 6.32751
 6.38730 7.51852 7.75726 8.00541 8.22700 8.33562 8.57930 11.60409 11.61724 11.63274
 11.64204 11.64795 11.65167 11.66077 11.67428 11.72542 12.76388 14.91087 14.93179 14.97357
 15.05882 15.16589 15.18914 15.33419 16.35316 16.41139 16.66248 16.72772 16.79867 17.13796
 55.66967 286.40083
 == 207-th k-point (0.00000,0.27639,0.55277) occupation: 6==
 -23.85915 -1.46258 -0.67675 -0.04277 -0.01073 0.01671 0.51033 0.62400 0.73414 0.76325
 0.94320 1.17728 1.31951 1.38108 1.42321 1.53648 1.62880 1.76563 1.78654 1.86592
 2.01822 2.06971 2.20066 2.28914 2.30341 2.44660 2.51725 2.55734 2.82980 2.85819
 2.89334 2.94508 3.19037 3.46931 3.70036 3.80931 3.95062 4.07396 4.63271 4.75469
 4.81396 5.03584 5.17239 5.38583 5.50925 6.07105 6.13797 6.24124 6.25052 6.44733
 6.59218 7.43983 7.48336 8.08046 8.31787 8.37427 8.59374 11.61542 11.61554 11.62175
 11.63272 11.64000 11.65298 11.65523 11.65992 11.72760 12.22557 14.87129 14.91373 14.94951
 15.06682 15.13363 15.26495 15.30682 16.51585 16.64651 16.66765 16.73841 17.04896 17.18783
 55.75554 286.51125
 == 208-th k-point (0.13819,0.41458,0.41458) occupation: 6==
 -23.85915 -1.46273 -0.67924 -0.04403 0.00083 0.02713 0.47002 0.63033 0.75078 0.75270
 1.10869 1.12540 1.13913 1.39171 1.41185 1.49521 1.62541 1.81331 1.87619 1.88945
 1.90132 2.00089 2.25231 2.26517 2.40134 2.45373 2.59374 2.67734 2.78834 2.81978
 2.85201 2.89027 2.92721 3.43280 3.60066 3.65451 3.86442 3.92691 4.21094 4.52030
 4.73582 5.04309 5.16744 5.35241 5.50788 5.51357 6.15681 6.16739 6.23109 6.39544
 6.69995 6.82495 7.40016 7.71599 8.01669 8.31329 8.52930 8.60574 11.60644 11.61400
 11.62299 11.62996 11.63048 11.65453 11.66625 11.68637 11.70288 12.57133 14.80717 14.90444
 15.06686 15.13294 15.23363 15.30618 15.32598 16.59621 16.64624 16.70993 16.79460 17.16600
 17.42651 55.93921 286.74006
 == 209-th k-point (0.27639,0.55277,0.27639) occupation: 6==
 -23.85915 -1.46255 -0.67750 -0.05266 0.00564 0.01994 0.47607 0.63284 0.73946 0.74884
 1.01752 1.21584 1.23106 1.38026 1.42353 1.43000 1.68386 1.72119 1.91628 1.94670
 1.96283 2.05241 2.21803 2.26617 2.34040 2.36218 2.48545 2.66558 2.67656 2.77360
 2.88132 2.89854 2.94889 3.53994 3.66674 3.67164 3.80014 3.85200 4.17750 4.48563
 4.75848 5.08872 5.14894 5.38346 5.50487 5.52300 6.11868 6.14533 6.22754 6.53792
 6.62352 6.64762 7.37124 7.85676 8.06021 8.22491 8.46524 8.50574 11.61670 11.61815
 11.62280 11.63414 11.64590 11.65487 11.66019 11.67293 11.70564 12.68856 14.79016 14.91569
 15.09773 15.12670 15.24910 15.32845 15.33584 16.58515 16.62627 16.69904 16.98960 17.00900
 17.41834 55.98123 286.79617
 == 210-th k-point (-0.27639,-0.27639,1.10554) occupation: 6==
 -23.85915 -1.46255 -0.67750 -0.05266 0.00564 0.01994 0.47607 0.63284 0.73946 0.74884
 1.01752 1.21584 1.23106 1.38026 1.42353 1.43000 1.68386 1.72119 1.91628 1.94670
 1.96283 2.05241 2.21803 2.26617 2.34040 2.36218 2.48545 2.66558 2.67656 2.77360
 2.88132 2.89854 2.94889 3.53994 3.66674 3.67164 3.80014 3.85200 4.17750 4.48563
 4.75848 5.08872 5.14894 5.38346 5.50487 5.52300 6.11868 6.14533 6.22754 6.53792
 6.62352 6.64762 7.37124 7.85676 8.06021 8.22491 8.46524 8.50574 11.61670 11.61815
 11.62280 11.63414 11.64590 11.65487 11.66019 11.67293 11.70564 12.68856 14.79016 14.91569
 15.09773 15.12670 15.24910 15.32845 15.33584 16.58515 16.62627 16.69904 16.98960 17.00900
 17.41834 55.98123 286.79617
 == 211-th k-point (-0.13819,-0.13819,0.96735) occupation: 6==
 -23.85915 -1.46226 -0.67240 -0.06171 -0.00845 0.00553 0.55452 0.62156 0.71028 0.77429
 0.85425 1.28793 1.35999 1.40682 1.48960 1.54587 1.64400 1.71954 1.87546 1.89371
 1.98227 2.01393 2.13940 2.19987 2.32065 2.40806 2.46728 2.60770 2.71354 2.84241
 2.88303 2.98833 3.09217 3.36052 3.54243 3.84083 3.84317 4.00990 4.72780 4.81639
 4.82962 5.03403 5.18695 5.20074 5.49089 5.82417 5.93547 6.13484 6.30068 6.32745
 6.38742 7.51863 7.75730 8.00575 8.22719 8.33555 8.57901 11.60409 11.61724 11.63274
 11.64204 11.64795 11.65167 11.66077 11.67428 11.72546 12.76430 14.91088 14.93179 14.97357
 15.05882 15.16589 15.18926 15.33418 16.35319 16.41138 16.66255 16.72772 16.79869 17.13784
 55.66965 286.40083
 == 212-th k-point (0.00000,-0.00000,0.82916) occupation: 6==
 -23.85915 -1.46211 -0.66978 -0.07649 -0.00127 -0.00127 0.58433 0.64368 0.68359 0.78592
 0.78592 1.27691 1.45561 1.51281 1.63274 1.63274 1.65761 1.67201 1.67207 1.92277
 1.92277 2.04031 2.08183 2.20244 2.20250 2.31836 2.31941 2.66919 2.73779 2.83991
 2.84099 2.90531 3.11679 3.47631 3.90680 3.90694 4.16987 4.81152 4.86220 5.03557
 5.03587 5.10436 5.34964 5.34964 5.57170 5.57177 5.71448 6.13674 6.30291 6.30428
 7.55889 8.08358 8.13970 8.14016 8.68474 8.68493 11.59613 11.59757 11.59757 11.61832
 11.64637 11.64682 11.64682 11.68309 11.74451 13.31643 14.93267 14.96111 15.04527 15.04531
 15.10947 15.38372 15.38374 16.02591 16.02591 16.53746 16.58473 16.71484 16.82459 55.28841
 285.91662
 == 213-th k-point (0.13819,0.13819,0.69096) occupation: 6==
 -23.85915 -1.46226 -0.67240 -0.06171 -0.00845 0.00553 0.55452 0.62156 0.71028 0.77429
 0.85425 1.28793 1.35999 1.40682 1.48960 1.54587 1.64400 1.71954 1.87546 1.89371
 1.98227 2.01393 2.13940 2.19987 2.32065 2.40806 2.46728 2.60770 2.71354 2.84241
 2.88303 2.98833 3.09217 3.36052 3.54243 3.84083 3.84317 4.00990 4.72780 4.81639
 4.82962 5.03403 5.18695 5.20074 5.49089 5.82417 5.93547 6.13484 6.30068 6.32745
 6.38742 7.51863 7.75730 8.00575 8.22719 8.33555 8.57901 11.60409 11.61724 11.63274
 11.64204 11.64795 11.65167 11.66077 11.67428 11.72546 12.76430 14.91088 14.93179 14.97357
 15.05882 15.16589 15.18926 15.33418 16.35319 16.41138 16.66255 16.72772 16.79869 17.13784
 55.66965 286.40083
 == 214-th k-point (0.27639,0.27639,0.55277) occupation: 6==
 -23.85915 -1.46255 -0.67750 -0.05266 0.00564 0.01994 0.47607 0.63284 0.73946 0.74884
 1.01752 1.21584 1.23106 1.38026 1.42353 1.43000 1.68386 1.72119 1.91628 1.94670
 1.96283 2.05241 2.21803 2.26617 2.34040 2.36218 2.48545 2.66558 2.67656 2.77360
 2.88132 2.89854 2.94889 3.53994 3.66674 3.67164 3.80014 3.85200 4.17750 4.48563
 4.75848 5.08872 5.14894 5.38346 5.50487 5.52300 6.11868 6.14533 6.22754 6.53792
 6.62352 6.64762 7.37124 7.85676 8.06021 8.22491 8.46524 8.50574 11.61670 11.61815
 11.62280 11.63414 11.64590 11.65487 11.66019 11.67293 11.70564 12.68856 14.79016 14.91569
 15.09773 15.12670 15.24910 15.32845 15.33584 16.58515 16.62627 16.69904 16.98960 17.00900
 17.41834 55.98123 286.79617
 == 215-th k-point (0.41458,0.41458,0.41458) occupation: 6==
 -23.85915 -1.46270 -0.67998 -0.05803 0.02759 0.02759 0.43490 0.65599 0.73507 0.73507
 1.16685 1.18718 1.18718 1.27743 1.41279 1.41279 1.72352 1.72352 1.80717 2.00632
 2.00632 2.01177 2.09295 2.31878 2.31878 2.49245 2.70234 2.79729 2.79729 2.80222
 2.80222 2.90431 2.96773 3.64804 3.64804 3.74259 3.74259 3.80086 4.18334 4.37035
 4.76638 5.23940 5.23940 5.50141 5.50141 5.60654 6.11608 6.11608 6.15863 6.55110
 6.55110 6.98183 6.98183 7.19435 7.66213 7.68984 8.21388 8.21388 11.60208 11.60208
 11.61917 11.62572 11.62572 11.66133 11.66133 11.67118 11.74466 13.18850 14.72738 14.92121
 15.17604 15.17604 15.31093 15.31093 15.45943 16.58932 16.58932 16.67063 16.94727 16.94727
 18.06771 56.44455 287.35662
 ---------------------------------------------------------------------------
 VBM is at 86-th k-point with 0.98255 eV
 CBM is at 86-th k-point with 10.17377 eV
 Band gap is 9.19122 eV


           Ground-State Mulliken Net Atomic Charges

      Atom                 Charge (a.u.)          Spin (a.u.)
   --------------------------------------------------------
      1 Li                (0.166765,0.000000)    (0.000000,0.000000)
      2  F              (-0.166765,-0.000000)    (0.000000,0.000000)
   --------------------------------------------------------
  Sum of atomic charges =     (-0.000000,-0.000000)
  Sum of spin   charges =       (0.000000,0.000000)



 Total job time:  450.31 s.
 Tue Sep  9 00:56:17 2025


        *************************************************************
        *                                                           *
        *  Thank you very much for using QCPBC. Have a nice day.    *
        *                                                           *
        *************************************************************

Running job 1 of 1
