                  Welcome to Q-Chem
           with Periodic Boundary Condition
     A Quantum Leap Into The Future Of Chemistry

 Adam Rettig, Xintian Feng, Meng-Fu Chen, Hieu Dinh, Stephen Quiton,
 Anton Ni, Paul J. Robinson, Jinghong Zhang, Joonho Lee

Contributors to earlier versions of Q-Chem not listed above:
 Evgeny Epifanovsky, Leo Cunha, Jerome F. Gonthier, Kuan-Yu Liu
 Input file: /n/netscratch/joonholee_lab/Lab/hieudinh//lif_solve_def2qzvp_omega_0.6_888.scratch20250909021915/lif_solve_def2qzvp_omega_0.6_888.0
 Scratch folder: /n/netscratch/joonholee_lab/Lab/hieudinh//lif_solve_def2qzvp_omega_0.6_888.scratch20250909021915
 Auxillary files located at: /n/holylabs/LABS/joonholee_lab/Lab/qchem_base/qcaux
 Q-Chem begins on Tue Sep  9 02:19:15 2025

 -------------------------------------------------------------
 User input:
 -------------------------------------------------------------
 $lattice
 3
 0.000000 2.005000 2.005000
 2.005000 0.000000 2.005000
 2.005000 2.005000 0.000000
 $end
 
 $unitcell
 ABSOLUTE
 0 1
 Li 0.000000 0.000000 0.000000
 F  2.005000 0.000000 0.000000
 $end
 
 $rem
 jobtype = sp
 method = pbe
 scf_convergence = 5
 scf_guess = autosad
 scf_algorithm = gdm
 basis = def2-qzvp
 aux_basis = gen
 input_bohr = false
 symmetry false
 is_basis_uctr true
 rsdf_print_level 1
 
 mp_mesh = [8,8,8]
 
 integral_direct true
 bvk_cgto true
 
 thresh 14
 mem_total 100000
 threads 32
 
 MAX_SCF_CYCLES 400
 madelung = false
 omega 0.6
 do_rij_bigmem true
 automate_g true
 print_level 10
 grid_type_xc 1
 
 thresh_1e2c_sp 1e-14
 thresh_2e3c_bra_ket_sep 1e-10
 thresh_g 1e-12
 $end
 
 $aux_basis
 Li     0
 S   7   1.00
     498.3689730              0.0207908
     162.9342738              0.0542177
      57.3246735              0.1776783
      21.6427314              0.4181150
       8.7345375              0.6535245
       3.7491039              0.5492618
       1.7006754              0.1701425
 S   1   1.00
       0.8090859             -0.0097548
 S   1   1.00
       0.4000933             -0.0050152
 S   1   1.00
       0.2035793              0.0232200
 !S   1   1.00
 !      0.1054201              0.0134535
 !S   1   1.00
 !      0.0549139              0.0006647
 P   2   1.00
      10.7024696              0.0072923
       3.6551543              0.0060940
 P   1   1.00
       1.2464013              0.0172529
 P   1   1.00
       0.4246282             -0.0160026
 P   1   1.00
       0.1446192             -0.0195111
 D   2   1.00
       1.1510647             -0.0014314
       0.6019112              0.0038969
 D   1   1.00
       0.3109573              0.0024683
 D   1   1.00
       0.1600032              0.0036451
 F   2   1.00
       0.5967918              0.0010494
       0.1790687              0.0006468
 G   1   1.00
       1.0460130             -0.0001971
 ****
 F     0
 S   7   1.00
    3514.9201549              0.1805835
    1231.2458815              0.3676084
     454.1367336              1.2707881
     175.8376258              2.8274164
      71.2081775              4.3588226
      30.0316883              2.7180994
      13.1259023             -0.0804726
 S   1   1.00
       5.9126861             -0.0023370
 S   1   1.00
       2.7284431              1.1236274
 S   1   1.00
       1.2813993              0.9999042
 S   1   1.00
       0.6082793              0.3119579
 S   1   1.00
       0.2897894              0.0312295
 P   2   1.00
      49.3740409             -0.0346332
      13.4874956             -0.0096069
 P   1   1.00
       3.9664900              0.0762067
 P   1   1.00
       1.2226629             -0.0103329
 P   1   1.00
       0.3830317              0.0018853
 D   2   1.00
      29.9719140             -0.0113316
       6.7860915             -0.0467639
 D   1   1.00
       1.8137313             -0.0167604
 D   1   1.00
       0.5157840             -0.0050777
 F   2   1.00
       2.8301877              1.0
       0.9155962              1.0
 G   1   1.00
       1.6097500             -0.0005411
 ****
 $end
 -------------------------------------------------------------
 Running PBC job

 Requested Exchange Correlation Functionals: 
  DFT Exchange:  1.00000 pbe_x
  DFT Correlation:  1.00000 pbe_c
 using 32 threads for computing.
 ---------------------------------------------------------------
      Coordinates of Atoms in Central Unit Cell (Angstroms)
    I     Atom         X            Y            Z
 ---------------------------------------------------------------
    1      Li      0.000000     0.000000     0.000000
    2       F      2.005000     0.000000     0.000000
 ---------------------------------------------------------------
 --------------------------------------------------
              Lattice Vectors (Angstroms)
              X            Y            Z
 --------------------------------------------------
   X       0.000000     2.005000     2.005000
   Y       2.005000     0.000000     2.005000
   Z       2.005000     2.005000     0.000000
 --------------------------------------------------
 --------------------------------------------------
       Reciprocal Lattice Vectors (Angstroms^-1)
              X            Y            Z
 --------------------------------------------------
   X      -1.566879     1.566879     1.566879
   Y       1.566879    -1.566879     1.566879
   Z       1.566879     1.566879    -1.566879
 --------------------------------------------------

 Single point calculation requested

 Hamiltonian contributions:
 List of terms in Hamiltonian: kpts_nn, kpts_kinetic, kpts_vnuc_df, kpts_xc, kpts_rij_bigmem

 K-Points calculation started.

 Basis set information about using solid harmonic (1) or Cartesian (0):
  li : D(1) D(1) F(1) 
  f : D(1) D(1) D(1) F(1) F(1) G(1) 

 Basis set information about using solid harmonic (1) or Cartesian (0):
  li : D(1) D(1) D(1) F(1) G(1) 
  f : D(1) D(1) D(1) F(1) G(1) 

 There are 92 basis functions in the central unit cell.
 Print atomic basis of atoms in the central unit cell:
 -------------------------------------------------------------
2 53 53 30

  0.00000000000000e+00  0.00000000000000e+00  0.00000000000000e+00
  3.78890087987467e+00  0.00000000000000e+00  0.00000000000000e+00

  1.48539770850000e+04
  2.22522364770000e+03
  5.04887390080000e+02
  1.42458475480000e+02
  4.63155995800000e+01
  1.66553354740000e+01
  6.43311861990000e+00
  2.60270438580000e+00
  1.08972454050000e+00
  4.42365959710000e+00
  1.23563949900000e+00
  4.60674706020000e-01
  9.66171669550000e-02
  4.59154522960000e-02
  2.11400487300000e-02
  3.26051092060000e+00
  6.50030431150000e-01
  1.69416710730000e-01
  3.32700000000000e+00
  5.57323437670000e-02
  2.04899592410000e-02
  2.30000000000000e-01
  7.57000000000000e-02
  1.35000000000000e-01
  1.32535973450000e+05
  1.97581125880000e+04
  4.48519969470000e+03
  1.27381510200000e+03
  4.18938312360000e+02
  1.52557219850000e+02
  5.98215248230000e+01
  2.48190769320000e+01
  1.00744466730000e+02
  3.01037282900000e+01
  1.08142832720000e+01
  4.81728867700000e+00
  1.65593342130000e+00
  6.48935195820000e-01
  2.47781045450000e-01
  2.40966541140000e+02
  5.70206997810000e+01
  1.81269521200000e+01
  6.64574046210000e+00
  2.63757228920000e+00
  1.06382172000000e+00
  4.19325627500000e-01
  1.57475882990000e-01
  5.01400000000000e+00
  1.72500000000000e+00
  5.86000000000000e-01
  3.56200000000000e+00
  1.14800000000000e+00
  2.37600000000000e+00

  4.67593013229757e-02
  8.76137465723478e-02
  1.51821576860780e-01
  2.46527731442678e-01
  3.74140539449148e-01
  5.14323804423000e-01
  6.00677517411378e-01
  5.44460466941871e-01
  3.21097242154446e-01
  2.72734215356930e-01
  7.53702662810338e-01
  3.98525272814913e-01
  1.23509628755786e-01
  7.06934606713439e-02
  3.95129614058778e-02
  2.22230636644090e-01
  1.62952044217479e-01
  1.33842808684561e-01
  6.40480761295544e+00
  3.85988372286674e-02
  1.10501063034648e-02
  1.25728336426159e-01
  1.79815549832937e-02
  1.62631785032468e-02
  3.86107783813291e-01
  7.24648975903829e-01
  1.25045495963763e+00
  2.01518764389143e+00
  3.04056815166578e+00
  4.21268576129244e+00
  5.00944268647146e+00
  4.54693835849554e+00
  2.32503271092484e+00
  8.41440806306271e+00
  4.25019052011886e+00
  2.31745919743391e+00
  1.04038060130896e+00
  5.15301123337211e-01
  2.50300174847139e-01
  3.49166780573024e+00
  4.61886090108967e+00
  5.17964869303152e+00
  4.78626212475628e+00
  3.24578400123904e+00
  1.54001926672016e+00
  4.80982576947690e-01
  1.41402684040663e-01
  2.76523492268872e+01
  4.27356565232165e+00
  6.45996677345861e-01
  2.56605380682814e+01
  2.00827738540458e+00
  1.20230076986570e+01

0 0 0 0 1 1 1
0 0 
9 0

0 1 1 9 1 1 1
9 0 
2 0

0 2 2 11 1 1 1
11 0 
1 0

0 3 3 12 1 1 1
12 0 
1 0

0 4 4 13 1 1 1
13 0 
1 0

0 5 5 14 1 1 1
14 0 
1 0

0 6 6 15 1 3 3
15 1 
3 0

0 9 9 18 1 3 3
18 1 
1 0

0 12 12 19 1 3 3
19 1 
1 0

0 15 15 20 1 3 3
20 1 
1 0

0 18 18 21 1 5 6
21 2 
1 1

0 23 23 22 1 5 6
22 2 
1 1

0 28 28 23 1 7 10
23 3 
1 1

1 35 35 24 1 1 1
24 0 
8 0

1 36 36 32 1 1 1
32 0 
2 0

1 37 37 34 1 1 1
34 0 
1 0

1 38 38 35 1 1 1
35 0 
1 0

1 39 39 36 1 1 1
36 0 
1 0

1 40 40 37 1 1 1
37 0 
1 0

1 41 41 38 1 1 1
38 0 
1 0

1 42 42 39 1 3 3
39 1 
5 0

1 45 45 44 1 3 3
44 1 
1 0

1 48 48 45 1 3 3
45 1 
1 0

1 51 51 46 1 3 3
46 1 
1 0

1 54 54 47 1 5 6
47 2 
1 1

1 59 59 48 1 5 6
48 2 
1 1

1 64 64 49 1 5 6
49 2 
1 1

1 69 69 50 1 7 10
50 3 
1 1

1 76 76 51 1 7 10
51 3 
1 1

1 83 83 52 1 9 15
52 4 
1 1

 -------------------------------------------------------------
 Allocate 136872 B from available memory: 104857600000 B
 There are 15625 image cells after screening.
 There are 17628 image cells for CGTO evaluation after screening.
 Real-Space grid for FFT initialized based on kinetic energy cutoff (eV) = 500.0
 Real-Space grid for FFT: (8,8,8)
 There are 4913 real-space grid points.
 There are 27 batches of real-space grid points. 
 Size of each grid batch is around 128
 Grid for AFT initialized based on kinetic energy cutoff (eV) = 500.0
 Real-Space grid for AFT: (8,8,8)
 There are 4913 real-space grid points.

 There are 5912 atom-centered grid points.

 Spacegroup symmetry group: Fm-3m
 Reducing spacegroup symmetry to symmorphic group: F m -3 m
 Monkhorst-Pack mesh is [8,8,8]
 There are 512 k points.
kpoints in Bohr
-0.3109337727 -0.3109337727 -0.3109337727
-0.2072891818 -0.2072891818 -0.4145783636
-0.1036445909 -0.1036445909 -0.5182229546
-0.0000000000 0.0000000000 -0.6218675455
0.1036445909 0.1036445909 -0.7255121364
0.2072891818 0.2072891818 -0.8291567273
0.3109337727 0.3109337727 -0.9328013182
0.4145783636 0.4145783636 -1.0364459091
-0.2072891818 -0.4145783636 -0.2072891818
-0.1036445909 -0.3109337727 -0.3109337727
-0.0000000000 -0.2072891818 -0.4145783636
0.1036445909 -0.1036445909 -0.5182229546
0.2072891818 0.0000000000 -0.6218675455
0.3109337727 0.1036445909 -0.7255121364
0.4145783636 0.2072891818 -0.8291567273
0.5182229546 0.3109337727 -0.9328013182
-0.1036445909 -0.5182229546 -0.1036445909
-0.0000000000 -0.4145783636 -0.2072891818
0.1036445909 -0.3109337727 -0.3109337727
0.2072891818 -0.2072891818 -0.4145783636
0.3109337727 -0.1036445909 -0.5182229546
0.4145783636 0.0000000000 -0.6218675455
0.5182229546 0.1036445909 -0.7255121364
0.6218675455 0.2072891818 -0.8291567273
-0.0000000000 -0.6218675455 -0.0000000000
0.1036445909 -0.5182229546 -0.1036445909
0.2072891818 -0.4145783636 -0.2072891818
0.3109337727 -0.3109337727 -0.3109337727
0.4145783636 -0.2072891818 -0.4145783636
0.5182229546 -0.1036445909 -0.5182229546
0.6218675455 0.0000000000 -0.6218675455
0.7255121364 0.1036445909 -0.7255121364
0.1036445909 -0.7255121364 0.1036445909
0.2072891818 -0.6218675455 -0.0000000000
0.3109337727 -0.5182229546 -0.1036445909
0.4145783636 -0.4145783636 -0.2072891818
0.5182229546 -0.3109337727 -0.3109337727
0.6218675455 -0.2072891818 -0.4145783636
0.7255121364 -0.1036445909 -0.5182229546
0.8291567273 0.0000000000 -0.6218675455
0.2072891818 -0.8291567273 0.2072891818
0.3109337727 -0.7255121364 0.1036445909
0.4145783636 -0.6218675455 -0.0000000000
0.5182229546 -0.5182229546 -0.1036445909
0.6218675455 -0.4145783636 -0.2072891818
0.7255121364 -0.3109337727 -0.3109337727
0.8291567273 -0.2072891818 -0.4145783636
0.9328013182 -0.1036445909 -0.5182229546
0.3109337727 -0.9328013182 0.3109337727
0.4145783636 -0.8291567273 0.2072891818
0.5182229546 -0.7255121364 0.1036445909
0.6218675455 -0.6218675455 -0.0000000000
0.7255121364 -0.5182229546 -0.1036445909
0.8291567273 -0.4145783636 -0.2072891818
0.9328013182 -0.3109337727 -0.3109337727
1.0364459091 -0.2072891818 -0.4145783636
0.4145783636 -1.0364459091 0.4145783636
0.5182229546 -0.9328013182 0.3109337727
0.6218675455 -0.8291567273 0.2072891818
0.7255121364 -0.7255121364 0.1036445909
0.8291567273 -0.6218675455 -0.0000000000
0.9328013182 -0.5182229546 -0.1036445909
1.0364459091 -0.4145783636 -0.2072891818
1.1400905000 -0.3109337727 -0.3109337727
-0.4145783636 -0.2072891818 -0.2072891818
-0.3109337727 -0.1036445909 -0.3109337727
-0.2072891818 0.0000000000 -0.4145783636
-0.1036445909 0.1036445909 -0.5182229546
-0.0000000000 0.2072891818 -0.6218675455
0.1036445909 0.3109337727 -0.7255121364
0.2072891818 0.4145783636 -0.8291567273
0.3109337727 0.5182229546 -0.9328013182
-0.3109337727 -0.3109337727 -0.1036445909
-0.2072891818 -0.2072891818 -0.2072891818
-0.1036445909 -0.1036445909 -0.3109337727
-0.0000000000 0.0000000000 -0.4145783636
0.1036445909 0.1036445909 -0.5182229546
0.2072891818 0.2072891818 -0.6218675455
0.3109337727 0.3109337727 -0.7255121364
0.4145783636 0.4145783636 -0.8291567273
-0.2072891818 -0.4145783636 -0.0000000000
-0.1036445909 -0.3109337727 -0.1036445909
-0.0000000000 -0.2072891818 -0.2072891818
0.1036445909 -0.1036445909 -0.3109337727
0.2072891818 0.0000000000 -0.4145783636
0.3109337727 0.1036445909 -0.5182229546
0.4145783636 0.2072891818 -0.6218675455
0.5182229546 0.3109337727 -0.7255121364
-0.1036445909 -0.5182229546 0.1036445909
-0.0000000000 -0.4145783636 -0.0000000000
0.1036445909 -0.3109337727 -0.1036445909
0.2072891818 -0.2072891818 -0.2072891818
0.3109337727 -0.1036445909 -0.3109337727
0.4145783636 0.0000000000 -0.4145783636
0.5182229546 0.1036445909 -0.5182229546
0.6218675455 0.2072891818 -0.6218675455
0.0000000000 -0.6218675455 0.2072891818
0.1036445909 -0.5182229546 0.1036445909
0.2072891818 -0.4145783636 -0.0000000000
0.3109337727 -0.3109337727 -0.1036445909
0.4145783636 -0.2072891818 -0.2072891818
0.5182229546 -0.1036445909 -0.3109337727
0.6218675455 0.0000000000 -0.4145783636
0.7255121364 0.1036445909 -0.5182229546
0.1036445909 -0.7255121364 0.3109337727
0.2072891818 -0.6218675455 0.2072891818
0.3109337727 -0.5182229546 0.1036445909
0.4145783636 -0.4145783636 -0.0000000000
0.5182229546 -0.3109337727 -0.1036445909
0.6218675455 -0.2072891818 -0.2072891818
0.7255121364 -0.1036445909 -0.3109337727
0.8291567273 0.0000000000 -0.4145783636
0.2072891818 -0.8291567273 0.4145783636
0.3109337727 -0.7255121364 0.3109337727
0.4145783636 -0.6218675455 0.2072891818
0.5182229546 -0.5182229546 0.1036445909
0.6218675455 -0.4145783636 -0.0000000000
0.7255121364 -0.3109337727 -0.1036445909
0.8291567273 -0.2072891818 -0.2072891818
0.9328013182 -0.1036445909 -0.3109337727
0.3109337727 -0.9328013182 0.5182229546
0.4145783636 -0.8291567273 0.4145783636
0.5182229546 -0.7255121364 0.3109337727
0.6218675455 -0.6218675455 0.2072891818
0.7255121364 -0.5182229546 0.1036445909
0.8291567273 -0.4145783636 -0.0000000000
0.9328013182 -0.3109337727 -0.1036445909
1.0364459091 -0.2072891818 -0.2072891818
-0.5182229546 -0.1036445909 -0.1036445909
-0.4145783636 0.0000000000 -0.2072891818
-0.3109337727 0.1036445909 -0.3109337727
-0.2072891818 0.2072891818 -0.4145783636
-0.1036445909 0.3109337727 -0.5182229546
-0.0000000000 0.4145783636 -0.6218675455
0.1036445909 0.5182229546 -0.7255121364
0.2072891818 0.6218675455 -0.8291567273
-0.4145783636 -0.2072891818 -0.0000000000
-0.3109337727 -0.1036445909 -0.1036445909
-0.2072891818 0.0000000000 -0.2072891818
-0.1036445909 0.1036445909 -0.3109337727
-0.0000000000 0.2072891818 -0.4145783636
0.1036445909 0.3109337727 -0.5182229546
0.2072891818 0.4145783636 -0.6218675455
0.3109337727 0.5182229546 -0.7255121364
-0.3109337727 -0.3109337727 0.1036445909
-0.2072891818 -0.2072891818 -0.0000000000
-0.1036445909 -0.1036445909 -0.1036445909
-0.0000000000 0.0000000000 -0.2072891818
0.1036445909 0.1036445909 -0.3109337727
0.2072891818 0.2072891818 -0.4145783636
0.3109337727 0.3109337727 -0.5182229546
0.4145783636 0.4145783636 -0.6218675455
-0.2072891818 -0.4145783636 0.2072891818
-0.1036445909 -0.3109337727 0.1036445909
-0.0000000000 -0.2072891818 -0.0000000000
0.1036445909 -0.1036445909 -0.1036445909
0.2072891818 0.0000000000 -0.2072891818
0.3109337727 0.1036445909 -0.3109337727
0.4145783636 0.2072891818 -0.4145783636
0.5182229546 0.3109337727 -0.5182229546
-0.1036445909 -0.5182229546 0.3109337727
0.0000000000 -0.4145783636 0.2072891818
0.1036445909 -0.3109337727 0.1036445909
0.2072891818 -0.2072891818 -0.0000000000
0.3109337727 -0.1036445909 -0.1036445909
0.4145783636 0.0000000000 -0.2072891818
0.5182229546 0.1036445909 -0.3109337727
0.6218675455 0.2072891818 -0.4145783636
0.0000000000 -0.6218675455 0.4145783636
0.1036445909 -0.5182229546 0.3109337727
0.2072891818 -0.4145783636 0.2072891818
0.3109337727 -0.3109337727 0.1036445909
0.4145783636 -0.2072891818 -0.0000000000
0.5182229546 -0.1036445909 -0.1036445909
0.6218675455 0.0000000000 -0.2072891818
0.7255121364 0.1036445909 -0.3109337727
0.1036445909 -0.7255121364 0.5182229546
0.2072891818 -0.6218675455 0.4145783636
0.3109337727 -0.5182229546 0.3109337727
0.4145783636 -0.4145783636 0.2072891818
0.5182229546 -0.3109337727 0.1036445909
0.6218675455 -0.2072891818 -0.0000000000
0.7255121364 -0.1036445909 -0.1036445909
0.8291567273 0.0000000000 -0.2072891818
0.2072891818 -0.8291567273 0.6218675455
0.3109337727 -0.7255121364 0.5182229546
0.4145783636 -0.6218675455 0.4145783636
0.5182229546 -0.5182229546 0.3109337727
0.6218675455 -0.4145783636 0.2072891818
0.7255121364 -0.3109337727 0.1036445909
0.8291567273 -0.2072891818 -0.0000000000
0.9328013182 -0.1036445909 -0.1036445909
-0.6218675455 0.0000000000 0.0000000000
-0.5182229546 0.1036445909 -0.1036445909
-0.4145783636 0.2072891818 -0.2072891818
-0.3109337727 0.3109337727 -0.3109337727
-0.2072891818 0.4145783636 -0.4145783636
-0.1036445909 0.5182229546 -0.5182229546
-0.0000000000 0.6218675455 -0.6218675455
0.1036445909 0.7255121364 -0.7255121364
-0.5182229546 -0.1036445909 0.1036445909
-0.4145783636 0.0000000000 0.0000000000
-0.3109337727 0.1036445909 -0.1036445909
-0.2072891818 0.2072891818 -0.2072891818
-0.1036445909 0.3109337727 -0.3109337727
-0.0000000000 0.4145783636 -0.4145783636
0.1036445909 0.5182229546 -0.5182229546
0.2072891818 0.6218675455 -0.6218675455
-0.4145783636 -0.2072891818 0.2072891818
-0.3109337727 -0.1036445909 0.1036445909
-0.2072891818 0.0000000000 0.0000000000
-0.1036445909 0.1036445909 -0.1036445909
-0.0000000000 0.2072891818 -0.2072891818
0.1036445909 0.3109337727 -0.3109337727
0.2072891818 0.4145783636 -0.4145783636
0.3109337727 0.5182229546 -0.5182229546
-0.3109337727 -0.3109337727 0.3109337727
-0.2072891818 -0.2072891818 0.2072891818
-0.1036445909 -0.1036445909 0.1036445909
0.0000000000 0.0000000000 0.0000000000
0.1036445909 0.1036445909 -0.1036445909
0.2072891818 0.2072891818 -0.2072891818
0.3109337727 0.3109337727 -0.3109337727
0.4145783636 0.4145783636 -0.4145783636
-0.2072891818 -0.4145783636 0.4145783636
-0.1036445909 -0.3109337727 0.3109337727
0.0000000000 -0.2072891818 0.2072891818
0.1036445909 -0.1036445909 0.1036445909
0.2072891818 -0.0000000000 0.0000000000
0.3109337727 0.1036445909 -0.1036445909
0.4145783636 0.2072891818 -0.2072891818
0.5182229546 0.3109337727 -0.3109337727
-0.1036445909 -0.5182229546 0.5182229546
0.0000000000 -0.4145783636 0.4145783636
0.1036445909 -0.3109337727 0.3109337727
0.2072891818 -0.2072891818 0.2072891818
0.3109337727 -0.1036445909 0.1036445909
0.4145783636 -0.0000000000 0.0000000000
0.5182229546 0.1036445909 -0.1036445909
0.6218675455 0.2072891818 -0.2072891818
0.0000000000 -0.6218675455 0.6218675455
0.1036445909 -0.5182229546 0.5182229546
0.2072891818 -0.4145783636 0.4145783636
0.3109337727 -0.3109337727 0.3109337727
0.4145783636 -0.2072891818 0.2072891818
0.5182229546 -0.1036445909 0.1036445909
0.6218675455 -0.0000000000 0.0000000000
0.7255121364 0.1036445909 -0.1036445909
0.1036445909 -0.7255121364 0.7255121364
0.2072891818 -0.6218675455 0.6218675455
0.3109337727 -0.5182229546 0.5182229546
0.4145783636 -0.4145783636 0.4145783636
0.5182229546 -0.3109337727 0.3109337727
0.6218675455 -0.2072891818 0.2072891818
0.7255121364 -0.1036445909 0.1036445909
0.8291567273 -0.0000000000 0.0000000000
-0.7255121364 0.1036445909 0.1036445909
-0.6218675455 0.2072891818 0.0000000000
-0.5182229546 0.3109337727 -0.1036445909
-0.4145783636 0.4145783636 -0.2072891818
-0.3109337727 0.5182229546 -0.3109337727
-0.2072891818 0.6218675455 -0.4145783636
-0.1036445909 0.7255121364 -0.5182229546
-0.0000000000 0.8291567273 -0.6218675455
-0.6218675455 0.0000000000 0.2072891818
-0.5182229546 0.1036445909 0.1036445909
-0.4145783636 0.2072891818 0.0000000000
-0.3109337727 0.3109337727 -0.1036445909
-0.2072891818 0.4145783636 -0.2072891818
-0.1036445909 0.5182229546 -0.3109337727
-0.0000000000 0.6218675455 -0.4145783636
0.1036445909 0.7255121364 -0.5182229546
-0.5182229546 -0.1036445909 0.3109337727
-0.4145783636 -0.0000000000 0.2072891818
-0.3109337727 0.1036445909 0.1036445909
-0.2072891818 0.2072891818 0.0000000000
-0.1036445909 0.3109337727 -0.1036445909
-0.0000000000 0.4145783636 -0.2072891818
0.1036445909 0.5182229546 -0.3109337727
0.2072891818 0.6218675455 -0.4145783636
-0.4145783636 -0.2072891818 0.4145783636
-0.3109337727 -0.1036445909 0.3109337727
-0.2072891818 -0.0000000000 0.2072891818
-0.1036445909 0.1036445909 0.1036445909
0.0000000000 0.2072891818 0.0000000000
0.1036445909 0.3109337727 -0.1036445909
0.2072891818 0.4145783636 -0.2072891818
0.3109337727 0.5182229546 -0.3109337727
-0.3109337727 -0.3109337727 0.5182229546
-0.2072891818 -0.2072891818 0.4145783636
-0.1036445909 -0.1036445909 0.3109337727
0.0000000000 -0.0000000000 0.2072891818
0.1036445909 0.1036445909 0.1036445909
0.2072891818 0.2072891818 0.0000000000
0.3109337727 0.3109337727 -0.1036445909
0.4145783636 0.4145783636 -0.2072891818
-0.2072891818 -0.4145783636 0.6218675455
-0.1036445909 -0.3109337727 0.5182229546
0.0000000000 -0.2072891818 0.4145783636
0.1036445909 -0.1036445909 0.3109337727
0.2072891818 -0.0000000000 0.2072891818
0.3109337727 0.1036445909 0.1036445909
0.4145783636 0.2072891818 0.0000000000
0.5182229546 0.3109337727 -0.1036445909
-0.1036445909 -0.5182229546 0.7255121364
0.0000000000 -0.4145783636 0.6218675455
0.1036445909 -0.3109337727 0.5182229546
0.2072891818 -0.2072891818 0.4145783636
0.3109337727 -0.1036445909 0.3109337727
0.4145783636 -0.0000000000 0.2072891818
0.5182229546 0.1036445909 0.1036445909
0.6218675455 0.2072891818 0.0000000000
0.0000000000 -0.6218675455 0.8291567273
0.1036445909 -0.5182229546 0.7255121364
0.2072891818 -0.4145783636 0.6218675455
0.3109337727 -0.3109337727 0.5182229546
0.4145783636 -0.2072891818 0.4145783636
0.5182229546 -0.1036445909 0.3109337727
0.6218675455 -0.0000000000 0.2072891818
0.7255121364 0.1036445909 0.1036445909
-0.8291567273 0.2072891818 0.2072891818
-0.7255121364 0.3109337727 0.1036445909
-0.6218675455 0.4145783636 0.0000000000
-0.5182229546 0.5182229546 -0.1036445909
-0.4145783636 0.6218675455 -0.2072891818
-0.3109337727 0.7255121364 -0.3109337727
-0.2072891818 0.8291567273 -0.4145783636
-0.1036445909 0.9328013182 -0.5182229546
-0.7255121364 0.1036445909 0.3109337727
-0.6218675455 0.2072891818 0.2072891818
-0.5182229546 0.3109337727 0.1036445909
-0.4145783636 0.4145783636 0.0000000000
-0.3109337727 0.5182229546 -0.1036445909
-0.2072891818 0.6218675455 -0.2072891818
-0.1036445909 0.7255121364 -0.3109337727
-0.0000000000 0.8291567273 -0.4145783636
-0.6218675455 0.0000000000 0.4145783636
-0.5182229546 0.1036445909 0.3109337727
-0.4145783636 0.2072891818 0.2072891818
-0.3109337727 0.3109337727 0.1036445909
-0.2072891818 0.4145783636 0.0000000000
-0.1036445909 0.5182229546 -0.1036445909
0.0000000000 0.6218675455 -0.2072891818
0.1036445909 0.7255121364 -0.3109337727
-0.5182229546 -0.1036445909 0.5182229546
-0.4145783636 -0.0000000000 0.4145783636
-0.3109337727 0.1036445909 0.3109337727
-0.2072891818 0.2072891818 0.2072891818
-0.1036445909 0.3109337727 0.1036445909
0.0000000000 0.4145783636 0.0000000000
0.1036445909 0.5182229546 -0.1036445909
0.2072891818 0.6218675455 -0.2072891818
-0.4145783636 -0.2072891818 0.6218675455
-0.3109337727 -0.1036445909 0.5182229546
-0.2072891818 -0.0000000000 0.4145783636
-0.1036445909 0.1036445909 0.3109337727
0.0000000000 0.2072891818 0.2072891818
0.1036445909 0.3109337727 0.1036445909
0.2072891818 0.4145783636 0.0000000000
0.3109337727 0.5182229546 -0.1036445909
-0.3109337727 -0.3109337727 0.7255121364
-0.2072891818 -0.2072891818 0.6218675455
-0.1036445909 -0.1036445909 0.5182229546
0.0000000000 -0.0000000000 0.4145783636
0.1036445909 0.1036445909 0.3109337727
0.2072891818 0.2072891818 0.2072891818
0.3109337727 0.3109337727 0.1036445909
0.4145783636 0.4145783636 0.0000000000
-0.2072891818 -0.4145783636 0.8291567273
-0.1036445909 -0.3109337727 0.7255121364
0.0000000000 -0.2072891818 0.6218675455
0.1036445909 -0.1036445909 0.5182229546
0.2072891818 -0.0000000000 0.4145783636
0.3109337727 0.1036445909 0.3109337727
0.4145783636 0.2072891818 0.2072891818
0.5182229546 0.3109337727 0.1036445909
-0.1036445909 -0.5182229546 0.9328013182
0.0000000000 -0.4145783636 0.8291567273
0.1036445909 -0.3109337727 0.7255121364
0.2072891818 -0.2072891818 0.6218675455
0.3109337727 -0.1036445909 0.5182229546
0.4145783636 -0.0000000000 0.4145783636
0.5182229546 0.1036445909 0.3109337727
0.6218675455 0.2072891818 0.2072891818
-0.9328013182 0.3109337727 0.3109337727
-0.8291567273 0.4145783636 0.2072891818
-0.7255121364 0.5182229546 0.1036445909
-0.6218675455 0.6218675455 0.0000000000
-0.5182229546 0.7255121364 -0.1036445909
-0.4145783636 0.8291567273 -0.2072891818
-0.3109337727 0.9328013182 -0.3109337727
-0.2072891818 1.0364459091 -0.4145783636
-0.8291567273 0.2072891818 0.4145783636
-0.7255121364 0.3109337727 0.3109337727
-0.6218675455 0.4145783636 0.2072891818
-0.5182229546 0.5182229546 0.1036445909
-0.4145783636 0.6218675455 0.0000000000
-0.3109337727 0.7255121364 -0.1036445909
-0.2072891818 0.8291567273 -0.2072891818
-0.1036445909 0.9328013182 -0.3109337727
-0.7255121364 0.1036445909 0.5182229546
-0.6218675455 0.2072891818 0.4145783636
-0.5182229546 0.3109337727 0.3109337727
-0.4145783636 0.4145783636 0.2072891818
-0.3109337727 0.5182229546 0.1036445909
-0.2072891818 0.6218675455 0.0000000000
-0.1036445909 0.7255121364 -0.1036445909
0.0000000000 0.8291567273 -0.2072891818
-0.6218675455 -0.0000000000 0.6218675455
-0.5182229546 0.1036445909 0.5182229546
-0.4145783636 0.2072891818 0.4145783636
-0.3109337727 0.3109337727 0.3109337727
-0.2072891818 0.4145783636 0.2072891818
-0.1036445909 0.5182229546 0.1036445909
0.0000000000 0.6218675455 0.0000000000
0.1036445909 0.7255121364 -0.1036445909
-0.5182229546 -0.1036445909 0.7255121364
-0.4145783636 -0.0000000000 0.6218675455
-0.3109337727 0.1036445909 0.5182229546
-0.2072891818 0.2072891818 0.4145783636
-0.1036445909 0.3109337727 0.3109337727
0.0000000000 0.4145783636 0.2072891818
0.1036445909 0.5182229546 0.1036445909
0.2072891818 0.6218675455 0.0000000000
-0.4145783636 -0.2072891818 0.8291567273
-0.3109337727 -0.1036445909 0.7255121364
-0.2072891818 -0.0000000000 0.6218675455
-0.1036445909 0.1036445909 0.5182229546
0.0000000000 0.2072891818 0.4145783636
0.1036445909 0.3109337727 0.3109337727
0.2072891818 0.4145783636 0.2072891818
0.3109337727 0.5182229546 0.1036445909
-0.3109337727 -0.3109337727 0.9328013182
-0.2072891818 -0.2072891818 0.8291567273
-0.1036445909 -0.1036445909 0.7255121364
0.0000000000 -0.0000000000 0.6218675455
0.1036445909 0.1036445909 0.5182229546
0.2072891818 0.2072891818 0.4145783636
0.3109337727 0.3109337727 0.3109337727
0.4145783636 0.4145783636 0.2072891818
-0.2072891818 -0.4145783636 1.0364459091
-0.1036445909 -0.3109337727 0.9328013182
0.0000000000 -0.2072891818 0.8291567273
0.1036445909 -0.1036445909 0.7255121364
0.2072891818 -0.0000000000 0.6218675455
0.3109337727 0.1036445909 0.5182229546
0.4145783636 0.2072891818 0.4145783636
0.5182229546 0.3109337727 0.3109337727
-1.0364459091 0.4145783636 0.4145783636
-0.9328013182 0.5182229546 0.3109337727
-0.8291567273 0.6218675455 0.2072891818
-0.7255121364 0.7255121364 0.1036445909
-0.6218675455 0.8291567273 0.0000000000
-0.5182229546 0.9328013182 -0.1036445909
-0.4145783636 1.0364459091 -0.2072891818
-0.3109337727 1.1400905000 -0.3109337727
-0.9328013182 0.3109337727 0.5182229546
-0.8291567273 0.4145783636 0.4145783636
-0.7255121364 0.5182229546 0.3109337727
-0.6218675455 0.6218675455 0.2072891818
-0.5182229546 0.7255121364 0.1036445909
-0.4145783636 0.8291567273 0.0000000000
-0.3109337727 0.9328013182 -0.1036445909
-0.2072891818 1.0364459091 -0.2072891818
-0.8291567273 0.2072891818 0.6218675455
-0.7255121364 0.3109337727 0.5182229546
-0.6218675455 0.4145783636 0.4145783636
-0.5182229546 0.5182229546 0.3109337727
-0.4145783636 0.6218675455 0.2072891818
-0.3109337727 0.7255121364 0.1036445909
-0.2072891818 0.8291567273 0.0000000000
-0.1036445909 0.9328013182 -0.1036445909
-0.7255121364 0.1036445909 0.7255121364
-0.6218675455 0.2072891818 0.6218675455
-0.5182229546 0.3109337727 0.5182229546
-0.4145783636 0.4145783636 0.4145783636
-0.3109337727 0.5182229546 0.3109337727
-0.2072891818 0.6218675455 0.2072891818
-0.1036445909 0.7255121364 0.1036445909
0.0000000000 0.8291567273 0.0000000000
-0.6218675455 -0.0000000000 0.8291567273
-0.5182229546 0.1036445909 0.7255121364
-0.4145783636 0.2072891818 0.6218675455
-0.3109337727 0.3109337727 0.5182229546
-0.2072891818 0.4145783636 0.4145783636
-0.1036445909 0.5182229546 0.3109337727
0.0000000000 0.6218675455 0.2072891818
0.1036445909 0.7255121364 0.1036445909
-0.5182229546 -0.1036445909 0.9328013182
-0.4145783636 -0.0000000000 0.8291567273
-0.3109337727 0.1036445909 0.7255121364
-0.2072891818 0.2072891818 0.6218675455
-0.1036445909 0.3109337727 0.5182229546
0.0000000000 0.4145783636 0.4145783636
0.1036445909 0.5182229546 0.3109337727
0.2072891818 0.6218675455 0.2072891818
-0.4145783636 -0.2072891818 1.0364459091
-0.3109337727 -0.1036445909 0.9328013182
-0.2072891818 -0.0000000000 0.8291567273
-0.1036445909 0.1036445909 0.7255121364
0.0000000000 0.2072891818 0.6218675455
0.1036445909 0.3109337727 0.5182229546
0.2072891818 0.4145783636 0.4145783636
0.3109337727 0.5182229546 0.3109337727
-0.3109337727 -0.3109337727 1.1400905000
-0.2072891818 -0.2072891818 1.0364459091
-0.1036445909 -0.1036445909 0.9328013182
0.0000000000 -0.0000000000 0.8291567273
0.1036445909 0.1036445909 0.7255121364
0.2072891818 0.2072891818 0.6218675455
0.3109337727 0.3109337727 0.5182229546
0.4145783636 0.4145783636 0.4145783636
 There are 6 alpha and 6 beta electrons
 Start computing overlap matrix
 Allocate 69337088 B from available memory: 104857463136 B
 Time for computing overlap matrix: 29.1660000000 s
 ====== Initialize compute kernels for all-electron RI-J (kpts) ====== 
 ========================================================== 
 Range-separated parameter omega        = 0.599999999999999978
 Threshold for 1e2c shellpair           = 0.000000000000010000
 Threshold for 2e2c SR integral         = 0.000000000000000001
 Threshold for 2e3c SR integral         = 0.000000000100000000
 Threshold for AFT G-space screening is = 0.000000000001000000
 The exponent cutoff for C/D classification (omega2 / 2) is  = 0.179999999999999993
 ========================================================== 
 === Post process the basis set for RI calculation (exp_cutoff = 0.179999999999999993 ) === 
nshells_b1 before uncontraction = 30
nshells_b1 after uncontraction = 31
nshells_baux before uncontraction = 28
nshells_baux after uncontraction = 28
===============================================
nbsf total   = 95
nbsf compact = 68
nbsf diffuse = 27
naux total   = 96
naux compact = 96
naux diffuse = 0
nshells_bnuc = 2

 Number of unique atoms is 2
 Unique atom #0 (li) has 6 shells.
 Unique atom #1 (f) has 16 shells.

Shell 0 to 5 belongs to atom li
Shell 6 to 21 belongs to atom f

 Number of unique atoms is 2
 Unique atom #0 (li) has 8 shells.
 Unique atom #1 (f) has 1 shells.

Shell 0 to 7 belongs to atom li
Shell 8 to 8 belongs to atom f

 Number of unique atom is 2
 Unique atom #0 (li) has 13 auxiliary shells.
 Unique atom #1 (f) has 15 auxiliary shells.

Auxiliary Shell 0 to 12 belongs to atom li
Auxiliary Shell 13 to 27 belongs to atom f

================= Automatically determine grid size for reciprocal space summation =================
 Range-separated parameter = 0.60000000000000 and G-space screening threshold = 0.00000000000100
The number of grid points along each axis dimension is (5, 5, 5)
Total number of grid points = 1331

Use nonortho shellpair for diffuse density
======== Initializing relevant kernel for RIJ (DD type) ========
There are 45 shellpairs in the reference unit cell
There are 26313 images and we expect to have 1184085 in total
There are 63069 shellpairs in the lattice sum after screening
======== Initializing relevant kernel for RIJ (CD type) ========
There are 198 shellpairs in the reference unit cell
There are 14939 images and we expect to have 2957922 in total
There are 137232 shellpairs in the lattice sum after screening
****** AFT -> SR ******
Maximum bra distance cutoff is 39.000000000000
Maximum bra ket distance cutoff is 24.073630136986
Maximum bra ket screening distance is 21.468750000000
Number of auxiliary image is 3829
There are 198 shellpairs in the reference unit cell
There are 3829 images and we expect to have 758142 in total
There are 137232 shellpairs in the lattice sum after screening
Available memory per thread for 2e3c calculation is 3.274628939000Gb
Finish initializing 2e3c SR with the lattice sum!
=================================================
======== Initializing relevant kernel for RIJ (CC type) ========
There are 250 shellpairs in the reference unit cell
There are 1873 images and we expect to have 468250 in total
There are 6959 shellpairs in the lattice sum after screening
****** AFT -> SR ******
Maximum bra distance cutoff is 15.000000000000
Maximum bra ket distance cutoff is 23.750713608742
Maximum bra ket screening distance is 20.437500000000
Number of auxiliary image is 1217
There are 250 shellpairs in the reference unit cell
There are 437 images and we expect to have 109250 in total
There are 6959 shellpairs in the lattice sum after screening
Available memory per thread for 2e3c calculation is 3.274628939000Gb
Finish initializing 2e3c SR with the lattice sum!
=================================================
======== Initializing the SR component for Vnuc (CD type) ========
Maximum bra distance cutoff is 39.000000000000
Maximum bra ket distance cutoff is 16.349677604964
Maximum bra ket screening distance is 13.839230860025
Number of auxiliary image is 3829
There are 198 shellpairs in the reference unit cell
There are 3829 images and we expect to have 758142 in total
There are 137232 shellpairs in the lattice sum after screening
Available memory per thread for 2e3c calculation is 3.274628939000Gb
Finish initializing 2e3c SR with the lattice sum!
=================================================
======== Initialize the SR component for Vnuc (CC type) ========
Maximum bra distance cutoff is 15.000000000000
Maximum bra ket distance cutoff is 16.491629898159
Maximum bra ket screening distance is 12.239733225022
Number of auxiliary image is 527
There are 250 shellpairs in the reference unit cell
There are 437 images and we expect to have 109250 in total
There are 6959 shellpairs in the lattice sum after screening
Available memory per thread for 2e3c calculation is 3.274628939000Gb
Finish initializing 2e3c SR with the lattice sum!
=================================================
 Aufbau occupation scheme, occupation determined by eigenvalue
 == 0-th k-point nmo = 81 (-0.31093,-0.31093,-0.31093) ==
 == 1-th k-point nmo = 82 (-0.20729,-0.20729,-0.41458) ==
 == 2-th k-point nmo = 82 (-0.10364,-0.10364,-0.51822) ==
 == 3-th k-point nmo = 81 (-0.00000,0.00000,-0.62187) ==
 == 4-th k-point nmo = 81 (0.10364,0.10364,-0.72551) ==
 == 5-th k-point nmo = 83 (0.20729,0.20729,-0.82916) ==
 == 6-th k-point nmo = 83 (0.31093,0.31093,-0.93280) ==
 == 7-th k-point nmo = 83 (0.41458,0.41458,-1.03645) ==
 == 8-th k-point nmo = 82 (-0.20729,-0.41458,-0.20729) ==
 == 9-th k-point nmo = 82 (-0.10364,-0.31093,-0.31093) ==
 == 10-th k-point nmo = 82 (-0.00000,-0.20729,-0.41458) ==
 == 11-th k-point nmo = 82 (0.10364,-0.10364,-0.51822) ==
 == 12-th k-point nmo = 81 (0.20729,0.00000,-0.62187) ==
 == 13-th k-point nmo = 82 (0.31093,0.10364,-0.72551) ==
 == 14-th k-point nmo = 82 (0.41458,0.20729,-0.82916) ==
 == 15-th k-point nmo = 82 (0.51822,0.31093,-0.93280) ==
 == 16-th k-point nmo = 82 (-0.10364,-0.51822,-0.10364) ==
 == 17-th k-point nmo = 82 (-0.00000,-0.41458,-0.20729) ==
 == 18-th k-point nmo = 82 (0.10364,-0.31093,-0.31093) ==
 == 19-th k-point nmo = 82 (0.20729,-0.20729,-0.41458) ==
 == 20-th k-point nmo = 82 (0.31093,-0.10364,-0.51822) ==
 == 21-th k-point nmo = 82 (0.41458,0.00000,-0.62187) ==
 == 22-th k-point nmo = 82 (0.51822,0.10364,-0.72551) ==
 == 23-th k-point nmo = 81 (0.62187,0.20729,-0.82916) ==
 == 24-th k-point nmo = 81 (-0.00000,-0.62187,-0.00000) ==
 == 25-th k-point nmo = 82 (0.10364,-0.51822,-0.10364) ==
 == 26-th k-point nmo = 82 (0.20729,-0.41458,-0.20729) ==
 == 27-th k-point nmo = 81 (0.31093,-0.31093,-0.31093) ==
 == 28-th k-point nmo = 83 (0.41458,-0.20729,-0.41458) ==
 == 29-th k-point nmo = 83 (0.51822,-0.10364,-0.51822) ==
 == 30-th k-point nmo = 83 (0.62187,0.00000,-0.62187) ==
 == 31-th k-point nmo = 81 (0.72551,0.10364,-0.72551) ==
 == 32-th k-point nmo = 81 (0.10364,-0.72551,0.10364) ==
 == 33-th k-point nmo = 81 (0.20729,-0.62187,-0.00000) ==
 == 34-th k-point nmo = 82 (0.31093,-0.51822,-0.10364) ==
 == 35-th k-point nmo = 83 (0.41458,-0.41458,-0.20729) ==
 == 36-th k-point nmo = 83 (0.51822,-0.31093,-0.31093) ==
 == 37-th k-point nmo = 82 (0.62187,-0.20729,-0.41458) ==
 == 38-th k-point nmo = 82 (0.72551,-0.10364,-0.51822) ==
 == 39-th k-point nmo = 82 (0.82916,0.00000,-0.62187) ==
 == 40-th k-point nmo = 83 (0.20729,-0.82916,0.20729) ==
 == 41-th k-point nmo = 82 (0.31093,-0.72551,0.10364) ==
 == 42-th k-point nmo = 82 (0.41458,-0.62187,-0.00000) ==
 == 43-th k-point nmo = 83 (0.51822,-0.51822,-0.10364) ==
 == 44-th k-point nmo = 82 (0.62187,-0.41458,-0.20729) ==
 == 45-th k-point nmo = 83 (0.72551,-0.31093,-0.31093) ==
 == 46-th k-point nmo = 82 (0.82916,-0.20729,-0.41458) ==
 == 47-th k-point nmo = 82 (0.93280,-0.10364,-0.51822) ==
 == 48-th k-point nmo = 83 (0.31093,-0.93280,0.31093) ==
 == 49-th k-point nmo = 82 (0.41458,-0.82916,0.20729) ==
 == 50-th k-point nmo = 82 (0.51822,-0.72551,0.10364) ==
 == 51-th k-point nmo = 83 (0.62187,-0.62187,-0.00000) ==
 == 52-th k-point nmo = 82 (0.72551,-0.51822,-0.10364) ==
 == 53-th k-point nmo = 82 (0.82916,-0.41458,-0.20729) ==
 == 54-th k-point nmo = 83 (0.93280,-0.31093,-0.31093) ==
 == 55-th k-point nmo = 82 (1.03645,-0.20729,-0.41458) ==
 == 56-th k-point nmo = 83 (0.41458,-1.03645,0.41458) ==
 == 57-th k-point nmo = 82 (0.51822,-0.93280,0.31093) ==
 == 58-th k-point nmo = 81 (0.62187,-0.82916,0.20729) ==
 == 59-th k-point nmo = 81 (0.72551,-0.72551,0.10364) ==
 == 60-th k-point nmo = 82 (0.82916,-0.62187,-0.00000) ==
 == 61-th k-point nmo = 82 (0.93280,-0.51822,-0.10364) ==
 == 62-th k-point nmo = 82 (1.03645,-0.41458,-0.20729) ==
 == 63-th k-point nmo = 83 (1.14009,-0.31093,-0.31093) ==
 == 64-th k-point nmo = 82 (-0.41458,-0.20729,-0.20729) ==
 == 65-th k-point nmo = 82 (-0.31093,-0.10364,-0.31093) ==
 == 66-th k-point nmo = 82 (-0.20729,0.00000,-0.41458) ==
 == 67-th k-point nmo = 82 (-0.10364,0.10364,-0.51822) ==
 == 68-th k-point nmo = 81 (-0.00000,0.20729,-0.62187) ==
 == 69-th k-point nmo = 82 (0.10364,0.31093,-0.72551) ==
 == 70-th k-point nmo = 82 (0.20729,0.41458,-0.82916) ==
 == 71-th k-point nmo = 82 (0.31093,0.51822,-0.93280) ==
 == 72-th k-point nmo = 82 (-0.31093,-0.31093,-0.10364) ==
 == 73-th k-point nmo = 83 (-0.20729,-0.20729,-0.20729) ==
 == 74-th k-point nmo = 82 (-0.10364,-0.10364,-0.31093) ==
 == 75-th k-point nmo = 81 (-0.00000,0.00000,-0.41458) ==
 == 76-th k-point nmo = 82 (0.10364,0.10364,-0.51822) ==
 == 77-th k-point nmo = 83 (0.20729,0.20729,-0.62187) ==
 == 78-th k-point nmo = 83 (0.31093,0.31093,-0.72551) ==
 == 79-th k-point nmo = 83 (0.41458,0.41458,-0.82916) ==
 == 80-th k-point nmo = 82 (-0.20729,-0.41458,-0.00000) ==
 == 81-th k-point nmo = 82 (-0.10364,-0.31093,-0.10364) ==
 == 82-th k-point nmo = 81 (-0.00000,-0.20729,-0.20729) ==
 == 83-th k-point nmo = 82 (0.10364,-0.10364,-0.31093) ==
 == 84-th k-point nmo = 82 (0.20729,0.00000,-0.41458) ==
 == 85-th k-point nmo = 82 (0.31093,0.10364,-0.51822) ==
 == 86-th k-point nmo = 82 (0.41458,0.20729,-0.62187) ==
 == 87-th k-point nmo = 82 (0.51822,0.31093,-0.72551) ==
 == 88-th k-point nmo = 82 (-0.10364,-0.51822,0.10364) ==
 == 89-th k-point nmo = 81 (-0.00000,-0.41458,-0.00000) ==
 == 90-th k-point nmo = 82 (0.10364,-0.31093,-0.10364) ==
 == 91-th k-point nmo = 83 (0.20729,-0.20729,-0.20729) ==
 == 92-th k-point nmo = 82 (0.31093,-0.10364,-0.31093) ==
 == 93-th k-point nmo = 83 (0.41458,0.00000,-0.41458) ==
 == 94-th k-point nmo = 83 (0.51822,0.10364,-0.51822) ==
 == 95-th k-point nmo = 83 (0.62187,0.20729,-0.62187) ==
 == 96-th k-point nmo = 81 (0.00000,-0.62187,0.20729) ==
 == 97-th k-point nmo = 82 (0.10364,-0.51822,0.10364) ==
 == 98-th k-point nmo = 82 (0.20729,-0.41458,-0.00000) ==
 == 99-th k-point nmo = 82 (0.31093,-0.31093,-0.10364) ==
 == 100-th k-point nmo = 82 (0.41458,-0.20729,-0.20729) ==
 == 101-th k-point nmo = 82 (0.51822,-0.10364,-0.31093) ==
 == 102-th k-point nmo = 82 (0.62187,0.00000,-0.41458) ==
 == 103-th k-point nmo = 82 (0.72551,0.10364,-0.51822) ==
 == 104-th k-point nmo = 82 (0.10364,-0.72551,0.31093) ==
 == 105-th k-point nmo = 83 (0.20729,-0.62187,0.20729) ==
 == 106-th k-point nmo = 82 (0.31093,-0.51822,0.10364) ==
 == 107-th k-point nmo = 83 (0.41458,-0.41458,-0.00000) ==
 == 108-th k-point nmo = 82 (0.51822,-0.31093,-0.10364) ==
 == 109-th k-point nmo = 83 (0.62187,-0.20729,-0.20729) ==
 == 110-th k-point nmo = 82 (0.72551,-0.10364,-0.31093) ==
 == 111-th k-point nmo = 82 (0.82916,0.00000,-0.41458) ==
 == 112-th k-point nmo = 82 (0.20729,-0.82916,0.41458) ==
 == 113-th k-point nmo = 83 (0.31093,-0.72551,0.31093) ==
 == 114-th k-point nmo = 82 (0.41458,-0.62187,0.20729) ==
 == 115-th k-point nmo = 83 (0.51822,-0.51822,0.10364) ==
 == 116-th k-point nmo = 82 (0.62187,-0.41458,-0.00000) ==
 == 117-th k-point nmo = 82 (0.72551,-0.31093,-0.10364) ==
 == 118-th k-point nmo = 83 (0.82916,-0.20729,-0.20729) ==
 == 119-th k-point nmo = 82 (0.93280,-0.10364,-0.31093) ==
 == 120-th k-point nmo = 82 (0.31093,-0.93280,0.51822) ==
 == 121-th k-point nmo = 83 (0.41458,-0.82916,0.41458) ==
 == 122-th k-point nmo = 82 (0.51822,-0.72551,0.31093) ==
 == 123-th k-point nmo = 83 (0.62187,-0.62187,0.20729) ==
 == 124-th k-point nmo = 82 (0.72551,-0.51822,0.10364) ==
 == 125-th k-point nmo = 82 (0.82916,-0.41458,-0.00000) ==
 == 126-th k-point nmo = 82 (0.93280,-0.31093,-0.10364) ==
 == 127-th k-point nmo = 83 (1.03645,-0.20729,-0.20729) ==
 == 128-th k-point nmo = 82 (-0.51822,-0.10364,-0.10364) ==
 == 129-th k-point nmo = 82 (-0.41458,0.00000,-0.20729) ==
 == 130-th k-point nmo = 82 (-0.31093,0.10364,-0.31093) ==
 == 131-th k-point nmo = 82 (-0.20729,0.20729,-0.41458) ==
 == 132-th k-point nmo = 82 (-0.10364,0.31093,-0.51822) ==
 == 133-th k-point nmo = 82 (-0.00000,0.41458,-0.62187) ==
 == 134-th k-point nmo = 82 (0.10364,0.51822,-0.72551) ==
 == 135-th k-point nmo = 81 (0.20729,0.62187,-0.82916) ==
 == 136-th k-point nmo = 82 (-0.41458,-0.20729,-0.00000) ==
 == 137-th k-point nmo = 82 (-0.31093,-0.10364,-0.10364) ==
 == 138-th k-point nmo = 81 (-0.20729,0.00000,-0.20729) ==
 == 139-th k-point nmo = 82 (-0.10364,0.10364,-0.31093) ==
 == 140-th k-point nmo = 82 (-0.00000,0.20729,-0.41458) ==
 == 141-th k-point nmo = 82 (0.10364,0.31093,-0.51822) ==
 == 142-th k-point nmo = 82 (0.20729,0.41458,-0.62187) ==
 == 143-th k-point nmo = 82 (0.31093,0.51822,-0.72551) ==
 == 144-th k-point nmo = 82 (-0.31093,-0.31093,0.10364) ==
 == 145-th k-point nmo = 81 (-0.20729,-0.20729,-0.00000) ==
 == 146-th k-point nmo = 82 (-0.10364,-0.10364,-0.10364) ==
 == 147-th k-point nmo = 81 (-0.00000,0.00000,-0.20729) ==
 == 148-th k-point nmo = 82 (0.10364,0.10364,-0.31093) ==
 == 149-th k-point nmo = 82 (0.20729,0.20729,-0.41458) ==
 == 150-th k-point nmo = 83 (0.31093,0.31093,-0.51822) ==
 == 151-th k-point nmo = 83 (0.41458,0.41458,-0.62187) ==
 == 152-th k-point nmo = 82 (-0.20729,-0.41458,0.20729) ==
 == 153-th k-point nmo = 82 (-0.10364,-0.31093,0.10364) ==
 == 154-th k-point nmo = 81 (-0.00000,-0.20729,-0.00000) ==
 == 155-th k-point nmo = 82 (0.10364,-0.10364,-0.10364) ==
 == 156-th k-point nmo = 81 (0.20729,0.00000,-0.20729) ==
 == 157-th k-point nmo = 82 (0.31093,0.10364,-0.31093) ==
 == 158-th k-point nmo = 83 (0.41458,0.20729,-0.41458) ==
 == 159-th k-point nmo = 83 (0.51822,0.31093,-0.51822) ==
 == 160-th k-point nmo = 82 (-0.10364,-0.51822,0.31093) ==
 == 161-th k-point nmo = 82 (0.00000,-0.41458,0.20729) ==
 == 162-th k-point nmo = 82 (0.10364,-0.31093,0.10364) ==
 == 163-th k-point nmo = 81 (0.20729,-0.20729,-0.00000) ==
 == 164-th k-point nmo = 82 (0.31093,-0.10364,-0.10364) ==
 == 165-th k-point nmo = 82 (0.41458,0.00000,-0.20729) ==
 == 166-th k-point nmo = 82 (0.51822,0.10364,-0.31093) ==
 == 167-th k-point nmo = 82 (0.62187,0.20729,-0.41458) ==
 == 168-th k-point nmo = 82 (0.00000,-0.62187,0.41458) ==
 == 169-th k-point nmo = 82 (0.10364,-0.51822,0.31093) ==
 == 170-th k-point nmo = 82 (0.20729,-0.41458,0.20729) ==
 == 171-th k-point nmo = 82 (0.31093,-0.31093,0.10364) ==
 == 172-th k-point nmo = 82 (0.41458,-0.20729,-0.00000) ==
 == 173-th k-point nmo = 82 (0.51822,-0.10364,-0.10364) ==
 == 174-th k-point nmo = 81 (0.62187,0.00000,-0.20729) ==
 == 175-th k-point nmo = 82 (0.72551,0.10364,-0.31093) ==
 == 176-th k-point nmo = 82 (0.10364,-0.72551,0.51822) ==
 == 177-th k-point nmo = 82 (0.20729,-0.62187,0.41458) ==
 == 178-th k-point nmo = 83 (0.31093,-0.51822,0.31093) ==
 == 179-th k-point nmo = 83 (0.41458,-0.41458,0.20729) ==
 == 180-th k-point nmo = 82 (0.51822,-0.31093,0.10364) ==
 == 181-th k-point nmo = 81 (0.62187,-0.20729,-0.00000) ==
 == 182-th k-point nmo = 81 (0.72551,-0.10364,-0.10364) ==
 == 183-th k-point nmo = 82 (0.82916,0.00000,-0.20729) ==
 == 184-th k-point nmo = 81 (0.20729,-0.82916,0.62187) ==
 == 185-th k-point nmo = 82 (0.31093,-0.72551,0.51822) ==
 == 186-th k-point nmo = 83 (0.41458,-0.62187,0.41458) ==
 == 187-th k-point nmo = 83 (0.51822,-0.51822,0.31093) ==
 == 188-th k-point nmo = 82 (0.62187,-0.41458,0.20729) ==
 == 189-th k-point nmo = 82 (0.72551,-0.31093,0.10364) ==
 == 190-th k-point nmo = 82 (0.82916,-0.20729,-0.00000) ==
 == 191-th k-point nmo = 81 (0.93280,-0.10364,-0.10364) ==
 == 192-th k-point nmo = 81 (-0.62187,0.00000,0.00000) ==
 == 193-th k-point nmo = 82 (-0.51822,0.10364,-0.10364) ==
 == 194-th k-point nmo = 82 (-0.41458,0.20729,-0.20729) ==
 == 195-th k-point nmo = 81 (-0.31093,0.31093,-0.31093) ==
 == 196-th k-point nmo = 83 (-0.20729,0.41458,-0.41458) ==
 == 197-th k-point nmo = 83 (-0.10364,0.51822,-0.51822) ==
 == 198-th k-point nmo = 83 (-0.00000,0.62187,-0.62187) ==
 == 199-th k-point nmo = 81 (0.10364,0.72551,-0.72551) ==
 == 200-th k-point nmo = 82 (-0.51822,-0.10364,0.10364) ==
 == 201-th k-point nmo = 81 (-0.41458,0.00000,0.00000) ==
 == 202-th k-point nmo = 82 (-0.31093,0.10364,-0.10364) ==
 == 203-th k-point nmo = 83 (-0.20729,0.20729,-0.20729) ==
 == 204-th k-point nmo = 82 (-0.10364,0.31093,-0.31093) ==
 == 205-th k-point nmo = 83 (-0.00000,0.41458,-0.41458) ==
 == 206-th k-point nmo = 83 (0.10364,0.51822,-0.51822) ==
 == 207-th k-point nmo = 83 (0.20729,0.62187,-0.62187) ==
 == 208-th k-point nmo = 82 (-0.41458,-0.20729,0.20729) ==
 == 209-th k-point nmo = 82 (-0.31093,-0.10364,0.10364) ==
 == 210-th k-point nmo = 81 (-0.20729,0.00000,0.00000) ==
 == 211-th k-point nmo = 82 (-0.10364,0.10364,-0.10364) ==
 == 212-th k-point nmo = 81 (-0.00000,0.20729,-0.20729) ==
 == 213-th k-point nmo = 82 (0.10364,0.31093,-0.31093) ==
 == 214-th k-point nmo = 83 (0.20729,0.41458,-0.41458) ==
 == 215-th k-point nmo = 83 (0.31093,0.51822,-0.51822) ==
 == 216-th k-point nmo = 81 (-0.31093,-0.31093,0.31093) ==
 == 217-th k-point nmo = 83 (-0.20729,-0.20729,0.20729) ==
 == 218-th k-point nmo = 82 (-0.10364,-0.10364,0.10364) ==
 == 219-th k-point nmo = 83 (0.00000,0.00000,0.00000) ==
 == 220-th k-point nmo = 82 (0.10364,0.10364,-0.10364) ==
 == 221-th k-point nmo = 83 (0.20729,0.20729,-0.20729) ==
 == 222-th k-point nmo = 81 (0.31093,0.31093,-0.31093) ==
 == 223-th k-point nmo = 83 (0.41458,0.41458,-0.41458) ==
 == 224-th k-point nmo = 83 (-0.20729,-0.41458,0.41458) ==
 == 225-th k-point nmo = 82 (-0.10364,-0.31093,0.31093) ==
 == 226-th k-point nmo = 81 (0.00000,-0.20729,0.20729) ==
 == 227-th k-point nmo = 82 (0.10364,-0.10364,0.10364) ==
 == 228-th k-point nmo = 81 (0.20729,-0.00000,0.00000) ==
 == 229-th k-point nmo = 82 (0.31093,0.10364,-0.10364) ==
 == 230-th k-point nmo = 82 (0.41458,0.20729,-0.20729) ==
 == 231-th k-point nmo = 83 (0.51822,0.31093,-0.31093) ==
 == 232-th k-point nmo = 83 (-0.10364,-0.51822,0.51822) ==
 == 233-th k-point nmo = 83 (0.00000,-0.41458,0.41458) ==
 == 234-th k-point nmo = 82 (0.10364,-0.31093,0.31093) ==
 == 235-th k-point nmo = 83 (0.20729,-0.20729,0.20729) ==
 == 236-th k-point nmo = 82 (0.31093,-0.10364,0.10364) ==
 == 237-th k-point nmo = 81 (0.41458,-0.00000,0.00000) ==
 == 238-th k-point nmo = 82 (0.51822,0.10364,-0.10364) ==
 == 239-th k-point nmo = 83 (0.62187,0.20729,-0.20729) ==
 == 240-th k-point nmo = 83 (0.00000,-0.62187,0.62187) ==
 == 241-th k-point nmo = 83 (0.10364,-0.51822,0.51822) ==
 == 242-th k-point nmo = 83 (0.20729,-0.41458,0.41458) ==
 == 243-th k-point nmo = 81 (0.31093,-0.31093,0.31093) ==
 == 244-th k-point nmo = 82 (0.41458,-0.20729,0.20729) ==
 == 245-th k-point nmo = 82 (0.51822,-0.10364,0.10364) ==
 == 246-th k-point nmo = 81 (0.62187,-0.00000,0.00000) ==
 == 247-th k-point nmo = 81 (0.72551,0.10364,-0.10364) ==
 == 248-th k-point nmo = 81 (0.10364,-0.72551,0.72551) ==
 == 249-th k-point nmo = 83 (0.20729,-0.62187,0.62187) ==
 == 250-th k-point nmo = 83 (0.31093,-0.51822,0.51822) ==
 == 251-th k-point nmo = 83 (0.41458,-0.41458,0.41458) ==
 == 252-th k-point nmo = 83 (0.51822,-0.31093,0.31093) ==
 == 253-th k-point nmo = 83 (0.62187,-0.20729,0.20729) ==
 == 254-th k-point nmo = 81 (0.72551,-0.10364,0.10364) ==
 == 255-th k-point nmo = 81 (0.82916,-0.00000,0.00000) ==
 == 256-th k-point nmo = 81 (-0.72551,0.10364,0.10364) ==
 == 257-th k-point nmo = 81 (-0.62187,0.20729,0.00000) ==
 == 258-th k-point nmo = 82 (-0.51822,0.31093,-0.10364) ==
 == 259-th k-point nmo = 83 (-0.41458,0.41458,-0.20729) ==
 == 260-th k-point nmo = 83 (-0.31093,0.51822,-0.31093) ==
 == 261-th k-point nmo = 82 (-0.20729,0.62187,-0.41458) ==
 == 262-th k-point nmo = 82 (-0.10364,0.72551,-0.51822) ==
 == 263-th k-point nmo = 82 (-0.00000,0.82916,-0.62187) ==
 == 264-th k-point nmo = 81 (-0.62187,0.00000,0.20729) ==
 == 265-th k-point nmo = 82 (-0.51822,0.10364,0.10364) ==
 == 266-th k-point nmo = 82 (-0.41458,0.20729,0.00000) ==
 == 267-th k-point nmo = 82 (-0.31093,0.31093,-0.10364) ==
 == 268-th k-point nmo = 82 (-0.20729,0.41458,-0.20729) ==
 == 269-th k-point nmo = 82 (-0.10364,0.51822,-0.31093) ==
 == 270-th k-point nmo = 82 (-0.00000,0.62187,-0.41458) ==
 == 271-th k-point nmo = 82 (0.10364,0.72551,-0.51822) ==
 == 272-th k-point nmo = 82 (-0.51822,-0.10364,0.31093) ==
 == 273-th k-point nmo = 82 (-0.41458,-0.00000,0.20729) ==
 == 274-th k-point nmo = 82 (-0.31093,0.10364,0.10364) ==
 == 275-th k-point nmo = 81 (-0.20729,0.20729,0.00000) ==
 == 276-th k-point nmo = 82 (-0.10364,0.31093,-0.10364) ==
 == 277-th k-point nmo = 82 (-0.00000,0.41458,-0.20729) ==
 == 278-th k-point nmo = 82 (0.10364,0.51822,-0.31093) ==
 == 279-th k-point nmo = 82 (0.20729,0.62187,-0.41458) ==
 == 280-th k-point nmo = 83 (-0.41458,-0.20729,0.41458) ==
 == 281-th k-point nmo = 82 (-0.31093,-0.10364,0.31093) ==
 == 282-th k-point nmo = 81 (-0.20729,-0.00000,0.20729) ==
 == 283-th k-point nmo = 82 (-0.10364,0.10364,0.10364) ==
 == 284-th k-point nmo = 81 (0.00000,0.20729,0.00000) ==
 == 285-th k-point nmo = 82 (0.10364,0.31093,-0.10364) ==
 == 286-th k-point nmo = 82 (0.20729,0.41458,-0.20729) ==
 == 287-th k-point nmo = 83 (0.31093,0.51822,-0.31093) ==
 == 288-th k-point nmo = 83 (-0.31093,-0.31093,0.51822) ==
 == 289-th k-point nmo = 82 (-0.20729,-0.20729,0.41458) ==
 == 290-th k-point nmo = 82 (-0.10364,-0.10364,0.31093) ==
 == 291-th k-point nmo = 81 (0.00000,-0.00000,0.20729) ==
 == 292-th k-point nmo = 82 (0.10364,0.10364,0.10364) ==
 == 293-th k-point nmo = 81 (0.20729,0.20729,0.00000) ==
 == 294-th k-point nmo = 82 (0.31093,0.31093,-0.10364) ==
 == 295-th k-point nmo = 83 (0.41458,0.41458,-0.20729) ==
 == 296-th k-point nmo = 82 (-0.20729,-0.41458,0.62187) ==
 == 297-th k-point nmo = 82 (-0.10364,-0.31093,0.51822) ==
 == 298-th k-point nmo = 82 (0.00000,-0.20729,0.41458) ==
 == 299-th k-point nmo = 82 (0.10364,-0.10364,0.31093) ==
 == 300-th k-point nmo = 81 (0.20729,-0.00000,0.20729) ==
 == 301-th k-point nmo = 82 (0.31093,0.10364,0.10364) ==
 == 302-th k-point nmo = 82 (0.41458,0.20729,0.00000) ==
 == 303-th k-point nmo = 82 (0.51822,0.31093,-0.10364) ==
 == 304-th k-point nmo = 82 (-0.10364,-0.51822,0.72551) ==
 == 305-th k-point nmo = 82 (0.00000,-0.41458,0.62187) ==
 == 306-th k-point nmo = 82 (0.10364,-0.31093,0.51822) ==
 == 307-th k-point nmo = 82 (0.20729,-0.20729,0.41458) ==
 == 308-th k-point nmo = 82 (0.31093,-0.10364,0.31093) ==
 == 309-th k-point nmo = 82 (0.41458,-0.00000,0.20729) ==
 == 310-th k-point nmo = 82 (0.51822,0.10364,0.10364) ==
 == 311-th k-point nmo = 81 (0.62187,0.20729,0.00000) ==
 == 312-th k-point nmo = 82 (0.00000,-0.62187,0.82916) ==
 == 313-th k-point nmo = 82 (0.10364,-0.51822,0.72551) ==
 == 314-th k-point nmo = 82 (0.20729,-0.41458,0.62187) ==
 == 315-th k-point nmo = 83 (0.31093,-0.31093,0.51822) ==
 == 316-th k-point nmo = 83 (0.41458,-0.20729,0.41458) ==
 == 317-th k-point nmo = 82 (0.51822,-0.10364,0.31093) ==
 == 318-th k-point nmo = 81 (0.62187,-0.00000,0.20729) ==
 == 319-th k-point nmo = 81 (0.72551,0.10364,0.10364) ==
 == 320-th k-point nmo = 83 (-0.82916,0.20729,0.20729) ==
 == 321-th k-point nmo = 82 (-0.72551,0.31093,0.10364) ==
 == 322-th k-point nmo = 82 (-0.62187,0.41458,0.00000) ==
 == 323-th k-point nmo = 83 (-0.51822,0.51822,-0.10364) ==
 == 324-th k-point nmo = 82 (-0.41458,0.62187,-0.20729) ==
 == 325-th k-point nmo = 83 (-0.31093,0.72551,-0.31093) ==
 == 326-th k-point nmo = 82 (-0.20729,0.82916,-0.41458) ==
 == 327-th k-point nmo = 82 (-0.10364,0.93280,-0.51822) ==
 == 328-th k-point nmo = 82 (-0.72551,0.10364,0.31093) ==
 == 329-th k-point nmo = 83 (-0.62187,0.20729,0.20729) ==
 == 330-th k-point nmo = 82 (-0.51822,0.31093,0.10364) ==
 == 331-th k-point nmo = 83 (-0.41458,0.41458,0.00000) ==
 == 332-th k-point nmo = 82 (-0.31093,0.51822,-0.10364) ==
 == 333-th k-point nmo = 83 (-0.20729,0.62187,-0.20729) ==
 == 334-th k-point nmo = 82 (-0.10364,0.72551,-0.31093) ==
 == 335-th k-point nmo = 82 (-0.00000,0.82916,-0.41458) ==
 == 336-th k-point nmo = 82 (-0.62187,0.00000,0.41458) ==
 == 337-th k-point nmo = 82 (-0.51822,0.10364,0.31093) ==
 == 338-th k-point nmo = 82 (-0.41458,0.20729,0.20729) ==
 == 339-th k-point nmo = 82 (-0.31093,0.31093,0.10364) ==
 == 340-th k-point nmo = 82 (-0.20729,0.41458,0.00000) ==
 == 341-th k-point nmo = 82 (-0.10364,0.51822,-0.10364) ==
 == 342-th k-point nmo = 81 (0.00000,0.62187,-0.20729) ==
 == 343-th k-point nmo = 82 (0.10364,0.72551,-0.31093) ==
 == 344-th k-point nmo = 83 (-0.51822,-0.10364,0.51822) ==
 == 345-th k-point nmo = 83 (-0.41458,-0.00000,0.41458) ==
 == 346-th k-point nmo = 82 (-0.31093,0.10364,0.31093) ==
 == 347-th k-point nmo = 83 (-0.20729,0.20729,0.20729) ==
 == 348-th k-point nmo = 82 (-0.10364,0.31093,0.10364) ==
 == 349-th k-point nmo = 81 (0.00000,0.41458,0.00000) ==
 == 350-th k-point nmo = 82 (0.10364,0.51822,-0.10364) ==
 == 351-th k-point nmo = 83 (0.20729,0.62187,-0.20729) ==
 == 352-th k-point nmo = 82 (-0.41458,-0.20729,0.62187) ==
 == 353-th k-point nmo = 82 (-0.31093,-0.10364,0.51822) ==
 == 354-th k-point nmo = 82 (-0.20729,-0.00000,0.41458) ==
 == 355-th k-point nmo = 82 (-0.10364,0.10364,0.31093) ==
 == 356-th k-point nmo = 81 (0.00000,0.20729,0.20729) ==
 == 357-th k-point nmo = 82 (0.10364,0.31093,0.10364) ==
 == 358-th k-point nmo = 82 (0.20729,0.41458,0.00000) ==
 == 359-th k-point nmo = 82 (0.31093,0.51822,-0.10364) ==
 == 360-th k-point nmo = 83 (-0.31093,-0.31093,0.72551) ==
 == 361-th k-point nmo = 83 (-0.20729,-0.20729,0.62187) ==
 == 362-th k-point nmo = 82 (-0.10364,-0.10364,0.51822) ==
 == 363-th k-point nmo = 81 (0.00000,-0.00000,0.41458) ==
 == 364-th k-point nmo = 82 (0.10364,0.10364,0.31093) ==
 == 365-th k-point nmo = 83 (0.20729,0.20729,0.20729) ==
 == 366-th k-point nmo = 82 (0.31093,0.31093,0.10364) ==
 == 367-th k-point nmo = 83 (0.41458,0.41458,0.00000) ==
 == 368-th k-point nmo = 82 (-0.20729,-0.41458,0.82916) ==
 == 369-th k-point nmo = 82 (-0.10364,-0.31093,0.72551) ==
 == 370-th k-point nmo = 81 (0.00000,-0.20729,0.62187) ==
 == 371-th k-point nmo = 82 (0.10364,-0.10364,0.51822) ==
 == 372-th k-point nmo = 82 (0.20729,-0.00000,0.41458) ==
 == 373-th k-point nmo = 82 (0.31093,0.10364,0.31093) ==
 == 374-th k-point nmo = 82 (0.41458,0.20729,0.20729) ==
 == 375-th k-point nmo = 82 (0.51822,0.31093,0.10364) ==
 == 376-th k-point nmo = 82 (-0.10364,-0.51822,0.93280) ==
 == 377-th k-point nmo = 82 (0.00000,-0.41458,0.82916) ==
 == 378-th k-point nmo = 82 (0.10364,-0.31093,0.72551) ==
 == 379-th k-point nmo = 83 (0.20729,-0.20729,0.62187) ==
 == 380-th k-point nmo = 82 (0.31093,-0.10364,0.51822) ==
 == 381-th k-point nmo = 83 (0.41458,-0.00000,0.41458) ==
 == 382-th k-point nmo = 82 (0.51822,0.10364,0.31093) ==
 == 383-th k-point nmo = 83 (0.62187,0.20729,0.20729) ==
 == 384-th k-point nmo = 83 (-0.93280,0.31093,0.31093) ==
 == 385-th k-point nmo = 82 (-0.82916,0.41458,0.20729) ==
 == 386-th k-point nmo = 82 (-0.72551,0.51822,0.10364) ==
 == 387-th k-point nmo = 83 (-0.62187,0.62187,0.00000) ==
 == 388-th k-point nmo = 82 (-0.51822,0.72551,-0.10364) ==
 == 389-th k-point nmo = 82 (-0.41458,0.82916,-0.20729) ==
 == 390-th k-point nmo = 83 (-0.31093,0.93280,-0.31093) ==
 == 391-th k-point nmo = 82 (-0.20729,1.03645,-0.41458) ==
 == 392-th k-point nmo = 82 (-0.82916,0.20729,0.41458) ==
 == 393-th k-point nmo = 83 (-0.72551,0.31093,0.31093) ==
 == 394-th k-point nmo = 82 (-0.62187,0.41458,0.20729) ==
 == 395-th k-point nmo = 83 (-0.51822,0.51822,0.10364) ==
 == 396-th k-point nmo = 82 (-0.41458,0.62187,0.00000) ==
 == 397-th k-point nmo = 82 (-0.31093,0.72551,-0.10364) ==
 == 398-th k-point nmo = 83 (-0.20729,0.82916,-0.20729) ==
 == 399-th k-point nmo = 82 (-0.10364,0.93280,-0.31093) ==
 == 400-th k-point nmo = 82 (-0.72551,0.10364,0.51822) ==
 == 401-th k-point nmo = 82 (-0.62187,0.20729,0.41458) ==
 == 402-th k-point nmo = 83 (-0.51822,0.31093,0.31093) ==
 == 403-th k-point nmo = 83 (-0.41458,0.41458,0.20729) ==
 == 404-th k-point nmo = 82 (-0.31093,0.51822,0.10364) ==
 == 405-th k-point nmo = 81 (-0.20729,0.62187,0.00000) ==
 == 406-th k-point nmo = 81 (-0.10364,0.72551,-0.10364) ==
 == 407-th k-point nmo = 82 (0.00000,0.82916,-0.20729) ==
 == 408-th k-point nmo = 83 (-0.62187,-0.00000,0.62187) ==
 == 409-th k-point nmo = 83 (-0.51822,0.10364,0.51822) ==
 == 410-th k-point nmo = 83 (-0.41458,0.20729,0.41458) ==
 == 411-th k-point nmo = 81 (-0.31093,0.31093,0.31093) ==
 == 412-th k-point nmo = 82 (-0.20729,0.41458,0.20729) ==
 == 413-th k-point nmo = 82 (-0.10364,0.51822,0.10364) ==
 == 414-th k-point nmo = 81 (0.00000,0.62187,0.00000) ==
 == 415-th k-point nmo = 81 (0.10364,0.72551,-0.10364) ==
 == 416-th k-point nmo = 82 (-0.51822,-0.10364,0.72551) ==
 == 417-th k-point nmo = 82 (-0.41458,-0.00000,0.62187) ==
 == 418-th k-point nmo = 82 (-0.31093,0.10364,0.51822) ==
 == 419-th k-point nmo = 82 (-0.20729,0.20729,0.41458) ==
 == 420-th k-point nmo = 82 (-0.10364,0.31093,0.31093) ==
 == 421-th k-point nmo = 82 (0.00000,0.41458,0.20729) ==
 == 422-th k-point nmo = 82 (0.10364,0.51822,0.10364) ==
 == 423-th k-point nmo = 81 (0.20729,0.62187,0.00000) ==
 == 424-th k-point nmo = 82 (-0.41458,-0.20729,0.82916) ==
 == 425-th k-point nmo = 82 (-0.31093,-0.10364,0.72551) ==
 == 426-th k-point nmo = 81 (-0.20729,-0.00000,0.62187) ==
 == 427-th k-point nmo = 82 (-0.10364,0.10364,0.51822) ==
 == 428-th k-point nmo = 82 (0.00000,0.20729,0.41458) ==
 == 429-th k-point nmo = 82 (0.10364,0.31093,0.31093) ==
 == 430-th k-point nmo = 82 (0.20729,0.41458,0.20729) ==
 == 431-th k-point nmo = 82 (0.31093,0.51822,0.10364) ==
 == 432-th k-point nmo = 83 (-0.31093,-0.31093,0.93280) ==
 == 433-th k-point nmo = 83 (-0.20729,-0.20729,0.82916) ==
 == 434-th k-point nmo = 81 (-0.10364,-0.10364,0.72551) ==
 == 435-th k-point nmo = 81 (0.00000,-0.00000,0.62187) ==
 == 436-th k-point nmo = 82 (0.10364,0.10364,0.51822) ==
 == 437-th k-point nmo = 82 (0.20729,0.20729,0.41458) ==
 == 438-th k-point nmo = 81 (0.31093,0.31093,0.31093) ==
 == 439-th k-point nmo = 83 (0.41458,0.41458,0.20729) ==
 == 440-th k-point nmo = 82 (-0.20729,-0.41458,1.03645) ==
 == 441-th k-point nmo = 82 (-0.10364,-0.31093,0.93280) ==
 == 442-th k-point nmo = 82 (0.00000,-0.20729,0.82916) ==
 == 443-th k-point nmo = 81 (0.10364,-0.10364,0.72551) ==
 == 444-th k-point nmo = 81 (0.20729,-0.00000,0.62187) ==
 == 445-th k-point nmo = 82 (0.31093,0.10364,0.51822) ==
 == 446-th k-point nmo = 83 (0.41458,0.20729,0.41458) ==
 == 447-th k-point nmo = 83 (0.51822,0.31093,0.31093) ==
 == 448-th k-point nmo = 83 (-1.03645,0.41458,0.41458) ==
 == 449-th k-point nmo = 82 (-0.93280,0.51822,0.31093) ==
 == 450-th k-point nmo = 81 (-0.82916,0.62187,0.20729) ==
 == 451-th k-point nmo = 81 (-0.72551,0.72551,0.10364) ==
 == 452-th k-point nmo = 82 (-0.62187,0.82916,0.00000) ==
 == 453-th k-point nmo = 82 (-0.51822,0.93280,-0.10364) ==
 == 454-th k-point nmo = 82 (-0.41458,1.03645,-0.20729) ==
 == 455-th k-point nmo = 83 (-0.31093,1.14009,-0.31093) ==
 == 456-th k-point nmo = 82 (-0.93280,0.31093,0.51822) ==
 == 457-th k-point nmo = 83 (-0.82916,0.41458,0.41458) ==
 == 458-th k-point nmo = 82 (-0.72551,0.51822,0.31093) ==
 == 459-th k-point nmo = 83 (-0.62187,0.62187,0.20729) ==
 == 460-th k-point nmo = 82 (-0.51822,0.72551,0.10364) ==
 == 461-th k-point nmo = 82 (-0.41458,0.82916,0.00000) ==
 == 462-th k-point nmo = 82 (-0.31093,0.93280,-0.10364) ==
 == 463-th k-point nmo = 83 (-0.20729,1.03645,-0.20729) ==
 == 464-th k-point nmo = 81 (-0.82916,0.20729,0.62187) ==
 == 465-th k-point nmo = 82 (-0.72551,0.31093,0.51822) ==
 == 466-th k-point nmo = 83 (-0.62187,0.41458,0.41458) ==
 == 467-th k-point nmo = 83 (-0.51822,0.51822,0.31093) ==
 == 468-th k-point nmo = 82 (-0.41458,0.62187,0.20729) ==
 == 469-th k-point nmo = 82 (-0.31093,0.72551,0.10364) ==
 == 470-th k-point nmo = 82 (-0.20729,0.82916,0.00000) ==
 == 471-th k-point nmo = 81 (-0.10364,0.93280,-0.10364) ==
 == 472-th k-point nmo = 81 (-0.72551,0.10364,0.72551) ==
 == 473-th k-point nmo = 83 (-0.62187,0.20729,0.62187) ==
 == 474-th k-point nmo = 83 (-0.51822,0.31093,0.51822) ==
 == 475-th k-point nmo = 83 (-0.41458,0.41458,0.41458) ==
 == 476-th k-point nmo = 83 (-0.31093,0.51822,0.31093) ==
 == 477-th k-point nmo = 83 (-0.20729,0.62187,0.20729) ==
 == 478-th k-point nmo = 81 (-0.10364,0.72551,0.10364) ==
 == 479-th k-point nmo = 81 (0.00000,0.82916,0.00000) ==
 == 480-th k-point nmo = 82 (-0.62187,-0.00000,0.82916) ==
 == 481-th k-point nmo = 82 (-0.51822,0.10364,0.72551) ==
 == 482-th k-point nmo = 82 (-0.41458,0.20729,0.62187) ==
 == 483-th k-point nmo = 83 (-0.31093,0.31093,0.51822) ==
 == 484-th k-point nmo = 83 (-0.20729,0.41458,0.41458) ==
 == 485-th k-point nmo = 82 (-0.10364,0.51822,0.31093) ==
 == 486-th k-point nmo = 81 (0.00000,0.62187,0.20729) ==
 == 487-th k-point nmo = 81 (0.10364,0.72551,0.10364) ==
 == 488-th k-point nmo = 82 (-0.51822,-0.10364,0.93280) ==
 == 489-th k-point nmo = 82 (-0.41458,-0.00000,0.82916) ==
 == 490-th k-point nmo = 82 (-0.31093,0.10364,0.72551) ==
 == 491-th k-point nmo = 83 (-0.20729,0.20729,0.62187) ==
 == 492-th k-point nmo = 82 (-0.10364,0.31093,0.51822) ==
 == 493-th k-point nmo = 83 (0.00000,0.41458,0.41458) ==
 == 494-th k-point nmo = 82 (0.10364,0.51822,0.31093) ==
 == 495-th k-point nmo = 83 (0.20729,0.62187,0.20729) ==
 == 496-th k-point nmo = 82 (-0.41458,-0.20729,1.03645) ==
 == 497-th k-point nmo = 82 (-0.31093,-0.10364,0.93280) ==
 == 498-th k-point nmo = 82 (-0.20729,-0.00000,0.82916) ==
 == 499-th k-point nmo = 81 (-0.10364,0.10364,0.72551) ==
 == 500-th k-point nmo = 81 (0.00000,0.20729,0.62187) ==
 == 501-th k-point nmo = 82 (0.10364,0.31093,0.51822) ==
 == 502-th k-point nmo = 83 (0.20729,0.41458,0.41458) ==
 == 503-th k-point nmo = 83 (0.31093,0.51822,0.31093) ==
 == 504-th k-point nmo = 83 (-0.31093,-0.31093,1.14009) ==
 == 505-th k-point nmo = 83 (-0.20729,-0.20729,1.03645) ==
 == 506-th k-point nmo = 81 (-0.10364,-0.10364,0.93280) ==
 == 507-th k-point nmo = 81 (0.00000,-0.00000,0.82916) ==
 == 508-th k-point nmo = 81 (0.10364,0.10364,0.72551) ==
 == 509-th k-point nmo = 83 (0.20729,0.20729,0.62187) ==
 == 510-th k-point nmo = 83 (0.31093,0.31093,0.51822) ==
 == 511-th k-point nmo = 83 (0.41458,0.41458,0.41458) ==

 Generate autoSAD guess
backing up fragment data
Atom # 0: li, charge: 0, multiplicity: 2.000000
Atom # 1: f, charge: 0, multiplicity: 2.000000
writing autosad to fragment context
Settings for isolated fragments: 
  frgm_gamma: TRUE
  frgm_center: FALSE

    Running SCF for isolated atom #0
    Fragment Input file: /n/netscratch/joonholee_lab/Lab/hieudinh//lif_solve_def2qzvp_omega_0.6_888.scratch20250909021915/autosad_frgmt_0/frgmt_input.in
    Fragment Output file: /n/netscratch/joonholee_lab/Lab/hieudinh//lif_solve_def2qzvp_omega_0.6_888.scratch20250909021915/autosad_frgmt_0/frgmt_job.out
    Fragment job begins at Tue Sep  9 02:19:52 2025

 Integrated density by DFT XC:
   Numerical integral  =     3.000000007147
   Relative error      =     0.0000002382 %
Final energy components:
 DFT Correlation            Energy =  -0.05090044545114
 DFT Exchange               Energy =  -1.75144597421910
 Kinetic (alpha)            Energy =   3.82935284817784
 Kinetic (beta)             Energy =   3.58515893685385
 Nuclear Attraction (alpha) Energy =  -9.10791001172894
 Nuclear Attraction (beta)  Energy =  -8.01914849492518
 Nuclear Repulsion          Energy =   0.00000000000000
 SEOQF                      Energy =  -0.00000000000000
 Total Coulomb              Energy =   4.05291331077688
----------------------------------------------
    SCF Energy: -7.4619798305
   Total fragment job time:  0.46 s.
    Running SCF for isolated atom #1
    Fragment Input file: /n/netscratch/joonholee_lab/Lab/hieudinh//lif_solve_def2qzvp_omega_0.6_888.scratch20250909021915/autosad_frgmt_1/frgmt_input.in
    Fragment Output file: /n/netscratch/joonholee_lab/Lab/hieudinh//lif_solve_def2qzvp_omega_0.6_888.scratch20250909021915/autosad_frgmt_1/frgmt_job.out
    Fragment job begins at Tue Sep  9 02:19:52 2025

 Integrated density by DFT XC:
   Numerical integral  =     9.000000098353
   Relative error      =     0.0000010928 %
Final energy components:
 DFT Correlation            Energy =  -0.28943664182310
 DFT Exchange               Energy =  -9.96991500891565
 Kinetic (alpha)            Energy =  51.55258412072415
 Kinetic (beta)             Energy =  47.84820569403617
 Nuclear Attraction (alpha) Energy = -125.30574122940676
 Nuclear Attraction (beta)  Energy = -113.20186276241694
 Nuclear Repulsion          Energy =   0.00000000000000
 SEOQF                      Energy =  -0.00000000020726
 Total Coulomb              Energy =  49.69105360806800
----------------------------------------------
    SCF Energy: -99.6751122199
   Total fragment job time:  0.64 s.
restoring fragment data

 ------------------------------------------------------------------------
 Allocate 344947968 B from available memory: 104788126048 B
 Time for generating SCF guess: 1.23 s

 Allocate 446984 B from available memory: 104443178080 B
 Selected algorithms for each term:
  kpts_kinetic -> @0x154595c53680
  kpts_nn -> @0x154595c53800
  kpts_rij_bigmem -> @0x154595c533e0
  kpts_vnuc_df -> @0x154595c53380
  kpts_xc -> @0x154595c532c0
 Time for computing kinetic matrix is 28.96 s
Start calculating Vnuc DD type!
Start calculating Vnuc CD type!
Start calculating Vnuc CC type!
 Time for computing nuclear attraction matrix is 61.27 s
Compute (P|Q) and use solve on the fly!
Maximum distance between P and Q is 30.17566373239437
Number of images for (P|Qn) is 2041
 Time for computing 2e2c SR integral is 0.12 s
Maximum dynamic memory per thread for 2e3c SR integrals: 0.245 GiB
Batch size for basis function pair is 1836 out of 1836
 === bvk cell = 0 has 100.000 % of the basis function pairs === 
 === bvk cell = 1 has 100.000 % of the basis function pairs === 
 === bvk cell = 2 has 100.000 % of the basis function pairs === 
 === bvk cell = 3 has 84.532 % of the basis function pairs === 
 === bvk cell = 4 has 44.553 % of the basis function pairs === 
 === bvk cell = 5 has 54.684 % of the basis function pairs === 
 === bvk cell = 6 has 100.000 % of the basis function pairs === 
 === bvk cell = 7 has 100.000 % of the basis function pairs === 
 === bvk cell = 8 has 100.000 % of the basis function pairs === 
 === bvk cell = 9 has 100.000 % of the basis function pairs === 
 === bvk cell = 10 has 97.712 % of the basis function pairs === 
 === bvk cell = 11 has 51.906 % of the basis function pairs === 
 === bvk cell = 12 has 34.532 % of the basis function pairs === 
 === bvk cell = 13 has 70.316 % of the basis function pairs === 
 === bvk cell = 14 has 100.000 % of the basis function pairs === 
 === bvk cell = 15 has 100.000 % of the basis function pairs === 
 === bvk cell = 16 has 100.000 % of the basis function pairs === 
 === bvk cell = 17 has 97.712 % of the basis function pairs === 
 === bvk cell = 18 has 55.882 % of the basis function pairs === 
 === bvk cell = 19 has 35.621 % of the basis function pairs === 
 === bvk cell = 20 has 41.394 % of the basis function pairs === 
 === bvk cell = 21 has 74.237 % of the basis function pairs === 
 === bvk cell = 22 has 100.000 % of the basis function pairs === 
 === bvk cell = 23 has 100.000 % of the basis function pairs === 
 === bvk cell = 24 has 84.532 % of the basis function pairs === 
 === bvk cell = 25 has 51.906 % of the basis function pairs === 
 === bvk cell = 26 has 35.621 % of the basis function pairs === 
 === bvk cell = 27 has 19.989 % of the basis function pairs === 
 === bvk cell = 28 has 40.523 % of the basis function pairs === 
 === bvk cell = 29 has 56.481 % of the basis function pairs === 
 === bvk cell = 30 has 97.876 % of the basis function pairs === 
 === bvk cell = 31 has 97.712 % of the basis function pairs === 
 === bvk cell = 32 has 44.553 % of the basis function pairs === 
 === bvk cell = 33 has 34.532 % of the basis function pairs === 
 === bvk cell = 34 has 41.394 % of the basis function pairs === 
 === bvk cell = 35 has 40.523 % of the basis function pairs === 
 === bvk cell = 36 has 29.630 % of the basis function pairs === 
 === bvk cell = 37 has 48.638 % of the basis function pairs === 
 === bvk cell = 38 has 51.797 % of the basis function pairs === 
 === bvk cell = 39 has 51.743 % of the basis function pairs === 
 === bvk cell = 40 has 54.684 % of the basis function pairs === 
 === bvk cell = 41 has 70.316 % of the basis function pairs === 
 === bvk cell = 42 has 74.237 % of the basis function pairs === 
 === bvk cell = 43 has 56.481 % of the basis function pairs === 
 === bvk cell = 44 has 48.638 % of the basis function pairs === 
 === bvk cell = 45 has 28.813 % of the basis function pairs === 
 === bvk cell = 46 has 28.813 % of the basis function pairs === 
 === bvk cell = 47 has 34.532 % of the basis function pairs === 
 === bvk cell = 48 has 100.000 % of the basis function pairs === 
 === bvk cell = 49 has 100.000 % of the basis function pairs === 
 === bvk cell = 50 has 100.000 % of the basis function pairs === 
 === bvk cell = 51 has 97.876 % of the basis function pairs === 
 === bvk cell = 52 has 51.797 % of the basis function pairs === 
 === bvk cell = 53 has 28.813 % of the basis function pairs === 
 === bvk cell = 54 has 34.749 % of the basis function pairs === 
 === bvk cell = 55 has 70.153 % of the basis function pairs === 
 === bvk cell = 56 has 100.000 % of the basis function pairs === 
 === bvk cell = 57 has 100.000 % of the basis function pairs === 
 === bvk cell = 58 has 100.000 % of the basis function pairs === 
 === bvk cell = 59 has 97.712 % of the basis function pairs === 
 === bvk cell = 60 has 51.743 % of the basis function pairs === 
 === bvk cell = 61 has 34.532 % of the basis function pairs === 
 === bvk cell = 62 has 70.153 % of the basis function pairs === 
 === bvk cell = 63 has 100.000 % of the basis function pairs === 
 === bvk cell = 64 has 100.000 % of the basis function pairs === 
 === bvk cell = 65 has 100.000 % of the basis function pairs === 
 === bvk cell = 66 has 97.712 % of the basis function pairs === 
 === bvk cell = 67 has 51.743 % of the basis function pairs === 
 === bvk cell = 68 has 34.532 % of the basis function pairs === 
 === bvk cell = 69 has 70.153 % of the basis function pairs === 
 === bvk cell = 70 has 100.000 % of the basis function pairs === 
 === bvk cell = 71 has 100.000 % of the basis function pairs === 
 === bvk cell = 72 has 100.000 % of the basis function pairs === 
 === bvk cell = 73 has 98.693 % of the basis function pairs === 
 === bvk cell = 74 has 56.318 % of the basis function pairs === 
 === bvk cell = 75 has 36.438 % of the basis function pairs === 
 === bvk cell = 76 has 41.993 % of the basis function pairs === 
 === bvk cell = 77 has 75.054 % of the basis function pairs === 
 === bvk cell = 78 has 100.000 % of the basis function pairs === 
 === bvk cell = 79 has 100.000 % of the basis function pairs === 
 === bvk cell = 80 has 97.712 % of the basis function pairs === 
 === bvk cell = 81 has 56.318 % of the basis function pairs === 
 === bvk cell = 82 has 44.390 % of the basis function pairs === 
 === bvk cell = 83 has 20.969 % of the basis function pairs === 
 === bvk cell = 84 has 49.782 % of the basis function pairs === 
 === bvk cell = 85 has 74.237 % of the basis function pairs === 
 === bvk cell = 86 has 100.000 % of the basis function pairs === 
 === bvk cell = 87 has 100.000 % of the basis function pairs === 
 === bvk cell = 88 has 51.743 % of the basis function pairs === 
 === bvk cell = 89 has 36.438 % of the basis function pairs === 
 === bvk cell = 90 has 20.969 % of the basis function pairs === 
 === bvk cell = 91 has 20.969 % of the basis function pairs === 
 === bvk cell = 92 has 40.523 % of the basis function pairs === 
 === bvk cell = 93 has 55.937 % of the basis function pairs === 
 === bvk cell = 94 has 60.403 % of the basis function pairs === 
 === bvk cell = 95 has 59.205 % of the basis function pairs === 
 === bvk cell = 96 has 34.532 % of the basis function pairs === 
 === bvk cell = 97 has 41.993 % of the basis function pairs === 
 === bvk cell = 98 has 49.782 % of the basis function pairs === 
 === bvk cell = 99 has 40.523 % of the basis function pairs === 
 === bvk cell = 100 has 29.630 % of the basis function pairs === 
 === bvk cell = 101 has 37.800 % of the basis function pairs === 
 === bvk cell = 102 has 45.752 % of the basis function pairs === 
 === bvk cell = 103 has 36.438 % of the basis function pairs === 
 === bvk cell = 104 has 70.153 % of the basis function pairs === 
 === bvk cell = 105 has 75.054 % of the basis function pairs === 
 === bvk cell = 106 has 74.237 % of the basis function pairs === 
 === bvk cell = 107 has 55.937 % of the basis function pairs === 
 === bvk cell = 108 has 37.800 % of the basis function pairs === 
 === bvk cell = 109 has 18.682 % of the basis function pairs === 
 === bvk cell = 110 has 23.148 % of the basis function pairs === 
 === bvk cell = 111 has 46.187 % of the basis function pairs === 
 === bvk cell = 112 has 100.000 % of the basis function pairs === 
 === bvk cell = 113 has 100.000 % of the basis function pairs === 
 === bvk cell = 114 has 100.000 % of the basis function pairs === 
 === bvk cell = 115 has 60.403 % of the basis function pairs === 
 === bvk cell = 116 has 45.752 % of the basis function pairs === 
 === bvk cell = 117 has 23.148 % of the basis function pairs === 
 === bvk cell = 118 has 54.521 % of the basis function pairs === 
 === bvk cell = 119 has 75.054 % of the basis function pairs === 
 === bvk cell = 120 has 100.000 % of the basis function pairs === 
 === bvk cell = 121 has 100.000 % of the basis function pairs === 
 === bvk cell = 122 has 100.000 % of the basis function pairs === 
 === bvk cell = 123 has 59.205 % of the basis function pairs === 
 === bvk cell = 124 has 36.438 % of the basis function pairs === 
 === bvk cell = 125 has 46.187 % of the basis function pairs === 
 === bvk cell = 126 has 75.054 % of the basis function pairs === 
 === bvk cell = 127 has 100.000 % of the basis function pairs === 
 === bvk cell = 128 has 100.000 % of the basis function pairs === 
 === bvk cell = 129 has 97.876 % of the basis function pairs === 
 === bvk cell = 130 has 51.797 % of the basis function pairs === 
 === bvk cell = 131 has 28.813 % of the basis function pairs === 
 === bvk cell = 132 has 34.749 % of the basis function pairs === 
 === bvk cell = 133 has 70.153 % of the basis function pairs === 
 === bvk cell = 134 has 100.000 % of the basis function pairs === 
 === bvk cell = 135 has 100.000 % of the basis function pairs === 
 === bvk cell = 136 has 97.876 % of the basis function pairs === 
 === bvk cell = 137 has 52.397 % of the basis function pairs === 
 === bvk cell = 138 has 36.438 % of the basis function pairs === 
 === bvk cell = 139 has 20.806 % of the basis function pairs === 
 === bvk cell = 140 has 41.993 % of the basis function pairs === 
 === bvk cell = 141 has 70.316 % of the basis function pairs === 
 === bvk cell = 142 has 100.000 % of the basis function pairs === 
 === bvk cell = 143 has 100.000 % of the basis function pairs === 
 === bvk cell = 144 has 51.797 % of the basis function pairs === 
 === bvk cell = 145 has 36.438 % of the basis function pairs === 
 === bvk cell = 146 has 18.355 % of the basis function pairs === 
 === bvk cell = 147 has 20.969 % of the basis function pairs === 
 === bvk cell = 148 has 41.394 % of the basis function pairs === 
 === bvk cell = 149 has 56.481 % of the basis function pairs === 
 === bvk cell = 150 has 64.488 % of the basis function pairs === 
 === bvk cell = 151 has 60.403 % of the basis function pairs === 
 === bvk cell = 152 has 28.813 % of the basis function pairs === 
 === bvk cell = 153 has 20.806 % of the basis function pairs === 
 === bvk cell = 154 has 20.969 % of the basis function pairs === 
 === bvk cell = 155 has 19.989 % of the basis function pairs === 
 === bvk cell = 156 has 30.991 % of the basis function pairs === 
 === bvk cell = 157 has 48.475 % of the basis function pairs === 
 === bvk cell = 158 has 48.638 % of the basis function pairs === 
 === bvk cell = 159 has 45.752 % of the basis function pairs === 
 === bvk cell = 160 has 34.749 % of the basis function pairs === 
 === bvk cell = 161 has 41.993 % of the basis function pairs === 
[...]
 0.82668 1.28769 1.39961 1.42860 1.50643 1.59420 1.64837 1.70801 1.85555 1.88489
 1.95315 1.97449 2.15416 2.23325 2.32965 2.34179 2.41984 2.64046 2.72254 2.82775
 2.88088 3.03455 3.12107 3.48034 3.77806 3.85541 4.06303 4.62698 4.81919 4.85215
 4.94662 5.00757 5.17178 5.21393 5.78734 5.83617 5.86026 6.22838 6.30832 6.34496
 7.54059 7.67258 7.90202 8.00873 8.28911 8.41808 11.60200 11.61399 11.62297 11.63888
 11.64577 11.64751 11.64864 11.67788 11.73529 12.91675 14.86560 14.95335 14.95453 15.03679
 15.04465 15.18796 15.19309 16.29335 16.33093 16.57491 16.68584 16.72932 16.91864 55.39393
 286.05616
 == 488-th k-point (-0.51822,-0.10364,0.93280) occupation: 6==
 -23.85915 -1.46217 -0.67205 -0.05226 -0.02471 0.00890 0.55867 0.60225 0.71006 0.75478
 0.95801 1.16378 1.33032 1.41683 1.49058 1.53626 1.70863 1.80032 1.88735 1.93203
 2.00845 2.07452 2.15281 2.24350 2.25654 2.35519 2.43363 2.56246 2.67915 2.77047
 2.80063 2.88677 3.33867 3.40299 3.51680 3.66743 3.76290 3.92606 4.66390 4.87945
 5.03954 5.22361 5.29616 5.43721 5.52690 5.70170 5.86194 6.07748 6.26989 6.38766
 6.82917 7.40437 7.51058 8.00245 8.11208 8.37440 8.51965 11.61635 11.62202 11.62745
 11.63591 11.63988 11.64668 11.65115 11.67992 11.74665 12.35900 14.86008 14.99266 15.06823
 15.16543 15.25075 15.29499 15.37448 16.24095 16.40455 16.57899 16.80425 16.85894 17.38218
 55.76129 286.52147
 == 489-th k-point (-0.41458,-0.00000,0.82916) occupation: 6==
 -23.85915 -1.46207 -0.67081 -0.04171 -0.04171 0.00634 0.59274 0.59274 0.68261 0.75001
 1.05200 1.05200 1.29988 1.45107 1.60127 1.60133 1.62481 1.74544 1.92179 1.96611
 1.96630 2.00320 2.14685 2.29877 2.29919 2.48477 2.48611 2.54651 2.62615 2.88540
 2.92063 2.93021 3.01630 3.43332 3.43544 3.65114 3.74866 4.37593 4.42305 4.93925
 4.93940 5.26579 5.40543 5.53751 5.54302 5.56995 5.85811 5.95841 5.96006 6.37777
 7.22718 7.59375 7.62990 7.63005 8.50188 8.50830 8.71968 11.61711 11.62838 11.63545
 11.63545 11.64115 11.65072 11.65078 11.66460 11.87379 12.44019 14.74825 15.03621 15.03624
 15.20339 15.25683 15.43450 15.43618 16.19127 16.42709 16.42725 16.52903 16.81592 17.67129
 55.70781 286.44935
 == 490-th k-point (-0.31093,0.10364,0.72551) occupation: 6==
 -23.85915 -1.46217 -0.67205 -0.05226 -0.02471 0.00890 0.55867 0.60225 0.71006 0.75478
 0.95801 1.16378 1.33032 1.41683 1.49059 1.53625 1.70852 1.80033 1.88737 1.93203
 2.00842 2.07457 2.15282 2.24393 2.25651 2.35502 2.43332 2.56346 2.67929 2.77283
 2.79831 2.88670 3.33794 3.40021 3.51774 3.66766 3.76299 3.92630 4.66395 4.87968
 5.03966 5.22347 5.29591 5.43717 5.52552 5.70181 5.86186 6.07678 6.26965 6.38783
 6.82934 7.40437 7.51077 8.00241 8.11340 8.37323 8.51519 11.61635 11.62202 11.62745
 11.63591 11.63988 11.64667 11.65115 11.67994 11.74667 12.35903 14.86008 14.99269 15.06823
 15.16542 15.25078 15.29496 15.37383 16.24096 16.40455 16.57894 16.80404 16.85892 17.38217
 55.76127 286.52146
 == 491-th k-point (-0.20729,0.20729,0.62187) occupation: 6==
 -23.85915 -1.46241 -0.67498 -0.05254 -0.00749 0.01260 0.51616 0.62154 0.72996 0.76185
 0.92642 1.25993 1.28604 1.40458 1.45449 1.45734 1.65439 1.74670 1.89598 1.93488
 1.98798 2.10308 2.18213 2.18572 2.29473 2.39975 2.52487 2.61000 2.68320 2.73518
 2.86046 2.94624 2.96468 3.47339 3.57083 3.65367 3.83552 3.85422 4.04422 4.60012
 4.78228 5.09532 5.17797 5.37904 5.50512 5.51892 5.83848 6.04745 6.18769 6.43319
 6.55387 6.56456 7.39329 8.02303 8.16768 8.26940 8.43391 8.45537 11.61564 11.62155
 11.62524 11.64050 11.64961 11.65442 11.66063 11.70309 11.71371 12.57869 14.85656 14.92073
 15.09707 15.14596 15.25205 15.32422 15.33743 16.43612 16.52514 16.68571 16.86828 16.93304
 17.24784 55.79951 286.56819
 == 492-th k-point (-0.10364,0.31093,0.51822) occupation: 6==
 -23.85915 -1.46264 -0.67783 -0.04314 -0.00558 0.02067 0.49160 0.62635 0.74235 0.75846
 0.98850 1.16101 1.26108 1.38944 1.41567 1.50807 1.62620 1.79042 1.82323 1.88361
 1.99117 2.04410 2.18404 2.30925 2.35993 2.44506 2.51206 2.68849 2.77535 2.84360
 2.84929 2.90264 3.29478 3.53918 3.65705 3.81702 3.89989 4.10177 4.63718 4.73251
 4.92883 5.07597 5.17896 5.43601 5.49741 6.08001 6.11977 6.22784 6.34844 6.42445
 6.66493 7.41922 7.55571 7.98984 8.23264 8.42889 8.51769 11.60782 11.61314 11.62014
 11.62946 11.64068 11.64999 11.65388 11.67299 11.70470 12.19787 14.85933 14.90035 15.00790
 15.07803 15.14162 15.28360 15.30158 16.53968 16.59906 16.69259 16.76611 17.05568 17.22600
 55.78518 286.55045
 == 493-th k-point (0.00000,0.41458,0.41458) occupation: 6==
 -23.85915 -1.46274 -0.67899 -0.03346 -0.01376 0.02696 0.48404 0.61973 0.75662 0.75729
 1.10713 1.11364 1.11489 1.40715 1.41314 1.52621 1.64231 1.77874 1.82835 1.88501
 1.99364 2.03670 2.10967 2.21966 2.46187 2.47921 2.62870 2.76482 2.81792 2.81877
 2.83520 2.87152 2.94381 3.22118 3.58254 3.64199 3.86746 4.12276 4.17155 4.58999
 4.62551 5.07547 5.12755 5.20581 5.36579 5.58683 6.10023 6.22642 6.28083 6.28114
 6.67776 6.88546 7.50412 7.56244 8.17758 8.33422 8.56404 8.62488 11.59954 11.61118
 11.62822 11.63508 11.63781 11.64721 11.66630 11.68373 11.70241 12.44524 14.85049 14.86263
 15.06712 15.11543 15.15977 15.23838 15.35213 16.54382 16.70034 16.70951 16.76179 17.23630
 17.36547 55.85312 286.63254
 == 494-th k-point (0.10364,0.51822,0.31093) occupation: 6==
 -23.85915 -1.46264 -0.67783 -0.04314 -0.00558 0.02067 0.49160 0.62635 0.74235 0.75846
 0.98850 1.16101 1.26108 1.38944 1.41567 1.50809 1.62621 1.79050 1.82331 1.88363
 1.99121 2.04411 2.18425 2.30932 2.36030 2.44582 2.51222 2.68855 2.78236 2.84377
 2.85222 2.90353 3.29796 3.54207 3.65717 3.81805 3.90177 4.10430 4.63752 4.73269
 4.93022 5.07835 5.17900 5.43963 5.49750 6.08009 6.11983 6.22794 6.34896 6.42466
 6.66528 7.41924 7.55614 7.99010 8.23363 8.42984 8.52315 11.60782 11.61315 11.62015
 11.62948 11.64068 11.64999 11.65389 11.67312 11.70484 12.19790 14.85936 14.90036 15.00804
 15.07822 15.14163 15.28416 15.30160 16.53969 16.59910 16.69260 16.76615 17.05570 17.22640
 55.78522 286.55047
 == 495-th k-point (0.20729,0.62187,0.20729) occupation: 6==
 -23.85915 -1.46241 -0.67498 -0.05254 -0.00749 0.01260 0.51616 0.62154 0.72996 0.76185
 0.92642 1.25993 1.28604 1.40459 1.45449 1.45734 1.65438 1.74671 1.89623 1.93488
 1.98796 2.10309 2.18214 2.18572 2.29473 2.40120 2.52488 2.60957 2.68244 2.73421
 2.86124 2.94546 2.96528 3.47358 3.57049 3.65406 3.83369 3.85417 4.04488 4.60012
 4.78227 5.09501 5.17795 5.38034 5.50441 5.51853 5.83868 6.04744 6.18795 6.43345
 6.55238 6.56447 7.39329 8.02290 8.16762 8.27019 8.43339 8.45452 11.61564 11.62155
 11.62524 11.64050 11.64961 11.65441 11.66063 11.70309 11.71370 12.57881 14.85656 14.92073
 15.09703 15.14596 15.25225 15.32413 15.33735 16.43615 16.52514 16.68571 16.86845 16.93301
 17.24749 55.79946 286.56818
 == 496-th k-point (-0.41458,-0.20729,1.03645) occupation: 6==
 -23.85915 -1.46238 -0.67548 -0.05101 -0.00987 0.01813 0.49940 0.61839 0.73787 0.74636
 1.05955 1.10073 1.30753 1.38612 1.42559 1.46586 1.69346 1.77600 1.93189 1.97859
 2.00431 2.07680 2.16970 2.18235 2.34750 2.39166 2.46700 2.48195 2.66333 2.80490
 2.82642 2.87563 3.45109 3.50797 3.65844 3.72502 3.74590 4.02533 4.64524 4.73618
 5.01149 5.19922 5.29897 5.46327 5.47774 5.89433 6.05746 6.21283 6.36244 6.43185
 6.65805 7.39071 7.62597 8.03017 8.15924 8.23668 8.47224 11.61363 11.61834 11.61969
 11.62491 11.63730 11.65115 11.66386 11.66617 11.67184 12.31235 14.85399 14.90175 15.06043
 15.14764 15.20267 15.29852 15.32346 16.44643 16.53644 16.68336 16.86433 17.03506 17.16447
 55.76560 286.53604
 == 497-th k-point (-0.31093,-0.10364,0.93280) occupation: 6==
 -23.85915 -1.46217 -0.67205 -0.05226 -0.02471 0.00890 0.55867 0.60225 0.71006 0.75478
 0.95801 1.16378 1.33032 1.41683 1.49058 1.53626 1.70863 1.80032 1.88735 1.93203
 2.00845 2.07452 2.15281 2.24350 2.25654 2.35519 2.43363 2.56246 2.67915 2.77047
 2.80063 2.88677 3.33867 3.40299 3.51680 3.66743 3.76290 3.92606 4.66390 4.87945
 5.03954 5.22361 5.29616 5.43721 5.52690 5.70170 5.86194 6.07748 6.26989 6.38766
 6.82917 7.40437 7.51058 8.00245 8.11208 8.37440 8.51965 11.61635 11.62202 11.62745
 11.63591 11.63988 11.64668 11.65115 11.67992 11.74665 12.35900 14.86008 14.99266 15.06823
 15.16543 15.25075 15.29499 15.37448 16.24095 16.40455 16.57899 16.80425 16.85894 17.38218
 55.76129 286.52147
 == 498-th k-point (-0.20729,-0.00000,0.82916) occupation: 6==
 -23.85915 -1.46209 -0.67030 -0.06679 -0.01383 0.00249 0.58531 0.61642 0.68325 0.76716
 0.87005 1.29153 1.29193 1.44690 1.57285 1.62799 1.65041 1.76376 1.79534 1.86285
 2.00263 2.03656 2.14057 2.19998 2.23392 2.31808 2.35353 2.56539 2.67793 2.86441
 2.89617 3.08592 3.24896 3.36316 3.45240 3.78452 3.87020 4.19006 4.61410 4.63479
 5.01208 5.10514 5.23805 5.47352 5.47493 5.51304 5.96645 6.05343 6.24552 6.34653
 6.56044 7.52129 7.78943 7.80800 8.47076 8.53638 8.73249 11.61081 11.62200 11.62962
 11.63583 11.64544 11.64925 11.66528 11.66997 11.79694 12.58637 14.83877 14.86345 15.07317
 15.09764 15.23357 15.32804 15.33689 16.11086 16.53326 16.62940 16.67886 16.75771 17.33464
 55.69606 286.43579
 == 499-th k-point (-0.10364,0.10364,0.72551) occupation: 6==
 -23.85915 -1.46220 -0.67132 -0.06748 -0.00612 0.00268 0.56843 0.62739 0.69924 0.77918
 0.82668 1.28769 1.39961 1.42860 1.50643 1.59419 1.64836 1.70798 1.85554 1.88488
 1.95313 1.97436 2.15405 2.23323 2.32945 2.34180 2.41941 2.64043 2.72253 2.82715
 2.88087 3.03336 3.12092 3.48030 3.77766 3.85546 4.06274 4.62695 4.81914 4.85214
 4.94653 5.00751 5.17172 5.21391 5.78734 5.83606 5.86027 6.22821 6.30833 6.34495
 7.54059 7.67237 7.90184 8.00857 8.28899 8.41806 11.60200 11.61399 11.62297 11.63887
 11.64577 11.64751 11.64863 11.67788 11.73528 12.91669 14.86559 14.95334 14.95453 15.03679
 15.04464 15.18796 15.19308 16.29335 16.33093 16.57491 16.68581 16.72932 16.91858 55.39392
 286.05616
 == 500-th k-point (0.00000,0.20729,0.62187) occupation: 6==
 -23.85915 -1.46243 -0.67447 -0.05336 -0.00765 0.00908 0.53551 0.62900 0.71580 0.76962
 0.87889 1.23891 1.36187 1.43319 1.43514 1.55504 1.61375 1.70185 1.81374 1.86704
 1.99095 2.10260 2.13633 2.25452 2.32120 2.40332 2.46991 2.63095 2.84198 2.86946
 2.87582 3.06710 3.24817 3.52065 3.78492 3.78736 3.91031 4.58616 4.76786 4.91251
 4.93515 5.05215 5.12634 5.27340 5.91197 6.02357 6.10519 6.23419 6.36415 6.41674
 7.48743 7.49679 7.53871 8.13884 8.16516 8.39204 11.60799 11.62164 11.63016 11.63363
 11.63891 11.64577 11.65561 11.66465 11.70211 12.40305 14.84494 14.91477 15.00439 15.02029
 15.06702 15.11069 15.20925 16.44890 16.47524 16.65878 16.72107 16.83181 17.05021 55.59798
 286.31666
 == 501-th k-point (0.10364,0.31093,0.51822) occupation: 6==
 -23.85915 -1.46264 -0.67783 -0.04314 -0.00558 0.02067 0.49160 0.62635 0.74235 0.75846
 0.98850 1.16101 1.26108 1.38944 1.41567 1.50809 1.62621 1.79050 1.82331 1.88363
 1.99121 2.04411 2.18425 2.30932 2.36030 2.44582 2.51222 2.68855 2.78236 2.84377
 2.85222 2.90353 3.29796 3.54207 3.65717 3.81805 3.90177 4.10430 4.63752 4.73269
 4.93022 5.07835 5.17900 5.43963 5.49750 6.08009 6.11983 6.22794 6.34896 6.42466
 6.66528 7.41924 7.55614 7.99010 8.23363 8.42984 8.52315 11.60782 11.61315 11.62015
 11.62948 11.64068 11.64999 11.65389 11.67312 11.70484 12.19790 14.85936 14.90036 15.00804
 15.07822 15.14163 15.28416 15.30160 16.53969 16.59910 16.69260 16.76615 17.05570 17.22640
 55.78522 286.55047
 == 502-th k-point (0.20729,0.41458,0.41458) occupation: 6==
 -23.85915 -1.46272 -0.67949 -0.04998 0.01090 0.02728 0.45746 0.63952 0.74526 0.74750
 1.11949 1.14455 1.15218 1.36928 1.41027 1.45963 1.64102 1.82304 1.85646 1.86286
 1.94402 1.99980 2.26150 2.31692 2.36348 2.49447 2.49717 2.67967 2.79027 2.81302
 2.81617 2.87938 2.93615 3.54329 3.64269 3.66485 3.86020 3.87648 4.20944 4.47082
 4.75591 5.02963 5.12250 5.40076 5.48619 5.57393 6.17185 6.17608 6.20900 6.50203
 6.78630 6.82648 7.36860 7.74534 7.91763 8.23919 8.47129 8.56667 11.61034 11.61467
 11.62048 11.62638 11.62742 11.66118 11.66733 11.67745 11.70553 12.67667 14.77854 14.91431
 15.06601 15.10665 15.26465 15.29548 15.36845 16.61902 16.65085 16.69187 16.89754 17.12512
 17.57287 56.05937 286.88846
 == 503-th k-point (0.31093,0.51822,0.31093) occupation: 6==
 -23.85915 -1.46261 -0.67853 -0.05454 0.01389 0.02307 0.45920 0.64053 0.73987 0.74323
 1.06726 1.19712 1.21177 1.35002 1.41943 1.42492 1.69947 1.71006 1.88972 1.95411
 1.97506 2.03212 2.18571 2.29070 2.36934 2.37989 2.52647 2.68792 2.71067 2.75821
 2.86981 2.87514 2.95142 3.55916 3.69989 3.71754 3.79107 3.86074 4.19059 4.44119
 4.76017 5.04503 5.12162 5.41483 5.51294 5.51821 6.13897 6.16732 6.22834 6.64278
 6.68186 6.79406 7.37162 7.79037 8.00139 8.11380 8.44371 8.48036 11.61523 11.61537
 11.62385 11.62861 11.63729 11.65949 11.66234 11.66953 11.70840 12.75475 14.76540 14.91707
 15.07712 15.11192 15.26768 15.32084 15.34002 16.60050 16.64610 16.69079 17.03585 17.04184
 17.64833 56.14623 286.99742
 == 504-th k-point (-0.31093,-0.31093,1.14009) occupation: 6==
 -23.85915 -1.46261 -0.67853 -0.05454 0.01389 0.02307 0.45920 0.64053 0.73987 0.74323
 1.06726 1.19712 1.21177 1.35002 1.41943 1.42492 1.69947 1.71006 1.88972 1.95411
 1.97506 2.03212 2.18571 2.29070 2.36934 2.37989 2.52647 2.68792 2.71067 2.75821
 2.86981 2.87514 2.95142 3.55916 3.69989 3.71754 3.79107 3.86074 4.19059 4.44119
 4.76017 5.04503 5.12162 5.41483 5.51294 5.51821 6.13897 6.16732 6.22834 6.64278
 6.68186 6.79406 7.37162 7.79037 8.00139 8.11380 8.44371 8.48036 11.61523 11.61537
 11.62385 11.62861 11.63729 11.65949 11.66234 11.66953 11.70840 12.75475 14.76540 14.91707
 15.07712 15.11192 15.26768 15.32084 15.34002 16.60050 16.64610 16.69079 17.03585 17.04184
 17.64833 56.14623 286.99742
 == 505-th k-point (-0.20729,-0.20729,1.03645) occupation: 6==
 -23.85915 -1.46241 -0.67498 -0.05254 -0.00749 0.01260 0.51616 0.62154 0.72996 0.76185
 0.92642 1.25993 1.28604 1.40459 1.45449 1.45734 1.65438 1.74671 1.89623 1.93488
 1.98796 2.10309 2.18214 2.18572 2.29473 2.40120 2.52488 2.60957 2.68244 2.73421
 2.86124 2.94546 2.96528 3.47358 3.57049 3.65406 3.83369 3.85417 4.04488 4.60012
 4.78227 5.09501 5.17795 5.38034 5.50441 5.51853 5.83868 6.04744 6.18795 6.43345
 6.55238 6.56447 7.39329 8.02290 8.16762 8.27019 8.43339 8.45452 11.61564 11.62155
 11.62524 11.64050 11.64961 11.65441 11.66063 11.70309 11.71370 12.57881 14.85656 14.92073
 15.09703 15.14596 15.25225 15.32413 15.33735 16.43615 16.52514 16.68571 16.86845 16.93301
 17.24749 55.79946 286.56818
 == 506-th k-point (-0.10364,-0.10364,0.93280) occupation: 6==
 -23.85915 -1.46220 -0.67132 -0.06748 -0.00612 0.00268 0.56843 0.62739 0.69924 0.77918
 0.82668 1.28769 1.39961 1.42860 1.50643 1.59420 1.64837 1.70801 1.85555 1.88489
 1.95315 1.97449 2.15416 2.23325 2.32965 2.34179 2.41984 2.64046 2.72254 2.82775
 2.88088 3.03455 3.12107 3.48034 3.77806 3.85541 4.06303 4.62698 4.81919 4.85215
 4.94662 5.00757 5.17178 5.21393 5.78734 5.83617 5.86026 6.22838 6.30832 6.34496
 7.54059 7.67258 7.90202 8.00873 8.28911 8.41808 11.60200 11.61399 11.62297 11.63888
 11.64577 11.64751 11.64864 11.67788 11.73529 12.91675 14.86560 14.95335 14.95453 15.03679
 15.04465 15.18796 15.19309 16.29335 16.33093 16.57491 16.68584 16.72932 16.91864 55.39393
 286.05616
 == 507-th k-point (0.00000,-0.00000,0.82916) occupation: 6==
 -23.85915 -1.46211 -0.66978 -0.07650 -0.00127 -0.00127 0.58433 0.64368 0.68359 0.78592
 0.78592 1.27691 1.45561 1.51280 1.63274 1.63274 1.65761 1.67202 1.67207 1.92277
 1.92277 2.04031 2.08182 2.20244 2.20249 2.31836 2.31941 2.66919 2.73779 2.83991
 2.84099 2.90531 3.11679 3.47631 3.90680 3.90694 4.16988 4.81152 4.86219 5.03556
 5.03587 5.10435 5.34964 5.34964 5.57170 5.57177 5.71448 6.13674 6.30291 6.30428
 7.55889 8.08358 8.13970 8.14016 8.68474 8.68493 11.59613 11.59757 11.59757 11.61832
 11.64637 11.64682 11.64682 11.68309 11.74451 13.31644 14.93267 14.96110 15.04527 15.04531
 15.10947 15.38372 15.38374 16.02591 16.02591 16.53746 16.58473 16.71483 16.82459 55.28841
 285.91662
 == 508-th k-point (0.10364,0.10364,0.72551) occupation: 6==
 -23.85915 -1.46220 -0.67132 -0.06748 -0.00612 0.00268 0.56843 0.62739 0.69924 0.77918
 0.82668 1.28769 1.39961 1.42860 1.50643 1.59420 1.64837 1.70801 1.85555 1.88489
 1.95315 1.97449 2.15416 2.23325 2.32965 2.34179 2.41984 2.64046 2.72254 2.82775
 2.88088 3.03455 3.12107 3.48034 3.77806 3.85541 4.06303 4.62698 4.81919 4.85215
 4.94662 5.00757 5.17178 5.21393 5.78734 5.83617 5.86026 6.22838 6.30832 6.34496
 7.54059 7.67258 7.90202 8.00873 8.28911 8.41808 11.60200 11.61399 11.62297 11.63888
 11.64577 11.64751 11.64864 11.67788 11.73529 12.91675 14.86560 14.95335 14.95453 15.03679
 15.04465 15.18796 15.19309 16.29335 16.33093 16.57491 16.68584 16.72932 16.91864 55.39393
 286.05616
 == 509-th k-point (0.20729,0.20729,0.62187) occupation: 6==
 -23.85915 -1.46241 -0.67498 -0.05254 -0.00749 0.01260 0.51616 0.62154 0.72996 0.76185
 0.92642 1.25993 1.28604 1.40459 1.45449 1.45734 1.65438 1.74671 1.89623 1.93488
 1.98796 2.10309 2.18214 2.18572 2.29473 2.40120 2.52488 2.60957 2.68244 2.73421
 2.86124 2.94546 2.96528 3.47358 3.57049 3.65406 3.83369 3.85417 4.04488 4.60012
 4.78227 5.09501 5.17795 5.38034 5.50441 5.51853 5.83868 6.04744 6.18795 6.43345
 6.55238 6.56447 7.39329 8.02290 8.16762 8.27019 8.43339 8.45452 11.61564 11.62155
 11.62524 11.64050 11.64961 11.65441 11.66063 11.70309 11.71370 12.57881 14.85656 14.92073
 15.09703 15.14596 15.25225 15.32413 15.33735 16.43615 16.52514 16.68571 16.86845 16.93301
 17.24749 55.79946 286.56818
 == 510-th k-point (0.31093,0.31093,0.51822) occupation: 6==
 -23.85915 -1.46261 -0.67853 -0.05454 0.01389 0.02307 0.45920 0.64053 0.73987 0.74323
 1.06726 1.19712 1.21177 1.35002 1.41943 1.42492 1.69947 1.71006 1.88972 1.95411
 1.97506 2.03212 2.18571 2.29070 2.36934 2.37989 2.52647 2.68792 2.71067 2.75821
 2.86981 2.87514 2.95142 3.55916 3.69989 3.71754 3.79107 3.86074 4.19059 4.44119
 4.76017 5.04503 5.12162 5.41483 5.51294 5.51821 6.13897 6.16732 6.22834 6.64278
 6.68186 6.79406 7.37162 7.79037 8.00139 8.11380 8.44371 8.48036 11.61523 11.61537
 11.62385 11.62861 11.63729 11.65949 11.66234 11.66953 11.70840 12.75475 14.76540 14.91707
 15.07712 15.11192 15.26768 15.32084 15.34002 16.60050 16.64610 16.69079 17.03585 17.04184
 17.64833 56.14623 286.99742
 == 511-th k-point (0.41458,0.41458,0.41458) occupation: 6==
 -23.85915 -1.46270 -0.67998 -0.05803 0.02758 0.02758 0.43490 0.65598 0.73506 0.73506
 1.16685 1.18718 1.18718 1.27743 1.41280 1.41280 1.72351 1.72351 1.80717 2.00632
 2.00632 2.01177 2.09294 2.31878 2.31878 2.49245 2.70234 2.79723 2.79723 2.80222
 2.80222 2.90431 2.96772 3.64804 3.64804 3.74258 3.74258 3.80086 4.18336 4.37035
 4.76638 5.23939 5.23939 5.50141 5.50141 5.60654 6.11608 6.11608 6.15863 6.55109
 6.55109 6.98183 6.98183 7.19436 7.66212 7.68988 8.21388 8.21388 11.60207 11.60207
 11.61917 11.62572 11.62572 11.66133 11.66133 11.67118 11.74466 13.18850 14.72737 14.92121
 15.17604 15.17604 15.31092 15.31092 15.45942 16.58932 16.58932 16.67063 16.94727 16.94727
 18.06772 56.44455 287.35662
 ---------------------------------------------------------------------------
 VBM is at 219-th k-point with 0.98251 eV
 CBM is at 219-th k-point with 10.17367 eV
 Band gap is 9.19116 eV


           Ground-State Mulliken Net Atomic Charges

      Atom                 Charge (a.u.)          Spin (a.u.)
   --------------------------------------------------------
      1 Li               (0.112510,-0.000000)    (0.000000,0.000000)
      2  F               (-0.112510,0.000000)    (0.000000,0.000000)
   --------------------------------------------------------
  Sum of atomic charges =     (-0.000000,-0.000000)
  Sum of spin   charges =       (0.000000,0.000000)



 Total job time:  640.90 s.
 Tue Sep  9 02:29:56 2025


        *************************************************************
        *                                                           *
        *  Thank you very much for using QCPBC. Have a nice day.    *
        *                                                           *
        *************************************************************

Running job 1 of 1
