                  Welcome to Q-Chem
           with Periodic Boundary Condition
     A Quantum Leap Into The Future Of Chemistry

 Adam Rettig, Xintian Feng, Meng-Fu Chen, Hieu Dinh, Stephen Quiton,
 Anton Ni, Paul J. Robinson, Jinghong Zhang, Joonho Lee

Contributors to earlier versions of Q-Chem not listed above:
 Evgeny Epifanovsky, Leo Cunha, Jerome F. Gonthier, Kuan-Yu Liu
 Input file: /n/netscratch/joonholee_lab/Lab/hieudinh//lif_solve_def2qzvp_omega_0.3_666.scratch20250909004224/lif_solve_def2qzvp_omega_0.3_666.0
 Scratch folder: /n/netscratch/joonholee_lab/Lab/hieudinh//lif_solve_def2qzvp_omega_0.3_666.scratch20250909004224
 Auxillary files located at: /n/holylabs/LABS/joonholee_lab/Lab/qchem_base/qcaux
 Q-Chem begins on Tue Sep  9 00:42:24 2025

 -------------------------------------------------------------
 User input:
 -------------------------------------------------------------
 $lattice
 3
 0.000000 2.005000 2.005000
 2.005000 0.000000 2.005000
 2.005000 2.005000 0.000000
 $end
 
 $unitcell
 ABSOLUTE
 0 1
 Li 0.000000 0.000000 0.000000
 F  2.005000 0.000000 0.000000
 $end
 
 $rem
 jobtype = sp
 method = pbe
 scf_convergence = 5
 scf_guess = autosad
 scf_algorithm = gdm
 basis = def2-qzvp
 aux_basis = gen
 input_bohr = false
 symmetry false
 is_basis_uctr true
 rsdf_print_level 1
 
 mp_mesh = [6,6,6]
 
 integral_direct true
 bvk_cgto true
 
 thresh 14
 mem_total 100000
 threads 32
 
 MAX_SCF_CYCLES 400
 madelung = false
 omega 0.3
 do_rij_bigmem true
 automate_g true
 print_level 10
 grid_type_xc 1
 
 thresh_1e2c_sp 1e-14
 thresh_2e3c_bra_ket_sep 1e-10
 thresh_g 1e-12
 $end
 
 $aux_basis
 Li     0
 S   7   1.00
     498.3689730              0.0207908
     162.9342738              0.0542177
      57.3246735              0.1776783
      21.6427314              0.4181150
       8.7345375              0.6535245
       3.7491039              0.5492618
       1.7006754              0.1701425
 S   1   1.00
       0.8090859             -0.0097548
 S   1   1.00
       0.4000933             -0.0050152
 S   1   1.00
       0.2035793              0.0232200
 !S   1   1.00
 !      0.1054201              0.0134535
 !S   1   1.00
 !      0.0549139              0.0006647
 P   2   1.00
      10.7024696              0.0072923
       3.6551543              0.0060940
 P   1   1.00
       1.2464013              0.0172529
 P   1   1.00
       0.4246282             -0.0160026
 P   1   1.00
       0.1446192             -0.0195111
 D   2   1.00
       1.1510647             -0.0014314
       0.6019112              0.0038969
 D   1   1.00
       0.3109573              0.0024683
 D   1   1.00
       0.1600032              0.0036451
 F   2   1.00
       0.5967918              0.0010494
       0.1790687              0.0006468
 G   1   1.00
       1.0460130             -0.0001971
 ****
 F     0
 S   7   1.00
    3514.9201549              0.1805835
    1231.2458815              0.3676084
     454.1367336              1.2707881
     175.8376258              2.8274164
      71.2081775              4.3588226
      30.0316883              2.7180994
      13.1259023             -0.0804726
 S   1   1.00
       5.9126861             -0.0023370
 S   1   1.00
       2.7284431              1.1236274
 S   1   1.00
       1.2813993              0.9999042
 S   1   1.00
       0.6082793              0.3119579
 S   1   1.00
       0.2897894              0.0312295
 P   2   1.00
      49.3740409             -0.0346332
      13.4874956             -0.0096069
 P   1   1.00
       3.9664900              0.0762067
 P   1   1.00
       1.2226629             -0.0103329
 P   1   1.00
       0.3830317              0.0018853
 D   2   1.00
      29.9719140             -0.0113316
       6.7860915             -0.0467639
 D   1   1.00
       1.8137313             -0.0167604
 D   1   1.00
       0.5157840             -0.0050777
 F   2   1.00
       2.8301877              1.0
       0.9155962              1.0
 G   1   1.00
       1.6097500             -0.0005411
 ****
 $end
 -------------------------------------------------------------
 Running PBC job

 Requested Exchange Correlation Functionals: 
  DFT Exchange:  1.00000 pbe_x
  DFT Correlation:  1.00000 pbe_c
 using 32 threads for computing.
 ---------------------------------------------------------------
      Coordinates of Atoms in Central Unit Cell (Angstroms)
    I     Atom         X            Y            Z
 ---------------------------------------------------------------
    1      Li      0.000000     0.000000     0.000000
    2       F      2.005000     0.000000     0.000000
 ---------------------------------------------------------------
 --------------------------------------------------
              Lattice Vectors (Angstroms)
              X            Y            Z
 --------------------------------------------------
   X       0.000000     2.005000     2.005000
   Y       2.005000     0.000000     2.005000
   Z       2.005000     2.005000     0.000000
 --------------------------------------------------
 --------------------------------------------------
       Reciprocal Lattice Vectors (Angstroms^-1)
              X            Y            Z
 --------------------------------------------------
   X      -1.566879     1.566879     1.566879
   Y       1.566879    -1.566879     1.566879
   Z       1.566879     1.566879    -1.566879
 --------------------------------------------------

 Single point calculation requested

 Hamiltonian contributions:
 List of terms in Hamiltonian: kpts_nn, kpts_kinetic, kpts_vnuc_df, kpts_xc, kpts_rij_bigmem

 K-Points calculation started.

 Basis set information about using solid harmonic (1) or Cartesian (0):
  li : D(1) D(1) F(1) 
  f : D(1) D(1) D(1) F(1) F(1) G(1) 

 Basis set information about using solid harmonic (1) or Cartesian (0):
  li : D(1) D(1) D(1) F(1) G(1) 
  f : D(1) D(1) D(1) F(1) G(1) 

 There are 92 basis functions in the central unit cell.
 Print atomic basis of atoms in the central unit cell:
 -------------------------------------------------------------
2 53 53 30

  0.00000000000000e+00  0.00000000000000e+00  0.00000000000000e+00
  3.78890087987467e+00  0.00000000000000e+00  0.00000000000000e+00

  1.48539770850000e+04
  2.22522364770000e+03
  5.04887390080000e+02
  1.42458475480000e+02
  4.63155995800000e+01
  1.66553354740000e+01
  6.43311861990000e+00
  2.60270438580000e+00
  1.08972454050000e+00
  4.42365959710000e+00
  1.23563949900000e+00
  4.60674706020000e-01
  9.66171669550000e-02
  4.59154522960000e-02
  2.11400487300000e-02
  3.26051092060000e+00
  6.50030431150000e-01
  1.69416710730000e-01
  3.32700000000000e+00
  5.57323437670000e-02
  2.04899592410000e-02
  2.30000000000000e-01
  7.57000000000000e-02
  1.35000000000000e-01
  1.32535973450000e+05
  1.97581125880000e+04
  4.48519969470000e+03
  1.27381510200000e+03
  4.18938312360000e+02
  1.52557219850000e+02
  5.98215248230000e+01
  2.48190769320000e+01
  1.00744466730000e+02
  3.01037282900000e+01
  1.08142832720000e+01
  4.81728867700000e+00
  1.65593342130000e+00
  6.48935195820000e-01
  2.47781045450000e-01
  2.40966541140000e+02
  5.70206997810000e+01
  1.81269521200000e+01
  6.64574046210000e+00
  2.63757228920000e+00
  1.06382172000000e+00
  4.19325627500000e-01
  1.57475882990000e-01
  5.01400000000000e+00
  1.72500000000000e+00
  5.86000000000000e-01
  3.56200000000000e+00
  1.14800000000000e+00
  2.37600000000000e+00

  4.67593013229757e-02
  8.76137465723478e-02
  1.51821576860780e-01
  2.46527731442678e-01
  3.74140539449148e-01
  5.14323804423000e-01
  6.00677517411378e-01
  5.44460466941871e-01
  3.21097242154446e-01
  2.72734215356930e-01
  7.53702662810338e-01
  3.98525272814913e-01
  1.23509628755786e-01
  7.06934606713439e-02
  3.95129614058778e-02
  2.22230636644090e-01
  1.62952044217479e-01
  1.33842808684561e-01
  6.40480761295544e+00
  3.85988372286674e-02
  1.10501063034648e-02
  1.25728336426159e-01
  1.79815549832937e-02
  1.62631785032468e-02
  3.86107783813291e-01
  7.24648975903829e-01
  1.25045495963763e+00
  2.01518764389143e+00
  3.04056815166578e+00
  4.21268576129244e+00
  5.00944268647146e+00
  4.54693835849554e+00
  2.32503271092484e+00
  8.41440806306271e+00
  4.25019052011886e+00
  2.31745919743391e+00
  1.04038060130896e+00
  5.15301123337211e-01
  2.50300174847139e-01
  3.49166780573024e+00
  4.61886090108967e+00
  5.17964869303152e+00
  4.78626212475628e+00
  3.24578400123904e+00
  1.54001926672016e+00
  4.80982576947690e-01
  1.41402684040663e-01
  2.76523492268872e+01
  4.27356565232165e+00
  6.45996677345861e-01
  2.56605380682814e+01
  2.00827738540458e+00
  1.20230076986570e+01

0 0 0 0 1 1 1
0 0 
9 0

0 1 1 9 1 1 1
9 0 
2 0

0 2 2 11 1 1 1
11 0 
1 0

0 3 3 12 1 1 1
12 0 
1 0

0 4 4 13 1 1 1
13 0 
1 0

0 5 5 14 1 1 1
14 0 
1 0

0 6 6 15 1 3 3
15 1 
3 0

0 9 9 18 1 3 3
18 1 
1 0

0 12 12 19 1 3 3
19 1 
1 0

0 15 15 20 1 3 3
20 1 
1 0

0 18 18 21 1 5 6
21 2 
1 1

0 23 23 22 1 5 6
22 2 
1 1

0 28 28 23 1 7 10
23 3 
1 1

1 35 35 24 1 1 1
24 0 
8 0

1 36 36 32 1 1 1
32 0 
2 0

1 37 37 34 1 1 1
34 0 
1 0

1 38 38 35 1 1 1
35 0 
1 0

1 39 39 36 1 1 1
36 0 
1 0

1 40 40 37 1 1 1
37 0 
1 0

1 41 41 38 1 1 1
38 0 
1 0

1 42 42 39 1 3 3
39 1 
5 0

1 45 45 44 1 3 3
44 1 
1 0

1 48 48 45 1 3 3
45 1 
1 0

1 51 51 46 1 3 3
46 1 
1 0

1 54 54 47 1 5 6
47 2 
1 1

1 59 59 48 1 5 6
48 2 
1 1

1 64 64 49 1 5 6
49 2 
1 1

1 69 69 50 1 7 10
50 3 
1 1

1 76 76 51 1 7 10
51 3 
1 1

1 83 83 52 1 9 15
52 4 
1 1

 -------------------------------------------------------------
 Allocate 136872 B from available memory: 104857600000 B
 There are 15625 image cells after screening.
 There are 17628 image cells for CGTO evaluation after screening.
 Real-Space grid for FFT initialized based on kinetic energy cutoff (eV) = 500.0
 Real-Space grid for FFT: (8,8,8)
 There are 4913 real-space grid points.
 There are 27 batches of real-space grid points. 
 Size of each grid batch is around 128
 Grid for AFT initialized based on kinetic energy cutoff (eV) = 500.0
 Real-Space grid for AFT: (8,8,8)
 There are 4913 real-space grid points.

 There are 5912 atom-centered grid points.

 Spacegroup symmetry group: Fm-3m
 Reducing spacegroup symmetry to symmorphic group: F m -3 m
 Monkhorst-Pack mesh is [6,6,6]
 There are 216 k points.
kpoints in Bohr
-0.2763855758 -0.2763855758 -0.2763855758
-0.1381927879 -0.1381927879 -0.4145783636
-0.0000000000 0.0000000000 -0.5527711515
0.1381927879 0.1381927879 -0.6909639394
0.2763855758 0.2763855758 -0.8291567273
0.4145783636 0.4145783636 -0.9673495152
-0.1381927879 -0.4145783636 -0.1381927879
-0.0000000000 -0.2763855758 -0.2763855758
0.1381927879 -0.1381927879 -0.4145783636
0.2763855758 0.0000000000 -0.5527711515
0.4145783636 0.1381927879 -0.6909639394
0.5527711515 0.2763855758 -0.8291567273
-0.0000000000 -0.5527711515 -0.0000000000
0.1381927879 -0.4145783636 -0.1381927879
0.2763855758 -0.2763855758 -0.2763855758
0.4145783636 -0.1381927879 -0.4145783636
0.5527711515 0.0000000000 -0.5527711515
0.6909639394 0.1381927879 -0.6909639394
0.1381927879 -0.6909639394 0.1381927879
0.2763855758 -0.5527711515 -0.0000000000
0.4145783636 -0.4145783636 -0.1381927879
0.5527711515 -0.2763855758 -0.2763855758
0.6909639394 -0.1381927879 -0.4145783636
0.8291567273 0.0000000000 -0.5527711515
0.2763855758 -0.8291567273 0.2763855758
0.4145783636 -0.6909639394 0.1381927879
0.5527711515 -0.5527711515 -0.0000000000
0.6909639394 -0.4145783636 -0.1381927879
0.8291567273 -0.2763855758 -0.2763855758
0.9673495152 -0.1381927879 -0.4145783636
0.4145783636 -0.9673495152 0.4145783636
0.5527711515 -0.8291567273 0.2763855758
0.6909639394 -0.6909639394 0.1381927879
0.8291567273 -0.5527711515 -0.0000000000
0.9673495152 -0.4145783636 -0.1381927879
1.1055423031 -0.2763855758 -0.2763855758
-0.4145783636 -0.1381927879 -0.1381927879
-0.2763855758 0.0000000000 -0.2763855758
-0.1381927879 0.1381927879 -0.4145783636
-0.0000000000 0.2763855758 -0.5527711515
0.1381927879 0.4145783636 -0.6909639394
0.2763855758 0.5527711515 -0.8291567273
-0.2763855758 -0.2763855758 -0.0000000000
-0.1381927879 -0.1381927879 -0.1381927879
-0.0000000000 0.0000000000 -0.2763855758
0.1381927879 0.1381927879 -0.4145783636
0.2763855758 0.2763855758 -0.5527711515
0.4145783636 0.4145783636 -0.6909639394
-0.1381927879 -0.4145783636 0.1381927879
-0.0000000000 -0.2763855758 -0.0000000000
0.1381927879 -0.1381927879 -0.1381927879
0.2763855758 0.0000000000 -0.2763855758
0.4145783636 0.1381927879 -0.4145783636
0.5527711515 0.2763855758 -0.5527711515
0.0000000000 -0.5527711515 0.2763855758
0.1381927879 -0.4145783636 0.1381927879
0.2763855758 -0.2763855758 -0.0000000000
0.4145783636 -0.1381927879 -0.1381927879
0.5527711515 0.0000000000 -0.2763855758
0.6909639394 0.1381927879 -0.4145783636
0.1381927879 -0.6909639394 0.4145783636
0.2763855758 -0.5527711515 0.2763855758
0.4145783636 -0.4145783636 0.1381927879
0.5527711515 -0.2763855758 -0.0000000000
0.6909639394 -0.1381927879 -0.1381927879
0.8291567273 0.0000000000 -0.2763855758
0.2763855758 -0.8291567273 0.5527711515
0.4145783636 -0.6909639394 0.4145783636
0.5527711515 -0.5527711515 0.2763855758
0.6909639394 -0.4145783636 0.1381927879
0.8291567273 -0.2763855758 -0.0000000000
0.9673495152 -0.1381927879 -0.1381927879
-0.5527711515 0.0000000000 0.0000000000
-0.4145783636 0.1381927879 -0.1381927879
-0.2763855758 0.2763855758 -0.2763855758
-0.1381927879 0.4145783636 -0.4145783636
-0.0000000000 0.5527711515 -0.5527711515
0.1381927879 0.6909639394 -0.6909639394
-0.4145783636 -0.1381927879 0.1381927879
-0.2763855758 0.0000000000 0.0000000000
-0.1381927879 0.1381927879 -0.1381927879
-0.0000000000 0.2763855758 -0.2763855758
0.1381927879 0.4145783636 -0.4145783636
0.2763855758 0.5527711515 -0.5527711515
-0.2763855758 -0.2763855758 0.2763855758
-0.1381927879 -0.1381927879 0.1381927879
0.0000000000 0.0000000000 0.0000000000
0.1381927879 0.1381927879 -0.1381927879
0.2763855758 0.2763855758 -0.2763855758
0.4145783636 0.4145783636 -0.4145783636
-0.1381927879 -0.4145783636 0.4145783636
0.0000000000 -0.2763855758 0.2763855758
0.1381927879 -0.1381927879 0.1381927879
0.2763855758 -0.0000000000 0.0000000000
0.4145783636 0.1381927879 -0.1381927879
0.5527711515 0.2763855758 -0.2763855758
0.0000000000 -0.5527711515 0.5527711515
0.1381927879 -0.4145783636 0.4145783636
0.2763855758 -0.2763855758 0.2763855758
0.4145783636 -0.1381927879 0.1381927879
0.5527711515 -0.0000000000 0.0000000000
0.6909639394 0.1381927879 -0.1381927879
0.1381927879 -0.6909639394 0.6909639394
0.2763855758 -0.5527711515 0.5527711515
0.4145783636 -0.4145783636 0.4145783636
0.5527711515 -0.2763855758 0.2763855758
0.6909639394 -0.1381927879 0.1381927879
0.8291567273 -0.0000000000 0.0000000000
-0.6909639394 0.1381927879 0.1381927879
-0.5527711515 0.2763855758 0.0000000000
-0.4145783636 0.4145783636 -0.1381927879
-0.2763855758 0.5527711515 -0.2763855758
-0.1381927879 0.6909639394 -0.4145783636
-0.0000000000 0.8291567273 -0.5527711515
-0.5527711515 -0.0000000000 0.2763855758
-0.4145783636 0.1381927879 0.1381927879
-0.2763855758 0.2763855758 0.0000000000
-0.1381927879 0.4145783636 -0.1381927879
-0.0000000000 0.5527711515 -0.2763855758
0.1381927879 0.6909639394 -0.4145783636
-0.4145783636 -0.1381927879 0.4145783636
-0.2763855758 -0.0000000000 0.2763855758
-0.1381927879 0.1381927879 0.1381927879
0.0000000000 0.2763855758 0.0000000000
0.1381927879 0.4145783636 -0.1381927879
0.2763855758 0.5527711515 -0.2763855758
-0.2763855758 -0.2763855758 0.5527711515
-0.1381927879 -0.1381927879 0.4145783636
0.0000000000 -0.0000000000 0.2763855758
0.1381927879 0.1381927879 0.1381927879
0.2763855758 0.2763855758 0.0000000000
0.4145783636 0.4145783636 -0.1381927879
-0.1381927879 -0.4145783636 0.6909639394
0.0000000000 -0.2763855758 0.5527711515
0.1381927879 -0.1381927879 0.4145783636
0.2763855758 -0.0000000000 0.2763855758
0.4145783636 0.1381927879 0.1381927879
0.5527711515 0.2763855758 0.0000000000
0.0000000000 -0.5527711515 0.8291567273
0.1381927879 -0.4145783636 0.6909639394
0.2763855758 -0.2763855758 0.5527711515
0.4145783636 -0.1381927879 0.4145783636
0.5527711515 -0.0000000000 0.2763855758
0.6909639394 0.1381927879 0.1381927879
-0.8291567273 0.2763855758 0.2763855758
-0.6909639394 0.4145783636 0.1381927879
-0.5527711515 0.5527711515 0.0000000000
-0.4145783636 0.6909639394 -0.1381927879
-0.2763855758 0.8291567273 -0.2763855758
-0.1381927879 0.9673495152 -0.4145783636
-0.6909639394 0.1381927879 0.4145783636
-0.5527711515 0.2763855758 0.2763855758
-0.4145783636 0.4145783636 0.1381927879
-0.2763855758 0.5527711515 0.0000000000
-0.1381927879 0.6909639394 -0.1381927879
0.0000000000 0.8291567273 -0.2763855758
-0.5527711515 -0.0000000000 0.5527711515
-0.4145783636 0.1381927879 0.4145783636
-0.2763855758 0.2763855758 0.2763855758
-0.1381927879 0.4145783636 0.1381927879
0.0000000000 0.5527711515 0.0000000000
0.1381927879 0.6909639394 -0.1381927879
-0.4145783636 -0.1381927879 0.6909639394
-0.2763855758 -0.0000000000 0.5527711515
-0.1381927879 0.1381927879 0.4145783636
0.0000000000 0.2763855758 0.2763855758
0.1381927879 0.4145783636 0.1381927879
0.2763855758 0.5527711515 0.0000000000
-0.2763855758 -0.2763855758 0.8291567273
-0.1381927879 -0.1381927879 0.6909639394
0.0000000000 -0.0000000000 0.5527711515
0.1381927879 0.1381927879 0.4145783636
0.2763855758 0.2763855758 0.2763855758
0.4145783636 0.4145783636 0.1381927879
-0.1381927879 -0.4145783636 0.9673495152
0.0000000000 -0.2763855758 0.8291567273
0.1381927879 -0.1381927879 0.6909639394
0.2763855758 -0.0000000000 0.5527711515
0.4145783636 0.1381927879 0.4145783636
0.5527711515 0.2763855758 0.2763855758
-0.9673495152 0.4145783636 0.4145783636
-0.8291567273 0.5527711515 0.2763855758
-0.6909639394 0.6909639394 0.1381927879
-0.5527711515 0.8291567273 0.0000000000
-0.4145783636 0.9673495152 -0.1381927879
-0.2763855758 1.1055423031 -0.2763855758
-0.8291567273 0.2763855758 0.5527711515
-0.6909639394 0.4145783636 0.4145783636
-0.5527711515 0.5527711515 0.2763855758
-0.4145783636 0.6909639394 0.1381927879
-0.2763855758 0.8291567273 0.0000000000
-0.1381927879 0.9673495152 -0.1381927879
-0.6909639394 0.1381927879 0.6909639394
-0.5527711515 0.2763855758 0.5527711515
-0.4145783636 0.4145783636 0.4145783636
-0.2763855758 0.5527711515 0.2763855758
-0.1381927879 0.6909639394 0.1381927879
0.0000000000 0.8291567273 0.0000000000
-0.5527711515 -0.0000000000 0.8291567273
-0.4145783636 0.1381927879 0.6909639394
-0.2763855758 0.2763855758 0.5527711515
-0.1381927879 0.4145783636 0.4145783636
0.0000000000 0.5527711515 0.2763855758
0.1381927879 0.6909639394 0.1381927879
-0.4145783636 -0.1381927879 0.9673495152
-0.2763855758 -0.0000000000 0.8291567273
-0.1381927879 0.1381927879 0.6909639394
0.0000000000 0.2763855758 0.5527711515
0.1381927879 0.4145783636 0.4145783636
0.2763855758 0.5527711515 0.2763855758
-0.2763855758 -0.2763855758 1.1055423031
-0.1381927879 -0.1381927879 0.9673495152
0.0000000000 -0.0000000000 0.8291567273
0.1381927879 0.1381927879 0.6909639394
0.2763855758 0.2763855758 0.5527711515
0.4145783636 0.4145783636 0.4145783636
 There are 6 alpha and 6 beta electrons
 Start computing overlap matrix
 Allocate 29251584 B from available memory: 104857463136 B
 Time for computing overlap matrix: 30.6430000000 s
 ====== Initialize compute kernels for all-electron RI-J (kpts) ====== 
 ========================================================== 
 Range-separated parameter omega        = 0.299999999999999989
 Threshold for 1e2c shellpair           = 0.000000000000010000
 Threshold for 2e2c SR integral         = 0.000000000000000001
 Threshold for 2e3c SR integral         = 0.000000000100000000
 Threshold for AFT G-space screening is = 0.000000000001000000
 The exponent cutoff for C/D classification (omega2 / 2) is  = 0.044999999999999998
 ========================================================== 
 === Post process the basis set for RI calculation (exp_cutoff = 0.044999999999999998 ) === 
nshells_b1 before uncontraction = 30
nshells_b1 after uncontraction = 30
nshells_baux before uncontraction = 28
nshells_baux after uncontraction = 28
===============================================
nbsf total   = 92
nbsf compact = 88
nbsf diffuse = 4
naux total   = 96
naux compact = 96
naux diffuse = 0
nshells_bnuc = 2

 Number of unique atoms is 2
 Unique atom #0 (li) has 11 shells.
 Unique atom #1 (f) has 17 shells.

Shell 0 to 10 belongs to atom li
Shell 11 to 27 belongs to atom f

 Number of unique atoms is 2
 Unique atom #0 (li) has 2 shells.
 Unique atom #1 (f) has 0 shells.

Shell 0 to 1 belongs to atom li

 Number of unique atom is 2
 Unique atom #0 (li) has 13 auxiliary shells.
 Unique atom #1 (f) has 15 auxiliary shells.

Auxiliary Shell 0 to 12 belongs to atom li
Auxiliary Shell 13 to 27 belongs to atom f

================= Automatically determine grid size for reciprocal space summation =================
 Range-separated parameter = 0.30000000000000 and G-space screening threshold = 0.00000000000100
The number of grid points along each axis dimension is (3, 3, 3)
Total number of grid points = 343

Use nonortho shellpair for diffuse density
======== Initializing relevant kernel for RIJ (DD type) ========
There are 3 shellpairs in the reference unit cell
There are 26589 images and we expect to have 79767 in total
There are 13095 shellpairs in the lattice sum after screening
======== Initializing relevant kernel for RIJ (CD type) ========
There are 56 shellpairs in the reference unit cell
There are 16651 images and we expect to have 932456 in total
There are 118476 shellpairs in the lattice sum after screening
****** AFT -> SR ******
Maximum bra distance cutoff is 42.000000000000
Maximum bra ket distance cutoff is 36.979730101834
Maximum bra ket screening distance is 32.906250000000
Number of auxiliary image is 4797
There are 56 shellpairs in the reference unit cell
There are 4797 images and we expect to have 268632 in total
There are 118476 shellpairs in the lattice sum after screening
Available memory per thread for 2e3c calculation is 3.275881611000Gb
Finish initializing 2e3c SR with the lattice sum!
=================================================
======== Initializing relevant kernel for RIJ (CC type) ========
There are 403 shellpairs in the reference unit cell
There are 8175 images and we expect to have 3294525 in total
There are 69291 shellpairs in the lattice sum after screening
****** AFT -> SR ******
Maximum bra distance cutoff is 34.000000000000
Maximum bra ket distance cutoff is 40.772076789667
Maximum bra ket screening distance is 30.437500000000
Number of auxiliary image is 4389
There are 403 shellpairs in the reference unit cell
There are 2731 images and we expect to have 1100593 in total
There are 69291 shellpairs in the lattice sum after screening
Available memory per thread for 2e3c calculation is 3.275881611000Gb
Finish initializing 2e3c SR with the lattice sum!
=================================================
======== Initializing the SR component for Vnuc (CD type) ========
Maximum bra distance cutoff is 42.000000000000
Maximum bra ket distance cutoff is 30.634253998064
Maximum bra ket screening distance is 26.529449973802
Number of auxiliary image is 4797
There are 56 shellpairs in the reference unit cell
There are 4797 images and we expect to have 268632 in total
There are 118476 shellpairs in the lattice sum after screening
Available memory per thread for 2e3c calculation is 3.275881611000Gb
Finish initializing 2e3c SR with the lattice sum!
=================================================
======== Initialize the SR component for Vnuc (CC type) ========
Maximum bra distance cutoff is 34.000000000000
Maximum bra ket distance cutoff is 34.296485010202
Maximum bra ket screening distance is 23.902388373585
Number of auxiliary image is 2731
There are 403 shellpairs in the reference unit cell
There are 2731 images and we expect to have 1100593 in total
There are 69291 shellpairs in the lattice sum after screening
Available memory per thread for 2e3c calculation is 3.275881611000Gb
Finish initializing 2e3c SR with the lattice sum!
=================================================
 Aufbau occupation scheme, occupation determined by eigenvalue
 == 0-th k-point nmo = 83 (-0.27639,-0.27639,-0.27639) ==
 == 1-th k-point nmo = 82 (-0.13819,-0.13819,-0.41458) ==
 == 2-th k-point nmo = 81 (-0.00000,0.00000,-0.55277) ==
 == 3-th k-point nmo = 82 (0.13819,0.13819,-0.69096) ==
 == 4-th k-point nmo = 83 (0.27639,0.27639,-0.82916) ==
 == 5-th k-point nmo = 83 (0.41458,0.41458,-0.96735) ==
 == 6-th k-point nmo = 82 (-0.13819,-0.41458,-0.13819) ==
 == 7-th k-point nmo = 81 (-0.00000,-0.27639,-0.27639) ==
 == 8-th k-point nmo = 82 (0.13819,-0.13819,-0.41458) ==
 == 9-th k-point nmo = 82 (0.27639,0.00000,-0.55277) ==
 == 10-th k-point nmo = 82 (0.41458,0.13819,-0.69096) ==
 == 11-th k-point nmo = 82 (0.55277,0.27639,-0.82916) ==
 == 12-th k-point nmo = 81 (-0.00000,-0.55277,-0.00000) ==
 == 13-th k-point nmo = 82 (0.13819,-0.41458,-0.13819) ==
 == 14-th k-point nmo = 83 (0.27639,-0.27639,-0.27639) ==
 == 15-th k-point nmo = 83 (0.41458,-0.13819,-0.41458) ==
 == 16-th k-point nmo = 83 (0.55277,0.00000,-0.55277) ==
 == 17-th k-point nmo = 82 (0.69096,0.13819,-0.69096) ==
 == 18-th k-point nmo = 82 (0.13819,-0.69096,0.13819) ==
 == 19-th k-point nmo = 82 (0.27639,-0.55277,-0.00000) ==
 == 20-th k-point nmo = 83 (0.41458,-0.41458,-0.13819) ==
 == 21-th k-point nmo = 83 (0.55277,-0.27639,-0.27639) ==
 == 22-th k-point nmo = 82 (0.69096,-0.13819,-0.41458) ==
 == 23-th k-point nmo = 82 (0.82916,0.00000,-0.55277) ==
 == 24-th k-point nmo = 83 (0.27639,-0.82916,0.27639) ==
 == 25-th k-point nmo = 82 (0.41458,-0.69096,0.13819) ==
 == 26-th k-point nmo = 83 (0.55277,-0.55277,-0.00000) ==
 == 27-th k-point nmo = 82 (0.69096,-0.41458,-0.13819) ==
 == 28-th k-point nmo = 83 (0.82916,-0.27639,-0.27639) ==
 == 29-th k-point nmo = 82 (0.96735,-0.13819,-0.41458) ==
 == 30-th k-point nmo = 83 (0.41458,-0.96735,0.41458) ==
 == 31-th k-point nmo = 82 (0.55277,-0.82916,0.27639) ==
 == 32-th k-point nmo = 82 (0.69096,-0.69096,0.13819) ==
 == 33-th k-point nmo = 82 (0.82916,-0.55277,-0.00000) ==
 == 34-th k-point nmo = 82 (0.96735,-0.41458,-0.13819) ==
 == 35-th k-point nmo = 83 (1.10554,-0.27639,-0.27639) ==
 == 36-th k-point nmo = 82 (-0.41458,-0.13819,-0.13819) ==
 == 37-th k-point nmo = 81 (-0.27639,0.00000,-0.27639) ==
 == 38-th k-point nmo = 82 (-0.13819,0.13819,-0.41458) ==
 == 39-th k-point nmo = 82 (-0.00000,0.27639,-0.55277) ==
 == 40-th k-point nmo = 82 (0.13819,0.41458,-0.69096) ==
 == 41-th k-point nmo = 82 (0.27639,0.55277,-0.82916) ==
 == 42-th k-point nmo = 81 (-0.27639,-0.27639,-0.00000) ==
 == 43-th k-point nmo = 82 (-0.13819,-0.13819,-0.13819) ==
 == 44-th k-point nmo = 81 (-0.00000,0.00000,-0.27639) ==
 == 45-th k-point nmo = 82 (0.13819,0.13819,-0.41458) ==
 == 46-th k-point nmo = 83 (0.27639,0.27639,-0.55277) ==
 == 47-th k-point nmo = 83 (0.41458,0.41458,-0.69096) ==
 == 48-th k-point nmo = 82 (-0.13819,-0.41458,0.13819) ==
 == 49-th k-point nmo = 81 (-0.00000,-0.27639,-0.00000) ==
 == 50-th k-point nmo = 82 (0.13819,-0.13819,-0.13819) ==
 == 51-th k-point nmo = 81 (0.27639,0.00000,-0.27639) ==
 == 52-th k-point nmo = 83 (0.41458,0.13819,-0.41458) ==
 == 53-th k-point nmo = 83 (0.55277,0.27639,-0.55277) ==
 == 54-th k-point nmo = 82 (0.00000,-0.55277,0.27639) ==
 == 55-th k-point nmo = 82 (0.13819,-0.41458,0.13819) ==
 == 56-th k-point nmo = 81 (0.27639,-0.27639,-0.00000) ==
 == 57-th k-point nmo = 82 (0.41458,-0.13819,-0.13819) ==
 == 58-th k-point nmo = 82 (0.55277,0.00000,-0.27639) ==
 == 59-th k-point nmo = 82 (0.69096,0.13819,-0.41458) ==
 == 60-th k-point nmo = 82 (0.13819,-0.69096,0.41458) ==
 == 61-th k-point nmo = 83 (0.27639,-0.55277,0.27639) ==
 == 62-th k-point nmo = 83 (0.41458,-0.41458,0.13819) ==
 == 63-th k-point nmo = 82 (0.55277,-0.27639,-0.00000) ==
 == 64-th k-point nmo = 82 (0.69096,-0.13819,-0.13819) ==
 == 65-th k-point nmo = 82 (0.82916,0.00000,-0.27639) ==
 == 66-th k-point nmo = 82 (0.27639,-0.82916,0.55277) ==
 == 67-th k-point nmo = 83 (0.41458,-0.69096,0.41458) ==
 == 68-th k-point nmo = 83 (0.55277,-0.55277,0.27639) ==
 == 69-th k-point nmo = 82 (0.69096,-0.41458,0.13819) ==
 == 70-th k-point nmo = 82 (0.82916,-0.27639,-0.00000) ==
 == 71-th k-point nmo = 82 (0.96735,-0.13819,-0.13819) ==
 == 72-th k-point nmo = 81 (-0.55277,0.00000,0.00000) ==
 == 73-th k-point nmo = 82 (-0.41458,0.13819,-0.13819) ==
 == 74-th k-point nmo = 83 (-0.27639,0.27639,-0.27639) ==
 == 75-th k-point nmo = 83 (-0.13819,0.41458,-0.41458) ==
 == 76-th k-point nmo = 83 (-0.00000,0.55277,-0.55277) ==
 == 77-th k-point nmo = 82 (0.13819,0.69096,-0.69096) ==
 == 78-th k-point nmo = 82 (-0.41458,-0.13819,0.13819) ==
 == 79-th k-point nmo = 81 (-0.27639,0.00000,0.00000) ==
 == 80-th k-point nmo = 82 (-0.13819,0.13819,-0.13819) ==
 == 81-th k-point nmo = 81 (-0.00000,0.27639,-0.27639) ==
 == 82-th k-point nmo = 83 (0.13819,0.41458,-0.41458) ==
 == 83-th k-point nmo = 83 (0.27639,0.55277,-0.55277) ==
 == 84-th k-point nmo = 83 (-0.27639,-0.27639,0.27639) ==
 == 85-th k-point nmo = 82 (-0.13819,-0.13819,0.13819) ==
 == 86-th k-point nmo = 83 (0.00000,0.00000,0.00000) ==
 == 87-th k-point nmo = 82 (0.13819,0.13819,-0.13819) ==
 == 88-th k-point nmo = 83 (0.27639,0.27639,-0.27639) ==
 == 89-th k-point nmo = 83 (0.41458,0.41458,-0.41458) ==
 == 90-th k-point nmo = 83 (-0.13819,-0.41458,0.41458) ==
 == 91-th k-point nmo = 81 (0.00000,-0.27639,0.27639) ==
 == 92-th k-point nmo = 82 (0.13819,-0.13819,0.13819) ==
 == 93-th k-point nmo = 81 (0.27639,-0.00000,0.00000) ==
 == 94-th k-point nmo = 82 (0.41458,0.13819,-0.13819) ==
 == 95-th k-point nmo = 83 (0.55277,0.27639,-0.27639) ==
 == 96-th k-point nmo = 83 (0.00000,-0.55277,0.55277) ==
 == 97-th k-point nmo = 83 (0.13819,-0.41458,0.41458) ==
 == 98-th k-point nmo = 83 (0.27639,-0.27639,0.27639) ==
 == 99-th k-point nmo = 82 (0.41458,-0.13819,0.13819) ==
 == 100-th k-point nmo = 81 (0.55277,-0.00000,0.00000) ==
 == 101-th k-point nmo = 82 (0.69096,0.13819,-0.13819) ==
 == 102-th k-point nmo = 82 (0.13819,-0.69096,0.69096) ==
 == 103-th k-point nmo = 83 (0.27639,-0.55277,0.55277) ==
 == 104-th k-point nmo = 83 (0.41458,-0.41458,0.41458) ==
 == 105-th k-point nmo = 83 (0.55277,-0.27639,0.27639) ==
 == 106-th k-point nmo = 82 (0.69096,-0.13819,0.13819) ==
 == 107-th k-point nmo = 81 (0.82916,-0.00000,0.00000) ==
 == 108-th k-point nmo = 82 (-0.69096,0.13819,0.13819) ==
 == 109-th k-point nmo = 82 (-0.55277,0.27639,0.00000) ==
 == 110-th k-point nmo = 83 (-0.41458,0.41458,-0.13819) ==
 == 111-th k-point nmo = 83 (-0.27639,0.55277,-0.27639) ==
 == 112-th k-point nmo = 82 (-0.13819,0.69096,-0.41458) ==
 == 113-th k-point nmo = 82 (-0.00000,0.82916,-0.55277) ==
 == 114-th k-point nmo = 82 (-0.55277,-0.00000,0.27639) ==
 == 115-th k-point nmo = 82 (-0.41458,0.13819,0.13819) ==
 == 116-th k-point nmo = 81 (-0.27639,0.27639,0.00000) ==
 == 117-th k-point nmo = 82 (-0.13819,0.41458,-0.13819) ==
 == 118-th k-point nmo = 82 (-0.00000,0.55277,-0.27639) ==
 == 119-th k-point nmo = 82 (0.13819,0.69096,-0.41458) ==
 == 120-th k-point nmo = 83 (-0.41458,-0.13819,0.41458) ==
 == 121-th k-point nmo = 81 (-0.27639,-0.00000,0.27639) ==
 == 122-th k-point nmo = 82 (-0.13819,0.13819,0.13819) ==
 == 123-th k-point nmo = 81 (0.00000,0.27639,0.00000) ==
 == 124-th k-point nmo = 82 (0.13819,0.41458,-0.13819) ==
 == 125-th k-point nmo = 83 (0.27639,0.55277,-0.27639) ==
 == 126-th k-point nmo = 83 (-0.27639,-0.27639,0.55277) ==
 == 127-th k-point nmo = 82 (-0.13819,-0.13819,0.41458) ==
 == 128-th k-point nmo = 81 (0.00000,-0.00000,0.27639) ==
 == 129-th k-point nmo = 82 (0.13819,0.13819,0.13819) ==
 == 130-th k-point nmo = 81 (0.27639,0.27639,0.00000) ==
 == 131-th k-point nmo = 83 (0.41458,0.41458,-0.13819) ==
 == 132-th k-point nmo = 82 (-0.13819,-0.41458,0.69096) ==
 == 133-th k-point nmo = 82 (0.00000,-0.27639,0.55277) ==
 == 134-th k-point nmo = 82 (0.13819,-0.13819,0.41458) ==
 == 135-th k-point nmo = 81 (0.27639,-0.00000,0.27639) ==
 == 136-th k-point nmo = 82 (0.41458,0.13819,0.13819) ==
 == 137-th k-point nmo = 82 (0.55277,0.27639,0.00000) ==
 == 138-th k-point nmo = 82 (0.00000,-0.55277,0.82916) ==
 == 139-th k-point nmo = 82 (0.13819,-0.41458,0.69096) ==
 == 140-th k-point nmo = 83 (0.27639,-0.27639,0.55277) ==
 == 141-th k-point nmo = 83 (0.41458,-0.13819,0.41458) ==
 == 142-th k-point nmo = 82 (0.55277,-0.00000,0.27639) ==
 == 143-th k-point nmo = 82 (0.69096,0.13819,0.13819) ==
 == 144-th k-point nmo = 83 (-0.82916,0.27639,0.27639) ==
 == 145-th k-point nmo = 82 (-0.69096,0.41458,0.13819) ==
 == 146-th k-point nmo = 83 (-0.55277,0.55277,0.00000) ==
 == 147-th k-point nmo = 82 (-0.41458,0.69096,-0.13819) ==
 == 148-th k-point nmo = 83 (-0.27639,0.82916,-0.27639) ==
 == 149-th k-point nmo = 82 (-0.13819,0.96735,-0.41458) ==
 == 150-th k-point nmo = 82 (-0.69096,0.13819,0.41458) ==
 == 151-th k-point nmo = 83 (-0.55277,0.27639,0.27639) ==
 == 152-th k-point nmo = 83 (-0.41458,0.41458,0.13819) ==
 == 153-th k-point nmo = 82 (-0.27639,0.55277,0.00000) ==
 == 154-th k-point nmo = 82 (-0.13819,0.69096,-0.13819) ==
 == 155-th k-point nmo = 82 (0.00000,0.82916,-0.27639) ==
 == 156-th k-point nmo = 83 (-0.55277,-0.00000,0.55277) ==
 == 157-th k-point nmo = 83 (-0.41458,0.13819,0.41458) ==
 == 158-th k-point nmo = 83 (-0.27639,0.27639,0.27639) ==
 == 159-th k-point nmo = 82 (-0.13819,0.41458,0.13819) ==
 == 160-th k-point nmo = 81 (0.00000,0.55277,0.00000) ==
 == 161-th k-point nmo = 82 (0.13819,0.69096,-0.13819) ==
 == 162-th k-point nmo = 82 (-0.41458,-0.13819,0.69096) ==
 == 163-th k-point nmo = 82 (-0.27639,-0.00000,0.55277) ==
 == 164-th k-point nmo = 82 (-0.13819,0.13819,0.41458) ==
 == 165-th k-point nmo = 81 (0.00000,0.27639,0.27639) ==
 == 166-th k-point nmo = 82 (0.13819,0.41458,0.13819) ==
 == 167-th k-point nmo = 82 (0.27639,0.55277,0.00000) ==
 == 168-th k-point nmo = 83 (-0.27639,-0.27639,0.82916) ==
 == 169-th k-point nmo = 82 (-0.13819,-0.13819,0.69096) ==
 == 170-th k-point nmo = 81 (0.00000,-0.00000,0.55277) ==
 == 171-th k-point nmo = 82 (0.13819,0.13819,0.41458) ==
 == 172-th k-point nmo = 83 (0.27639,0.27639,0.27639) ==
 == 173-th k-point nmo = 83 (0.41458,0.41458,0.13819) ==
 == 174-th k-point nmo = 82 (-0.13819,-0.41458,0.96735) ==
 == 175-th k-point nmo = 82 (0.00000,-0.27639,0.82916) ==
 == 176-th k-point nmo = 82 (0.13819,-0.13819,0.69096) ==
 == 177-th k-point nmo = 82 (0.27639,-0.00000,0.55277) ==
 == 178-th k-point nmo = 83 (0.41458,0.13819,0.41458) ==
 == 179-th k-point nmo = 83 (0.55277,0.27639,0.27639) ==
 == 180-th k-point nmo = 83 (-0.96735,0.41458,0.41458) ==
 == 181-th k-point nmo = 82 (-0.82916,0.55277,0.27639) ==
 == 182-th k-point nmo = 82 (-0.69096,0.69096,0.13819) ==
 == 183-th k-point nmo = 82 (-0.55277,0.82916,0.00000) ==
 == 184-th k-point nmo = 82 (-0.41458,0.96735,-0.13819) ==
 == 185-th k-point nmo = 83 (-0.27639,1.10554,-0.27639) ==
 == 186-th k-point nmo = 82 (-0.82916,0.27639,0.55277) ==
 == 187-th k-point nmo = 83 (-0.69096,0.41458,0.41458) ==
 == 188-th k-point nmo = 83 (-0.55277,0.55277,0.27639) ==
 == 189-th k-point nmo = 82 (-0.41458,0.69096,0.13819) ==
 == 190-th k-point nmo = 82 (-0.27639,0.82916,0.00000) ==
 == 191-th k-point nmo = 82 (-0.13819,0.96735,-0.13819) ==
 == 192-th k-point nmo = 82 (-0.69096,0.13819,0.69096) ==
 == 193-th k-point nmo = 83 (-0.55277,0.27639,0.55277) ==
 == 194-th k-point nmo = 83 (-0.41458,0.41458,0.41458) ==
 == 195-th k-point nmo = 83 (-0.27639,0.55277,0.27639) ==
 == 196-th k-point nmo = 82 (-0.13819,0.69096,0.13819) ==
 == 197-th k-point nmo = 81 (0.00000,0.82916,0.00000) ==
 == 198-th k-point nmo = 82 (-0.55277,-0.00000,0.82916) ==
 == 199-th k-point nmo = 82 (-0.41458,0.13819,0.69096) ==
 == 200-th k-point nmo = 83 (-0.27639,0.27639,0.55277) ==
 == 201-th k-point nmo = 83 (-0.13819,0.41458,0.41458) ==
 == 202-th k-point nmo = 82 (0.00000,0.55277,0.27639) ==
 == 203-th k-point nmo = 82 (0.13819,0.69096,0.13819) ==
 == 204-th k-point nmo = 82 (-0.41458,-0.13819,0.96735) ==
 == 205-th k-point nmo = 82 (-0.27639,-0.00000,0.82916) ==
 == 206-th k-point nmo = 82 (-0.13819,0.13819,0.69096) ==
 == 207-th k-point nmo = 82 (0.00000,0.27639,0.55277) ==
 == 208-th k-point nmo = 83 (0.13819,0.41458,0.41458) ==
 == 209-th k-point nmo = 83 (0.27639,0.55277,0.27639) ==
 == 210-th k-point nmo = 83 (-0.27639,-0.27639,1.10554) ==
 == 211-th k-point nmo = 82 (-0.13819,-0.13819,0.96735) ==
 == 212-th k-point nmo = 81 (0.00000,-0.00000,0.82916) ==
 == 213-th k-point nmo = 82 (0.13819,0.13819,0.69096) ==
 == 214-th k-point nmo = 83 (0.27639,0.27639,0.55277) ==
 == 215-th k-point nmo = 83 (0.41458,0.41458,0.41458) ==

 Generate autoSAD guess
backing up fragment data
Atom # 0: li, charge: 0, multiplicity: 2.000000
Atom # 1: f, charge: 0, multiplicity: 2.000000
writing autosad to fragment context
Settings for isolated fragments: 
  frgm_gamma: TRUE
  frgm_center: FALSE

    Running SCF for isolated atom #0
    Fragment Input file: /n/netscratch/joonholee_lab/Lab/hieudinh//lif_solve_def2qzvp_omega_0.3_666.scratch20250909004224/autosad_frgmt_0/frgmt_input.in
    Fragment Output file: /n/netscratch/joonholee_lab/Lab/hieudinh//lif_solve_def2qzvp_omega_0.3_666.scratch20250909004224/autosad_frgmt_0/frgmt_job.out
    Fragment job begins at Tue Sep  9 00:43:06 2025

 Integrated density by DFT XC:
   Numerical integral  =     3.000000007147
   Relative error      =     0.0000002382 %
Final energy components:
 DFT Correlation            Energy =  -0.05090044545114
 DFT Exchange               Energy =  -1.75144597421910
 Kinetic (alpha)            Energy =   3.82935284817784
 Kinetic (beta)             Energy =   3.58515893685385
 Nuclear Attraction (alpha) Energy =  -9.10791001172893
 Nuclear Attraction (beta)  Energy =  -8.01914849492518
 Nuclear Repulsion          Energy =   0.00000000000000
 SEOQF                      Energy =  -0.00000000000000
 Total Coulomb              Energy =   4.05291331077687
----------------------------------------------
    SCF Energy: -7.4619798305
   Total fragment job time:  0.46 s.
    Running SCF for isolated atom #1
    Fragment Input file: /n/netscratch/joonholee_lab/Lab/hieudinh//lif_solve_def2qzvp_omega_0.3_666.scratch20250909004224/autosad_frgmt_1/frgmt_input.in
    Fragment Output file: /n/netscratch/joonholee_lab/Lab/hieudinh//lif_solve_def2qzvp_omega_0.3_666.scratch20250909004224/autosad_frgmt_1/frgmt_job.out
    Fragment job begins at Tue Sep  9 00:43:06 2025

 Integrated density by DFT XC:
   Numerical integral  =     9.000000098353
   Relative error      =     0.0000010928 %
Final energy components:
 DFT Correlation            Energy =  -0.28943664182310
 DFT Exchange               Energy =  -9.96991500891564
 Kinetic (alpha)            Energy =  51.55258412072433
 Kinetic (beta)             Energy =  47.84820569403615
 Nuclear Attraction (alpha) Energy = -125.30574122940692
 Nuclear Attraction (beta)  Energy = -113.20186276241685
 Nuclear Repulsion          Energy =   0.00000000000000
 SEOQF                      Energy =  -0.00000000020726
 Total Coulomb              Energy =  49.69105360806785
----------------------------------------------
    SCF Energy: -99.6751122199
   Total fragment job time:  0.64 s.
restoring fragment data

 ------------------------------------------------------------------------
 Allocate 145565312 B from available memory: 104828211552 B
 Time for generating SCF guess: 1.17 s

 Allocate 446984 B from available memory: 104682646240 B
 Selected algorithms for each term:
  kpts_kinetic -> @0x14bf013af680
  kpts_nn -> @0x14bf013af800
  kpts_rij_bigmem -> @0x14bf013af3e0
  kpts_vnuc_df -> @0x14bf013af380
  kpts_xc -> @0x14bf013af2c0
 Time for computing kinetic matrix is 27.24 s
Start calculating Vnuc DD type!
Start calculating Vnuc CD type!
Start calculating Vnuc CC type!
 Time for computing nuclear attraction matrix is 55.44 s
Compute (P|Q) and use solve on the fly!
Maximum distance between P and Q is 37.07317869796985
Number of images for (P|Qn) is 3451
 Time for computing 2e2c SR integral is 0.17 s
Maximum dynamic memory per thread for 2e3c SR integrals: 0.036 GiB
Batch size for basis function pair is 352 out of 352
 === bvk cell = 0 has 100.000 % of the basis function pairs === 
 === bvk cell = 1 has 100.000 % of the basis function pairs === 
 === bvk cell = 2 has 100.000 % of the basis function pairs === 
 === bvk cell = 3 has 100.000 % of the basis function pairs === 
 === bvk cell = 4 has 100.000 % of the basis function pairs === 
 === bvk cell = 5 has 100.000 % of the basis function pairs === 
 === bvk cell = 6 has 100.000 % of the basis function pairs === 
 === bvk cell = 7 has 100.000 % of the basis function pairs === 
 === bvk cell = 8 has 100.000 % of the basis function pairs === 
 === bvk cell = 9 has 100.000 % of the basis function pairs === 
 === bvk cell = 10 has 100.000 % of the basis function pairs === 
 === bvk cell = 11 has 100.000 % of the basis function pairs === 
 === bvk cell = 12 has 100.000 % of the basis function pairs === 
 === bvk cell = 13 has 100.000 % of the basis function pairs === 
 === bvk cell = 14 has 100.000 % of the basis function pairs === 
 === bvk cell = 15 has 100.000 % of the basis function pairs === 
 === bvk cell = 16 has 100.000 % of the basis function pairs === 
 === bvk cell = 17 has 100.000 % of the basis function pairs === 
 === bvk cell = 18 has 100.000 % of the basis function pairs === 
 === bvk cell = 19 has 100.000 % of the basis function pairs === 
 === bvk cell = 20 has 100.000 % of the basis function pairs === 
 === bvk cell = 21 has 100.000 % of the basis function pairs === 
 === bvk cell = 22 has 100.000 % of the basis function pairs === 
 === bvk cell = 23 has 100.000 % of the basis function pairs === 
 === bvk cell = 24 has 100.000 % of the basis function pairs === 
 === bvk cell = 25 has 100.000 % of the basis function pairs === 
 === bvk cell = 26 has 100.000 % of the basis function pairs === 
 === bvk cell = 27 has 100.000 % of the basis function pairs === 
 === bvk cell = 28 has 100.000 % of the basis function pairs === 
 === bvk cell = 29 has 100.000 % of the basis function pairs === 
 === bvk cell = 30 has 100.000 % of the basis function pairs === 
 === bvk cell = 31 has 100.000 % of the basis function pairs === 
 === bvk cell = 32 has 100.000 % of the basis function pairs === 
 === bvk cell = 33 has 100.000 % of the basis function pairs === 
 === bvk cell = 34 has 100.000 % of the basis function pairs === 
 === bvk cell = 35 has 100.000 % of the basis function pairs === 
 === bvk cell = 36 has 100.000 % of the basis function pairs === 
 === bvk cell = 37 has 100.000 % of the basis function pairs === 
 === bvk cell = 38 has 100.000 % of the basis function pairs === 
 === bvk cell = 39 has 100.000 % of the basis function pairs === 
 === bvk cell = 40 has 100.000 % of the basis function pairs === 
 === bvk cell = 41 has 100.000 % of the basis function pairs === 
 === bvk cell = 42 has 100.000 % of the basis function pairs === 
 === bvk cell = 43 has 100.000 % of the basis function pairs === 
 === bvk cell = 44 has 100.000 % of the basis function pairs === 
 === bvk cell = 45 has 100.000 % of the basis function pairs === 
 === bvk cell = 46 has 100.000 % of the basis function pairs === 
 === bvk cell = 47 has 100.000 % of the basis function pairs === 
 === bvk cell = 48 has 100.000 % of the basis function pairs === 
 === bvk cell = 49 has 100.000 % of the basis function pairs === 
 === bvk cell = 50 has 100.000 % of the basis function pairs === 
 === bvk cell = 51 has 100.000 % of the basis function pairs === 
 === bvk cell = 52 has 100.000 % of the basis function pairs === 
 === bvk cell = 53 has 100.000 % of the basis function pairs === 
 === bvk cell = 54 has 100.000 % of the basis function pairs === 
 === bvk cell = 55 has 100.000 % of the basis function pairs === 
 === bvk cell = 56 has 100.000 % of the basis function pairs === 
 === bvk cell = 57 has 100.000 % of the basis function pairs === 
 === bvk cell = 58 has 100.000 % of the basis function pairs === 
 === bvk cell = 59 has 100.000 % of the basis function pairs === 
 === bvk cell = 60 has 100.000 % of the basis function pairs === 
 === bvk cell = 61 has 100.000 % of the basis function pairs === 
 === bvk cell = 62 has 100.000 % of the basis function pairs === 
 === bvk cell = 63 has 100.000 % of the basis function pairs === 
 === bvk cell = 64 has 100.000 % of the basis function pairs === 
 === bvk cell = 65 has 100.000 % of the basis function pairs === 
 === bvk cell = 66 has 100.000 % of the basis function pairs === 
 === bvk cell = 67 has 100.000 % of the basis function pairs === 
 === bvk cell = 68 has 100.000 % of the basis function pairs === 
 === bvk cell = 69 has 100.000 % of the basis function pairs === 
 === bvk cell = 70 has 100.000 % of the basis function pairs === 
 === bvk cell = 71 has 100.000 % of the basis function pairs === 
 === bvk cell = 72 has 100.000 % of the basis function pairs === 
 === bvk cell = 73 has 100.000 % of the basis function pairs === 
 === bvk cell = 74 has 100.000 % of the basis function pairs === 
 === bvk cell = 75 has 100.000 % of the basis function pairs === 
 === bvk cell = 76 has 100.000 % of the basis function pairs === 
 === bvk cell = 77 has 100.000 % of the basis function pairs === 
 === bvk cell = 78 has 100.000 % of the basis function pairs === 
 === bvk cell = 79 has 100.000 % of the basis function pairs === 
 === bvk cell = 80 has 100.000 % of the basis function pairs === 
 === bvk cell = 81 has 100.000 % of the basis function pairs === 
 === bvk cell = 82 has 100.000 % of the basis function pairs === 
 === bvk cell = 83 has 100.000 % of the basis function pairs === 
 === bvk cell = 84 has 100.000 % of the basis function pairs === 
 === bvk cell = 85 has 100.000 % of the basis function pairs === 
 === bvk cell = 86 has 100.000 % of the basis function pairs === 
 === bvk cell = 87 has 100.000 % of the basis function pairs === 
 === bvk cell = 88 has 100.000 % of the basis function pairs === 
 === bvk cell = 89 has 100.000 % of the basis function pairs === 
 === bvk cell = 90 has 100.000 % of the basis function pairs === 
 === bvk cell = 91 has 100.000 % of the basis function pairs === 
 === bvk cell = 92 has 100.000 % of the basis function pairs === 
 === bvk cell = 93 has 100.000 % of the basis function pairs === 
 === bvk cell = 94 has 100.000 % of the basis function pairs === 
 === bvk cell = 95 has 100.000 % of the basis function pairs === 
 === bvk cell = 96 has 100.000 % of the basis function pairs === 
 === bvk cell = 97 has 100.000 % of the basis function pairs === 
 === bvk cell = 98 has 100.000 % of the basis function pairs === 
 === bvk cell = 99 has 100.000 % of the basis function pairs === 
 === bvk cell = 100 has 100.000 % of the basis function pairs === 
 === bvk cell = 101 has 100.000 % of the basis function pairs === 
 === bvk cell = 102 has 100.000 % of the basis function pairs === 
 === bvk cell = 103 has 100.000 % of the basis function pairs === 
 === bvk cell = 104 has 100.000 % of the basis function pairs === 
 === bvk cell = 105 has 100.000 % of the basis function pairs === 
 === bvk cell = 106 has 100.000 % of the basis function pairs === 
 === bvk cell = 107 has 100.000 % of the basis function pairs === 
 === bvk cell = 108 has 100.000 % of the basis function pairs === 
 === bvk cell = 109 has 100.000 % of the basis function pairs === 
 === bvk cell = 110 has 100.000 % of the basis function pairs === 
 === bvk cell = 111 has 100.000 % of the basis function pairs === 
 === bvk cell = 112 has 100.000 % of the basis function pairs === 
 === bvk cell = 113 has 100.000 % of the basis function pairs === 
 === bvk cell = 114 has 100.000 % of the basis function pairs === 
 === bvk cell = 115 has 100.000 % of the basis function pairs === 
 === bvk cell = 116 has 100.000 % of the basis function pairs === 
 === bvk cell = 117 has 100.000 % of the basis function pairs === 
 === bvk cell = 118 has 100.000 % of the basis function pairs === 
 === bvk cell = 119 has 100.000 % of the basis function pairs === 
 === bvk cell = 120 has 100.000 % of the basis function pairs === 
 === bvk cell = 121 has 100.000 % of the basis function pairs === 
 === bvk cell = 122 has 100.000 % of the basis function pairs === 
 === bvk cell = 123 has 100.000 % of the basis function pairs === 
 === bvk cell = 124 has 100.000 % of the basis function pairs === 
 === bvk cell = 125 has 100.000 % of the basis function pairs === 
 === bvk cell = 126 has 100.000 % of the basis function pairs === 
 === bvk cell = 127 has 100.000 % of the basis function pairs === 
 === bvk cell = 128 has 100.000 % of the basis function pairs === 
 === bvk cell = 129 has 100.000 % of the basis function pairs === 
 === bvk cell = 130 has 100.000 % of the basis function pairs === 
 === bvk cell = 131 has 100.000 % of the basis function pairs === 
 === bvk cell = 132 has 100.000 % of the basis function pairs === 
 === bvk cell = 133 has 100.000 % of the basis function pairs === 
 === bvk cell = 134 has 100.000 % of the basis function pairs === 
 === bvk cell = 135 has 100.000 % of the basis function pairs === 
 === bvk cell = 136 has 100.000 % of the basis function pairs === 
 === bvk cell = 137 has 100.000 % of the basis function pairs === 
 === bvk cell = 138 has 100.000 % of the basis function pairs === 
 === bvk cell = 139 has 100.000 % of the basis function pairs === 
 === bvk cell = 140 has 100.000 % of the basis function pairs === 
 === bvk cell = 141 has 100.000 % of the basis function pairs === 
 === bvk cell = 142 has 100.000 % of the basis function pairs === 
 === bvk cell = 143 has 100.000 % of the basis function pairs === 
 === bvk cell = 144 has 100.000 % of the basis function pairs === 
 === bvk cell = 145 has 100.000 % of the basis function pairs === 
 === bvk cell = 146 has 100.000 % of the basis function pairs === 
 === bvk cell = 147 has 100.000 % of the basis function pairs === 
 === bvk cell = 148 has 100.000 % of the basis function pairs === 
 === bvk cell = 149 has 100.000 % of the basis function pairs === 
 === bvk cell = 150 has 100.000 % of the basis function pairs === 
 === bvk cell = 151 has 100.000 % of the basis function pairs === 
 === bvk cell = 152 has 100.000 % of the basis function pairs === 
 === bvk cell = 153 has 100.000 % of the basis function pairs === 
 === bvk cell = 154 has 100.000 % of the basis function pairs === 
 === bvk cell = 155 has 100.000 % of the basis function pairs === 
 === bvk cell = 156 has 100.000 % of the basis function pairs === 
 === bvk cell = 157 has 100.000 % of the basis function pairs === 
 === bvk cell = 158 has 100.000 % of the basis function pairs === 
 === bvk cell = 159 has 100.000 % of the basis function pairs === 
 === bvk cell = 160 has 100.000 % of the basis function pairs === 
 === bvk cell = 161 has 100.000 % of the basis function pairs === 
 === bvk cell = 162 has 100.000 % of the basis function pairs === 
 === bvk cell = 163 has 100.000 % of the basis function pairs === 
 === bvk cell = 164 has 100.000 % of the basis function pairs === 
 === bvk cell = 165 has 100.000 % of the basis function pairs === 
 === bvk cell = 166 has 100.000 % of the basis function pairs === 
 === bvk cell = 167 has 100.000 % of the basis function pairs === 
 === bvk cell = 168 has 100.000 % of the basis function pairs === 
 === bvk cell = 169 has 100.000 % of the basis function pairs === 
 === bvk cell = 170 has 100.000 % of the basis function pairs === 
 === bvk cell = 171 has 100.000 % of the basis function pairs === 
 === bvk cell = 172 has 100.000 % of the basis function pairs === 
 === bvk cell = 173 has 100.000 % of the basis function pairs === 
 === bvk cell = 174 has 100.000 % of the basis function pairs === 
 === bvk cell = 175 has 100.000 % of the basis function pairs === 
 === bvk cell = 176 has 100.000 % of the basis function pairs === 
 === bvk cell = 177 has 100.000 % of the basis function pairs === 
 === bvk cell = 178 has 100.000 % of the basis function pairs === 
 === bvk cell = 179 has 100.000 % of the basis function pairs === 
 === bvk cell = 180 has 100.000 % of the basis function pairs === 
 === bvk cell = 181 has 100.000 % of the basis function pairs === 
 === bvk cell = 182 has 100.000 % of the basis function pairs === 
 === bvk cell = 183 has 100.000 % of the basis function pairs === 
 === bvk cell = 184 has 100.000 % of the basis function pairs === 
 === bvk cell = 185 has 100.000 % of the basis function pairs === 
 === bvk cell = 186 has 100.000 % of the basis function pairs === 
 === bvk cell = 187 has 100.000 % of the basis function pairs === 
 === bvk cell = 188 has 100.000 % of the basis function pairs === 
 === bvk cell = 189 has 100.000 % of the basis function pairs === 
 === bvk cell = 190 has 100.000 % of the basis function pairs === 
 === bvk cell = 191 has 100.000 % of the basis function pairs === 
 === bvk cell = 192 has 100.000 % of the basis function pairs === 
 === bvk cell = 193 has 100.000 % of the basis function pairs === 
 === bvk cell = 194 has 100.000 % of the basis function pairs === 
 === bvk cell = 195 has 100.000 % of the basis function pairs === 
 === bvk cell = 196 has 100.000 % of the basis function pairs === 
 === bvk cell = 197 has 100.000 % of the basis function pairs === 
 === bvk cell = 198 has 100.000 % of the basis function pairs === 
 === bvk cell = 199 has 100.000 % of the basis function pairs === 
 === bvk cell = 200 has 100.000 % of the basis function pairs === 
 === bvk cell = 201 has 100.000 % of the basis function pairs === 
 === bvk cell = 202 has 100.000 % of the basis function pairs === 
 === bvk cell = 203 has 100.000 % of the basis function pairs === 
 === bvk cell = 204 has 100.000 % of the basis function pairs === 
 === bvk cell = 205 has 100.000 % of the basis function pairs === 
 === bvk cell = 206 has 100.000 % of the basis function pairs === 
 === bvk cell = 207 has 100.000 % of the basis function pairs === 
 === bvk cell = 208 has 100.000 % of the basis function pairs === 
 === bvk cell = 209 has 100.000 % of the basis function pairs === 
 === bvk cell = 210 has 100.000 % of the basis function pairs === 
 === bvk cell = 211 has 100.000 % of the basis function pairs === 
 === bvk cell = 212 has 100.000 % of the basis function pairs === 
 === bvk cell = 213 has 100.000 % of the basis function pairs === 
 === bvk cell = 214 has 100.000 % of the basis function pairs === 
 === bvk cell = 215 has 100.000 % of the basis function pairs === 
Static memory requirement for 2e3c SR integrals: 0.054 GB
There are 1 munu batches for computing 2e3c SR integrals with latsum
There are 2 Q batches for computing 2e3c SR integrals with latsum
 Time for computing 2e3c SR integral (CD) is 12.44 s
Maximum dynamic memory per thread for 2e3c SR integrals: 0.180 GiB
Batch size for basis function pair is 4077 out of 4077
 === bvk cell = 0 has 100.000 % of the basis function pairs === 
 === bvk cell = 1 has 89.821 % of the basis function pairs === 
 === bvk cell = 2 has 54.967 % of the basis function pairs === 
 === bvk cell = 3 has 39.711 % of the basis function pairs === 
 === bvk cell = 4 has 49.816 % of the basis function pairs === 
 === bvk cell = 5 has 84.646 % of the basis function pairs === 
 === bvk cell = 6 has 89.821 % of the basis function pairs === 
 === bvk cell = 7 has 60.584 % of the basis function pairs === 
 === bvk cell = 8 has 43.831 % of the basis function pairs === 
 === bvk cell = 9 has 37.822 % of the basis function pairs === 
 === bvk cell = 10 has 58.376 % of the basis function pairs === 
 === bvk cell = 11 has 85.872 % of the basis function pairs === 
 === bvk cell = 12 has 54.967 % of the basis function pairs === 
 === bvk cell = 13 has 43.831 % of the basis function pairs === 
 === bvk cell = 14 has 24.184 % of the basis function pairs === 
 === bvk cell = 15 has 37.626 % of the basis function pairs === 
 === bvk cell = 16 has 54.623 % of the basis function pairs === 
 === bvk cell = 17 has 60.265 % of the basis function pairs === 
 === bvk cell = 18 has 39.711 % of the basis function pairs === 
 === bvk cell = 19 has 37.822 % of the basis function pairs === 
 === bvk cell = 20 has 37.626 % of the basis function pairs === 
 === bvk cell = 21 has 25.779 % of the basis function pairs === 
 === bvk cell = 22 has 40.643 % of the basis function pairs === 
 === bvk cell = 23 has 40.594 % of the basis function pairs === 
 === bvk cell = 24 has 49.816 % of the basis function pairs === 
 === bvk cell = 25 has 58.376 % of the basis function pairs === 
 === bvk cell = 26 has 54.623 % of the basis function pairs === 
 === bvk cell = 27 has 40.643 % of the basis function pairs === 
 === bvk cell = 28 has 25.509 % of the basis function pairs === 
 === bvk cell = 29 has 38.877 % of the basis function pairs === 
 === bvk cell = 30 has 84.646 % of the basis function pairs === 
 === bvk cell = 31 has 85.872 % of the basis function pairs === 
 === bvk cell = 32 has 60.265 % of the basis function pairs === 
 === bvk cell = 33 has 40.594 % of the basis function pairs === 
 === bvk cell = 34 has 38.877 % of the basis function pairs === 
 === bvk cell = 35 has 55.139 % of the basis function pairs === 
 === bvk cell = 36 has 85.872 % of the basis function pairs === 
 === bvk cell = 37 has 60.265 % of the basis function pairs === 
 === bvk cell = 38 has 40.594 % of the basis function pairs === 
 === bvk cell = 39 has 38.877 % of the basis function pairs === 
 === bvk cell = 40 has 55.139 % of the basis function pairs === 
 === bvk cell = 41 has 84.646 % of the basis function pairs === 
 === bvk cell = 42 has 60.265 % of the basis function pairs === 
 === bvk cell = 43 has 46.137 % of the basis function pairs === 
 === bvk cell = 44 has 26.147 % of the basis function pairs === 
 === bvk cell = 45 has 39.858 % of the basis function pairs === 
 === bvk cell = 46 has 58.376 % of the basis function pairs === 
 === bvk cell = 47 has 68.948 % of the basis function pairs === 
 === bvk cell = 48 has 40.594 % of the basis function pairs === 
 === bvk cell = 49 has 26.147 % of the basis function pairs === 
 === bvk cell = 50 has 22.786 % of the basis function pairs === 
 === bvk cell = 51 has 37.626 % of the basis function pairs === 
 === bvk cell = 52 has 49.595 % of the basis function pairs === 
 === bvk cell = 53 has 52.416 % of the basis function pairs === 
 === bvk cell = 54 has 38.877 % of the basis function pairs === 
 === bvk cell = 55 has 39.858 % of the basis function pairs === 
 === bvk cell = 56 has 37.626 % of the basis function pairs === 
 === bvk cell = 57 has 25.533 % of the basis function pairs === 
 === bvk cell = 58 has 26.000 % of the basis function pairs === 
 === bvk cell = 59 has 31.984 % of the basis function pairs === 
 === bvk cell = 60 has 55.139 % of the basis function pairs === 
 === bvk cell = 61 has 58.376 % of the basis function pairs === 
 === bvk cell = 62 has 49.595 % of the basis function pairs === 
 === bvk cell = 63 has 26.000 % of the basis function pairs === 
 === bvk cell = 64 has 30.831 % of the basis function pairs === 
 === bvk cell = 65 has 41.599 % of the basis function pairs === 
 === bvk cell = 66 has 84.646 % of the basis function pairs === 
 === bvk cell = 67 has 68.948 % of the basis function pairs === 
 === bvk cell = 68 has 52.416 % of the basis function pairs === 
 === bvk cell = 69 has 31.984 % of the basis function pairs === 
 === bvk cell = 70 has 41.599 % of the basis function pairs === 
 === bvk cell = 71 has 67.280 % of the basis function pairs === 
 === bvk cell = 72 has 54.623 % of the basis function pairs === 
 === bvk cell = 73 has 40.643 % of the basis function pairs === 
 === bvk cell = 74 has 25.509 % of the basis function pairs === 
 === bvk cell = 75 has 38.877 % of the basis function pairs === 
 === bvk cell = 76 has 49.816 % of the basis function pairs === 
 === bvk cell = 77 has 58.376 % of the basis function pairs === 
 === bvk cell = 78 has 40.643 % of the basis function pairs === 
 === bvk cell = 79 has 23.179 % of the basis function pairs === 
 === bvk cell = 80 has 26.147 % of the basis function pairs === 
 === bvk cell = 81 has 37.822 % of the basis function pairs === 
 === bvk cell = 82 has 49.154 % of the basis function pairs === 
 === bvk cell = 83 has 49.595 % of the basis function pairs === 
 === bvk cell = 84 has 25.509 % of the basis function pairs === 
 === bvk cell = 85 has 26.147 % of the basis function pairs === 
 === bvk cell = 86 has 24.184 % of the basis function pairs === 
 === bvk cell = 87 has 27.324 % of the basis function pairs === 
 === bvk cell = 88 has 29.507 % of the basis function pairs === 
 === bvk cell = 89 has 26.000 % of the basis function pairs === 
 === bvk cell = 90 has 38.877 % of the basis function pairs === 
 === bvk cell = 91 has 37.822 % of the basis function pairs === 
 === bvk cell = 92 has 27.324 % of the basis function pairs === 
 === bvk cell = 93 has 19.352 % of the basis function pairs === 
 === bvk cell = 94 has 22.100 % of the basis function pairs === 
 === bvk cell = 95 has 30.831 % of the basis function pairs === 
 === bvk cell = 96 has 49.816 % of the basis function pairs === 
 === bvk cell = 97 has 49.154 % of the basis function pairs === 
 === bvk cell = 98 has 29.507 % of the basis function pairs === 
 === bvk cell = 99 has 22.100 % of the basis function pairs === 
 === bvk cell = 100 has 33.848 % of the basis function pairs === 
 === bvk cell = 101 has 41.599 % of the basis function pairs === 
 === bvk cell = 102 has 58.376 % of the basis function pairs === 
 === bvk cell = 103 has 49.595 % of the basis function pairs === 
 === bvk cell = 104 has 26.000 % of the basis function pairs === 
 === bvk cell = 105 has 30.831 % of the basis function pairs === 
 === bvk cell = 106 has 41.599 % of the basis function pairs === 
 === bvk cell = 107 has 55.139 % of the basis function pairs === 
 === bvk cell = 108 has 25.779 % of the basis function pairs === 
 === bvk cell = 109 has 40.643 % of the basis function pairs === 
 === bvk cell = 110 has 40.594 % of the basis function pairs === 
 === bvk cell = 111 has 39.711 % of the basis function pairs === 
 === bvk cell = 112 has 37.822 % of the basis function pairs === 
 === bvk cell = 113 has 37.626 % of the basis function pairs === 
 === bvk cell = 114 has 40.643 % of the basis function pairs === 
 === bvk cell = 115 has 46.137 % of the basis function pairs === 
 === bvk cell = 116 has 43.831 % of the basis function pairs === 
 === bvk cell = 117 has 35.001 % of the basis function pairs === 
 === bvk cell = 118 has 27.324 % of the basis function pairs === 
 === bvk cell = 119 has 25.533 % of the basis function pairs === 
 === bvk cell = 120 has 40.594 % of the basis function pairs === 
 === bvk cell = 121 has 43.831 % of the basis function pairs === 
 === bvk cell = 122 has 33.996 % of the basis function pairs === 
 === bvk cell = 123 has 21.683 % of the basis function pairs === 
 === bvk cell = 124 has 19.352 % of the basis function pairs === 
 === bvk cell = 125 has 26.000 % of the basis function pairs === 
 === bvk cell = 126 has 39.711 % of the basis function pairs === 
 === bvk cell = 127 has 35.001 % of the basis function pairs === 
 === bvk cell = 128 has 21.683 % of the basis function pairs === 
 === bvk cell = 129 has 16.998 % of the basis function pairs === 
 === bvk cell = 130 has 22.100 % of the basis function pairs === 
 === bvk cell = 131 has 31.984 % of the basis function pairs === 
 === bvk cell = 132 has 37.822 % of the basis function pairs === 
 === bvk cell = 133 has 27.324 % of the basis function pairs === 
 === bvk cell = 134 has 19.352 % of the basis function pairs === 
 === bvk cell = 135 has 22.100 % of the basis function pairs === 
 === bvk cell = 136 has 30.831 % of the basis function pairs === 
 === bvk cell = 137 has 38.877 % of the basis function pairs === 
 === bvk cell = 138 has 37.626 % of the basis function pairs === 
 === bvk cell = 139 has 25.533 % of the basis function pairs === 
 === bvk cell = 140 has 26.000 % of the basis function pairs === 
 === bvk cell = 141 has 31.984 % of the basis function pairs === 
 === bvk cell = 142 has 38.877 % of the basis function pairs === 
 === bvk cell = 143 has 39.858 % of the basis function pairs === 
 === bvk cell = 144 has 54.623 % of the basis function pairs === 
 === bvk cell = 145 has 60.265 % of the basis function pairs === 
 === bvk cell = 146 has 54.967 % of the basis function pairs === 
 === bvk cell = 147 has 43.831 % of the basis function pairs === 
 === bvk cell = 148 has 24.184 % of the basis function pairs === 
 === bvk cell = 149 has 37.626 % of the basis function pairs === 
 === bvk cell = 150 has 60.265 % of the basis function pairs === 
 === bvk cell = 151 has 60.584 % of the basis function pairs === 
 === bvk cell = 152 has 49.767 % of the basis function pairs === 
 === bvk cell = 153 has 33.996 % of the basis function pairs === 
 === bvk cell = 154 has 27.324 % of the basis function pairs === 
 === bvk cell = 155 has 49.595 % of the basis function pairs === 
 === bvk cell = 156 has 54.967 % of the basis function pairs === 
 === bvk cell = 157 has 49.767 % of the basis function pairs === 
 === bvk cell = 158 has 39.711 % of the basis function pairs === 
 === bvk cell = 159 has 21.683 % of the basis function pairs === 
 === bvk cell = 160 has 29.507 % of the basis function pairs === 
 === bvk cell = 161 has 52.416 % of the basis function pairs === 
 === bvk cell = 162 has 43.831 % of the basis function pairs === 
 === bvk cell = 163 has 33.996 % of the basis function pairs === 
 === bvk cell = 164 has 21.683 % of the basis function pairs === 
 === bvk cell = 165 has 19.352 % of the basis function pairs === 
 === bvk cell = 166 has 26.000 % of the basis function pairs === 
 === bvk cell = 167 has 40.594 % of the basis function pairs === 
 === bvk cell = 168 has 24.184 % of the basis function pairs === 
 === bvk cell = 169 has 27.324 % of the basis function pairs === 
 === bvk cell = 170 has 29.507 % of the basis function pairs === 
 === bvk cell = 171 has 26.000 % of the basis function pairs === 
 === bvk cell = 172 has 25.509 % of the basis function pairs === 
 === bvk cell = 173 has 26.147 % of the basis function pairs === 
 === bvk cell = 174 has 37.626 % of the basis function pairs === 
 === bvk cell = 175 has 49.595 % of the basis function pairs === 
 === bvk cell = 176 has 52.416 % of the basis function pairs === 
 === bvk cell = 177 has 40.594 % of the basis function pairs === 
 === bvk cell = 178 has 26.147 % of the basis function pairs === 
 === bvk cell = 179 has 22.786 % of the basis function pairs === 
 === bvk cell = 180 has 85.872 % of the basis function pairs === 
 === bvk cell = 181 has 89.821 % of the basis function pairs === 
 === bvk cell = 182 has 60.584 % of the basis function pairs === 
 === bvk cell = 183 has 43.831 % of the basis function pairs === 
 === bvk cell = 184 has 37.822 % of the basis function pairs === 
 === bvk cell = 185 has 58.376 % of the basis function pairs === 
 === bvk cell = 186 has 89.821 % of the basis function pairs === 
 === bvk cell = 187 has 74.344 % of the basis function pairs === 
 === bvk cell = 188 has 49.767 % of the basis function pairs === 
 === bvk cell = 189 has 35.001 % of the basis function pairs === 
 === bvk cell = 190 has 49.154 % of the basis function pairs === 
 === bvk cell = 191 has 68.948 % of the basis function pairs === 
 === bvk cell = 192 has 60.584 % of the basis function pairs === 
 === bvk cell = 193 has 49.767 % of the basis function pairs === 
 === bvk cell = 194 has 33.996 % of the basis function pairs === 
 === bvk cell = 195 has 27.324 % of the basis function pairs === 
 === bvk cell = 196 has 49.595 % of the basis function pairs === 
 === bvk cell = 197 has 60.265 % of the basis function pairs === 
 === bvk cell = 198 has 43.831 % of the basis function pairs === 
 === bvk cell = 199 has 35.001 % of the basis function pairs === 
 === bvk cell = 200 has 27.324 % of the basis function pairs === 
 === bvk cell = 201 has 25.533 % of the basis function pairs === 
 === bvk cell = 202 has 40.643 % of the basis function pairs === 
 === bvk cell = 203 has 46.137 % of the basis function pairs === 
 === bvk cell = 204 has 37.822 % of the basis function pairs === 
 === bvk cell = 205 has 49.154 % of the basis function pairs === 
 === bvk cell = 206 has 49.595 % of the basis function pairs === 
 === bvk cell = 207 has 40.643 % of the basis function pairs === 
 === bvk cell = 208 has 23.179 % of the basis function pairs === 
 === bvk cell = 209 has 26.147 % of the basis function pairs === 
 === bvk cell = 210 has 58.376 % of the basis function pairs === 
 === bvk cell = 211 has 68.948 % of the basis function pairs === 
 === bvk cell = 212 has 60.265 % of the basis function pairs === 
 === bvk cell = 213 has 46.137 % of the basis function pairs === 
 === bvk cell = 214 has 26.147 % of the basis function pairs === 
 === bvk cell = 215 has 39.858 % of the basis function pairs === 
Static memory requirement for 2e3c SR integrals: 0.270 GB
There are 1 munu batches for computing 2e3c SR integrals with latsum
There are 2 Q batches for computing 2e3c SR integrals with latsum
 Time for computing 2e3c SR integral (CC) is 11.38 s
 Time for RI-J this SCF iteration is 25.57 s
 Time for RI-J this SCF iteration is 1.53 s
 ----------------------------------------------
 Guess energy: -107.3903167277
 ----------------------------------------------
 Guess energy components:
 DFT Correlation    Energy =  -0.39357255949938
 DFT Exchange       Energy = -12.25058893612111
 Kinetic            Energy = 109.22997338966607
 Nuclear Attraction Energy = -202.72112027153702
 Nuclear Repulsion  Energy = -31.10949437582012
 Total Coulomb      Energy =  29.85448602558185
 ----------------------------------------------
  Cycle       Energy        RMS Gradient
 ----------------------------------------------
 Time for RI-J this SCF iteration is 1.52 s
    1    -107.4081943792      2.69e-01   Descent step
 Energy components after cycle 1:
 DFT Correlation    Energy =  -0.39322671942766
 DFT Exchange       Energy = -12.20577189030463
 Kinetic            Energy = 108.89343044027041
 Nuclear Attraction Energy = -202.13584262274546
 Nuclear Repulsion  Energy = -31.10949437582012
 Total Coulomb      Energy =  29.54271078885095
 Time for RI-J this SCF iteration is 1.48 s
    2    -107.4230601860      2.27e-01   Descent step
 Energy components after cycle 2:
 DFT Correlation    Energy =  -0.39293850600922
 DFT Exchange       Energy = -12.16138585487987
 Kinetic            Energy = 108.56030299989347
 Nuclear Attraction Energy = -201.55371861507254
 Nuclear Repulsion  Energy = -31.10949437582012
 Total Coulomb      Energy =  29.23417416590443
 Time for RI-J this SCF iteration is 1.62 s
    3    -107.4349843993      1.87e-01   Descent step
 Energy components after cycle 3:
 DFT Correlation    Energy =  -0.39270429524751
 DFT Exchange       Energy = -12.11742363811035
 Kinetic            Energy = 108.23095357473180
 Nuclear Attraction Energy = -200.97512035432857
 Nuclear Repulsion  Energy = -31.10949437582012
 Total Coulomb      Energy =  28.92880468948153
 Time for RI-J this SCF iteration is 1.71 s
    4    -107.4440247756      1.48e-01   Descent step
 Energy components after cycle 4:
 DFT Correlation    Energy =  -0.39252027651982
 DFT Exchange       Energy = -12.07389957448740
 Kinetic            Energy = 107.90615291883908
 Nuclear Attraction Energy = -200.40094223370218
 Nuclear Repulsion  Energy = -31.10949437582012
 Total Coulomb      Energy =  28.62667876611163
 Time for RI-J this SCF iteration is 1.55 s
    5    -107.4502320264      1.09e-01   Descent step
 Energy components after cycle 5:
 DFT Correlation    Energy =  -0.39238155944006
 DFT Exchange       Energy = -12.03087848933312
 Kinetic            Energy = 107.58762966921415
 Nuclear Attraction Energy = -199.83332404550231
 Nuclear Repulsion  Energy = -31.10949437582012
 Total Coulomb      Energy =  28.32821677443566
 Time for RI-J this SCF iteration is 1.54 s
    6    -107.4536614402      7.02e-02   Descent step
 Energy components after cycle 6:
 DFT Correlation    Energy =  -0.39227908113707
 DFT Exchange       Energy = -11.98860310324757
 Kinetic            Energy = 107.28020503240641
 Nuclear Attraction Energy = -199.27854797455021
 Nuclear Repulsion  Energy = -31.10949437582012
 Total Coulomb      Energy =  28.03505806217506
 Time for RI-J this SCF iteration is 1.53 s
    7    -107.4544456842      3.16e-02   Descent step
 Energy components after cycle 7:
 DFT Correlation    Energy =  -0.39217875024183
 DFT Exchange       Energy = -11.94873774217475
 Kinetic            Energy = 107.00910504208007
 Nuclear Attraction Energy = -198.77171971527113
 Nuclear Repulsion  Energy = -31.10949437582012
 Total Coulomb      Energy =  27.75857985723086
 Time for RI-J this SCF iteration is 1.60 s
    8    -107.4545900301      7.85e-03   Normal BFGS step
 Energy components after cycle 8:
 DFT Correlation    Energy =  -0.39206107093330
 DFT Exchange       Energy = -11.95978547465995
 Kinetic            Energy = 107.13657763323395
 Nuclear Attraction Energy = -198.96465522704239
 Nuclear Repulsion  Energy = -31.10949437582012
 Total Coulomb      Energy =  27.83482848512306
 Time for RI-J this SCF iteration is 1.62 s
    9    -107.4545905960      2.45e-04   Normal BFGS step
 Energy components after cycle 9:
 DFT Correlation    Energy =  -0.39206688790849
 DFT Exchange       Energy = -11.95950902386065
 Kinetic            Energy = 107.12841527365671
 Nuclear Attraction Energy = -198.95541234748896
 Nuclear Repulsion  Energy = -31.10949437582012
 Total Coulomb      Energy =  27.83347676546351
 Time for RI-J this SCF iteration is 1.53 s
   10    -107.4545906039      4.39e-05   Normal BFGS step
 Energy components after cycle 10:
 DFT Correlation    Energy =  -0.39206646139092
 DFT Exchange       Energy = -11.95951145329972
 Kinetic            Energy = 107.12870168785248
 Nuclear Attraction Energy = -198.95559906981200
 Nuclear Repulsion  Energy = -31.10949437582012
 Total Coulomb      Energy =  27.83337906860559
 Time for RI-J this SCF iteration is 1.55 s
   11    -107.4545906045      1.55e-05   Normal BFGS step
 Energy components after cycle 11:
 DFT Correlation    Energy =  -0.39206634428592
 DFT Exchange       Energy = -11.95951265396694
 Kinetic            Energy = 107.12879734251061
 Nuclear Attraction Energy = -198.95570423810767
 Nuclear Repulsion  Energy = -31.10949437582012
 Total Coulomb      Energy =  27.83338966516873
 Time for RI-J this SCF iteration is 1.48 s
   12    -107.4545906045      1.13e-06   Normal BFGS step
 Energy components after cycle 12:
 DFT Correlation    Energy =  -0.39206636423297
 DFT Exchange       Energy = -11.95951200287730
 Kinetic            Energy = 107.12877317451316
 Nuclear Attraction Energy = -198.95568181823509
 Nuclear Repulsion  Energy = -31.10949437582012
 Total Coulomb      Energy =  27.83339078214419
   12    -107.4545906045      1.13e-06  Convergence criterion met
 ----------------------------------------------
 Final energy components:
 DFT Correlation    Energy =  -0.39206636423297
 DFT Exchange       Energy = -11.95951200287730
 Kinetic            Energy = 107.12877317451316
 Nuclear Attraction Energy = -198.95568181823509
 Nuclear Repulsion  Energy = -31.10949437582012
 Total Coulomb      Energy =  27.83339078214419
 ----------------------------------------------
 Final energy is -107.4545906045

 SCF time:   CPU 8079.80s  wall 377.00s 
 Total wall time for computing Kinetic: 0.05 s (14)
 Total wall time for computing RIJ-BIGMEM: 45.82 s (14)
 Total wall time for computing RSDF Vnuc: 0.17 s (14)
 Total wall time for computing DFT XC: 192.53 s (14)
 ---------------------------------------------------------------------------
                        Orbital Energies (a.u.)
 ---------------------------------------------------------------------------
 == 0-th k-point (-0.27639,-0.27639,-0.27639) occupation: 6==
 -23.85915 -1.46327 -0.68430 -0.03722 0.02961 0.02961 0.43212 0.66788 0.76332 0.76332
 1.08451 1.11150 1.11150 1.39174 1.39174 1.39188 1.63739 1.75040 1.75040 1.82866
 1.98760 1.98760 2.38233 2.47447 2.56811 2.56811 2.76338 2.78433 2.78433 2.80509
 2.80509 2.87393 2.97716 3.14277 3.14277 3.76236 3.96269 3.96269 4.27937 4.73532
 4.73532 4.76413 4.79652 5.20774 5.20774 5.45610 6.25420 6.25420 6.29106 6.30204
 6.30204 6.54940 7.43555 7.43555 7.47672 8.52888 8.56944 8.56944 11.60738 11.60738
 11.62620 11.63534 11.63534 11.66925 11.68440 11.70306 11.70306 13.01476 14.91289 14.92245
 14.95347 14.95347 15.15986 15.15986 15.36201 16.69549 16.69549 16.70944 16.70944 16.77760
 17.23090 55.79204 286.55546
 == 1-th k-point (-0.13819,-0.13819,-0.41458) occupation: 6==
 -23.85915 -1.46330 -0.68359 -0.02706 0.01815 0.01959 0.45864 0.67438 0.76231 0.78309
 0.90103 1.20255 1.20914 1.34576 1.37512 1.49057 1.56382 1.64280 1.76609 1.92748
 1.95472 2.06466 2.26767 2.33999 2.47452 2.56021 2.64294 2.74352 2.85642 2.92600
 3.02655 3.09628 3.15710 3.51728 3.65544 3.95629 4.02086 4.30083 4.53348 4.78720
 4.82817 4.86651 5.06800 5.13292 5.34072 6.20271 6.25470 6.31577 6.34044 6.39104
 6.72318 7.48342 7.67963 7.85379 8.44729 8.59570 8.70952 11.60756 11.60881 11.61594
 11.62328 11.63169 11.64673 11.65887 11.66137 11.72069 12.34143 14.81977 14.92717 14.95079
 14.96200 15.07998 15.12437 15.21684 16.68825 16.69921 16.75123 16.77198 16.83095 17.31151
 55.77388 286.52515
 == 2-th k-point (-0.00000,0.00000,-0.55277) occupation: 6==
 -23.85915 -1.46279 -0.67776 -0.04619 0.00779 0.00779 0.51212 0.68104 0.72734 0.78927
 0.78927 1.30764 1.34416 1.41118 1.41118 1.59444 1.60524 1.62170 1.62170 1.84516
 2.04200 2.04200 2.05616 2.48580 2.58810 2.58810 2.59803 2.62823 2.79979 2.84994
 2.84994 2.88448 3.13407 3.54975 3.86821 3.86821 4.12974 4.64643 4.64643 4.90839
 5.03101 5.05454 5.05454 5.06604 5.96330 6.16786 6.16786 6.18157 6.37576 6.38910
 7.69965 7.73747 7.73747 7.98923 8.43008 8.43008 11.59613 11.61717 11.61717 11.62666
 11.63527 11.64144 11.64144 11.66642 11.71522 12.70777 14.88251 14.88251 14.97315 15.06702
 15.06974 15.06974 15.10378 16.62316 16.62378 16.62378 16.76417 16.77259 16.93984 55.51428
 286.19881
 == 3-th k-point (0.13819,0.13819,-0.69096) occupation: 6==
 -23.85915 -1.46226 -0.67240 -0.06171 -0.00845 0.00553 0.55451 0.62156 0.71028 0.77429
 0.85425 1.28793 1.35999 1.40681 1.48961 1.54583 1.64407 1.71922 1.87515 1.89377
 1.98231 2.01388 2.13945 2.19966 2.32039 2.40807 2.46681 2.60438 2.71381 2.84709
 2.88260 2.98699 3.09408 3.34954 3.53943 3.83924 3.84393 4.01279 4.72806 4.81603
 4.83023 5.03366 5.18656 5.20103 5.48392 5.82483 5.93565 6.13058 6.30078 6.32570
 6.38737 7.51852 7.75828 8.00567 8.22764 8.33728 8.56219 11.60409 11.61724 11.63273
 11.64205 11.64795 11.65159 11.66085 11.67428 11.72548 12.76530 14.91091 14.93176 14.97359
 15.05876 15.16594 15.18917 15.33211 16.35312 16.41144 16.66247 16.72775 16.79812 17.13665
 55.66947 286.40079
 == 4-th k-point (0.27639,0.27639,-0.82916) occupation: 6==
 -23.85915 -1.46223 -0.67317 -0.04433 -0.03075 0.01486 0.53984 0.59269 0.73605 0.75556
 0.97470 1.22979 1.23919 1.35320 1.42756 1.62846 1.68753 1.86674 1.89834 1.96045
 2.01930 2.03037 2.17281 2.27601 2.34358 2.42338 2.46088 2.50117 2.64602 2.68632
 2.79929 2.88596 2.93038 3.20276 3.64273 3.67367 3.72141 3.78806 3.95074 4.72666
 4.74093 5.14138 5.36869 5.45438 5.54483 5.54595 5.63018 5.81165 6.09143 6.25137
 6.81871 7.23513 7.61453 7.71247 7.75383 8.38262 8.44853 8.51157 11.59806 11.63390
 11.63478 11.63814 11.64863 11.65152 11.65256 11.69918 11.70073 12.56185 14.88918 14.93487
 15.11953 15.26457 15.30672 15.32312 15.38066 16.24519 16.30922 16.63562 16.69215 17.18520
 17.84799 56.14527 286.99097
 == 5-th k-point (0.41458,0.41458,-0.96735) occupation: 6==
 -23.85915 -1.46273 -0.67924 -0.04403 0.00083 0.02713 0.47002 0.63033 0.75078 0.75270
 1.10870 1.12539 1.13912 1.39171 1.41181 1.49516 1.62542 1.81318 1.87615 1.88930
[...]
 0.85425 1.28793 1.35999 1.40681 1.48961 1.54583 1.64407 1.71922 1.87515 1.89377
 1.98231 2.01388 2.13945 2.19966 2.32039 2.40807 2.46681 2.60438 2.71381 2.84709
 2.88260 2.98699 3.09408 3.34954 3.53943 3.83924 3.84393 4.01279 4.72806 4.81603
 4.83023 5.03366 5.18656 5.20103 5.48392 5.82484 5.93565 6.13058 6.30078 6.32570
 6.38737 7.51852 7.75828 8.00567 8.22764 8.33728 8.56219 11.60409 11.61724 11.63273
 11.64205 11.64795 11.65159 11.66085 11.67428 11.72548 12.76530 14.91091 14.93176 14.97359
 15.05876 15.16594 15.18917 15.33211 16.35312 16.41144 16.66247 16.72775 16.79812 17.13665
 55.66947 286.40079
 == 192-th k-point (-0.69096,0.13819,0.69096) occupation: 6==
 -23.85915 -1.46226 -0.67240 -0.06171 -0.00845 0.00553 0.55451 0.62156 0.71028 0.77429
 0.85425 1.28793 1.35999 1.40681 1.48961 1.54583 1.64407 1.71922 1.87515 1.89377
 1.98231 2.01388 2.13945 2.19966 2.32039 2.40807 2.46681 2.60438 2.71381 2.84709
 2.88260 2.98699 3.09408 3.34954 3.53943 3.83924 3.84393 4.01279 4.72806 4.81603
 4.83023 5.03366 5.18656 5.20103 5.48392 5.82483 5.93565 6.13058 6.30078 6.32570
 6.38737 7.51852 7.75828 8.00567 8.22764 8.33728 8.56220 11.60409 11.61724 11.63273
 11.64205 11.64795 11.65159 11.66085 11.67428 11.72548 12.76530 14.91091 14.93176 14.97359
 15.05876 15.16594 15.18917 15.33211 16.35312 16.41144 16.66247 16.72775 16.79812 17.13665
 55.66947 286.40079
 == 193-th k-point (-0.55277,0.27639,0.55277) occupation: 6==
 -23.85915 -1.46255 -0.67750 -0.05266 0.00564 0.01994 0.47607 0.63284 0.73946 0.74884
 1.01752 1.21585 1.23106 1.38029 1.42353 1.42989 1.68384 1.72121 1.91641 1.94694
 1.96250 2.05235 2.21800 2.26724 2.34136 2.36196 2.48400 2.66379 2.68172 2.78048
 2.88113 2.88886 2.95096 3.54047 3.66355 3.68855 3.80013 3.85513 4.18411 4.48557
 4.75854 5.09062 5.14874 5.38335 5.51354 5.52228 6.11872 6.14644 6.22812 6.54181
 6.63341 6.64592 7.37169 7.85892 8.06048 8.23018 8.45771 8.51604 11.61667 11.61816
 11.62279 11.63415 11.64594 11.65485 11.66031 11.67302 11.70553 12.69077 14.79015 14.91570
 15.09796 15.12668 15.24906 15.32817 15.33802 16.58515 16.62642 16.69946 16.98971 17.00827
 17.42310 55.98220 286.79637
 == 194-th k-point (-0.41458,0.41458,0.41458) occupation: 6==
 -23.85915 -1.46270 -0.67998 -0.05803 0.02759 0.02759 0.43490 0.65599 0.73506 0.73506
 1.16688 1.18721 1.18721 1.27746 1.41279 1.41279 1.72372 1.72372 1.80722 2.00661
 2.00661 2.01215 2.09300 2.32792 2.32792 2.49266 2.70221 2.80215 2.80215 2.87073
 2.87074 2.91862 2.96738 3.65157 3.65157 3.76301 3.76301 3.80028 4.18936 4.37035
 4.76643 5.25845 5.25846 5.50993 5.50993 5.60513 6.11619 6.11619 6.15857 6.55326
 6.55326 6.98185 6.98185 7.19717 7.66220 7.70258 8.23389 8.23389 11.60208 11.60208
 11.61919 11.62572 11.62572 11.66138 11.66138 11.67122 11.74491 13.18766 14.72738 14.92121
 15.17826 15.17826 15.31263 15.31263 15.45895 16.58932 16.58932 16.67065 16.94768 16.94768
 18.07286 56.44553 287.35682
 == 195-th k-point (-0.27639,0.55277,0.27639) occupation: 6==
 -23.85915 -1.46255 -0.67750 -0.05266 0.00564 0.01994 0.47607 0.63284 0.73946 0.74884
 1.01752 1.21585 1.23106 1.38029 1.42353 1.42989 1.68384 1.72121 1.91641 1.94694
 1.96250 2.05235 2.21800 2.26724 2.34136 2.36196 2.48400 2.66379 2.68172 2.78048
 2.88113 2.88886 2.95096 3.54047 3.66355 3.68855 3.80013 3.85513 4.18411 4.48557
 4.75854 5.09062 5.14874 5.38335 5.51354 5.52228 6.11872 6.14644 6.22812 6.54181
 6.63341 6.64592 7.37169 7.85892 8.06048 8.23018 8.45771 8.51604 11.61667 11.61816
 11.62279 11.63415 11.64594 11.65485 11.66031 11.67302 11.70553 12.69077 14.79015 14.91570
 15.09796 15.12668 15.24906 15.32817 15.33802 16.58515 16.62642 16.69946 16.98971 17.00827
 17.42310 55.98220 286.79637
 == 196-th k-point (-0.13819,0.69096,0.13819) occupation: 6==
 -23.85915 -1.46226 -0.67240 -0.06171 -0.00845 0.00553 0.55451 0.62156 0.71028 0.77429
 0.85425 1.28793 1.35999 1.40681 1.48961 1.54583 1.64407 1.71922 1.87515 1.89377
 1.98231 2.01388 2.13945 2.19966 2.32039 2.40807 2.46681 2.60438 2.71381 2.84709
 2.88260 2.98699 3.09408 3.34954 3.53943 3.83924 3.84393 4.01279 4.72806 4.81603
 4.83023 5.03366 5.18656 5.20103 5.48392 5.82483 5.93565 6.13058 6.30078 6.32570
 6.38737 7.51852 7.75828 8.00567 8.22764 8.33728 8.56220 11.60409 11.61724 11.63273
 11.64205 11.64795 11.65159 11.66085 11.67428 11.72548 12.76530 14.91091 14.93176 14.97359
 15.05876 15.16594 15.18917 15.33211 16.35312 16.41144 16.66247 16.72775 16.79812 17.13665
 55.66947 286.40079
 == 197-th k-point (0.00000,0.82916,0.00000) occupation: 6==
 -23.85915 -1.46211 -0.66978 -0.07649 -0.00127 -0.00127 0.58433 0.64369 0.68359 0.78592
 0.78592 1.27692 1.45561 1.51286 1.63274 1.63274 1.65753 1.67211 1.67211 1.92277
 1.92277 2.04048 2.08235 2.20246 2.20246 2.31866 2.31957 2.66933 2.73826 2.84232
 2.84232 2.90587 3.11679 3.47656 3.90708 3.90708 4.17385 4.81156 4.86231 5.03614
 5.03614 5.10433 5.34964 5.34964 5.57208 5.57208 5.71475 6.13675 6.30291 6.30441
 7.55890 8.08373 8.14064 8.14064 8.68545 8.68545 11.59613 11.59757 11.59757 11.61832
 11.64638 11.64682 11.64682 11.68309 11.74451 13.31878 14.93267 14.96112 15.04535 15.04535
 15.10947 15.38383 15.38383 16.02591 16.02591 16.53767 16.58473 16.71483 16.82462 55.28843
 285.91662
 == 198-th k-point (-0.55277,-0.00000,0.82916) occupation: 6==
 -23.85915 -1.46208 -0.67055 -0.05970 -0.02233 0.00441 0.58663 0.60627 0.68298 0.75839
 0.92300 1.20649 1.29679 1.44766 1.57874 1.62617 1.64053 1.76741 1.82063 1.89875
 2.02128 2.09751 2.11072 2.18818 2.26275 2.37238 2.43089 2.53314 2.64893 2.83089
 2.86907 3.05347 3.17374 3.43881 3.58278 3.73270 3.74872 4.30032 4.52022 4.65299
 4.99181 5.18496 5.32023 5.44524 5.52462 5.57148 5.94764 6.06240 6.15663 6.36865
 7.08977 7.38940 7.50256 7.74299 8.45061 8.52803 8.75983 11.61859 11.62747 11.63054
 11.63452 11.64412 11.64557 11.65911 11.67994 11.85940 12.36553 14.79327 14.89033 15.06293
 15.14238 15.28861 15.30613 15.39659 16.15148 16.51825 16.58212 16.60879 16.79321 17.59205
 55.78283 286.54424
 == 199-th k-point (-0.41458,0.13819,0.69096) occupation: 6==
 -23.85915 -1.46223 -0.67317 -0.04679 -0.02633 0.01267 0.53727 0.60466 0.72320 0.74866
 1.04493 1.07463 1.34969 1.38756 1.47911 1.48798 1.71834 1.81616 1.93145 1.97487
 1.98998 2.01216 2.20082 2.26660 2.30921 2.38272 2.43931 2.45327 2.58928 2.77645
 2.80237 2.88929 3.43612 3.43789 3.47879 3.67811 3.80546 3.81566 4.69385 4.86501
 5.09750 5.19551 5.42202 5.46589 5.47108 5.59584 5.96367 6.10659 6.28429 6.38263
 6.76991 7.40612 7.61509 8.13156 8.19724 8.26470 8.36317 11.61841 11.62247 11.62401
 11.62862 11.63872 11.64984 11.65091 11.67467 11.69560 12.34646 14.87444 14.98000 15.10742
 15.14409 15.26930 15.31171 15.35716 16.21115 16.45794 16.61262 16.81010 16.93404 17.25088
 55.69119 286.43804
 == 200-th k-point (-0.27639,0.27639,0.55277) occupation: 6==
 -23.85915 -1.46255 -0.67750 -0.05266 0.00564 0.01994 0.47607 0.63284 0.73946 0.74884
 1.01752 1.21585 1.23106 1.38029 1.42353 1.42989 1.68384 1.72121 1.91641 1.94694
 1.96250 2.05235 2.21800 2.26724 2.34136 2.36196 2.48400 2.66379 2.68172 2.78048
 2.88113 2.88886 2.95096 3.54047 3.66355 3.68855 3.80013 3.85513 4.18411 4.48557
 4.75854 5.09062 5.14874 5.38335 5.51354 5.52228 6.11872 6.14644 6.22812 6.54181
 6.63341 6.64592 7.37169 7.85892 8.06048 8.23018 8.45771 8.51604 11.61667 11.61816
 11.62279 11.63415 11.64594 11.65485 11.66031 11.67302 11.70553 12.69077 14.79015 14.91570
 15.09796 15.12668 15.24906 15.32817 15.33802 16.58515 16.62642 16.69946 16.98971 17.00827
 17.42310 55.98220 286.79637
 == 201-th k-point (-0.13819,0.41458,0.41458) occupation: 6==
 -23.85915 -1.46273 -0.67924 -0.04403 0.00083 0.02713 0.47002 0.63033 0.75078 0.75270
 1.10870 1.12539 1.13912 1.39171 1.41181 1.49516 1.62542 1.81318 1.87615 1.88930
 1.90109 2.00105 2.25108 2.26487 2.39966 2.45334 2.58496 2.67475 2.77905 2.81924
 2.84669 2.88532 2.92066 3.42306 3.59829 3.65550 3.86372 3.91938 4.20754 4.52018
 4.73569 5.04164 5.16656 5.34748 5.50262 5.50883 6.15671 6.16714 6.23062 6.39532
 6.69822 6.82596 7.40018 7.71552 8.01572 8.30405 8.52139 8.60035 11.60643 11.61398
 11.62298 11.62996 11.63045 11.65452 11.66616 11.68622 11.70267 12.56794 14.80715 14.90443
 15.06672 15.13282 15.23284 15.30634 15.32369 16.59618 16.64607 16.70968 16.79458 17.16589
 17.42579 55.93917 286.74005
 == 202-th k-point (0.00000,0.55277,0.27639) occupation: 6==
 -23.85915 -1.46258 -0.67675 -0.04277 -0.01073 0.01671 0.51033 0.62400 0.73414 0.76325
 0.94319 1.17728 1.31950 1.38107 1.42321 1.53646 1.62872 1.76563 1.78646 1.86592
 2.01812 2.06968 2.20042 2.28913 2.30345 2.44622 2.51064 2.55644 2.82573 2.85768
 2.89122 2.94225 3.19050 3.46872 3.70038 3.81055 3.94930 4.07213 4.63260 4.75371
 4.81383 5.03585 5.17242 5.38525 5.50941 6.07096 6.13737 6.24211 6.25043 6.45117
 6.59110 7.43979 7.48331 8.08071 8.31724 8.37577 8.58988 11.61543 11.61553 11.62174
 11.63272 11.64000 11.65298 11.65515 11.65994 11.72736 12.22574 14.87128 14.91365 14.94951
 15.06681 15.13365 15.26490 15.30678 16.51584 16.64643 16.66765 16.73842 17.04865 17.18881
 55.75579 286.51130
 == 203-th k-point (0.13819,0.69096,0.13819) occupation: 6==
 -23.85915 -1.46226 -0.67240 -0.06171 -0.00845 0.00553 0.55451 0.62156 0.71028 0.77429
 0.85425 1.28793 1.35999 1.40681 1.48961 1.54583 1.64407 1.71922 1.87515 1.89377
 1.98231 2.01388 2.13945 2.19966 2.32039 2.40807 2.46681 2.60438 2.71381 2.84709
 2.88260 2.98699 3.09408 3.34954 3.53943 3.83924 3.84393 4.01279 4.72806 4.81603
 4.83023 5.03366 5.18656 5.20103 5.48392 5.82484 5.93565 6.13058 6.30078 6.32570
 6.38737 7.51852 7.75828 8.00567 8.22764 8.33728 8.56219 11.60409 11.61724 11.63273
 11.64205 11.64795 11.65159 11.66085 11.67428 11.72548 12.76530 14.91091 14.93176 14.97359
 15.05876 15.16594 15.18917 15.33211 16.35312 16.41144 16.66247 16.72775 16.79812 17.13665
 55.66947 286.40079
 == 204-th k-point (-0.41458,-0.13819,0.96735) occupation: 6==
 -23.85915 -1.46223 -0.67317 -0.04679 -0.02633 0.01267 0.53727 0.60466 0.72320 0.74866
 1.04493 1.07463 1.34969 1.38756 1.47911 1.48798 1.71834 1.81616 1.93145 1.97487
 1.98998 2.01216 2.20082 2.26660 2.30921 2.38272 2.43931 2.45327 2.58927 2.77645
 2.80237 2.88929 3.43612 3.43789 3.47879 3.67811 3.80546 3.81566 4.69385 4.86501
 5.09750 5.19551 5.42202 5.46589 5.47108 5.59584 5.96367 6.10659 6.28429 6.38263
 6.76991 7.40612 7.61509 8.13156 8.19724 8.26470 8.36317 11.61841 11.62247 11.62401
 11.62862 11.63872 11.64984 11.65091 11.67467 11.69560 12.34646 14.87444 14.98000 15.10742
 15.14409 15.26930 15.31171 15.35716 16.21115 16.45794 16.61262 16.81010 16.93404 17.25088
 55.69119 286.43804
 == 205-th k-point (-0.27639,-0.00000,0.82916) occupation: 6==
 -23.85915 -1.46208 -0.67055 -0.05970 -0.02233 0.00441 0.58663 0.60627 0.68298 0.75839
 0.92300 1.20649 1.29679 1.44766 1.57874 1.62617 1.64053 1.76741 1.82063 1.89875
 2.02128 2.09751 2.11072 2.18818 2.26275 2.37238 2.43089 2.53314 2.64893 2.83089
 2.86907 3.05347 3.17374 3.43881 3.58278 3.73270 3.74872 4.30032 4.52022 4.65299
 4.99181 5.18496 5.32023 5.44524 5.52462 5.57148 5.94764 6.06240 6.15663 6.36865
 7.08977 7.38940 7.50256 7.74299 8.45061 8.52803 8.75983 11.61859 11.62747 11.63054
 11.63452 11.64412 11.64557 11.65911 11.67994 11.85940 12.36553 14.79327 14.89033 15.06293
 15.14238 15.28861 15.30613 15.39659 16.15148 16.51825 16.58212 16.60879 16.79321 17.59205
 55.78283 286.54424
 == 206-th k-point (-0.13819,0.13819,0.69096) occupation: 6==
 -23.85915 -1.46226 -0.67240 -0.06171 -0.00845 0.00553 0.55451 0.62156 0.71028 0.77429
 0.85425 1.28793 1.35999 1.40681 1.48961 1.54583 1.64407 1.71922 1.87515 1.89377
 1.98231 2.01388 2.13945 2.19966 2.32039 2.40807 2.46681 2.60438 2.71381 2.84709
 2.88260 2.98699 3.09408 3.34954 3.53943 3.83924 3.84393 4.01279 4.72806 4.81603
 4.83023 5.03366 5.18656 5.20103 5.48392 5.82483 5.93565 6.13058 6.30078 6.32570
 6.38737 7.51852 7.75828 8.00567 8.22764 8.33728 8.56219 11.60409 11.61724 11.63273
 11.64205 11.64795 11.65159 11.66085 11.67428 11.72548 12.76530 14.91091 14.93176 14.97359
 15.05876 15.16594 15.18917 15.33211 16.35312 16.41144 16.66247 16.72775 16.79812 17.13665
 55.66947 286.40079
 == 207-th k-point (0.00000,0.27639,0.55277) occupation: 6==
 -23.85915 -1.46258 -0.67675 -0.04277 -0.01073 0.01671 0.51033 0.62400 0.73414 0.76325
 0.94319 1.17728 1.31950 1.38107 1.42321 1.53646 1.62872 1.76563 1.78646 1.86592
 2.01812 2.06968 2.20042 2.28913 2.30345 2.44622 2.51064 2.55644 2.82573 2.85768
 2.89122 2.94225 3.19050 3.46872 3.70038 3.81055 3.94930 4.07213 4.63260 4.75371
 4.81383 5.03585 5.17242 5.38525 5.50941 6.07096 6.13737 6.24211 6.25043 6.45117
 6.59110 7.43979 7.48331 8.08071 8.31724 8.37577 8.58988 11.61543 11.61553 11.62174
 11.63272 11.64000 11.65298 11.65515 11.65994 11.72736 12.22574 14.87128 14.91365 14.94951
 15.06681 15.13365 15.26490 15.30678 16.51584 16.64643 16.66765 16.73842 17.04865 17.18881
 55.75579 286.51130
 == 208-th k-point (0.13819,0.41458,0.41458) occupation: 6==
 -23.85915 -1.46273 -0.67924 -0.04403 0.00083 0.02713 0.47002 0.63033 0.75078 0.75270
 1.10870 1.12539 1.13912 1.39171 1.41181 1.49516 1.62542 1.81318 1.87615 1.88930
 1.90109 2.00105 2.25108 2.26487 2.39966 2.45334 2.58496 2.67475 2.77905 2.81924
 2.84670 2.88532 2.92066 3.42306 3.59829 3.65550 3.86372 3.91938 4.20754 4.52018
 4.73569 5.04164 5.16656 5.34748 5.50262 5.50883 6.15671 6.16714 6.23062 6.39532
 6.69822 6.82596 7.40018 7.71552 8.01572 8.30405 8.52139 8.60035 11.60643 11.61398
 11.62298 11.62996 11.63045 11.65452 11.66616 11.68622 11.70267 12.56794 14.80715 14.90443
 15.06672 15.13282 15.23284 15.30634 15.32369 16.59618 16.64607 16.70968 16.79458 17.16589
 17.42579 55.93917 286.74005
 == 209-th k-point (0.27639,0.55277,0.27639) occupation: 6==
 -23.85915 -1.46255 -0.67750 -0.05266 0.00564 0.01994 0.47607 0.63284 0.73946 0.74884
 1.01752 1.21585 1.23106 1.38029 1.42353 1.42989 1.68384 1.72121 1.91641 1.94694
 1.96250 2.05235 2.21800 2.26724 2.34136 2.36196 2.48400 2.66379 2.68172 2.78048
 2.88113 2.88886 2.95096 3.54047 3.66355 3.68855 3.80013 3.85513 4.18411 4.48557
 4.75854 5.09062 5.14874 5.38335 5.51354 5.52228 6.11872 6.14644 6.22812 6.54181
 6.63341 6.64592 7.37169 7.85892 8.06048 8.23018 8.45771 8.51604 11.61667 11.61816
 11.62279 11.63415 11.64594 11.65485 11.66031 11.67302 11.70553 12.69077 14.79015 14.91570
 15.09796 15.12668 15.24906 15.32817 15.33802 16.58515 16.62642 16.69946 16.98971 17.00827
 17.42310 55.98220 286.79637
 == 210-th k-point (-0.27639,-0.27639,1.10554) occupation: 6==
 -23.85915 -1.46255 -0.67750 -0.05266 0.00564 0.01994 0.47607 0.63284 0.73946 0.74884
 1.01752 1.21585 1.23106 1.38029 1.42353 1.42989 1.68384 1.72121 1.91641 1.94694
 1.96250 2.05235 2.21800 2.26724 2.34136 2.36196 2.48400 2.66379 2.68172 2.78048
 2.88113 2.88886 2.95096 3.54047 3.66355 3.68855 3.80013 3.85513 4.18411 4.48557
 4.75854 5.09062 5.14874 5.38335 5.51354 5.52228 6.11872 6.14644 6.22812 6.54181
 6.63341 6.64592 7.37169 7.85892 8.06048 8.23018 8.45771 8.51604 11.61667 11.61816
 11.62279 11.63415 11.64594 11.65485 11.66031 11.67302 11.70553 12.69077 14.79015 14.91570
 15.09796 15.12668 15.24906 15.32817 15.33802 16.58515 16.62642 16.69946 16.98971 17.00827
 17.42310 55.98220 286.79637
 == 211-th k-point (-0.13819,-0.13819,0.96735) occupation: 6==
 -23.85915 -1.46226 -0.67240 -0.06171 -0.00845 0.00553 0.55451 0.62156 0.71028 0.77429
 0.85425 1.28793 1.35999 1.40681 1.48961 1.54583 1.64407 1.71922 1.87515 1.89377
 1.98231 2.01388 2.13945 2.19966 2.32039 2.40807 2.46681 2.60438 2.71381 2.84709
 2.88260 2.98699 3.09408 3.34954 3.53943 3.83924 3.84393 4.01279 4.72806 4.81603
 4.83023 5.03366 5.18656 5.20103 5.48392 5.82484 5.93565 6.13058 6.30078 6.32570
 6.38737 7.51852 7.75828 8.00567 8.22764 8.33728 8.56219 11.60409 11.61724 11.63273
 11.64205 11.64795 11.65159 11.66085 11.67428 11.72548 12.76530 14.91091 14.93176 14.97359
 15.05876 15.16594 15.18917 15.33211 16.35312 16.41144 16.66247 16.72775 16.79812 17.13665
 55.66947 286.40079
 == 212-th k-point (0.00000,-0.00000,0.82916) occupation: 6==
 -23.85915 -1.46211 -0.66978 -0.07649 -0.00127 -0.00127 0.58433 0.64369 0.68359 0.78592
 0.78592 1.27692 1.45561 1.51286 1.63274 1.63274 1.65753 1.67211 1.67211 1.92277
 1.92277 2.04048 2.08235 2.20246 2.20246 2.31866 2.31957 2.66933 2.73826 2.84232
 2.84232 2.90587 3.11679 3.47656 3.90708 3.90708 4.17385 4.81156 4.86231 5.03614
 5.03614 5.10433 5.34964 5.34964 5.57208 5.57208 5.71475 6.13675 6.30291 6.30441
 7.55890 8.08373 8.14064 8.14064 8.68545 8.68545 11.59613 11.59757 11.59757 11.61832
 11.64638 11.64682 11.64682 11.68309 11.74451 13.31878 14.93267 14.96112 15.04535 15.04535
 15.10947 15.38383 15.38383 16.02591 16.02591 16.53767 16.58473 16.71483 16.82462 55.28843
 285.91662
 == 213-th k-point (0.13819,0.13819,0.69096) occupation: 6==
 -23.85915 -1.46226 -0.67240 -0.06171 -0.00845 0.00553 0.55451 0.62156 0.71028 0.77429
 0.85425 1.28793 1.35999 1.40681 1.48961 1.54583 1.64407 1.71922 1.87515 1.89377
 1.98231 2.01388 2.13945 2.19966 2.32039 2.40807 2.46681 2.60438 2.71381 2.84709
 2.88260 2.98699 3.09408 3.34954 3.53943 3.83924 3.84393 4.01279 4.72806 4.81603
 4.83023 5.03366 5.18656 5.20103 5.48392 5.82484 5.93565 6.13058 6.30078 6.32570
 6.38737 7.51852 7.75828 8.00567 8.22764 8.33728 8.56219 11.60409 11.61724 11.63273
 11.64205 11.64795 11.65159 11.66085 11.67428 11.72548 12.76530 14.91091 14.93176 14.97359
 15.05876 15.16594 15.18917 15.33211 16.35312 16.41144 16.66247 16.72775 16.79812 17.13665
 55.66947 286.40079
 == 214-th k-point (0.27639,0.27639,0.55277) occupation: 6==
 -23.85915 -1.46255 -0.67750 -0.05266 0.00564 0.01994 0.47607 0.63284 0.73946 0.74884
 1.01752 1.21585 1.23106 1.38029 1.42353 1.42989 1.68384 1.72121 1.91641 1.94694
 1.96250 2.05235 2.21800 2.26724 2.34136 2.36196 2.48400 2.66379 2.68172 2.78048
 2.88113 2.88886 2.95096 3.54047 3.66355 3.68855 3.80013 3.85513 4.18411 4.48557
 4.75854 5.09062 5.14874 5.38335 5.51354 5.52228 6.11872 6.14644 6.22812 6.54181
 6.63341 6.64592 7.37169 7.85892 8.06048 8.23018 8.45771 8.51604 11.61667 11.61816
 11.62279 11.63415 11.64594 11.65485 11.66031 11.67302 11.70553 12.69077 14.79015 14.91570
 15.09796 15.12668 15.24906 15.32817 15.33802 16.58515 16.62642 16.69946 16.98971 17.00827
 17.42310 55.98220 286.79637
 == 215-th k-point (0.41458,0.41458,0.41458) occupation: 6==
 -23.85915 -1.46270 -0.67998 -0.05803 0.02759 0.02759 0.43490 0.65599 0.73506 0.73506
 1.16688 1.18721 1.18721 1.27746 1.41279 1.41279 1.72372 1.72372 1.80722 2.00661
 2.00661 2.01215 2.09300 2.32792 2.32792 2.49266 2.70221 2.80215 2.80215 2.87074
 2.87074 2.91862 2.96738 3.65157 3.65157 3.76301 3.76301 3.80028 4.18936 4.37035
 4.76643 5.25846 5.25846 5.50993 5.50993 5.60513 6.11619 6.11619 6.15857 6.55326
 6.55326 6.98185 6.98185 7.19717 7.66220 7.70258 8.23389 8.23389 11.60208 11.60208
 11.61919 11.62572 11.62572 11.66138 11.66138 11.67122 11.74491 13.18766 14.72738 14.92121
 15.17826 15.17826 15.31263 15.31263 15.45895 16.58932 16.58932 16.67065 16.94768 16.94768
 18.07286 56.44553 287.35682
 ---------------------------------------------------------------------------
 VBM is at 86-th k-point with 0.98255 eV
 CBM is at 86-th k-point with 10.17377 eV
 Band gap is 9.19121 eV


           Ground-State Mulliken Net Atomic Charges

      Atom                 Charge (a.u.)          Spin (a.u.)
   --------------------------------------------------------
      1 Li                (0.167409,0.000000)    (0.000000,0.000000)
      2  F              (-0.167409,-0.000000)    (0.000000,0.000000)
   --------------------------------------------------------
  Sum of atomic charges =     (-0.000000,-0.000000)
  Sum of spin   charges =       (0.000000,0.000000)



 Total job time:  378.81 s.
 Tue Sep  9 00:48:43 2025


        *************************************************************
        *                                                           *
        *  Thank you very much for using QCPBC. Have a nice day.    *
        *                                                           *
        *************************************************************

Running job 1 of 1
