                  Welcome to Q-Chem
           with Periodic Boundary Condition
     A Quantum Leap Into The Future Of Chemistry

 Adam Rettig, Xintian Feng, Meng-Fu Chen, Hieu Dinh, Stephen Quiton,
 Anton Ni, Paul J. Robinson, Jinghong Zhang, Joonho Lee

Contributors to earlier versions of Q-Chem not listed above:
 Evgeny Epifanovsky, Leo Cunha, Jerome F. Gonthier, Kuan-Yu Liu
 Input file: /n/netscratch/joonholee_lab/Lab/hieudinh//lif_solve_def2qzvp_omega_0.6_999.scratch20250909033853/lif_solve_def2qzvp_omega_0.6_999.0
 Scratch folder: /n/netscratch/joonholee_lab/Lab/hieudinh//lif_solve_def2qzvp_omega_0.6_999.scratch20250909033853
 Auxillary files located at: /n/holylabs/LABS/joonholee_lab/Lab/qchem_base/qcaux
 Q-Chem begins on Tue Sep  9 03:38:54 2025

 -------------------------------------------------------------
 User input:
 -------------------------------------------------------------
 $lattice
 3
 0.000000 2.005000 2.005000
 2.005000 0.000000 2.005000
 2.005000 2.005000 0.000000
 $end
 
 $unitcell
 ABSOLUTE
 0 1
 Li 0.000000 0.000000 0.000000
 F  2.005000 0.000000 0.000000
 $end
 
 $rem
 jobtype = sp
 method = pbe
 scf_convergence = 5
 scf_guess = autosad
 scf_algorithm = gdm
 basis = def2-qzvp
 aux_basis = gen
 input_bohr = false
 symmetry false
 is_basis_uctr true
 rsdf_print_level 1
 
 mp_mesh = [9,9,9]
 
 integral_direct true
 bvk_cgto true
 
 thresh 14
 mem_total 100000
 threads 32
 
 MAX_SCF_CYCLES 400
 madelung = false
 omega 0.6
 do_rij_bigmem true
 automate_g true
 print_level 10
 grid_type_xc 1
 
 thresh_1e2c_sp 1e-14
 thresh_2e3c_bra_ket_sep 1e-10
 thresh_g 1e-12
 $end
 
 $aux_basis
 Li     0
 S   7   1.00
     498.3689730              0.0207908
     162.9342738              0.0542177
      57.3246735              0.1776783
      21.6427314              0.4181150
       8.7345375              0.6535245
       3.7491039              0.5492618
       1.7006754              0.1701425
 S   1   1.00
       0.8090859             -0.0097548
 S   1   1.00
       0.4000933             -0.0050152
 S   1   1.00
       0.2035793              0.0232200
 !S   1   1.00
 !      0.1054201              0.0134535
 !S   1   1.00
 !      0.0549139              0.0006647
 P   2   1.00
      10.7024696              0.0072923
       3.6551543              0.0060940
 P   1   1.00
       1.2464013              0.0172529
 P   1   1.00
       0.4246282             -0.0160026
 P   1   1.00
       0.1446192             -0.0195111
 D   2   1.00
       1.1510647             -0.0014314
       0.6019112              0.0038969
 D   1   1.00
       0.3109573              0.0024683
 D   1   1.00
       0.1600032              0.0036451
 F   2   1.00
       0.5967918              0.0010494
       0.1790687              0.0006468
 G   1   1.00
       1.0460130             -0.0001971
 ****
 F     0
 S   7   1.00
    3514.9201549              0.1805835
    1231.2458815              0.3676084
     454.1367336              1.2707881
     175.8376258              2.8274164
      71.2081775              4.3588226
      30.0316883              2.7180994
      13.1259023             -0.0804726
 S   1   1.00
       5.9126861             -0.0023370
 S   1   1.00
       2.7284431              1.1236274
 S   1   1.00
       1.2813993              0.9999042
 S   1   1.00
       0.6082793              0.3119579
 S   1   1.00
       0.2897894              0.0312295
 P   2   1.00
      49.3740409             -0.0346332
      13.4874956             -0.0096069
 P   1   1.00
       3.9664900              0.0762067
 P   1   1.00
       1.2226629             -0.0103329
 P   1   1.00
       0.3830317              0.0018853
 D   2   1.00
      29.9719140             -0.0113316
       6.7860915             -0.0467639
 D   1   1.00
       1.8137313             -0.0167604
 D   1   1.00
       0.5157840             -0.0050777
 F   2   1.00
       2.8301877              1.0
       0.9155962              1.0
 G   1   1.00
       1.6097500             -0.0005411
 ****
 $end
 -------------------------------------------------------------
 Running PBC job

 Requested Exchange Correlation Functionals: 
  DFT Exchange:  1.00000 pbe_x
  DFT Correlation:  1.00000 pbe_c
 using 32 threads for computing.
 ---------------------------------------------------------------
      Coordinates of Atoms in Central Unit Cell (Angstroms)
    I     Atom         X            Y            Z
 ---------------------------------------------------------------
    1      Li      0.000000     0.000000     0.000000
    2       F      2.005000     0.000000     0.000000
 ---------------------------------------------------------------
 --------------------------------------------------
              Lattice Vectors (Angstroms)
              X            Y            Z
 --------------------------------------------------
   X       0.000000     2.005000     2.005000
   Y       2.005000     0.000000     2.005000
   Z       2.005000     2.005000     0.000000
 --------------------------------------------------
 --------------------------------------------------
       Reciprocal Lattice Vectors (Angstroms^-1)
              X            Y            Z
 --------------------------------------------------
   X      -1.566879     1.566879     1.566879
   Y       1.566879    -1.566879     1.566879
   Z       1.566879     1.566879    -1.566879
 --------------------------------------------------

 Single point calculation requested

 Hamiltonian contributions:
 List of terms in Hamiltonian: kpts_nn, kpts_kinetic, kpts_vnuc_df, kpts_xc, kpts_rij_bigmem

 K-Points calculation started.

 Basis set information about using solid harmonic (1) or Cartesian (0):
  li : D(1) D(1) F(1) 
  f : D(1) D(1) D(1) F(1) F(1) G(1) 

 Basis set information about using solid harmonic (1) or Cartesian (0):
  li : D(1) D(1) D(1) F(1) G(1) 
  f : D(1) D(1) D(1) F(1) G(1) 

 There are 92 basis functions in the central unit cell.
 Print atomic basis of atoms in the central unit cell:
 -------------------------------------------------------------
2 53 53 30

  0.00000000000000e+00  0.00000000000000e+00  0.00000000000000e+00
  3.78890087987467e+00  0.00000000000000e+00  0.00000000000000e+00

  1.48539770850000e+04
  2.22522364770000e+03
  5.04887390080000e+02
  1.42458475480000e+02
  4.63155995800000e+01
  1.66553354740000e+01
  6.43311861990000e+00
  2.60270438580000e+00
  1.08972454050000e+00
  4.42365959710000e+00
  1.23563949900000e+00
  4.60674706020000e-01
  9.66171669550000e-02
  4.59154522960000e-02
  2.11400487300000e-02
  3.26051092060000e+00
  6.50030431150000e-01
  1.69416710730000e-01
  3.32700000000000e+00
  5.57323437670000e-02
  2.04899592410000e-02
  2.30000000000000e-01
  7.57000000000000e-02
  1.35000000000000e-01
  1.32535973450000e+05
  1.97581125880000e+04
  4.48519969470000e+03
  1.27381510200000e+03
  4.18938312360000e+02
  1.52557219850000e+02
  5.98215248230000e+01
  2.48190769320000e+01
  1.00744466730000e+02
  3.01037282900000e+01
  1.08142832720000e+01
  4.81728867700000e+00
  1.65593342130000e+00
  6.48935195820000e-01
  2.47781045450000e-01
  2.40966541140000e+02
  5.70206997810000e+01
  1.81269521200000e+01
  6.64574046210000e+00
  2.63757228920000e+00
  1.06382172000000e+00
  4.19325627500000e-01
  1.57475882990000e-01
  5.01400000000000e+00
  1.72500000000000e+00
  5.86000000000000e-01
  3.56200000000000e+00
  1.14800000000000e+00
  2.37600000000000e+00

  4.67593013229757e-02
  8.76137465723478e-02
  1.51821576860780e-01
  2.46527731442678e-01
  3.74140539449148e-01
  5.14323804423000e-01
  6.00677517411378e-01
  5.44460466941871e-01
  3.21097242154446e-01
  2.72734215356930e-01
  7.53702662810338e-01
  3.98525272814913e-01
  1.23509628755786e-01
  7.06934606713439e-02
  3.95129614058778e-02
  2.22230636644090e-01
  1.62952044217479e-01
  1.33842808684561e-01
  6.40480761295544e+00
  3.85988372286674e-02
  1.10501063034648e-02
  1.25728336426159e-01
  1.79815549832937e-02
  1.62631785032468e-02
  3.86107783813291e-01
  7.24648975903829e-01
  1.25045495963763e+00
  2.01518764389143e+00
  3.04056815166578e+00
  4.21268576129244e+00
  5.00944268647146e+00
  4.54693835849554e+00
  2.32503271092484e+00
  8.41440806306271e+00
  4.25019052011886e+00
  2.31745919743391e+00
  1.04038060130896e+00
  5.15301123337211e-01
  2.50300174847139e-01
  3.49166780573024e+00
  4.61886090108967e+00
  5.17964869303152e+00
  4.78626212475628e+00
  3.24578400123904e+00
  1.54001926672016e+00
  4.80982576947690e-01
  1.41402684040663e-01
  2.76523492268872e+01
  4.27356565232165e+00
  6.45996677345861e-01
  2.56605380682814e+01
  2.00827738540458e+00
  1.20230076986570e+01

0 0 0 0 1 1 1
0 0 
9 0

0 1 1 9 1 1 1
9 0 
2 0

0 2 2 11 1 1 1
11 0 
1 0

0 3 3 12 1 1 1
12 0 
1 0

0 4 4 13 1 1 1
13 0 
1 0

0 5 5 14 1 1 1
14 0 
1 0

0 6 6 15 1 3 3
15 1 
3 0

0 9 9 18 1 3 3
18 1 
1 0

0 12 12 19 1 3 3
19 1 
1 0

0 15 15 20 1 3 3
20 1 
1 0

0 18 18 21 1 5 6
21 2 
1 1

0 23 23 22 1 5 6
22 2 
1 1

0 28 28 23 1 7 10
23 3 
1 1

1 35 35 24 1 1 1
24 0 
8 0

1 36 36 32 1 1 1
32 0 
2 0

1 37 37 34 1 1 1
34 0 
1 0

1 38 38 35 1 1 1
35 0 
1 0

1 39 39 36 1 1 1
36 0 
1 0

1 40 40 37 1 1 1
37 0 
1 0

1 41 41 38 1 1 1
38 0 
1 0

1 42 42 39 1 3 3
39 1 
5 0

1 45 45 44 1 3 3
44 1 
1 0

1 48 48 45 1 3 3
45 1 
1 0

1 51 51 46 1 3 3
46 1 
1 0

1 54 54 47 1 5 6
47 2 
1 1

1 59 59 48 1 5 6
48 2 
1 1

1 64 64 49 1 5 6
49 2 
1 1

1 69 69 50 1 7 10
50 3 
1 1

1 76 76 51 1 7 10
51 3 
1 1

1 83 83 52 1 9 15
52 4 
1 1

 -------------------------------------------------------------
 Allocate 136872 B from available memory: 104857600000 B
 There are 15625 image cells after screening.
 There are 17628 image cells for CGTO evaluation after screening.
 Real-Space grid for FFT initialized based on kinetic energy cutoff (eV) = 500.0
 Real-Space grid for FFT: (8,8,8)
 There are 4913 real-space grid points.
 There are 27 batches of real-space grid points. 
 Size of each grid batch is around 128
 Grid for AFT initialized based on kinetic energy cutoff (eV) = 500.0
 Real-Space grid for AFT: (8,8,8)
 There are 4913 real-space grid points.

 There are 5912 atom-centered grid points.

 Spacegroup symmetry group: Fm-3m
 Reducing spacegroup symmetry to symmorphic group: F m -3 m
 Monkhorst-Pack mesh is [9,9,9]
 There are 729 k points.
kpoints in Bohr
-0.3685141010 -0.3685141010 -0.3685141010
-0.2763855758 -0.2763855758 -0.4606426263
-0.1842570505 -0.1842570505 -0.5527711515
-0.0921285253 -0.0921285253 -0.6448996768
-0.0000000000 0.0000000000 -0.7370282020
0.0921285253 0.0921285253 -0.8291567273
0.1842570505 0.1842570505 -0.9212852525
0.2763855758 0.2763855758 -1.0134137778
0.3685141010 0.3685141010 -1.1055423031
-0.2763855758 -0.4606426263 -0.2763855758
-0.1842570505 -0.3685141010 -0.3685141010
-0.0921285253 -0.2763855758 -0.4606426263
-0.0000000000 -0.1842570505 -0.5527711515
0.0921285253 -0.0921285253 -0.6448996768
0.1842570505 0.0000000000 -0.7370282020
0.2763855758 0.0921285253 -0.8291567273
0.3685141010 0.1842570505 -0.9212852525
0.4606426263 0.2763855758 -1.0134137778
-0.1842570505 -0.5527711515 -0.1842570505
-0.0921285253 -0.4606426263 -0.2763855758
-0.0000000000 -0.3685141010 -0.3685141010
0.0921285253 -0.2763855758 -0.4606426263
0.1842570505 -0.1842570505 -0.5527711515
0.2763855758 -0.0921285253 -0.6448996768
0.3685141010 0.0000000000 -0.7370282020
0.4606426263 0.0921285253 -0.8291567273
0.5527711515 0.1842570505 -0.9212852525
-0.0921285253 -0.6448996768 -0.0921285253
-0.0000000000 -0.5527711515 -0.1842570505
0.0921285253 -0.4606426263 -0.2763855758
0.1842570505 -0.3685141010 -0.3685141010
0.2763855758 -0.2763855758 -0.4606426263
0.3685141010 -0.1842570505 -0.5527711515
0.4606426263 -0.0921285253 -0.6448996768
0.5527711515 0.0000000000 -0.7370282020
0.6448996768 0.0921285253 -0.8291567273
0.0000000000 -0.7370282020 -0.0000000000
0.0921285253 -0.6448996768 -0.0921285253
0.1842570505 -0.5527711515 -0.1842570505
0.2763855758 -0.4606426263 -0.2763855758
0.3685141010 -0.3685141010 -0.3685141010
0.4606426263 -0.2763855758 -0.4606426263
0.5527711515 -0.1842570505 -0.5527711515
0.6448996768 -0.0921285253 -0.6448996768
0.7370282020 0.0000000000 -0.7370282020
0.0921285253 -0.8291567273 0.0921285253
0.1842570505 -0.7370282020 -0.0000000000
0.2763855758 -0.6448996768 -0.0921285253
0.3685141010 -0.5527711515 -0.1842570505
0.4606426263 -0.4606426263 -0.2763855758
0.5527711515 -0.3685141010 -0.3685141010
0.6448996768 -0.2763855758 -0.4606426263
0.7370282020 -0.1842570505 -0.5527711515
0.8291567273 -0.0921285253 -0.6448996768
0.1842570505 -0.9212852525 0.1842570505
0.2763855758 -0.8291567273 0.0921285253
0.3685141010 -0.7370282020 -0.0000000000
0.4606426263 -0.6448996768 -0.0921285253
0.5527711515 -0.5527711515 -0.1842570505
0.6448996768 -0.4606426263 -0.2763855758
0.7370282020 -0.3685141010 -0.3685141010
0.8291567273 -0.2763855758 -0.4606426263
0.9212852525 -0.1842570505 -0.5527711515
0.2763855758 -1.0134137778 0.2763855758
0.3685141010 -0.9212852525 0.1842570505
0.4606426263 -0.8291567273 0.0921285253
0.5527711515 -0.7370282020 -0.0000000000
0.6448996768 -0.6448996768 -0.0921285253
0.7370282020 -0.5527711515 -0.1842570505
0.8291567273 -0.4606426263 -0.2763855758
0.9212852525 -0.3685141010 -0.3685141010
1.0134137778 -0.2763855758 -0.4606426263
0.3685141010 -1.1055423031 0.3685141010
0.4606426263 -1.0134137778 0.2763855758
0.5527711515 -0.9212852525 0.1842570505
0.6448996768 -0.8291567273 0.0921285253
0.7370282020 -0.7370282020 -0.0000000000
0.8291567273 -0.6448996768 -0.0921285253
0.9212852525 -0.5527711515 -0.1842570505
1.0134137778 -0.4606426263 -0.2763855758
1.1055423031 -0.3685141010 -0.3685141010
-0.4606426263 -0.2763855758 -0.2763855758
-0.3685141010 -0.1842570505 -0.3685141010
-0.2763855758 -0.0921285253 -0.4606426263
-0.1842570505 0.0000000000 -0.5527711515
-0.0921285253 0.0921285253 -0.6448996768
-0.0000000000 0.1842570505 -0.7370282020
0.0921285253 0.2763855758 -0.8291567273
0.1842570505 0.3685141010 -0.9212852525
0.2763855758 0.4606426263 -1.0134137778
-0.3685141010 -0.3685141010 -0.1842570505
-0.2763855758 -0.2763855758 -0.2763855758
-0.1842570505 -0.1842570505 -0.3685141010
-0.0921285253 -0.0921285253 -0.4606426263
-0.0000000000 0.0000000000 -0.5527711515
0.0921285253 0.0921285253 -0.6448996768
0.1842570505 0.1842570505 -0.7370282020
0.2763855758 0.2763855758 -0.8291567273
0.3685141010 0.3685141010 -0.9212852525
-0.2763855758 -0.4606426263 -0.0921285253
-0.1842570505 -0.3685141010 -0.1842570505
-0.0921285253 -0.2763855758 -0.2763855758
-0.0000000000 -0.1842570505 -0.3685141010
0.0921285253 -0.0921285253 -0.4606426263
0.1842570505 0.0000000000 -0.5527711515
0.2763855758 0.0921285253 -0.6448996768
0.3685141010 0.1842570505 -0.7370282020
0.4606426263 0.2763855758 -0.8291567273
-0.1842570505 -0.5527711515 -0.0000000000
-0.0921285253 -0.4606426263 -0.0921285253
-0.0000000000 -0.3685141010 -0.1842570505
0.0921285253 -0.2763855758 -0.2763855758
0.1842570505 -0.1842570505 -0.3685141010
0.2763855758 -0.0921285253 -0.4606426263
0.3685141010 0.0000000000 -0.5527711515
0.4606426263 0.0921285253 -0.6448996768
0.5527711515 0.1842570505 -0.7370282020
-0.0921285253 -0.6448996768 0.0921285253
-0.0000000000 -0.5527711515 -0.0000000000
0.0921285253 -0.4606426263 -0.0921285253
0.1842570505 -0.3685141010 -0.1842570505
0.2763855758 -0.2763855758 -0.2763855758
0.3685141010 -0.1842570505 -0.3685141010
0.4606426263 -0.0921285253 -0.4606426263
0.5527711515 0.0000000000 -0.5527711515
0.6448996768 0.0921285253 -0.6448996768
0.0000000000 -0.7370282020 0.1842570505
0.0921285253 -0.6448996768 0.0921285253
0.1842570505 -0.5527711515 -0.0000000000
0.2763855758 -0.4606426263 -0.0921285253
0.3685141010 -0.3685141010 -0.1842570505
0.4606426263 -0.2763855758 -0.2763855758
0.5527711515 -0.1842570505 -0.3685141010
0.6448996768 -0.0921285253 -0.4606426263
0.7370282020 0.0000000000 -0.5527711515
0.0921285253 -0.8291567273 0.2763855758
0.1842570505 -0.7370282020 0.1842570505
0.2763855758 -0.6448996768 0.0921285253
0.3685141010 -0.5527711515 -0.0000000000
0.4606426263 -0.4606426263 -0.0921285253
0.5527711515 -0.3685141010 -0.1842570505
0.6448996768 -0.2763855758 -0.2763855758
0.7370282020 -0.1842570505 -0.3685141010
0.8291567273 -0.0921285253 -0.4606426263
0.1842570505 -0.9212852525 0.3685141010
0.2763855758 -0.8291567273 0.2763855758
0.3685141010 -0.7370282020 0.1842570505
0.4606426263 -0.6448996768 0.0921285253
0.5527711515 -0.5527711515 -0.0000000000
0.6448996768 -0.4606426263 -0.0921285253
0.7370282020 -0.3685141010 -0.1842570505
0.8291567273 -0.2763855758 -0.2763855758
0.9212852525 -0.1842570505 -0.3685141010
0.2763855758 -1.0134137778 0.4606426263
0.3685141010 -0.9212852525 0.3685141010
0.4606426263 -0.8291567273 0.2763855758
0.5527711515 -0.7370282020 0.1842570505
0.6448996768 -0.6448996768 0.0921285253
0.7370282020 -0.5527711515 -0.0000000000
0.8291567273 -0.4606426263 -0.0921285253
0.9212852525 -0.3685141010 -0.1842570505
1.0134137778 -0.2763855758 -0.2763855758
-0.5527711515 -0.1842570505 -0.1842570505
-0.4606426263 -0.0921285253 -0.2763855758
-0.3685141010 0.0000000000 -0.3685141010
-0.2763855758 0.0921285253 -0.4606426263
-0.1842570505 0.1842570505 -0.5527711515
-0.0921285253 0.2763855758 -0.6448996768
-0.0000000000 0.3685141010 -0.7370282020
0.0921285253 0.4606426263 -0.8291567273
0.1842570505 0.5527711515 -0.9212852525
-0.4606426263 -0.2763855758 -0.0921285253
-0.3685141010 -0.1842570505 -0.1842570505
-0.2763855758 -0.0921285253 -0.2763855758
-0.1842570505 0.0000000000 -0.3685141010
-0.0921285253 0.0921285253 -0.4606426263
-0.0000000000 0.1842570505 -0.5527711515
0.0921285253 0.2763855758 -0.6448996768
0.1842570505 0.3685141010 -0.7370282020
0.2763855758 0.4606426263 -0.8291567273
-0.3685141010 -0.3685141010 -0.0000000000
-0.2763855758 -0.2763855758 -0.0921285253
-0.1842570505 -0.1842570505 -0.1842570505
-0.0921285253 -0.0921285253 -0.2763855758
-0.0000000000 0.0000000000 -0.3685141010
0.0921285253 0.0921285253 -0.4606426263
0.1842570505 0.1842570505 -0.5527711515
0.2763855758 0.2763855758 -0.6448996768
0.3685141010 0.3685141010 -0.7370282020
-0.2763855758 -0.4606426263 0.0921285253
-0.1842570505 -0.3685141010 -0.0000000000
-0.0921285253 -0.2763855758 -0.0921285253
-0.0000000000 -0.1842570505 -0.1842570505
0.0921285253 -0.0921285253 -0.2763855758
0.1842570505 0.0000000000 -0.3685141010
0.2763855758 0.0921285253 -0.4606426263
0.3685141010 0.1842570505 -0.5527711515
0.4606426263 0.2763855758 -0.6448996768
-0.1842570505 -0.5527711515 0.1842570505
-0.0921285253 -0.4606426263 0.0921285253
0.0000000000 -0.3685141010 -0.0000000000
0.0921285253 -0.2763855758 -0.0921285253
0.1842570505 -0.1842570505 -0.1842570505
0.2763855758 -0.0921285253 -0.2763855758
0.3685141010 0.0000000000 -0.3685141010
0.4606426263 0.0921285253 -0.4606426263
0.5527711515 0.1842570505 -0.5527711515
-0.0921285253 -0.6448996768 0.2763855758
0.0000000000 -0.5527711515 0.1842570505
0.0921285253 -0.4606426263 0.0921285253
0.1842570505 -0.3685141010 -0.0000000000
0.2763855758 -0.2763855758 -0.0921285253
0.3685141010 -0.1842570505 -0.1842570505
0.4606426263 -0.0921285253 -0.2763855758
0.5527711515 0.0000000000 -0.3685141010
0.6448996768 0.0921285253 -0.4606426263
0.0000000000 -0.7370282020 0.3685141010
0.0921285253 -0.6448996768 0.2763855758
0.1842570505 -0.5527711515 0.1842570505
0.2763855758 -0.4606426263 0.0921285253
0.3685141010 -0.3685141010 -0.0000000000
0.4606426263 -0.2763855758 -0.0921285253
0.5527711515 -0.1842570505 -0.1842570505
0.6448996768 -0.0921285253 -0.2763855758
0.7370282020 0.0000000000 -0.3685141010
0.0921285253 -0.8291567273 0.4606426263
0.1842570505 -0.7370282020 0.3685141010
0.2763855758 -0.6448996768 0.2763855758
0.3685141010 -0.5527711515 0.1842570505
0.4606426263 -0.4606426263 0.0921285253
0.5527711515 -0.3685141010 -0.0000000000
0.6448996768 -0.2763855758 -0.0921285253
0.7370282020 -0.1842570505 -0.1842570505
0.8291567273 -0.0921285253 -0.2763855758
0.1842570505 -0.9212852525 0.5527711515
0.2763855758 -0.8291567273 0.4606426263
0.3685141010 -0.7370282020 0.3685141010
0.4606426263 -0.6448996768 0.2763855758
0.5527711515 -0.5527711515 0.1842570505
0.6448996768 -0.4606426263 0.0921285253
0.7370282020 -0.3685141010 -0.0000000000
0.8291567273 -0.2763855758 -0.0921285253
0.9212852525 -0.1842570505 -0.1842570505
-0.6448996768 -0.0921285253 -0.0921285253
-0.5527711515 0.0000000000 -0.1842570505
-0.4606426263 0.0921285253 -0.2763855758
-0.3685141010 0.1842570505 -0.3685141010
-0.2763855758 0.2763855758 -0.4606426263
-0.1842570505 0.3685141010 -0.5527711515
-0.0921285253 0.4606426263 -0.6448996768
-0.0000000000 0.5527711515 -0.7370282020
0.0921285253 0.6448996768 -0.8291567273
-0.5527711515 -0.1842570505 -0.0000000000
-0.4606426263 -0.0921285253 -0.0921285253
-0.3685141010 0.0000000000 -0.1842570505
-0.2763855758 0.0921285253 -0.2763855758
-0.1842570505 0.1842570505 -0.3685141010
-0.0921285253 0.2763855758 -0.4606426263
-0.0000000000 0.3685141010 -0.5527711515
0.0921285253 0.4606426263 -0.6448996768
0.1842570505 0.5527711515 -0.7370282020
-0.4606426263 -0.2763855758 0.0921285253
-0.3685141010 -0.1842570505 -0.0000000000
-0.2763855758 -0.0921285253 -0.0921285253
-0.1842570505 0.0000000000 -0.1842570505
-0.0921285253 0.0921285253 -0.2763855758
-0.0000000000 0.1842570505 -0.3685141010
0.0921285253 0.2763855758 -0.4606426263
0.1842570505 0.3685141010 -0.5527711515
0.2763855758 0.4606426263 -0.6448996768
-0.3685141010 -0.3685141010 0.1842570505
-0.2763855758 -0.2763855758 0.0921285253
-0.1842570505 -0.1842570505 -0.0000000000
-0.0921285253 -0.0921285253 -0.0921285253
-0.0000000000 0.0000000000 -0.1842570505
0.0921285253 0.0921285253 -0.2763855758
0.1842570505 0.1842570505 -0.3685141010
0.2763855758 0.2763855758 -0.4606426263
0.3685141010 0.3685141010 -0.5527711515
-0.2763855758 -0.4606426263 0.2763855758
-0.1842570505 -0.3685141010 0.1842570505
-0.0921285253 -0.2763855758 0.0921285253
0.0000000000 -0.1842570505 -0.0000000000
0.0921285253 -0.0921285253 -0.0921285253
0.1842570505 0.0000000000 -0.1842570505
0.2763855758 0.0921285253 -0.2763855758
0.3685141010 0.1842570505 -0.3685141010
0.4606426263 0.2763855758 -0.4606426263
-0.1842570505 -0.5527711515 0.3685141010
-0.0921285253 -0.4606426263 0.2763855758
0.0000000000 -0.3685141010 0.1842570505
0.0921285253 -0.2763855758 0.0921285253
0.1842570505 -0.1842570505 -0.0000000000
0.2763855758 -0.0921285253 -0.0921285253
0.3685141010 0.0000000000 -0.1842570505
0.4606426263 0.0921285253 -0.2763855758
0.5527711515 0.1842570505 -0.3685141010
-0.0921285253 -0.6448996768 0.4606426263
0.0000000000 -0.5527711515 0.3685141010
0.0921285253 -0.4606426263 0.2763855758
0.1842570505 -0.3685141010 0.1842570505
0.2763855758 -0.2763855758 0.0921285253
0.3685141010 -0.1842570505 -0.0000000000
0.4606426263 -0.0921285253 -0.0921285253
0.5527711515 0.0000000000 -0.1842570505
0.6448996768 0.0921285253 -0.2763855758
0.0000000000 -0.7370282020 0.5527711515
0.0921285253 -0.6448996768 0.4606426263
0.1842570505 -0.5527711515 0.3685141010
0.2763855758 -0.4606426263 0.2763855758
0.3685141010 -0.3685141010 0.1842570505
0.4606426263 -0.2763855758 0.0921285253
0.5527711515 -0.1842570505 -0.0000000000
0.6448996768 -0.0921285253 -0.0921285253
0.7370282020 0.0000000000 -0.1842570505
0.0921285253 -0.8291567273 0.6448996768
0.1842570505 -0.7370282020 0.5527711515
0.2763855758 -0.6448996768 0.4606426263
0.3685141010 -0.5527711515 0.3685141010
0.4606426263 -0.4606426263 0.2763855758
0.5527711515 -0.3685141010 0.1842570505
0.6448996768 -0.2763855758 0.0921285253
0.7370282020 -0.1842570505 -0.0000000000
0.8291567273 -0.0921285253 -0.0921285253
-0.7370282020 0.0000000000 0.0000000000
-0.6448996768 0.0921285253 -0.0921285253
-0.5527711515 0.1842570505 -0.1842570505
-0.4606426263 0.2763855758 -0.2763855758
-0.3685141010 0.3685141010 -0.3685141010
-0.2763855758 0.4606426263 -0.4606426263
-0.1842570505 0.5527711515 -0.5527711515
-0.0921285253 0.6448996768 -0.6448996768
-0.0000000000 0.7370282020 -0.7370282020
-0.6448996768 -0.0921285253 0.0921285253
-0.5527711515 0.0000000000 0.0000000000
-0.4606426263 0.0921285253 -0.0921285253
-0.3685141010 0.1842570505 -0.1842570505
-0.2763855758 0.2763855758 -0.2763855758
-0.1842570505 0.3685141010 -0.3685141010
-0.0921285253 0.4606426263 -0.4606426263
-0.0000000000 0.5527711515 -0.5527711515
0.0921285253 0.6448996768 -0.6448996768
-0.5527711515 -0.1842570505 0.1842570505
-0.4606426263 -0.0921285253 0.0921285253
-0.3685141010 0.0000000000 0.0000000000
-0.2763855758 0.0921285253 -0.0921285253
-0.1842570505 0.1842570505 -0.1842570505
-0.0921285253 0.2763855758 -0.2763855758
-0.0000000000 0.3685141010 -0.3685141010
0.0921285253 0.4606426263 -0.4606426263
0.1842570505 0.5527711515 -0.5527711515
-0.4606426263 -0.2763855758 0.2763855758
-0.3685141010 -0.1842570505 0.1842570505
-0.2763855758 -0.0921285253 0.0921285253
-0.1842570505 0.0000000000 0.0000000000
-0.0921285253 0.0921285253 -0.0921285253
-0.0000000000 0.1842570505 -0.1842570505
0.0921285253 0.2763855758 -0.2763855758
0.1842570505 0.3685141010 -0.3685141010
0.2763855758 0.4606426263 -0.4606426263
-0.3685141010 -0.3685141010 0.3685141010
-0.2763855758 -0.2763855758 0.2763855758
-0.1842570505 -0.1842570505 0.1842570505
-0.0921285253 -0.0921285253 0.0921285253
0.0000000000 0.0000000000 0.0000000000
0.0921285253 0.0921285253 -0.0921285253
0.1842570505 0.1842570505 -0.1842570505
0.2763855758 0.2763855758 -0.2763855758
0.3685141010 0.3685141010 -0.3685141010
-0.2763855758 -0.4606426263 0.4606426263
-0.1842570505 -0.3685141010 0.3685141010
-0.0921285253 -0.2763855758 0.2763855758
0.0000000000 -0.1842570505 0.1842570505
0.0921285253 -0.0921285253 0.0921285253
0.1842570505 -0.0000000000 0.0000000000
0.2763855758 0.0921285253 -0.0921285253
0.3685141010 0.1842570505 -0.1842570505
0.4606426263 0.2763855758 -0.2763855758
-0.1842570505 -0.5527711515 0.5527711515
-0.0921285253 -0.4606426263 0.4606426263
0.0000000000 -0.3685141010 0.3685141010
0.0921285253 -0.2763855758 0.2763855758
0.1842570505 -0.1842570505 0.1842570505
0.2763855758 -0.0921285253 0.0921285253
0.3685141010 -0.0000000000 0.0000000000
0.4606426263 0.0921285253 -0.0921285253
0.5527711515 0.1842570505 -0.1842570505
-0.0921285253 -0.6448996768 0.6448996768
0.0000000000 -0.5527711515 0.5527711515
0.0921285253 -0.4606426263 0.4606426263
0.1842570505 -0.3685141010 0.3685141010
0.2763855758 -0.2763855758 0.2763855758
0.3685141010 -0.1842570505 0.1842570505
0.4606426263 -0.0921285253 0.0921285253
0.5527711515 -0.0000000000 0.0000000000
0.6448996768 0.0921285253 -0.0921285253
0.0000000000 -0.7370282020 0.7370282020
0.0921285253 -0.6448996768 0.6448996768
0.1842570505 -0.5527711515 0.5527711515
0.2763855758 -0.4606426263 0.4606426263
0.3685141010 -0.3685141010 0.3685141010
0.4606426263 -0.2763855758 0.2763855758
0.5527711515 -0.1842570505 0.1842570505
0.6448996768 -0.0921285253 0.0921285253
0.7370282020 -0.0000000000 0.0000000000
-0.8291567273 0.0921285253 0.0921285253
-0.7370282020 0.1842570505 0.0000000000
-0.6448996768 0.2763855758 -0.0921285253
-0.5527711515 0.3685141010 -0.1842570505
-0.4606426263 0.4606426263 -0.2763855758
-0.3685141010 0.5527711515 -0.3685141010
-0.2763855758 0.6448996768 -0.4606426263
-0.1842570505 0.7370282020 -0.5527711515
-0.0921285253 0.8291567273 -0.6448996768
-0.7370282020 0.0000000000 0.1842570505
-0.6448996768 0.0921285253 0.0921285253
-0.5527711515 0.1842570505 0.0000000000
-0.4606426263 0.2763855758 -0.0921285253
-0.3685141010 0.3685141010 -0.1842570505
-0.2763855758 0.4606426263 -0.2763855758
-0.1842570505 0.5527711515 -0.3685141010
-0.0921285253 0.6448996768 -0.4606426263
-0.0000000000 0.7370282020 -0.5527711515
-0.6448996768 -0.0921285253 0.2763855758
-0.5527711515 0.0000000000 0.1842570505
-0.4606426263 0.0921285253 0.0921285253
-0.3685141010 0.1842570505 0.0000000000
-0.2763855758 0.2763855758 -0.0921285253
-0.1842570505 0.3685141010 -0.1842570505
-0.0921285253 0.4606426263 -0.2763855758
-0.0000000000 0.5527711515 -0.3685141010
0.0921285253 0.6448996768 -0.4606426263
-0.5527711515 -0.1842570505 0.3685141010
-0.4606426263 -0.0921285253 0.2763855758
-0.3685141010 -0.0000000000 0.1842570505
-0.2763855758 0.0921285253 0.0921285253
-0.1842570505 0.1842570505 0.0000000000
-0.0921285253 0.2763855758 -0.0921285253
-0.0000000000 0.3685141010 -0.1842570505
0.0921285253 0.4606426263 -0.2763855758
0.1842570505 0.5527711515 -0.3685141010
-0.4606426263 -0.2763855758 0.4606426263
-0.3685141010 -0.1842570505 0.3685141010
-0.2763855758 -0.0921285253 0.2763855758
-0.1842570505 -0.0000000000 0.1842570505
-0.0921285253 0.0921285253 0.0921285253
0.0000000000 0.1842570505 0.0000000000
0.0921285253 0.2763855758 -0.0921285253
0.1842570505 0.3685141010 -0.1842570505
0.2763855758 0.4606426263 -0.2763855758
-0.3685141010 -0.3685141010 0.5527711515
-0.2763855758 -0.2763855758 0.4606426263
-0.1842570505 -0.1842570505 0.3685141010
-0.0921285253 -0.0921285253 0.2763855758
0.0000000000 -0.0000000000 0.1842570505
0.0921285253 0.0921285253 0.0921285253
0.1842570505 0.1842570505 0.0000000000
0.2763855758 0.2763855758 -0.0921285253
0.3685141010 0.3685141010 -0.1842570505
-0.2763855758 -0.4606426263 0.6448996768
-0.1842570505 -0.3685141010 0.5527711515
-0.0921285253 -0.2763855758 0.4606426263
0.0000000000 -0.1842570505 0.3685141010
0.0921285253 -0.0921285253 0.2763855758
0.1842570505 -0.0000000000 0.1842570505
0.2763855758 0.0921285253 0.0921285253
0.3685141010 0.1842570505 0.0000000000
0.4606426263 0.2763855758 -0.0921285253
-0.1842570505 -0.5527711515 0.7370282020
-0.0921285253 -0.4606426263 0.6448996768
0.0000000000 -0.3685141010 0.5527711515
0.0921285253 -0.2763855758 0.4606426263
0.1842570505 -0.1842570505 0.3685141010
0.2763855758 -0.0921285253 0.2763855758
0.3685141010 -0.0000000000 0.1842570505
0.4606426263 0.0921285253 0.0921285253
0.5527711515 0.1842570505 0.0000000000
-0.0921285253 -0.6448996768 0.8291567273
0.0000000000 -0.5527711515 0.7370282020
0.0921285253 -0.4606426263 0.6448996768
0.1842570505 -0.3685141010 0.5527711515
0.2763855758 -0.2763855758 0.4606426263
0.3685141010 -0.1842570505 0.3685141010
0.4606426263 -0.0921285253 0.2763855758
0.5527711515 -0.0000000000 0.1842570505
0.6448996768 0.0921285253 0.0921285253
-0.9212852525 0.1842570505 0.1842570505
-0.8291567273 0.2763855758 0.0921285253
-0.7370282020 0.3685141010 0.0000000000
-0.6448996768 0.4606426263 -0.0921285253
-0.5527711515 0.5527711515 -0.1842570505
-0.4606426263 0.6448996768 -0.2763855758
-0.3685141010 0.7370282020 -0.3685141010
-0.2763855758 0.8291567273 -0.4606426263
-0.1842570505 0.9212852525 -0.5527711515
-0.8291567273 0.0921285253 0.2763855758
-0.7370282020 0.1842570505 0.1842570505
-0.6448996768 0.2763855758 0.0921285253
-0.5527711515 0.3685141010 0.0000000000
-0.4606426263 0.4606426263 -0.0921285253
-0.3685141010 0.5527711515 -0.1842570505
-0.2763855758 0.6448996768 -0.2763855758
-0.1842570505 0.7370282020 -0.3685141010
-0.0921285253 0.8291567273 -0.4606426263
-0.7370282020 -0.0000000000 0.3685141010
-0.6448996768 0.0921285253 0.2763855758
-0.5527711515 0.1842570505 0.1842570505
-0.4606426263 0.2763855758 0.0921285253
-0.3685141010 0.3685141010 0.0000000000
-0.2763855758 0.4606426263 -0.0921285253
-0.1842570505 0.5527711515 -0.1842570505
-0.0921285253 0.6448996768 -0.2763855758
-0.0000000000 0.7370282020 -0.3685141010
-0.6448996768 -0.0921285253 0.4606426263
-0.5527711515 0.0000000000 0.3685141010
-0.4606426263 0.0921285253 0.2763855758
-0.3685141010 0.1842570505 0.1842570505
-0.2763855758 0.2763855758 0.0921285253
-0.1842570505 0.3685141010 0.0000000000
-0.0921285253 0.4606426263 -0.0921285253
-0.0000000000 0.5527711515 -0.1842570505
0.0921285253 0.6448996768 -0.2763855758
-0.5527711515 -0.1842570505 0.5527711515
-0.4606426263 -0.0921285253 0.4606426263
-0.3685141010 -0.0000000000 0.3685141010
-0.2763855758 0.0921285253 0.2763855758
-0.1842570505 0.1842570505 0.1842570505
-0.0921285253 0.2763855758 0.0921285253
0.0000000000 0.3685141010 0.0000000000
0.0921285253 0.4606426263 -0.0921285253
0.1842570505 0.5527711515 -0.1842570505
-0.4606426263 -0.2763855758 0.6448996768
-0.3685141010 -0.1842570505 0.5527711515
-0.2763855758 -0.0921285253 0.4606426263
-0.1842570505 -0.0000000000 0.3685141010
-0.0921285253 0.0921285253 0.2763855758
0.0000000000 0.1842570505 0.1842570505
0.0921285253 0.2763855758 0.0921285253
0.1842570505 0.3685141010 0.0000000000
0.2763855758 0.4606426263 -0.0921285253
-0.3685141010 -0.3685141010 0.7370282020
-0.2763855758 -0.2763855758 0.6448996768
-0.1842570505 -0.1842570505 0.5527711515
-0.0921285253 -0.0921285253 0.4606426263
0.0000000000 -0.0000000000 0.3685141010
0.0921285253 0.0921285253 0.2763855758
0.1842570505 0.1842570505 0.1842570505
0.2763855758 0.2763855758 0.0921285253
0.3685141010 0.3685141010 0.0000000000
-0.2763855758 -0.4606426263 0.8291567273
-0.1842570505 -0.3685141010 0.7370282020
-0.0921285253 -0.2763855758 0.6448996768
0.0000000000 -0.1842570505 0.5527711515
0.0921285253 -0.0921285253 0.4606426263
0.1842570505 -0.0000000000 0.3685141010
0.2763855758 0.0921285253 0.2763855758
0.3685141010 0.1842570505 0.1842570505
0.4606426263 0.2763855758 0.0921285253
-0.1842570505 -0.5527711515 0.9212852525
-0.0921285253 -0.4606426263 0.8291567273
0.0000000000 -0.3685141010 0.7370282020
0.0921285253 -0.2763855758 0.6448996768
0.1842570505 -0.1842570505 0.5527711515
0.2763855758 -0.0921285253 0.4606426263
0.3685141010 -0.0000000000 0.3685141010
0.4606426263 0.0921285253 0.2763855758
0.5527711515 0.1842570505 0.1842570505
-1.0134137778 0.2763855758 0.2763855758
-0.9212852525 0.3685141010 0.1842570505
-0.8291567273 0.4606426263 0.0921285253
-0.7370282020 0.5527711515 0.0000000000
-0.6448996768 0.6448996768 -0.0921285253
-0.5527711515 0.7370282020 -0.1842570505
-0.4606426263 0.8291567273 -0.2763855758
-0.3685141010 0.9212852525 -0.3685141010
-0.2763855758 1.0134137778 -0.4606426263
-0.9212852525 0.1842570505 0.3685141010
-0.8291567273 0.2763855758 0.2763855758
-0.7370282020 0.3685141010 0.1842570505
-0.6448996768 0.4606426263 0.0921285253
-0.5527711515 0.5527711515 0.0000000000
-0.4606426263 0.6448996768 -0.0921285253
-0.3685141010 0.7370282020 -0.1842570505
-0.2763855758 0.8291567273 -0.2763855758
-0.1842570505 0.9212852525 -0.3685141010
-0.8291567273 0.0921285253 0.4606426263
-0.7370282020 0.1842570505 0.3685141010
-0.6448996768 0.2763855758 0.2763855758
-0.5527711515 0.3685141010 0.1842570505
-0.4606426263 0.4606426263 0.0921285253
-0.3685141010 0.5527711515 0.0000000000
-0.2763855758 0.6448996768 -0.0921285253
-0.1842570505 0.7370282020 -0.1842570505
-0.0921285253 0.8291567273 -0.2763855758
-0.7370282020 -0.0000000000 0.5527711515
-0.6448996768 0.0921285253 0.4606426263
-0.5527711515 0.1842570505 0.3685141010
-0.4606426263 0.2763855758 0.2763855758
-0.3685141010 0.3685141010 0.1842570505
-0.2763855758 0.4606426263 0.0921285253
-0.1842570505 0.5527711515 0.0000000000
-0.0921285253 0.6448996768 -0.0921285253
0.0000000000 0.7370282020 -0.1842570505
-0.6448996768 -0.0921285253 0.6448996768
-0.5527711515 -0.0000000000 0.5527711515
-0.4606426263 0.0921285253 0.4606426263
-0.3685141010 0.1842570505 0.3685141010
-0.2763855758 0.2763855758 0.2763855758
-0.1842570505 0.3685141010 0.1842570505
-0.0921285253 0.4606426263 0.0921285253
0.0000000000 0.5527711515 0.0000000000
0.0921285253 0.6448996768 -0.0921285253
-0.5527711515 -0.1842570505 0.7370282020
-0.4606426263 -0.0921285253 0.6448996768
-0.3685141010 -0.0000000000 0.5527711515
-0.2763855758 0.0921285253 0.4606426263
-0.1842570505 0.1842570505 0.3685141010
-0.0921285253 0.2763855758 0.2763855758
0.0000000000 0.3685141010 0.1842570505
0.0921285253 0.4606426263 0.0921285253
0.1842570505 0.5527711515 0.0000000000
-0.4606426263 -0.2763855758 0.8291567273
-0.3685141010 -0.1842570505 0.7370282020
-0.2763855758 -0.0921285253 0.6448996768
-0.1842570505 -0.0000000000 0.5527711515
-0.0921285253 0.0921285253 0.4606426263
0.0000000000 0.1842570505 0.3685141010
0.0921285253 0.2763855758 0.2763855758
0.1842570505 0.3685141010 0.1842570505
0.2763855758 0.4606426263 0.0921285253
-0.3685141010 -0.3685141010 0.9212852525
-0.2763855758 -0.2763855758 0.8291567273
-0.1842570505 -0.1842570505 0.7370282020
-0.0921285253 -0.0921285253 0.6448996768
0.0000000000 -0.0000000000 0.5527711515
0.0921285253 0.0921285253 0.4606426263
0.1842570505 0.1842570505 0.3685141010
0.2763855758 0.2763855758 0.2763855758
0.3685141010 0.3685141010 0.1842570505
-0.2763855758 -0.4606426263 1.0134137778
-0.1842570505 -0.3685141010 0.9212852525
-0.0921285253 -0.2763855758 0.8291567273
0.0000000000 -0.1842570505 0.7370282020
0.0921285253 -0.0921285253 0.6448996768
0.1842570505 -0.0000000000 0.5527711515
0.2763855758 0.0921285253 0.4606426263
0.3685141010 0.1842570505 0.3685141010
0.4606426263 0.2763855758 0.2763855758
-1.1055423031 0.3685141010 0.3685141010
-1.0134137778 0.4606426263 0.2763855758
-0.9212852525 0.5527711515 0.1842570505
-0.8291567273 0.6448996768 0.0921285253
-0.7370282020 0.7370282020 0.0000000000
-0.6448996768 0.8291567273 -0.0921285253
-0.5527711515 0.9212852525 -0.1842570505
-0.4606426263 1.0134137778 -0.2763855758
-0.3685141010 1.1055423031 -0.3685141010
-1.0134137778 0.2763855758 0.4606426263
-0.9212852525 0.3685141010 0.3685141010
-0.8291567273 0.4606426263 0.2763855758
-0.7370282020 0.5527711515 0.1842570505
-0.6448996768 0.6448996768 0.0921285253
-0.5527711515 0.7370282020 0.0000000000
-0.4606426263 0.8291567273 -0.0921285253
-0.3685141010 0.9212852525 -0.1842570505
-0.2763855758 1.0134137778 -0.2763855758
-0.9212852525 0.1842570505 0.5527711515
-0.8291567273 0.2763855758 0.4606426263
-0.7370282020 0.3685141010 0.3685141010
-0.6448996768 0.4606426263 0.2763855758
-0.5527711515 0.5527711515 0.1842570505
-0.4606426263 0.6448996768 0.0921285253
-0.3685141010 0.7370282020 0.0000000000
-0.2763855758 0.8291567273 -0.0921285253
-0.1842570505 0.9212852525 -0.1842570505
-0.8291567273 0.0921285253 0.6448996768
-0.7370282020 0.1842570505 0.5527711515
-0.6448996768 0.2763855758 0.4606426263
-0.5527711515 0.3685141010 0.3685141010
-0.4606426263 0.4606426263 0.2763855758
-0.3685141010 0.5527711515 0.1842570505
-0.2763855758 0.6448996768 0.0921285253
-0.1842570505 0.7370282020 0.0000000000
-0.0921285253 0.8291567273 -0.0921285253
-0.7370282020 -0.0000000000 0.7370282020
-0.6448996768 0.0921285253 0.6448996768
-0.5527711515 0.1842570505 0.5527711515
-0.4606426263 0.2763855758 0.4606426263
-0.3685141010 0.3685141010 0.3685141010
-0.2763855758 0.4606426263 0.2763855758
-0.1842570505 0.5527711515 0.1842570505
-0.0921285253 0.6448996768 0.0921285253
0.0000000000 0.7370282020 0.0000000000
-0.6448996768 -0.0921285253 0.8291567273
-0.5527711515 -0.0000000000 0.7370282020
-0.4606426263 0.0921285253 0.6448996768
-0.3685141010 0.1842570505 0.5527711515
-0.2763855758 0.2763855758 0.4606426263
-0.1842570505 0.3685141010 0.3685141010
-0.0921285253 0.4606426263 0.2763855758
0.0000000000 0.5527711515 0.1842570505
0.0921285253 0.6448996768 0.0921285253
-0.5527711515 -0.1842570505 0.9212852525
-0.4606426263 -0.0921285253 0.8291567273
-0.3685141010 -0.0000000000 0.7370282020
-0.2763855758 0.0921285253 0.6448996768
-0.1842570505 0.1842570505 0.5527711515
-0.0921285253 0.2763855758 0.4606426263
0.0000000000 0.3685141010 0.3685141010
0.0921285253 0.4606426263 0.2763855758
0.1842570505 0.5527711515 0.1842570505
-0.4606426263 -0.2763855758 1.0134137778
-0.3685141010 -0.1842570505 0.9212852525
-0.2763855758 -0.0921285253 0.8291567273
-0.1842570505 -0.0000000000 0.7370282020
-0.0921285253 0.0921285253 0.6448996768
0.0000000000 0.1842570505 0.5527711515
0.0921285253 0.2763855758 0.4606426263
0.1842570505 0.3685141010 0.3685141010
0.2763855758 0.4606426263 0.2763855758
-0.3685141010 -0.3685141010 1.1055423031
-0.2763855758 -0.2763855758 1.0134137778
-0.1842570505 -0.1842570505 0.9212852525
-0.0921285253 -0.0921285253 0.8291567273
0.0000000000 -0.0000000000 0.7370282020
0.0921285253 0.0921285253 0.6448996768
0.1842570505 0.1842570505 0.5527711515
0.2763855758 0.2763855758 0.4606426263
0.3685141010 0.3685141010 0.3685141010
 There are 6 alpha and 6 beta electrons
 Start computing overlap matrix
 Allocate 98724096 B from available memory: 104857463136 B
 Time for computing overlap matrix: 31.3660000000 s
 ====== Initialize compute kernels for all-electron RI-J (kpts) ====== 
 ========================================================== 
 Range-separated parameter omega        = 0.599999999999999978
 Threshold for 1e2c shellpair           = 0.000000000000010000
 Threshold for 2e2c SR integral         = 0.000000000000000001
 Threshold for 2e3c SR integral         = 0.000000000100000000
 Threshold for AFT G-space screening is = 0.000000000001000000
 The exponent cutoff for C/D classification (omega2 / 2) is  = 0.179999999999999993
 ========================================================== 
 === Post process the basis set for RI calculation (exp_cutoff = 0.179999999999999993 ) === 
nshells_b1 before uncontraction = 30
nshells_b1 after uncontraction = 31
nshells_baux before uncontraction = 28
nshells_baux after uncontraction = 28
===============================================
nbsf total   = 95
nbsf compact = 68
nbsf diffuse = 27
naux total   = 96
naux compact = 96
naux diffuse = 0
nshells_bnuc = 2

 Number of unique atoms is 2
 Unique atom #0 (li) has 6 shells.
 Unique atom #1 (f) has 16 shells.

Shell 0 to 5 belongs to atom li
Shell 6 to 21 belongs to atom f

 Number of unique atoms is 2
 Unique atom #0 (li) has 8 shells.
 Unique atom #1 (f) has 1 shells.

Shell 0 to 7 belongs to atom li
Shell 8 to 8 belongs to atom f

 Number of unique atom is 2
 Unique atom #0 (li) has 13 auxiliary shells.
 Unique atom #1 (f) has 15 auxiliary shells.

Auxiliary Shell 0 to 12 belongs to atom li
Auxiliary Shell 13 to 27 belongs to atom f

================= Automatically determine grid size for reciprocal space summation =================
 Range-separated parameter = 0.60000000000000 and G-space screening threshold = 0.00000000000100
The number of grid points along each axis dimension is (5, 5, 5)
Total number of grid points = 1331

Use nonortho shellpair for diffuse density
======== Initializing relevant kernel for RIJ (DD type) ========
There are 45 shellpairs in the reference unit cell
There are 26313 images and we expect to have 1184085 in total
There are 63069 shellpairs in the lattice sum after screening
======== Initializing relevant kernel for RIJ (CD type) ========
There are 198 shellpairs in the reference unit cell
There are 14939 images and we expect to have 2957922 in total
There are 137232 shellpairs in the lattice sum after screening
****** AFT -> SR ******
Maximum bra distance cutoff is 39.000000000000
Maximum bra ket distance cutoff is 24.073630136986
Maximum bra ket screening distance is 21.468750000000
Number of auxiliary image is 3829
There are 198 shellpairs in the reference unit cell
There are 3829 images and we expect to have 758142 in total
There are 137232 shellpairs in the lattice sum after screening
Available memory per thread for 2e3c calculation is 3.273710595000Gb
Finish initializing 2e3c SR with the lattice sum!
=================================================
======== Initializing relevant kernel for RIJ (CC type) ========
There are 250 shellpairs in the reference unit cell
There are 1873 images and we expect to have 468250 in total
There are 6959 shellpairs in the lattice sum after screening
****** AFT -> SR ******
Maximum bra distance cutoff is 15.000000000000
Maximum bra ket distance cutoff is 23.750713608742
Maximum bra ket screening distance is 20.437500000000
Number of auxiliary image is 1217
There are 250 shellpairs in the reference unit cell
There are 437 images and we expect to have 109250 in total
There are 6959 shellpairs in the lattice sum after screening
Available memory per thread for 2e3c calculation is 3.273710595000Gb
Finish initializing 2e3c SR with the lattice sum!
=================================================
======== Initializing the SR component for Vnuc (CD type) ========
Maximum bra distance cutoff is 39.000000000000
Maximum bra ket distance cutoff is 16.349677604964
Maximum bra ket screening distance is 13.839230860025
Number of auxiliary image is 3829
There are 198 shellpairs in the reference unit cell
There are 3829 images and we expect to have 758142 in total
There are 137232 shellpairs in the lattice sum after screening
Available memory per thread for 2e3c calculation is 3.273710595000Gb
Finish initializing 2e3c SR with the lattice sum!
=================================================
======== Initialize the SR component for Vnuc (CC type) ========
Maximum bra distance cutoff is 15.000000000000
Maximum bra ket distance cutoff is 16.491629898159
Maximum bra ket screening distance is 12.239733225022
Number of auxiliary image is 527
There are 250 shellpairs in the reference unit cell
There are 437 images and we expect to have 109250 in total
There are 6959 shellpairs in the lattice sum after screening
Available memory per thread for 2e3c calculation is 3.273710595000Gb
Finish initializing 2e3c SR with the lattice sum!
=================================================
 Aufbau occupation scheme, occupation determined by eigenvalue
 == 0-th k-point nmo = 83 (-0.36851,-0.36851,-0.36851) ==
 == 1-th k-point nmo = 83 (-0.27639,-0.27639,-0.46064) ==
 == 2-th k-point nmo = 82 (-0.18426,-0.18426,-0.55277) ==
 == 3-th k-point nmo = 81 (-0.09213,-0.09213,-0.64490) ==
 == 4-th k-point nmo = 81 (-0.00000,0.00000,-0.73703) ==
 == 5-th k-point nmo = 81 (0.09213,0.09213,-0.82916) ==
 == 6-th k-point nmo = 83 (0.18426,0.18426,-0.92129) ==
 == 7-th k-point nmo = 83 (0.27639,0.27639,-1.01341) ==
 == 8-th k-point nmo = 83 (0.36851,0.36851,-1.10554) ==
 == 9-th k-point nmo = 83 (-0.27639,-0.46064,-0.27639) ==
 == 10-th k-point nmo = 83 (-0.18426,-0.36851,-0.36851) ==
 == 11-th k-point nmo = 82 (-0.09213,-0.27639,-0.46064) ==
 == 12-th k-point nmo = 81 (-0.00000,-0.18426,-0.55277) ==
 == 13-th k-point nmo = 81 (0.09213,-0.09213,-0.64490) ==
 == 14-th k-point nmo = 81 (0.18426,0.00000,-0.73703) ==
 == 15-th k-point nmo = 82 (0.27639,0.09213,-0.82916) ==
 == 16-th k-point nmo = 82 (0.36851,0.18426,-0.92129) ==
 == 17-th k-point nmo = 82 (0.46064,0.27639,-1.01341) ==
 == 18-th k-point nmo = 82 (-0.18426,-0.55277,-0.18426) ==
 == 19-th k-point nmo = 82 (-0.09213,-0.46064,-0.27639) ==
 == 20-th k-point nmo = 83 (-0.00000,-0.36851,-0.36851) ==
 == 21-th k-point nmo = 82 (0.09213,-0.27639,-0.46064) ==
 == 22-th k-point nmo = 82 (0.18426,-0.18426,-0.55277) ==
 == 23-th k-point nmo = 82 (0.27639,-0.09213,-0.64490) ==
 == 24-th k-point nmo = 82 (0.36851,0.00000,-0.73703) ==
 == 25-th k-point nmo = 82 (0.46064,0.09213,-0.82916) ==
 == 26-th k-point nmo = 82 (0.55277,0.18426,-0.92129) ==
 == 27-th k-point nmo = 81 (-0.09213,-0.64490,-0.09213) ==
 == 28-th k-point nmo = 81 (-0.00000,-0.55277,-0.18426) ==
 == 29-th k-point nmo = 82 (0.09213,-0.46064,-0.27639) ==
 == 30-th k-point nmo = 83 (0.18426,-0.36851,-0.36851) ==
 == 31-th k-point nmo = 83 (0.27639,-0.27639,-0.46064) ==
 == 32-th k-point nmo = 82 (0.36851,-0.18426,-0.55277) ==
 == 33-th k-point nmo = 82 (0.46064,-0.09213,-0.64490) ==
 == 34-th k-point nmo = 82 (0.55277,0.00000,-0.73703) ==
 == 35-th k-point nmo = 81 (0.64490,0.09213,-0.82916) ==
 == 36-th k-point nmo = 81 (0.00000,-0.73703,-0.00000) ==
 == 37-th k-point nmo = 81 (0.09213,-0.64490,-0.09213) ==
 == 38-th k-point nmo = 82 (0.18426,-0.55277,-0.18426) ==
 == 39-th k-point nmo = 83 (0.27639,-0.46064,-0.27639) ==
 == 40-th k-point nmo = 83 (0.36851,-0.36851,-0.36851) ==
 == 41-th k-point nmo = 83 (0.46064,-0.27639,-0.46064) ==
 == 42-th k-point nmo = 83 (0.55277,-0.18426,-0.55277) ==
 == 43-th k-point nmo = 83 (0.64490,-0.09213,-0.64490) ==
 == 44-th k-point nmo = 81 (0.73703,0.00000,-0.73703) ==
 == 45-th k-point nmo = 81 (0.09213,-0.82916,0.09213) ==
 == 46-th k-point nmo = 81 (0.18426,-0.73703,-0.00000) ==
 == 47-th k-point nmo = 82 (0.27639,-0.64490,-0.09213) ==
 == 48-th k-point nmo = 82 (0.36851,-0.55277,-0.18426) ==
 == 49-th k-point nmo = 83 (0.46064,-0.46064,-0.27639) ==
 == 50-th k-point nmo = 83 (0.55277,-0.36851,-0.36851) ==
 == 51-th k-point nmo = 82 (0.64490,-0.27639,-0.46064) ==
 == 52-th k-point nmo = 82 (0.73703,-0.18426,-0.55277) ==
 == 53-th k-point nmo = 81 (0.82916,-0.09213,-0.64490) ==
 == 54-th k-point nmo = 83 (0.18426,-0.92129,0.18426) ==
 == 55-th k-point nmo = 82 (0.27639,-0.82916,0.09213) ==
 == 56-th k-point nmo = 82 (0.36851,-0.73703,-0.00000) ==
 == 57-th k-point nmo = 82 (0.46064,-0.64490,-0.09213) ==
 == 58-th k-point nmo = 83 (0.55277,-0.55277,-0.18426) ==
 == 59-th k-point nmo = 82 (0.64490,-0.46064,-0.27639) ==
 == 60-th k-point nmo = 83 (0.73703,-0.36851,-0.36851) ==
 == 61-th k-point nmo = 82 (0.82916,-0.27639,-0.46064) ==
 == 62-th k-point nmo = 82 (0.92129,-0.18426,-0.55277) ==
 == 63-th k-point nmo = 83 (0.27639,-1.01341,0.27639) ==
 == 64-th k-point nmo = 82 (0.36851,-0.92129,0.18426) ==
 == 65-th k-point nmo = 82 (0.46064,-0.82916,0.09213) ==
 == 66-th k-point nmo = 82 (0.55277,-0.73703,-0.00000) ==
 == 67-th k-point nmo = 83 (0.64490,-0.64490,-0.09213) ==
 == 68-th k-point nmo = 82 (0.73703,-0.55277,-0.18426) ==
 == 69-th k-point nmo = 82 (0.82916,-0.46064,-0.27639) ==
 == 70-th k-point nmo = 83 (0.92129,-0.36851,-0.36851) ==
 == 71-th k-point nmo = 82 (1.01341,-0.27639,-0.46064) ==
 == 72-th k-point nmo = 83 (0.36851,-1.10554,0.36851) ==
 == 73-th k-point nmo = 82 (0.46064,-1.01341,0.27639) ==
 == 74-th k-point nmo = 82 (0.55277,-0.92129,0.18426) ==
 == 75-th k-point nmo = 81 (0.64490,-0.82916,0.09213) ==
 == 76-th k-point nmo = 81 (0.73703,-0.73703,-0.00000) ==
 == 77-th k-point nmo = 81 (0.82916,-0.64490,-0.09213) ==
 == 78-th k-point nmo = 82 (0.92129,-0.55277,-0.18426) ==
 == 79-th k-point nmo = 82 (1.01341,-0.46064,-0.27639) ==
 == 80-th k-point nmo = 83 (1.10554,-0.36851,-0.36851) ==
 == 81-th k-point nmo = 83 (-0.46064,-0.27639,-0.27639) ==
 == 82-th k-point nmo = 83 (-0.36851,-0.18426,-0.36851) ==
 == 83-th k-point nmo = 82 (-0.27639,-0.09213,-0.46064) ==
 == 84-th k-point nmo = 81 (-0.18426,0.00000,-0.55277) ==
 == 85-th k-point nmo = 81 (-0.09213,0.09213,-0.64490) ==
 == 86-th k-point nmo = 81 (-0.00000,0.18426,-0.73703) ==
 == 87-th k-point nmo = 82 (0.09213,0.27639,-0.82916) ==
 == 88-th k-point nmo = 82 (0.18426,0.36851,-0.92129) ==
 == 89-th k-point nmo = 82 (0.27639,0.46064,-1.01341) ==
 == 90-th k-point nmo = 83 (-0.36851,-0.36851,-0.18426) ==
 == 91-th k-point nmo = 83 (-0.27639,-0.27639,-0.27639) ==
 == 92-th k-point nmo = 82 (-0.18426,-0.18426,-0.36851) ==
 == 93-th k-point nmo = 82 (-0.09213,-0.09213,-0.46064) ==
 == 94-th k-point nmo = 81 (-0.00000,0.00000,-0.55277) ==
 == 95-th k-point nmo = 81 (0.09213,0.09213,-0.64490) ==
 == 96-th k-point nmo = 83 (0.18426,0.18426,-0.73703) ==
 == 97-th k-point nmo = 83 (0.27639,0.27639,-0.82916) ==
 == 98-th k-point nmo = 83 (0.36851,0.36851,-0.92129) ==
 == 99-th k-point nmo = 82 (-0.27639,-0.46064,-0.09213) ==
 == 100-th k-point nmo = 82 (-0.18426,-0.36851,-0.18426) ==
 == 101-th k-point nmo = 81 (-0.09213,-0.27639,-0.27639) ==
 == 102-th k-point nmo = 82 (-0.00000,-0.18426,-0.36851) ==
 == 103-th k-point nmo = 82 (0.09213,-0.09213,-0.46064) ==
 == 104-th k-point nmo = 81 (0.18426,0.00000,-0.55277) ==
 == 105-th k-point nmo = 82 (0.27639,0.09213,-0.64490) ==
 == 106-th k-point nmo = 82 (0.36851,0.18426,-0.73703) ==
 == 107-th k-point nmo = 82 (0.46064,0.27639,-0.82916) ==
 == 108-th k-point nmo = 81 (-0.18426,-0.55277,-0.00000) ==
 == 109-th k-point nmo = 82 (-0.09213,-0.46064,-0.09213) ==
 == 110-th k-point nmo = 82 (-0.00000,-0.36851,-0.18426) ==
 == 111-th k-point nmo = 81 (0.09213,-0.27639,-0.27639) ==
 == 112-th k-point nmo = 82 (0.18426,-0.18426,-0.36851) ==
 == 113-th k-point nmo = 82 (0.27639,-0.09213,-0.46064) ==
 == 114-th k-point nmo = 82 (0.36851,0.00000,-0.55277) ==
 == 115-th k-point nmo = 82 (0.46064,0.09213,-0.64490) ==
 == 116-th k-point nmo = 82 (0.55277,0.18426,-0.73703) ==
 == 117-th k-point nmo = 81 (-0.09213,-0.64490,0.09213) ==
 == 118-th k-point nmo = 81 (-0.00000,-0.55277,-0.00000) ==
 == 119-th k-point nmo = 82 (0.09213,-0.46064,-0.09213) ==
 == 120-th k-point nmo = 82 (0.18426,-0.36851,-0.18426) ==
 == 121-th k-point nmo = 83 (0.27639,-0.27639,-0.27639) ==
 == 122-th k-point nmo = 83 (0.36851,-0.18426,-0.36851) ==
 == 123-th k-point nmo = 83 (0.46064,-0.09213,-0.46064) ==
 == 124-th k-point nmo = 83 (0.55277,0.00000,-0.55277) ==
 == 125-th k-point nmo = 83 (0.64490,0.09213,-0.64490) ==
 == 126-th k-point nmo = 81 (0.00000,-0.73703,0.18426) ==
 == 127-th k-point nmo = 81 (0.09213,-0.64490,0.09213) ==
 == 128-th k-point nmo = 81 (0.18426,-0.55277,-0.00000) ==
 == 129-th k-point nmo = 82 (0.27639,-0.46064,-0.09213) ==
 == 130-th k-point nmo = 83 (0.36851,-0.36851,-0.18426) ==
 == 131-th k-point nmo = 83 (0.46064,-0.27639,-0.27639) ==
 == 132-th k-point nmo = 82 (0.55277,-0.18426,-0.36851) ==
 == 133-th k-point nmo = 82 (0.64490,-0.09213,-0.46064) ==
 == 134-th k-point nmo = 82 (0.73703,0.00000,-0.55277) ==
 == 135-th k-point nmo = 82 (0.09213,-0.82916,0.27639) ==
 == 136-th k-point nmo = 83 (0.18426,-0.73703,0.18426) ==
 == 137-th k-point nmo = 82 (0.27639,-0.64490,0.09213) ==
 == 138-th k-point nmo = 82 (0.36851,-0.55277,-0.00000) ==
 == 139-th k-point nmo = 83 (0.46064,-0.46064,-0.09213) ==
 == 140-th k-point nmo = 82 (0.55277,-0.36851,-0.18426) ==
 == 141-th k-point nmo = 83 (0.64490,-0.27639,-0.27639) ==
 == 142-th k-point nmo = 82 (0.73703,-0.18426,-0.36851) ==
 == 143-th k-point nmo = 82 (0.82916,-0.09213,-0.46064) ==
 == 144-th k-point nmo = 82 (0.18426,-0.92129,0.36851) ==
 == 145-th k-point nmo = 83 (0.27639,-0.82916,0.27639) ==
 == 146-th k-point nmo = 82 (0.36851,-0.73703,0.18426) ==
 == 147-th k-point nmo = 82 (0.46064,-0.64490,0.09213) ==
 == 148-th k-point nmo = 83 (0.55277,-0.55277,-0.00000) ==
 == 149-th k-point nmo = 82 (0.64490,-0.46064,-0.09213) ==
 == 150-th k-point nmo = 82 (0.73703,-0.36851,-0.18426) ==
 == 151-th k-point nmo = 83 (0.82916,-0.27639,-0.27639) ==
 == 152-th k-point nmo = 82 (0.92129,-0.18426,-0.36851) ==
 == 153-th k-point nmo = 82 (0.27639,-1.01341,0.46064) ==
 == 154-th k-point nmo = 83 (0.36851,-0.92129,0.36851) ==
 == 155-th k-point nmo = 82 (0.46064,-0.82916,0.27639) ==
 == 156-th k-point nmo = 82 (0.55277,-0.73703,0.18426) ==
 == 157-th k-point nmo = 83 (0.64490,-0.64490,0.09213) ==
 == 158-th k-point nmo = 82 (0.73703,-0.55277,-0.00000) ==
 == 159-th k-point nmo = 82 (0.82916,-0.46064,-0.09213) ==
 == 160-th k-point nmo = 82 (0.92129,-0.36851,-0.18426) ==
 == 161-th k-point nmo = 83 (1.01341,-0.27639,-0.27639) ==
 == 162-th k-point nmo = 82 (-0.55277,-0.18426,-0.18426) ==
 == 163-th k-point nmo = 82 (-0.46064,-0.09213,-0.27639) ==
 == 164-th k-point nmo = 83 (-0.36851,0.00000,-0.36851) ==
 == 165-th k-point nmo = 82 (-0.27639,0.09213,-0.46064) ==
 == 166-th k-point nmo = 82 (-0.18426,0.18426,-0.55277) ==
 == 167-th k-point nmo = 82 (-0.09213,0.27639,-0.64490) ==
 == 168-th k-point nmo = 82 (-0.00000,0.36851,-0.73703) ==
 == 169-th k-point nmo = 82 (0.09213,0.46064,-0.82916) ==
 == 170-th k-point nmo = 82 (0.18426,0.55277,-0.92129) ==
 == 171-th k-point nmo = 82 (-0.46064,-0.27639,-0.09213) ==
 == 172-th k-point nmo = 82 (-0.36851,-0.18426,-0.18426) ==
 == 173-th k-point nmo = 81 (-0.27639,-0.09213,-0.27639) ==
 == 174-th k-point nmo = 82 (-0.18426,0.00000,-0.36851) ==
 == 175-th k-point nmo = 82 (-0.09213,0.09213,-0.46064) ==
 == 176-th k-point nmo = 81 (-0.00000,0.18426,-0.55277) ==
 == 177-th k-point nmo = 82 (0.09213,0.27639,-0.64490) ==
 == 178-th k-point nmo = 82 (0.18426,0.36851,-0.73703) ==
 == 179-th k-point nmo = 82 (0.27639,0.46064,-0.82916) ==
 == 180-th k-point nmo = 83 (-0.36851,-0.36851,-0.00000) ==
 == 181-th k-point nmo = 81 (-0.27639,-0.27639,-0.09213) ==
 == 182-th k-point nmo = 83 (-0.18426,-0.18426,-0.18426) ==
 == 183-th k-point nmo = 81 (-0.09213,-0.09213,-0.27639) ==
 == 184-th k-point nmo = 81 (-0.00000,0.00000,-0.36851) ==
 == 185-th k-point nmo = 82 (0.09213,0.09213,-0.46064) ==
 == 186-th k-point nmo = 82 (0.18426,0.18426,-0.55277) ==
 == 187-th k-point nmo = 83 (0.27639,0.27639,-0.64490) ==
 == 188-th k-point nmo = 83 (0.36851,0.36851,-0.73703) ==
 == 189-th k-point nmo = 82 (-0.27639,-0.46064,0.09213) ==
 == 190-th k-point nmo = 82 (-0.18426,-0.36851,-0.00000) ==
 == 191-th k-point nmo = 81 (-0.09213,-0.27639,-0.09213) ==
 == 192-th k-point nmo = 81 (-0.00000,-0.18426,-0.18426) ==
 == 193-th k-point nmo = 81 (0.09213,-0.09213,-0.27639) ==
 == 194-th k-point nmo = 82 (0.18426,0.00000,-0.36851) ==
 == 195-th k-point nmo = 82 (0.27639,0.09213,-0.46064) ==
 == 196-th k-point nmo = 82 (0.36851,0.18426,-0.55277) ==
 == 197-th k-point nmo = 82 (0.46064,0.27639,-0.64490) ==
 == 198-th k-point nmo = 82 (-0.18426,-0.55277,0.18426) ==
 == 199-th k-point nmo = 82 (-0.09213,-0.46064,0.09213) ==
 == 200-th k-point nmo = 81 (0.00000,-0.36851,-0.00000) ==
 == 201-th k-point nmo = 81 (0.09213,-0.27639,-0.09213) ==
 == 202-th k-point nmo = 83 (0.18426,-0.18426,-0.18426) ==
 == 203-th k-point nmo = 81 (0.27639,-0.09213,-0.27639) ==
 == 204-th k-point nmo = 83 (0.36851,0.00000,-0.36851) ==
 == 205-th k-point nmo = 83 (0.46064,0.09213,-0.46064) ==
 == 206-th k-point nmo = 83 (0.55277,0.18426,-0.55277) ==
 == 207-th k-point nmo = 82 (-0.09213,-0.64490,0.27639) ==
 == 208-th k-point nmo = 81 (0.00000,-0.55277,0.18426) ==
 == 209-th k-point nmo = 82 (0.09213,-0.46064,0.09213) ==
 == 210-th k-point nmo = 82 (0.18426,-0.36851,-0.00000) ==
 == 211-th k-point nmo = 81 (0.27639,-0.27639,-0.09213) ==
 == 212-th k-point nmo = 82 (0.36851,-0.18426,-0.18426) ==
 == 213-th k-point nmo = 82 (0.46064,-0.09213,-0.27639) ==
 == 214-th k-point nmo = 82 (0.55277,0.00000,-0.36851) ==
 == 215-th k-point nmo = 82 (0.64490,0.09213,-0.46064) ==
 == 216-th k-point nmo = 82 (0.00000,-0.73703,0.36851) ==
 == 217-th k-point nmo = 82 (0.09213,-0.64490,0.27639) ==
 == 218-th k-point nmo = 82 (0.18426,-0.55277,0.18426) ==
 == 219-th k-point nmo = 82 (0.27639,-0.46064,0.09213) ==
 == 220-th k-point nmo = 83 (0.36851,-0.36851,-0.00000) ==
 == 221-th k-point nmo = 82 (0.46064,-0.27639,-0.09213) ==
 == 222-th k-point nmo = 82 (0.55277,-0.18426,-0.18426) ==
 == 223-th k-point nmo = 82 (0.64490,-0.09213,-0.27639) ==
 == 224-th k-point nmo = 82 (0.73703,0.00000,-0.36851) ==
 == 225-th k-point nmo = 82 (0.09213,-0.82916,0.46064) ==
 == 226-th k-point nmo = 82 (0.18426,-0.73703,0.36851) ==
 == 227-th k-point nmo = 83 (0.27639,-0.64490,0.27639) ==
 == 228-th k-point nmo = 82 (0.36851,-0.55277,0.18426) ==
 == 229-th k-point nmo = 83 (0.46064,-0.46064,0.09213) ==
 == 230-th k-point nmo = 82 (0.55277,-0.36851,-0.00000) ==
 == 231-th k-point nmo = 82 (0.64490,-0.27639,-0.09213) ==
 == 232-th k-point nmo = 83 (0.73703,-0.18426,-0.18426) ==
 == 233-th k-point nmo = 82 (0.82916,-0.09213,-0.27639) ==
 == 234-th k-point nmo = 82 (0.18426,-0.92129,0.55277) ==
 == 235-th k-point nmo = 82 (0.27639,-0.82916,0.46064) ==
 == 236-th k-point nmo = 83 (0.36851,-0.73703,0.36851) ==
 == 237-th k-point nmo = 82 (0.46064,-0.64490,0.27639) ==
 == 238-th k-point nmo = 83 (0.55277,-0.55277,0.18426) ==
 == 239-th k-point nmo = 82 (0.64490,-0.46064,0.09213) ==
 == 240-th k-point nmo = 82 (0.73703,-0.36851,-0.00000) ==
 == 241-th k-point nmo = 82 (0.82916,-0.27639,-0.09213) ==
 == 242-th k-point nmo = 83 (0.92129,-0.18426,-0.18426) ==
 == 243-th k-point nmo = 81 (-0.64490,-0.09213,-0.09213) ==
 == 244-th k-point nmo = 81 (-0.55277,0.00000,-0.18426) ==
 == 245-th k-point nmo = 82 (-0.46064,0.09213,-0.27639) ==
 == 246-th k-point nmo = 83 (-0.36851,0.18426,-0.36851) ==
 == 247-th k-point nmo = 83 (-0.27639,0.27639,-0.46064) ==
 == 248-th k-point nmo = 82 (-0.18426,0.36851,-0.55277) ==
 == 249-th k-point nmo = 82 (-0.09213,0.46064,-0.64490) ==
 == 250-th k-point nmo = 82 (-0.00000,0.55277,-0.73703) ==
 == 251-th k-point nmo = 81 (0.09213,0.64490,-0.82916) ==
 == 252-th k-point nmo = 81 (-0.55277,-0.18426,-0.00000) ==
 == 253-th k-point nmo = 82 (-0.46064,-0.09213,-0.09213) ==
 == 254-th k-point nmo = 82 (-0.36851,0.00000,-0.18426) ==
 == 255-th k-point nmo = 81 (-0.27639,0.09213,-0.27639) ==
 == 256-th k-point nmo = 82 (-0.18426,0.18426,-0.36851) ==
 == 257-th k-point nmo = 82 (-0.09213,0.27639,-0.46064) ==
 == 258-th k-point nmo = 82 (-0.00000,0.36851,-0.55277) ==
 == 259-th k-point nmo = 82 (0.09213,0.46064,-0.64490) ==
 == 260-th k-point nmo = 82 (0.18426,0.55277,-0.73703) ==
 == 261-th k-point nmo = 82 (-0.46064,-0.27639,0.09213) ==
 == 262-th k-point nmo = 82 (-0.36851,-0.18426,-0.00000) ==
 == 263-th k-point nmo = 81 (-0.27639,-0.09213,-0.09213) ==
 == 264-th k-point nmo = 81 (-0.18426,0.00000,-0.18426) ==
 == 265-th k-point nmo = 81 (-0.09213,0.09213,-0.27639) ==
 == 266-th k-point nmo = 82 (-0.00000,0.18426,-0.36851) ==
 == 267-th k-point nmo = 82 (0.09213,0.27639,-0.46064) ==
 == 268-th k-point nmo = 82 (0.18426,0.36851,-0.55277) ==
 == 269-th k-point nmo = 82 (0.27639,0.46064,-0.64490) ==
 == 270-th k-point nmo = 83 (-0.36851,-0.36851,0.18426) ==
 == 271-th k-point nmo = 81 (-0.27639,-0.27639,0.09213) ==
 == 272-th k-point nmo = 81 (-0.18426,-0.18426,-0.00000) ==
 == 273-th k-point nmo = 82 (-0.09213,-0.09213,-0.09213) ==
 == 274-th k-point nmo = 81 (-0.00000,0.00000,-0.18426) ==
 == 275-th k-point nmo = 81 (0.09213,0.09213,-0.27639) ==
 == 276-th k-point nmo = 82 (0.18426,0.18426,-0.36851) ==
 == 277-th k-point nmo = 83 (0.27639,0.27639,-0.46064) ==
 == 278-th k-point nmo = 83 (0.36851,0.36851,-0.55277) ==
 == 279-th k-point nmo = 83 (-0.27639,-0.46064,0.27639) ==
 == 280-th k-point nmo = 82 (-0.18426,-0.36851,0.18426) ==
 == 281-th k-point nmo = 81 (-0.09213,-0.27639,0.09213) ==
 == 282-th k-point nmo = 81 (0.00000,-0.18426,-0.00000) ==
 == 283-th k-point nmo = 82 (0.09213,-0.09213,-0.09213) ==
 == 284-th k-point nmo = 81 (0.18426,0.00000,-0.18426) ==
 == 285-th k-point nmo = 81 (0.27639,0.09213,-0.27639) ==
 == 286-th k-point nmo = 83 (0.36851,0.18426,-0.36851) ==
 == 287-th k-point nmo = 83 (0.46064,0.27639,-0.46064) ==
 == 288-th k-point nmo = 82 (-0.18426,-0.55277,0.36851) ==
 == 289-th k-point nmo = 82 (-0.09213,-0.46064,0.27639) ==
 == 290-th k-point nmo = 82 (0.00000,-0.36851,0.18426) ==
 == 291-th k-point nmo = 81 (0.09213,-0.27639,0.09213) ==
 == 292-th k-point nmo = 81 (0.18426,-0.18426,-0.00000) ==
 == 293-th k-point nmo = 81 (0.27639,-0.09213,-0.09213) ==
 == 294-th k-point nmo = 82 (0.36851,0.00000,-0.18426) ==
 == 295-th k-point nmo = 82 (0.46064,0.09213,-0.27639) ==
 == 296-th k-point nmo = 82 (0.55277,0.18426,-0.36851) ==
 == 297-th k-point nmo = 82 (-0.09213,-0.64490,0.46064) ==
 == 298-th k-point nmo = 82 (0.00000,-0.55277,0.36851) ==
 == 299-th k-point nmo = 82 (0.09213,-0.46064,0.27639) ==
 == 300-th k-point nmo = 82 (0.18426,-0.36851,0.18426) ==
 == 301-th k-point nmo = 81 (0.27639,-0.27639,0.09213) ==
 == 302-th k-point nmo = 82 (0.36851,-0.18426,-0.00000) ==
 == 303-th k-point nmo = 82 (0.46064,-0.09213,-0.09213) ==
 == 304-th k-point nmo = 81 (0.55277,0.00000,-0.18426) ==
 == 305-th k-point nmo = 82 (0.64490,0.09213,-0.27639) ==
 == 306-th k-point nmo = 82 (0.00000,-0.73703,0.55277) ==
 == 307-th k-point nmo = 82 (0.09213,-0.64490,0.46064) ==
 == 308-th k-point nmo = 82 (0.18426,-0.55277,0.36851) ==
 == 309-th k-point nmo = 83 (0.27639,-0.46064,0.27639) ==
 == 310-th k-point nmo = 83 (0.36851,-0.36851,0.18426) ==
 == 311-th k-point nmo = 82 (0.46064,-0.27639,0.09213) ==
 == 312-th k-point nmo = 81 (0.55277,-0.18426,-0.00000) ==
 == 313-th k-point nmo = 81 (0.64490,-0.09213,-0.09213) ==
 == 314-th k-point nmo = 81 (0.73703,0.00000,-0.18426) ==
 == 315-th k-point nmo = 81 (0.09213,-0.82916,0.64490) ==
 == 316-th k-point nmo = 82 (0.18426,-0.73703,0.55277) ==
 == 317-th k-point nmo = 82 (0.27639,-0.64490,0.46064) ==
 == 318-th k-point nmo = 83 (0.36851,-0.55277,0.36851) ==
 == 319-th k-point nmo = 83 (0.46064,-0.46064,0.27639) ==
 == 320-th k-point nmo = 82 (0.55277,-0.36851,0.18426) ==
 == 321-th k-point nmo = 82 (0.64490,-0.27639,0.09213) ==
 == 322-th k-point nmo = 81 (0.73703,-0.18426,-0.00000) ==
 == 323-th k-point nmo = 81 (0.82916,-0.09213,-0.09213) ==
 == 324-th k-point nmo = 81 (-0.73703,0.00000,0.00000) ==
 == 325-th k-point nmo = 81 (-0.64490,0.09213,-0.09213) ==
 == 326-th k-point nmo = 82 (-0.55277,0.18426,-0.18426) ==
 == 327-th k-point nmo = 83 (-0.46064,0.27639,-0.27639) ==
 == 328-th k-point nmo = 83 (-0.36851,0.36851,-0.36851) ==
 == 329-th k-point nmo = 83 (-0.27639,0.46064,-0.46064) ==
 == 330-th k-point nmo = 83 (-0.18426,0.55277,-0.55277) ==
 == 331-th k-point nmo = 83 (-0.09213,0.64490,-0.64490) ==
 == 332-th k-point nmo = 81 (-0.00000,0.73703,-0.73703) ==
 == 333-th k-point nmo = 81 (-0.64490,-0.09213,0.09213) ==
 == 334-th k-point nmo = 81 (-0.55277,0.00000,0.00000) ==
 == 335-th k-point nmo = 82 (-0.46064,0.09213,-0.09213) ==
 == 336-th k-point nmo = 82 (-0.36851,0.18426,-0.18426) ==
 == 337-th k-point nmo = 83 (-0.27639,0.27639,-0.27639) ==
 == 338-th k-point nmo = 83 (-0.18426,0.36851,-0.36851) ==
 == 339-th k-point nmo = 83 (-0.09213,0.46064,-0.46064) ==
 == 340-th k-point nmo = 83 (-0.00000,0.55277,-0.55277) ==
 == 341-th k-point nmo = 83 (0.09213,0.64490,-0.64490) ==
 == 342-th k-point nmo = 82 (-0.55277,-0.18426,0.18426) ==
 == 343-th k-point nmo = 82 (-0.46064,-0.09213,0.09213) ==
 == 344-th k-point nmo = 81 (-0.36851,0.00000,0.00000) ==
 == 345-th k-point nmo = 81 (-0.27639,0.09213,-0.09213) ==
 == 346-th k-point nmo = 83 (-0.18426,0.18426,-0.18426) ==
 == 347-th k-point nmo = 81 (-0.09213,0.27639,-0.27639) ==
 == 348-th k-point nmo = 83 (-0.00000,0.36851,-0.36851) ==
 == 349-th k-point nmo = 83 (0.09213,0.46064,-0.46064) ==
 == 350-th k-point nmo = 83 (0.18426,0.55277,-0.55277) ==
 == 351-th k-point nmo = 83 (-0.46064,-0.27639,0.27639) ==
 == 352-th k-point nmo = 82 (-0.36851,-0.18426,0.18426) ==
 == 353-th k-point nmo = 81 (-0.27639,-0.09213,0.09213) ==
 == 354-th k-point nmo = 81 (-0.18426,0.00000,0.00000) ==
 == 355-th k-point nmo = 82 (-0.09213,0.09213,-0.09213) ==
 == 356-th k-point nmo = 81 (-0.00000,0.18426,-0.18426) ==
 == 357-th k-point nmo = 81 (0.09213,0.27639,-0.27639) ==
 == 358-th k-point nmo = 83 (0.18426,0.36851,-0.36851) ==
 == 359-th k-point nmo = 83 (0.27639,0.46064,-0.46064) ==
 == 360-th k-point nmo = 83 (-0.36851,-0.36851,0.36851) ==
 == 361-th k-point nmo = 83 (-0.27639,-0.27639,0.27639) ==
 == 362-th k-point nmo = 83 (-0.18426,-0.18426,0.18426) ==
 == 363-th k-point nmo = 82 (-0.09213,-0.09213,0.09213) ==
 == 364-th k-point nmo = 83 (0.00000,0.00000,0.00000) ==
 == 365-th k-point nmo = 82 (0.09213,0.09213,-0.09213) ==
 == 366-th k-point nmo = 83 (0.18426,0.18426,-0.18426) ==
 == 367-th k-point nmo = 83 (0.27639,0.27639,-0.27639) ==
 == 368-th k-point nmo = 83 (0.36851,0.36851,-0.36851) ==
 == 369-th k-point nmo = 83 (-0.27639,-0.46064,0.46064) ==
 == 370-th k-point nmo = 83 (-0.18426,-0.36851,0.36851) ==
 == 371-th k-point nmo = 81 (-0.09213,-0.27639,0.27639) ==
 == 372-th k-point nmo = 81 (0.00000,-0.18426,0.18426) ==
 == 373-th k-point nmo = 82 (0.09213,-0.09213,0.09213) ==
 == 374-th k-point nmo = 81 (0.18426,-0.00000,0.00000) ==
 == 375-th k-point nmo = 81 (0.27639,0.09213,-0.09213) ==
 == 376-th k-point nmo = 82 (0.36851,0.18426,-0.18426) ==
 == 377-th k-point nmo = 83 (0.46064,0.27639,-0.27639) ==
 == 378-th k-point nmo = 83 (-0.18426,-0.55277,0.55277) ==
 == 379-th k-point nmo = 83 (-0.09213,-0.46064,0.46064) ==
 == 380-th k-point nmo = 83 (0.00000,-0.36851,0.36851) ==
 == 381-th k-point nmo = 81 (0.09213,-0.27639,0.27639) ==
 == 382-th k-point nmo = 83 (0.18426,-0.18426,0.18426) ==
 == 383-th k-point nmo = 81 (0.27639,-0.09213,0.09213) ==
 == 384-th k-point nmo = 81 (0.36851,-0.00000,0.00000) ==
 == 385-th k-point nmo = 82 (0.46064,0.09213,-0.09213) ==
 == 386-th k-point nmo = 82 (0.55277,0.18426,-0.18426) ==
 == 387-th k-point nmo = 83 (-0.09213,-0.64490,0.64490) ==
 == 388-th k-point nmo = 83 (0.00000,-0.55277,0.55277) ==
 == 389-th k-point nmo = 83 (0.09213,-0.46064,0.46064) ==
 == 390-th k-point nmo = 83 (0.18426,-0.36851,0.36851) ==
 == 391-th k-point nmo = 83 (0.27639,-0.27639,0.27639) ==
 == 392-th k-point nmo = 82 (0.36851,-0.18426,0.18426) ==
 == 393-th k-point nmo = 82 (0.46064,-0.09213,0.09213) ==
 == 394-th k-point nmo = 81 (0.55277,-0.00000,0.00000) ==
 == 395-th k-point nmo = 81 (0.64490,0.09213,-0.09213) ==
 == 396-th k-point nmo = 81 (0.00000,-0.73703,0.73703) ==
 == 397-th k-point nmo = 83 (0.09213,-0.64490,0.64490) ==
 == 398-th k-point nmo = 83 (0.18426,-0.55277,0.55277) ==
 == 399-th k-point nmo = 83 (0.27639,-0.46064,0.46064) ==
 == 400-th k-point nmo = 83 (0.36851,-0.36851,0.36851) ==
 == 401-th k-point nmo = 83 (0.46064,-0.27639,0.27639) ==
 == 402-th k-point nmo = 82 (0.55277,-0.18426,0.18426) ==
 == 403-th k-point nmo = 81 (0.64490,-0.09213,0.09213) ==
 == 404-th k-point nmo = 81 (0.73703,-0.00000,0.00000) ==
 == 405-th k-point nmo = 81 (-0.82916,0.09213,0.09213) ==
 == 406-th k-point nmo = 81 (-0.73703,0.18426,0.00000) ==
 == 407-th k-point nmo = 82 (-0.64490,0.27639,-0.09213) ==
 == 408-th k-point nmo = 82 (-0.55277,0.36851,-0.18426) ==
 == 409-th k-point nmo = 83 (-0.46064,0.46064,-0.27639) ==
 == 410-th k-point nmo = 83 (-0.36851,0.55277,-0.36851) ==
 == 411-th k-point nmo = 82 (-0.27639,0.64490,-0.46064) ==
 == 412-th k-point nmo = 82 (-0.18426,0.73703,-0.55277) ==
 == 413-th k-point nmo = 81 (-0.09213,0.82916,-0.64490) ==
 == 414-th k-point nmo = 81 (-0.73703,0.00000,0.18426) ==
 == 415-th k-point nmo = 81 (-0.64490,0.09213,0.09213) ==
 == 416-th k-point nmo = 81 (-0.55277,0.18426,0.00000) ==
 == 417-th k-point nmo = 82 (-0.46064,0.27639,-0.09213) ==
 == 418-th k-point nmo = 83 (-0.36851,0.36851,-0.18426) ==
 == 419-th k-point nmo = 83 (-0.27639,0.46064,-0.27639) ==
 == 420-th k-point nmo = 82 (-0.18426,0.55277,-0.36851) ==
 == 421-th k-point nmo = 82 (-0.09213,0.64490,-0.46064) ==
 == 422-th k-point nmo = 82 (-0.00000,0.73703,-0.55277) ==
 == 423-th k-point nmo = 82 (-0.64490,-0.09213,0.27639) ==
 == 424-th k-point nmo = 81 (-0.55277,0.00000,0.18426) ==
 == 425-th k-point nmo = 82 (-0.46064,0.09213,0.09213) ==
 == 426-th k-point nmo = 82 (-0.36851,0.18426,0.00000) ==
 == 427-th k-point nmo = 81 (-0.27639,0.27639,-0.09213) ==
 == 428-th k-point nmo = 82 (-0.18426,0.36851,-0.18426) ==
 == 429-th k-point nmo = 82 (-0.09213,0.46064,-0.27639) ==
 == 430-th k-point nmo = 82 (-0.00000,0.55277,-0.36851) ==
 == 431-th k-point nmo = 82 (0.09213,0.64490,-0.46064) ==
 == 432-th k-point nmo = 82 (-0.55277,-0.18426,0.36851) ==
 == 433-th k-point nmo = 82 (-0.46064,-0.09213,0.27639) ==
 == 434-th k-point nmo = 82 (-0.36851,-0.00000,0.18426) ==
 == 435-th k-point nmo = 81 (-0.27639,0.09213,0.09213) ==
 == 436-th k-point nmo = 81 (-0.18426,0.18426,0.00000) ==
 == 437-th k-point nmo = 81 (-0.09213,0.27639,-0.09213) ==
 == 438-th k-point nmo = 82 (-0.00000,0.36851,-0.18426) ==
 == 439-th k-point nmo = 82 (0.09213,0.46064,-0.27639) ==
 == 440-th k-point nmo = 82 (0.18426,0.55277,-0.36851) ==
 == 441-th k-point nmo = 83 (-0.46064,-0.27639,0.46064) ==
 == 442-th k-point nmo = 83 (-0.36851,-0.18426,0.36851) ==
 == 443-th k-point nmo = 81 (-0.27639,-0.09213,0.27639) ==
 == 444-th k-point nmo = 81 (-0.18426,-0.00000,0.18426) ==
 == 445-th k-point nmo = 82 (-0.09213,0.09213,0.09213) ==
 == 446-th k-point nmo = 81 (0.00000,0.18426,0.00000) ==
 == 447-th k-point nmo = 81 (0.09213,0.27639,-0.09213) ==
 == 448-th k-point nmo = 82 (0.18426,0.36851,-0.18426) ==
 == 449-th k-point nmo = 83 (0.27639,0.46064,-0.27639) ==
 == 450-th k-point nmo = 83 (-0.36851,-0.36851,0.55277) ==
 == 451-th k-point nmo = 83 (-0.27639,-0.27639,0.46064) ==
 == 452-th k-point nmo = 82 (-0.18426,-0.18426,0.36851) ==
 == 453-th k-point nmo = 81 (-0.09213,-0.09213,0.27639) ==
 == 454-th k-point nmo = 81 (0.00000,-0.00000,0.18426) ==
 == 455-th k-point nmo = 82 (0.09213,0.09213,0.09213) ==
 == 456-th k-point nmo = 81 (0.18426,0.18426,0.00000) ==
 == 457-th k-point nmo = 81 (0.27639,0.27639,-0.09213) ==
 == 458-th k-point nmo = 83 (0.36851,0.36851,-0.18426) ==
 == 459-th k-point nmo = 82 (-0.27639,-0.46064,0.64490) ==
 == 460-th k-point nmo = 82 (-0.18426,-0.36851,0.55277) ==
 == 461-th k-point nmo = 82 (-0.09213,-0.27639,0.46064) ==
 == 462-th k-point nmo = 82 (0.00000,-0.18426,0.36851) ==
 == 463-th k-point nmo = 81 (0.09213,-0.09213,0.27639) ==
 == 464-th k-point nmo = 81 (0.18426,-0.00000,0.18426) ==
 == 465-th k-point nmo = 81 (0.27639,0.09213,0.09213) ==
 == 466-th k-point nmo = 82 (0.36851,0.18426,0.00000) ==
 == 467-th k-point nmo = 82 (0.46064,0.27639,-0.09213) ==
 == 468-th k-point nmo = 82 (-0.18426,-0.55277,0.73703) ==
 == 469-th k-point nmo = 82 (-0.09213,-0.46064,0.64490) ==
 == 470-th k-point nmo = 82 (0.00000,-0.36851,0.55277) ==
 == 471-th k-point nmo = 82 (0.09213,-0.27639,0.46064) ==
 == 472-th k-point nmo = 82 (0.18426,-0.18426,0.36851) ==
 == 473-th k-point nmo = 81 (0.27639,-0.09213,0.27639) ==
 == 474-th k-point nmo = 82 (0.36851,-0.00000,0.18426) ==
 == 475-th k-point nmo = 82 (0.46064,0.09213,0.09213) ==
 == 476-th k-point nmo = 81 (0.55277,0.18426,0.00000) ==
 == 477-th k-point nmo = 81 (-0.09213,-0.64490,0.82916) ==
 == 478-th k-point nmo = 82 (0.00000,-0.55277,0.73703) ==
 == 479-th k-point nmo = 82 (0.09213,-0.46064,0.64490) ==
 == 480-th k-point nmo = 82 (0.18426,-0.36851,0.55277) ==
 == 481-th k-point nmo = 83 (0.27639,-0.27639,0.46064) ==
 == 482-th k-point nmo = 83 (0.36851,-0.18426,0.36851) ==
 == 483-th k-point nmo = 82 (0.46064,-0.09213,0.27639) ==
 == 484-th k-point nmo = 81 (0.55277,-0.00000,0.18426) ==
 == 485-th k-point nmo = 81 (0.64490,0.09213,0.09213) ==
 == 486-th k-point nmo = 83 (-0.92129,0.18426,0.18426) ==
 == 487-th k-point nmo = 82 (-0.82916,0.27639,0.09213) ==
 == 488-th k-point nmo = 82 (-0.73703,0.36851,0.00000) ==
 == 489-th k-point nmo = 82 (-0.64490,0.46064,-0.09213) ==
 == 490-th k-point nmo = 83 (-0.55277,0.55277,-0.18426) ==
 == 491-th k-point nmo = 82 (-0.46064,0.64490,-0.27639) ==
 == 492-th k-point nmo = 83 (-0.36851,0.73703,-0.36851) ==
 == 493-th k-point nmo = 82 (-0.27639,0.82916,-0.46064) ==
 == 494-th k-point nmo = 82 (-0.18426,0.92129,-0.55277) ==
 == 495-th k-point nmo = 82 (-0.82916,0.09213,0.27639) ==
 == 496-th k-point nmo = 83 (-0.73703,0.18426,0.18426) ==
 == 497-th k-point nmo = 82 (-0.64490,0.27639,0.09213) ==
 == 498-th k-point nmo = 82 (-0.55277,0.36851,0.00000) ==
 == 499-th k-point nmo = 83 (-0.46064,0.46064,-0.09213) ==
 == 500-th k-point nmo = 82 (-0.36851,0.55277,-0.18426) ==
 == 501-th k-point nmo = 83 (-0.27639,0.64490,-0.27639) ==
 == 502-th k-point nmo = 82 (-0.18426,0.73703,-0.36851) ==
 == 503-th k-point nmo = 82 (-0.09213,0.82916,-0.46064) ==
 == 504-th k-point nmo = 82 (-0.73703,-0.00000,0.36851) ==
 == 505-th k-point nmo = 82 (-0.64490,0.09213,0.27639) ==
 == 506-th k-point nmo = 82 (-0.55277,0.18426,0.18426) ==
 == 507-th k-point nmo = 82 (-0.46064,0.27639,0.09213) ==
 == 508-th k-point nmo = 83 (-0.36851,0.36851,0.00000) ==
 == 509-th k-point nmo = 82 (-0.27639,0.46064,-0.09213) ==
 == 510-th k-point nmo = 82 (-0.18426,0.55277,-0.18426) ==
 == 511-th k-point nmo = 82 (-0.09213,0.64490,-0.27639) ==
 == 512-th k-point nmo = 82 (-0.00000,0.73703,-0.36851) ==
 == 513-th k-point nmo = 82 (-0.64490,-0.09213,0.46064) ==
 == 514-th k-point nmo = 82 (-0.55277,0.00000,0.36851) ==
 == 515-th k-point nmo = 82 (-0.46064,0.09213,0.27639) ==
 == 516-th k-point nmo = 82 (-0.36851,0.18426,0.18426) ==
 == 517-th k-point nmo = 81 (-0.27639,0.27639,0.09213) ==
 == 518-th k-point nmo = 82 (-0.18426,0.36851,0.00000) ==
 == 519-th k-point nmo = 82 (-0.09213,0.46064,-0.09213) ==
 == 520-th k-point nmo = 81 (-0.00000,0.55277,-0.18426) ==
 == 521-th k-point nmo = 82 (0.09213,0.64490,-0.27639) ==
 == 522-th k-point nmo = 83 (-0.55277,-0.18426,0.55277) ==
 == 523-th k-point nmo = 83 (-0.46064,-0.09213,0.46064) ==
 == 524-th k-point nmo = 83 (-0.36851,-0.00000,0.36851) ==
 == 525-th k-point nmo = 81 (-0.27639,0.09213,0.27639) ==
 == 526-th k-point nmo = 83 (-0.18426,0.18426,0.18426) ==
 == 527-th k-point nmo = 81 (-0.09213,0.27639,0.09213) ==
 == 528-th k-point nmo = 81 (0.00000,0.36851,0.00000) ==
 == 529-th k-point nmo = 82 (0.09213,0.46064,-0.09213) ==
 == 530-th k-point nmo = 82 (0.18426,0.55277,-0.18426) ==
 == 531-th k-point nmo = 82 (-0.46064,-0.27639,0.64490) ==
 == 532-th k-point nmo = 82 (-0.36851,-0.18426,0.55277) ==
 == 533-th k-point nmo = 82 (-0.27639,-0.09213,0.46064) ==
 == 534-th k-point nmo = 82 (-0.18426,-0.00000,0.36851) ==
 == 535-th k-point nmo = 81 (-0.09213,0.09213,0.27639) ==
 == 536-th k-point nmo = 81 (0.00000,0.18426,0.18426) ==
 == 537-th k-point nmo = 81 (0.09213,0.27639,0.09213) ==
 == 538-th k-point nmo = 82 (0.18426,0.36851,0.00000) ==
 == 539-th k-point nmo = 82 (0.27639,0.46064,-0.09213) ==
 == 540-th k-point nmo = 83 (-0.36851,-0.36851,0.73703) ==
 == 541-th k-point nmo = 83 (-0.27639,-0.27639,0.64490) ==
 == 542-th k-point nmo = 82 (-0.18426,-0.18426,0.55277) ==
 == 543-th k-point nmo = 82 (-0.09213,-0.09213,0.46064) ==
 == 544-th k-point nmo = 81 (0.00000,-0.00000,0.36851) ==
 == 545-th k-point nmo = 81 (0.09213,0.09213,0.27639) ==
 == 546-th k-point nmo = 83 (0.18426,0.18426,0.18426) ==
 == 547-th k-point nmo = 81 (0.27639,0.27639,0.09213) ==
 == 548-th k-point nmo = 83 (0.36851,0.36851,0.00000) ==
 == 549-th k-point nmo = 82 (-0.27639,-0.46064,0.82916) ==
 == 550-th k-point nmo = 82 (-0.18426,-0.36851,0.73703) ==
 == 551-th k-point nmo = 82 (-0.09213,-0.27639,0.64490) ==
 == 552-th k-point nmo = 81 (0.00000,-0.18426,0.55277) ==
 == 553-th k-point nmo = 82 (0.09213,-0.09213,0.46064) ==
 == 554-th k-point nmo = 82 (0.18426,-0.00000,0.36851) ==
 == 555-th k-point nmo = 81 (0.27639,0.09213,0.27639) ==
 == 556-th k-point nmo = 82 (0.36851,0.18426,0.18426) ==
 == 557-th k-point nmo = 82 (0.46064,0.27639,0.09213) ==
 == 558-th k-point nmo = 82 (-0.18426,-0.55277,0.92129) ==
 == 559-th k-point nmo = 82 (-0.09213,-0.46064,0.82916) ==
 == 560-th k-point nmo = 82 (0.00000,-0.36851,0.73703) ==
 == 561-th k-point nmo = 82 (0.09213,-0.27639,0.64490) ==
 == 562-th k-point nmo = 82 (0.18426,-0.18426,0.55277) ==
 == 563-th k-point nmo = 82 (0.27639,-0.09213,0.46064) ==
 == 564-th k-point nmo = 83 (0.36851,-0.00000,0.36851) ==
 == 565-th k-point nmo = 82 (0.46064,0.09213,0.27639) ==
 == 566-th k-point nmo = 82 (0.55277,0.18426,0.18426) ==
 == 567-th k-point nmo = 83 (-1.01341,0.27639,0.27639) ==
 == 568-th k-point nmo = 82 (-0.92129,0.36851,0.18426) ==
 == 569-th k-point nmo = 82 (-0.82916,0.46064,0.09213) ==
 == 570-th k-point nmo = 82 (-0.73703,0.55277,0.00000) ==
 == 571-th k-point nmo = 83 (-0.64490,0.64490,-0.09213) ==
 == 572-th k-point nmo = 82 (-0.55277,0.73703,-0.18426) ==
 == 573-th k-point nmo = 82 (-0.46064,0.82916,-0.27639) ==
 == 574-th k-point nmo = 83 (-0.36851,0.92129,-0.36851) ==
 == 575-th k-point nmo = 82 (-0.27639,1.01341,-0.46064) ==
 == 576-th k-point nmo = 82 (-0.92129,0.18426,0.36851) ==
 == 577-th k-point nmo = 83 (-0.82916,0.27639,0.27639) ==
 == 578-th k-point nmo = 82 (-0.73703,0.36851,0.18426) ==
 == 579-th k-point nmo = 82 (-0.64490,0.46064,0.09213) ==
 == 580-th k-point nmo = 83 (-0.55277,0.55277,0.00000) ==
 == 581-th k-point nmo = 82 (-0.46064,0.64490,-0.09213) ==
 == 582-th k-point nmo = 82 (-0.36851,0.73703,-0.18426) ==
 == 583-th k-point nmo = 83 (-0.27639,0.82916,-0.27639) ==
 == 584-th k-point nmo = 82 (-0.18426,0.92129,-0.36851) ==
 == 585-th k-point nmo = 82 (-0.82916,0.09213,0.46064) ==
 == 586-th k-point nmo = 82 (-0.73703,0.18426,0.36851) ==
 == 587-th k-point nmo = 83 (-0.64490,0.27639,0.27639) ==
 == 588-th k-point nmo = 82 (-0.55277,0.36851,0.18426) ==
 == 589-th k-point nmo = 83 (-0.46064,0.46064,0.09213) ==
 == 590-th k-point nmo = 82 (-0.36851,0.55277,0.00000) ==
 == 591-th k-point nmo = 82 (-0.27639,0.64490,-0.09213) ==
 == 592-th k-point nmo = 83 (-0.18426,0.73703,-0.18426) ==
 == 593-th k-point nmo = 82 (-0.09213,0.82916,-0.27639) ==
 == 594-th k-point nmo = 82 (-0.73703,-0.00000,0.55277) ==
 == 595-th k-point nmo = 82 (-0.64490,0.09213,0.46064) ==
 == 596-th k-point nmo = 82 (-0.55277,0.18426,0.36851) ==
 == 597-th k-point nmo = 83 (-0.46064,0.27639,0.27639) ==
 == 598-th k-point nmo = 83 (-0.36851,0.36851,0.18426) ==
 == 599-th k-point nmo = 82 (-0.27639,0.46064,0.09213) ==
[...]
 1.00843 1.09777 1.31446 1.44283 1.52054 1.59874 1.64895 1.81715 1.86800 1.92967
 2.01259 2.03687 2.17530 2.28488 2.29307 2.39587 2.40385 2.61347 2.62361 2.76227
 2.83128 2.88722 3.19989 3.40211 3.49691 3.65661 3.74046 4.21245 4.49111 4.88942
 5.09340 5.22074 5.43001 5.43046 5.51963 5.68881 5.83618 5.93220 6.07901 6.38755
 7.10657 7.44686 7.56051 7.85417 8.25522 8.38402 8.79225 11.61785 11.62833 11.63474
 11.63604 11.63661 11.64039 11.65504 11.66679 11.83743 12.37442 14.78569 15.00621 15.09633
 15.17484 15.27092 15.37390 15.39656 16.21570 16.41083 16.43632 16.67085 16.82675 17.56798
 55.75612 286.51135
 == 705-th k-point (-0.27639,0.09213,0.64490) occupation: 6==
 -23.85914 -1.46232 -0.67379 -0.05167 -0.01558 0.01099 0.53578 0.61442 0.71978 0.75944
 0.93600 1.18980 1.35751 1.39388 1.45596 1.51798 1.66247 1.76785 1.88094 1.90797
 2.00582 2.11088 2.12261 2.23384 2.29579 2.37037 2.42969 2.60170 2.78524 2.79745
 2.81748 2.88798 3.28398 3.45962 3.64778 3.69116 3.83438 3.98140 4.71414 4.75985
 4.89594 5.13766 5.18119 5.44298 5.51102 5.84626 5.98685 6.16625 6.30544 6.42414
 6.56439 7.40092 7.45710 8.06177 8.17301 8.31993 8.57517 11.61301 11.62067 11.62864
 11.63522 11.63974 11.65040 11.65421 11.67760 11.74569 12.31988 14.89153 14.92848 15.00190
 15.12220 15.15063 15.28052 15.34906 16.36628 16.49101 16.65310 16.78914 16.92166 17.20761
 55.74084 286.49477
 == 706-th k-point (-0.18426,0.18426,0.55277) occupation: 6==
 -23.85914 -1.46264 -0.67733 -0.04751 0.00176 0.01399 0.49850 0.63540 0.73539 0.76629
 0.91644 1.26501 1.27024 1.38737 1.44385 1.46792 1.60682 1.74189 1.79862 1.92048
 1.99052 2.06939 2.20947 2.23778 2.35644 2.46518 2.61660 2.66727 2.78626 2.85699
 2.88251 2.98958 3.02126 3.50595 3.77302 3.80396 3.87395 4.14963 4.56203 4.69203
 4.78749 5.04697 5.14123 5.31269 5.45814 6.01846 6.11890 6.22743 6.27544 6.41939
 6.52682 7.43297 7.55075 8.11886 8.23048 8.34745 8.50015 11.60808 11.61862 11.61866
 11.63930 11.64735 11.65180 11.66623 11.68736 11.70643 12.50795 14.83370 14.91282 14.92519
 15.06862 15.12496 15.21367 15.29346 16.55033 16.58734 16.69668 16.70055 16.89322 17.24709
 55.79924 286.56348
 == 707-th k-point (-0.09213,0.27639,0.46064) occupation: 6==
 -23.85914 -1.46291 -0.68034 -0.03695 0.00206 0.02398 0.47515 0.64021 0.75116 0.76589
 0.97027 1.17977 1.21150 1.37515 1.42872 1.48132 1.61872 1.70661 1.80657 1.88813
 1.98564 2.02596 2.22877 2.34596 2.36353 2.48776 2.58992 2.74911 2.85752 2.86090
 2.89181 2.96876 3.23699 3.52737 3.62260 3.89645 3.99177 4.17576 4.58580 4.74022
 4.82977 4.98586 5.14379 5.36925 5.49493 6.17754 6.18078 6.24623 6.34537 6.40695
 6.71995 7.47074 7.52407 7.89774 8.27854 8.50292 8.59105 11.59961 11.61176 11.61756
 11.62902 11.63975 11.64832 11.65526 11.68192 11.70141 12.14103 14.83635 14.90655 14.95209
 15.03581 15.12135 15.23928 15.29562 16.61028 16.66228 16.70232 16.75212 17.00082 17.27596
 55.77348 286.53201
 == 708-th k-point (0.00000,0.36851,0.36851) occupation: 6==
 -23.85914 -1.46302 -0.68152 -0.02906 -0.00379 0.03005 0.46736 0.63609 0.76378 0.76523
 1.07144 1.08182 1.14498 1.40341 1.41048 1.49080 1.61256 1.70280 1.85486 1.86466
 1.93524 2.07228 2.16581 2.26543 2.47664 2.51085 2.58946 2.80597 2.83721 2.86385
 2.88764 2.97023 2.98692 3.25426 3.54971 3.58340 3.92668 4.17451 4.18483 4.57242
 4.66182 4.99558 5.07291 5.15930 5.33960 5.61626 6.18913 6.27818 6.29823 6.31522
 6.55028 6.88579 7.56044 7.58759 8.06332 8.42644 8.62442 8.67007 11.60034 11.60904
 11.62268 11.63175 11.63681 11.64567 11.67193 11.67938 11.70179 12.41345 14.83650 14.87658
 15.01674 15.08435 15.13192 15.22646 15.37228 16.61575 16.71206 16.72514 16.79977 17.20930
 17.23363 55.78390 286.54533
 == 709-th k-point (0.09213,0.46064,0.27639) occupation: 6==
 -23.85914 -1.46291 -0.68034 -0.03695 0.00206 0.02398 0.47515 0.64021 0.75116 0.76589
 0.97027 1.17977 1.21150 1.37515 1.42873 1.48133 1.61873 1.70671 1.80658 1.88814
 1.98563 2.02599 2.22906 2.34628 2.36371 2.48839 2.59003 2.75136 2.86018 2.86537
 2.90001 2.96981 3.24245 3.53076 3.62267 3.89632 3.99358 4.18188 4.58606 4.74068
 4.83343 4.98817 5.14381 5.37191 5.49492 6.17756 6.18084 6.24628 6.34545 6.40719
 6.71978 7.47082 7.52428 7.89813 8.27895 8.50350 8.59779 11.59961 11.61177 11.61756
 11.62903 11.63977 11.64832 11.65529 11.68217 11.70159 12.14107 14.83636 14.90656 14.95234
 15.03595 15.12135 15.23957 15.29562 16.61028 16.66235 16.70234 16.75214 17.00084 17.27590
 55.77348 286.53201
 == 710-th k-point (0.18426,0.55277,0.18426) occupation: 6==
 -23.85914 -1.46264 -0.67733 -0.04751 0.00176 0.01399 0.49850 0.63540 0.73539 0.76629
 0.91644 1.26501 1.27024 1.38738 1.44385 1.46792 1.60682 1.74188 1.79865 1.92048
 1.99046 2.06938 2.20947 2.23772 2.35647 2.46539 2.61656 2.66625 2.78322 2.85645
 2.88264 2.98930 3.02086 3.50397 3.77190 3.80051 3.87394 4.14953 4.56202 4.69199
 4.78735 5.04619 5.14120 5.31284 5.45593 6.01850 6.11890 6.22735 6.27544 6.41811
 6.52590 7.43294 7.55067 8.11844 8.23039 8.34756 8.49623 11.60808 11.61862 11.61866
 11.63929 11.64735 11.65177 11.66622 11.68735 11.70638 12.50768 14.83370 14.91282 14.92518
 15.06852 15.12496 15.21368 15.29302 16.55033 16.58733 16.69668 16.70053 16.89324 17.24638
 55.79911 286.56346
 == 711-th k-point (-0.46064,-0.27639,1.01341) occupation: 6==
 -23.85914 -1.46250 -0.67677 -0.05049 -0.00321 0.02043 0.48668 0.62476 0.74025 0.74839
 1.04564 1.13217 1.27111 1.39598 1.40384 1.47473 1.66000 1.78382 1.92382 1.93926
 1.96841 2.04809 2.18289 2.26996 2.32177 2.44664 2.47022 2.53563 2.73079 2.80019
 2.84841 2.87387 3.42610 3.59359 3.65293 3.75176 3.78109 4.10830 4.57414 4.74360
 4.98830 5.18759 5.22956 5.46734 5.51830 6.04220 6.10016 6.22119 6.42540 6.45874
 6.67190 7.37855 7.63544 7.99132 8.12225 8.27159 8.50723 11.61073 11.61484 11.62064
 11.62547 11.63674 11.65125 11.65730 11.66804 11.68094 12.28134 14.82168 14.90667 15.04719
 15.14033 15.16263 15.29311 15.33387 16.52516 16.58864 16.68529 16.86494 17.04891 17.27743
 55.86532 286.65617
 == 712-th k-point (-0.36851,-0.18426,0.92129) occupation: 6==
 -23.85914 -1.46223 -0.67317 -0.04627 -0.02737 0.01324 0.53786 0.60151 0.72717 0.74964
 1.01465 1.11370 1.34714 1.36608 1.44085 1.54806 1.70949 1.83212 1.91378 1.96754
 2.00259 2.03120 2.20559 2.26810 2.28341 2.36647 2.46312 2.48653 2.60466 2.75744
 2.80190 2.88322 3.34342 3.45195 3.54827 3.68363 3.78617 3.85601 4.65886 4.86039
 5.03650 5.25755 5.40787 5.46651 5.49384 5.60151 5.94248 6.08413 6.25895 6.35941
 6.78253 7.39961 7.62274 8.03588 8.22378 8.31773 8.37725 11.61385 11.61968 11.62680
 11.63259 11.63939 11.64930 11.65091 11.67266 11.70441 12.35227 14.86237 14.97804 15.07039
 15.18815 15.26975 15.31351 15.35529 16.21725 16.43805 16.59613 16.75833 16.99493 17.22249
 55.68312 286.42974
 == 713-th k-point (-0.27639,-0.09213,0.82916) occupation: 6==
 -23.85914 -1.46210 -0.67090 -0.05789 -0.02351 0.00607 0.58718 0.59056 0.69851 0.75845
 0.92518 1.20944 1.30606 1.44355 1.47578 1.64382 1.67587 1.81265 1.82847 1.94077
 1.98621 2.10632 2.11205 2.18144 2.30758 2.37251 2.42621 2.53586 2.64281 2.80769
 2.86666 3.05271 3.08622 3.44312 3.54011 3.70064 3.74708 4.05687 4.57835 4.84734
 4.96772 5.23672 5.31669 5.42740 5.53246 5.57812 5.95104 5.99892 6.25950 6.42003
 6.94368 7.41147 7.49509 7.74357 8.28413 8.47675 8.67601 11.61245 11.62532 11.62971
 11.63340 11.64554 11.64789 11.65516 11.68632 11.79244 12.39418 14.82127 14.96343 15.04963
 15.16313 15.29495 15.30418 15.38334 16.16965 16.45412 16.52341 16.72805 16.88045 17.57171
 55.87308 286.65802
 == 714-th k-point (-0.18426,-0.00000,0.73703) occupation: 6==
 -23.85914 -1.46217 -0.67112 -0.06574 -0.01013 0.00313 0.57251 0.62294 0.69196 0.77070
 0.85592 1.27408 1.34299 1.43864 1.58380 1.58673 1.61582 1.70832 1.86021 1.88419
 1.99290 2.01155 2.14447 2.19048 2.26893 2.35496 2.42891 2.62840 2.67396 2.86770
 2.89583 3.08270 3.25168 3.48307 3.78847 3.79264 4.01579 4.60755 4.75760 4.82789
 5.03701 5.08387 5.14415 5.30521 5.80084 5.81134 5.96228 6.22852 6.34158 6.41170
 7.51532 7.58600 7.71578 8.06075 8.20655 8.51066 11.60665 11.62007 11.62402 11.63295
 11.64458 11.64733 11.66081 11.67067 11.74606 12.62863 14.84990 14.90434 14.94717 15.07876
 15.08976 15.16849 15.24833 16.28933 16.33298 16.66203 16.68136 16.75936 17.12182 55.59056
 286.30453
 == 715-th k-point (-0.09213,0.09213,0.64490) occupation: 6==
 -23.85914 -1.46241 -0.67370 -0.05981 -0.00131 0.00486 0.54384 0.64168 0.71084 0.78082
 0.82337 1.29054 1.36267 1.45934 1.51592 1.53743 1.56907 1.69085 1.79304 1.83502
 1.97994 2.01137 2.15696 2.30455 2.37280 2.47741 2.54260 2.67867 2.68358 2.80486
 2.87749 3.00828 3.13414 3.51267 3.78198 3.84360 4.08455 4.69528 4.71442 4.88708
 4.94903 4.97713 5.06200 5.14341 5.83680 5.97012 6.02637 6.20336 6.32603 6.35943
 7.57670 7.61495 7.78763 8.10301 8.26745 8.36280 11.60253 11.61657 11.62522 11.63411
 11.64197 11.64443 11.64618 11.67676 11.72783 12.82622 14.89942 14.91825 14.97243 15.01420
 15.04005 15.10359 15.13210 16.43870 16.49512 16.61135 16.71197 16.73335 16.85826 55.38803
 286.04817
 == 716-th k-point (0.00000,0.18426,0.55277) occupation: 6==
 -23.85914 -1.46270 -0.67735 -0.04490 -0.00104 0.01285 0.51041 0.64421 0.73018 0.77503
 0.86995 1.24477 1.35270 1.35796 1.46933 1.49118 1.61476 1.71248 1.71351 1.87074
 2.03316 2.06020 2.13757 2.34729 2.36075 2.50984 2.54511 2.62641 2.87083 2.87763
 2.94756 3.04885 3.22851 3.51009 3.84746 3.86713 3.94963 4.59520 4.80217 4.86179
 4.87047 4.99200 5.12271 5.21466 6.00848 6.11570 6.12737 6.23507 6.35374 6.43338
 7.49123 7.53064 7.60047 8.13736 8.31960 8.43332 11.60568 11.62081 11.62833 11.63017
 11.63649 11.64360 11.65218 11.66323 11.69314 12.37762 14.84752 14.93192 14.96413 14.98153
 15.03907 15.10731 15.17910 16.51880 16.56730 16.66304 16.74451 16.83429 17.00393 55.59732
 286.31283
 == 717-th k-point (0.09213,0.27639,0.46064) occupation: 6==
 -23.85914 -1.46291 -0.68034 -0.03695 0.00206 0.02398 0.47515 0.64021 0.75116 0.76589
 0.97027 1.17977 1.21150 1.37515 1.42873 1.48133 1.61873 1.70671 1.80658 1.88814
 1.98563 2.02599 2.22906 2.34628 2.36371 2.48839 2.59003 2.75136 2.86018 2.86537
 2.90001 2.96981 3.24245 3.53076 3.62267 3.89632 3.99358 4.18188 4.58606 4.74068
 4.83343 4.98817 5.14381 5.37191 5.49492 6.17756 6.18084 6.24628 6.34545 6.40719
 6.71978 7.47082 7.52428 7.89813 8.27895 8.50350 8.59779 11.59961 11.61177 11.61756
 11.62903 11.63977 11.64832 11.65529 11.68217 11.70159 12.14107 14.83636 14.90656 14.95234
 15.03595 15.12135 15.23957 15.29562 16.61028 16.66235 16.70234 16.75214 17.00084 17.27590
 55.77348 286.53201
 == 718-th k-point (0.18426,0.36851,0.36851) occupation: 6==
 -23.85914 -1.46294 -0.68137 -0.04346 0.01435 0.02951 0.45087 0.64710 0.75324 0.75454
 1.09432 1.10865 1.16556 1.37106 1.40467 1.45307 1.64549 1.74638 1.84953 1.84983
 1.92854 1.98793 2.31204 2.34465 2.42245 2.51352 2.56119 2.68583 2.79899 2.79968
 2.87878 2.94179 2.95076 3.53111 3.60076 3.62138 3.91678 3.91773 4.23684 4.50905
 4.75633 4.98777 5.09540 5.37294 5.49358 5.54408 6.17588 6.22473 6.25075 6.46883
 6.69604 6.78849 7.41199 7.77061 7.82604 8.35692 8.49329 8.61521 11.60901 11.60996
 11.61934 11.62651 11.62870 11.66326 11.66743 11.68926 11.70260 12.62726 14.79765 14.91527
 15.04406 15.08905 15.25356 15.29527 15.34343 16.65021 16.65430 16.73109 16.85910 17.10462
 17.40067 55.90019 286.68982
 == 719-th k-point (0.27639,0.46064,0.27639) occupation: 6==
 -23.85914 -1.46278 -0.67998 -0.05017 0.01890 0.02317 0.45392 0.64649 0.74355 0.74897
 1.04417 1.19864 1.20436 1.33821 1.42226 1.42574 1.67163 1.74416 1.82937 1.89899
 1.95298 2.01078 2.27788 2.30962 2.41249 2.43754 2.56685 2.66476 2.70685 2.79051
 2.89281 2.89568 2.97167 3.54445 3.64593 3.75869 3.82454 3.88378 4.21199 4.47649
 4.76267 4.99954 5.10061 5.39552 5.51324 5.53218 6.16095 6.18952 6.25132 6.63104
 6.64506 6.77248 7.36756 7.72004 8.04482 8.27999 8.38483 8.49523 11.61252 11.61462
 11.62421 11.62832 11.64123 11.66092 11.66441 11.67352 11.70719 12.71551 14.78274 14.91903
 15.05485 15.10107 15.25926 15.33035 15.33617 16.61710 16.66084 16.71146 16.99875 17.04026
 17.54185 56.00885 286.82399
 == 720-th k-point (-0.36851,-0.36851,1.10554) occupation: 6==
 -23.85914 -1.46261 -0.67868 -0.05568 0.01477 0.02542 0.45408 0.64189 0.73961 0.74036
 1.11921 1.16716 1.18730 1.35093 1.41161 1.43294 1.67271 1.75062 1.86558 1.98513
 2.00091 2.01657 2.13049 2.33129 2.34152 2.38161 2.54275 2.71163 2.74541 2.78057
 2.83033 2.83599 2.94887 3.57146 3.69341 3.71282 3.80291 3.85687 4.18674 4.42049
 4.76039 5.04082 5.11027 5.42871 5.49066 5.54766 6.15050 6.16773 6.19619 6.61122
 6.74018 6.94809 7.45985 7.64280 7.91918 8.04879 8.44484 8.47694 11.61273 11.61627
 11.62306 11.62607 11.62848 11.66144 11.66524 11.66907 11.71231 12.77750 14.75319 14.91660
 15.07644 15.10463 15.27820 15.30283 15.35716 16.60585 16.65017 16.66917 17.00820 17.09012
 17.78311 56.26024 287.13806
 == 721-th k-point (-0.27639,-0.27639,1.01341) occupation: 6==
 -23.85914 -1.46238 -0.67528 -0.05199 -0.00946 0.01726 0.50221 0.61760 0.73758 0.75139
 0.99504 1.21829 1.24074 1.39285 1.42963 1.47271 1.70921 1.73992 1.93219 1.97948
 2.01802 2.06172 2.17761 2.23112 2.29371 2.34252 2.40595 2.61922 2.69222 2.74828
 2.86993 2.88901 2.93339 3.45995 3.55135 3.66903 3.77981 3.84604 4.09954 4.55596
 4.75142 5.14569 5.20528 5.35849 5.50568 5.51154 5.92452 6.04923 6.18428 6.37572
 6.60602 6.69761 7.40946 7.73558 8.10498 8.29943 8.44838 8.48295 11.61178 11.62473
 11.62634 11.63671 11.64627 11.65201 11.65911 11.68307 11.70298 12.65796 14.82945 14.90923
 15.12804 15.15755 15.23883 15.31881 15.35986 16.49970 16.52015 16.68718 16.85994 17.04910
 17.25978 55.82616 286.60980
 == 722-th k-point (-0.18426,-0.18426,0.92129) occupation: 6==
 -23.85914 -1.46218 -0.67185 -0.05958 -0.01648 0.00758 0.55955 0.60408 0.71600 0.76724
 0.88942 1.28794 1.33714 1.35756 1.44732 1.58226 1.72873 1.72940 1.91112 1.94729
 2.02257 2.06409 2.08436 2.17184 2.32313 2.33947 2.41819 2.60995 2.62566 2.74026
 2.88843 2.95699 2.97438 3.33266 3.50269 3.56306 3.82800 3.86018 3.91155 4.78552
 4.80033 5.06988 5.28171 5.31803 5.48727 5.49997 5.76950 5.84142 6.12394 6.32416
 6.66150 6.69746 7.43347 7.89115 8.15020 8.34363 8.47859 8.48676 11.60698 11.62031
 11.63500 11.63803 11.64927 11.65149 11.66817 11.71128 11.71487 12.64446 14.92226 14.96648
 15.07773 15.21391 15.28184 15.30531 15.34678 16.31812 16.32774 16.65859 16.74191 17.01229
 17.40461 55.82428 286.59611
 == 723-th k-point (-0.09213,-0.09213,0.82916) occupation: 6==
 -23.85914 -1.46211 -0.67005 -0.07257 -0.00663 0.00085 0.58464 0.62473 0.68936 0.78060
 0.81741 1.28591 1.42676 1.44850 1.48159 1.66723 1.70554 1.71341 1.84814 1.85713
 1.93060 2.05025 2.15952 2.19552 2.20385 2.27777 2.34893 2.62482 2.73985 2.84157
 2.88714 3.02120 3.12011 3.46096 3.86617 3.89227 4.08497 4.64545 4.83467 4.92673
 4.98131 5.01271 5.44839 5.46805 5.51224 5.54484 5.81668 6.22402 6.30545 6.33147
 7.53360 7.85307 7.97288 8.03510 8.48762 8.66618 11.59760 11.60784 11.61347 11.63315
 11.64702 11.64771 11.65225 11.67992 11.74200 13.04240 14.86386 14.94682 14.98442 15.02234
 15.08166 15.33793 15.36445 16.06415 16.11187 16.56478 16.68330 16.73220 16.97409 55.44681
 286.11792
 == 724-th k-point (0.00000,-0.00000,0.73703) occupation: 6==
 -23.85914 -1.46220 -0.67080 -0.07277 -0.00019 -0.00019 0.57302 0.64781 0.69075 0.78606
 0.78606 1.28034 1.43421 1.52411 1.60357 1.60358 1.63596 1.63597 1.68748 1.88784
 1.92969 1.92971 2.24796 2.27028 2.31499 2.31501 2.37569 2.66211 2.72424 2.83138
 2.83219 2.88856 3.11905 3.49345 3.86999 3.87005 4.15778 4.82729 4.89954 4.91553
 4.91560 5.09546 5.15669 5.15685 5.73424 5.83641 5.83643 6.13363 6.30790 6.31214
 7.57859 8.02565 8.02587 8.07152 8.45774 8.45781 11.59613 11.60829 11.60829 11.61918
 11.64466 11.64647 11.64647 11.68161 11.74063 13.24430 14.93968 14.98975 15.00864 15.00865
 15.10447 15.19026 15.19027 16.29569 16.29569 16.56677 16.58358 16.72089 16.82521 55.30967
 285.94341
 == 725-th k-point (0.09213,0.09213,0.64490) occupation: 6==
 -23.85914 -1.46241 -0.67370 -0.05981 -0.00131 0.00486 0.54384 0.64168 0.71084 0.78082
 0.82337 1.29054 1.36267 1.45934 1.51592 1.53742 1.56906 1.69084 1.79307 1.83503
 1.97990 2.01136 2.15695 2.30449 2.37273 2.47742 2.54217 2.67854 2.68337 2.80453
 2.87748 3.00734 3.13408 3.51264 3.78198 3.84361 4.08377 4.69515 4.71442 4.88702
 4.94897 4.97715 5.06195 5.14337 5.83669 5.97014 6.02637 6.20331 6.32603 6.35940
 7.57670 7.61489 7.78762 8.10283 8.26740 8.36262 11.60253 11.61657 11.62522 11.63411
 11.64196 11.64443 11.64618 11.67676 11.72782 12.82597 14.89941 14.91825 14.97242 15.01419
 15.04005 15.10358 15.13209 16.43871 16.49511 16.61135 16.71192 16.73335 16.85824 55.38802
 286.04817
 == 726-th k-point (0.18426,0.18426,0.55277) occupation: 6==
 -23.85914 -1.46264 -0.67733 -0.04751 0.00176 0.01399 0.49850 0.63540 0.73539 0.76629
 0.91644 1.26501 1.27024 1.38738 1.44385 1.46792 1.60682 1.74188 1.79865 1.92048
 1.99046 2.06938 2.20947 2.23772 2.35647 2.46539 2.61656 2.66625 2.78322 2.85645
 2.88264 2.98930 3.02086 3.50397 3.77190 3.80051 3.87394 4.14953 4.56202 4.69199
 4.78735 5.04619 5.14120 5.31284 5.45593 6.01850 6.11890 6.22735 6.27544 6.41811
 6.52590 7.43294 7.55067 8.11844 8.23039 8.34756 8.49623 11.60808 11.61862 11.61866
 11.63929 11.64735 11.65177 11.66622 11.68735 11.70638 12.50768 14.83370 14.91282 14.92518
 15.06852 15.12496 15.21368 15.29302 16.55033 16.58733 16.69668 16.70053 16.89324 17.24638
 55.79911 286.56346
 == 727-th k-point (0.27639,0.27639,0.46064) occupation: 6==
 -23.85914 -1.46278 -0.67998 -0.05017 0.01890 0.02317 0.45392 0.64649 0.74355 0.74897
 1.04417 1.19864 1.20436 1.33821 1.42226 1.42574 1.67163 1.74416 1.82937 1.89899
 1.95298 2.01078 2.27788 2.30962 2.41249 2.43754 2.56685 2.66476 2.70685 2.79051
 2.89281 2.89568 2.97167 3.54445 3.64593 3.75869 3.82454 3.88378 4.21199 4.47649
 4.76267 4.99954 5.10061 5.39552 5.51324 5.53218 6.16095 6.18952 6.25132 6.63104
 6.64506 6.77248 7.36756 7.72004 8.04482 8.27999 8.38483 8.49523 11.61252 11.61462
 11.62421 11.62832 11.64123 11.66092 11.66441 11.67352 11.70719 12.71551 14.78274 14.91903
 15.05485 15.10107 15.25926 15.33035 15.33617 16.61710 16.66084 16.71146 16.99875 17.04026
 17.54185 56.00885 286.82399
 == 728-th k-point (0.36851,0.36851,0.36851) occupation: 6==
 -23.85914 -1.46277 -0.68051 -0.05558 0.02783 0.02783 0.43507 0.65647 0.73826 0.73826
 1.15074 1.17621 1.17621 1.29750 1.41348 1.41348 1.72915 1.72915 1.80975 1.90099
 1.99584 1.99584 2.20380 2.34737 2.34737 2.47931 2.72991 2.73872 2.73872 2.87859
 2.87859 2.87907 2.96004 3.59205 3.59205 3.76636 3.76636 3.79310 4.20097 4.43911
 4.76598 5.22442 5.22442 5.50505 5.50505 5.58885 6.11362 6.11362 6.17623 6.46267
 6.46267 7.00086 7.00086 7.09342 7.34661 8.09413 8.22998 8.22998 11.60226 11.60226
 11.61907 11.62813 11.62813 11.66627 11.66627 11.67012 11.73566 13.15933 14.75479 14.92167
 15.16789 15.16789 15.31215 15.31215 15.44931 16.59446 16.59446 16.68549 16.91439 16.91439
 17.86566 56.26879 287.14281
 ---------------------------------------------------------------------------
 VBM is at 364-th k-point with 0.98254 eV
 CBM is at 364-th k-point with 10.17362 eV
 Band gap is 9.19108 eV


           Ground-State Mulliken Net Atomic Charges

      Atom                 Charge (a.u.)          Spin (a.u.)
   --------------------------------------------------------
      1 Li                (0.075764,0.000000)    (0.000000,0.000000)
      2  F              (-0.075764,-0.000000)    (0.000000,0.000000)
   --------------------------------------------------------
  Sum of atomic charges =      (-0.000000,0.000000)
  Sum of spin   charges =       (0.000000,0.000000)



 Total job time:  1448.84 s.
 Tue Sep  9 04:03:03 2025


        *************************************************************
        *                                                           *
        *  Thank you very much for using QCPBC. Have a nice day.    *
        *                                                           *
        *************************************************************

Running job 1 of 1
