                  Welcome to Q-Chem
           with Periodic Boundary Condition
     A Quantum Leap Into The Future Of Chemistry

 Adam Rettig, Xintian Feng, Meng-Fu Chen, Hieu Dinh, Stephen Quiton,
 Anton Ni, Paul J. Robinson, Jinghong Zhang, Joonho Lee

Contributors to earlier versions of Q-Chem not listed above:
 Evgeny Epifanovsky, Leo Cunha, Jerome F. Gonthier, Kuan-Yu Liu
 Input file: /n/netscratch/joonholee_lab/Lab/hieudinh//lif_solve_def2qzvp_omega_0.6_333.scratch20250908233437/lif_solve_def2qzvp_omega_0.6_333.0
 Scratch folder: /n/netscratch/joonholee_lab/Lab/hieudinh//lif_solve_def2qzvp_omega_0.6_333.scratch20250908233437
 Auxillary files located at: /n/holylabs/LABS/joonholee_lab/Lab/qchem_base/qcaux
 Q-Chem begins on Mon Sep  8 23:34:38 2025

 -------------------------------------------------------------
 User input:
 -------------------------------------------------------------
 $lattice
 3
 0.000000 2.005000 2.005000
 2.005000 0.000000 2.005000
 2.005000 2.005000 0.000000
 $end
 
 $unitcell
 ABSOLUTE
 0 1
 Li 0.000000 0.000000 0.000000
 F  2.005000 0.000000 0.000000
 $end
 
 $rem
 jobtype = sp
 method = pbe
 scf_convergence = 5
 scf_guess = autosad
 scf_algorithm = gdm
 basis = def2-qzvp
 aux_basis = gen
 input_bohr = false
 symmetry false
 is_basis_uctr true
 rsdf_print_level 1
 
 mp_mesh = [3,3,3]
 
 integral_direct true
 bvk_cgto true
 
 thresh 14
 mem_total 100000
 threads 32
 
 MAX_SCF_CYCLES 400
 madelung = false
 omega 0.6
 do_rij_bigmem true
 automate_g true
 print_level 10
 grid_type_xc 1
 
 thresh_1e2c_sp 1e-14
 thresh_2e3c_bra_ket_sep 1e-10
 thresh_g 1e-12
 $end
 
 $aux_basis
 Li     0
 S   7   1.00
     498.3689730              0.0207908
     162.9342738              0.0542177
      57.3246735              0.1776783
      21.6427314              0.4181150
       8.7345375              0.6535245
       3.7491039              0.5492618
       1.7006754              0.1701425
 S   1   1.00
       0.8090859             -0.0097548
 S   1   1.00
       0.4000933             -0.0050152
 S   1   1.00
       0.2035793              0.0232200
 !S   1   1.00
 !      0.1054201              0.0134535
 !S   1   1.00
 !      0.0549139              0.0006647
 P   2   1.00
      10.7024696              0.0072923
       3.6551543              0.0060940
 P   1   1.00
       1.2464013              0.0172529
 P   1   1.00
       0.4246282             -0.0160026
 P   1   1.00
       0.1446192             -0.0195111
 D   2   1.00
       1.1510647             -0.0014314
       0.6019112              0.0038969
 D   1   1.00
       0.3109573              0.0024683
 D   1   1.00
       0.1600032              0.0036451
 F   2   1.00
       0.5967918              0.0010494
       0.1790687              0.0006468
 G   1   1.00
       1.0460130             -0.0001971
 ****
 F     0
 S   7   1.00
    3514.9201549              0.1805835
    1231.2458815              0.3676084
     454.1367336              1.2707881
     175.8376258              2.8274164
      71.2081775              4.3588226
      30.0316883              2.7180994
      13.1259023             -0.0804726
 S   1   1.00
       5.9126861             -0.0023370
 S   1   1.00
       2.7284431              1.1236274
 S   1   1.00
       1.2813993              0.9999042
 S   1   1.00
       0.6082793              0.3119579
 S   1   1.00
       0.2897894              0.0312295
 P   2   1.00
      49.3740409             -0.0346332
      13.4874956             -0.0096069
 P   1   1.00
       3.9664900              0.0762067
 P   1   1.00
       1.2226629             -0.0103329
 P   1   1.00
       0.3830317              0.0018853
 D   2   1.00
      29.9719140             -0.0113316
       6.7860915             -0.0467639
 D   1   1.00
       1.8137313             -0.0167604
 D   1   1.00
       0.5157840             -0.0050777
 F   2   1.00
       2.8301877              1.0
       0.9155962              1.0
 G   1   1.00
       1.6097500             -0.0005411
 ****
 $end
 -------------------------------------------------------------
 Running PBC job

 Requested Exchange Correlation Functionals: 
  DFT Exchange:  1.00000 pbe_x
  DFT Correlation:  1.00000 pbe_c
 using 32 threads for computing.
 ---------------------------------------------------------------
      Coordinates of Atoms in Central Unit Cell (Angstroms)
    I     Atom         X            Y            Z
 ---------------------------------------------------------------
    1      Li      0.000000     0.000000     0.000000
    2       F      2.005000     0.000000     0.000000
 ---------------------------------------------------------------
 --------------------------------------------------
              Lattice Vectors (Angstroms)
              X            Y            Z
 --------------------------------------------------
   X       0.000000     2.005000     2.005000
   Y       2.005000     0.000000     2.005000
   Z       2.005000     2.005000     0.000000
 --------------------------------------------------
 --------------------------------------------------
       Reciprocal Lattice Vectors (Angstroms^-1)
              X            Y            Z
 --------------------------------------------------
   X      -1.566879     1.566879     1.566879
   Y       1.566879    -1.566879     1.566879
   Z       1.566879     1.566879    -1.566879
 --------------------------------------------------

 Single point calculation requested

 Hamiltonian contributions:
 List of terms in Hamiltonian: kpts_nn, kpts_kinetic, kpts_vnuc_df, kpts_xc, kpts_rij_bigmem

 K-Points calculation started.

 Basis set information about using solid harmonic (1) or Cartesian (0):
  li : D(1) D(1) F(1) 
  f : D(1) D(1) D(1) F(1) F(1) G(1) 

 Basis set information about using solid harmonic (1) or Cartesian (0):
  li : D(1) D(1) D(1) F(1) G(1) 
  f : D(1) D(1) D(1) F(1) G(1) 

 There are 92 basis functions in the central unit cell.
 Print atomic basis of atoms in the central unit cell:
 -------------------------------------------------------------
2 53 53 30

  0.00000000000000e+00  0.00000000000000e+00  0.00000000000000e+00
  3.78890087987467e+00  0.00000000000000e+00  0.00000000000000e+00

  1.48539770850000e+04
  2.22522364770000e+03
  5.04887390080000e+02
  1.42458475480000e+02
  4.63155995800000e+01
  1.66553354740000e+01
  6.43311861990000e+00
  2.60270438580000e+00
  1.08972454050000e+00
  4.42365959710000e+00
  1.23563949900000e+00
  4.60674706020000e-01
  9.66171669550000e-02
  4.59154522960000e-02
  2.11400487300000e-02
  3.26051092060000e+00
  6.50030431150000e-01
  1.69416710730000e-01
  3.32700000000000e+00
  5.57323437670000e-02
  2.04899592410000e-02
  2.30000000000000e-01
  7.57000000000000e-02
  1.35000000000000e-01
  1.32535973450000e+05
  1.97581125880000e+04
  4.48519969470000e+03
  1.27381510200000e+03
  4.18938312360000e+02
  1.52557219850000e+02
  5.98215248230000e+01
  2.48190769320000e+01
  1.00744466730000e+02
  3.01037282900000e+01
  1.08142832720000e+01
  4.81728867700000e+00
  1.65593342130000e+00
  6.48935195820000e-01
  2.47781045450000e-01
  2.40966541140000e+02
  5.70206997810000e+01
  1.81269521200000e+01
  6.64574046210000e+00
  2.63757228920000e+00
  1.06382172000000e+00
  4.19325627500000e-01
  1.57475882990000e-01
  5.01400000000000e+00
  1.72500000000000e+00
  5.86000000000000e-01
  3.56200000000000e+00
  1.14800000000000e+00
  2.37600000000000e+00

  4.67593013229757e-02
  8.76137465723478e-02
  1.51821576860780e-01
  2.46527731442678e-01
  3.74140539449148e-01
  5.14323804423000e-01
  6.00677517411378e-01
  5.44460466941871e-01
  3.21097242154446e-01
  2.72734215356930e-01
  7.53702662810338e-01
  3.98525272814913e-01
  1.23509628755786e-01
  7.06934606713439e-02
  3.95129614058778e-02
  2.22230636644090e-01
  1.62952044217479e-01
  1.33842808684561e-01
  6.40480761295544e+00
  3.85988372286674e-02
  1.10501063034648e-02
  1.25728336426159e-01
  1.79815549832937e-02
  1.62631785032468e-02
  3.86107783813291e-01
  7.24648975903829e-01
  1.25045495963763e+00
  2.01518764389143e+00
  3.04056815166578e+00
  4.21268576129244e+00
  5.00944268647146e+00
  4.54693835849554e+00
  2.32503271092484e+00
  8.41440806306271e+00
  4.25019052011886e+00
  2.31745919743391e+00
  1.04038060130896e+00
  5.15301123337211e-01
  2.50300174847139e-01
  3.49166780573024e+00
  4.61886090108967e+00
  5.17964869303152e+00
  4.78626212475628e+00
  3.24578400123904e+00
  1.54001926672016e+00
  4.80982576947690e-01
  1.41402684040663e-01
  2.76523492268872e+01
  4.27356565232165e+00
  6.45996677345861e-01
  2.56605380682814e+01
  2.00827738540458e+00
  1.20230076986570e+01

0 0 0 0 1 1 1
0 0 
9 0

0 1 1 9 1 1 1
9 0 
2 0

0 2 2 11 1 1 1
11 0 
1 0

0 3 3 12 1 1 1
12 0 
1 0

0 4 4 13 1 1 1
13 0 
1 0

0 5 5 14 1 1 1
14 0 
1 0

0 6 6 15 1 3 3
15 1 
3 0

0 9 9 18 1 3 3
18 1 
1 0

0 12 12 19 1 3 3
19 1 
1 0

0 15 15 20 1 3 3
20 1 
1 0

0 18 18 21 1 5 6
21 2 
1 1

0 23 23 22 1 5 6
22 2 
1 1

0 28 28 23 1 7 10
23 3 
1 1

1 35 35 24 1 1 1
24 0 
8 0

1 36 36 32 1 1 1
32 0 
2 0

1 37 37 34 1 1 1
34 0 
1 0

1 38 38 35 1 1 1
35 0 
1 0

1 39 39 36 1 1 1
36 0 
1 0

1 40 40 37 1 1 1
37 0 
1 0

1 41 41 38 1 1 1
38 0 
1 0

1 42 42 39 1 3 3
39 1 
5 0

1 45 45 44 1 3 3
44 1 
1 0

1 48 48 45 1 3 3
45 1 
1 0

1 51 51 46 1 3 3
46 1 
1 0

1 54 54 47 1 5 6
47 2 
1 1

1 59 59 48 1 5 6
48 2 
1 1

1 64 64 49 1 5 6
49 2 
1 1

1 69 69 50 1 7 10
50 3 
1 1

1 76 76 51 1 7 10
51 3 
1 1

1 83 83 52 1 9 15
52 4 
1 1

 -------------------------------------------------------------
 Allocate 136872 B from available memory: 104857600000 B
 There are 15625 image cells after screening.
 There are 17628 image cells for CGTO evaluation after screening.
 Real-Space grid for FFT initialized based on kinetic energy cutoff (eV) = 500.0
 Real-Space grid for FFT: (8,8,8)
 There are 4913 real-space grid points.
 There are 27 batches of real-space grid points. 
 Size of each grid batch is around 128
 Grid for AFT initialized based on kinetic energy cutoff (eV) = 500.0
 Real-Space grid for AFT: (8,8,8)
 There are 4913 real-space grid points.

 There are 5912 atom-centered grid points.

 Spacegroup symmetry group: Fm-3m
 Reducing spacegroup symmetry to symmorphic group: F m -3 m
 Monkhorst-Pack mesh is [3,3,3]
 There are 27 k points.
kpoints in Bohr
-0.2763855758 -0.2763855758 -0.2763855758
-0.0000000000 0.0000000000 -0.5527711515
0.2763855758 0.2763855758 -0.8291567273
-0.0000000000 -0.5527711515 -0.0000000000
0.2763855758 -0.2763855758 -0.2763855758
0.5527711515 0.0000000000 -0.5527711515
0.2763855758 -0.8291567273 0.2763855758
0.5527711515 -0.5527711515 -0.0000000000
0.8291567273 -0.2763855758 -0.2763855758
-0.5527711515 0.0000000000 0.0000000000
-0.2763855758 0.2763855758 -0.2763855758
-0.0000000000 0.5527711515 -0.5527711515
-0.2763855758 -0.2763855758 0.2763855758
0.0000000000 0.0000000000 0.0000000000
0.2763855758 0.2763855758 -0.2763855758
0.0000000000 -0.5527711515 0.5527711515
0.2763855758 -0.2763855758 0.2763855758
0.5527711515 -0.0000000000 0.0000000000
-0.8291567273 0.2763855758 0.2763855758
-0.5527711515 0.5527711515 0.0000000000
-0.2763855758 0.8291567273 -0.2763855758
-0.5527711515 -0.0000000000 0.5527711515
-0.2763855758 0.2763855758 0.2763855758
0.0000000000 0.5527711515 0.0000000000
-0.2763855758 -0.2763855758 0.8291567273
0.0000000000 -0.0000000000 0.5527711515
0.2763855758 0.2763855758 0.2763855758
 There are 6 alpha and 6 beta electrons
 Start computing overlap matrix
 Allocate 3656448 B from available memory: 104857463136 B
 Time for computing overlap matrix: 28.9830000000 s
 ====== Initialize compute kernels for all-electron RI-J (kpts) ====== 
 ========================================================== 
 Range-separated parameter omega        = 0.599999999999999978
 Threshold for 1e2c shellpair           = 0.000000000000010000
 Threshold for 2e2c SR integral         = 0.000000000000000001
 Threshold for 2e3c SR integral         = 0.000000000100000000
 Threshold for AFT G-space screening is = 0.000000000001000000
 The exponent cutoff for C/D classification (omega2 / 2) is  = 0.179999999999999993
 ========================================================== 
 === Post process the basis set for RI calculation (exp_cutoff = 0.179999999999999993 ) === 
nshells_b1 before uncontraction = 30
nshells_b1 after uncontraction = 31
nshells_baux before uncontraction = 28
nshells_baux after uncontraction = 28
===============================================
nbsf total   = 95
nbsf compact = 68
nbsf diffuse = 27
naux total   = 96
naux compact = 96
naux diffuse = 0
nshells_bnuc = 2

 Number of unique atoms is 2
 Unique atom #0 (li) has 6 shells.
 Unique atom #1 (f) has 16 shells.

Shell 0 to 5 belongs to atom li
Shell 6 to 21 belongs to atom f

 Number of unique atoms is 2
 Unique atom #0 (li) has 8 shells.
 Unique atom #1 (f) has 1 shells.

Shell 0 to 7 belongs to atom li
Shell 8 to 8 belongs to atom f

 Number of unique atom is 2
 Unique atom #0 (li) has 13 auxiliary shells.
 Unique atom #1 (f) has 15 auxiliary shells.

Auxiliary Shell 0 to 12 belongs to atom li
Auxiliary Shell 13 to 27 belongs to atom f

================= Automatically determine grid size for reciprocal space summation =================
 Range-separated parameter = 0.60000000000000 and G-space screening threshold = 0.00000000000100
The number of grid points along each axis dimension is (5, 5, 5)
Total number of grid points = 1331

Use nonortho shellpair for diffuse density
======== Initializing relevant kernel for RIJ (DD type) ========
There are 45 shellpairs in the reference unit cell
There are 26313 images and we expect to have 1184085 in total
There are 63069 shellpairs in the lattice sum after screening
======== Initializing relevant kernel for RIJ (CD type) ========
There are 198 shellpairs in the reference unit cell
There are 14939 images and we expect to have 2957922 in total
There are 137232 shellpairs in the lattice sum after screening
****** AFT -> SR ******
Maximum bra distance cutoff is 39.000000000000
Maximum bra ket distance cutoff is 24.073630136986
Maximum bra ket screening distance is 21.468750000000
Number of auxiliary image is 3829
There are 198 shellpairs in the reference unit cell
There are 3829 images and we expect to have 758142 in total
There are 137232 shellpairs in the lattice sum after screening
Available memory per thread for 2e3c calculation is 3.276681459000Gb
Finish initializing 2e3c SR with the lattice sum!
=================================================
======== Initializing relevant kernel for RIJ (CC type) ========
There are 250 shellpairs in the reference unit cell
There are 1873 images and we expect to have 468250 in total
There are 6959 shellpairs in the lattice sum after screening
****** AFT -> SR ******
Maximum bra distance cutoff is 15.000000000000
Maximum bra ket distance cutoff is 23.750713608742
Maximum bra ket screening distance is 20.437500000000
Number of auxiliary image is 1217
There are 250 shellpairs in the reference unit cell
There are 437 images and we expect to have 109250 in total
There are 6959 shellpairs in the lattice sum after screening
Available memory per thread for 2e3c calculation is 3.276681459000Gb
Finish initializing 2e3c SR with the lattice sum!
=================================================
======== Initializing the SR component for Vnuc (CD type) ========
Maximum bra distance cutoff is 39.000000000000
Maximum bra ket distance cutoff is 16.349677604964
Maximum bra ket screening distance is 13.839230860025
Number of auxiliary image is 3829
There are 198 shellpairs in the reference unit cell
There are 3829 images and we expect to have 758142 in total
There are 137232 shellpairs in the lattice sum after screening
Available memory per thread for 2e3c calculation is 3.276681459000Gb
Finish initializing 2e3c SR with the lattice sum!
=================================================
======== Initialize the SR component for Vnuc (CC type) ========
Maximum bra distance cutoff is 15.000000000000
Maximum bra ket distance cutoff is 16.491629898159
Maximum bra ket screening distance is 12.239733225022
Number of auxiliary image is 527
There are 250 shellpairs in the reference unit cell
There are 437 images and we expect to have 109250 in total
There are 6959 shellpairs in the lattice sum after screening
Available memory per thread for 2e3c calculation is 3.276681459000Gb
Finish initializing 2e3c SR with the lattice sum!
=================================================
 Aufbau occupation scheme, occupation determined by eigenvalue
 == 0-th k-point nmo = 83 (-0.27639,-0.27639,-0.27639) ==
 == 1-th k-point nmo = 81 (-0.00000,0.00000,-0.55277) ==
 == 2-th k-point nmo = 83 (0.27639,0.27639,-0.82916) ==
 == 3-th k-point nmo = 81 (-0.00000,-0.55277,-0.00000) ==
 == 4-th k-point nmo = 83 (0.27639,-0.27639,-0.27639) ==
 == 5-th k-point nmo = 83 (0.55277,0.00000,-0.55277) ==
 == 6-th k-point nmo = 83 (0.27639,-0.82916,0.27639) ==
 == 7-th k-point nmo = 83 (0.55277,-0.55277,-0.00000) ==
 == 8-th k-point nmo = 83 (0.82916,-0.27639,-0.27639) ==
 == 9-th k-point nmo = 81 (-0.55277,0.00000,0.00000) ==
 == 10-th k-point nmo = 83 (-0.27639,0.27639,-0.27639) ==
 == 11-th k-point nmo = 83 (-0.00000,0.55277,-0.55277) ==
 == 12-th k-point nmo = 83 (-0.27639,-0.27639,0.27639) ==
 == 13-th k-point nmo = 83 (0.00000,0.00000,0.00000) ==
 == 14-th k-point nmo = 83 (0.27639,0.27639,-0.27639) ==
 == 15-th k-point nmo = 83 (0.00000,-0.55277,0.55277) ==
 == 16-th k-point nmo = 83 (0.27639,-0.27639,0.27639) ==
 == 17-th k-point nmo = 81 (0.55277,-0.00000,0.00000) ==
 == 18-th k-point nmo = 83 (-0.82916,0.27639,0.27639) ==
 == 19-th k-point nmo = 83 (-0.55277,0.55277,0.00000) ==
 == 20-th k-point nmo = 83 (-0.27639,0.82916,-0.27639) ==
 == 21-th k-point nmo = 83 (-0.55277,-0.00000,0.55277) ==
 == 22-th k-point nmo = 83 (-0.27639,0.27639,0.27639) ==
 == 23-th k-point nmo = 81 (0.00000,0.55277,0.00000) ==
 == 24-th k-point nmo = 83 (-0.27639,-0.27639,0.82916) ==
 == 25-th k-point nmo = 81 (0.00000,-0.00000,0.55277) ==
 == 26-th k-point nmo = 83 (0.27639,0.27639,0.27639) ==

 Generate autoSAD guess
backing up fragment data
Atom # 0: li, charge: 0, multiplicity: 2.000000
Atom # 1: f, charge: 0, multiplicity: 2.000000
writing autosad to fragment context
Settings for isolated fragments: 
  frgm_gamma: TRUE
  frgm_center: FALSE

    Running SCF for isolated atom #0
    Fragment Input file: /n/netscratch/joonholee_lab/Lab/hieudinh//lif_solve_def2qzvp_omega_0.6_333.scratch20250908233437/autosad_frgmt_0/frgmt_input.in
    Fragment Output file: /n/netscratch/joonholee_lab/Lab/hieudinh//lif_solve_def2qzvp_omega_0.6_333.scratch20250908233437/autosad_frgmt_0/frgmt_job.out
    Fragment job begins at Mon Sep  8 23:35:13 2025

 Integrated density by DFT XC:
   Numerical integral  =     3.000000007147
   Relative error      =     0.0000002382 %
Final energy components:
 DFT Correlation            Energy =  -0.05090044545114
 DFT Exchange               Energy =  -1.75144597421909
 Kinetic (alpha)            Energy =   3.82935284817785
 Kinetic (beta)             Energy =   3.58515893685385
 Nuclear Attraction (alpha) Energy =  -9.10791001172894
 Nuclear Attraction (beta)  Energy =  -8.01914849492517
 Nuclear Repulsion          Energy =   0.00000000000000
 SEOQF                      Energy =  -0.00000000000000
 Total Coulomb              Energy =   4.05291331077687
----------------------------------------------
    SCF Energy: -7.4619798305
   Total fragment job time:  0.37 s.
    Running SCF for isolated atom #1
    Fragment Input file: /n/netscratch/joonholee_lab/Lab/hieudinh//lif_solve_def2qzvp_omega_0.6_333.scratch20250908233437/autosad_frgmt_1/frgmt_input.in
    Fragment Output file: /n/netscratch/joonholee_lab/Lab/hieudinh//lif_solve_def2qzvp_omega_0.6_333.scratch20250908233437/autosad_frgmt_1/frgmt_job.out
    Fragment job begins at Mon Sep  8 23:35:14 2025

 Integrated density by DFT XC:
   Numerical integral  =     9.000000098353
   Relative error      =     0.0000010928 %
Final energy components:
 DFT Correlation            Energy =  -0.28943664182310
 DFT Exchange               Energy =  -9.96991500891565
 Kinetic (alpha)            Energy =  51.55258412072428
 Kinetic (beta)             Energy =  47.84820569403629
 Nuclear Attraction (alpha) Energy = -125.30574122940692
 Nuclear Attraction (beta)  Energy = -113.20186276241704
 Nuclear Repulsion          Energy =   0.00000000000000
 SEOQF                      Energy =  -0.00000000020726
 Total Coulomb              Energy =  49.69105360806803
----------------------------------------------
    SCF Energy: -99.6751122199
   Total fragment job time:  0.44 s.
restoring fragment data

 ------------------------------------------------------------------------
 Allocate 18209280 B from available memory: 104853806688 B
 Time for generating SCF guess: 0.84 s

 Allocate 446984 B from available memory: 104835597408 B
 Selected algorithms for each term:
  kpts_kinetic -> @0x14e9b256d680
  kpts_nn -> @0x14e9b256d800
  kpts_rij_bigmem -> @0x14e9b256d3e0
  kpts_vnuc_df -> @0x14e9b256d380
  kpts_xc -> @0x14e9b256d2c0
 Time for computing kinetic matrix is 27.38 s
Start calculating Vnuc DD type!
Start calculating Vnuc CD type!
Start calculating Vnuc CC type!
 Time for computing nuclear attraction matrix is 56.82 s
Compute (P|Q) and use solve on the fly!
Maximum distance between P and Q is 30.17566373239437
Number of images for (P|Qn) is 2041
 Time for computing 2e2c SR integral is 0.12 s
Maximum dynamic memory per thread for 2e3c SR integrals: 0.024 GiB
Batch size for basis function pair is 1836 out of 1836
 === bvk cell = 0 has 100.000 % of the basis function pairs === 
 === bvk cell = 1 has 100.000 % of the basis function pairs === 
 === bvk cell = 2 has 100.000 % of the basis function pairs === 
 === bvk cell = 3 has 100.000 % of the basis function pairs === 
 === bvk cell = 4 has 100.000 % of the basis function pairs === 
 === bvk cell = 5 has 100.000 % of the basis function pairs === 
 === bvk cell = 6 has 100.000 % of the basis function pairs === 
 === bvk cell = 7 has 100.000 % of the basis function pairs === 
 === bvk cell = 8 has 100.000 % of the basis function pairs === 
 === bvk cell = 9 has 100.000 % of the basis function pairs === 
 === bvk cell = 10 has 100.000 % of the basis function pairs === 
 === bvk cell = 11 has 100.000 % of the basis function pairs === 
 === bvk cell = 12 has 100.000 % of the basis function pairs === 
 === bvk cell = 13 has 100.000 % of the basis function pairs === 
 === bvk cell = 14 has 100.000 % of the basis function pairs === 
 === bvk cell = 15 has 100.000 % of the basis function pairs === 
 === bvk cell = 16 has 100.000 % of the basis function pairs === 
 === bvk cell = 17 has 100.000 % of the basis function pairs === 
 === bvk cell = 18 has 100.000 % of the basis function pairs === 
 === bvk cell = 19 has 100.000 % of the basis function pairs === 
 === bvk cell = 20 has 100.000 % of the basis function pairs === 
 === bvk cell = 21 has 100.000 % of the basis function pairs === 
 === bvk cell = 22 has 100.000 % of the basis function pairs === 
 === bvk cell = 23 has 100.000 % of the basis function pairs === 
 === bvk cell = 24 has 100.000 % of the basis function pairs === 
 === bvk cell = 25 has 100.000 % of the basis function pairs === 
 === bvk cell = 26 has 100.000 % of the basis function pairs === 
Static memory requirement for 2e3c SR integrals: 0.035 GB
There are 1 munu batches for computing 2e3c SR integrals with latsum
There are 2 Q batches for computing 2e3c SR integrals with latsum
 Time for computing 2e3c SR integral (CD) is 7.38 s
Maximum dynamic memory per thread for 2e3c SR integrals: 0.018 GiB
Batch size for basis function pair is 2470 out of 2470
 === bvk cell = 0 has 100.000 % of the basis function pairs === 
 === bvk cell = 1 has 82.591 % of the basis function pairs === 
 === bvk cell = 2 has 71.134 % of the basis function pairs === 
 === bvk cell = 3 has 82.591 % of the basis function pairs === 
 === bvk cell = 4 has 35.466 % of the basis function pairs === 
 === bvk cell = 5 has 76.680 % of the basis function pairs === 
 === bvk cell = 6 has 71.134 % of the basis function pairs === 
 === bvk cell = 7 has 76.680 % of the basis function pairs === 
 === bvk cell = 8 has 30.405 % of the basis function pairs === 
 === bvk cell = 9 has 76.680 % of the basis function pairs === 
 === bvk cell = 10 has 30.405 % of the basis function pairs === 
 === bvk cell = 11 has 71.134 % of the basis function pairs === 
 === bvk cell = 12 has 30.405 % of the basis function pairs === 
 === bvk cell = 13 has 35.466 % of the basis function pairs === 
 === bvk cell = 14 has 44.615 % of the basis function pairs === 
 === bvk cell = 15 has 71.134 % of the basis function pairs === 
 === bvk cell = 16 has 44.615 % of the basis function pairs === 
 === bvk cell = 17 has 40.283 % of the basis function pairs === 
 === bvk cell = 18 has 76.680 % of the basis function pairs === 
 === bvk cell = 19 has 82.591 % of the basis function pairs === 
 === bvk cell = 20 has 35.466 % of the basis function pairs === 
 === bvk cell = 21 has 82.591 % of the basis function pairs === 
 === bvk cell = 22 has 56.923 % of the basis function pairs === 
 === bvk cell = 23 has 44.615 % of the basis function pairs === 
 === bvk cell = 24 has 35.466 % of the basis function pairs === 
 === bvk cell = 25 has 44.615 % of the basis function pairs === 
 === bvk cell = 26 has 30.405 % of the basis function pairs === 
Static memory requirement for 2e3c SR integrals: 0.028 GB
There are 1 munu batches for computing 2e3c SR integrals with latsum
There are 2 Q batches for computing 2e3c SR integrals with latsum
 Time for computing 2e3c SR integral (CC) is 0.44 s
 Time for RI-J this SCF iteration is 15.85 s
 Time for RI-J this SCF iteration is 7.83 s
 ----------------------------------------------
 Guess energy: -107.4278987630
 ----------------------------------------------
 Guess energy components:
 DFT Correlation    Energy =  -0.39274752808765
 DFT Exchange       Energy = -12.13878083765816
 Kinetic            Energy = 108.47099696614805
 Nuclear Attraction Energy = -201.36809716605524
 Nuclear Repulsion  Energy = -31.10949437582012
 Total Coulomb      Energy =  29.11022417843906
 ----------------------------------------------
  Cycle       Energy        RMS Gradient
 ----------------------------------------------
 Time for RI-J this SCF iteration is 7.85 s
    1    -107.4508109541      1.51e-01   Descent step
 Energy components after cycle 1:
 DFT Correlation    Energy =  -0.39234806022712
 DFT Exchange       Energy = -12.01669186873937
 Kinetic            Energy = 107.53335295723042
 Nuclear Attraction Energy = -199.71963100247251
 Nuclear Repulsion  Energy = -31.10949437582012
 Total Coulomb      Energy =  28.25400139591157
 Time for RI-J this SCF iteration is 7.78 s
    2    -107.4538363169      4.85e-02   Normal BFGS step
 Energy components after cycle 2:
 DFT Correlation    Energy =  -0.39203781431250
 DFT Exchange       Energy = -11.96050565525568
 Kinetic            Energy = 107.14115280145445
 Nuclear Attraction Energy = -198.96995429846129
 Nuclear Repulsion  Energy = -31.10949437582012
 Total Coulomb      Energy =  27.83700302549024
 Time for RI-J this SCF iteration is 7.76 s
    3    -107.4538450463      1.94e-03   Normal BFGS step
 Energy components after cycle 3:
 DFT Correlation    Energy =  -0.39204522027712
 DFT Exchange       Energy = -11.96082380907869
 Kinetic            Energy = 107.12906943667504
 Nuclear Attraction Energy = -198.96375858781872
 Nuclear Repulsion  Energy = -31.10949437582012
 Total Coulomb      Energy =  27.84320751005014
 Time for RI-J this SCF iteration is 7.86 s
    4    -107.4538451773      2.12e-04   Normal BFGS step
 Energy components after cycle 4:
 DFT Correlation    Energy =  -0.39204100814566
 DFT Exchange       Energy = -11.96114038499572
 Kinetic            Energy = 107.13291767836705
 Nuclear Attraction Energy = -198.96841461715795
 Nuclear Repulsion  Energy = -31.10949437582012
 Total Coulomb      Energy =  27.84432753043562
 Time for RI-J this SCF iteration is 7.77 s
    5    -107.4538451789      2.21e-05   Normal BFGS step
 Energy components after cycle 5:
 DFT Correlation    Energy =  -0.39204079380486
 DFT Exchange       Energy = -11.96109768913605
 Kinetic            Energy = 107.13264998367487
 Nuclear Attraction Energy = -198.96801217304019
 Nuclear Repulsion  Energy = -31.10949437582012
 Total Coulomb      Energy =  27.84414986925304
 Time for RI-J this SCF iteration is 7.79 s
    6    -107.4538451789      1.64e-06   Normal BFGS step
 Energy components after cycle 6:
 DFT Correlation    Energy =  -0.39204082771622
 DFT Exchange       Energy = -11.96109903564250
 Kinetic            Energy = 107.13263508808433
 Nuclear Attraction Energy = -198.96800066593480
 Nuclear Repulsion  Energy = -31.10949437582012
 Total Coulomb      Energy =  27.84415463814251
    6    -107.4538451789      1.64e-06  Convergence criterion met
 ----------------------------------------------
 Final energy components:
 DFT Correlation    Energy =  -0.39204082771622
 DFT Exchange       Energy = -11.96109903564250
 Kinetic            Energy = 107.13263508808433
 Nuclear Attraction Energy = -198.96800066593480
 Nuclear Repulsion  Energy = -31.10949437582012
 Total Coulomb      Energy =  27.84415463814251
 ----------------------------------------------
 Final energy is -107.4538451789

 SCF time:   CPU 5343.42s  wall 220.00s 
 Total wall time for computing Kinetic: 0.00 s (8)
 Total wall time for computing RIJ-BIGMEM: 70.49 s (8)
 Total wall time for computing RSDF Vnuc: 0.01 s (8)
 Total wall time for computing DFT XC: 28.10 s (8)
 ---------------------------------------------------------------------------
                        Orbital Energies (a.u.)
 ---------------------------------------------------------------------------
 == 0-th k-point (-0.27639,-0.27639,-0.27639) occupation: 6==
 -23.85732 -1.46361 -0.68333 -0.03640 0.03060 0.03060 0.43248 0.66836 0.76340 0.76340
 1.08466 1.11181 1.11181 1.39207 1.39207 1.39213 1.63758 1.75063 1.75063 1.82878
 1.98858 1.98858 2.38340 2.47505 2.57456 2.57456 2.76408 2.78592 2.78592 2.82593
 2.82593 2.87498 2.97825 3.15862 3.15862 3.76424 3.96824 3.96824 4.27810 4.73605
 4.73605 4.76470 4.79719 5.21065 5.21065 5.45845 6.25595 6.25595 6.29224 6.30592
 6.30592 6.54785 7.43790 7.43790 7.47655 8.52795 8.57894 8.57894 11.60832 11.60832
 11.62715 11.63640 11.63640 11.67019 11.68534 11.70430 11.70430 13.01581 14.91416 14.92371
 14.95490 14.95490 15.16132 15.16132 15.36374 16.69735 16.69735 16.71105 16.71105 16.77904
 17.23121 55.79355 286.55717
 == 1-th k-point (-0.00000,0.00000,-0.55277) occupation: 6==
 -23.85732 -1.46314 -0.67677 -0.04539 0.00871 0.00871 0.51267 0.68134 0.72746 0.78954
 0.78954 1.30795 1.34435 1.41132 1.41133 1.59450 1.60550 1.62201 1.62201 1.84555
 2.04231 2.04236 2.05632 2.48523 2.58846 2.58854 2.59819 2.62780 2.80029 2.84983
 2.85060 2.88495 3.13450 3.55065 3.86814 3.86815 4.12616 4.64703 4.64703 4.90905
 5.03164 5.05493 5.05518 5.06594 5.96340 6.16857 6.16860 6.18250 6.37661 6.38928
 7.70010 7.73829 7.73834 7.98979 8.42920 8.42955 11.59707 11.61809 11.61810 11.62760
 11.63620 11.64237 11.64238 11.66735 11.71612 12.70538 14.88378 14.88378 14.97442 15.06828
 15.07097 15.07101 15.10488 16.62454 16.62509 16.62510 16.76554 16.77379 16.94079 55.51591
 286.20055
 == 2-th k-point (0.27639,0.27639,-0.82916) occupation: 6==
 -23.85732 -1.46257 -0.67217 -0.04353 -0.02991 0.01581 0.54022 0.59321 0.73632 0.75572
 0.97494 1.22990 1.23946 1.35343 1.42784 1.62871 1.68780 1.86693 1.89831 1.96075
 2.01994 2.03041 2.17310 2.27613 2.34539 2.42398 2.46081 2.50028 2.64779 2.69353
 2.80028 2.88043 2.93254 3.20363 3.64201 3.67351 3.71856 3.78736 3.95063 4.72731
 4.74185 5.14320 5.36824 5.45425 5.54461 5.54740 5.63118 5.81257 6.09161 6.25226
 6.82041 7.23217 7.61073 7.71180 7.75519 8.38199 8.44741 8.50542 11.59899 11.63483
 11.63570 11.63907 11.64957 11.65247 11.65353 11.70010 11.70162 12.56192 14.89048 14.93614
 15.12094 15.26556 15.30774 15.32398 15.38226 16.24658 16.31061 16.63699 16.69359 17.18649
 17.84607 56.14629 286.99258
 == 3-th k-point (-0.00000,-0.55277,-0.00000) occupation: 6==
 -23.85732 -1.46314 -0.67677 -0.04539 0.00871 0.00871 0.51267 0.68134 0.72746 0.78954
 0.78954 1.30795 1.34435 1.41132 1.41133 1.59450 1.60550 1.62201 1.62201 1.84555
 2.04231 2.04236 2.05632 2.48523 2.58846 2.58854 2.59819 2.62780 2.80029 2.84983
 2.85060 2.88495 3.13450 3.55065 3.86814 3.86815 4.12616 4.64703 4.64703 4.90905
 5.03164 5.05493 5.05518 5.06594 5.96340 6.16857 6.16860 6.18250 6.37661 6.38928
 7.70010 7.73829 7.73834 7.98979 8.42920 8.42955 11.59707 11.61809 11.61810 11.62760
 11.63620 11.64237 11.64238 11.66735 11.71612 12.70538 14.88378 14.88378 14.97442 15.06828
 15.07097 15.07101 15.10488 16.62454 16.62509 16.62510 16.76554 16.77379 16.94079 55.51591
 286.20055
 == 4-th k-point (0.27639,-0.27639,-0.27639) occupation: 6==
 -23.85732 -1.46361 -0.68333 -0.03640 0.03060 0.03060 0.43248 0.66836 0.76340 0.76340
 1.08466 1.11181 1.11181 1.39207 1.39207 1.39213 1.63758 1.75063 1.75064 1.82872
 1.98856 1.98858 2.38332 2.47458 2.57454 2.57481 2.76441 2.78592 2.78594 2.82487
 2.82591 2.87454 2.97790 3.15857 3.15930 3.76412 3.96816 3.96822 4.27628 4.73603
 4.73605 4.76470 4.79728 5.21064 5.21084 5.45829 6.25595 6.25596 6.29222 6.30591
 6.30601 6.54731 7.43781 7.43789 7.47651 8.52642 8.57865 8.57890 11.60832 11.60832
 11.62715 11.63640 11.63640 11.67017 11.68535 11.70428 11.70430 13.01551 14.91417 14.92371
 14.95489 14.95490 15.16131 15.16133 15.36368 16.69735 16.69737 16.71105 16.71105 16.77898
 17.23097 55.79352 286.55717
 == 5-th k-point (0.55277,0.00000,-0.55277) occupation: 6==
 -23.85732 -1.46257 -0.67217 -0.04353 -0.02991 0.01581 0.54022 0.59321 0.73632 0.75572
 0.97494 1.22990 1.23946 1.35343 1.42786 1.62869 1.68782 1.86688 1.89843 1.96075
 2.02164 2.03041 2.17313 2.27613 2.34360 2.42398 2.46083 2.50032 2.64679 2.70940
 2.80005 2.88500 2.93235 3.20341 3.64206 3.67345 3.71741 3.78754 3.94418 4.72731
 4.74236 5.14261 5.36861 5.45305 5.54473 5.55568 5.63137 5.81257 6.09156 6.25212
 6.82020 7.22430 7.60492 7.70819 7.75691 8.38432 8.44756 8.50801 11.59899 11.63483
 11.63570 11.63907 11.64957 11.65248 11.65348 11.70002 11.70166 12.56182 14.89053 14.93614
 15.12086 15.26565 15.30735 15.32403 15.38395 16.24658 16.31061 16.63699 16.69353 17.18654
 17.84113 56.14554 286.99242
 == 6-th k-point (0.27639,-0.82916,0.27639) occupation: 6==
 -23.85732 -1.46257 -0.67217 -0.04353 -0.02991 0.01581 0.54022 0.59321 0.73632 0.75572
 0.97494 1.22990 1.23946 1.35343 1.42784 1.62871 1.68780 1.86693 1.89831 1.96075
 2.01994 2.03041 2.17310 2.27613 2.34539 2.42398 2.46081 2.50028 2.64779 2.69353
 2.80028 2.88043 2.93254 3.20363 3.64201 3.67351 3.71856 3.78736 3.95063 4.72731
 4.74185 5.14320 5.36824 5.45425 5.54461 5.54740 5.63118 5.81257 6.09161 6.25226
 6.82041 7.23217 7.61073 7.71180 7.75519 8.38199 8.44741 8.50542 11.59899 11.63483
 11.63570 11.63907 11.64957 11.65247 11.65353 11.70010 11.70162 12.56192 14.89048 14.93614
 15.12094 15.26556 15.30774 15.32398 15.38226 16.24658 16.31061 16.63699 16.69359 17.18649
 17.84607 56.14629 286.99258
 == 7-th k-point (0.55277,-0.55277,-0.00000) occupation: 6==
 -23.85732 -1.46257 -0.67217 -0.04353 -0.02991 0.01581 0.54022 0.59321 0.73632 0.75572
 0.97494 1.22990 1.23946 1.35343 1.42786 1.62869 1.68782 1.86688 1.89843 1.96075
 2.02164 2.03041 2.17313 2.27613 2.34360 2.42398 2.46083 2.50032 2.64679 2.70940
 2.80005 2.88500 2.93235 3.20341 3.64206 3.67345 3.71741 3.78754 3.94418 4.72731
 4.74236 5.14261 5.36861 5.45305 5.54473 5.55568 5.63137 5.81257 6.09156 6.25212
 6.82020 7.22430 7.60492 7.70819 7.75691 8.38432 8.44756 8.50801 11.59899 11.63483
 11.63570 11.63907 11.64957 11.65248 11.65348 11.70002 11.70166 12.56182 14.89053 14.93614
 15.12086 15.26565 15.30735 15.32403 15.38395 16.24658 16.31061 16.63699 16.69353 17.18654
 17.84113 56.14554 286.99242
 == 8-th k-point (0.82916,-0.27639,-0.27639) occupation: 6==
 -23.85732 -1.46257 -0.67217 -0.04353 -0.02991 0.01581 0.54022 0.59321 0.73632 0.75572
 0.97494 1.22990 1.23946 1.35343 1.42784 1.62871 1.68780 1.86693 1.89831 1.96075
 2.01994 2.03041 2.17310 2.27613 2.34539 2.42398 2.46081 2.50028 2.64779 2.69353
 2.80028 2.88043 2.93254 3.20363 3.64201 3.67351 3.71856 3.78736 3.95063 4.72731
 4.74185 5.14320 5.36824 5.45425 5.54461 5.54740 5.63118 5.81257 6.09161 6.25226
 6.82041 7.23217 7.61073 7.71180 7.75519 8.38199 8.44741 8.50542 11.59899 11.63483
 11.63570 11.63907 11.64957 11.65247 11.65353 11.70010 11.70162 12.56192 14.89048 14.93614
 15.12094 15.26556 15.30774 15.32398 15.38226 16.24658 16.31061 16.63699 16.69359 17.18649
 17.84607 56.14629 286.99258
 == 9-th k-point (-0.55277,0.00000,0.00000) occupation: 6==
 -23.85732 -1.46314 -0.67677 -0.04539 0.00871 0.00871 0.51267 0.68134 0.72746 0.78954
 0.78954 1.30795 1.34435 1.41132 1.41133 1.59450 1.60550 1.62201 1.62201 1.84555
 2.04231 2.04236 2.05632 2.48523 2.58846 2.58854 2.59819 2.62780 2.80029 2.84983
 2.85060 2.88495 3.13450 3.55065 3.86814 3.86815 4.12616 4.64703 4.64703 4.90905
 5.03164 5.05493 5.05518 5.06594 5.96340 6.16857 6.16860 6.18250 6.37661 6.38928
 7.70010 7.73829 7.73834 7.98979 8.42920 8.42955 11.59707 11.61809 11.61810 11.62760
 11.63620 11.64237 11.64238 11.66735 11.71612 12.70538 14.88378 14.88378 14.97442 15.06828
 15.07097 15.07101 15.10488 16.62454 16.62509 16.62510 16.76554 16.77379 16.94079 55.51591
 286.20055
 == 10-th k-point (-0.27639,0.27639,-0.27639) occupation: 6==
 -23.85732 -1.46361 -0.68333 -0.03640 0.03060 0.03060 0.43248 0.66836 0.76340 0.76340
 1.08466 1.11181 1.11181 1.39207 1.39207 1.39213 1.63758 1.75063 1.75064 1.82872
 1.98856 1.98858 2.38332 2.47458 2.57454 2.57481 2.76441 2.78592 2.78594 2.82487
 2.82591 2.87454 2.97790 3.15857 3.15930 3.76412 3.96816 3.96822 4.27628 4.73603
 4.73605 4.76470 4.79728 5.21064 5.21084 5.45829 6.25595 6.25596 6.29222 6.30591
 6.30601 6.54731 7.43781 7.43789 7.47651 8.52642 8.57865 8.57890 11.60832 11.60832
 11.62715 11.63640 11.63640 11.67017 11.68535 11.70428 11.70430 13.01551 14.91417 14.92371
 14.95489 14.95490 15.16131 15.16133 15.36368 16.69735 16.69737 16.71105 16.71105 16.77898
 17.23097 55.79352 286.55717
 == 11-th k-point (-0.00000,0.55277,-0.55277) occupation: 6==
 -23.85732 -1.46257 -0.67217 -0.04353 -0.02991 0.01581 0.54022 0.59321 0.73632 0.75572
 0.97494 1.22990 1.23946 1.35343 1.42786 1.62869 1.68782 1.86688 1.89843 1.96075
 2.02164 2.03041 2.17313 2.27613 2.34360 2.42398 2.46083 2.50032 2.64679 2.70940
 2.80005 2.88500 2.93235 3.20341 3.64206 3.67345 3.71741 3.78754 3.94418 4.72731
 4.74236 5.14261 5.36861 5.45305 5.54473 5.55568 5.63137 5.81257 6.09156 6.25212
 6.82020 7.22430 7.60492 7.70819 7.75691 8.38432 8.44756 8.50801 11.59899 11.63483
 11.63570 11.63907 11.64957 11.65248 11.65348 11.70002 11.70166 12.56182 14.89053 14.93614
 15.12086 15.26565 15.30735 15.32403 15.38395 16.24658 16.31061 16.63699 16.69353 17.18654
 17.84113 56.14554 286.99242
 == 12-th k-point (-0.27639,-0.27639,0.27639) occupation: 6==
 -23.85732 -1.46361 -0.68333 -0.03640 0.03060 0.03060 0.43248 0.66836 0.76340 0.76340
 1.08466 1.11181 1.11181 1.39207 1.39207 1.39213 1.63758 1.75063 1.75064 1.82872
 1.98856 1.98858 2.38332 2.47458 2.57454 2.57481 2.76440 2.78592 2.78594 2.82487
 2.82591 2.87454 2.97790 3.15857 3.15930 3.76412 3.96816 3.96822 4.27628 4.73603
 4.73605 4.76470 4.79728 5.21064 5.21084 5.45829 6.25595 6.25596 6.29222 6.30591
 6.30601 6.54731 7.43781 7.43789 7.47651 8.52642 8.57865 8.57890 11.60832 11.60832
 11.62715 11.63640 11.63640 11.67017 11.68535 11.70428 11.70430 13.01551 14.91417 14.92371
 14.95489 14.95490 15.16131 15.16133 15.36368 16.69735 16.69737 16.71105 16.71105 16.77898
 17.23097 55.79352 286.55717
 == 13-th k-point (0.00000,0.00000,0.00000) occupation: 6==
 -23.85732 -1.46532 -0.69538 0.03710 0.03710 0.03710 0.37427 0.92453 0.92453 0.92453
 0.93669 0.93669 0.93669 1.04479 1.20278 1.20278 1.70581 1.70582 1.70582 1.83681
 2.44791 2.44993 2.44993 2.55396 2.61638 2.61638 2.61639 2.63500 2.63506 2.63506
 2.93508 2.93508 3.45091 3.46096 3.46096 4.12679 4.12679 4.12680 4.45517 4.73650
 4.90527 4.90528 4.90528 5.31841 5.31841 5.31842 6.35886 6.35886 6.61221 6.61498
 6.61498 6.64101 7.77720 7.77721 7.77721 9.01113 9.01115 9.01115 11.59707 11.59707
 11.59707 11.60688 11.60688 11.63897 11.63902 11.63902 11.69048 13.99772 14.91079 14.99811
 14.99811 14.99811 15.18555 15.18555 15.18555 16.76781 16.76781 16.92656 16.92709 16.92709
 17.43253 55.82554 286.56453
 == 14-th k-point (0.27639,0.27639,-0.27639) occupation: 6==
 -23.85732 -1.46361 -0.68333 -0.03640 0.03060 0.03060 0.43248 0.66836 0.76340 0.76340
 1.08466 1.11181 1.11181 1.39207 1.39207 1.39213 1.63758 1.75063 1.75064 1.82872
 1.98856 1.98858 2.38332 2.47458 2.57454 2.57481 2.76440 2.78592 2.78594 2.82487
 2.82591 2.87454 2.97790 3.15857 3.15930 3.76412 3.96816 3.96822 4.27628 4.73603
 4.73605 4.76470 4.79728 5.21064 5.21084 5.45829 6.25595 6.25596 6.29222 6.30591
 6.30601 6.54731 7.43781 7.43789 7.47651 8.52642 8.57865 8.57890 11.60832 11.60832
 11.62715 11.63640 11.63640 11.67017 11.68535 11.70428 11.70430 13.01551 14.91417 14.92371
 14.95489 14.95490 15.16131 15.16133 15.36368 16.69735 16.69737 16.71105 16.71105 16.77898
 17.23097 55.79352 286.55717
 == 15-th k-point (0.00000,-0.55277,0.55277) occupation: 6==
 -23.85732 -1.46257 -0.67217 -0.04353 -0.02991 0.01581 0.54022 0.59321 0.73632 0.75572
 0.97494 1.22990 1.23946 1.35343 1.42786 1.62869 1.68782 1.86688 1.89843 1.96075
 2.02164 2.03041 2.17313 2.27613 2.34360 2.42398 2.46083 2.50032 2.64679 2.70940
 2.80005 2.88500 2.93235 3.20341 3.64206 3.67345 3.71741 3.78754 3.94418 4.72731
 4.74236 5.14261 5.36861 5.45305 5.54473 5.55568 5.63137 5.81257 6.09156 6.25212
 6.82020 7.22430 7.60492 7.70819 7.75691 8.38432 8.44756 8.50801 11.59899 11.63483
 11.63570 11.63907 11.64957 11.65248 11.65348 11.70002 11.70166 12.56182 14.89053 14.93614
 15.12086 15.26565 15.30735 15.32403 15.38395 16.24658 16.31061 16.63699 16.69353 17.18654
 17.84113 56.14554 286.99242
 == 16-th k-point (0.27639,-0.27639,0.27639) occupation: 6==
 -23.85732 -1.46361 -0.68333 -0.03640 0.03060 0.03060 0.43248 0.66836 0.76340 0.76340
 1.08466 1.11181 1.11181 1.39207 1.39207 1.39213 1.63758 1.75063 1.75064 1.82872
 1.98856 1.98858 2.38332 2.47458 2.57454 2.57481 2.76441 2.78592 2.78594 2.82487
 2.82591 2.87454 2.97790 3.15857 3.15930 3.76412 3.96816 3.96822 4.27628 4.73603
 4.73605 4.76470 4.79728 5.21064 5.21084 5.45829 6.25595 6.25596 6.29222 6.30591
 6.30601 6.54731 7.43781 7.43789 7.47651 8.52642 8.57865 8.57890 11.60832 11.60832
 11.62715 11.63640 11.63640 11.67017 11.68535 11.70428 11.70430 13.01551 14.91417 14.92371
 14.95489 14.95490 15.16131 15.16133 15.36368 16.69735 16.69737 16.71105 16.71105 16.77898
 17.23097 55.79352 286.55717
 == 17-th k-point (0.55277,-0.00000,0.00000) occupation: 6==
 -23.85732 -1.46314 -0.67677 -0.04539 0.00871 0.00871 0.51267 0.68134 0.72746 0.78954
 0.78954 1.30795 1.34435 1.41132 1.41133 1.59450 1.60550 1.62201 1.62201 1.84555
 2.04231 2.04236 2.05632 2.48523 2.58846 2.58854 2.59819 2.62780 2.80029 2.84983
 2.85060 2.88495 3.13450 3.55065 3.86814 3.86815 4.12616 4.64703 4.64703 4.90905
 5.03164 5.05493 5.05518 5.06594 5.96340 6.16857 6.16860 6.18250 6.37661 6.38928
 7.70010 7.73829 7.73834 7.98979 8.42920 8.42955 11.59707 11.61809 11.61810 11.62760
 11.63620 11.64237 11.64238 11.66735 11.71612 12.70538 14.88378 14.88378 14.97442 15.06828
 15.07097 15.07101 15.10488 16.62454 16.62509 16.62510 16.76554 16.77379 16.94079 55.51591
 286.20055
 == 18-th k-point (-0.82916,0.27639,0.27639) occupation: 6==
 -23.85732 -1.46257 -0.67217 -0.04353 -0.02991 0.01581 0.54022 0.59321 0.73632 0.75572
 0.97494 1.22990 1.23946 1.35343 1.42784 1.62871 1.68780 1.86693 1.89831 1.96075
 2.01994 2.03041 2.17310 2.27613 2.34539 2.42398 2.46081 2.50028 2.64779 2.69353
 2.80028 2.88043 2.93254 3.20363 3.64201 3.67351 3.71856 3.78736 3.95063 4.72731
 4.74185 5.14320 5.36824 5.45425 5.54461 5.54740 5.63118 5.81257 6.09161 6.25226
 6.82041 7.23217 7.61073 7.71180 7.75519 8.38199 8.44741 8.50542 11.59899 11.63483
 11.63570 11.63907 11.64957 11.65247 11.65353 11.70010 11.70162 12.56192 14.89048 14.93614
 15.12094 15.26556 15.30774 15.32398 15.38226 16.24658 16.31061 16.63699 16.69359 17.18649
 17.84607 56.14629 286.99258
 == 19-th k-point (-0.55277,0.55277,0.00000) occupation: 6==
 -23.85732 -1.46257 -0.67217 -0.04353 -0.02991 0.01581 0.54022 0.59321 0.73632 0.75572
 0.97494 1.22990 1.23946 1.35343 1.42786 1.62869 1.68782 1.86688 1.89843 1.96075
 2.02164 2.03041 2.17313 2.27613 2.34360 2.42398 2.46083 2.50032 2.64679 2.70940
 2.80005 2.88500 2.93235 3.20341 3.64206 3.67345 3.71741 3.78754 3.94418 4.72731
 4.74236 5.14261 5.36861 5.45305 5.54473 5.55568 5.63137 5.81257 6.09156 6.25212
 6.82020 7.22430 7.60492 7.70819 7.75691 8.38432 8.44756 8.50801 11.59899 11.63483
 11.63570 11.63907 11.64957 11.65248 11.65348 11.70002 11.70166 12.56182 14.89053 14.93614
 15.12086 15.26565 15.30735 15.32403 15.38395 16.24658 16.31061 16.63699 16.69353 17.18654
 17.84113 56.14554 286.99242
 == 20-th k-point (-0.27639,0.82916,-0.27639) occupation: 6==
 -23.85732 -1.46257 -0.67217 -0.04353 -0.02991 0.01581 0.54022 0.59321 0.73632 0.75572
 0.97494 1.22990 1.23946 1.35343 1.42784 1.62871 1.68780 1.86693 1.89831 1.96075
 2.01994 2.03041 2.17310 2.27613 2.34539 2.42398 2.46081 2.50028 2.64779 2.69353
 2.80028 2.88043 2.93254 3.20363 3.64201 3.67351 3.71856 3.78736 3.95063 4.72731
 4.74185 5.14320 5.36824 5.45425 5.54461 5.54740 5.63118 5.81257 6.09161 6.25226
 6.82041 7.23217 7.61073 7.71180 7.75519 8.38199 8.44741 8.50542 11.59899 11.63483
 11.63570 11.63907 11.64957 11.65247 11.65353 11.70010 11.70162 12.56192 14.89048 14.93614
 15.12094 15.26556 15.30774 15.32398 15.38226 16.24658 16.31061 16.63699 16.69359 17.18649
 17.84607 56.14629 286.99258
 == 21-th k-point (-0.55277,-0.00000,0.55277) occupation: 6==
 -23.85732 -1.46257 -0.67217 -0.04353 -0.02991 0.01581 0.54022 0.59321 0.73632 0.75572
 0.97494 1.22990 1.23946 1.35343 1.42786 1.62869 1.68782 1.86688 1.89843 1.96075
 2.02164 2.03041 2.17313 2.27613 2.34360 2.42398 2.46083 2.50032 2.64679 2.70940
 2.80005 2.88500 2.93235 3.20341 3.64206 3.67345 3.71741 3.78754 3.94418 4.72731
 4.74236 5.14261 5.36861 5.45305 5.54473 5.55568 5.63137 5.81257 6.09156 6.25212
 6.82020 7.22430 7.60492 7.70819 7.75691 8.38432 8.44756 8.50801 11.59899 11.63483
 11.63570 11.63907 11.64957 11.65248 11.65348 11.70002 11.70166 12.56182 14.89053 14.93614
 15.12086 15.26565 15.30735 15.32403 15.38395 16.24658 16.31061 16.63699 16.69353 17.18654
 17.84113 56.14554 286.99242
 == 22-th k-point (-0.27639,0.27639,0.27639) occupation: 6==
 -23.85732 -1.46361 -0.68333 -0.03640 0.03060 0.03060 0.43248 0.66836 0.76340 0.76340
 1.08466 1.11181 1.11181 1.39207 1.39207 1.39213 1.63758 1.75063 1.75064 1.82872
 1.98856 1.98858 2.38332 2.47458 2.57454 2.57481 2.76441 2.78592 2.78594 2.82487
 2.82591 2.87454 2.97790 3.15857 3.15930 3.76412 3.96816 3.96822 4.27628 4.73603
 4.73605 4.76470 4.79728 5.21064 5.21084 5.45829 6.25595 6.25596 6.29222 6.30591
 6.30601 6.54731 7.43781 7.43789 7.47651 8.52642 8.57865 8.57890 11.60832 11.60832
 11.62715 11.63640 11.63640 11.67017 11.68535 11.70428 11.70430 13.01551 14.91417 14.92371
 14.95489 14.95490 15.16131 15.16133 15.36368 16.69735 16.69737 16.71105 16.71105 16.77898
 17.23097 55.79352 286.55717
 == 23-th k-point (0.00000,0.55277,0.00000) occupation: 6==
 -23.85732 -1.46314 -0.67677 -0.04539 0.00871 0.00871 0.51267 0.68134 0.72746 0.78954
 0.78954 1.30795 1.34435 1.41132 1.41133 1.59450 1.60550 1.62201 1.62201 1.84555
 2.04231 2.04236 2.05632 2.48523 2.58846 2.58854 2.59819 2.62780 2.80029 2.84983
 2.85060 2.88495 3.13450 3.55065 3.86814 3.86815 4.12616 4.64703 4.64703 4.90905
 5.03164 5.05493 5.05518 5.06594 5.96340 6.16857 6.16860 6.18250 6.37661 6.38928
 7.70010 7.73829 7.73834 7.98979 8.42920 8.42955 11.59707 11.61809 11.61810 11.62760
 11.63620 11.64237 11.64238 11.66735 11.71612 12.70538 14.88378 14.88378 14.97442 15.06828
 15.07097 15.07101 15.10488 16.62454 16.62509 16.62510 16.76554 16.77379 16.94079 55.51591
 286.20055
 == 24-th k-point (-0.27639,-0.27639,0.82916) occupation: 6==
 -23.85732 -1.46257 -0.67217 -0.04353 -0.02991 0.01581 0.54022 0.59321 0.73632 0.75572
 0.97494 1.22990 1.23946 1.35343 1.42784 1.62871 1.68780 1.86693 1.89831 1.96075
 2.01994 2.03041 2.17310 2.27613 2.34539 2.42398 2.46081 2.50028 2.64779 2.69353
 2.80028 2.88043 2.93254 3.20363 3.64201 3.67351 3.71856 3.78736 3.95063 4.72731
 4.74185 5.14320 5.36824 5.45425 5.54461 5.54740 5.63118 5.81257 6.09161 6.25226
 6.82041 7.23217 7.61073 7.71180 7.75519 8.38199 8.44741 8.50542 11.59899 11.63483
 11.63570 11.63907 11.64957 11.65247 11.65353 11.70010 11.70162 12.56192 14.89048 14.93614
 15.12094 15.26556 15.30774 15.32398 15.38226 16.24658 16.31061 16.63699 16.69359 17.18649
 17.84607 56.14629 286.99258
 == 25-th k-point (0.00000,-0.00000,0.55277) occupation: 6==
 -23.85732 -1.46314 -0.67677 -0.04539 0.00871 0.00871 0.51267 0.68134 0.72746 0.78954
 0.78954 1.30795 1.34435 1.41132 1.41133 1.59450 1.60550 1.62201 1.62201 1.84555
 2.04231 2.04236 2.05632 2.48523 2.58846 2.58854 2.59819 2.62780 2.80029 2.84983
 2.85060 2.88495 3.13450 3.55065 3.86814 3.86815 4.12616 4.64703 4.64703 4.90905
 5.03164 5.05493 5.05518 5.06594 5.96340 6.16857 6.16860 6.18250 6.37661 6.38928
 7.70010 7.73829 7.73834 7.98979 8.42920 8.42955 11.59707 11.61809 11.61810 11.62760
 11.63620 11.64237 11.64238 11.66735 11.71612 12.70538 14.88378 14.88378 14.97442 15.06828
 15.07097 15.07101 15.10488 16.62454 16.62509 16.62510 16.76554 16.77379 16.94080 55.51591
 286.20055
 == 26-th k-point (0.27639,0.27639,0.27639) occupation: 6==
 -23.85732 -1.46361 -0.68333 -0.03640 0.03060 0.03060 0.43248 0.66836 0.76340 0.76340
 1.08466 1.11181 1.11181 1.39207 1.39207 1.39213 1.63758 1.75063 1.75063 1.82878
 1.98858 1.98858 2.38340 2.47505 2.57456 2.57456 2.76408 2.78592 2.78592 2.82593
 2.82593 2.87498 2.97825 3.15862 3.15862 3.76424 3.96824 3.96824 4.27810 4.73605
 4.73605 4.76470 4.79719 5.21065 5.21065 5.45845 6.25595 6.25595 6.29224 6.30592
 6.30592 6.54785 7.43790 7.43790 7.47655 8.52795 8.57894 8.57894 11.60832 11.60832
 11.62715 11.63640 11.63640 11.67019 11.68534 11.70430 11.70430 13.01581 14.91416 14.92371
 14.95490 14.95490 15.16132 15.16132 15.36374 16.69735 16.69735 16.71105 16.71105 16.77904
 17.23121 55.79355 286.55717
 ---------------------------------------------------------------------------
 VBM is at 13-th k-point with 1.00958 eV
 CBM is at 13-th k-point with 10.18448 eV
 Band gap is 9.17490 eV


           Ground-State Mulliken Net Atomic Charges

      Atom                 Charge (a.u.)          Spin (a.u.)
   --------------------------------------------------------
      1 Li               (0.082519,-0.000000)    (0.000000,0.000000)
      2  F               (-0.082519,0.000000)    (0.000000,0.000000)
   --------------------------------------------------------
  Sum of atomic charges =      (0.000000,-0.000000)
  Sum of spin   charges =       (0.000000,0.000000)



 Total job time:  219.99 s.
 Mon Sep  8 23:38:18 2025


        *************************************************************
        *                                                           *
        *  Thank you very much for using QCPBC. Have a nice day.    *
        *                                                           *
        *************************************************************

Running job 1 of 1
