                  Welcome to Q-Chem
           with Periodic Boundary Condition
     A Quantum Leap Into The Future Of Chemistry

 Adam Rettig, Xintian Feng, Meng-Fu Chen, Hieu Dinh, Stephen Quiton,
 Anton Ni, Paul J. Robinson, Jinghong Zhang, Joonho Lee

Contributors to earlier versions of Q-Chem not listed above:
 Evgeny Epifanovsky, Leo Cunha, Jerome F. Gonthier, Kuan-Yu Liu
 Input file: /n/netscratch/joonholee_lab/Lab/hieudinh//lif_solve_def2qzvp_omega_0.3_999.scratch20250909031547/lif_solve_def2qzvp_omega_0.3_999.0
 Scratch folder: /n/netscratch/joonholee_lab/Lab/hieudinh//lif_solve_def2qzvp_omega_0.3_999.scratch20250909031547
 Auxillary files located at: /n/holylabs/LABS/joonholee_lab/Lab/qchem_base/qcaux
 Q-Chem begins on Tue Sep  9 03:15:48 2025

 -------------------------------------------------------------
 User input:
 -------------------------------------------------------------
 $lattice
 3
 0.000000 2.005000 2.005000
 2.005000 0.000000 2.005000
 2.005000 2.005000 0.000000
 $end
 
 $unitcell
 ABSOLUTE
 0 1
 Li 0.000000 0.000000 0.000000
 F  2.005000 0.000000 0.000000
 $end
 
 $rem
 jobtype = sp
 method = pbe
 scf_convergence = 5
 scf_guess = autosad
 scf_algorithm = gdm
 basis = def2-qzvp
 aux_basis = gen
 input_bohr = false
 symmetry false
 is_basis_uctr true
 rsdf_print_level 1
 
 mp_mesh = [9,9,9]
 
 integral_direct true
 bvk_cgto true
 
 thresh 14
 mem_total 100000
 threads 32
 
 MAX_SCF_CYCLES 400
 madelung = false
 omega 0.3
 do_rij_bigmem true
 automate_g true
 print_level 10
 grid_type_xc 1
 
 thresh_1e2c_sp 1e-14
 thresh_2e3c_bra_ket_sep 1e-10
 thresh_g 1e-12
 $end
 
 $aux_basis
 Li     0
 S   7   1.00
     498.3689730              0.0207908
     162.9342738              0.0542177
      57.3246735              0.1776783
      21.6427314              0.4181150
       8.7345375              0.6535245
       3.7491039              0.5492618
       1.7006754              0.1701425
 S   1   1.00
       0.8090859             -0.0097548
 S   1   1.00
       0.4000933             -0.0050152
 S   1   1.00
       0.2035793              0.0232200
 !S   1   1.00
 !      0.1054201              0.0134535
 !S   1   1.00
 !      0.0549139              0.0006647
 P   2   1.00
      10.7024696              0.0072923
       3.6551543              0.0060940
 P   1   1.00
       1.2464013              0.0172529
 P   1   1.00
       0.4246282             -0.0160026
 P   1   1.00
       0.1446192             -0.0195111
 D   2   1.00
       1.1510647             -0.0014314
       0.6019112              0.0038969
 D   1   1.00
       0.3109573              0.0024683
 D   1   1.00
       0.1600032              0.0036451
 F   2   1.00
       0.5967918              0.0010494
       0.1790687              0.0006468
 G   1   1.00
       1.0460130             -0.0001971
 ****
 F     0
 S   7   1.00
    3514.9201549              0.1805835
    1231.2458815              0.3676084
     454.1367336              1.2707881
     175.8376258              2.8274164
      71.2081775              4.3588226
      30.0316883              2.7180994
      13.1259023             -0.0804726
 S   1   1.00
       5.9126861             -0.0023370
 S   1   1.00
       2.7284431              1.1236274
 S   1   1.00
       1.2813993              0.9999042
 S   1   1.00
       0.6082793              0.3119579
 S   1   1.00
       0.2897894              0.0312295
 P   2   1.00
      49.3740409             -0.0346332
      13.4874956             -0.0096069
 P   1   1.00
       3.9664900              0.0762067
 P   1   1.00
       1.2226629             -0.0103329
 P   1   1.00
       0.3830317              0.0018853
 D   2   1.00
      29.9719140             -0.0113316
       6.7860915             -0.0467639
 D   1   1.00
       1.8137313             -0.0167604
 D   1   1.00
       0.5157840             -0.0050777
 F   2   1.00
       2.8301877              1.0
       0.9155962              1.0
 G   1   1.00
       1.6097500             -0.0005411
 ****
 $end
 -------------------------------------------------------------
 Running PBC job

 Requested Exchange Correlation Functionals: 
  DFT Exchange:  1.00000 pbe_x
  DFT Correlation:  1.00000 pbe_c
 using 32 threads for computing.
 ---------------------------------------------------------------
      Coordinates of Atoms in Central Unit Cell (Angstroms)
    I     Atom         X            Y            Z
 ---------------------------------------------------------------
    1      Li      0.000000     0.000000     0.000000
    2       F      2.005000     0.000000     0.000000
 ---------------------------------------------------------------
 --------------------------------------------------
              Lattice Vectors (Angstroms)
              X            Y            Z
 --------------------------------------------------
   X       0.000000     2.005000     2.005000
   Y       2.005000     0.000000     2.005000
   Z       2.005000     2.005000     0.000000
 --------------------------------------------------
 --------------------------------------------------
       Reciprocal Lattice Vectors (Angstroms^-1)
              X            Y            Z
 --------------------------------------------------
   X      -1.566879     1.566879     1.566879
   Y       1.566879    -1.566879     1.566879
   Z       1.566879     1.566879    -1.566879
 --------------------------------------------------

 Single point calculation requested

 Hamiltonian contributions:
 List of terms in Hamiltonian: kpts_nn, kpts_kinetic, kpts_vnuc_df, kpts_xc, kpts_rij_bigmem

 K-Points calculation started.

 Basis set information about using solid harmonic (1) or Cartesian (0):
  li : D(1) D(1) F(1) 
  f : D(1) D(1) D(1) F(1) F(1) G(1) 

 Basis set information about using solid harmonic (1) or Cartesian (0):
  li : D(1) D(1) D(1) F(1) G(1) 
  f : D(1) D(1) D(1) F(1) G(1) 

 There are 92 basis functions in the central unit cell.
 Print atomic basis of atoms in the central unit cell:
 -------------------------------------------------------------
2 53 53 30

  0.00000000000000e+00  0.00000000000000e+00  0.00000000000000e+00
  3.78890087987467e+00  0.00000000000000e+00  0.00000000000000e+00

  1.48539770850000e+04
  2.22522364770000e+03
  5.04887390080000e+02
  1.42458475480000e+02
  4.63155995800000e+01
  1.66553354740000e+01
  6.43311861990000e+00
  2.60270438580000e+00
  1.08972454050000e+00
  4.42365959710000e+00
  1.23563949900000e+00
  4.60674706020000e-01
  9.66171669550000e-02
  4.59154522960000e-02
  2.11400487300000e-02
  3.26051092060000e+00
  6.50030431150000e-01
  1.69416710730000e-01
  3.32700000000000e+00
  5.57323437670000e-02
  2.04899592410000e-02
  2.30000000000000e-01
  7.57000000000000e-02
  1.35000000000000e-01
  1.32535973450000e+05
  1.97581125880000e+04
  4.48519969470000e+03
  1.27381510200000e+03
  4.18938312360000e+02
  1.52557219850000e+02
  5.98215248230000e+01
  2.48190769320000e+01
  1.00744466730000e+02
  3.01037282900000e+01
  1.08142832720000e+01
  4.81728867700000e+00
  1.65593342130000e+00
  6.48935195820000e-01
  2.47781045450000e-01
  2.40966541140000e+02
  5.70206997810000e+01
  1.81269521200000e+01
  6.64574046210000e+00
  2.63757228920000e+00
  1.06382172000000e+00
  4.19325627500000e-01
  1.57475882990000e-01
  5.01400000000000e+00
  1.72500000000000e+00
  5.86000000000000e-01
  3.56200000000000e+00
  1.14800000000000e+00
  2.37600000000000e+00

  4.67593013229757e-02
  8.76137465723478e-02
  1.51821576860780e-01
  2.46527731442678e-01
  3.74140539449148e-01
  5.14323804423000e-01
  6.00677517411378e-01
  5.44460466941871e-01
  3.21097242154446e-01
  2.72734215356930e-01
  7.53702662810338e-01
  3.98525272814913e-01
  1.23509628755786e-01
  7.06934606713439e-02
  3.95129614058778e-02
  2.22230636644090e-01
  1.62952044217479e-01
  1.33842808684561e-01
  6.40480761295544e+00
  3.85988372286674e-02
  1.10501063034648e-02
  1.25728336426159e-01
  1.79815549832937e-02
  1.62631785032468e-02
  3.86107783813291e-01
  7.24648975903829e-01
  1.25045495963763e+00
  2.01518764389143e+00
  3.04056815166578e+00
  4.21268576129244e+00
  5.00944268647146e+00
  4.54693835849554e+00
  2.32503271092484e+00
  8.41440806306271e+00
  4.25019052011886e+00
  2.31745919743391e+00
  1.04038060130896e+00
  5.15301123337211e-01
  2.50300174847139e-01
  3.49166780573024e+00
  4.61886090108967e+00
  5.17964869303152e+00
  4.78626212475628e+00
  3.24578400123904e+00
  1.54001926672016e+00
  4.80982576947690e-01
  1.41402684040663e-01
  2.76523492268872e+01
  4.27356565232165e+00
  6.45996677345861e-01
  2.56605380682814e+01
  2.00827738540458e+00
  1.20230076986570e+01

0 0 0 0 1 1 1
0 0 
9 0

0 1 1 9 1 1 1
9 0 
2 0

0 2 2 11 1 1 1
11 0 
1 0

0 3 3 12 1 1 1
12 0 
1 0

0 4 4 13 1 1 1
13 0 
1 0

0 5 5 14 1 1 1
14 0 
1 0

0 6 6 15 1 3 3
15 1 
3 0

0 9 9 18 1 3 3
18 1 
1 0

0 12 12 19 1 3 3
19 1 
1 0

0 15 15 20 1 3 3
20 1 
1 0

0 18 18 21 1 5 6
21 2 
1 1

0 23 23 22 1 5 6
22 2 
1 1

0 28 28 23 1 7 10
23 3 
1 1

1 35 35 24 1 1 1
24 0 
8 0

1 36 36 32 1 1 1
32 0 
2 0

1 37 37 34 1 1 1
34 0 
1 0

1 38 38 35 1 1 1
35 0 
1 0

1 39 39 36 1 1 1
36 0 
1 0

1 40 40 37 1 1 1
37 0 
1 0

1 41 41 38 1 1 1
38 0 
1 0

1 42 42 39 1 3 3
39 1 
5 0

1 45 45 44 1 3 3
44 1 
1 0

1 48 48 45 1 3 3
45 1 
1 0

1 51 51 46 1 3 3
46 1 
1 0

1 54 54 47 1 5 6
47 2 
1 1

1 59 59 48 1 5 6
48 2 
1 1

1 64 64 49 1 5 6
49 2 
1 1

1 69 69 50 1 7 10
50 3 
1 1

1 76 76 51 1 7 10
51 3 
1 1

1 83 83 52 1 9 15
52 4 
1 1

 -------------------------------------------------------------
 Allocate 136872 B from available memory: 104857600000 B
 There are 15625 image cells after screening.
 There are 17628 image cells for CGTO evaluation after screening.
 Real-Space grid for FFT initialized based on kinetic energy cutoff (eV) = 500.0
 Real-Space grid for FFT: (8,8,8)
 There are 4913 real-space grid points.
 There are 27 batches of real-space grid points. 
 Size of each grid batch is around 128
 Grid for AFT initialized based on kinetic energy cutoff (eV) = 500.0
 Real-Space grid for AFT: (8,8,8)
 There are 4913 real-space grid points.

 There are 5912 atom-centered grid points.

 Spacegroup symmetry group: Fm-3m
 Reducing spacegroup symmetry to symmorphic group: F m -3 m
 Monkhorst-Pack mesh is [9,9,9]
 There are 729 k points.
kpoints in Bohr
-0.3685141010 -0.3685141010 -0.3685141010
-0.2763855758 -0.2763855758 -0.4606426263
-0.1842570505 -0.1842570505 -0.5527711515
-0.0921285253 -0.0921285253 -0.6448996768
-0.0000000000 0.0000000000 -0.7370282020
0.0921285253 0.0921285253 -0.8291567273
0.1842570505 0.1842570505 -0.9212852525
0.2763855758 0.2763855758 -1.0134137778
0.3685141010 0.3685141010 -1.1055423031
-0.2763855758 -0.4606426263 -0.2763855758
-0.1842570505 -0.3685141010 -0.3685141010
-0.0921285253 -0.2763855758 -0.4606426263
-0.0000000000 -0.1842570505 -0.5527711515
0.0921285253 -0.0921285253 -0.6448996768
0.1842570505 0.0000000000 -0.7370282020
0.2763855758 0.0921285253 -0.8291567273
0.3685141010 0.1842570505 -0.9212852525
0.4606426263 0.2763855758 -1.0134137778
-0.1842570505 -0.5527711515 -0.1842570505
-0.0921285253 -0.4606426263 -0.2763855758
-0.0000000000 -0.3685141010 -0.3685141010
0.0921285253 -0.2763855758 -0.4606426263
0.1842570505 -0.1842570505 -0.5527711515
0.2763855758 -0.0921285253 -0.6448996768
0.3685141010 0.0000000000 -0.7370282020
0.4606426263 0.0921285253 -0.8291567273
0.5527711515 0.1842570505 -0.9212852525
-0.0921285253 -0.6448996768 -0.0921285253
-0.0000000000 -0.5527711515 -0.1842570505
0.0921285253 -0.4606426263 -0.2763855758
0.1842570505 -0.3685141010 -0.3685141010
0.2763855758 -0.2763855758 -0.4606426263
0.3685141010 -0.1842570505 -0.5527711515
0.4606426263 -0.0921285253 -0.6448996768
0.5527711515 0.0000000000 -0.7370282020
0.6448996768 0.0921285253 -0.8291567273
0.0000000000 -0.7370282020 -0.0000000000
0.0921285253 -0.6448996768 -0.0921285253
0.1842570505 -0.5527711515 -0.1842570505
0.2763855758 -0.4606426263 -0.2763855758
0.3685141010 -0.3685141010 -0.3685141010
0.4606426263 -0.2763855758 -0.4606426263
0.5527711515 -0.1842570505 -0.5527711515
0.6448996768 -0.0921285253 -0.6448996768
0.7370282020 0.0000000000 -0.7370282020
0.0921285253 -0.8291567273 0.0921285253
0.1842570505 -0.7370282020 -0.0000000000
0.2763855758 -0.6448996768 -0.0921285253
0.3685141010 -0.5527711515 -0.1842570505
0.4606426263 -0.4606426263 -0.2763855758
0.5527711515 -0.3685141010 -0.3685141010
0.6448996768 -0.2763855758 -0.4606426263
0.7370282020 -0.1842570505 -0.5527711515
0.8291567273 -0.0921285253 -0.6448996768
0.1842570505 -0.9212852525 0.1842570505
0.2763855758 -0.8291567273 0.0921285253
0.3685141010 -0.7370282020 -0.0000000000
0.4606426263 -0.6448996768 -0.0921285253
0.5527711515 -0.5527711515 -0.1842570505
0.6448996768 -0.4606426263 -0.2763855758
0.7370282020 -0.3685141010 -0.3685141010
0.8291567273 -0.2763855758 -0.4606426263
0.9212852525 -0.1842570505 -0.5527711515
0.2763855758 -1.0134137778 0.2763855758
0.3685141010 -0.9212852525 0.1842570505
0.4606426263 -0.8291567273 0.0921285253
0.5527711515 -0.7370282020 -0.0000000000
0.6448996768 -0.6448996768 -0.0921285253
0.7370282020 -0.5527711515 -0.1842570505
0.8291567273 -0.4606426263 -0.2763855758
0.9212852525 -0.3685141010 -0.3685141010
1.0134137778 -0.2763855758 -0.4606426263
0.3685141010 -1.1055423031 0.3685141010
0.4606426263 -1.0134137778 0.2763855758
0.5527711515 -0.9212852525 0.1842570505
0.6448996768 -0.8291567273 0.0921285253
0.7370282020 -0.7370282020 -0.0000000000
0.8291567273 -0.6448996768 -0.0921285253
0.9212852525 -0.5527711515 -0.1842570505
1.0134137778 -0.4606426263 -0.2763855758
1.1055423031 -0.3685141010 -0.3685141010
-0.4606426263 -0.2763855758 -0.2763855758
-0.3685141010 -0.1842570505 -0.3685141010
-0.2763855758 -0.0921285253 -0.4606426263
-0.1842570505 0.0000000000 -0.5527711515
-0.0921285253 0.0921285253 -0.6448996768
-0.0000000000 0.1842570505 -0.7370282020
0.0921285253 0.2763855758 -0.8291567273
0.1842570505 0.3685141010 -0.9212852525
0.2763855758 0.4606426263 -1.0134137778
-0.3685141010 -0.3685141010 -0.1842570505
-0.2763855758 -0.2763855758 -0.2763855758
-0.1842570505 -0.1842570505 -0.3685141010
-0.0921285253 -0.0921285253 -0.4606426263
-0.0000000000 0.0000000000 -0.5527711515
0.0921285253 0.0921285253 -0.6448996768
0.1842570505 0.1842570505 -0.7370282020
0.2763855758 0.2763855758 -0.8291567273
0.3685141010 0.3685141010 -0.9212852525
-0.2763855758 -0.4606426263 -0.0921285253
-0.1842570505 -0.3685141010 -0.1842570505
-0.0921285253 -0.2763855758 -0.2763855758
-0.0000000000 -0.1842570505 -0.3685141010
0.0921285253 -0.0921285253 -0.4606426263
0.1842570505 0.0000000000 -0.5527711515
0.2763855758 0.0921285253 -0.6448996768
0.3685141010 0.1842570505 -0.7370282020
0.4606426263 0.2763855758 -0.8291567273
-0.1842570505 -0.5527711515 -0.0000000000
-0.0921285253 -0.4606426263 -0.0921285253
-0.0000000000 -0.3685141010 -0.1842570505
0.0921285253 -0.2763855758 -0.2763855758
0.1842570505 -0.1842570505 -0.3685141010
0.2763855758 -0.0921285253 -0.4606426263
0.3685141010 0.0000000000 -0.5527711515
0.4606426263 0.0921285253 -0.6448996768
0.5527711515 0.1842570505 -0.7370282020
-0.0921285253 -0.6448996768 0.0921285253
-0.0000000000 -0.5527711515 -0.0000000000
0.0921285253 -0.4606426263 -0.0921285253
0.1842570505 -0.3685141010 -0.1842570505
0.2763855758 -0.2763855758 -0.2763855758
0.3685141010 -0.1842570505 -0.3685141010
0.4606426263 -0.0921285253 -0.4606426263
0.5527711515 0.0000000000 -0.5527711515
0.6448996768 0.0921285253 -0.6448996768
0.0000000000 -0.7370282020 0.1842570505
0.0921285253 -0.6448996768 0.0921285253
0.1842570505 -0.5527711515 -0.0000000000
0.2763855758 -0.4606426263 -0.0921285253
0.3685141010 -0.3685141010 -0.1842570505
0.4606426263 -0.2763855758 -0.2763855758
0.5527711515 -0.1842570505 -0.3685141010
0.6448996768 -0.0921285253 -0.4606426263
0.7370282020 0.0000000000 -0.5527711515
0.0921285253 -0.8291567273 0.2763855758
0.1842570505 -0.7370282020 0.1842570505
0.2763855758 -0.6448996768 0.0921285253
0.3685141010 -0.5527711515 -0.0000000000
0.4606426263 -0.4606426263 -0.0921285253
0.5527711515 -0.3685141010 -0.1842570505
0.6448996768 -0.2763855758 -0.2763855758
0.7370282020 -0.1842570505 -0.3685141010
0.8291567273 -0.0921285253 -0.4606426263
0.1842570505 -0.9212852525 0.3685141010
0.2763855758 -0.8291567273 0.2763855758
0.3685141010 -0.7370282020 0.1842570505
0.4606426263 -0.6448996768 0.0921285253
0.5527711515 -0.5527711515 -0.0000000000
0.6448996768 -0.4606426263 -0.0921285253
0.7370282020 -0.3685141010 -0.1842570505
0.8291567273 -0.2763855758 -0.2763855758
0.9212852525 -0.1842570505 -0.3685141010
0.2763855758 -1.0134137778 0.4606426263
0.3685141010 -0.9212852525 0.3685141010
0.4606426263 -0.8291567273 0.2763855758
0.5527711515 -0.7370282020 0.1842570505
0.6448996768 -0.6448996768 0.0921285253
0.7370282020 -0.5527711515 -0.0000000000
0.8291567273 -0.4606426263 -0.0921285253
0.9212852525 -0.3685141010 -0.1842570505
1.0134137778 -0.2763855758 -0.2763855758
-0.5527711515 -0.1842570505 -0.1842570505
-0.4606426263 -0.0921285253 -0.2763855758
-0.3685141010 0.0000000000 -0.3685141010
-0.2763855758 0.0921285253 -0.4606426263
-0.1842570505 0.1842570505 -0.5527711515
-0.0921285253 0.2763855758 -0.6448996768
-0.0000000000 0.3685141010 -0.7370282020
0.0921285253 0.4606426263 -0.8291567273
0.1842570505 0.5527711515 -0.9212852525
-0.4606426263 -0.2763855758 -0.0921285253
-0.3685141010 -0.1842570505 -0.1842570505
-0.2763855758 -0.0921285253 -0.2763855758
-0.1842570505 0.0000000000 -0.3685141010
-0.0921285253 0.0921285253 -0.4606426263
-0.0000000000 0.1842570505 -0.5527711515
0.0921285253 0.2763855758 -0.6448996768
0.1842570505 0.3685141010 -0.7370282020
0.2763855758 0.4606426263 -0.8291567273
-0.3685141010 -0.3685141010 -0.0000000000
-0.2763855758 -0.2763855758 -0.0921285253
-0.1842570505 -0.1842570505 -0.1842570505
-0.0921285253 -0.0921285253 -0.2763855758
-0.0000000000 0.0000000000 -0.3685141010
0.0921285253 0.0921285253 -0.4606426263
0.1842570505 0.1842570505 -0.5527711515
0.2763855758 0.2763855758 -0.6448996768
0.3685141010 0.3685141010 -0.7370282020
-0.2763855758 -0.4606426263 0.0921285253
-0.1842570505 -0.3685141010 -0.0000000000
-0.0921285253 -0.2763855758 -0.0921285253
-0.0000000000 -0.1842570505 -0.1842570505
0.0921285253 -0.0921285253 -0.2763855758
0.1842570505 0.0000000000 -0.3685141010
0.2763855758 0.0921285253 -0.4606426263
0.3685141010 0.1842570505 -0.5527711515
0.4606426263 0.2763855758 -0.6448996768
-0.1842570505 -0.5527711515 0.1842570505
-0.0921285253 -0.4606426263 0.0921285253
0.0000000000 -0.3685141010 -0.0000000000
0.0921285253 -0.2763855758 -0.0921285253
0.1842570505 -0.1842570505 -0.1842570505
0.2763855758 -0.0921285253 -0.2763855758
0.3685141010 0.0000000000 -0.3685141010
0.4606426263 0.0921285253 -0.4606426263
0.5527711515 0.1842570505 -0.5527711515
-0.0921285253 -0.6448996768 0.2763855758
0.0000000000 -0.5527711515 0.1842570505
0.0921285253 -0.4606426263 0.0921285253
0.1842570505 -0.3685141010 -0.0000000000
0.2763855758 -0.2763855758 -0.0921285253
0.3685141010 -0.1842570505 -0.1842570505
0.4606426263 -0.0921285253 -0.2763855758
0.5527711515 0.0000000000 -0.3685141010
0.6448996768 0.0921285253 -0.4606426263
0.0000000000 -0.7370282020 0.3685141010
0.0921285253 -0.6448996768 0.2763855758
0.1842570505 -0.5527711515 0.1842570505
0.2763855758 -0.4606426263 0.0921285253
0.3685141010 -0.3685141010 -0.0000000000
0.4606426263 -0.2763855758 -0.0921285253
0.5527711515 -0.1842570505 -0.1842570505
0.6448996768 -0.0921285253 -0.2763855758
0.7370282020 0.0000000000 -0.3685141010
0.0921285253 -0.8291567273 0.4606426263
0.1842570505 -0.7370282020 0.3685141010
0.2763855758 -0.6448996768 0.2763855758
0.3685141010 -0.5527711515 0.1842570505
0.4606426263 -0.4606426263 0.0921285253
0.5527711515 -0.3685141010 -0.0000000000
0.6448996768 -0.2763855758 -0.0921285253
0.7370282020 -0.1842570505 -0.1842570505
0.8291567273 -0.0921285253 -0.2763855758
0.1842570505 -0.9212852525 0.5527711515
0.2763855758 -0.8291567273 0.4606426263
0.3685141010 -0.7370282020 0.3685141010
0.4606426263 -0.6448996768 0.2763855758
0.5527711515 -0.5527711515 0.1842570505
0.6448996768 -0.4606426263 0.0921285253
0.7370282020 -0.3685141010 -0.0000000000
0.8291567273 -0.2763855758 -0.0921285253
0.9212852525 -0.1842570505 -0.1842570505
-0.6448996768 -0.0921285253 -0.0921285253
-0.5527711515 0.0000000000 -0.1842570505
-0.4606426263 0.0921285253 -0.2763855758
-0.3685141010 0.1842570505 -0.3685141010
-0.2763855758 0.2763855758 -0.4606426263
-0.1842570505 0.3685141010 -0.5527711515
-0.0921285253 0.4606426263 -0.6448996768
-0.0000000000 0.5527711515 -0.7370282020
0.0921285253 0.6448996768 -0.8291567273
-0.5527711515 -0.1842570505 -0.0000000000
-0.4606426263 -0.0921285253 -0.0921285253
-0.3685141010 0.0000000000 -0.1842570505
-0.2763855758 0.0921285253 -0.2763855758
-0.1842570505 0.1842570505 -0.3685141010
-0.0921285253 0.2763855758 -0.4606426263
-0.0000000000 0.3685141010 -0.5527711515
0.0921285253 0.4606426263 -0.6448996768
0.1842570505 0.5527711515 -0.7370282020
-0.4606426263 -0.2763855758 0.0921285253
-0.3685141010 -0.1842570505 -0.0000000000
-0.2763855758 -0.0921285253 -0.0921285253
-0.1842570505 0.0000000000 -0.1842570505
-0.0921285253 0.0921285253 -0.2763855758
-0.0000000000 0.1842570505 -0.3685141010
0.0921285253 0.2763855758 -0.4606426263
0.1842570505 0.3685141010 -0.5527711515
0.2763855758 0.4606426263 -0.6448996768
-0.3685141010 -0.3685141010 0.1842570505
-0.2763855758 -0.2763855758 0.0921285253
-0.1842570505 -0.1842570505 -0.0000000000
-0.0921285253 -0.0921285253 -0.0921285253
-0.0000000000 0.0000000000 -0.1842570505
0.0921285253 0.0921285253 -0.2763855758
0.1842570505 0.1842570505 -0.3685141010
0.2763855758 0.2763855758 -0.4606426263
0.3685141010 0.3685141010 -0.5527711515
-0.2763855758 -0.4606426263 0.2763855758
-0.1842570505 -0.3685141010 0.1842570505
-0.0921285253 -0.2763855758 0.0921285253
0.0000000000 -0.1842570505 -0.0000000000
0.0921285253 -0.0921285253 -0.0921285253
0.1842570505 0.0000000000 -0.1842570505
0.2763855758 0.0921285253 -0.2763855758
0.3685141010 0.1842570505 -0.3685141010
0.4606426263 0.2763855758 -0.4606426263
-0.1842570505 -0.5527711515 0.3685141010
-0.0921285253 -0.4606426263 0.2763855758
0.0000000000 -0.3685141010 0.1842570505
0.0921285253 -0.2763855758 0.0921285253
0.1842570505 -0.1842570505 -0.0000000000
0.2763855758 -0.0921285253 -0.0921285253
0.3685141010 0.0000000000 -0.1842570505
0.4606426263 0.0921285253 -0.2763855758
0.5527711515 0.1842570505 -0.3685141010
-0.0921285253 -0.6448996768 0.4606426263
0.0000000000 -0.5527711515 0.3685141010
0.0921285253 -0.4606426263 0.2763855758
0.1842570505 -0.3685141010 0.1842570505
0.2763855758 -0.2763855758 0.0921285253
0.3685141010 -0.1842570505 -0.0000000000
0.4606426263 -0.0921285253 -0.0921285253
0.5527711515 0.0000000000 -0.1842570505
0.6448996768 0.0921285253 -0.2763855758
0.0000000000 -0.7370282020 0.5527711515
0.0921285253 -0.6448996768 0.4606426263
0.1842570505 -0.5527711515 0.3685141010
0.2763855758 -0.4606426263 0.2763855758
0.3685141010 -0.3685141010 0.1842570505
0.4606426263 -0.2763855758 0.0921285253
0.5527711515 -0.1842570505 -0.0000000000
0.6448996768 -0.0921285253 -0.0921285253
0.7370282020 0.0000000000 -0.1842570505
0.0921285253 -0.8291567273 0.6448996768
0.1842570505 -0.7370282020 0.5527711515
0.2763855758 -0.6448996768 0.4606426263
0.3685141010 -0.5527711515 0.3685141010
0.4606426263 -0.4606426263 0.2763855758
0.5527711515 -0.3685141010 0.1842570505
0.6448996768 -0.2763855758 0.0921285253
0.7370282020 -0.1842570505 -0.0000000000
0.8291567273 -0.0921285253 -0.0921285253
-0.7370282020 0.0000000000 0.0000000000
-0.6448996768 0.0921285253 -0.0921285253
-0.5527711515 0.1842570505 -0.1842570505
-0.4606426263 0.2763855758 -0.2763855758
-0.3685141010 0.3685141010 -0.3685141010
-0.2763855758 0.4606426263 -0.4606426263
-0.1842570505 0.5527711515 -0.5527711515
-0.0921285253 0.6448996768 -0.6448996768
-0.0000000000 0.7370282020 -0.7370282020
-0.6448996768 -0.0921285253 0.0921285253
-0.5527711515 0.0000000000 0.0000000000
-0.4606426263 0.0921285253 -0.0921285253
-0.3685141010 0.1842570505 -0.1842570505
-0.2763855758 0.2763855758 -0.2763855758
-0.1842570505 0.3685141010 -0.3685141010
-0.0921285253 0.4606426263 -0.4606426263
-0.0000000000 0.5527711515 -0.5527711515
0.0921285253 0.6448996768 -0.6448996768
-0.5527711515 -0.1842570505 0.1842570505
-0.4606426263 -0.0921285253 0.0921285253
-0.3685141010 0.0000000000 0.0000000000
-0.2763855758 0.0921285253 -0.0921285253
-0.1842570505 0.1842570505 -0.1842570505
-0.0921285253 0.2763855758 -0.2763855758
-0.0000000000 0.3685141010 -0.3685141010
0.0921285253 0.4606426263 -0.4606426263
0.1842570505 0.5527711515 -0.5527711515
-0.4606426263 -0.2763855758 0.2763855758
-0.3685141010 -0.1842570505 0.1842570505
-0.2763855758 -0.0921285253 0.0921285253
-0.1842570505 0.0000000000 0.0000000000
-0.0921285253 0.0921285253 -0.0921285253
-0.0000000000 0.1842570505 -0.1842570505
0.0921285253 0.2763855758 -0.2763855758
0.1842570505 0.3685141010 -0.3685141010
0.2763855758 0.4606426263 -0.4606426263
-0.3685141010 -0.3685141010 0.3685141010
-0.2763855758 -0.2763855758 0.2763855758
-0.1842570505 -0.1842570505 0.1842570505
-0.0921285253 -0.0921285253 0.0921285253
0.0000000000 0.0000000000 0.0000000000
0.0921285253 0.0921285253 -0.0921285253
0.1842570505 0.1842570505 -0.1842570505
0.2763855758 0.2763855758 -0.2763855758
0.3685141010 0.3685141010 -0.3685141010
-0.2763855758 -0.4606426263 0.4606426263
-0.1842570505 -0.3685141010 0.3685141010
-0.0921285253 -0.2763855758 0.2763855758
0.0000000000 -0.1842570505 0.1842570505
0.0921285253 -0.0921285253 0.0921285253
0.1842570505 -0.0000000000 0.0000000000
0.2763855758 0.0921285253 -0.0921285253
0.3685141010 0.1842570505 -0.1842570505
0.4606426263 0.2763855758 -0.2763855758
-0.1842570505 -0.5527711515 0.5527711515
-0.0921285253 -0.4606426263 0.4606426263
0.0000000000 -0.3685141010 0.3685141010
0.0921285253 -0.2763855758 0.2763855758
0.1842570505 -0.1842570505 0.1842570505
0.2763855758 -0.0921285253 0.0921285253
0.3685141010 -0.0000000000 0.0000000000
0.4606426263 0.0921285253 -0.0921285253
0.5527711515 0.1842570505 -0.1842570505
-0.0921285253 -0.6448996768 0.6448996768
0.0000000000 -0.5527711515 0.5527711515
0.0921285253 -0.4606426263 0.4606426263
0.1842570505 -0.3685141010 0.3685141010
0.2763855758 -0.2763855758 0.2763855758
0.3685141010 -0.1842570505 0.1842570505
0.4606426263 -0.0921285253 0.0921285253
0.5527711515 -0.0000000000 0.0000000000
0.6448996768 0.0921285253 -0.0921285253
0.0000000000 -0.7370282020 0.7370282020
0.0921285253 -0.6448996768 0.6448996768
0.1842570505 -0.5527711515 0.5527711515
0.2763855758 -0.4606426263 0.4606426263
0.3685141010 -0.3685141010 0.3685141010
0.4606426263 -0.2763855758 0.2763855758
0.5527711515 -0.1842570505 0.1842570505
0.6448996768 -0.0921285253 0.0921285253
0.7370282020 -0.0000000000 0.0000000000
-0.8291567273 0.0921285253 0.0921285253
-0.7370282020 0.1842570505 0.0000000000
-0.6448996768 0.2763855758 -0.0921285253
-0.5527711515 0.3685141010 -0.1842570505
-0.4606426263 0.4606426263 -0.2763855758
-0.3685141010 0.5527711515 -0.3685141010
-0.2763855758 0.6448996768 -0.4606426263
-0.1842570505 0.7370282020 -0.5527711515
-0.0921285253 0.8291567273 -0.6448996768
-0.7370282020 0.0000000000 0.1842570505
-0.6448996768 0.0921285253 0.0921285253
-0.5527711515 0.1842570505 0.0000000000
-0.4606426263 0.2763855758 -0.0921285253
-0.3685141010 0.3685141010 -0.1842570505
-0.2763855758 0.4606426263 -0.2763855758
-0.1842570505 0.5527711515 -0.3685141010
-0.0921285253 0.6448996768 -0.4606426263
-0.0000000000 0.7370282020 -0.5527711515
-0.6448996768 -0.0921285253 0.2763855758
-0.5527711515 0.0000000000 0.1842570505
-0.4606426263 0.0921285253 0.0921285253
-0.3685141010 0.1842570505 0.0000000000
-0.2763855758 0.2763855758 -0.0921285253
-0.1842570505 0.3685141010 -0.1842570505
-0.0921285253 0.4606426263 -0.2763855758
-0.0000000000 0.5527711515 -0.3685141010
0.0921285253 0.6448996768 -0.4606426263
-0.5527711515 -0.1842570505 0.3685141010
-0.4606426263 -0.0921285253 0.2763855758
-0.3685141010 -0.0000000000 0.1842570505
-0.2763855758 0.0921285253 0.0921285253
-0.1842570505 0.1842570505 0.0000000000
-0.0921285253 0.2763855758 -0.0921285253
-0.0000000000 0.3685141010 -0.1842570505
0.0921285253 0.4606426263 -0.2763855758
0.1842570505 0.5527711515 -0.3685141010
-0.4606426263 -0.2763855758 0.4606426263
-0.3685141010 -0.1842570505 0.3685141010
-0.2763855758 -0.0921285253 0.2763855758
-0.1842570505 -0.0000000000 0.1842570505
-0.0921285253 0.0921285253 0.0921285253
0.0000000000 0.1842570505 0.0000000000
0.0921285253 0.2763855758 -0.0921285253
0.1842570505 0.3685141010 -0.1842570505
0.2763855758 0.4606426263 -0.2763855758
-0.3685141010 -0.3685141010 0.5527711515
-0.2763855758 -0.2763855758 0.4606426263
-0.1842570505 -0.1842570505 0.3685141010
-0.0921285253 -0.0921285253 0.2763855758
0.0000000000 -0.0000000000 0.1842570505
0.0921285253 0.0921285253 0.0921285253
0.1842570505 0.1842570505 0.0000000000
0.2763855758 0.2763855758 -0.0921285253
0.3685141010 0.3685141010 -0.1842570505
-0.2763855758 -0.4606426263 0.6448996768
-0.1842570505 -0.3685141010 0.5527711515
-0.0921285253 -0.2763855758 0.4606426263
0.0000000000 -0.1842570505 0.3685141010
0.0921285253 -0.0921285253 0.2763855758
0.1842570505 -0.0000000000 0.1842570505
0.2763855758 0.0921285253 0.0921285253
0.3685141010 0.1842570505 0.0000000000
0.4606426263 0.2763855758 -0.0921285253
-0.1842570505 -0.5527711515 0.7370282020
-0.0921285253 -0.4606426263 0.6448996768
0.0000000000 -0.3685141010 0.5527711515
0.0921285253 -0.2763855758 0.4606426263
0.1842570505 -0.1842570505 0.3685141010
0.2763855758 -0.0921285253 0.2763855758
0.3685141010 -0.0000000000 0.1842570505
0.4606426263 0.0921285253 0.0921285253
0.5527711515 0.1842570505 0.0000000000
-0.0921285253 -0.6448996768 0.8291567273
0.0000000000 -0.5527711515 0.7370282020
0.0921285253 -0.4606426263 0.6448996768
0.1842570505 -0.3685141010 0.5527711515
0.2763855758 -0.2763855758 0.4606426263
0.3685141010 -0.1842570505 0.3685141010
0.4606426263 -0.0921285253 0.2763855758
0.5527711515 -0.0000000000 0.1842570505
0.6448996768 0.0921285253 0.0921285253
-0.9212852525 0.1842570505 0.1842570505
-0.8291567273 0.2763855758 0.0921285253
-0.7370282020 0.3685141010 0.0000000000
-0.6448996768 0.4606426263 -0.0921285253
-0.5527711515 0.5527711515 -0.1842570505
-0.4606426263 0.6448996768 -0.2763855758
-0.3685141010 0.7370282020 -0.3685141010
-0.2763855758 0.8291567273 -0.4606426263
-0.1842570505 0.9212852525 -0.5527711515
-0.8291567273 0.0921285253 0.2763855758
-0.7370282020 0.1842570505 0.1842570505
-0.6448996768 0.2763855758 0.0921285253
-0.5527711515 0.3685141010 0.0000000000
-0.4606426263 0.4606426263 -0.0921285253
-0.3685141010 0.5527711515 -0.1842570505
-0.2763855758 0.6448996768 -0.2763855758
-0.1842570505 0.7370282020 -0.3685141010
-0.0921285253 0.8291567273 -0.4606426263
-0.7370282020 -0.0000000000 0.3685141010
-0.6448996768 0.0921285253 0.2763855758
-0.5527711515 0.1842570505 0.1842570505
-0.4606426263 0.2763855758 0.0921285253
-0.3685141010 0.3685141010 0.0000000000
-0.2763855758 0.4606426263 -0.0921285253
-0.1842570505 0.5527711515 -0.1842570505
-0.0921285253 0.6448996768 -0.2763855758
-0.0000000000 0.7370282020 -0.3685141010
-0.6448996768 -0.0921285253 0.4606426263
-0.5527711515 0.0000000000 0.3685141010
-0.4606426263 0.0921285253 0.2763855758
-0.3685141010 0.1842570505 0.1842570505
-0.2763855758 0.2763855758 0.0921285253
-0.1842570505 0.3685141010 0.0000000000
-0.0921285253 0.4606426263 -0.0921285253
-0.0000000000 0.5527711515 -0.1842570505
0.0921285253 0.6448996768 -0.2763855758
-0.5527711515 -0.1842570505 0.5527711515
-0.4606426263 -0.0921285253 0.4606426263
-0.3685141010 -0.0000000000 0.3685141010
-0.2763855758 0.0921285253 0.2763855758
-0.1842570505 0.1842570505 0.1842570505
-0.0921285253 0.2763855758 0.0921285253
0.0000000000 0.3685141010 0.0000000000
0.0921285253 0.4606426263 -0.0921285253
0.1842570505 0.5527711515 -0.1842570505
-0.4606426263 -0.2763855758 0.6448996768
-0.3685141010 -0.1842570505 0.5527711515
-0.2763855758 -0.0921285253 0.4606426263
-0.1842570505 -0.0000000000 0.3685141010
-0.0921285253 0.0921285253 0.2763855758
0.0000000000 0.1842570505 0.1842570505
0.0921285253 0.2763855758 0.0921285253
0.1842570505 0.3685141010 0.0000000000
0.2763855758 0.4606426263 -0.0921285253
-0.3685141010 -0.3685141010 0.7370282020
-0.2763855758 -0.2763855758 0.6448996768
-0.1842570505 -0.1842570505 0.5527711515
-0.0921285253 -0.0921285253 0.4606426263
0.0000000000 -0.0000000000 0.3685141010
0.0921285253 0.0921285253 0.2763855758
0.1842570505 0.1842570505 0.1842570505
0.2763855758 0.2763855758 0.0921285253
0.3685141010 0.3685141010 0.0000000000
-0.2763855758 -0.4606426263 0.8291567273
-0.1842570505 -0.3685141010 0.7370282020
-0.0921285253 -0.2763855758 0.6448996768
0.0000000000 -0.1842570505 0.5527711515
0.0921285253 -0.0921285253 0.4606426263
0.1842570505 -0.0000000000 0.3685141010
0.2763855758 0.0921285253 0.2763855758
0.3685141010 0.1842570505 0.1842570505
0.4606426263 0.2763855758 0.0921285253
-0.1842570505 -0.5527711515 0.9212852525
-0.0921285253 -0.4606426263 0.8291567273
0.0000000000 -0.3685141010 0.7370282020
0.0921285253 -0.2763855758 0.6448996768
0.1842570505 -0.1842570505 0.5527711515
0.2763855758 -0.0921285253 0.4606426263
0.3685141010 -0.0000000000 0.3685141010
0.4606426263 0.0921285253 0.2763855758
0.5527711515 0.1842570505 0.1842570505
-1.0134137778 0.2763855758 0.2763855758
-0.9212852525 0.3685141010 0.1842570505
-0.8291567273 0.4606426263 0.0921285253
-0.7370282020 0.5527711515 0.0000000000
-0.6448996768 0.6448996768 -0.0921285253
-0.5527711515 0.7370282020 -0.1842570505
-0.4606426263 0.8291567273 -0.2763855758
-0.3685141010 0.9212852525 -0.3685141010
-0.2763855758 1.0134137778 -0.4606426263
-0.9212852525 0.1842570505 0.3685141010
-0.8291567273 0.2763855758 0.2763855758
-0.7370282020 0.3685141010 0.1842570505
-0.6448996768 0.4606426263 0.0921285253
-0.5527711515 0.5527711515 0.0000000000
-0.4606426263 0.6448996768 -0.0921285253
-0.3685141010 0.7370282020 -0.1842570505
-0.2763855758 0.8291567273 -0.2763855758
-0.1842570505 0.9212852525 -0.3685141010
-0.8291567273 0.0921285253 0.4606426263
-0.7370282020 0.1842570505 0.3685141010
-0.6448996768 0.2763855758 0.2763855758
-0.5527711515 0.3685141010 0.1842570505
-0.4606426263 0.4606426263 0.0921285253
-0.3685141010 0.5527711515 0.0000000000
-0.2763855758 0.6448996768 -0.0921285253
-0.1842570505 0.7370282020 -0.1842570505
-0.0921285253 0.8291567273 -0.2763855758
-0.7370282020 -0.0000000000 0.5527711515
-0.6448996768 0.0921285253 0.4606426263
-0.5527711515 0.1842570505 0.3685141010
-0.4606426263 0.2763855758 0.2763855758
-0.3685141010 0.3685141010 0.1842570505
-0.2763855758 0.4606426263 0.0921285253
-0.1842570505 0.5527711515 0.0000000000
-0.0921285253 0.6448996768 -0.0921285253
0.0000000000 0.7370282020 -0.1842570505
-0.6448996768 -0.0921285253 0.6448996768
-0.5527711515 -0.0000000000 0.5527711515
-0.4606426263 0.0921285253 0.4606426263
-0.3685141010 0.1842570505 0.3685141010
-0.2763855758 0.2763855758 0.2763855758
-0.1842570505 0.3685141010 0.1842570505
-0.0921285253 0.4606426263 0.0921285253
0.0000000000 0.5527711515 0.0000000000
0.0921285253 0.6448996768 -0.0921285253
-0.5527711515 -0.1842570505 0.7370282020
-0.4606426263 -0.0921285253 0.6448996768
-0.3685141010 -0.0000000000 0.5527711515
-0.2763855758 0.0921285253 0.4606426263
-0.1842570505 0.1842570505 0.3685141010
-0.0921285253 0.2763855758 0.2763855758
0.0000000000 0.3685141010 0.1842570505
0.0921285253 0.4606426263 0.0921285253
0.1842570505 0.5527711515 0.0000000000
-0.4606426263 -0.2763855758 0.8291567273
-0.3685141010 -0.1842570505 0.7370282020
-0.2763855758 -0.0921285253 0.6448996768
-0.1842570505 -0.0000000000 0.5527711515
-0.0921285253 0.0921285253 0.4606426263
0.0000000000 0.1842570505 0.3685141010
0.0921285253 0.2763855758 0.2763855758
0.1842570505 0.3685141010 0.1842570505
0.2763855758 0.4606426263 0.0921285253
-0.3685141010 -0.3685141010 0.9212852525
-0.2763855758 -0.2763855758 0.8291567273
-0.1842570505 -0.1842570505 0.7370282020
-0.0921285253 -0.0921285253 0.6448996768
0.0000000000 -0.0000000000 0.5527711515
0.0921285253 0.0921285253 0.4606426263
0.1842570505 0.1842570505 0.3685141010
0.2763855758 0.2763855758 0.2763855758
0.3685141010 0.3685141010 0.1842570505
-0.2763855758 -0.4606426263 1.0134137778
-0.1842570505 -0.3685141010 0.9212852525
-0.0921285253 -0.2763855758 0.8291567273
0.0000000000 -0.1842570505 0.7370282020
0.0921285253 -0.0921285253 0.6448996768
0.1842570505 -0.0000000000 0.5527711515
0.2763855758 0.0921285253 0.4606426263
0.3685141010 0.1842570505 0.3685141010
0.4606426263 0.2763855758 0.2763855758
-1.1055423031 0.3685141010 0.3685141010
-1.0134137778 0.4606426263 0.2763855758
-0.9212852525 0.5527711515 0.1842570505
-0.8291567273 0.6448996768 0.0921285253
-0.7370282020 0.7370282020 0.0000000000
-0.6448996768 0.8291567273 -0.0921285253
-0.5527711515 0.9212852525 -0.1842570505
-0.4606426263 1.0134137778 -0.2763855758
-0.3685141010 1.1055423031 -0.3685141010
-1.0134137778 0.2763855758 0.4606426263
-0.9212852525 0.3685141010 0.3685141010
-0.8291567273 0.4606426263 0.2763855758
-0.7370282020 0.5527711515 0.1842570505
-0.6448996768 0.6448996768 0.0921285253
-0.5527711515 0.7370282020 0.0000000000
-0.4606426263 0.8291567273 -0.0921285253
-0.3685141010 0.9212852525 -0.1842570505
-0.2763855758 1.0134137778 -0.2763855758
-0.9212852525 0.1842570505 0.5527711515
-0.8291567273 0.2763855758 0.4606426263
-0.7370282020 0.3685141010 0.3685141010
-0.6448996768 0.4606426263 0.2763855758
-0.5527711515 0.5527711515 0.1842570505
-0.4606426263 0.6448996768 0.0921285253
-0.3685141010 0.7370282020 0.0000000000
-0.2763855758 0.8291567273 -0.0921285253
-0.1842570505 0.9212852525 -0.1842570505
-0.8291567273 0.0921285253 0.6448996768
-0.7370282020 0.1842570505 0.5527711515
-0.6448996768 0.2763855758 0.4606426263
-0.5527711515 0.3685141010 0.3685141010
-0.4606426263 0.4606426263 0.2763855758
-0.3685141010 0.5527711515 0.1842570505
-0.2763855758 0.6448996768 0.0921285253
-0.1842570505 0.7370282020 0.0000000000
-0.0921285253 0.8291567273 -0.0921285253
-0.7370282020 -0.0000000000 0.7370282020
-0.6448996768 0.0921285253 0.6448996768
-0.5527711515 0.1842570505 0.5527711515
-0.4606426263 0.2763855758 0.4606426263
-0.3685141010 0.3685141010 0.3685141010
-0.2763855758 0.4606426263 0.2763855758
-0.1842570505 0.5527711515 0.1842570505
-0.0921285253 0.6448996768 0.0921285253
0.0000000000 0.7370282020 0.0000000000
-0.6448996768 -0.0921285253 0.8291567273
-0.5527711515 -0.0000000000 0.7370282020
-0.4606426263 0.0921285253 0.6448996768
-0.3685141010 0.1842570505 0.5527711515
-0.2763855758 0.2763855758 0.4606426263
-0.1842570505 0.3685141010 0.3685141010
-0.0921285253 0.4606426263 0.2763855758
0.0000000000 0.5527711515 0.1842570505
0.0921285253 0.6448996768 0.0921285253
-0.5527711515 -0.1842570505 0.9212852525
-0.4606426263 -0.0921285253 0.8291567273
-0.3685141010 -0.0000000000 0.7370282020
-0.2763855758 0.0921285253 0.6448996768
-0.1842570505 0.1842570505 0.5527711515
-0.0921285253 0.2763855758 0.4606426263
0.0000000000 0.3685141010 0.3685141010
0.0921285253 0.4606426263 0.2763855758
0.1842570505 0.5527711515 0.1842570505
-0.4606426263 -0.2763855758 1.0134137778
-0.3685141010 -0.1842570505 0.9212852525
-0.2763855758 -0.0921285253 0.8291567273
-0.1842570505 -0.0000000000 0.7370282020
-0.0921285253 0.0921285253 0.6448996768
0.0000000000 0.1842570505 0.5527711515
0.0921285253 0.2763855758 0.4606426263
0.1842570505 0.3685141010 0.3685141010
0.2763855758 0.4606426263 0.2763855758
-0.3685141010 -0.3685141010 1.1055423031
-0.2763855758 -0.2763855758 1.0134137778
-0.1842570505 -0.1842570505 0.9212852525
-0.0921285253 -0.0921285253 0.8291567273
0.0000000000 -0.0000000000 0.7370282020
0.0921285253 0.0921285253 0.6448996768
0.1842570505 0.1842570505 0.5527711515
0.2763855758 0.2763855758 0.4606426263
0.3685141010 0.3685141010 0.3685141010
 There are 6 alpha and 6 beta electrons
 Start computing overlap matrix
 Allocate 98724096 B from available memory: 104857463136 B
 Time for computing overlap matrix: 31.4550000000 s
 ====== Initialize compute kernels for all-electron RI-J (kpts) ====== 
 ========================================================== 
 Range-separated parameter omega        = 0.299999999999999989
 Threshold for 1e2c shellpair           = 0.000000000000010000
 Threshold for 2e2c SR integral         = 0.000000000000000001
 Threshold for 2e3c SR integral         = 0.000000000100000000
 Threshold for AFT G-space screening is = 0.000000000001000000
 The exponent cutoff for C/D classification (omega2 / 2) is  = 0.044999999999999998
 ========================================================== 
 === Post process the basis set for RI calculation (exp_cutoff = 0.044999999999999998 ) === 
nshells_b1 before uncontraction = 30
nshells_b1 after uncontraction = 30
nshells_baux before uncontraction = 28
nshells_baux after uncontraction = 28
===============================================
nbsf total   = 92
nbsf compact = 88
nbsf diffuse = 4
naux total   = 96
naux compact = 96
naux diffuse = 0
nshells_bnuc = 2

 Number of unique atoms is 2
 Unique atom #0 (li) has 11 shells.
 Unique atom #1 (f) has 17 shells.

Shell 0 to 10 belongs to atom li
Shell 11 to 27 belongs to atom f

 Number of unique atoms is 2
 Unique atom #0 (li) has 2 shells.
 Unique atom #1 (f) has 0 shells.

Shell 0 to 1 belongs to atom li

 Number of unique atom is 2
 Unique atom #0 (li) has 13 auxiliary shells.
 Unique atom #1 (f) has 15 auxiliary shells.

Auxiliary Shell 0 to 12 belongs to atom li
Auxiliary Shell 13 to 27 belongs to atom f

================= Automatically determine grid size for reciprocal space summation =================
 Range-separated parameter = 0.30000000000000 and G-space screening threshold = 0.00000000000100
The number of grid points along each axis dimension is (3, 3, 3)
Total number of grid points = 343

Use nonortho shellpair for diffuse density
======== Initializing relevant kernel for RIJ (DD type) ========
There are 3 shellpairs in the reference unit cell
There are 26589 images and we expect to have 79767 in total
There are 13095 shellpairs in the lattice sum after screening
======== Initializing relevant kernel for RIJ (CD type) ========
There are 56 shellpairs in the reference unit cell
There are 16651 images and we expect to have 932456 in total
There are 118476 shellpairs in the lattice sum after screening
****** AFT -> SR ******
Maximum bra distance cutoff is 42.000000000000
Maximum bra ket distance cutoff is 36.979730101834
Maximum bra ket screening distance is 32.906250000000
Number of auxiliary image is 4797
There are 56 shellpairs in the reference unit cell
There are 4797 images and we expect to have 268632 in total
There are 118476 shellpairs in the lattice sum after screening
Available memory per thread for 2e3c calculation is 3.273710595000Gb
Finish initializing 2e3c SR with the lattice sum!
=================================================
======== Initializing relevant kernel for RIJ (CC type) ========
There are 403 shellpairs in the reference unit cell
There are 8175 images and we expect to have 3294525 in total
There are 69291 shellpairs in the lattice sum after screening
****** AFT -> SR ******
Maximum bra distance cutoff is 34.000000000000
Maximum bra ket distance cutoff is 40.772076789667
Maximum bra ket screening distance is 30.437500000000
Number of auxiliary image is 4389
There are 403 shellpairs in the reference unit cell
There are 2731 images and we expect to have 1100593 in total
There are 69291 shellpairs in the lattice sum after screening
Available memory per thread for 2e3c calculation is 3.273710595000Gb
Finish initializing 2e3c SR with the lattice sum!
=================================================
======== Initializing the SR component for Vnuc (CD type) ========
Maximum bra distance cutoff is 42.000000000000
Maximum bra ket distance cutoff is 30.634253998064
Maximum bra ket screening distance is 26.529449973802
Number of auxiliary image is 4797
There are 56 shellpairs in the reference unit cell
There are 4797 images and we expect to have 268632 in total
There are 118476 shellpairs in the lattice sum after screening
Available memory per thread for 2e3c calculation is 3.273710595000Gb
Finish initializing 2e3c SR with the lattice sum!
=================================================
======== Initialize the SR component for Vnuc (CC type) ========
Maximum bra distance cutoff is 34.000000000000
Maximum bra ket distance cutoff is 34.296485010202
Maximum bra ket screening distance is 23.902388373585
Number of auxiliary image is 2731
There are 403 shellpairs in the reference unit cell
There are 2731 images and we expect to have 1100593 in total
There are 69291 shellpairs in the lattice sum after screening
Available memory per thread for 2e3c calculation is 3.273710595000Gb
Finish initializing 2e3c SR with the lattice sum!
=================================================
 Aufbau occupation scheme, occupation determined by eigenvalue
 == 0-th k-point nmo = 83 (-0.36851,-0.36851,-0.36851) ==
 == 1-th k-point nmo = 83 (-0.27639,-0.27639,-0.46064) ==
 == 2-th k-point nmo = 82 (-0.18426,-0.18426,-0.55277) ==
 == 3-th k-point nmo = 81 (-0.09213,-0.09213,-0.64490) ==
 == 4-th k-point nmo = 81 (-0.00000,0.00000,-0.73703) ==
 == 5-th k-point nmo = 81 (0.09213,0.09213,-0.82916) ==
 == 6-th k-point nmo = 83 (0.18426,0.18426,-0.92129) ==
 == 7-th k-point nmo = 83 (0.27639,0.27639,-1.01341) ==
 == 8-th k-point nmo = 83 (0.36851,0.36851,-1.10554) ==
 == 9-th k-point nmo = 83 (-0.27639,-0.46064,-0.27639) ==
 == 10-th k-point nmo = 83 (-0.18426,-0.36851,-0.36851) ==
 == 11-th k-point nmo = 82 (-0.09213,-0.27639,-0.46064) ==
 == 12-th k-point nmo = 81 (-0.00000,-0.18426,-0.55277) ==
 == 13-th k-point nmo = 81 (0.09213,-0.09213,-0.64490) ==
 == 14-th k-point nmo = 81 (0.18426,0.00000,-0.73703) ==
 == 15-th k-point nmo = 82 (0.27639,0.09213,-0.82916) ==
 == 16-th k-point nmo = 82 (0.36851,0.18426,-0.92129) ==
 == 17-th k-point nmo = 82 (0.46064,0.27639,-1.01341) ==
 == 18-th k-point nmo = 82 (-0.18426,-0.55277,-0.18426) ==
 == 19-th k-point nmo = 82 (-0.09213,-0.46064,-0.27639) ==
 == 20-th k-point nmo = 83 (-0.00000,-0.36851,-0.36851) ==
 == 21-th k-point nmo = 82 (0.09213,-0.27639,-0.46064) ==
 == 22-th k-point nmo = 82 (0.18426,-0.18426,-0.55277) ==
 == 23-th k-point nmo = 82 (0.27639,-0.09213,-0.64490) ==
 == 24-th k-point nmo = 82 (0.36851,0.00000,-0.73703) ==
 == 25-th k-point nmo = 82 (0.46064,0.09213,-0.82916) ==
 == 26-th k-point nmo = 82 (0.55277,0.18426,-0.92129) ==
 == 27-th k-point nmo = 81 (-0.09213,-0.64490,-0.09213) ==
 == 28-th k-point nmo = 81 (-0.00000,-0.55277,-0.18426) ==
 == 29-th k-point nmo = 82 (0.09213,-0.46064,-0.27639) ==
 == 30-th k-point nmo = 83 (0.18426,-0.36851,-0.36851) ==
 == 31-th k-point nmo = 83 (0.27639,-0.27639,-0.46064) ==
 == 32-th k-point nmo = 82 (0.36851,-0.18426,-0.55277) ==
 == 33-th k-point nmo = 82 (0.46064,-0.09213,-0.64490) ==
 == 34-th k-point nmo = 82 (0.55277,0.00000,-0.73703) ==
 == 35-th k-point nmo = 81 (0.64490,0.09213,-0.82916) ==
 == 36-th k-point nmo = 81 (0.00000,-0.73703,-0.00000) ==
 == 37-th k-point nmo = 81 (0.09213,-0.64490,-0.09213) ==
 == 38-th k-point nmo = 82 (0.18426,-0.55277,-0.18426) ==
 == 39-th k-point nmo = 83 (0.27639,-0.46064,-0.27639) ==
 == 40-th k-point nmo = 83 (0.36851,-0.36851,-0.36851) ==
 == 41-th k-point nmo = 83 (0.46064,-0.27639,-0.46064) ==
 == 42-th k-point nmo = 83 (0.55277,-0.18426,-0.55277) ==
 == 43-th k-point nmo = 83 (0.64490,-0.09213,-0.64490) ==
 == 44-th k-point nmo = 81 (0.73703,0.00000,-0.73703) ==
 == 45-th k-point nmo = 81 (0.09213,-0.82916,0.09213) ==
 == 46-th k-point nmo = 81 (0.18426,-0.73703,-0.00000) ==
 == 47-th k-point nmo = 82 (0.27639,-0.64490,-0.09213) ==
 == 48-th k-point nmo = 82 (0.36851,-0.55277,-0.18426) ==
 == 49-th k-point nmo = 83 (0.46064,-0.46064,-0.27639) ==
 == 50-th k-point nmo = 83 (0.55277,-0.36851,-0.36851) ==
 == 51-th k-point nmo = 82 (0.64490,-0.27639,-0.46064) ==
 == 52-th k-point nmo = 82 (0.73703,-0.18426,-0.55277) ==
 == 53-th k-point nmo = 81 (0.82916,-0.09213,-0.64490) ==
 == 54-th k-point nmo = 83 (0.18426,-0.92129,0.18426) ==
 == 55-th k-point nmo = 82 (0.27639,-0.82916,0.09213) ==
 == 56-th k-point nmo = 82 (0.36851,-0.73703,-0.00000) ==
 == 57-th k-point nmo = 82 (0.46064,-0.64490,-0.09213) ==
 == 58-th k-point nmo = 83 (0.55277,-0.55277,-0.18426) ==
 == 59-th k-point nmo = 82 (0.64490,-0.46064,-0.27639) ==
 == 60-th k-point nmo = 83 (0.73703,-0.36851,-0.36851) ==
 == 61-th k-point nmo = 82 (0.82916,-0.27639,-0.46064) ==
 == 62-th k-point nmo = 82 (0.92129,-0.18426,-0.55277) ==
 == 63-th k-point nmo = 83 (0.27639,-1.01341,0.27639) ==
 == 64-th k-point nmo = 82 (0.36851,-0.92129,0.18426) ==
 == 65-th k-point nmo = 82 (0.46064,-0.82916,0.09213) ==
 == 66-th k-point nmo = 82 (0.55277,-0.73703,-0.00000) ==
 == 67-th k-point nmo = 83 (0.64490,-0.64490,-0.09213) ==
 == 68-th k-point nmo = 82 (0.73703,-0.55277,-0.18426) ==
 == 69-th k-point nmo = 82 (0.82916,-0.46064,-0.27639) ==
 == 70-th k-point nmo = 83 (0.92129,-0.36851,-0.36851) ==
 == 71-th k-point nmo = 82 (1.01341,-0.27639,-0.46064) ==
 == 72-th k-point nmo = 83 (0.36851,-1.10554,0.36851) ==
 == 73-th k-point nmo = 82 (0.46064,-1.01341,0.27639) ==
 == 74-th k-point nmo = 82 (0.55277,-0.92129,0.18426) ==
 == 75-th k-point nmo = 81 (0.64490,-0.82916,0.09213) ==
 == 76-th k-point nmo = 81 (0.73703,-0.73703,-0.00000) ==
 == 77-th k-point nmo = 81 (0.82916,-0.64490,-0.09213) ==
 == 78-th k-point nmo = 82 (0.92129,-0.55277,-0.18426) ==
 == 79-th k-point nmo = 82 (1.01341,-0.46064,-0.27639) ==
 == 80-th k-point nmo = 83 (1.10554,-0.36851,-0.36851) ==
 == 81-th k-point nmo = 83 (-0.46064,-0.27639,-0.27639) ==
 == 82-th k-point nmo = 83 (-0.36851,-0.18426,-0.36851) ==
 == 83-th k-point nmo = 82 (-0.27639,-0.09213,-0.46064) ==
 == 84-th k-point nmo = 81 (-0.18426,0.00000,-0.55277) ==
 == 85-th k-point nmo = 81 (-0.09213,0.09213,-0.64490) ==
 == 86-th k-point nmo = 81 (-0.00000,0.18426,-0.73703) ==
 == 87-th k-point nmo = 82 (0.09213,0.27639,-0.82916) ==
 == 88-th k-point nmo = 82 (0.18426,0.36851,-0.92129) ==
 == 89-th k-point nmo = 82 (0.27639,0.46064,-1.01341) ==
 == 90-th k-point nmo = 83 (-0.36851,-0.36851,-0.18426) ==
 == 91-th k-point nmo = 83 (-0.27639,-0.27639,-0.27639) ==
 == 92-th k-point nmo = 82 (-0.18426,-0.18426,-0.36851) ==
 == 93-th k-point nmo = 82 (-0.09213,-0.09213,-0.46064) ==
 == 94-th k-point nmo = 81 (-0.00000,0.00000,-0.55277) ==
 == 95-th k-point nmo = 81 (0.09213,0.09213,-0.64490) ==
 == 96-th k-point nmo = 83 (0.18426,0.18426,-0.73703) ==
 == 97-th k-point nmo = 83 (0.27639,0.27639,-0.82916) ==
 == 98-th k-point nmo = 83 (0.36851,0.36851,-0.92129) ==
 == 99-th k-point nmo = 82 (-0.27639,-0.46064,-0.09213) ==
 == 100-th k-point nmo = 82 (-0.18426,-0.36851,-0.18426) ==
 == 101-th k-point nmo = 81 (-0.09213,-0.27639,-0.27639) ==
 == 102-th k-point nmo = 82 (-0.00000,-0.18426,-0.36851) ==
 == 103-th k-point nmo = 82 (0.09213,-0.09213,-0.46064) ==
 == 104-th k-point nmo = 81 (0.18426,0.00000,-0.55277) ==
 == 105-th k-point nmo = 82 (0.27639,0.09213,-0.64490) ==
 == 106-th k-point nmo = 82 (0.36851,0.18426,-0.73703) ==
 == 107-th k-point nmo = 82 (0.46064,0.27639,-0.82916) ==
 == 108-th k-point nmo = 81 (-0.18426,-0.55277,-0.00000) ==
 == 109-th k-point nmo = 82 (-0.09213,-0.46064,-0.09213) ==
 == 110-th k-point nmo = 82 (-0.00000,-0.36851,-0.18426) ==
 == 111-th k-point nmo = 81 (0.09213,-0.27639,-0.27639) ==
 == 112-th k-point nmo = 82 (0.18426,-0.18426,-0.36851) ==
 == 113-th k-point nmo = 82 (0.27639,-0.09213,-0.46064) ==
 == 114-th k-point nmo = 82 (0.36851,0.00000,-0.55277) ==
 == 115-th k-point nmo = 82 (0.46064,0.09213,-0.64490) ==
 == 116-th k-point nmo = 82 (0.55277,0.18426,-0.73703) ==
 == 117-th k-point nmo = 81 (-0.09213,-0.64490,0.09213) ==
 == 118-th k-point nmo = 81 (-0.00000,-0.55277,-0.00000) ==
 == 119-th k-point nmo = 82 (0.09213,-0.46064,-0.09213) ==
 == 120-th k-point nmo = 82 (0.18426,-0.36851,-0.18426) ==
 == 121-th k-point nmo = 83 (0.27639,-0.27639,-0.27639) ==
 == 122-th k-point nmo = 83 (0.36851,-0.18426,-0.36851) ==
 == 123-th k-point nmo = 83 (0.46064,-0.09213,-0.46064) ==
 == 124-th k-point nmo = 83 (0.55277,0.00000,-0.55277) ==
 == 125-th k-point nmo = 83 (0.64490,0.09213,-0.64490) ==
 == 126-th k-point nmo = 81 (0.00000,-0.73703,0.18426) ==
 == 127-th k-point nmo = 81 (0.09213,-0.64490,0.09213) ==
 == 128-th k-point nmo = 81 (0.18426,-0.55277,-0.00000) ==
 == 129-th k-point nmo = 82 (0.27639,-0.46064,-0.09213) ==
 == 130-th k-point nmo = 83 (0.36851,-0.36851,-0.18426) ==
 == 131-th k-point nmo = 83 (0.46064,-0.27639,-0.27639) ==
 == 132-th k-point nmo = 82 (0.55277,-0.18426,-0.36851) ==
 == 133-th k-point nmo = 82 (0.64490,-0.09213,-0.46064) ==
 == 134-th k-point nmo = 82 (0.73703,0.00000,-0.55277) ==
 == 135-th k-point nmo = 82 (0.09213,-0.82916,0.27639) ==
 == 136-th k-point nmo = 83 (0.18426,-0.73703,0.18426) ==
 == 137-th k-point nmo = 82 (0.27639,-0.64490,0.09213) ==
 == 138-th k-point nmo = 82 (0.36851,-0.55277,-0.00000) ==
 == 139-th k-point nmo = 83 (0.46064,-0.46064,-0.09213) ==
 == 140-th k-point nmo = 82 (0.55277,-0.36851,-0.18426) ==
 == 141-th k-point nmo = 83 (0.64490,-0.27639,-0.27639) ==
 == 142-th k-point nmo = 82 (0.73703,-0.18426,-0.36851) ==
 == 143-th k-point nmo = 82 (0.82916,-0.09213,-0.46064) ==
 == 144-th k-point nmo = 82 (0.18426,-0.92129,0.36851) ==
 == 145-th k-point nmo = 83 (0.27639,-0.82916,0.27639) ==
 == 146-th k-point nmo = 82 (0.36851,-0.73703,0.18426) ==
 == 147-th k-point nmo = 82 (0.46064,-0.64490,0.09213) ==
 == 148-th k-point nmo = 83 (0.55277,-0.55277,-0.00000) ==
 == 149-th k-point nmo = 82 (0.64490,-0.46064,-0.09213) ==
 == 150-th k-point nmo = 82 (0.73703,-0.36851,-0.18426) ==
 == 151-th k-point nmo = 83 (0.82916,-0.27639,-0.27639) ==
 == 152-th k-point nmo = 82 (0.92129,-0.18426,-0.36851) ==
 == 153-th k-point nmo = 82 (0.27639,-1.01341,0.46064) ==
 == 154-th k-point nmo = 83 (0.36851,-0.92129,0.36851) ==
 == 155-th k-point nmo = 82 (0.46064,-0.82916,0.27639) ==
 == 156-th k-point nmo = 82 (0.55277,-0.73703,0.18426) ==
 == 157-th k-point nmo = 83 (0.64490,-0.64490,0.09213) ==
 == 158-th k-point nmo = 82 (0.73703,-0.55277,-0.00000) ==
 == 159-th k-point nmo = 82 (0.82916,-0.46064,-0.09213) ==
 == 160-th k-point nmo = 82 (0.92129,-0.36851,-0.18426) ==
 == 161-th k-point nmo = 83 (1.01341,-0.27639,-0.27639) ==
 == 162-th k-point nmo = 82 (-0.55277,-0.18426,-0.18426) ==
 == 163-th k-point nmo = 82 (-0.46064,-0.09213,-0.27639) ==
 == 164-th k-point nmo = 83 (-0.36851,0.00000,-0.36851) ==
 == 165-th k-point nmo = 82 (-0.27639,0.09213,-0.46064) ==
 == 166-th k-point nmo = 82 (-0.18426,0.18426,-0.55277) ==
 == 167-th k-point nmo = 82 (-0.09213,0.27639,-0.64490) ==
 == 168-th k-point nmo = 82 (-0.00000,0.36851,-0.73703) ==
 == 169-th k-point nmo = 82 (0.09213,0.46064,-0.82916) ==
 == 170-th k-point nmo = 82 (0.18426,0.55277,-0.92129) ==
 == 171-th k-point nmo = 82 (-0.46064,-0.27639,-0.09213) ==
 == 172-th k-point nmo = 82 (-0.36851,-0.18426,-0.18426) ==
 == 173-th k-point nmo = 81 (-0.27639,-0.09213,-0.27639) ==
 == 174-th k-point nmo = 82 (-0.18426,0.00000,-0.36851) ==
 == 175-th k-point nmo = 82 (-0.09213,0.09213,-0.46064) ==
 == 176-th k-point nmo = 81 (-0.00000,0.18426,-0.55277) ==
 == 177-th k-point nmo = 82 (0.09213,0.27639,-0.64490) ==
 == 178-th k-point nmo = 82 (0.18426,0.36851,-0.73703) ==
 == 179-th k-point nmo = 82 (0.27639,0.46064,-0.82916) ==
 == 180-th k-point nmo = 83 (-0.36851,-0.36851,-0.00000) ==
 == 181-th k-point nmo = 81 (-0.27639,-0.27639,-0.09213) ==
 == 182-th k-point nmo = 83 (-0.18426,-0.18426,-0.18426) ==
 == 183-th k-point nmo = 81 (-0.09213,-0.09213,-0.27639) ==
 == 184-th k-point nmo = 81 (-0.00000,0.00000,-0.36851) ==
 == 185-th k-point nmo = 82 (0.09213,0.09213,-0.46064) ==
 == 186-th k-point nmo = 82 (0.18426,0.18426,-0.55277) ==
 == 187-th k-point nmo = 83 (0.27639,0.27639,-0.64490) ==
 == 188-th k-point nmo = 83 (0.36851,0.36851,-0.73703) ==
 == 189-th k-point nmo = 82 (-0.27639,-0.46064,0.09213) ==
 == 190-th k-point nmo = 82 (-0.18426,-0.36851,-0.00000) ==
 == 191-th k-point nmo = 81 (-0.09213,-0.27639,-0.09213) ==
 == 192-th k-point nmo = 81 (-0.00000,-0.18426,-0.18426) ==
 == 193-th k-point nmo = 81 (0.09213,-0.09213,-0.27639) ==
 == 194-th k-point nmo = 82 (0.18426,0.00000,-0.36851) ==
 == 195-th k-point nmo = 82 (0.27639,0.09213,-0.46064) ==
 == 196-th k-point nmo = 82 (0.36851,0.18426,-0.55277) ==
 == 197-th k-point nmo = 82 (0.46064,0.27639,-0.64490) ==
 == 198-th k-point nmo = 82 (-0.18426,-0.55277,0.18426) ==
 == 199-th k-point nmo = 82 (-0.09213,-0.46064,0.09213) ==
 == 200-th k-point nmo = 81 (0.00000,-0.36851,-0.00000) ==
 == 201-th k-point nmo = 81 (0.09213,-0.27639,-0.09213) ==
 == 202-th k-point nmo = 83 (0.18426,-0.18426,-0.18426) ==
 == 203-th k-point nmo = 81 (0.27639,-0.09213,-0.27639) ==
 == 204-th k-point nmo = 83 (0.36851,0.00000,-0.36851) ==
 == 205-th k-point nmo = 83 (0.46064,0.09213,-0.46064) ==
 == 206-th k-point nmo = 83 (0.55277,0.18426,-0.55277) ==
 == 207-th k-point nmo = 82 (-0.09213,-0.64490,0.27639) ==
 == 208-th k-point nmo = 81 (0.00000,-0.55277,0.18426) ==
 == 209-th k-point nmo = 82 (0.09213,-0.46064,0.09213) ==
 == 210-th k-point nmo = 82 (0.18426,-0.36851,-0.00000) ==
 == 211-th k-point nmo = 81 (0.27639,-0.27639,-0.09213) ==
 == 212-th k-point nmo = 82 (0.36851,-0.18426,-0.18426) ==
 == 213-th k-point nmo = 82 (0.46064,-0.09213,-0.27639) ==
 == 214-th k-point nmo = 82 (0.55277,0.00000,-0.36851) ==
 == 215-th k-point nmo = 82 (0.64490,0.09213,-0.46064) ==
 == 216-th k-point nmo = 82 (0.00000,-0.73703,0.36851) ==
 == 217-th k-point nmo = 82 (0.09213,-0.64490,0.27639) ==
 == 218-th k-point nmo = 82 (0.18426,-0.55277,0.18426) ==
 == 219-th k-point nmo = 82 (0.27639,-0.46064,0.09213) ==
 == 220-th k-point nmo = 83 (0.36851,-0.36851,-0.00000) ==
 == 221-th k-point nmo = 82 (0.46064,-0.27639,-0.09213) ==
 == 222-th k-point nmo = 82 (0.55277,-0.18426,-0.18426) ==
 == 223-th k-point nmo = 82 (0.64490,-0.09213,-0.27639) ==
 == 224-th k-point nmo = 82 (0.73703,0.00000,-0.36851) ==
 == 225-th k-point nmo = 82 (0.09213,-0.82916,0.46064) ==
 == 226-th k-point nmo = 82 (0.18426,-0.73703,0.36851) ==
 == 227-th k-point nmo = 83 (0.27639,-0.64490,0.27639) ==
 == 228-th k-point nmo = 82 (0.36851,-0.55277,0.18426) ==
 == 229-th k-point nmo = 83 (0.46064,-0.46064,0.09213) ==
 == 230-th k-point nmo = 82 (0.55277,-0.36851,-0.00000) ==
 == 231-th k-point nmo = 82 (0.64490,-0.27639,-0.09213) ==
 == 232-th k-point nmo = 83 (0.73703,-0.18426,-0.18426) ==
 == 233-th k-point nmo = 82 (0.82916,-0.09213,-0.27639) ==
 == 234-th k-point nmo = 82 (0.18426,-0.92129,0.55277) ==
 == 235-th k-point nmo = 82 (0.27639,-0.82916,0.46064) ==
 == 236-th k-point nmo = 83 (0.36851,-0.73703,0.36851) ==
 == 237-th k-point nmo = 82 (0.46064,-0.64490,0.27639) ==
 == 238-th k-point nmo = 83 (0.55277,-0.55277,0.18426) ==
 == 239-th k-point nmo = 82 (0.64490,-0.46064,0.09213) ==
 == 240-th k-point nmo = 82 (0.73703,-0.36851,-0.00000) ==
 == 241-th k-point nmo = 82 (0.82916,-0.27639,-0.09213) ==
 == 242-th k-point nmo = 83 (0.92129,-0.18426,-0.18426) ==
 == 243-th k-point nmo = 81 (-0.64490,-0.09213,-0.09213) ==
 == 244-th k-point nmo = 81 (-0.55277,0.00000,-0.18426) ==
 == 245-th k-point nmo = 82 (-0.46064,0.09213,-0.27639) ==
 == 246-th k-point nmo = 83 (-0.36851,0.18426,-0.36851) ==
 == 247-th k-point nmo = 83 (-0.27639,0.27639,-0.46064) ==
 == 248-th k-point nmo = 82 (-0.18426,0.36851,-0.55277) ==
 == 249-th k-point nmo = 82 (-0.09213,0.46064,-0.64490) ==
 == 250-th k-point nmo = 82 (-0.00000,0.55277,-0.73703) ==
 == 251-th k-point nmo = 81 (0.09213,0.64490,-0.82916) ==
 == 252-th k-point nmo = 81 (-0.55277,-0.18426,-0.00000) ==
 == 253-th k-point nmo = 82 (-0.46064,-0.09213,-0.09213) ==
 == 254-th k-point nmo = 82 (-0.36851,0.00000,-0.18426) ==
 == 255-th k-point nmo = 81 (-0.27639,0.09213,-0.27639) ==
 == 256-th k-point nmo = 82 (-0.18426,0.18426,-0.36851) ==
 == 257-th k-point nmo = 82 (-0.09213,0.27639,-0.46064) ==
 == 258-th k-point nmo = 82 (-0.00000,0.36851,-0.55277) ==
 == 259-th k-point nmo = 82 (0.09213,0.46064,-0.64490) ==
 == 260-th k-point nmo = 82 (0.18426,0.55277,-0.73703) ==
 == 261-th k-point nmo = 82 (-0.46064,-0.27639,0.09213) ==
 == 262-th k-point nmo = 82 (-0.36851,-0.18426,-0.00000) ==
 == 263-th k-point nmo = 81 (-0.27639,-0.09213,-0.09213) ==
 == 264-th k-point nmo = 81 (-0.18426,0.00000,-0.18426) ==
 == 265-th k-point nmo = 81 (-0.09213,0.09213,-0.27639) ==
 == 266-th k-point nmo = 82 (-0.00000,0.18426,-0.36851) ==
 == 267-th k-point nmo = 82 (0.09213,0.27639,-0.46064) ==
 == 268-th k-point nmo = 82 (0.18426,0.36851,-0.55277) ==
 == 269-th k-point nmo = 82 (0.27639,0.46064,-0.64490) ==
 == 270-th k-point nmo = 83 (-0.36851,-0.36851,0.18426) ==
 == 271-th k-point nmo = 81 (-0.27639,-0.27639,0.09213) ==
 == 272-th k-point nmo = 81 (-0.18426,-0.18426,-0.00000) ==
 == 273-th k-point nmo = 82 (-0.09213,-0.09213,-0.09213) ==
 == 274-th k-point nmo = 81 (-0.00000,0.00000,-0.18426) ==
 == 275-th k-point nmo = 81 (0.09213,0.09213,-0.27639) ==
 == 276-th k-point nmo = 82 (0.18426,0.18426,-0.36851) ==
 == 277-th k-point nmo = 83 (0.27639,0.27639,-0.46064) ==
 == 278-th k-point nmo = 83 (0.36851,0.36851,-0.55277) ==
 == 279-th k-point nmo = 83 (-0.27639,-0.46064,0.27639) ==
 == 280-th k-point nmo = 82 (-0.18426,-0.36851,0.18426) ==
 == 281-th k-point nmo = 81 (-0.09213,-0.27639,0.09213) ==
 == 282-th k-point nmo = 81 (0.00000,-0.18426,-0.00000) ==
 == 283-th k-point nmo = 82 (0.09213,-0.09213,-0.09213) ==
 == 284-th k-point nmo = 81 (0.18426,0.00000,-0.18426) ==
 == 285-th k-point nmo = 81 (0.27639,0.09213,-0.27639) ==
 == 286-th k-point nmo = 83 (0.36851,0.18426,-0.36851) ==
 == 287-th k-point nmo = 83 (0.46064,0.27639,-0.46064) ==
 == 288-th k-point nmo = 82 (-0.18426,-0.55277,0.36851) ==
 == 289-th k-point nmo = 82 (-0.09213,-0.46064,0.27639) ==
 == 290-th k-point nmo = 82 (0.00000,-0.36851,0.18426) ==
 == 291-th k-point nmo = 81 (0.09213,-0.27639,0.09213) ==
 == 292-th k-point nmo = 81 (0.18426,-0.18426,-0.00000) ==
 == 293-th k-point nmo = 81 (0.27639,-0.09213,-0.09213) ==
 == 294-th k-point nmo = 82 (0.36851,0.00000,-0.18426) ==
 == 295-th k-point nmo = 82 (0.46064,0.09213,-0.27639) ==
 == 296-th k-point nmo = 82 (0.55277,0.18426,-0.36851) ==
 == 297-th k-point nmo = 82 (-0.09213,-0.64490,0.46064) ==
 == 298-th k-point nmo = 82 (0.00000,-0.55277,0.36851) ==
 == 299-th k-point nmo = 82 (0.09213,-0.46064,0.27639) ==
 == 300-th k-point nmo = 82 (0.18426,-0.36851,0.18426) ==
 == 301-th k-point nmo = 81 (0.27639,-0.27639,0.09213) ==
 == 302-th k-point nmo = 82 (0.36851,-0.18426,-0.00000) ==
 == 303-th k-point nmo = 82 (0.46064,-0.09213,-0.09213) ==
 == 304-th k-point nmo = 81 (0.55277,0.00000,-0.18426) ==
 == 305-th k-point nmo = 82 (0.64490,0.09213,-0.27639) ==
 == 306-th k-point nmo = 82 (0.00000,-0.73703,0.55277) ==
 == 307-th k-point nmo = 82 (0.09213,-0.64490,0.46064) ==
 == 308-th k-point nmo = 82 (0.18426,-0.55277,0.36851) ==
 == 309-th k-point nmo = 83 (0.27639,-0.46064,0.27639) ==
 == 310-th k-point nmo = 83 (0.36851,-0.36851,0.18426) ==
 == 311-th k-point nmo = 82 (0.46064,-0.27639,0.09213) ==
 == 312-th k-point nmo = 81 (0.55277,-0.18426,-0.00000) ==
 == 313-th k-point nmo = 81 (0.64490,-0.09213,-0.09213) ==
 == 314-th k-point nmo = 81 (0.73703,0.00000,-0.18426) ==
 == 315-th k-point nmo = 81 (0.09213,-0.82916,0.64490) ==
 == 316-th k-point nmo = 82 (0.18426,-0.73703,0.55277) ==
 == 317-th k-point nmo = 82 (0.27639,-0.64490,0.46064) ==
 == 318-th k-point nmo = 83 (0.36851,-0.55277,0.36851) ==
 == 319-th k-point nmo = 83 (0.46064,-0.46064,0.27639) ==
 == 320-th k-point nmo = 82 (0.55277,-0.36851,0.18426) ==
 == 321-th k-point nmo = 82 (0.64490,-0.27639,0.09213) ==
 == 322-th k-point nmo = 81 (0.73703,-0.18426,-0.00000) ==
 == 323-th k-point nmo = 81 (0.82916,-0.09213,-0.09213) ==
 == 324-th k-point nmo = 81 (-0.73703,0.00000,0.00000) ==
 == 325-th k-point nmo = 81 (-0.64490,0.09213,-0.09213) ==
 == 326-th k-point nmo = 82 (-0.55277,0.18426,-0.18426) ==
 == 327-th k-point nmo = 83 (-0.46064,0.27639,-0.27639) ==
 == 328-th k-point nmo = 83 (-0.36851,0.36851,-0.36851) ==
 == 329-th k-point nmo = 83 (-0.27639,0.46064,-0.46064) ==
 == 330-th k-point nmo = 83 (-0.18426,0.55277,-0.55277) ==
 == 331-th k-point nmo = 83 (-0.09213,0.64490,-0.64490) ==
 == 332-th k-point nmo = 81 (-0.00000,0.73703,-0.73703) ==
 == 333-th k-point nmo = 81 (-0.64490,-0.09213,0.09213) ==
 == 334-th k-point nmo = 81 (-0.55277,0.00000,0.00000) ==
 == 335-th k-point nmo = 82 (-0.46064,0.09213,-0.09213) ==
 == 336-th k-point nmo = 82 (-0.36851,0.18426,-0.18426) ==
 == 337-th k-point nmo = 83 (-0.27639,0.27639,-0.27639) ==
 == 338-th k-point nmo = 83 (-0.18426,0.36851,-0.36851) ==
 == 339-th k-point nmo = 83 (-0.09213,0.46064,-0.46064) ==
 == 340-th k-point nmo = 83 (-0.00000,0.55277,-0.55277) ==
 == 341-th k-point nmo = 83 (0.09213,0.64490,-0.64490) ==
 == 342-th k-point nmo = 82 (-0.55277,-0.18426,0.18426) ==
 == 343-th k-point nmo = 82 (-0.46064,-0.09213,0.09213) ==
 == 344-th k-point nmo = 81 (-0.36851,0.00000,0.00000) ==
 == 345-th k-point nmo = 81 (-0.27639,0.09213,-0.09213) ==
 == 346-th k-point nmo = 83 (-0.18426,0.18426,-0.18426) ==
 == 347-th k-point nmo = 81 (-0.09213,0.27639,-0.27639) ==
 == 348-th k-point nmo = 83 (-0.00000,0.36851,-0.36851) ==
 == 349-th k-point nmo = 83 (0.09213,0.46064,-0.46064) ==
 == 350-th k-point nmo = 83 (0.18426,0.55277,-0.55277) ==
 == 351-th k-point nmo = 83 (-0.46064,-0.27639,0.27639) ==
 == 352-th k-point nmo = 82 (-0.36851,-0.18426,0.18426) ==
 == 353-th k-point nmo = 81 (-0.27639,-0.09213,0.09213) ==
 == 354-th k-point nmo = 81 (-0.18426,0.00000,0.00000) ==
 == 355-th k-point nmo = 82 (-0.09213,0.09213,-0.09213) ==
 == 356-th k-point nmo = 81 (-0.00000,0.18426,-0.18426) ==
 == 357-th k-point nmo = 81 (0.09213,0.27639,-0.27639) ==
 == 358-th k-point nmo = 83 (0.18426,0.36851,-0.36851) ==
 == 359-th k-point nmo = 83 (0.27639,0.46064,-0.46064) ==
 == 360-th k-point nmo = 83 (-0.36851,-0.36851,0.36851) ==
 == 361-th k-point nmo = 83 (-0.27639,-0.27639,0.27639) ==
 == 362-th k-point nmo = 83 (-0.18426,-0.18426,0.18426) ==
 == 363-th k-point nmo = 82 (-0.09213,-0.09213,0.09213) ==
 == 364-th k-point nmo = 83 (0.00000,0.00000,0.00000) ==
 == 365-th k-point nmo = 82 (0.09213,0.09213,-0.09213) ==
 == 366-th k-point nmo = 83 (0.18426,0.18426,-0.18426) ==
 == 367-th k-point nmo = 83 (0.27639,0.27639,-0.27639) ==
 == 368-th k-point nmo = 83 (0.36851,0.36851,-0.36851) ==
 == 369-th k-point nmo = 83 (-0.27639,-0.46064,0.46064) ==
 == 370-th k-point nmo = 83 (-0.18426,-0.36851,0.36851) ==
 == 371-th k-point nmo = 81 (-0.09213,-0.27639,0.27639) ==
 == 372-th k-point nmo = 81 (0.00000,-0.18426,0.18426) ==
 == 373-th k-point nmo = 82 (0.09213,-0.09213,0.09213) ==
 == 374-th k-point nmo = 81 (0.18426,-0.00000,0.00000) ==
 == 375-th k-point nmo = 81 (0.27639,0.09213,-0.09213) ==
 == 376-th k-point nmo = 82 (0.36851,0.18426,-0.18426) ==
 == 377-th k-point nmo = 83 (0.46064,0.27639,-0.27639) ==
 == 378-th k-point nmo = 83 (-0.18426,-0.55277,0.55277) ==
 == 379-th k-point nmo = 83 (-0.09213,-0.46064,0.46064) ==
 == 380-th k-point nmo = 83 (0.00000,-0.36851,0.36851) ==
 == 381-th k-point nmo = 81 (0.09213,-0.27639,0.27639) ==
 == 382-th k-point nmo = 83 (0.18426,-0.18426,0.18426) ==
 == 383-th k-point nmo = 81 (0.27639,-0.09213,0.09213) ==
 == 384-th k-point nmo = 81 (0.36851,-0.00000,0.00000) ==
 == 385-th k-point nmo = 82 (0.46064,0.09213,-0.09213) ==
 == 386-th k-point nmo = 82 (0.55277,0.18426,-0.18426) ==
 == 387-th k-point nmo = 83 (-0.09213,-0.64490,0.64490) ==
 == 388-th k-point nmo = 83 (0.00000,-0.55277,0.55277) ==
 == 389-th k-point nmo = 83 (0.09213,-0.46064,0.46064) ==
 == 390-th k-point nmo = 83 (0.18426,-0.36851,0.36851) ==
 == 391-th k-point nmo = 83 (0.27639,-0.27639,0.27639) ==
 == 392-th k-point nmo = 82 (0.36851,-0.18426,0.18426) ==
 == 393-th k-point nmo = 82 (0.46064,-0.09213,0.09213) ==
 == 394-th k-point nmo = 81 (0.55277,-0.00000,0.00000) ==
 == 395-th k-point nmo = 81 (0.64490,0.09213,-0.09213) ==
 == 396-th k-point nmo = 81 (0.00000,-0.73703,0.73703) ==
 == 397-th k-point nmo = 83 (0.09213,-0.64490,0.64490) ==
 == 398-th k-point nmo = 83 (0.18426,-0.55277,0.55277) ==
 == 399-th k-point nmo = 83 (0.27639,-0.46064,0.46064) ==
 == 400-th k-point nmo = 83 (0.36851,-0.36851,0.36851) ==
 == 401-th k-point nmo = 83 (0.46064,-0.27639,0.27639) ==
 == 402-th k-point nmo = 82 (0.55277,-0.18426,0.18426) ==
 == 403-th k-point nmo = 81 (0.64490,-0.09213,0.09213) ==
 == 404-th k-point nmo = 81 (0.73703,-0.00000,0.00000) ==
 == 405-th k-point nmo = 81 (-0.82916,0.09213,0.09213) ==
 == 406-th k-point nmo = 81 (-0.73703,0.18426,0.00000) ==
 == 407-th k-point nmo = 82 (-0.64490,0.27639,-0.09213) ==
 == 408-th k-point nmo = 82 (-0.55277,0.36851,-0.18426) ==
 == 409-th k-point nmo = 83 (-0.46064,0.46064,-0.27639) ==
 == 410-th k-point nmo = 83 (-0.36851,0.55277,-0.36851) ==
 == 411-th k-point nmo = 82 (-0.27639,0.64490,-0.46064) ==
 == 412-th k-point nmo = 82 (-0.18426,0.73703,-0.55277) ==
 == 413-th k-point nmo = 81 (-0.09213,0.82916,-0.64490) ==
 == 414-th k-point nmo = 81 (-0.73703,0.00000,0.18426) ==
 == 415-th k-point nmo = 81 (-0.64490,0.09213,0.09213) ==
 == 416-th k-point nmo = 81 (-0.55277,0.18426,0.00000) ==
 == 417-th k-point nmo = 82 (-0.46064,0.27639,-0.09213) ==
 == 418-th k-point nmo = 83 (-0.36851,0.36851,-0.18426) ==
 == 419-th k-point nmo = 83 (-0.27639,0.46064,-0.27639) ==
 == 420-th k-point nmo = 82 (-0.18426,0.55277,-0.36851) ==
 == 421-th k-point nmo = 82 (-0.09213,0.64490,-0.46064) ==
 == 422-th k-point nmo = 82 (-0.00000,0.73703,-0.55277) ==
 == 423-th k-point nmo = 82 (-0.64490,-0.09213,0.27639) ==
 == 424-th k-point nmo = 81 (-0.55277,0.00000,0.18426) ==
 == 425-th k-point nmo = 82 (-0.46064,0.09213,0.09213) ==
 == 426-th k-point nmo = 82 (-0.36851,0.18426,0.00000) ==
 == 427-th k-point nmo = 81 (-0.27639,0.27639,-0.09213) ==
 == 428-th k-point nmo = 82 (-0.18426,0.36851,-0.18426) ==
 == 429-th k-point nmo = 82 (-0.09213,0.46064,-0.27639) ==
 == 430-th k-point nmo = 82 (-0.00000,0.55277,-0.36851) ==
 == 431-th k-point nmo = 82 (0.09213,0.64490,-0.46064) ==
 == 432-th k-point nmo = 82 (-0.55277,-0.18426,0.36851) ==
 == 433-th k-point nmo = 82 (-0.46064,-0.09213,0.27639) ==
 == 434-th k-point nmo = 82 (-0.36851,-0.00000,0.18426) ==
 == 435-th k-point nmo = 81 (-0.27639,0.09213,0.09213) ==
 == 436-th k-point nmo = 81 (-0.18426,0.18426,0.00000) ==
 == 437-th k-point nmo = 81 (-0.09213,0.27639,-0.09213) ==
 == 438-th k-point nmo = 82 (-0.00000,0.36851,-0.18426) ==
 == 439-th k-point nmo = 82 (0.09213,0.46064,-0.27639) ==
 == 440-th k-point nmo = 82 (0.18426,0.55277,-0.36851) ==
 == 441-th k-point nmo = 83 (-0.46064,-0.27639,0.46064) ==
 == 442-th k-point nmo = 83 (-0.36851,-0.18426,0.36851) ==
 == 443-th k-point nmo = 81 (-0.27639,-0.09213,0.27639) ==
 == 444-th k-point nmo = 81 (-0.18426,-0.00000,0.18426) ==
 == 445-th k-point nmo = 82 (-0.09213,0.09213,0.09213) ==
 == 446-th k-point nmo = 81 (0.00000,0.18426,0.00000) ==
 == 447-th k-point nmo = 81 (0.09213,0.27639,-0.09213) ==
 == 448-th k-point nmo = 82 (0.18426,0.36851,-0.18426) ==
 == 449-th k-point nmo = 83 (0.27639,0.46064,-0.27639) ==
 == 450-th k-point nmo = 83 (-0.36851,-0.36851,0.55277) ==
 == 451-th k-point nmo = 83 (-0.27639,-0.27639,0.46064) ==
 == 452-th k-point nmo = 82 (-0.18426,-0.18426,0.36851) ==
 == 453-th k-point nmo = 81 (-0.09213,-0.09213,0.27639) ==
 == 454-th k-point nmo = 81 (0.00000,-0.00000,0.18426) ==
 == 455-th k-point nmo = 82 (0.09213,0.09213,0.09213) ==
 == 456-th k-point nmo = 81 (0.18426,0.18426,0.00000) ==
 == 457-th k-point nmo = 81 (0.27639,0.27639,-0.09213) ==
 == 458-th k-point nmo = 83 (0.36851,0.36851,-0.18426) ==
 == 459-th k-point nmo = 82 (-0.27639,-0.46064,0.64490) ==
 == 460-th k-point nmo = 82 (-0.18426,-0.36851,0.55277) ==
 == 461-th k-point nmo = 82 (-0.09213,-0.27639,0.46064) ==
 == 462-th k-point nmo = 82 (0.00000,-0.18426,0.36851) ==
 == 463-th k-point nmo = 81 (0.09213,-0.09213,0.27639) ==
 == 464-th k-point nmo = 81 (0.18426,-0.00000,0.18426) ==
 == 465-th k-point nmo = 81 (0.27639,0.09213,0.09213) ==
 == 466-th k-point nmo = 82 (0.36851,0.18426,0.00000) ==
 == 467-th k-point nmo = 82 (0.46064,0.27639,-0.09213) ==
 == 468-th k-point nmo = 82 (-0.18426,-0.55277,0.73703) ==
 == 469-th k-point nmo = 82 (-0.09213,-0.46064,0.64490) ==
 == 470-th k-point nmo = 82 (0.00000,-0.36851,0.55277) ==
 == 471-th k-point nmo = 82 (0.09213,-0.27639,0.46064) ==
 == 472-th k-point nmo = 82 (0.18426,-0.18426,0.36851) ==
 == 473-th k-point nmo = 81 (0.27639,-0.09213,0.27639) ==
 == 474-th k-point nmo = 82 (0.36851,-0.00000,0.18426) ==
 == 475-th k-point nmo = 82 (0.46064,0.09213,0.09213) ==
 == 476-th k-point nmo = 81 (0.55277,0.18426,0.00000) ==
 == 477-th k-point nmo = 81 (-0.09213,-0.64490,0.82916) ==
 == 478-th k-point nmo = 82 (0.00000,-0.55277,0.73703) ==
 == 479-th k-point nmo = 82 (0.09213,-0.46064,0.64490) ==
 == 480-th k-point nmo = 82 (0.18426,-0.36851,0.55277) ==
 == 481-th k-point nmo = 83 (0.27639,-0.27639,0.46064) ==
 == 482-th k-point nmo = 83 (0.36851,-0.18426,0.36851) ==
 == 483-th k-point nmo = 82 (0.46064,-0.09213,0.27639) ==
 == 484-th k-point nmo = 81 (0.55277,-0.00000,0.18426) ==
 == 485-th k-point nmo = 81 (0.64490,0.09213,0.09213) ==
 == 486-th k-point nmo = 83 (-0.92129,0.18426,0.18426) ==
 == 487-th k-point nmo = 82 (-0.82916,0.27639,0.09213) ==
 == 488-th k-point nmo = 82 (-0.73703,0.36851,0.00000) ==
 == 489-th k-point nmo = 82 (-0.64490,0.46064,-0.09213) ==
 == 490-th k-point nmo = 83 (-0.55277,0.55277,-0.18426) ==
 == 491-th k-point nmo = 82 (-0.46064,0.64490,-0.27639) ==
 == 492-th k-point nmo = 83 (-0.36851,0.73703,-0.36851) ==
 == 493-th k-point nmo = 82 (-0.27639,0.82916,-0.46064) ==
 == 494-th k-point nmo = 82 (-0.18426,0.92129,-0.55277) ==
 == 495-th k-point nmo = 82 (-0.82916,0.09213,0.27639) ==
 == 496-th k-point nmo = 83 (-0.73703,0.18426,0.18426) ==
 == 497-th k-point nmo = 82 (-0.64490,0.27639,0.09213) ==
 == 498-th k-point nmo = 82 (-0.55277,0.36851,0.00000) ==
 == 499-th k-point nmo = 83 (-0.46064,0.46064,-0.09213) ==
 == 500-th k-point nmo = 82 (-0.36851,0.55277,-0.18426) ==
 == 501-th k-point nmo = 83 (-0.27639,0.64490,-0.27639) ==
 == 502-th k-point nmo = 82 (-0.18426,0.73703,-0.36851) ==
 == 503-th k-point nmo = 82 (-0.09213,0.82916,-0.46064) ==
 == 504-th k-point nmo = 82 (-0.73703,-0.00000,0.36851) ==
 == 505-th k-point nmo = 82 (-0.64490,0.09213,0.27639) ==
 == 506-th k-point nmo = 82 (-0.55277,0.18426,0.18426) ==
 == 507-th k-point nmo = 82 (-0.46064,0.27639,0.09213) ==
 == 508-th k-point nmo = 83 (-0.36851,0.36851,0.00000) ==
 == 509-th k-point nmo = 82 (-0.27639,0.46064,-0.09213) ==
 == 510-th k-point nmo = 82 (-0.18426,0.55277,-0.18426) ==
 == 511-th k-point nmo = 82 (-0.09213,0.64490,-0.27639) ==
 == 512-th k-point nmo = 82 (-0.00000,0.73703,-0.36851) ==
 == 513-th k-point nmo = 82 (-0.64490,-0.09213,0.46064) ==
 == 514-th k-point nmo = 82 (-0.55277,0.00000,0.36851) ==
 == 515-th k-point nmo = 82 (-0.46064,0.09213,0.27639) ==
 == 516-th k-point nmo = 82 (-0.36851,0.18426,0.18426) ==
 == 517-th k-point nmo = 81 (-0.27639,0.27639,0.09213) ==
 == 518-th k-point nmo = 82 (-0.18426,0.36851,0.00000) ==
 == 519-th k-point nmo = 82 (-0.09213,0.46064,-0.09213) ==
 == 520-th k-point nmo = 81 (-0.00000,0.55277,-0.18426) ==
 == 521-th k-point nmo = 82 (0.09213,0.64490,-0.27639) ==
 == 522-th k-point nmo = 83 (-0.55277,-0.18426,0.55277) ==
 == 523-th k-point nmo = 83 (-0.46064,-0.09213,0.46064) ==
 == 524-th k-point nmo = 83 (-0.36851,-0.00000,0.36851) ==
 == 525-th k-point nmo = 81 (-0.27639,0.09213,0.27639) ==
 == 526-th k-point nmo = 83 (-0.18426,0.18426,0.18426) ==
 == 527-th k-point nmo = 81 (-0.09213,0.27639,0.09213) ==
 == 528-th k-point nmo = 81 (0.00000,0.36851,0.00000) ==
 == 529-th k-point nmo = 82 (0.09213,0.46064,-0.09213) ==
 == 530-th k-point nmo = 82 (0.18426,0.55277,-0.18426) ==
 == 531-th k-point nmo = 82 (-0.46064,-0.27639,0.64490) ==
 == 532-th k-point nmo = 82 (-0.36851,-0.18426,0.55277) ==
 == 533-th k-point nmo = 82 (-0.27639,-0.09213,0.46064) ==
 == 534-th k-point nmo = 82 (-0.18426,-0.00000,0.36851) ==
 == 535-th k-point nmo = 81 (-0.09213,0.09213,0.27639) ==
 == 536-th k-point nmo = 81 (0.00000,0.18426,0.18426) ==
 == 537-th k-point nmo = 81 (0.09213,0.27639,0.09213) ==
 == 538-th k-point nmo = 82 (0.18426,0.36851,0.00000) ==
 == 539-th k-point nmo = 82 (0.27639,0.46064,-0.09213) ==
 == 540-th k-point nmo = 83 (-0.36851,-0.36851,0.73703) ==
 == 541-th k-point nmo = 83 (-0.27639,-0.27639,0.64490) ==
 == 542-th k-point nmo = 82 (-0.18426,-0.18426,0.55277) ==
 == 543-th k-point nmo = 82 (-0.09213,-0.09213,0.46064) ==
 == 544-th k-point nmo = 81 (0.00000,-0.00000,0.36851) ==
 == 545-th k-point nmo = 81 (0.09213,0.09213,0.27639) ==
 == 546-th k-point nmo = 83 (0.18426,0.18426,0.18426) ==
 == 547-th k-point nmo = 81 (0.27639,0.27639,0.09213) ==
 == 548-th k-point nmo = 83 (0.36851,0.36851,0.00000) ==
 == 549-th k-point nmo = 82 (-0.27639,-0.46064,0.82916) ==
 == 550-th k-point nmo = 82 (-0.18426,-0.36851,0.73703) ==
 == 551-th k-point nmo = 82 (-0.09213,-0.27639,0.64490) ==
 == 552-th k-point nmo = 81 (0.00000,-0.18426,0.55277) ==
 == 553-th k-point nmo = 82 (0.09213,-0.09213,0.46064) ==
 == 554-th k-point nmo = 82 (0.18426,-0.00000,0.36851) ==
 == 555-th k-point nmo = 81 (0.27639,0.09213,0.27639) ==
 == 556-th k-point nmo = 82 (0.36851,0.18426,0.18426) ==
 == 557-th k-point nmo = 82 (0.46064,0.27639,0.09213) ==
 == 558-th k-point nmo = 82 (-0.18426,-0.55277,0.92129) ==
 == 559-th k-point nmo = 82 (-0.09213,-0.46064,0.82916) ==
 == 560-th k-point nmo = 82 (0.00000,-0.36851,0.73703) ==
 == 561-th k-point nmo = 82 (0.09213,-0.27639,0.64490) ==
 == 562-th k-point nmo = 82 (0.18426,-0.18426,0.55277) ==
 == 563-th k-point nmo = 82 (0.27639,-0.09213,0.46064) ==
 == 564-th k-point nmo = 83 (0.36851,-0.00000,0.36851) ==
 == 565-th k-point nmo = 82 (0.46064,0.09213,0.27639) ==
 == 566-th k-point nmo = 82 (0.55277,0.18426,0.18426) ==
 == 567-th k-point nmo = 83 (-1.01341,0.27639,0.27639) ==
 == 568-th k-point nmo = 82 (-0.92129,0.36851,0.18426) ==
 == 569-th k-point nmo = 82 (-0.82916,0.46064,0.09213) ==
 == 570-th k-point nmo = 82 (-0.73703,0.55277,0.00000) ==
 == 571-th k-point nmo = 83 (-0.64490,0.64490,-0.09213) ==
 == 572-th k-point nmo = 82 (-0.55277,0.73703,-0.18426) ==
 == 573-th k-point nmo = 82 (-0.46064,0.82916,-0.27639) ==
 == 574-th k-point nmo = 83 (-0.36851,0.92129,-0.36851) ==
 == 575-th k-point nmo = 82 (-0.27639,1.01341,-0.46064) ==
 == 576-th k-point nmo = 82 (-0.92129,0.18426,0.36851) ==
 == 577-th k-point nmo = 83 (-0.82916,0.27639,0.27639) ==
 == 578-th k-point nmo = 82 (-0.73703,0.36851,0.18426) ==
 == 579-th k-point nmo = 82 (-0.64490,0.46064,0.09213) ==
 == 580-th k-point nmo = 83 (-0.55277,0.55277,0.00000) ==
 == 581-th k-point nmo = 82 (-0.46064,0.64490,-0.09213) ==
 == 582-th k-point nmo = 82 (-0.36851,0.73703,-0.18426) ==
 == 583-th k-point nmo = 83 (-0.27639,0.82916,-0.27639) ==
 == 584-th k-point nmo = 82 (-0.18426,0.92129,-0.36851) ==
 == 585-th k-point nmo = 82 (-0.82916,0.09213,0.46064) ==
 == 586-th k-point nmo = 82 (-0.73703,0.18426,0.36851) ==
 == 587-th k-point nmo = 83 (-0.64490,0.27639,0.27639) ==
 == 588-th k-point nmo = 82 (-0.55277,0.36851,0.18426) ==
 == 589-th k-point nmo = 83 (-0.46064,0.46064,0.09213) ==
 == 590-th k-point nmo = 82 (-0.36851,0.55277,0.00000) ==
 == 591-th k-point nmo = 82 (-0.27639,0.64490,-0.09213) ==
 == 592-th k-point nmo = 83 (-0.18426,0.73703,-0.18426) ==
 == 593-th k-point nmo = 82 (-0.09213,0.82916,-0.27639) ==
 == 594-th k-point nmo = 82 (-0.73703,-0.00000,0.55277) ==
 == 595-th k-point nmo = 82 (-0.64490,0.09213,0.46064) ==
 == 596-th k-point nmo = 82 (-0.55277,0.18426,0.36851) ==
 == 597-th k-point nmo = 83 (-0.46064,0.27639,0.27639) ==
 == 598-th k-point nmo = 83 (-0.36851,0.36851,0.18426) ==
 == 599-th k-point nmo = 82 (-0.27639,0.46064,0.09213) ==
 == 600-th k-point nmo = 81 (-0.18426,0.55277,0.00000) ==
[...]
 1.00843 1.09777 1.31446 1.44282 1.52052 1.59874 1.64898 1.81739 1.86795 1.92968
 2.01281 2.03701 2.17534 2.28470 2.29734 2.39581 2.40509 2.61351 2.63160 2.77686
 2.82898 2.88779 3.19951 3.40412 3.50053 3.65599 3.74428 4.21072 4.49122 4.89047
 5.09381 5.22112 5.43093 5.43519 5.51807 5.69700 5.83631 5.93219 6.07954 6.38870
 7.11165 7.44789 7.56101 7.85638 8.26309 8.38781 8.78640 11.61785 11.62833 11.63478
 11.63604 11.63662 11.64039 11.65516 11.66679 11.83707 12.37441 14.78571 15.00635 15.09640
 15.17493 15.27101 15.37639 15.39620 16.21600 16.41084 16.43636 16.67067 16.82726 17.57032
 55.75643 286.51142
 == 705-th k-point (-0.27639,0.09213,0.64490) occupation: 6==
 -23.85914 -1.46232 -0.67379 -0.05167 -0.01558 0.01099 0.53578 0.61442 0.71978 0.75944
 0.93600 1.18979 1.35750 1.39388 1.45596 1.51792 1.66243 1.76782 1.88071 1.90787
 2.00547 2.11088 2.12266 2.23363 2.29570 2.37017 2.42986 2.60152 2.77504 2.79615
 2.81688 2.88795 3.28340 3.45944 3.65041 3.69057 3.83591 3.98078 4.71403 4.75840
 4.89636 5.13696 5.18124 5.44457 5.51036 5.84522 5.98697 6.16716 6.30518 6.42647
 6.56764 7.40101 7.45712 8.06197 8.17339 8.32152 8.57604 11.61301 11.62067 11.62864
 11.63519 11.63975 11.65040 11.65423 11.67750 11.74551 12.32008 14.89153 14.92834 15.00194
 15.12211 15.15062 15.28075 15.34922 16.36619 16.49099 16.65311 16.78895 16.92171 17.21003
 55.74126 286.49486
 == 706-th k-point (-0.18426,0.18426,0.55277) occupation: 6==
 -23.85914 -1.46263 -0.67733 -0.04751 0.00176 0.01399 0.49850 0.63540 0.73539 0.76629
 0.91643 1.26502 1.27024 1.38738 1.44386 1.46797 1.60684 1.74191 1.79871 1.92047
 1.99051 2.06940 2.20930 2.23794 2.35700 2.46485 2.61695 2.66714 2.78779 2.86277
 2.88325 2.98833 3.02569 3.50400 3.77478 3.80827 3.87528 4.15311 4.56208 4.69248
 4.78733 5.04747 5.14169 5.31189 5.46001 6.01878 6.11908 6.22747 6.27562 6.42280
 6.52770 7.43293 7.55155 8.12020 8.23261 8.34921 8.50237 11.60809 11.61862 11.61866
 11.63930 11.64736 11.65179 11.66622 11.68751 11.70663 12.50717 14.83371 14.91283 14.92518
 15.06868 15.12502 15.21349 15.29373 16.55045 16.58744 16.69672 16.70073 16.89339 17.24820
 55.79949 286.56353
 == 707-th k-point (-0.09213,0.27639,0.46064) occupation: 6==
 -23.85914 -1.46291 -0.68034 -0.03695 0.00206 0.02398 0.47515 0.64021 0.75116 0.76589
 0.97027 1.17977 1.21149 1.37516 1.42874 1.48131 1.61875 1.70674 1.80663 1.88826
 1.98577 2.02584 2.22870 2.34614 2.36367 2.48882 2.59136 2.74855 2.85818 2.86080
 2.89284 2.96838 3.23744 3.52777 3.62529 3.89893 3.99912 4.17880 4.58622 4.74013
 4.82979 4.98592 5.14407 5.37135 5.49737 6.17739 6.18108 6.24718 6.34638 6.40927
 6.72412 7.47073 7.52435 7.89875 8.28213 8.51401 8.59222 11.59963 11.61176 11.61756
 11.62902 11.63975 11.64832 11.65529 11.68199 11.70159 12.14104 14.83636 14.90655 14.95211
 15.03582 15.12139 15.23976 15.29599 16.61025 16.66240 16.70241 16.75216 17.00107 17.27939
 55.77389 286.53209
 == 708-th k-point (0.00000,0.36851,0.36851) occupation: 6==
 -23.85914 -1.46302 -0.68152 -0.02906 -0.00379 0.03005 0.46736 0.63609 0.76378 0.76523
 1.07143 1.08182 1.14497 1.40343 1.41048 1.49079 1.61264 1.70283 1.85479 1.86462
 1.93507 2.07201 2.16583 2.26642 2.48134 2.50918 2.58579 2.80617 2.83205 2.86098
 2.90453 2.96788 2.98582 3.25048 3.54818 3.58980 3.92913 4.17135 4.19194 4.57242
 4.66237 5.00142 5.07121 5.16062 5.33822 5.62092 6.18888 6.27808 6.29826 6.31492
 6.55185 6.88881 7.56001 7.58797 8.07178 8.42229 8.63237 8.67384 11.60034 11.60904
 11.62269 11.63175 11.63681 11.64576 11.67221 11.67931 11.70169 12.41286 14.83650 14.87660
 15.01720 15.08415 15.13216 15.22624 15.37336 16.61570 16.71211 16.72508 16.79952 17.21113
 17.23431 55.78404 286.54535
 == 709-th k-point (0.09213,0.46064,0.27639) occupation: 6==
 -23.85914 -1.46291 -0.68034 -0.03695 0.00206 0.02398 0.47515 0.64021 0.75116 0.76589
 0.97027 1.17977 1.21149 1.37516 1.42874 1.48131 1.61875 1.70674 1.80663 1.88826
 1.98577 2.02584 2.22870 2.34614 2.36367 2.48882 2.59136 2.74855 2.85818 2.86080
 2.89284 2.96838 3.23744 3.52777 3.62529 3.89893 3.99912 4.17880 4.58622 4.74013
 4.82979 4.98592 5.14407 5.37135 5.49737 6.17739 6.18108 6.24718 6.34638 6.40927
 6.72412 7.47073 7.52435 7.89875 8.28213 8.51401 8.59222 11.59963 11.61176 11.61756
 11.62902 11.63975 11.64832 11.65529 11.68199 11.70159 12.14104 14.83636 14.90655 14.95211
 15.03582 15.12139 15.23976 15.29599 16.61025 16.66240 16.70241 16.75216 17.00107 17.27939
 55.77389 286.53209
 == 710-th k-point (0.18426,0.55277,0.18426) occupation: 6==
 -23.85914 -1.46263 -0.67733 -0.04751 0.00176 0.01399 0.49850 0.63540 0.73539 0.76629
 0.91643 1.26502 1.27024 1.38738 1.44386 1.46797 1.60684 1.74191 1.79871 1.92047
 1.99051 2.06940 2.20930 2.23794 2.35700 2.46485 2.61695 2.66714 2.78779 2.86277
 2.88325 2.98833 3.02569 3.50400 3.77478 3.80827 3.87528 4.15311 4.56208 4.69248
 4.78733 5.04747 5.14169 5.31189 5.46001 6.01878 6.11908 6.22747 6.27562 6.42280
 6.52770 7.43293 7.55155 8.12020 8.23261 8.34921 8.50237 11.60809 11.61862 11.61866
 11.63930 11.64736 11.65179 11.66622 11.68751 11.70663 12.50717 14.83371 14.91283 14.92518
 15.06868 15.12502 15.21349 15.29373 16.55045 16.58744 16.69672 16.70073 16.89339 17.24820
 55.79949 286.56353
 == 711-th k-point (-0.46064,-0.27639,1.01341) occupation: 6==
 -23.85914 -1.46250 -0.67677 -0.05049 -0.00321 0.02043 0.48668 0.62476 0.74025 0.74839
 1.04564 1.13217 1.27111 1.39599 1.40380 1.47467 1.66000 1.78378 1.92372 1.93914
 1.96815 2.04786 2.18258 2.26970 2.32222 2.44285 2.46880 2.53444 2.73020 2.79865
 2.84706 2.87210 3.42426 3.59001 3.64966 3.75271 3.78094 4.10995 4.57413 4.74359
 4.98843 5.18720 5.22806 5.46757 5.51310 6.04213 6.09993 6.22126 6.42907 6.45771
 6.67162 7.37882 7.63500 7.99019 8.12088 8.27258 8.49828 11.61073 11.61483 11.62064
 11.62543 11.63673 11.65124 11.65727 11.66803 11.68092 12.28109 14.82167 14.90666 15.04719
 15.14020 15.16249 15.29319 15.33259 16.52510 16.58848 16.68531 16.86445 17.04894 17.27878
 55.86568 286.65625
 == 712-th k-point (-0.36851,-0.18426,0.92129) occupation: 6==
 -23.85914 -1.46223 -0.67317 -0.04627 -0.02737 0.01324 0.53786 0.60151 0.72717 0.74963
 1.01465 1.11370 1.34714 1.36608 1.44086 1.54804 1.70956 1.83228 1.91411 1.96797
 2.00262 2.03134 2.20684 2.26837 2.28367 2.36653 2.46451 2.48911 2.60548 2.76139
 2.80162 2.88496 3.34659 3.46576 3.54815 3.68414 3.78760 3.86385 4.65931 4.86076
 5.03758 5.25809 5.41071 5.47026 5.49754 5.60220 5.94270 6.08493 6.26798 6.36099
 6.78724 7.39985 7.62299 8.03809 8.22562 8.32062 8.38948 11.61386 11.61969 11.62680
 11.63260 11.63940 11.64932 11.65092 11.67267 11.70466 12.35226 14.86240 14.97809 15.07045
 15.18825 15.27006 15.31394 15.35719 16.21724 16.43807 16.59634 16.75884 16.99620 17.22591
 55.68394 286.42992
 == 713-th k-point (-0.27639,-0.09213,0.82916) occupation: 6==
 -23.85914 -1.46210 -0.67090 -0.05789 -0.02351 0.00607 0.58718 0.59056 0.69851 0.75845
 0.92517 1.20943 1.30606 1.44355 1.47578 1.64378 1.67556 1.81244 1.82843 1.94048
 1.98630 2.10651 2.11027 2.18208 2.30816 2.37148 2.42630 2.53572 2.64268 2.80364
 2.86788 3.03544 3.08739 3.44126 3.53893 3.70518 3.75636 4.06796 4.57828 4.84763
 4.96770 5.23737 5.31090 5.42848 5.53360 5.57732 5.95227 5.99263 6.26351 6.42013
 6.96108 7.41164 7.50007 7.74317 8.28613 8.46615 8.67981 11.61245 11.62533 11.62972
 11.63339 11.64554 11.64788 11.65516 11.68624 11.79299 12.39493 14.82126 14.96337 15.04963
 15.16321 15.29523 15.30210 15.38396 16.16962 16.45291 16.52340 16.72861 16.88009 17.58006
 55.87448 286.65832
 == 714-th k-point (-0.18426,-0.00000,0.73703) occupation: 6==
 -23.85914 -1.46217 -0.67112 -0.06574 -0.01013 0.00313 0.57252 0.62294 0.69196 0.77069
 0.85592 1.27408 1.34298 1.43863 1.58373 1.58669 1.61599 1.70816 1.86027 1.88422
 1.99375 2.01137 2.14466 2.19074 2.26870 2.35550 2.43064 2.62874 2.67447 2.86762
 2.89715 3.08291 3.25136 3.48216 3.78904 3.79681 4.01950 4.60761 4.75741 4.82865
 5.03738 5.08380 5.14412 5.30690 5.80112 5.81161 5.96476 6.22879 6.34239 6.41287
 7.51531 7.58608 7.71626 8.06109 8.20673 8.50984 11.60665 11.62007 11.62403 11.63295
 11.64458 11.64733 11.66084 11.67069 11.74603 12.63147 14.84991 14.90433 14.94721 15.07873
 15.08982 15.16848 15.24868 16.28939 16.33294 16.66208 16.68141 16.75948 17.12375 55.59087
 286.30460
 == 715-th k-point (-0.09213,0.09213,0.64490) occupation: 6==
 -23.85914 -1.46241 -0.67370 -0.05981 -0.00131 0.00486 0.54384 0.64168 0.71084 0.78081
 0.82336 1.29054 1.36267 1.45932 1.51590 1.53755 1.56911 1.69086 1.79321 1.83508
 1.97977 2.01151 2.15684 2.30468 2.37275 2.47746 2.54243 2.67873 2.68487 2.81251
 2.87745 3.00804 3.13579 3.51220 3.78344 3.84447 4.08978 4.69567 4.71452 4.88706
 4.95069 4.97709 5.06243 5.14402 5.83752 5.97024 6.02673 6.20348 6.32612 6.35959
 7.57672 7.61474 7.78881 8.10306 8.26725 8.36606 11.60253 11.61658 11.62522 11.63416
 11.64197 11.64443 11.64619 11.67676 11.72786 12.82891 14.89943 14.91827 14.97242 15.01438
 15.04005 15.10374 15.13220 16.43873 16.49524 16.61137 16.71218 16.73338 16.85851 55.38808
 286.04818
 == 716-th k-point (0.00000,0.18426,0.55277) occupation: 6==
 -23.85914 -1.46270 -0.67735 -0.04490 -0.00104 0.01285 0.51041 0.64421 0.73018 0.77502
 0.86995 1.24477 1.35270 1.35793 1.46934 1.49117 1.61477 1.71260 1.71350 1.87070
 2.03298 2.06029 2.13727 2.34719 2.36057 2.51004 2.54297 2.62692 2.87074 2.87545
 2.94670 3.04922 3.23031 3.50922 3.84918 3.86748 3.95349 4.59519 4.80190 4.86157
 4.87078 4.99222 5.12271 5.21675 6.01023 6.11697 6.12735 6.23504 6.35415 6.43424
 7.49138 7.53050 7.60050 8.13737 8.31957 8.43518 11.60568 11.62081 11.62833 11.63020
 11.63648 11.64359 11.65215 11.66322 11.69322 12.37909 14.84752 14.93190 14.96412 14.98156
 15.03907 15.10732 15.17942 16.51882 16.56731 16.66303 16.74453 16.83436 17.00519 55.59753
 286.31287
 == 717-th k-point (0.09213,0.27639,0.46064) occupation: 6==
 -23.85914 -1.46291 -0.68034 -0.03695 0.00206 0.02398 0.47515 0.64021 0.75116 0.76589
 0.97027 1.17977 1.21149 1.37516 1.42874 1.48131 1.61875 1.70674 1.80663 1.88826
 1.98577 2.02584 2.22870 2.34614 2.36367 2.48882 2.59136 2.74855 2.85818 2.86080
 2.89284 2.96838 3.23744 3.52777 3.62529 3.89893 3.99912 4.17880 4.58622 4.74013
 4.82979 4.98592 5.14407 5.37135 5.49737 6.17739 6.18108 6.24718 6.34638 6.40927
 6.72412 7.47073 7.52435 7.89875 8.28213 8.51401 8.59222 11.59963 11.61176 11.61756
 11.62902 11.63975 11.64832 11.65529 11.68199 11.70159 12.14104 14.83636 14.90655 14.95211
 15.03582 15.12139 15.23976 15.29599 16.61025 16.66240 16.70241 16.75216 17.00107 17.27939
 55.77389 286.53209
 == 718-th k-point (0.18426,0.36851,0.36851) occupation: 6==
 -23.85914 -1.46294 -0.68137 -0.04346 0.01435 0.02951 0.45087 0.64710 0.75324 0.75454
 1.09432 1.10863 1.16556 1.37107 1.40462 1.45306 1.64549 1.74652 1.84942 1.84974
 1.92802 1.98745 2.31147 2.34443 2.42134 2.51121 2.55136 2.68398 2.77507 2.79849
 2.87572 2.93816 2.94773 3.52364 3.59939 3.61731 3.91374 3.91594 4.23300 4.50854
 4.75629 4.98665 5.09425 5.36970 5.49330 5.53800 6.17585 6.22455 6.25018 6.46852
 6.69557 6.78777 7.41190 7.76984 7.82352 8.34684 8.48959 8.60781 11.60897 11.60994
 11.61933 11.62651 11.62866 11.66321 11.66737 11.68923 11.70217 12.62488 14.79759 14.91527
 15.04395 15.08893 15.25300 15.29524 15.34194 16.65012 16.65424 16.73084 16.85888 17.10414
 17.40052 55.90022 286.68983
 == 719-th k-point (0.27639,0.46064,0.27639) occupation: 6==
 -23.85914 -1.46278 -0.67998 -0.05017 0.01890 0.02317 0.45392 0.64649 0.74355 0.74897
 1.04418 1.19865 1.20437 1.33824 1.42269 1.42574 1.67163 1.74417 1.82952 1.89924
 1.95388 2.01083 2.27764 2.31126 2.41901 2.43826 2.56830 2.67296 2.71492 2.79916
 2.89496 2.91113 2.97566 3.54370 3.66755 3.77163 3.82796 3.88405 4.22201 4.47707
 4.76268 5.00255 5.10074 5.39452 5.52033 5.54073 6.16121 6.19101 6.25175 6.63738
 6.64879 6.77596 7.36763 7.72092 8.04754 8.28362 8.42487 8.50734 11.61252 11.61474
 11.62431 11.62832 11.64127 11.66105 11.66447 11.67385 11.70729 12.71716 14.78285 14.91903
 15.05522 15.10106 15.25912 15.33178 15.33854 16.61724 16.66096 16.71188 17.00237 17.04070
 17.54455 56.00933 286.82409
 == 720-th k-point (-0.36851,-0.36851,1.10554) occupation: 6==
 -23.85914 -1.46261 -0.67868 -0.05568 0.01477 0.02542 0.45408 0.64189 0.73961 0.74036
 1.11922 1.16717 1.18728 1.35095 1.41135 1.43289 1.67273 1.75053 1.86558 1.98491
 2.00078 2.01654 2.13080 2.33149 2.34184 2.38184 2.53983 2.71369 2.74612 2.78017
 2.79125 2.83586 2.94702 3.57124 3.69624 3.71341 3.79618 3.85928 4.19153 4.42046
 4.76039 5.04191 5.10983 5.42771 5.49021 5.54749 6.15034 6.16760 6.19623 6.61064
 6.74018 6.95965 7.46465 7.64270 7.91627 8.05253 8.44482 8.45964 11.61267 11.61627
 11.62307 11.62607 11.62849 11.66143 11.66524 11.66910 11.71166 12.77722 14.75319 14.91659
 15.07656 15.10460 15.27806 15.30265 15.35713 16.60575 16.65019 16.66916 17.00799 17.08922
 17.78898 56.26140 287.13831
 == 721-th k-point (-0.27639,-0.27639,1.01341) occupation: 6==
 -23.85914 -1.46238 -0.67528 -0.05199 -0.00946 0.01726 0.50221 0.61760 0.73758 0.75139
 0.99504 1.21831 1.24073 1.39286 1.42968 1.47272 1.70922 1.73998 1.93324 1.97955
 2.01819 2.06313 2.17763 2.23192 2.29343 2.34506 2.40678 2.62057 2.69890 2.75445
 2.87402 2.90399 2.93580 3.46360 3.57951 3.67193 3.78011 3.85434 4.10689 4.55598
 4.75167 5.14873 5.20552 5.35980 5.50847 5.52810 5.92507 6.04938 6.18470 6.38201
 6.62877 6.69721 7.41094 7.73832 8.10591 8.30776 8.46760 8.49292 11.61181 11.62473
 11.62635 11.63671 11.64635 11.65202 11.65927 11.68316 11.70314 12.66238 14.82946 14.90925
 15.12845 15.15758 15.23901 15.31949 15.36451 16.49979 16.52020 16.68758 16.86029 17.04926
 17.26944 55.82773 286.61015
 == 722-th k-point (-0.18426,-0.18426,0.92129) occupation: 6==
 -23.85914 -1.46218 -0.67185 -0.05958 -0.01648 0.00758 0.55955 0.60408 0.71600 0.76724
 0.88942 1.28795 1.33713 1.35756 1.44733 1.58222 1.72851 1.72940 1.91032 1.94722
 2.02271 2.06400 2.08531 2.17200 2.32310 2.33943 2.41582 2.60563 2.63022 2.74043
 2.88701 2.95574 2.97825 3.32277 3.49861 3.57609 3.82608 3.86327 3.91122 4.78557
 4.79995 5.06958 5.28213 5.31376 5.49428 5.49637 5.76910 5.84179 6.12084 6.32216
 6.66630 6.69429 7.43343 7.89083 8.14880 8.34513 8.46781 8.48347 11.60699 11.62031
 11.63500 11.63803 11.64927 11.65143 11.66811 11.71168 11.71486 12.64475 14.92223 14.96649
 15.07767 15.21404 15.28133 15.30645 15.34461 16.31784 16.32781 16.65860 16.74124 17.01346
 17.40208 55.82391 286.59602
 == 723-th k-point (-0.09213,-0.09213,0.82916) occupation: 6==
 -23.85914 -1.46211 -0.67005 -0.07257 -0.00663 0.00085 0.58464 0.62473 0.68935 0.78059
 0.81741 1.28592 1.42679 1.44853 1.48156 1.66681 1.70608 1.71342 1.84806 1.85718
 1.93060 2.05038 2.15954 2.19440 2.20384 2.27822 2.34907 2.62475 2.74049 2.85285
 2.88728 3.01771 3.12254 3.46117 3.86689 3.89252 4.09166 4.64549 4.83469 4.92974
 4.98017 5.01269 5.44838 5.46807 5.51258 5.54555 5.81821 6.22372 6.30547 6.33146
 7.53361 7.85102 7.97297 8.03969 8.48734 8.66734 11.59760 11.60786 11.61347 11.63321
 11.64702 11.64771 11.65224 11.67993 11.74199 13.04634 14.86386 14.94682 14.98473 15.02223
 15.08165 15.33806 15.36463 16.06415 16.11187 16.56499 16.68332 16.73221 16.97472 55.44692
 286.11794
 == 724-th k-point (0.00000,-0.00000,0.73703) occupation: 6==
 -23.85914 -1.46220 -0.67080 -0.07277 -0.00019 -0.00019 0.57302 0.64781 0.69075 0.78605
 0.78605 1.28035 1.43421 1.52412 1.60369 1.60369 1.63612 1.63612 1.68741 1.88811
 1.92982 1.92982 2.24796 2.26966 2.31495 2.31495 2.37601 2.66218 2.72461 2.83885
 2.83885 2.88876 3.11905 3.49329 3.87027 3.87027 4.16067 4.82718 4.89976 4.91603
 4.91603 5.09545 5.15851 5.15851 5.73453 5.83677 5.83677 6.13364 6.30804 6.31214
 7.57860 8.02729 8.02729 8.07142 8.46001 8.46001 11.59613 11.60829 11.60829 11.61918
 11.64466 11.64648 11.64648 11.68161 11.74063 13.24611 14.93967 14.98980 15.00876 15.00876
 15.10446 15.19055 15.19055 16.29575 16.29575 16.56698 16.58358 16.72089 16.82524 55.30968
 285.94341
 == 725-th k-point (0.09213,0.09213,0.64490) occupation: 6==
 -23.85914 -1.46241 -0.67370 -0.05981 -0.00131 0.00486 0.54384 0.64168 0.71084 0.78081
 0.82336 1.29054 1.36267 1.45932 1.51590 1.53755 1.56911 1.69086 1.79321 1.83508
 1.97977 2.01151 2.15684 2.30468 2.37275 2.47746 2.54243 2.67873 2.68488 2.81251
 2.87745 3.00804 3.13579 3.51220 3.78344 3.84447 4.08978 4.69567 4.71452 4.88706
 4.95069 4.97709 5.06243 5.14402 5.83752 5.97024 6.02673 6.20348 6.32612 6.35959
 7.57672 7.61474 7.78881 8.10306 8.26725 8.36606 11.60253 11.61658 11.62522 11.63416
 11.64197 11.64443 11.64619 11.67676 11.72786 12.82891 14.89943 14.91827 14.97242 15.01438
 15.04005 15.10374 15.13220 16.43873 16.49524 16.61137 16.71218 16.73338 16.85851 55.38808
 286.04818
 == 726-th k-point (0.18426,0.18426,0.55277) occupation: 6==
 -23.85914 -1.46263 -0.67733 -0.04751 0.00176 0.01399 0.49850 0.63540 0.73539 0.76629
 0.91643 1.26502 1.27024 1.38738 1.44386 1.46797 1.60684 1.74191 1.79871 1.92047
 1.99051 2.06940 2.20930 2.23794 2.35700 2.46485 2.61695 2.66714 2.78779 2.86277
 2.88325 2.98833 3.02569 3.50400 3.77478 3.80827 3.87528 4.15311 4.56208 4.69248
 4.78733 5.04747 5.14169 5.31189 5.46001 6.01878 6.11908 6.22747 6.27562 6.42280
 6.52770 7.43293 7.55155 8.12020 8.23261 8.34921 8.50237 11.60809 11.61862 11.61866
 11.63930 11.64736 11.65179 11.66622 11.68751 11.70663 12.50717 14.83371 14.91283 14.92518
 15.06868 15.12502 15.21349 15.29373 16.55045 16.58744 16.69672 16.70073 16.89339 17.24820
 55.79949 286.56353
 == 727-th k-point (0.27639,0.27639,0.46064) occupation: 6==
 -23.85914 -1.46278 -0.67998 -0.05017 0.01890 0.02317 0.45392 0.64649 0.74355 0.74897
 1.04418 1.19865 1.20437 1.33824 1.42269 1.42574 1.67163 1.74417 1.82952 1.89924
 1.95388 2.01083 2.27764 2.31126 2.41901 2.43826 2.56830 2.67296 2.71492 2.79916
 2.89496 2.91113 2.97566 3.54370 3.66755 3.77163 3.82796 3.88405 4.22201 4.47707
 4.76268 5.00255 5.10074 5.39452 5.52033 5.54073 6.16121 6.19101 6.25175 6.63738
 6.64879 6.77596 7.36763 7.72092 8.04754 8.28362 8.42487 8.50734 11.61252 11.61474
 11.62431 11.62832 11.64127 11.66105 11.66447 11.67385 11.70729 12.71716 14.78285 14.91903
 15.05522 15.10106 15.25912 15.33178 15.33854 16.61724 16.66096 16.71188 17.00237 17.04070
 17.54455 56.00933 286.82409
 == 728-th k-point (0.36851,0.36851,0.36851) occupation: 6==
 -23.85914 -1.46277 -0.68051 -0.05558 0.02783 0.02783 0.43507 0.65647 0.73826 0.73826
 1.15075 1.17623 1.17623 1.29753 1.41347 1.41347 1.72924 1.72924 1.80987 1.90097
 1.99622 1.99622 2.20467 2.35283 2.35283 2.47978 2.73030 2.75480 2.75480 2.90274
 2.90274 2.90965 2.95966 3.59533 3.59533 3.77701 3.77701 3.79242 4.21357 4.44054
 4.76599 5.23461 5.23461 5.51055 5.51055 5.58735 6.11389 6.11389 6.17616 6.46358
 6.46358 7.00091 7.00091 7.10505 7.34772 8.10847 8.24217 8.24217 11.60227 11.60227
 11.61908 11.62816 11.62816 11.66630 11.66630 11.67022 11.73617 13.15857 14.75487 14.92167
 15.16910 15.16910 15.31324 15.31324 15.44881 16.59449 16.59449 16.68558 16.91456 16.91456
 17.87337 56.27013 287.14309
 ---------------------------------------------------------------------------
 VBM is at 364-th k-point with 0.98254 eV
 CBM is at 364-th k-point with 10.17361 eV
 Band gap is 9.19107 eV


           Ground-State Mulliken Net Atomic Charges

      Atom                 Charge (a.u.)          Spin (a.u.)
   --------------------------------------------------------
      1 Li                (0.076113,0.000000)    (0.000000,0.000000)
      2  F              (-0.076113,-0.000000)    (0.000000,0.000000)
   --------------------------------------------------------
  Sum of atomic charges =      (-0.000000,0.000000)
  Sum of spin   charges =       (0.000000,0.000000)



 Total job time:  1379.87 s.
 Tue Sep  9 03:38:48 2025


        *************************************************************
        *                                                           *
        *  Thank you very much for using QCPBC. Have a nice day.    *
        *                                                           *
        *************************************************************

Running job 1 of 1
