                  Welcome to Q-Chem
           with Periodic Boundary Condition
     A Quantum Leap Into The Future Of Chemistry

 Adam Rettig, Xintian Feng, Meng-Fu Chen, Hieu Dinh, Stephen Quiton,
 Anton Ni, Paul J. Robinson, Jinghong Zhang, Joonho Lee

Contributors to earlier versions of Q-Chem not listed above:
 Evgeny Epifanovsky, Leo Cunha, Jerome F. Gonthier, Kuan-Yu Liu
 Input file: /n/netscratch/joonholee_lab/Lab/hieudinh//lif_solve_def2qzvp_omega_0.9_333.scratch20250908233819/lif_solve_def2qzvp_omega_0.9_333.0
 Scratch folder: /n/netscratch/joonholee_lab/Lab/hieudinh//lif_solve_def2qzvp_omega_0.9_333.scratch20250908233819
 Auxillary files located at: /n/holylabs/LABS/joonholee_lab/Lab/qchem_base/qcaux
 Q-Chem begins on Mon Sep  8 23:38:20 2025

 -------------------------------------------------------------
 User input:
 -------------------------------------------------------------
 $lattice
 3
 0.000000 2.005000 2.005000
 2.005000 0.000000 2.005000
 2.005000 2.005000 0.000000
 $end
 
 $unitcell
 ABSOLUTE
 0 1
 Li 0.000000 0.000000 0.000000
 F  2.005000 0.000000 0.000000
 $end
 
 $rem
 jobtype = sp
 method = pbe
 scf_convergence = 5
 scf_guess = autosad
 scf_algorithm = gdm
 basis = def2-qzvp
 aux_basis = gen
 input_bohr = false
 symmetry false
 is_basis_uctr true
 rsdf_print_level 1
 
 mp_mesh = [3,3,3]
 
 integral_direct true
 bvk_cgto true
 
 thresh 14
 mem_total 100000
 threads 32
 
 MAX_SCF_CYCLES 400
 madelung = false
 omega 0.9
 do_rij_bigmem true
 automate_g true
 print_level 10
 grid_type_xc 1
 
 thresh_1e2c_sp 1e-14
 thresh_2e3c_bra_ket_sep 1e-10
 thresh_g 1e-12
 $end
 
 $aux_basis
 Li     0
 S   7   1.00
     498.3689730              0.0207908
     162.9342738              0.0542177
      57.3246735              0.1776783
      21.6427314              0.4181150
       8.7345375              0.6535245
       3.7491039              0.5492618
       1.7006754              0.1701425
 S   1   1.00
       0.8090859             -0.0097548
 S   1   1.00
       0.4000933             -0.0050152
 S   1   1.00
       0.2035793              0.0232200
 !S   1   1.00
 !      0.1054201              0.0134535
 !S   1   1.00
 !      0.0549139              0.0006647
 P   2   1.00
      10.7024696              0.0072923
       3.6551543              0.0060940
 P   1   1.00
       1.2464013              0.0172529
 P   1   1.00
       0.4246282             -0.0160026
 P   1   1.00
       0.1446192             -0.0195111
 D   2   1.00
       1.1510647             -0.0014314
       0.6019112              0.0038969
 D   1   1.00
       0.3109573              0.0024683
 D   1   1.00
       0.1600032              0.0036451
 F   2   1.00
       0.5967918              0.0010494
       0.1790687              0.0006468
 G   1   1.00
       1.0460130             -0.0001971
 ****
 F     0
 S   7   1.00
    3514.9201549              0.1805835
    1231.2458815              0.3676084
     454.1367336              1.2707881
     175.8376258              2.8274164
      71.2081775              4.3588226
      30.0316883              2.7180994
      13.1259023             -0.0804726
 S   1   1.00
       5.9126861             -0.0023370
 S   1   1.00
       2.7284431              1.1236274
 S   1   1.00
       1.2813993              0.9999042
 S   1   1.00
       0.6082793              0.3119579
 S   1   1.00
       0.2897894              0.0312295
 P   2   1.00
      49.3740409             -0.0346332
      13.4874956             -0.0096069
 P   1   1.00
       3.9664900              0.0762067
 P   1   1.00
       1.2226629             -0.0103329
 P   1   1.00
       0.3830317              0.0018853
 D   2   1.00
      29.9719140             -0.0113316
       6.7860915             -0.0467639
 D   1   1.00
       1.8137313             -0.0167604
 D   1   1.00
       0.5157840             -0.0050777
 F   2   1.00
       2.8301877              1.0
       0.9155962              1.0
 G   1   1.00
       1.6097500             -0.0005411
 ****
 $end
 -------------------------------------------------------------
 Running PBC job

 Requested Exchange Correlation Functionals: 
  DFT Exchange:  1.00000 pbe_x
  DFT Correlation:  1.00000 pbe_c
 using 32 threads for computing.
 ---------------------------------------------------------------
      Coordinates of Atoms in Central Unit Cell (Angstroms)
    I     Atom         X            Y            Z
 ---------------------------------------------------------------
    1      Li      0.000000     0.000000     0.000000
    2       F      2.005000     0.000000     0.000000
 ---------------------------------------------------------------
 --------------------------------------------------
              Lattice Vectors (Angstroms)
              X            Y            Z
 --------------------------------------------------
   X       0.000000     2.005000     2.005000
   Y       2.005000     0.000000     2.005000
   Z       2.005000     2.005000     0.000000
 --------------------------------------------------
 --------------------------------------------------
       Reciprocal Lattice Vectors (Angstroms^-1)
              X            Y            Z
 --------------------------------------------------
   X      -1.566879     1.566879     1.566879
   Y       1.566879    -1.566879     1.566879
   Z       1.566879     1.566879    -1.566879
 --------------------------------------------------

 Single point calculation requested

 Hamiltonian contributions:
 List of terms in Hamiltonian: kpts_nn, kpts_kinetic, kpts_vnuc_df, kpts_xc, kpts_rij_bigmem

 K-Points calculation started.

 Basis set information about using solid harmonic (1) or Cartesian (0):
  li : D(1) D(1) F(1) 
  f : D(1) D(1) D(1) F(1) F(1) G(1) 

 Basis set information about using solid harmonic (1) or Cartesian (0):
  li : D(1) D(1) D(1) F(1) G(1) 
  f : D(1) D(1) D(1) F(1) G(1) 

 There are 92 basis functions in the central unit cell.
 Print atomic basis of atoms in the central unit cell:
 -------------------------------------------------------------
2 53 53 30

  0.00000000000000e+00  0.00000000000000e+00  0.00000000000000e+00
  3.78890087987467e+00  0.00000000000000e+00  0.00000000000000e+00

  1.48539770850000e+04
  2.22522364770000e+03
  5.04887390080000e+02
  1.42458475480000e+02
  4.63155995800000e+01
  1.66553354740000e+01
  6.43311861990000e+00
  2.60270438580000e+00
  1.08972454050000e+00
  4.42365959710000e+00
  1.23563949900000e+00
  4.60674706020000e-01
  9.66171669550000e-02
  4.59154522960000e-02
  2.11400487300000e-02
  3.26051092060000e+00
  6.50030431150000e-01
  1.69416710730000e-01
  3.32700000000000e+00
  5.57323437670000e-02
  2.04899592410000e-02
  2.30000000000000e-01
  7.57000000000000e-02
  1.35000000000000e-01
  1.32535973450000e+05
  1.97581125880000e+04
  4.48519969470000e+03
  1.27381510200000e+03
  4.18938312360000e+02
  1.52557219850000e+02
  5.98215248230000e+01
  2.48190769320000e+01
  1.00744466730000e+02
  3.01037282900000e+01
  1.08142832720000e+01
  4.81728867700000e+00
  1.65593342130000e+00
  6.48935195820000e-01
  2.47781045450000e-01
  2.40966541140000e+02
  5.70206997810000e+01
  1.81269521200000e+01
  6.64574046210000e+00
  2.63757228920000e+00
  1.06382172000000e+00
  4.19325627500000e-01
  1.57475882990000e-01
  5.01400000000000e+00
  1.72500000000000e+00
  5.86000000000000e-01
  3.56200000000000e+00
  1.14800000000000e+00
  2.37600000000000e+00

  4.67593013229757e-02
  8.76137465723478e-02
  1.51821576860780e-01
  2.46527731442678e-01
  3.74140539449148e-01
  5.14323804423000e-01
  6.00677517411378e-01
  5.44460466941871e-01
  3.21097242154446e-01
  2.72734215356930e-01
  7.53702662810338e-01
  3.98525272814913e-01
  1.23509628755786e-01
  7.06934606713439e-02
  3.95129614058778e-02
  2.22230636644090e-01
  1.62952044217479e-01
  1.33842808684561e-01
  6.40480761295544e+00
  3.85988372286674e-02
  1.10501063034648e-02
  1.25728336426159e-01
  1.79815549832937e-02
  1.62631785032468e-02
  3.86107783813291e-01
  7.24648975903829e-01
  1.25045495963763e+00
  2.01518764389143e+00
  3.04056815166578e+00
  4.21268576129244e+00
  5.00944268647146e+00
  4.54693835849554e+00
  2.32503271092484e+00
  8.41440806306271e+00
  4.25019052011886e+00
  2.31745919743391e+00
  1.04038060130896e+00
  5.15301123337211e-01
  2.50300174847139e-01
  3.49166780573024e+00
  4.61886090108967e+00
  5.17964869303152e+00
  4.78626212475628e+00
  3.24578400123904e+00
  1.54001926672016e+00
  4.80982576947690e-01
  1.41402684040663e-01
  2.76523492268872e+01
  4.27356565232165e+00
  6.45996677345861e-01
  2.56605380682814e+01
  2.00827738540458e+00
  1.20230076986570e+01

0 0 0 0 1 1 1
0 0 
9 0

0 1 1 9 1 1 1
9 0 
2 0

0 2 2 11 1 1 1
11 0 
1 0

0 3 3 12 1 1 1
12 0 
1 0

0 4 4 13 1 1 1
13 0 
1 0

0 5 5 14 1 1 1
14 0 
1 0

0 6 6 15 1 3 3
15 1 
3 0

0 9 9 18 1 3 3
18 1 
1 0

0 12 12 19 1 3 3
19 1 
1 0

0 15 15 20 1 3 3
20 1 
1 0

0 18 18 21 1 5 6
21 2 
1 1

0 23 23 22 1 5 6
22 2 
1 1

0 28 28 23 1 7 10
23 3 
1 1

1 35 35 24 1 1 1
24 0 
8 0

1 36 36 32 1 1 1
32 0 
2 0

1 37 37 34 1 1 1
34 0 
1 0

1 38 38 35 1 1 1
35 0 
1 0

1 39 39 36 1 1 1
36 0 
1 0

1 40 40 37 1 1 1
37 0 
1 0

1 41 41 38 1 1 1
38 0 
1 0

1 42 42 39 1 3 3
39 1 
5 0

1 45 45 44 1 3 3
44 1 
1 0

1 48 48 45 1 3 3
45 1 
1 0

1 51 51 46 1 3 3
46 1 
1 0

1 54 54 47 1 5 6
47 2 
1 1

1 59 59 48 1 5 6
48 2 
1 1

1 64 64 49 1 5 6
49 2 
1 1

1 69 69 50 1 7 10
50 3 
1 1

1 76 76 51 1 7 10
51 3 
1 1

1 83 83 52 1 9 15
52 4 
1 1

 -------------------------------------------------------------
 Allocate 136872 B from available memory: 104857600000 B
 There are 15625 image cells after screening.
 There are 17628 image cells for CGTO evaluation after screening.
 Real-Space grid for FFT initialized based on kinetic energy cutoff (eV) = 500.0
 Real-Space grid for FFT: (8,8,8)
 There are 4913 real-space grid points.
 There are 27 batches of real-space grid points. 
 Size of each grid batch is around 128
 Grid for AFT initialized based on kinetic energy cutoff (eV) = 500.0
 Real-Space grid for AFT: (8,8,8)
 There are 4913 real-space grid points.

 There are 5912 atom-centered grid points.

 Spacegroup symmetry group: Fm-3m
 Reducing spacegroup symmetry to symmorphic group: F m -3 m
 Monkhorst-Pack mesh is [3,3,3]
 There are 27 k points.
kpoints in Bohr
-0.2763855758 -0.2763855758 -0.2763855758
-0.0000000000 0.0000000000 -0.5527711515
0.2763855758 0.2763855758 -0.8291567273
-0.0000000000 -0.5527711515 -0.0000000000
0.2763855758 -0.2763855758 -0.2763855758
0.5527711515 0.0000000000 -0.5527711515
0.2763855758 -0.8291567273 0.2763855758
0.5527711515 -0.5527711515 -0.0000000000
0.8291567273 -0.2763855758 -0.2763855758
-0.5527711515 0.0000000000 0.0000000000
-0.2763855758 0.2763855758 -0.2763855758
-0.0000000000 0.5527711515 -0.5527711515
-0.2763855758 -0.2763855758 0.2763855758
0.0000000000 0.0000000000 0.0000000000
0.2763855758 0.2763855758 -0.2763855758
0.0000000000 -0.5527711515 0.5527711515
0.2763855758 -0.2763855758 0.2763855758
0.5527711515 -0.0000000000 0.0000000000
-0.8291567273 0.2763855758 0.2763855758
-0.5527711515 0.5527711515 0.0000000000
-0.2763855758 0.8291567273 -0.2763855758
-0.5527711515 -0.0000000000 0.5527711515
-0.2763855758 0.2763855758 0.2763855758
0.0000000000 0.5527711515 0.0000000000
-0.2763855758 -0.2763855758 0.8291567273
0.0000000000 -0.0000000000 0.5527711515
0.2763855758 0.2763855758 0.2763855758
 There are 6 alpha and 6 beta electrons
 Start computing overlap matrix
 Allocate 3656448 B from available memory: 104857463136 B
 Time for computing overlap matrix: 29.9590000000 s
 ====== Initialize compute kernels for all-electron RI-J (kpts) ====== 
 ========================================================== 
 Range-separated parameter omega        = 0.900000000000000022
 Threshold for 1e2c shellpair           = 0.000000000000010000
 Threshold for 2e2c SR integral         = 0.000000000000000001
 Threshold for 2e3c SR integral         = 0.000000000100000000
 Threshold for AFT G-space screening is = 0.000000000001000000
 The exponent cutoff for C/D classification (omega2 / 2) is  = 0.405000000000000027
 ========================================================== 
 === Post process the basis set for RI calculation (exp_cutoff = 0.405000000000000027 ) === 
nshells_b1 before uncontraction = 30
nshells_b1 after uncontraction = 31
nshells_baux before uncontraction = 28
nshells_baux after uncontraction = 28
===============================================
nbsf total   = 95
nbsf compact = 62
nbsf diffuse = 33
naux total   = 96
naux compact = 96
naux diffuse = 0
nshells_bnuc = 2

 Number of unique atoms is 2
 Unique atom #0 (li) has 5 shells.
 Unique atom #1 (f) has 15 shells.

Shell 0 to 4 belongs to atom li
Shell 5 to 19 belongs to atom f

 Number of unique atoms is 2
 Unique atom #0 (li) has 9 shells.
 Unique atom #1 (f) has 2 shells.

Shell 0 to 8 belongs to atom li
Shell 9 to 10 belongs to atom f

 Number of unique atom is 2
 Unique atom #0 (li) has 13 auxiliary shells.
 Unique atom #1 (f) has 15 auxiliary shells.

Auxiliary Shell 0 to 12 belongs to atom li
Auxiliary Shell 13 to 27 belongs to atom f

================= Automatically determine grid size for reciprocal space summation =================
 Range-separated parameter = 0.90000000000000 and G-space screening threshold = 0.00000000000100
The number of grid points along each axis dimension is (7, 7, 7)
Total number of grid points = 3375

Use nonortho shellpair for diffuse density
======== Initializing relevant kernel for RIJ (DD type) ========
There are 66 shellpairs in the reference unit cell
There are 25941 images and we expect to have 1712106 in total
There are 76578 shellpairs in the lattice sum after screening
======== Initializing relevant kernel for RIJ (CD type) ========
There are 220 shellpairs in the reference unit cell
There are 14723 images and we expect to have 3239060 in total
There are 127133 shellpairs in the lattice sum after screening
****** AFT -> SR ******
Maximum bra distance cutoff is 39.000000000000
Maximum bra ket distance cutoff is 19.798524149198
Maximum bra ket screening distance is 18.500000000000
Number of auxiliary image is 3829
There are 220 shellpairs in the reference unit cell
There are 3829 images and we expect to have 842380 in total
There are 127133 shellpairs in the lattice sum after screening
Available memory per thread for 2e3c calculation is 3.276681459000Gb
Finish initializing 2e3c SR with the lattice sum!
=================================================
======== Initializing relevant kernel for RIJ (CC type) ========
There are 207 shellpairs in the reference unit cell
There are 911 images and we expect to have 188577 in total
There are 3549 shellpairs in the lattice sum after screening
****** AFT -> SR ******
Maximum bra distance cutoff is 12.000000000000
Maximum bra ket distance cutoff is 19.972536543678
Maximum bra ket screening distance is 17.437500000000
Number of auxiliary image is 815
There are 207 shellpairs in the reference unit cell
There are 285 images and we expect to have 58995 in total
There are 3549 shellpairs in the lattice sum after screening
Available memory per thread for 2e3c calculation is 3.276681459000Gb
Finish initializing 2e3c SR with the lattice sum!
=================================================
======== Initializing the SR component for Vnuc (CD type) ========
Maximum bra distance cutoff is 39.000000000000
Maximum bra ket distance cutoff is 11.063391972349
Maximum bra ket screening distance is 9.533997011915
Number of auxiliary image is 3829
There are 220 shellpairs in the reference unit cell
There are 3829 images and we expect to have 842380 in total
There are 127133 shellpairs in the lattice sum after screening
Available memory per thread for 2e3c calculation is 3.276681459000Gb
Finish initializing 2e3c SR with the lattice sum!
=================================================
======== Initialize the SR component for Vnuc (CC type) ========
Maximum bra distance cutoff is 12.000000000000
Maximum bra ket distance cutoff is 12.009370768794
Maximum bra ket screening distance is 7.998388684828
Number of auxiliary image is 285
There are 207 shellpairs in the reference unit cell
There are 285 images and we expect to have 58995 in total
There are 3549 shellpairs in the lattice sum after screening
Available memory per thread for 2e3c calculation is 3.276681459000Gb
Finish initializing 2e3c SR with the lattice sum!
=================================================
 Aufbau occupation scheme, occupation determined by eigenvalue
 == 0-th k-point nmo = 83 (-0.27639,-0.27639,-0.27639) ==
 == 1-th k-point nmo = 81 (-0.00000,0.00000,-0.55277) ==
 == 2-th k-point nmo = 83 (0.27639,0.27639,-0.82916) ==
 == 3-th k-point nmo = 81 (-0.00000,-0.55277,-0.00000) ==
 == 4-th k-point nmo = 83 (0.27639,-0.27639,-0.27639) ==
 == 5-th k-point nmo = 83 (0.55277,0.00000,-0.55277) ==
 == 6-th k-point nmo = 83 (0.27639,-0.82916,0.27639) ==
 == 7-th k-point nmo = 83 (0.55277,-0.55277,-0.00000) ==
 == 8-th k-point nmo = 83 (0.82916,-0.27639,-0.27639) ==
 == 9-th k-point nmo = 81 (-0.55277,0.00000,0.00000) ==
 == 10-th k-point nmo = 83 (-0.27639,0.27639,-0.27639) ==
 == 11-th k-point nmo = 83 (-0.00000,0.55277,-0.55277) ==
 == 12-th k-point nmo = 83 (-0.27639,-0.27639,0.27639) ==
 == 13-th k-point nmo = 83 (0.00000,0.00000,0.00000) ==
 == 14-th k-point nmo = 83 (0.27639,0.27639,-0.27639) ==
 == 15-th k-point nmo = 83 (0.00000,-0.55277,0.55277) ==
 == 16-th k-point nmo = 83 (0.27639,-0.27639,0.27639) ==
 == 17-th k-point nmo = 81 (0.55277,-0.00000,0.00000) ==
 == 18-th k-point nmo = 83 (-0.82916,0.27639,0.27639) ==
 == 19-th k-point nmo = 83 (-0.55277,0.55277,0.00000) ==
 == 20-th k-point nmo = 83 (-0.27639,0.82916,-0.27639) ==
 == 21-th k-point nmo = 83 (-0.55277,-0.00000,0.55277) ==
 == 22-th k-point nmo = 83 (-0.27639,0.27639,0.27639) ==
 == 23-th k-point nmo = 81 (0.00000,0.55277,0.00000) ==
 == 24-th k-point nmo = 83 (-0.27639,-0.27639,0.82916) ==
 == 25-th k-point nmo = 81 (0.00000,-0.00000,0.55277) ==
 == 26-th k-point nmo = 83 (0.27639,0.27639,0.27639) ==

 Generate autoSAD guess
backing up fragment data
Atom # 0: li, charge: 0, multiplicity: 2.000000
Atom # 1: f, charge: 0, multiplicity: 2.000000
writing autosad to fragment context
Settings for isolated fragments: 
  frgm_gamma: TRUE
  frgm_center: FALSE

    Running SCF for isolated atom #0
    Fragment Input file: /n/netscratch/joonholee_lab/Lab/hieudinh//lif_solve_def2qzvp_omega_0.9_333.scratch20250908233819/autosad_frgmt_0/frgmt_input.in
    Fragment Output file: /n/netscratch/joonholee_lab/Lab/hieudinh//lif_solve_def2qzvp_omega_0.9_333.scratch20250908233819/autosad_frgmt_0/frgmt_job.out
    Fragment job begins at Mon Sep  8 23:38:56 2025

 Integrated density by DFT XC:
   Numerical integral  =     3.000000007147
   Relative error      =     0.0000002382 %
Final energy components:
 DFT Correlation            Energy =  -0.05090044545114
 DFT Exchange               Energy =  -1.75144597421910
 Kinetic (alpha)            Energy =   3.82935284817784
 Kinetic (beta)             Energy =   3.58515893685386
 Nuclear Attraction (alpha) Energy =  -9.10791001172892
 Nuclear Attraction (beta)  Energy =  -8.01914849492518
 Nuclear Repulsion          Energy =   0.00000000000000
 SEOQF                      Energy =  -0.00000000000000
 Total Coulomb              Energy =   4.05291331077687
----------------------------------------------
    SCF Energy: -7.4619798305
   Total fragment job time:  0.39 s.
    Running SCF for isolated atom #1
    Fragment Input file: /n/netscratch/joonholee_lab/Lab/hieudinh//lif_solve_def2qzvp_omega_0.9_333.scratch20250908233819/autosad_frgmt_1/frgmt_input.in
    Fragment Output file: /n/netscratch/joonholee_lab/Lab/hieudinh//lif_solve_def2qzvp_omega_0.9_333.scratch20250908233819/autosad_frgmt_1/frgmt_job.out
    Fragment job begins at Mon Sep  8 23:38:56 2025

 Integrated density by DFT XC:
   Numerical integral  =     9.000000098353
   Relative error      =     0.0000010928 %
Final energy components:
 DFT Correlation            Energy =  -0.28943664182310
 DFT Exchange               Energy =  -9.96991500891564
 Kinetic (alpha)            Energy =  51.55258412072426
 Kinetic (beta)             Energy =  47.84820569403615
 Nuclear Attraction (alpha) Energy = -125.30574122940693
 Nuclear Attraction (beta)  Energy = -113.20186276241672
 Nuclear Repulsion          Energy =   0.00000000000000
 SEOQF                      Energy =  -0.00000000020726
 Total Coulomb              Energy =  49.69105360806785
----------------------------------------------
    SCF Energy: -99.6751122199
   Total fragment job time:  0.46 s.
restoring fragment data

 ------------------------------------------------------------------------
 Allocate 18209280 B from available memory: 104853806688 B
 Time for generating SCF guess: 0.88 s

 Allocate 446984 B from available memory: 104835597408 B
 Selected algorithms for each term:
  kpts_kinetic -> @0x15473adcc680
  kpts_nn -> @0x15473adcc800
  kpts_rij_bigmem -> @0x15473adcc3e0
  kpts_vnuc_df -> @0x15473adcc380
  kpts_xc -> @0x15473adcc2c0
 Time for computing kinetic matrix is 27.68 s
Start calculating Vnuc DD type!
Start calculating Vnuc CD type!
Start calculating Vnuc CC type!
 Time for computing nuclear attraction matrix is 63.97 s
Compute (P|Q) and use solve on the fly!
Maximum distance between P and Q is 28.75642758820560
Number of images for (P|Qn) is 1873
 Time for computing 2e2c SR integral is 0.14 s
Maximum dynamic memory per thread for 2e3c SR integrals: 0.026 GiB
Batch size for basis function pair is 2046 out of 2046
 === bvk cell = 0 has 100.000 % of the basis function pairs === 
 === bvk cell = 1 has 100.000 % of the basis function pairs === 
 === bvk cell = 2 has 100.000 % of the basis function pairs === 
 === bvk cell = 3 has 100.000 % of the basis function pairs === 
 === bvk cell = 4 has 100.000 % of the basis function pairs === 
 === bvk cell = 5 has 100.000 % of the basis function pairs === 
 === bvk cell = 6 has 100.000 % of the basis function pairs === 
 === bvk cell = 7 has 100.000 % of the basis function pairs === 
 === bvk cell = 8 has 100.000 % of the basis function pairs === 
 === bvk cell = 9 has 100.000 % of the basis function pairs === 
 === bvk cell = 10 has 100.000 % of the basis function pairs === 
 === bvk cell = 11 has 100.000 % of the basis function pairs === 
 === bvk cell = 12 has 100.000 % of the basis function pairs === 
 === bvk cell = 13 has 100.000 % of the basis function pairs === 
 === bvk cell = 14 has 100.000 % of the basis function pairs === 
 === bvk cell = 15 has 100.000 % of the basis function pairs === 
 === bvk cell = 16 has 100.000 % of the basis function pairs === 
 === bvk cell = 17 has 100.000 % of the basis function pairs === 
 === bvk cell = 18 has 100.000 % of the basis function pairs === 
 === bvk cell = 19 has 100.000 % of the basis function pairs === 
 === bvk cell = 20 has 100.000 % of the basis function pairs === 
 === bvk cell = 21 has 100.000 % of the basis function pairs === 
 === bvk cell = 22 has 100.000 % of the basis function pairs === 
 === bvk cell = 23 has 100.000 % of the basis function pairs === 
 === bvk cell = 24 has 100.000 % of the basis function pairs === 
 === bvk cell = 25 has 100.000 % of the basis function pairs === 
 === bvk cell = 26 has 100.000 % of the basis function pairs === 
Static memory requirement for 2e3c SR integrals: 0.040 GB
There are 1 munu batches for computing 2e3c SR integrals with latsum
There are 2 Q batches for computing 2e3c SR integrals with latsum
 Time for computing 2e3c SR integral (CD) is 6.23 s
Maximum dynamic memory per thread for 2e3c SR integrals: 0.013 GiB
Batch size for basis function pair is 2067 out of 2067
 === bvk cell = 0 has 100.000 % of the basis function pairs === 
 === bvk cell = 1 has 79.197 % of the basis function pairs === 
 === bvk cell = 2 has 65.506 % of the basis function pairs === 
 === bvk cell = 3 has 79.197 % of the basis function pairs === 
 === bvk cell = 4 has 22.883 % of the basis function pairs === 
 === bvk cell = 5 has 72.134 % of the basis function pairs === 
 === bvk cell = 6 has 65.506 % of the basis function pairs === 
 === bvk cell = 7 has 72.134 % of the basis function pairs === 
 === bvk cell = 8 has 16.836 % of the basis function pairs === 
 === bvk cell = 9 has 72.134 % of the basis function pairs === 
 === bvk cell = 10 has 16.836 % of the basis function pairs === 
 === bvk cell = 11 has 65.506 % of the basis function pairs === 
 === bvk cell = 12 has 16.836 % of the basis function pairs === 
 === bvk cell = 13 has 22.883 % of the basis function pairs === 
 === bvk cell = 14 has 33.817 % of the basis function pairs === 
 === bvk cell = 15 has 65.506 % of the basis function pairs === 
 === bvk cell = 16 has 33.817 % of the basis function pairs === 
 === bvk cell = 17 has 28.641 % of the basis function pairs === 
 === bvk cell = 18 has 72.134 % of the basis function pairs === 
 === bvk cell = 19 has 79.197 % of the basis function pairs === 
 === bvk cell = 20 has 22.883 % of the basis function pairs === 
 === bvk cell = 21 has 79.197 % of the basis function pairs === 
 === bvk cell = 22 has 48.524 % of the basis function pairs === 
 === bvk cell = 23 has 33.817 % of the basis function pairs === 
 === bvk cell = 24 has 22.883 % of the basis function pairs === 
 === bvk cell = 25 has 33.817 % of the basis function pairs === 
 === bvk cell = 26 has 16.836 % of the basis function pairs === 
Static memory requirement for 2e3c SR integrals: 0.020 GB
There are 1 munu batches for computing 2e3c SR integrals with latsum
There are 2 Q batches for computing 2e3c SR integrals with latsum
 Time for computing 2e3c SR integral (CC) is 0.21 s
 Time for RI-J this SCF iteration is 24.42 s
 Time for RI-J this SCF iteration is 17.72 s
 ----------------------------------------------
 Guess energy: -107.4278987801
 ----------------------------------------------
 Guess energy components:
 DFT Correlation    Energy =  -0.39274753188609
 DFT Exchange       Energy = -12.13878036999092
 Kinetic            Energy = 108.47098969599588
 Nuclear Attraction Energy = -201.36808914905163
 Nuclear Repulsion  Energy = -31.10949437582012
 Total Coulomb      Energy =  29.11022295067656
 ----------------------------------------------
  Cycle       Energy        RMS Gradient
 ----------------------------------------------
 Time for RI-J this SCF iteration is 17.66 s
    1    -107.4508109516      1.51e-01   Descent step
 Energy components after cycle 1:
 DFT Correlation    Energy =  -0.39234807548380
 DFT Exchange       Energy = -12.01669139522566
 Kinetic            Energy = 107.53334615536590
 Nuclear Attraction Energy = -199.71962346196528
 Nuclear Repulsion  Energy = -31.10949437582012
 Total Coulomb      Energy =  28.25400020157398
 Time for RI-J this SCF iteration is 17.66 s
    2    -107.4538362985      4.85e-02   Normal BFGS step
 Energy components after cycle 2:
 DFT Correlation    Energy =  -0.39203784861779
 DFT Exchange       Energy = -11.96050541523456
 Kinetic            Energy = 107.14115044377435
 Nuclear Attraction Energy = -198.96995205045178
 Nuclear Repulsion  Energy = -31.10949437582012
 Total Coulomb      Energy =  27.83700294782282
 Time for RI-J this SCF iteration is 17.75 s
    3    -107.4538450284      1.94e-03   Normal BFGS step
 Energy components after cycle 3:
 DFT Correlation    Energy =  -0.39204526360577
 DFT Exchange       Energy = -11.96082320518941
 Kinetic            Energy = 107.12906131404957
 Nuclear Attraction Energy = -198.96375003016513
 Nuclear Repulsion  Energy = -31.10949437582012
 Total Coulomb      Energy =  27.84320653230395
 Time for RI-J this SCF iteration is 17.65 s
    4    -107.4538451595      2.12e-04   Normal BFGS step
 Energy components after cycle 4:
 DFT Correlation    Energy =  -0.39204105091546
 DFT Exchange       Energy = -11.96113984534617
 Kinetic            Energy = 107.13291010323866
 Nuclear Attraction Energy = -198.96840677182257
 Nuclear Repulsion  Energy = -31.10949437582012
 Total Coulomb      Energy =  27.84432678114907
 Time for RI-J this SCF iteration is 17.71 s
    5    -107.4538451611      2.21e-05   Normal BFGS step
 Energy components after cycle 5:
 DFT Correlation    Energy =  -0.39204083676013
 DFT Exchange       Energy = -11.96109714050617
 Kinetic            Energy = 107.13264233394474
 Nuclear Attraction Energy = -198.96800422474706
 Nuclear Repulsion  Energy = -31.10949437582012
 Total Coulomb      Energy =  27.84414908281526
 Time for RI-J this SCF iteration is 17.66 s
    6    -107.4538451611      1.66e-06   Normal BFGS step
 Energy components after cycle 6:
 DFT Correlation    Energy =  -0.39204087068026
 DFT Exchange       Energy = -11.96109848700366
 Kinetic            Energy = 107.13262743215211
 Nuclear Attraction Energy = -198.96799271223171
 Nuclear Repulsion  Energy = -31.10949437582012
 Total Coulomb      Energy =  27.84415385249649
    6    -107.4538451611      1.66e-06  Convergence criterion met
 ----------------------------------------------
 Final energy components:
 DFT Correlation    Energy =  -0.39204087068026
 DFT Exchange       Energy = -11.96109848700366
 Kinetic            Energy = 107.13262743215211
 Nuclear Attraction Energy = -198.96799271223171
 Nuclear Repulsion  Energy = -31.10949437582012
 Total Coulomb      Energy =  27.84415385249649
 ----------------------------------------------
 Final energy is -107.4538451611

 SCF time:   CPU 8054.81s  wall 306.00s 
 Total wall time for computing Kinetic: 0.01 s (8)
 Total wall time for computing RIJ-BIGMEM: 148.23 s (8)
 Total wall time for computing RSDF Vnuc: 0.01 s (8)
 Total wall time for computing DFT XC: 28.05 s (8)
 ---------------------------------------------------------------------------
                        Orbital Energies (a.u.)
 ---------------------------------------------------------------------------
 == 0-th k-point (-0.27639,-0.27639,-0.27639) occupation: 6==
 -23.85732 -1.46361 -0.68333 -0.03640 0.03060 0.03060 0.43248 0.66836 0.76340 0.76340
 1.08464 1.11182 1.11182 1.39207 1.39207 1.39214 1.63763 1.75061 1.75061 1.82881
 1.98846 1.98846 2.38261 2.47513 2.57309 2.57309 2.76408 2.78590 2.78590 2.82585
 2.82585 2.87466 2.97763 3.15418 3.15418 3.76375 3.96845 3.96845 4.28075 4.73608
 4.73608 4.76469 4.79719 5.20981 5.20981 5.45728 6.25603 6.25603 6.29243 6.30527
 6.30527 6.55104 7.43779 7.43779 7.47647 8.53096 8.57920 8.57920 11.60832 11.60832
 11.62714 11.63639 11.63639 11.67018 11.68534 11.70430 11.70430 13.01533 14.91416 14.92371
 14.95491 14.95491 15.16123 15.16123 15.36343 16.69730 16.69730 16.71100 16.71100 16.77902
 17.23262 55.79380 286.55723
 == 1-th k-point (-0.00000,0.00000,-0.55277) occupation: 6==
 -23.85732 -1.46314 -0.67677 -0.04539 0.00871 0.00871 0.51267 0.68134 0.72746 0.78954
 0.78954 1.30795 1.34435 1.41133 1.41134 1.59450 1.60554 1.62199 1.62200 1.84547
 2.04222 2.04226 2.05634 2.48574 2.58845 2.58853 2.59799 2.62833 2.79893 2.84973
 2.85047 2.88495 3.13436 3.54993 3.86811 3.86811 4.12889 4.64703 4.64703 4.90870
 5.03162 5.05493 5.05517 5.06642 5.96398 6.16856 6.16858 6.18245 6.37655 6.38977
 7.70018 7.73826 7.73831 7.98937 8.42921 8.42956 11.59707 11.61810 11.61810 11.62760
 11.63620 11.64237 11.64237 11.66735 11.71613 12.70698 14.88378 14.88378 14.97439 15.06828
 15.07097 15.07100 15.10498 16.62454 16.62509 16.62510 16.76553 16.77391 16.94107 55.51594
 286.20056
 == 2-th k-point (0.27639,0.27639,-0.82916) occupation: 6==
 -23.85732 -1.46257 -0.67217 -0.04353 -0.02991 0.01581 0.54022 0.59321 0.73632 0.75573
 0.97494 1.22988 1.23947 1.35343 1.42783 1.62871 1.68782 1.86706 1.89830 1.96068
 2.01985 2.03047 2.17306 2.27614 2.34640 2.42380 2.46084 2.50131 2.64762 2.69386
 2.80023 2.88027 2.93136 3.20361 3.64204 3.67428 3.72333 3.78763 3.95882 4.72731
 4.74186 5.14288 5.36823 5.45652 5.54590 5.54747 5.63120 5.81255 6.09240 6.25246
 6.82051 7.24449 7.62082 7.71930 7.75527 8.38196 8.44835 8.50543 11.59899 11.63484
 11.63571 11.63907 11.64956 11.65247 11.65355 11.70019 11.70162 12.56192 14.89048 14.93614
 15.12090 15.26556 15.30847 15.32422 15.38227 16.24658 16.31061 16.63699 16.69360 17.18649
 17.85529 56.14784 286.99291
 == 3-th k-point (-0.00000,-0.55277,-0.00000) occupation: 6==
 -23.85732 -1.46314 -0.67677 -0.04539 0.00871 0.00871 0.51267 0.68134 0.72746 0.78954
 0.78954 1.30795 1.34435 1.41133 1.41134 1.59450 1.60554 1.62199 1.62200 1.84547
 2.04222 2.04226 2.05634 2.48574 2.58845 2.58853 2.59799 2.62833 2.79893 2.84973
 2.85047 2.88495 3.13436 3.54993 3.86811 3.86811 4.12889 4.64703 4.64703 4.90870
 5.03162 5.05493 5.05517 5.06642 5.96398 6.16856 6.16858 6.18245 6.37655 6.38977
 7.70018 7.73826 7.73831 7.98937 8.42921 8.42956 11.59707 11.61810 11.61810 11.62760
 11.63620 11.64237 11.64237 11.66735 11.71613 12.70698 14.88378 14.88378 14.97439 15.06828
 15.07097 15.07100 15.10498 16.62454 16.62509 16.62510 16.76553 16.77391 16.94107 55.51594
 286.20056
 == 4-th k-point (0.27639,-0.27639,-0.27639) occupation: 6==
 -23.85732 -1.46361 -0.68333 -0.03640 0.03060 0.03060 0.43248 0.66836 0.76340 0.76340
 1.08464 1.11182 1.11182 1.39207 1.39207 1.39214 1.63763 1.75061 1.75061 1.82874
 1.98846 1.98846 2.38259 2.47454 2.57307 2.57319 2.76441 2.78590 2.78594 2.82524
 2.82585 2.87409 2.97724 3.15415 3.15476 3.76366 3.96843 3.96846 4.27877 4.73607
 4.73607 4.76468 4.79728 5.20981 5.20991 5.45717 6.25603 6.25608 6.29241 6.30526
 6.30536 6.55051 7.43773 7.43779 7.47642 8.52935 8.57907 8.57918 11.60832 11.60832
 11.62714 11.63639 11.63639 11.67017 11.68535 11.70429 11.70430 13.01499 14.91417 14.92371
 14.95490 14.95491 15.16123 15.16124 15.36338 16.69730 16.69733 16.71100 16.71100 16.77894
 17.23239 55.79377 286.55722
 == 5-th k-point (0.55277,0.00000,-0.55277) occupation: 6==
 -23.85732 -1.46257 -0.67217 -0.04353 -0.02991 0.01581 0.54022 0.59321 0.73632 0.75573
 0.97494 1.22988 1.23947 1.35342 1.42785 1.62868 1.68784 1.86700 1.89841 1.96067
 2.02150 2.03046 2.17309 2.27614 2.34484 2.42379 2.46086 2.50128 2.64673 2.70992
 2.79999 2.88510 2.93101 3.20342 3.64209 3.67417 3.72248 3.78782 3.95274 4.72731
 4.74237 5.14224 5.36859 5.45551 5.54595 5.55580 5.63139 5.81255 6.09235 6.25233
 6.82030 7.23762 7.61575 7.71494 7.75700 8.38432 8.44847 8.50801 11.59899 11.63484
 11.63571 11.63907 11.64956 11.65248 11.65350 11.70013 11.70167 12.56181 14.89053 14.93614
 15.12082 15.26565 15.30812 15.32425 15.38397 16.24658 16.31061 16.63699 16.69354 17.18654
 17.85061 56.14714 286.99276
 == 6-th k-point (0.27639,-0.82916,0.27639) occupation: 6==
 -23.85732 -1.46257 -0.67217 -0.04353 -0.02991 0.01581 0.54022 0.59321 0.73632 0.75573
 0.97494 1.22988 1.23947 1.35343 1.42783 1.62871 1.68782 1.86706 1.89830 1.96068
 2.01985 2.03047 2.17306 2.27614 2.34640 2.42380 2.46084 2.50131 2.64762 2.69386
 2.80023 2.88027 2.93136 3.20361 3.64204 3.67428 3.72333 3.78763 3.95882 4.72731
 4.74186 5.14288 5.36823 5.45652 5.54590 5.54747 5.63120 5.81255 6.09240 6.25246
 6.82051 7.24449 7.62082 7.71930 7.75527 8.38196 8.44835 8.50543 11.59899 11.63484
 11.63571 11.63907 11.64956 11.65247 11.65355 11.70019 11.70162 12.56192 14.89048 14.93614
 15.12090 15.26556 15.30847 15.32422 15.38227 16.24658 16.31061 16.63699 16.69360 17.18649
 17.85529 56.14784 286.99291
 == 7-th k-point (0.55277,-0.55277,-0.00000) occupation: 6==
 -23.85732 -1.46257 -0.67217 -0.04353 -0.02991 0.01581 0.54022 0.59321 0.73632 0.75573
 0.97494 1.22988 1.23947 1.35342 1.42785 1.62868 1.68784 1.86700 1.89841 1.96067
 2.02150 2.03046 2.17309 2.27614 2.34484 2.42379 2.46086 2.50128 2.64673 2.70992
 2.79999 2.88510 2.93101 3.20342 3.64209 3.67417 3.72248 3.78782 3.95274 4.72731
 4.74237 5.14224 5.36859 5.45551 5.54595 5.55580 5.63139 5.81255 6.09235 6.25233
 6.82030 7.23762 7.61575 7.71494 7.75700 8.38432 8.44847 8.50801 11.59899 11.63484
 11.63571 11.63907 11.64956 11.65248 11.65350 11.70013 11.70167 12.56181 14.89053 14.93614
 15.12082 15.26565 15.30812 15.32425 15.38397 16.24658 16.31061 16.63699 16.69354 17.18654
 17.85061 56.14714 286.99276
 == 8-th k-point (0.82916,-0.27639,-0.27639) occupation: 6==
 -23.85732 -1.46257 -0.67217 -0.04353 -0.02991 0.01581 0.54022 0.59321 0.73632 0.75573
 0.97494 1.22988 1.23947 1.35343 1.42783 1.62871 1.68782 1.86706 1.89830 1.96068
 2.01985 2.03047 2.17306 2.27614 2.34640 2.42380 2.46084 2.50131 2.64762 2.69386
 2.80023 2.88027 2.93136 3.20361 3.64204 3.67428 3.72333 3.78763 3.95882 4.72731
 4.74186 5.14288 5.36823 5.45652 5.54590 5.54747 5.63120 5.81255 6.09240 6.25246
 6.82051 7.24449 7.62082 7.71930 7.75527 8.38196 8.44835 8.50543 11.59899 11.63484
 11.63571 11.63907 11.64956 11.65247 11.65355 11.70019 11.70162 12.56192 14.89048 14.93614
 15.12090 15.26556 15.30847 15.32422 15.38227 16.24658 16.31061 16.63699 16.69360 17.18649
 17.85529 56.14784 286.99291
 == 9-th k-point (-0.55277,0.00000,0.00000) occupation: 6==
 -23.85732 -1.46314 -0.67677 -0.04539 0.00871 0.00871 0.51267 0.68134 0.72746 0.78954
 0.78954 1.30795 1.34435 1.41133 1.41134 1.59450 1.60554 1.62199 1.62200 1.84547
 2.04222 2.04226 2.05634 2.48574 2.58845 2.58853 2.59799 2.62833 2.79893 2.84973
 2.85047 2.88495 3.13436 3.54993 3.86811 3.86811 4.12889 4.64703 4.64703 4.90870
 5.03162 5.05493 5.05517 5.06642 5.96398 6.16856 6.16858 6.18245 6.37655 6.38977
 7.70018 7.73826 7.73831 7.98937 8.42921 8.42956 11.59707 11.61810 11.61810 11.62760
 11.63620 11.64237 11.64237 11.66735 11.71613 12.70698 14.88378 14.88378 14.97439 15.06828
 15.07097 15.07100 15.10498 16.62454 16.62509 16.62510 16.76553 16.77391 16.94107 55.51594
 286.20056
 == 10-th k-point (-0.27639,0.27639,-0.27639) occupation: 6==
 -23.85732 -1.46361 -0.68333 -0.03640 0.03060 0.03060 0.43248 0.66836 0.76340 0.76340
 1.08464 1.11182 1.11182 1.39207 1.39207 1.39214 1.63763 1.75061 1.75061 1.82874
 1.98846 1.98846 2.38259 2.47454 2.57307 2.57319 2.76441 2.78590 2.78594 2.82524
 2.82585 2.87409 2.97724 3.15415 3.15476 3.76366 3.96843 3.96846 4.27877 4.73607
 4.73607 4.76468 4.79728 5.20981 5.20991 5.45717 6.25603 6.25608 6.29241 6.30526
 6.30536 6.55051 7.43773 7.43779 7.47642 8.52935 8.57907 8.57918 11.60832 11.60832
 11.62714 11.63639 11.63639 11.67017 11.68535 11.70429 11.70430 13.01499 14.91417 14.92371
 14.95490 14.95491 15.16123 15.16124 15.36338 16.69730 16.69733 16.71100 16.71100 16.77894
 17.23239 55.79377 286.55722
 == 11-th k-point (-0.00000,0.55277,-0.55277) occupation: 6==
 -23.85732 -1.46257 -0.67217 -0.04353 -0.02991 0.01581 0.54022 0.59321 0.73632 0.75573
 0.97494 1.22988 1.23947 1.35342 1.42785 1.62868 1.68784 1.86700 1.89841 1.96067
 2.02150 2.03046 2.17309 2.27614 2.34484 2.42379 2.46086 2.50128 2.64673 2.70992
 2.79999 2.88510 2.93101 3.20342 3.64209 3.67417 3.72248 3.78782 3.95274 4.72731
 4.74237 5.14224 5.36859 5.45551 5.54595 5.55580 5.63139 5.81255 6.09235 6.25233
 6.82030 7.23762 7.61575 7.71494 7.75700 8.38432 8.44847 8.50801 11.59899 11.63484
 11.63571 11.63907 11.64956 11.65248 11.65350 11.70013 11.70167 12.56181 14.89053 14.93614
 15.12082 15.26565 15.30812 15.32425 15.38397 16.24658 16.31061 16.63699 16.69354 17.18654
 17.85061 56.14714 286.99276
 == 12-th k-point (-0.27639,-0.27639,0.27639) occupation: 6==
 -23.85732 -1.46361 -0.68333 -0.03640 0.03060 0.03060 0.43248 0.66836 0.76340 0.76340
 1.08464 1.11182 1.11182 1.39207 1.39207 1.39214 1.63763 1.75061 1.75061 1.82874
 1.98846 1.98846 2.38259 2.47454 2.57307 2.57319 2.76441 2.78590 2.78594 2.82524
 2.82585 2.87409 2.97724 3.15415 3.15476 3.76366 3.96843 3.96846 4.27877 4.73607
 4.73607 4.76468 4.79728 5.20981 5.20991 5.45717 6.25603 6.25608 6.29241 6.30526
 6.30536 6.55051 7.43773 7.43779 7.47642 8.52935 8.57907 8.57918 11.60832 11.60832
 11.62714 11.63639 11.63639 11.67017 11.68535 11.70429 11.70430 13.01499 14.91417 14.92371
 14.95490 14.95491 15.16123 15.16124 15.36338 16.69730 16.69733 16.71100 16.71100 16.77894
 17.23239 55.79377 286.55722
 == 13-th k-point (0.00000,0.00000,0.00000) occupation: 6==
 -23.85732 -1.46532 -0.69538 0.03710 0.03710 0.03710 0.37427 0.92453 0.92453 0.92453
 0.93670 0.93670 0.93670 1.04479 1.20279 1.20279 1.70581 1.70582 1.70582 1.83664
 2.44610 2.44915 2.44915 2.55396 2.61638 2.61638 2.61639 2.63500 2.63506 2.63506
 2.93512 2.93512 3.44210 3.45634 3.45634 4.12681 4.12681 4.12681 4.45389 4.73650
 4.90527 4.90528 4.90528 5.31841 5.31841 5.31842 6.35888 6.35888 6.60982 6.61364
 6.61364 6.64184 7.77720 7.77721 7.77721 9.01114 9.01116 9.01116 11.59707 11.59707
 11.59707 11.60688 11.60688 11.63893 11.63900 11.63900 11.69048 13.99664 14.91079 14.99811
 14.99811 14.99811 15.18555 15.18555 15.18555 16.76782 16.76782 16.92610 16.92683 16.92683
 17.43293 55.82562 286.56454
 == 14-th k-point (0.27639,0.27639,-0.27639) occupation: 6==
 -23.85732 -1.46361 -0.68333 -0.03640 0.03060 0.03060 0.43248 0.66836 0.76340 0.76340
 1.08464 1.11182 1.11182 1.39207 1.39207 1.39214 1.63763 1.75061 1.75061 1.82874
 1.98846 1.98846 2.38259 2.47454 2.57307 2.57319 2.76441 2.78590 2.78594 2.82524
 2.82585 2.87409 2.97724 3.15415 3.15476 3.76366 3.96843 3.96846 4.27877 4.73607
 4.73607 4.76468 4.79728 5.20981 5.20991 5.45717 6.25603 6.25608 6.29241 6.30526
 6.30536 6.55051 7.43773 7.43779 7.47642 8.52935 8.57907 8.57918 11.60832 11.60832
 11.62714 11.63639 11.63639 11.67017 11.68535 11.70429 11.70430 13.01499 14.91417 14.92371
 14.95490 14.95491 15.16123 15.16124 15.36338 16.69730 16.69733 16.71100 16.71100 16.77894
 17.23239 55.79377 286.55722
 == 15-th k-point (0.00000,-0.55277,0.55277) occupation: 6==
 -23.85732 -1.46257 -0.67217 -0.04353 -0.02991 0.01581 0.54022 0.59321 0.73632 0.75573
 0.97494 1.22988 1.23947 1.35342 1.42785 1.62868 1.68784 1.86700 1.89841 1.96067
 2.02150 2.03046 2.17309 2.27614 2.34484 2.42379 2.46086 2.50128 2.64673 2.70992
 2.79999 2.88510 2.93101 3.20342 3.64209 3.67417 3.72248 3.78782 3.95274 4.72731
 4.74237 5.14224 5.36859 5.45551 5.54595 5.55580 5.63139 5.81255 6.09235 6.25233
 6.82030 7.23762 7.61575 7.71494 7.75700 8.38432 8.44847 8.50801 11.59899 11.63484
 11.63571 11.63907 11.64956 11.65248 11.65350 11.70013 11.70167 12.56181 14.89053 14.93614
 15.12082 15.26565 15.30812 15.32425 15.38397 16.24658 16.31061 16.63699 16.69354 17.18654
 17.85061 56.14714 286.99276
 == 16-th k-point (0.27639,-0.27639,0.27639) occupation: 6==
 -23.85732 -1.46361 -0.68333 -0.03640 0.03060 0.03060 0.43248 0.66836 0.76340 0.76340
 1.08464 1.11182 1.11182 1.39207 1.39207 1.39214 1.63763 1.75061 1.75061 1.82874
 1.98846 1.98846 2.38259 2.47454 2.57307 2.57319 2.76441 2.78590 2.78594 2.82524
 2.82585 2.87409 2.97724 3.15415 3.15476 3.76366 3.96843 3.96846 4.27877 4.73607
 4.73607 4.76468 4.79728 5.20981 5.20991 5.45717 6.25603 6.25608 6.29241 6.30526
 6.30536 6.55051 7.43773 7.43779 7.47642 8.52935 8.57907 8.57918 11.60832 11.60832
 11.62714 11.63639 11.63639 11.67017 11.68535 11.70429 11.70430 13.01499 14.91417 14.92371
 14.95490 14.95491 15.16123 15.16124 15.36338 16.69730 16.69733 16.71100 16.71100 16.77894
 17.23239 55.79377 286.55722
 == 17-th k-point (0.55277,-0.00000,0.00000) occupation: 6==
 -23.85732 -1.46314 -0.67677 -0.04539 0.00871 0.00871 0.51267 0.68134 0.72746 0.78954
 0.78954 1.30795 1.34435 1.41133 1.41134 1.59450 1.60554 1.62199 1.62200 1.84547
 2.04222 2.04226 2.05634 2.48574 2.58845 2.58853 2.59799 2.62833 2.79893 2.84973
 2.85047 2.88495 3.13436 3.54993 3.86811 3.86811 4.12889 4.64703 4.64703 4.90870
 5.03162 5.05493 5.05517 5.06642 5.96398 6.16856 6.16858 6.18245 6.37655 6.38977
 7.70018 7.73826 7.73831 7.98937 8.42921 8.42956 11.59707 11.61810 11.61810 11.62760
 11.63620 11.64237 11.64237 11.66735 11.71613 12.70698 14.88378 14.88378 14.97439 15.06828
 15.07097 15.07100 15.10498 16.62454 16.62509 16.62510 16.76553 16.77391 16.94107 55.51594
 286.20056
 == 18-th k-point (-0.82916,0.27639,0.27639) occupation: 6==
 -23.85732 -1.46257 -0.67217 -0.04353 -0.02991 0.01581 0.54022 0.59321 0.73632 0.75573
 0.97494 1.22988 1.23947 1.35343 1.42783 1.62871 1.68782 1.86706 1.89830 1.96068
 2.01985 2.03047 2.17306 2.27614 2.34640 2.42380 2.46084 2.50131 2.64762 2.69386
 2.80023 2.88027 2.93136 3.20361 3.64204 3.67428 3.72333 3.78763 3.95882 4.72731
 4.74186 5.14288 5.36823 5.45652 5.54590 5.54747 5.63120 5.81255 6.09240 6.25246
 6.82051 7.24449 7.62082 7.71930 7.75527 8.38196 8.44835 8.50543 11.59899 11.63484
 11.63571 11.63907 11.64956 11.65247 11.65355 11.70019 11.70162 12.56192 14.89048 14.93614
 15.12090 15.26556 15.30847 15.32422 15.38227 16.24658 16.31061 16.63699 16.69360 17.18649
 17.85529 56.14784 286.99291
 == 19-th k-point (-0.55277,0.55277,0.00000) occupation: 6==
 -23.85732 -1.46257 -0.67217 -0.04353 -0.02991 0.01581 0.54022 0.59321 0.73632 0.75573
 0.97494 1.22988 1.23947 1.35342 1.42785 1.62868 1.68784 1.86700 1.89841 1.96067
 2.02150 2.03046 2.17309 2.27614 2.34484 2.42379 2.46086 2.50128 2.64673 2.70992
 2.79999 2.88510 2.93101 3.20342 3.64209 3.67417 3.72248 3.78782 3.95274 4.72731
 4.74237 5.14224 5.36859 5.45551 5.54595 5.55580 5.63139 5.81255 6.09235 6.25233
 6.82030 7.23762 7.61575 7.71494 7.75700 8.38432 8.44847 8.50801 11.59899 11.63484
 11.63571 11.63907 11.64956 11.65248 11.65350 11.70013 11.70167 12.56181 14.89053 14.93614
 15.12082 15.26565 15.30812 15.32425 15.38397 16.24658 16.31061 16.63699 16.69354 17.18654
 17.85061 56.14714 286.99276
 == 20-th k-point (-0.27639,0.82916,-0.27639) occupation: 6==
 -23.85732 -1.46257 -0.67217 -0.04353 -0.02991 0.01581 0.54022 0.59321 0.73632 0.75573
 0.97494 1.22988 1.23947 1.35343 1.42783 1.62871 1.68782 1.86706 1.89830 1.96068
 2.01985 2.03047 2.17306 2.27614 2.34640 2.42380 2.46084 2.50131 2.64762 2.69386
 2.80023 2.88027 2.93136 3.20361 3.64204 3.67428 3.72333 3.78763 3.95882 4.72731
 4.74186 5.14288 5.36823 5.45652 5.54590 5.54747 5.63120 5.81255 6.09240 6.25246
 6.82051 7.24449 7.62082 7.71930 7.75527 8.38196 8.44835 8.50543 11.59899 11.63484
 11.63571 11.63907 11.64956 11.65247 11.65355 11.70019 11.70162 12.56192 14.89048 14.93614
 15.12090 15.26556 15.30847 15.32422 15.38227 16.24658 16.31061 16.63699 16.69360 17.18649
 17.85529 56.14784 286.99291
 == 21-th k-point (-0.55277,-0.00000,0.55277) occupation: 6==
 -23.85732 -1.46257 -0.67217 -0.04353 -0.02991 0.01581 0.54022 0.59321 0.73632 0.75573
 0.97494 1.22988 1.23947 1.35342 1.42785 1.62868 1.68784 1.86700 1.89841 1.96067
 2.02150 2.03046 2.17309 2.27614 2.34484 2.42379 2.46086 2.50128 2.64673 2.70992
 2.79999 2.88510 2.93101 3.20342 3.64209 3.67417 3.72248 3.78782 3.95274 4.72731
 4.74237 5.14224 5.36859 5.45551 5.54595 5.55580 5.63139 5.81255 6.09235 6.25233
 6.82030 7.23762 7.61575 7.71494 7.75700 8.38432 8.44847 8.50801 11.59899 11.63484
 11.63571 11.63907 11.64956 11.65248 11.65350 11.70013 11.70167 12.56181 14.89053 14.93614
 15.12082 15.26565 15.30812 15.32425 15.38397 16.24658 16.31061 16.63699 16.69354 17.18654
 17.85061 56.14714 286.99276
 == 22-th k-point (-0.27639,0.27639,0.27639) occupation: 6==
 -23.85732 -1.46361 -0.68333 -0.03640 0.03060 0.03060 0.43248 0.66836 0.76340 0.76340
 1.08464 1.11182 1.11182 1.39207 1.39207 1.39214 1.63763 1.75061 1.75061 1.82874
 1.98846 1.98846 2.38259 2.47454 2.57307 2.57319 2.76441 2.78590 2.78594 2.82524
 2.82585 2.87409 2.97724 3.15415 3.15476 3.76366 3.96843 3.96846 4.27877 4.73607
 4.73607 4.76468 4.79728 5.20981 5.20991 5.45717 6.25603 6.25608 6.29241 6.30526
 6.30536 6.55051 7.43773 7.43779 7.47642 8.52935 8.57907 8.57918 11.60832 11.60832
 11.62714 11.63639 11.63639 11.67017 11.68535 11.70429 11.70430 13.01499 14.91417 14.92371
 14.95490 14.95491 15.16123 15.16124 15.36338 16.69730 16.69733 16.71100 16.71100 16.77894
 17.23239 55.79377 286.55722
 == 23-th k-point (0.00000,0.55277,0.00000) occupation: 6==
 -23.85732 -1.46314 -0.67677 -0.04539 0.00871 0.00871 0.51267 0.68134 0.72746 0.78954
 0.78954 1.30795 1.34435 1.41133 1.41134 1.59450 1.60554 1.62199 1.62200 1.84547
 2.04222 2.04226 2.05634 2.48574 2.58845 2.58853 2.59799 2.62833 2.79893 2.84973
 2.85047 2.88495 3.13436 3.54993 3.86811 3.86811 4.12889 4.64703 4.64703 4.90870
 5.03162 5.05493 5.05517 5.06642 5.96398 6.16856 6.16858 6.18245 6.37655 6.38977
 7.70018 7.73826 7.73831 7.98937 8.42921 8.42956 11.59707 11.61810 11.61810 11.62760
 11.63620 11.64237 11.64237 11.66735 11.71613 12.70698 14.88378 14.88378 14.97439 15.06828
 15.07097 15.07100 15.10498 16.62454 16.62509 16.62510 16.76553 16.77391 16.94107 55.51594
 286.20056
 == 24-th k-point (-0.27639,-0.27639,0.82916) occupation: 6==
 -23.85732 -1.46257 -0.67217 -0.04353 -0.02991 0.01581 0.54022 0.59321 0.73632 0.75573
 0.97494 1.22988 1.23947 1.35343 1.42783 1.62871 1.68782 1.86706 1.89830 1.96068
 2.01985 2.03047 2.17306 2.27614 2.34640 2.42380 2.46084 2.50131 2.64762 2.69386
 2.80023 2.88027 2.93136 3.20361 3.64204 3.67428 3.72333 3.78763 3.95882 4.72731
 4.74186 5.14288 5.36823 5.45652 5.54590 5.54747 5.63120 5.81255 6.09240 6.25246
 6.82051 7.24449 7.62082 7.71930 7.75527 8.38196 8.44835 8.50543 11.59899 11.63484
 11.63571 11.63907 11.64956 11.65247 11.65355 11.70019 11.70162 12.56192 14.89048 14.93614
 15.12090 15.26556 15.30847 15.32422 15.38227 16.24658 16.31061 16.63699 16.69360 17.18649
 17.85529 56.14784 286.99291
 == 25-th k-point (0.00000,-0.00000,0.55277) occupation: 6==
 -23.85732 -1.46314 -0.67677 -0.04539 0.00871 0.00871 0.51267 0.68134 0.72746 0.78954
 0.78954 1.30795 1.34435 1.41133 1.41134 1.59450 1.60554 1.62199 1.62200 1.84547
 2.04222 2.04226 2.05634 2.48574 2.58845 2.58853 2.59799 2.62833 2.79893 2.84973
 2.85047 2.88495 3.13436 3.54993 3.86811 3.86811 4.12889 4.64703 4.64703 4.90870
 5.03162 5.05493 5.05517 5.06642 5.96398 6.16856 6.16858 6.18245 6.37655 6.38977
 7.70018 7.73826 7.73831 7.98937 8.42921 8.42956 11.59707 11.61810 11.61810 11.62760
 11.63620 11.64237 11.64237 11.66735 11.71613 12.70698 14.88378 14.88378 14.97439 15.06828
 15.07097 15.07100 15.10498 16.62454 16.62509 16.62510 16.76553 16.77391 16.94107 55.51594
 286.20056
 == 26-th k-point (0.27639,0.27639,0.27639) occupation: 6==
 -23.85732 -1.46361 -0.68333 -0.03640 0.03060 0.03060 0.43248 0.66836 0.76340 0.76340
 1.08464 1.11182 1.11182 1.39207 1.39207 1.39214 1.63763 1.75061 1.75061 1.82881
 1.98846 1.98846 2.38261 2.47513 2.57309 2.57309 2.76408 2.78590 2.78590 2.82585
 2.82585 2.87466 2.97763 3.15418 3.15418 3.76375 3.96845 3.96845 4.28075 4.73608
 4.73608 4.76469 4.79719 5.20981 5.20981 5.45728 6.25603 6.25603 6.29243 6.30527
 6.30527 6.55104 7.43779 7.43779 7.47647 8.53096 8.57920 8.57920 11.60832 11.60832
 11.62714 11.63639 11.63639 11.67018 11.68534 11.70430 11.70430 13.01533 14.91416 14.92371
 14.95491 14.95491 15.16123 15.16123 15.36343 16.69730 16.69730 16.71100 16.71100 16.77902
 17.23262 55.79380 286.55723
 ---------------------------------------------------------------------------
 VBM is at 13-th k-point with 1.00958 eV
 CBM is at 13-th k-point with 10.18447 eV
 Band gap is 9.17489 eV


           Ground-State Mulliken Net Atomic Charges

      Atom                 Charge (a.u.)          Spin (a.u.)
   --------------------------------------------------------
      1 Li               (0.081265,-0.000000)    (0.000000,0.000000)
      2  F               (-0.081265,0.000000)    (0.000000,0.000000)
   --------------------------------------------------------
  Sum of atomic charges =     (-0.000000,-0.000000)
  Sum of spin   charges =       (0.000000,0.000000)



 Total job time:  305.83 s.
 Mon Sep  8 23:43:26 2025


        *************************************************************
        *                                                           *
        *  Thank you very much for using QCPBC. Have a nice day.    *
        *                                                           *
        *************************************************************

Running job 1 of 1
