                  Welcome to Q-Chem
           with Periodic Boundary Condition
     A Quantum Leap Into The Future Of Chemistry

 Adam Rettig, Xintian Feng, Meng-Fu Chen, Hieu Dinh, Stephen Quiton,
 Anton Ni, Paul J. Robinson, Jinghong Zhang, Joonho Lee

Contributors to earlier versions of Q-Chem not listed above:
 Evgeny Epifanovsky, Leo Cunha, Jerome F. Gonthier, Kuan-Yu Liu
 Input file: /n/netscratch/joonholee_lab/Lab/hieudinh//lif_solve_def2qzvp_omega_0.9_888.scratch20250909023000/lif_solve_def2qzvp_omega_0.9_888.0
 Scratch folder: /n/netscratch/joonholee_lab/Lab/hieudinh//lif_solve_def2qzvp_omega_0.9_888.scratch20250909023000
 Auxillary files located at: /n/holylabs/LABS/joonholee_lab/Lab/qchem_base/qcaux
 Q-Chem begins on Tue Sep  9 02:30:01 2025

 -------------------------------------------------------------
 User input:
 -------------------------------------------------------------
 $lattice
 3
 0.000000 2.005000 2.005000
 2.005000 0.000000 2.005000
 2.005000 2.005000 0.000000
 $end
 
 $unitcell
 ABSOLUTE
 0 1
 Li 0.000000 0.000000 0.000000
 F  2.005000 0.000000 0.000000
 $end
 
 $rem
 jobtype = sp
 method = pbe
 scf_convergence = 5
 scf_guess = autosad
 scf_algorithm = gdm
 basis = def2-qzvp
 aux_basis = gen
 input_bohr = false
 symmetry false
 is_basis_uctr true
 rsdf_print_level 1
 
 mp_mesh = [8,8,8]
 
 integral_direct true
 bvk_cgto true
 
 thresh 14
 mem_total 100000
 threads 32
 
 MAX_SCF_CYCLES 400
 madelung = false
 omega 0.9
 do_rij_bigmem true
 automate_g true
 print_level 10
 grid_type_xc 1
 
 thresh_1e2c_sp 1e-14
 thresh_2e3c_bra_ket_sep 1e-10
 thresh_g 1e-12
 $end
 
 $aux_basis
 Li     0
 S   7   1.00
     498.3689730              0.0207908
     162.9342738              0.0542177
      57.3246735              0.1776783
      21.6427314              0.4181150
       8.7345375              0.6535245
       3.7491039              0.5492618
       1.7006754              0.1701425
 S   1   1.00
       0.8090859             -0.0097548
 S   1   1.00
       0.4000933             -0.0050152
 S   1   1.00
       0.2035793              0.0232200
 !S   1   1.00
 !      0.1054201              0.0134535
 !S   1   1.00
 !      0.0549139              0.0006647
 P   2   1.00
      10.7024696              0.0072923
       3.6551543              0.0060940
 P   1   1.00
       1.2464013              0.0172529
 P   1   1.00
       0.4246282             -0.0160026
 P   1   1.00
       0.1446192             -0.0195111
 D   2   1.00
       1.1510647             -0.0014314
       0.6019112              0.0038969
 D   1   1.00
       0.3109573              0.0024683
 D   1   1.00
       0.1600032              0.0036451
 F   2   1.00
       0.5967918              0.0010494
       0.1790687              0.0006468
 G   1   1.00
       1.0460130             -0.0001971
 ****
 F     0
 S   7   1.00
    3514.9201549              0.1805835
    1231.2458815              0.3676084
     454.1367336              1.2707881
     175.8376258              2.8274164
      71.2081775              4.3588226
      30.0316883              2.7180994
      13.1259023             -0.0804726
 S   1   1.00
       5.9126861             -0.0023370
 S   1   1.00
       2.7284431              1.1236274
 S   1   1.00
       1.2813993              0.9999042
 S   1   1.00
       0.6082793              0.3119579
 S   1   1.00
       0.2897894              0.0312295
 P   2   1.00
      49.3740409             -0.0346332
      13.4874956             -0.0096069
 P   1   1.00
       3.9664900              0.0762067
 P   1   1.00
       1.2226629             -0.0103329
 P   1   1.00
       0.3830317              0.0018853
 D   2   1.00
      29.9719140             -0.0113316
       6.7860915             -0.0467639
 D   1   1.00
       1.8137313             -0.0167604
 D   1   1.00
       0.5157840             -0.0050777
 F   2   1.00
       2.8301877              1.0
       0.9155962              1.0
 G   1   1.00
       1.6097500             -0.0005411
 ****
 $end
 -------------------------------------------------------------
 Running PBC job

 Requested Exchange Correlation Functionals: 
  DFT Exchange:  1.00000 pbe_x
  DFT Correlation:  1.00000 pbe_c
 using 32 threads for computing.
 ---------------------------------------------------------------
      Coordinates of Atoms in Central Unit Cell (Angstroms)
    I     Atom         X            Y            Z
 ---------------------------------------------------------------
    1      Li      0.000000     0.000000     0.000000
    2       F      2.005000     0.000000     0.000000
 ---------------------------------------------------------------
 --------------------------------------------------
              Lattice Vectors (Angstroms)
              X            Y            Z
 --------------------------------------------------
   X       0.000000     2.005000     2.005000
   Y       2.005000     0.000000     2.005000
   Z       2.005000     2.005000     0.000000
 --------------------------------------------------
 --------------------------------------------------
       Reciprocal Lattice Vectors (Angstroms^-1)
              X            Y            Z
 --------------------------------------------------
   X      -1.566879     1.566879     1.566879
   Y       1.566879    -1.566879     1.566879
   Z       1.566879     1.566879    -1.566879
 --------------------------------------------------

 Single point calculation requested

 Hamiltonian contributions:
 List of terms in Hamiltonian: kpts_nn, kpts_kinetic, kpts_vnuc_df, kpts_xc, kpts_rij_bigmem

 K-Points calculation started.

 Basis set information about using solid harmonic (1) or Cartesian (0):
  li : D(1) D(1) F(1) 
  f : D(1) D(1) D(1) F(1) F(1) G(1) 

 Basis set information about using solid harmonic (1) or Cartesian (0):
  li : D(1) D(1) D(1) F(1) G(1) 
  f : D(1) D(1) D(1) F(1) G(1) 

 There are 92 basis functions in the central unit cell.
 Print atomic basis of atoms in the central unit cell:
 -------------------------------------------------------------
2 53 53 30

  0.00000000000000e+00  0.00000000000000e+00  0.00000000000000e+00
  3.78890087987467e+00  0.00000000000000e+00  0.00000000000000e+00

  1.48539770850000e+04
  2.22522364770000e+03
  5.04887390080000e+02
  1.42458475480000e+02
  4.63155995800000e+01
  1.66553354740000e+01
  6.43311861990000e+00
  2.60270438580000e+00
  1.08972454050000e+00
  4.42365959710000e+00
  1.23563949900000e+00
  4.60674706020000e-01
  9.66171669550000e-02
  4.59154522960000e-02
  2.11400487300000e-02
  3.26051092060000e+00
  6.50030431150000e-01
  1.69416710730000e-01
  3.32700000000000e+00
  5.57323437670000e-02
  2.04899592410000e-02
  2.30000000000000e-01
  7.57000000000000e-02
  1.35000000000000e-01
  1.32535973450000e+05
  1.97581125880000e+04
  4.48519969470000e+03
  1.27381510200000e+03
  4.18938312360000e+02
  1.52557219850000e+02
  5.98215248230000e+01
  2.48190769320000e+01
  1.00744466730000e+02
  3.01037282900000e+01
  1.08142832720000e+01
  4.81728867700000e+00
  1.65593342130000e+00
  6.48935195820000e-01
  2.47781045450000e-01
  2.40966541140000e+02
  5.70206997810000e+01
  1.81269521200000e+01
  6.64574046210000e+00
  2.63757228920000e+00
  1.06382172000000e+00
  4.19325627500000e-01
  1.57475882990000e-01
  5.01400000000000e+00
  1.72500000000000e+00
  5.86000000000000e-01
  3.56200000000000e+00
  1.14800000000000e+00
  2.37600000000000e+00

  4.67593013229757e-02
  8.76137465723478e-02
  1.51821576860780e-01
  2.46527731442678e-01
  3.74140539449148e-01
  5.14323804423000e-01
  6.00677517411378e-01
  5.44460466941871e-01
  3.21097242154446e-01
  2.72734215356930e-01
  7.53702662810338e-01
  3.98525272814913e-01
  1.23509628755786e-01
  7.06934606713439e-02
  3.95129614058778e-02
  2.22230636644090e-01
  1.62952044217479e-01
  1.33842808684561e-01
  6.40480761295544e+00
  3.85988372286674e-02
  1.10501063034648e-02
  1.25728336426159e-01
  1.79815549832937e-02
  1.62631785032468e-02
  3.86107783813291e-01
  7.24648975903829e-01
  1.25045495963763e+00
  2.01518764389143e+00
  3.04056815166578e+00
  4.21268576129244e+00
  5.00944268647146e+00
  4.54693835849554e+00
  2.32503271092484e+00
  8.41440806306271e+00
  4.25019052011886e+00
  2.31745919743391e+00
  1.04038060130896e+00
  5.15301123337211e-01
  2.50300174847139e-01
  3.49166780573024e+00
  4.61886090108967e+00
  5.17964869303152e+00
  4.78626212475628e+00
  3.24578400123904e+00
  1.54001926672016e+00
  4.80982576947690e-01
  1.41402684040663e-01
  2.76523492268872e+01
  4.27356565232165e+00
  6.45996677345861e-01
  2.56605380682814e+01
  2.00827738540458e+00
  1.20230076986570e+01

0 0 0 0 1 1 1
0 0 
9 0

0 1 1 9 1 1 1
9 0 
2 0

0 2 2 11 1 1 1
11 0 
1 0

0 3 3 12 1 1 1
12 0 
1 0

0 4 4 13 1 1 1
13 0 
1 0

0 5 5 14 1 1 1
14 0 
1 0

0 6 6 15 1 3 3
15 1 
3 0

0 9 9 18 1 3 3
18 1 
1 0

0 12 12 19 1 3 3
19 1 
1 0

0 15 15 20 1 3 3
20 1 
1 0

0 18 18 21 1 5 6
21 2 
1 1

0 23 23 22 1 5 6
22 2 
1 1

0 28 28 23 1 7 10
23 3 
1 1

1 35 35 24 1 1 1
24 0 
8 0

1 36 36 32 1 1 1
32 0 
2 0

1 37 37 34 1 1 1
34 0 
1 0

1 38 38 35 1 1 1
35 0 
1 0

1 39 39 36 1 1 1
36 0 
1 0

1 40 40 37 1 1 1
37 0 
1 0

1 41 41 38 1 1 1
38 0 
1 0

1 42 42 39 1 3 3
39 1 
5 0

1 45 45 44 1 3 3
44 1 
1 0

1 48 48 45 1 3 3
45 1 
1 0

1 51 51 46 1 3 3
46 1 
1 0

1 54 54 47 1 5 6
47 2 
1 1

1 59 59 48 1 5 6
48 2 
1 1

1 64 64 49 1 5 6
49 2 
1 1

1 69 69 50 1 7 10
50 3 
1 1

1 76 76 51 1 7 10
51 3 
1 1

1 83 83 52 1 9 15
52 4 
1 1

 -------------------------------------------------------------
 Allocate 136872 B from available memory: 104857600000 B
 There are 15625 image cells after screening.
 There are 17628 image cells for CGTO evaluation after screening.
 Real-Space grid for FFT initialized based on kinetic energy cutoff (eV) = 500.0
 Real-Space grid for FFT: (8,8,8)
 There are 4913 real-space grid points.
 There are 27 batches of real-space grid points. 
 Size of each grid batch is around 128
 Grid for AFT initialized based on kinetic energy cutoff (eV) = 500.0
 Real-Space grid for AFT: (8,8,8)
 There are 4913 real-space grid points.

 There are 5912 atom-centered grid points.

 Spacegroup symmetry group: Fm-3m
 Reducing spacegroup symmetry to symmorphic group: F m -3 m
 Monkhorst-Pack mesh is [8,8,8]
 There are 512 k points.
kpoints in Bohr
-0.3109337727 -0.3109337727 -0.3109337727
-0.2072891818 -0.2072891818 -0.4145783636
-0.1036445909 -0.1036445909 -0.5182229546
-0.0000000000 0.0000000000 -0.6218675455
0.1036445909 0.1036445909 -0.7255121364
0.2072891818 0.2072891818 -0.8291567273
0.3109337727 0.3109337727 -0.9328013182
0.4145783636 0.4145783636 -1.0364459091
-0.2072891818 -0.4145783636 -0.2072891818
-0.1036445909 -0.3109337727 -0.3109337727
-0.0000000000 -0.2072891818 -0.4145783636
0.1036445909 -0.1036445909 -0.5182229546
0.2072891818 0.0000000000 -0.6218675455
0.3109337727 0.1036445909 -0.7255121364
0.4145783636 0.2072891818 -0.8291567273
0.5182229546 0.3109337727 -0.9328013182
-0.1036445909 -0.5182229546 -0.1036445909
-0.0000000000 -0.4145783636 -0.2072891818
0.1036445909 -0.3109337727 -0.3109337727
0.2072891818 -0.2072891818 -0.4145783636
0.3109337727 -0.1036445909 -0.5182229546
0.4145783636 0.0000000000 -0.6218675455
0.5182229546 0.1036445909 -0.7255121364
0.6218675455 0.2072891818 -0.8291567273
-0.0000000000 -0.6218675455 -0.0000000000
0.1036445909 -0.5182229546 -0.1036445909
0.2072891818 -0.4145783636 -0.2072891818
0.3109337727 -0.3109337727 -0.3109337727
0.4145783636 -0.2072891818 -0.4145783636
0.5182229546 -0.1036445909 -0.5182229546
0.6218675455 0.0000000000 -0.6218675455
0.7255121364 0.1036445909 -0.7255121364
0.1036445909 -0.7255121364 0.1036445909
0.2072891818 -0.6218675455 -0.0000000000
0.3109337727 -0.5182229546 -0.1036445909
0.4145783636 -0.4145783636 -0.2072891818
0.5182229546 -0.3109337727 -0.3109337727
0.6218675455 -0.2072891818 -0.4145783636
0.7255121364 -0.1036445909 -0.5182229546
0.8291567273 0.0000000000 -0.6218675455
0.2072891818 -0.8291567273 0.2072891818
0.3109337727 -0.7255121364 0.1036445909
0.4145783636 -0.6218675455 -0.0000000000
0.5182229546 -0.5182229546 -0.1036445909
0.6218675455 -0.4145783636 -0.2072891818
0.7255121364 -0.3109337727 -0.3109337727
0.8291567273 -0.2072891818 -0.4145783636
0.9328013182 -0.1036445909 -0.5182229546
0.3109337727 -0.9328013182 0.3109337727
0.4145783636 -0.8291567273 0.2072891818
0.5182229546 -0.7255121364 0.1036445909
0.6218675455 -0.6218675455 -0.0000000000
0.7255121364 -0.5182229546 -0.1036445909
0.8291567273 -0.4145783636 -0.2072891818
0.9328013182 -0.3109337727 -0.3109337727
1.0364459091 -0.2072891818 -0.4145783636
0.4145783636 -1.0364459091 0.4145783636
0.5182229546 -0.9328013182 0.3109337727
0.6218675455 -0.8291567273 0.2072891818
0.7255121364 -0.7255121364 0.1036445909
0.8291567273 -0.6218675455 -0.0000000000
0.9328013182 -0.5182229546 -0.1036445909
1.0364459091 -0.4145783636 -0.2072891818
1.1400905000 -0.3109337727 -0.3109337727
-0.4145783636 -0.2072891818 -0.2072891818
-0.3109337727 -0.1036445909 -0.3109337727
-0.2072891818 0.0000000000 -0.4145783636
-0.1036445909 0.1036445909 -0.5182229546
-0.0000000000 0.2072891818 -0.6218675455
0.1036445909 0.3109337727 -0.7255121364
0.2072891818 0.4145783636 -0.8291567273
0.3109337727 0.5182229546 -0.9328013182
-0.3109337727 -0.3109337727 -0.1036445909
-0.2072891818 -0.2072891818 -0.2072891818
-0.1036445909 -0.1036445909 -0.3109337727
-0.0000000000 0.0000000000 -0.4145783636
0.1036445909 0.1036445909 -0.5182229546
0.2072891818 0.2072891818 -0.6218675455
0.3109337727 0.3109337727 -0.7255121364
0.4145783636 0.4145783636 -0.8291567273
-0.2072891818 -0.4145783636 -0.0000000000
-0.1036445909 -0.3109337727 -0.1036445909
-0.0000000000 -0.2072891818 -0.2072891818
0.1036445909 -0.1036445909 -0.3109337727
0.2072891818 0.0000000000 -0.4145783636
0.3109337727 0.1036445909 -0.5182229546
0.4145783636 0.2072891818 -0.6218675455
0.5182229546 0.3109337727 -0.7255121364
-0.1036445909 -0.5182229546 0.1036445909
-0.0000000000 -0.4145783636 -0.0000000000
0.1036445909 -0.3109337727 -0.1036445909
0.2072891818 -0.2072891818 -0.2072891818
0.3109337727 -0.1036445909 -0.3109337727
0.4145783636 0.0000000000 -0.4145783636
0.5182229546 0.1036445909 -0.5182229546
0.6218675455 0.2072891818 -0.6218675455
0.0000000000 -0.6218675455 0.2072891818
0.1036445909 -0.5182229546 0.1036445909
0.2072891818 -0.4145783636 -0.0000000000
0.3109337727 -0.3109337727 -0.1036445909
0.4145783636 -0.2072891818 -0.2072891818
0.5182229546 -0.1036445909 -0.3109337727
0.6218675455 0.0000000000 -0.4145783636
0.7255121364 0.1036445909 -0.5182229546
0.1036445909 -0.7255121364 0.3109337727
0.2072891818 -0.6218675455 0.2072891818
0.3109337727 -0.5182229546 0.1036445909
0.4145783636 -0.4145783636 -0.0000000000
0.5182229546 -0.3109337727 -0.1036445909
0.6218675455 -0.2072891818 -0.2072891818
0.7255121364 -0.1036445909 -0.3109337727
0.8291567273 0.0000000000 -0.4145783636
0.2072891818 -0.8291567273 0.4145783636
0.3109337727 -0.7255121364 0.3109337727
0.4145783636 -0.6218675455 0.2072891818
0.5182229546 -0.5182229546 0.1036445909
0.6218675455 -0.4145783636 -0.0000000000
0.7255121364 -0.3109337727 -0.1036445909
0.8291567273 -0.2072891818 -0.2072891818
0.9328013182 -0.1036445909 -0.3109337727
0.3109337727 -0.9328013182 0.5182229546
0.4145783636 -0.8291567273 0.4145783636
0.5182229546 -0.7255121364 0.3109337727
0.6218675455 -0.6218675455 0.2072891818
0.7255121364 -0.5182229546 0.1036445909
0.8291567273 -0.4145783636 -0.0000000000
0.9328013182 -0.3109337727 -0.1036445909
1.0364459091 -0.2072891818 -0.2072891818
-0.5182229546 -0.1036445909 -0.1036445909
-0.4145783636 0.0000000000 -0.2072891818
-0.3109337727 0.1036445909 -0.3109337727
-0.2072891818 0.2072891818 -0.4145783636
-0.1036445909 0.3109337727 -0.5182229546
-0.0000000000 0.4145783636 -0.6218675455
0.1036445909 0.5182229546 -0.7255121364
0.2072891818 0.6218675455 -0.8291567273
-0.4145783636 -0.2072891818 -0.0000000000
-0.3109337727 -0.1036445909 -0.1036445909
-0.2072891818 0.0000000000 -0.2072891818
-0.1036445909 0.1036445909 -0.3109337727
-0.0000000000 0.2072891818 -0.4145783636
0.1036445909 0.3109337727 -0.5182229546
0.2072891818 0.4145783636 -0.6218675455
0.3109337727 0.5182229546 -0.7255121364
-0.3109337727 -0.3109337727 0.1036445909
-0.2072891818 -0.2072891818 -0.0000000000
-0.1036445909 -0.1036445909 -0.1036445909
-0.0000000000 0.0000000000 -0.2072891818
0.1036445909 0.1036445909 -0.3109337727
0.2072891818 0.2072891818 -0.4145783636
0.3109337727 0.3109337727 -0.5182229546
0.4145783636 0.4145783636 -0.6218675455
-0.2072891818 -0.4145783636 0.2072891818
-0.1036445909 -0.3109337727 0.1036445909
-0.0000000000 -0.2072891818 -0.0000000000
0.1036445909 -0.1036445909 -0.1036445909
0.2072891818 0.0000000000 -0.2072891818
0.3109337727 0.1036445909 -0.3109337727
0.4145783636 0.2072891818 -0.4145783636
0.5182229546 0.3109337727 -0.5182229546
-0.1036445909 -0.5182229546 0.3109337727
0.0000000000 -0.4145783636 0.2072891818
0.1036445909 -0.3109337727 0.1036445909
0.2072891818 -0.2072891818 -0.0000000000
0.3109337727 -0.1036445909 -0.1036445909
0.4145783636 0.0000000000 -0.2072891818
0.5182229546 0.1036445909 -0.3109337727
0.6218675455 0.2072891818 -0.4145783636
0.0000000000 -0.6218675455 0.4145783636
0.1036445909 -0.5182229546 0.3109337727
0.2072891818 -0.4145783636 0.2072891818
0.3109337727 -0.3109337727 0.1036445909
0.4145783636 -0.2072891818 -0.0000000000
0.5182229546 -0.1036445909 -0.1036445909
0.6218675455 0.0000000000 -0.2072891818
0.7255121364 0.1036445909 -0.3109337727
0.1036445909 -0.7255121364 0.5182229546
0.2072891818 -0.6218675455 0.4145783636
0.3109337727 -0.5182229546 0.3109337727
0.4145783636 -0.4145783636 0.2072891818
0.5182229546 -0.3109337727 0.1036445909
0.6218675455 -0.2072891818 -0.0000000000
0.7255121364 -0.1036445909 -0.1036445909
0.8291567273 0.0000000000 -0.2072891818
0.2072891818 -0.8291567273 0.6218675455
0.3109337727 -0.7255121364 0.5182229546
0.4145783636 -0.6218675455 0.4145783636
0.5182229546 -0.5182229546 0.3109337727
0.6218675455 -0.4145783636 0.2072891818
0.7255121364 -0.3109337727 0.1036445909
0.8291567273 -0.2072891818 -0.0000000000
0.9328013182 -0.1036445909 -0.1036445909
-0.6218675455 0.0000000000 0.0000000000
-0.5182229546 0.1036445909 -0.1036445909
-0.4145783636 0.2072891818 -0.2072891818
-0.3109337727 0.3109337727 -0.3109337727
-0.2072891818 0.4145783636 -0.4145783636
-0.1036445909 0.5182229546 -0.5182229546
-0.0000000000 0.6218675455 -0.6218675455
0.1036445909 0.7255121364 -0.7255121364
-0.5182229546 -0.1036445909 0.1036445909
-0.4145783636 0.0000000000 0.0000000000
-0.3109337727 0.1036445909 -0.1036445909
-0.2072891818 0.2072891818 -0.2072891818
-0.1036445909 0.3109337727 -0.3109337727
-0.0000000000 0.4145783636 -0.4145783636
0.1036445909 0.5182229546 -0.5182229546
0.2072891818 0.6218675455 -0.6218675455
-0.4145783636 -0.2072891818 0.2072891818
-0.3109337727 -0.1036445909 0.1036445909
-0.2072891818 0.0000000000 0.0000000000
-0.1036445909 0.1036445909 -0.1036445909
-0.0000000000 0.2072891818 -0.2072891818
0.1036445909 0.3109337727 -0.3109337727
0.2072891818 0.4145783636 -0.4145783636
0.3109337727 0.5182229546 -0.5182229546
-0.3109337727 -0.3109337727 0.3109337727
-0.2072891818 -0.2072891818 0.2072891818
-0.1036445909 -0.1036445909 0.1036445909
0.0000000000 0.0000000000 0.0000000000
0.1036445909 0.1036445909 -0.1036445909
0.2072891818 0.2072891818 -0.2072891818
0.3109337727 0.3109337727 -0.3109337727
0.4145783636 0.4145783636 -0.4145783636
-0.2072891818 -0.4145783636 0.4145783636
-0.1036445909 -0.3109337727 0.3109337727
0.0000000000 -0.2072891818 0.2072891818
0.1036445909 -0.1036445909 0.1036445909
0.2072891818 -0.0000000000 0.0000000000
0.3109337727 0.1036445909 -0.1036445909
0.4145783636 0.2072891818 -0.2072891818
0.5182229546 0.3109337727 -0.3109337727
-0.1036445909 -0.5182229546 0.5182229546
0.0000000000 -0.4145783636 0.4145783636
0.1036445909 -0.3109337727 0.3109337727
0.2072891818 -0.2072891818 0.2072891818
0.3109337727 -0.1036445909 0.1036445909
0.4145783636 -0.0000000000 0.0000000000
0.5182229546 0.1036445909 -0.1036445909
0.6218675455 0.2072891818 -0.2072891818
0.0000000000 -0.6218675455 0.6218675455
0.1036445909 -0.5182229546 0.5182229546
0.2072891818 -0.4145783636 0.4145783636
0.3109337727 -0.3109337727 0.3109337727
0.4145783636 -0.2072891818 0.2072891818
0.5182229546 -0.1036445909 0.1036445909
0.6218675455 -0.0000000000 0.0000000000
0.7255121364 0.1036445909 -0.1036445909
0.1036445909 -0.7255121364 0.7255121364
0.2072891818 -0.6218675455 0.6218675455
0.3109337727 -0.5182229546 0.5182229546
0.4145783636 -0.4145783636 0.4145783636
0.5182229546 -0.3109337727 0.3109337727
0.6218675455 -0.2072891818 0.2072891818
0.7255121364 -0.1036445909 0.1036445909
0.8291567273 -0.0000000000 0.0000000000
-0.7255121364 0.1036445909 0.1036445909
-0.6218675455 0.2072891818 0.0000000000
-0.5182229546 0.3109337727 -0.1036445909
-0.4145783636 0.4145783636 -0.2072891818
-0.3109337727 0.5182229546 -0.3109337727
-0.2072891818 0.6218675455 -0.4145783636
-0.1036445909 0.7255121364 -0.5182229546
-0.0000000000 0.8291567273 -0.6218675455
-0.6218675455 0.0000000000 0.2072891818
-0.5182229546 0.1036445909 0.1036445909
-0.4145783636 0.2072891818 0.0000000000
-0.3109337727 0.3109337727 -0.1036445909
-0.2072891818 0.4145783636 -0.2072891818
-0.1036445909 0.5182229546 -0.3109337727
-0.0000000000 0.6218675455 -0.4145783636
0.1036445909 0.7255121364 -0.5182229546
-0.5182229546 -0.1036445909 0.3109337727
-0.4145783636 -0.0000000000 0.2072891818
-0.3109337727 0.1036445909 0.1036445909
-0.2072891818 0.2072891818 0.0000000000
-0.1036445909 0.3109337727 -0.1036445909
-0.0000000000 0.4145783636 -0.2072891818
0.1036445909 0.5182229546 -0.3109337727
0.2072891818 0.6218675455 -0.4145783636
-0.4145783636 -0.2072891818 0.4145783636
-0.3109337727 -0.1036445909 0.3109337727
-0.2072891818 -0.0000000000 0.2072891818
-0.1036445909 0.1036445909 0.1036445909
0.0000000000 0.2072891818 0.0000000000
0.1036445909 0.3109337727 -0.1036445909
0.2072891818 0.4145783636 -0.2072891818
0.3109337727 0.5182229546 -0.3109337727
-0.3109337727 -0.3109337727 0.5182229546
-0.2072891818 -0.2072891818 0.4145783636
-0.1036445909 -0.1036445909 0.3109337727
0.0000000000 -0.0000000000 0.2072891818
0.1036445909 0.1036445909 0.1036445909
0.2072891818 0.2072891818 0.0000000000
0.3109337727 0.3109337727 -0.1036445909
0.4145783636 0.4145783636 -0.2072891818
-0.2072891818 -0.4145783636 0.6218675455
-0.1036445909 -0.3109337727 0.5182229546
0.0000000000 -0.2072891818 0.4145783636
0.1036445909 -0.1036445909 0.3109337727
0.2072891818 -0.0000000000 0.2072891818
0.3109337727 0.1036445909 0.1036445909
0.4145783636 0.2072891818 0.0000000000
0.5182229546 0.3109337727 -0.1036445909
-0.1036445909 -0.5182229546 0.7255121364
0.0000000000 -0.4145783636 0.6218675455
0.1036445909 -0.3109337727 0.5182229546
0.2072891818 -0.2072891818 0.4145783636
0.3109337727 -0.1036445909 0.3109337727
0.4145783636 -0.0000000000 0.2072891818
0.5182229546 0.1036445909 0.1036445909
0.6218675455 0.2072891818 0.0000000000
0.0000000000 -0.6218675455 0.8291567273
0.1036445909 -0.5182229546 0.7255121364
0.2072891818 -0.4145783636 0.6218675455
0.3109337727 -0.3109337727 0.5182229546
0.4145783636 -0.2072891818 0.4145783636
0.5182229546 -0.1036445909 0.3109337727
0.6218675455 -0.0000000000 0.2072891818
0.7255121364 0.1036445909 0.1036445909
-0.8291567273 0.2072891818 0.2072891818
-0.7255121364 0.3109337727 0.1036445909
-0.6218675455 0.4145783636 0.0000000000
-0.5182229546 0.5182229546 -0.1036445909
-0.4145783636 0.6218675455 -0.2072891818
-0.3109337727 0.7255121364 -0.3109337727
-0.2072891818 0.8291567273 -0.4145783636
-0.1036445909 0.9328013182 -0.5182229546
-0.7255121364 0.1036445909 0.3109337727
-0.6218675455 0.2072891818 0.2072891818
-0.5182229546 0.3109337727 0.1036445909
-0.4145783636 0.4145783636 0.0000000000
-0.3109337727 0.5182229546 -0.1036445909
-0.2072891818 0.6218675455 -0.2072891818
-0.1036445909 0.7255121364 -0.3109337727
-0.0000000000 0.8291567273 -0.4145783636
-0.6218675455 0.0000000000 0.4145783636
-0.5182229546 0.1036445909 0.3109337727
-0.4145783636 0.2072891818 0.2072891818
-0.3109337727 0.3109337727 0.1036445909
-0.2072891818 0.4145783636 0.0000000000
-0.1036445909 0.5182229546 -0.1036445909
0.0000000000 0.6218675455 -0.2072891818
0.1036445909 0.7255121364 -0.3109337727
-0.5182229546 -0.1036445909 0.5182229546
-0.4145783636 -0.0000000000 0.4145783636
-0.3109337727 0.1036445909 0.3109337727
-0.2072891818 0.2072891818 0.2072891818
-0.1036445909 0.3109337727 0.1036445909
0.0000000000 0.4145783636 0.0000000000
0.1036445909 0.5182229546 -0.1036445909
0.2072891818 0.6218675455 -0.2072891818
-0.4145783636 -0.2072891818 0.6218675455
-0.3109337727 -0.1036445909 0.5182229546
-0.2072891818 -0.0000000000 0.4145783636
-0.1036445909 0.1036445909 0.3109337727
0.0000000000 0.2072891818 0.2072891818
0.1036445909 0.3109337727 0.1036445909
0.2072891818 0.4145783636 0.0000000000
0.3109337727 0.5182229546 -0.1036445909
-0.3109337727 -0.3109337727 0.7255121364
-0.2072891818 -0.2072891818 0.6218675455
-0.1036445909 -0.1036445909 0.5182229546
0.0000000000 -0.0000000000 0.4145783636
0.1036445909 0.1036445909 0.3109337727
0.2072891818 0.2072891818 0.2072891818
0.3109337727 0.3109337727 0.1036445909
0.4145783636 0.4145783636 0.0000000000
-0.2072891818 -0.4145783636 0.8291567273
-0.1036445909 -0.3109337727 0.7255121364
0.0000000000 -0.2072891818 0.6218675455
0.1036445909 -0.1036445909 0.5182229546
0.2072891818 -0.0000000000 0.4145783636
0.3109337727 0.1036445909 0.3109337727
0.4145783636 0.2072891818 0.2072891818
0.5182229546 0.3109337727 0.1036445909
-0.1036445909 -0.5182229546 0.9328013182
0.0000000000 -0.4145783636 0.8291567273
0.1036445909 -0.3109337727 0.7255121364
0.2072891818 -0.2072891818 0.6218675455
0.3109337727 -0.1036445909 0.5182229546
0.4145783636 -0.0000000000 0.4145783636
0.5182229546 0.1036445909 0.3109337727
0.6218675455 0.2072891818 0.2072891818
-0.9328013182 0.3109337727 0.3109337727
-0.8291567273 0.4145783636 0.2072891818
-0.7255121364 0.5182229546 0.1036445909
-0.6218675455 0.6218675455 0.0000000000
-0.5182229546 0.7255121364 -0.1036445909
-0.4145783636 0.8291567273 -0.2072891818
-0.3109337727 0.9328013182 -0.3109337727
-0.2072891818 1.0364459091 -0.4145783636
-0.8291567273 0.2072891818 0.4145783636
-0.7255121364 0.3109337727 0.3109337727
-0.6218675455 0.4145783636 0.2072891818
-0.5182229546 0.5182229546 0.1036445909
-0.4145783636 0.6218675455 0.0000000000
-0.3109337727 0.7255121364 -0.1036445909
-0.2072891818 0.8291567273 -0.2072891818
-0.1036445909 0.9328013182 -0.3109337727
-0.7255121364 0.1036445909 0.5182229546
-0.6218675455 0.2072891818 0.4145783636
-0.5182229546 0.3109337727 0.3109337727
-0.4145783636 0.4145783636 0.2072891818
-0.3109337727 0.5182229546 0.1036445909
-0.2072891818 0.6218675455 0.0000000000
-0.1036445909 0.7255121364 -0.1036445909
0.0000000000 0.8291567273 -0.2072891818
-0.6218675455 -0.0000000000 0.6218675455
-0.5182229546 0.1036445909 0.5182229546
-0.4145783636 0.2072891818 0.4145783636
-0.3109337727 0.3109337727 0.3109337727
-0.2072891818 0.4145783636 0.2072891818
-0.1036445909 0.5182229546 0.1036445909
0.0000000000 0.6218675455 0.0000000000
0.1036445909 0.7255121364 -0.1036445909
-0.5182229546 -0.1036445909 0.7255121364
-0.4145783636 -0.0000000000 0.6218675455
-0.3109337727 0.1036445909 0.5182229546
-0.2072891818 0.2072891818 0.4145783636
-0.1036445909 0.3109337727 0.3109337727
0.0000000000 0.4145783636 0.2072891818
0.1036445909 0.5182229546 0.1036445909
0.2072891818 0.6218675455 0.0000000000
-0.4145783636 -0.2072891818 0.8291567273
-0.3109337727 -0.1036445909 0.7255121364
-0.2072891818 -0.0000000000 0.6218675455
-0.1036445909 0.1036445909 0.5182229546
0.0000000000 0.2072891818 0.4145783636
0.1036445909 0.3109337727 0.3109337727
0.2072891818 0.4145783636 0.2072891818
0.3109337727 0.5182229546 0.1036445909
-0.3109337727 -0.3109337727 0.9328013182
-0.2072891818 -0.2072891818 0.8291567273
-0.1036445909 -0.1036445909 0.7255121364
0.0000000000 -0.0000000000 0.6218675455
0.1036445909 0.1036445909 0.5182229546
0.2072891818 0.2072891818 0.4145783636
0.3109337727 0.3109337727 0.3109337727
0.4145783636 0.4145783636 0.2072891818
-0.2072891818 -0.4145783636 1.0364459091
-0.1036445909 -0.3109337727 0.9328013182
0.0000000000 -0.2072891818 0.8291567273
0.1036445909 -0.1036445909 0.7255121364
0.2072891818 -0.0000000000 0.6218675455
0.3109337727 0.1036445909 0.5182229546
0.4145783636 0.2072891818 0.4145783636
0.5182229546 0.3109337727 0.3109337727
-1.0364459091 0.4145783636 0.4145783636
-0.9328013182 0.5182229546 0.3109337727
-0.8291567273 0.6218675455 0.2072891818
-0.7255121364 0.7255121364 0.1036445909
-0.6218675455 0.8291567273 0.0000000000
-0.5182229546 0.9328013182 -0.1036445909
-0.4145783636 1.0364459091 -0.2072891818
-0.3109337727 1.1400905000 -0.3109337727
-0.9328013182 0.3109337727 0.5182229546
-0.8291567273 0.4145783636 0.4145783636
-0.7255121364 0.5182229546 0.3109337727
-0.6218675455 0.6218675455 0.2072891818
-0.5182229546 0.7255121364 0.1036445909
-0.4145783636 0.8291567273 0.0000000000
-0.3109337727 0.9328013182 -0.1036445909
-0.2072891818 1.0364459091 -0.2072891818
-0.8291567273 0.2072891818 0.6218675455
-0.7255121364 0.3109337727 0.5182229546
-0.6218675455 0.4145783636 0.4145783636
-0.5182229546 0.5182229546 0.3109337727
-0.4145783636 0.6218675455 0.2072891818
-0.3109337727 0.7255121364 0.1036445909
-0.2072891818 0.8291567273 0.0000000000
-0.1036445909 0.9328013182 -0.1036445909
-0.7255121364 0.1036445909 0.7255121364
-0.6218675455 0.2072891818 0.6218675455
-0.5182229546 0.3109337727 0.5182229546
-0.4145783636 0.4145783636 0.4145783636
-0.3109337727 0.5182229546 0.3109337727
-0.2072891818 0.6218675455 0.2072891818
-0.1036445909 0.7255121364 0.1036445909
0.0000000000 0.8291567273 0.0000000000
-0.6218675455 -0.0000000000 0.8291567273
-0.5182229546 0.1036445909 0.7255121364
-0.4145783636 0.2072891818 0.6218675455
-0.3109337727 0.3109337727 0.5182229546
-0.2072891818 0.4145783636 0.4145783636
-0.1036445909 0.5182229546 0.3109337727
0.0000000000 0.6218675455 0.2072891818
0.1036445909 0.7255121364 0.1036445909
-0.5182229546 -0.1036445909 0.9328013182
-0.4145783636 -0.0000000000 0.8291567273
-0.3109337727 0.1036445909 0.7255121364
-0.2072891818 0.2072891818 0.6218675455
-0.1036445909 0.3109337727 0.5182229546
0.0000000000 0.4145783636 0.4145783636
0.1036445909 0.5182229546 0.3109337727
0.2072891818 0.6218675455 0.2072891818
-0.4145783636 -0.2072891818 1.0364459091
-0.3109337727 -0.1036445909 0.9328013182
-0.2072891818 -0.0000000000 0.8291567273
-0.1036445909 0.1036445909 0.7255121364
0.0000000000 0.2072891818 0.6218675455
0.1036445909 0.3109337727 0.5182229546
0.2072891818 0.4145783636 0.4145783636
0.3109337727 0.5182229546 0.3109337727
-0.3109337727 -0.3109337727 1.1400905000
-0.2072891818 -0.2072891818 1.0364459091
-0.1036445909 -0.1036445909 0.9328013182
0.0000000000 -0.0000000000 0.8291567273
0.1036445909 0.1036445909 0.7255121364
0.2072891818 0.2072891818 0.6218675455
0.3109337727 0.3109337727 0.5182229546
0.4145783636 0.4145783636 0.4145783636
 There are 6 alpha and 6 beta electrons
 Start computing overlap matrix
 Allocate 69337088 B from available memory: 104857463136 B
 Time for computing overlap matrix: 30.5250000000 s
 ====== Initialize compute kernels for all-electron RI-J (kpts) ====== 
 ========================================================== 
 Range-separated parameter omega        = 0.900000000000000022
 Threshold for 1e2c shellpair           = 0.000000000000010000
 Threshold for 2e2c SR integral         = 0.000000000000000001
 Threshold for 2e3c SR integral         = 0.000000000100000000
 Threshold for AFT G-space screening is = 0.000000000001000000
 The exponent cutoff for C/D classification (omega2 / 2) is  = 0.405000000000000027
 ========================================================== 
 === Post process the basis set for RI calculation (exp_cutoff = 0.405000000000000027 ) === 
nshells_b1 before uncontraction = 30
nshells_b1 after uncontraction = 31
nshells_baux before uncontraction = 28
nshells_baux after uncontraction = 28
===============================================
nbsf total   = 95
nbsf compact = 62
nbsf diffuse = 33
naux total   = 96
naux compact = 96
naux diffuse = 0
nshells_bnuc = 2

 Number of unique atoms is 2
 Unique atom #0 (li) has 5 shells.
 Unique atom #1 (f) has 15 shells.

Shell 0 to 4 belongs to atom li
Shell 5 to 19 belongs to atom f

 Number of unique atoms is 2
 Unique atom #0 (li) has 9 shells.
 Unique atom #1 (f) has 2 shells.

Shell 0 to 8 belongs to atom li
Shell 9 to 10 belongs to atom f

 Number of unique atom is 2
 Unique atom #0 (li) has 13 auxiliary shells.
 Unique atom #1 (f) has 15 auxiliary shells.

Auxiliary Shell 0 to 12 belongs to atom li
Auxiliary Shell 13 to 27 belongs to atom f

================= Automatically determine grid size for reciprocal space summation =================
 Range-separated parameter = 0.90000000000000 and G-space screening threshold = 0.00000000000100
The number of grid points along each axis dimension is (7, 7, 7)
Total number of grid points = 3375

Use nonortho shellpair for diffuse density
======== Initializing relevant kernel for RIJ (DD type) ========
There are 66 shellpairs in the reference unit cell
There are 25941 images and we expect to have 1712106 in total
There are 76578 shellpairs in the lattice sum after screening
======== Initializing relevant kernel for RIJ (CD type) ========
There are 220 shellpairs in the reference unit cell
There are 14723 images and we expect to have 3239060 in total
There are 127133 shellpairs in the lattice sum after screening
****** AFT -> SR ******
Maximum bra distance cutoff is 39.000000000000
Maximum bra ket distance cutoff is 19.798524149198
Maximum bra ket screening distance is 18.500000000000
Number of auxiliary image is 3829
There are 220 shellpairs in the reference unit cell
There are 3829 images and we expect to have 842380 in total
There are 127133 shellpairs in the lattice sum after screening
Available memory per thread for 2e3c calculation is 3.274628939000Gb
Finish initializing 2e3c SR with the lattice sum!
=================================================
======== Initializing relevant kernel for RIJ (CC type) ========
There are 207 shellpairs in the reference unit cell
There are 911 images and we expect to have 188577 in total
There are 3549 shellpairs in the lattice sum after screening
****** AFT -> SR ******
Maximum bra distance cutoff is 12.000000000000
Maximum bra ket distance cutoff is 19.972536543678
Maximum bra ket screening distance is 17.437500000000
Number of auxiliary image is 815
There are 207 shellpairs in the reference unit cell
There are 285 images and we expect to have 58995 in total
There are 3549 shellpairs in the lattice sum after screening
Available memory per thread for 2e3c calculation is 3.274628939000Gb
Finish initializing 2e3c SR with the lattice sum!
=================================================
======== Initializing the SR component for Vnuc (CD type) ========
Maximum bra distance cutoff is 39.000000000000
Maximum bra ket distance cutoff is 11.063391972349
Maximum bra ket screening distance is 9.533997011915
Number of auxiliary image is 3829
There are 220 shellpairs in the reference unit cell
There are 3829 images and we expect to have 842380 in total
There are 127133 shellpairs in the lattice sum after screening
Available memory per thread for 2e3c calculation is 3.274628939000Gb
Finish initializing 2e3c SR with the lattice sum!
=================================================
======== Initialize the SR component for Vnuc (CC type) ========
Maximum bra distance cutoff is 12.000000000000
Maximum bra ket distance cutoff is 12.009370768794
Maximum bra ket screening distance is 7.998388684828
Number of auxiliary image is 285
There are 207 shellpairs in the reference unit cell
There are 285 images and we expect to have 58995 in total
There are 3549 shellpairs in the lattice sum after screening
Available memory per thread for 2e3c calculation is 3.274628939000Gb
Finish initializing 2e3c SR with the lattice sum!
=================================================
 Aufbau occupation scheme, occupation determined by eigenvalue
 == 0-th k-point nmo = 81 (-0.31093,-0.31093,-0.31093) ==
 == 1-th k-point nmo = 82 (-0.20729,-0.20729,-0.41458) ==
 == 2-th k-point nmo = 82 (-0.10364,-0.10364,-0.51822) ==
 == 3-th k-point nmo = 81 (-0.00000,0.00000,-0.62187) ==
 == 4-th k-point nmo = 81 (0.10364,0.10364,-0.72551) ==
 == 5-th k-point nmo = 83 (0.20729,0.20729,-0.82916) ==
 == 6-th k-point nmo = 83 (0.31093,0.31093,-0.93280) ==
 == 7-th k-point nmo = 83 (0.41458,0.41458,-1.03645) ==
 == 8-th k-point nmo = 82 (-0.20729,-0.41458,-0.20729) ==
 == 9-th k-point nmo = 82 (-0.10364,-0.31093,-0.31093) ==
 == 10-th k-point nmo = 82 (-0.00000,-0.20729,-0.41458) ==
 == 11-th k-point nmo = 82 (0.10364,-0.10364,-0.51822) ==
 == 12-th k-point nmo = 81 (0.20729,0.00000,-0.62187) ==
 == 13-th k-point nmo = 82 (0.31093,0.10364,-0.72551) ==
 == 14-th k-point nmo = 82 (0.41458,0.20729,-0.82916) ==
 == 15-th k-point nmo = 82 (0.51822,0.31093,-0.93280) ==
 == 16-th k-point nmo = 82 (-0.10364,-0.51822,-0.10364) ==
 == 17-th k-point nmo = 82 (-0.00000,-0.41458,-0.20729) ==
 == 18-th k-point nmo = 82 (0.10364,-0.31093,-0.31093) ==
 == 19-th k-point nmo = 82 (0.20729,-0.20729,-0.41458) ==
 == 20-th k-point nmo = 82 (0.31093,-0.10364,-0.51822) ==
 == 21-th k-point nmo = 82 (0.41458,0.00000,-0.62187) ==
 == 22-th k-point nmo = 82 (0.51822,0.10364,-0.72551) ==
 == 23-th k-point nmo = 81 (0.62187,0.20729,-0.82916) ==
 == 24-th k-point nmo = 81 (-0.00000,-0.62187,-0.00000) ==
 == 25-th k-point nmo = 82 (0.10364,-0.51822,-0.10364) ==
 == 26-th k-point nmo = 82 (0.20729,-0.41458,-0.20729) ==
 == 27-th k-point nmo = 81 (0.31093,-0.31093,-0.31093) ==
 == 28-th k-point nmo = 83 (0.41458,-0.20729,-0.41458) ==
 == 29-th k-point nmo = 83 (0.51822,-0.10364,-0.51822) ==
 == 30-th k-point nmo = 83 (0.62187,0.00000,-0.62187) ==
 == 31-th k-point nmo = 81 (0.72551,0.10364,-0.72551) ==
 == 32-th k-point nmo = 81 (0.10364,-0.72551,0.10364) ==
 == 33-th k-point nmo = 81 (0.20729,-0.62187,-0.00000) ==
 == 34-th k-point nmo = 82 (0.31093,-0.51822,-0.10364) ==
 == 35-th k-point nmo = 83 (0.41458,-0.41458,-0.20729) ==
 == 36-th k-point nmo = 83 (0.51822,-0.31093,-0.31093) ==
 == 37-th k-point nmo = 82 (0.62187,-0.20729,-0.41458) ==
 == 38-th k-point nmo = 82 (0.72551,-0.10364,-0.51822) ==
 == 39-th k-point nmo = 82 (0.82916,0.00000,-0.62187) ==
 == 40-th k-point nmo = 83 (0.20729,-0.82916,0.20729) ==
 == 41-th k-point nmo = 82 (0.31093,-0.72551,0.10364) ==
 == 42-th k-point nmo = 82 (0.41458,-0.62187,-0.00000) ==
 == 43-th k-point nmo = 83 (0.51822,-0.51822,-0.10364) ==
 == 44-th k-point nmo = 82 (0.62187,-0.41458,-0.20729) ==
 == 45-th k-point nmo = 83 (0.72551,-0.31093,-0.31093) ==
 == 46-th k-point nmo = 82 (0.82916,-0.20729,-0.41458) ==
 == 47-th k-point nmo = 82 (0.93280,-0.10364,-0.51822) ==
 == 48-th k-point nmo = 83 (0.31093,-0.93280,0.31093) ==
 == 49-th k-point nmo = 82 (0.41458,-0.82916,0.20729) ==
 == 50-th k-point nmo = 82 (0.51822,-0.72551,0.10364) ==
 == 51-th k-point nmo = 83 (0.62187,-0.62187,-0.00000) ==
 == 52-th k-point nmo = 82 (0.72551,-0.51822,-0.10364) ==
 == 53-th k-point nmo = 82 (0.82916,-0.41458,-0.20729) ==
 == 54-th k-point nmo = 83 (0.93280,-0.31093,-0.31093) ==
 == 55-th k-point nmo = 82 (1.03645,-0.20729,-0.41458) ==
 == 56-th k-point nmo = 83 (0.41458,-1.03645,0.41458) ==
 == 57-th k-point nmo = 82 (0.51822,-0.93280,0.31093) ==
 == 58-th k-point nmo = 81 (0.62187,-0.82916,0.20729) ==
 == 59-th k-point nmo = 81 (0.72551,-0.72551,0.10364) ==
 == 60-th k-point nmo = 82 (0.82916,-0.62187,-0.00000) ==
 == 61-th k-point nmo = 82 (0.93280,-0.51822,-0.10364) ==
 == 62-th k-point nmo = 82 (1.03645,-0.41458,-0.20729) ==
 == 63-th k-point nmo = 83 (1.14009,-0.31093,-0.31093) ==
 == 64-th k-point nmo = 82 (-0.41458,-0.20729,-0.20729) ==
 == 65-th k-point nmo = 82 (-0.31093,-0.10364,-0.31093) ==
 == 66-th k-point nmo = 82 (-0.20729,0.00000,-0.41458) ==
 == 67-th k-point nmo = 82 (-0.10364,0.10364,-0.51822) ==
 == 68-th k-point nmo = 81 (-0.00000,0.20729,-0.62187) ==
 == 69-th k-point nmo = 82 (0.10364,0.31093,-0.72551) ==
 == 70-th k-point nmo = 82 (0.20729,0.41458,-0.82916) ==
 == 71-th k-point nmo = 82 (0.31093,0.51822,-0.93280) ==
 == 72-th k-point nmo = 82 (-0.31093,-0.31093,-0.10364) ==
 == 73-th k-point nmo = 83 (-0.20729,-0.20729,-0.20729) ==
 == 74-th k-point nmo = 82 (-0.10364,-0.10364,-0.31093) ==
 == 75-th k-point nmo = 81 (-0.00000,0.00000,-0.41458) ==
 == 76-th k-point nmo = 82 (0.10364,0.10364,-0.51822) ==
 == 77-th k-point nmo = 83 (0.20729,0.20729,-0.62187) ==
 == 78-th k-point nmo = 83 (0.31093,0.31093,-0.72551) ==
 == 79-th k-point nmo = 83 (0.41458,0.41458,-0.82916) ==
 == 80-th k-point nmo = 82 (-0.20729,-0.41458,-0.00000) ==
 == 81-th k-point nmo = 82 (-0.10364,-0.31093,-0.10364) ==
 == 82-th k-point nmo = 81 (-0.00000,-0.20729,-0.20729) ==
 == 83-th k-point nmo = 82 (0.10364,-0.10364,-0.31093) ==
 == 84-th k-point nmo = 82 (0.20729,0.00000,-0.41458) ==
 == 85-th k-point nmo = 82 (0.31093,0.10364,-0.51822) ==
 == 86-th k-point nmo = 82 (0.41458,0.20729,-0.62187) ==
 == 87-th k-point nmo = 82 (0.51822,0.31093,-0.72551) ==
 == 88-th k-point nmo = 82 (-0.10364,-0.51822,0.10364) ==
 == 89-th k-point nmo = 81 (-0.00000,-0.41458,-0.00000) ==
 == 90-th k-point nmo = 82 (0.10364,-0.31093,-0.10364) ==
 == 91-th k-point nmo = 83 (0.20729,-0.20729,-0.20729) ==
 == 92-th k-point nmo = 82 (0.31093,-0.10364,-0.31093) ==
 == 93-th k-point nmo = 83 (0.41458,0.00000,-0.41458) ==
 == 94-th k-point nmo = 83 (0.51822,0.10364,-0.51822) ==
 == 95-th k-point nmo = 83 (0.62187,0.20729,-0.62187) ==
 == 96-th k-point nmo = 81 (0.00000,-0.62187,0.20729) ==
 == 97-th k-point nmo = 82 (0.10364,-0.51822,0.10364) ==
 == 98-th k-point nmo = 82 (0.20729,-0.41458,-0.00000) ==
 == 99-th k-point nmo = 82 (0.31093,-0.31093,-0.10364) ==
 == 100-th k-point nmo = 82 (0.41458,-0.20729,-0.20729) ==
 == 101-th k-point nmo = 82 (0.51822,-0.10364,-0.31093) ==
 == 102-th k-point nmo = 82 (0.62187,0.00000,-0.41458) ==
 == 103-th k-point nmo = 82 (0.72551,0.10364,-0.51822) ==
 == 104-th k-point nmo = 82 (0.10364,-0.72551,0.31093) ==
 == 105-th k-point nmo = 83 (0.20729,-0.62187,0.20729) ==
 == 106-th k-point nmo = 82 (0.31093,-0.51822,0.10364) ==
 == 107-th k-point nmo = 83 (0.41458,-0.41458,-0.00000) ==
 == 108-th k-point nmo = 82 (0.51822,-0.31093,-0.10364) ==
 == 109-th k-point nmo = 83 (0.62187,-0.20729,-0.20729) ==
 == 110-th k-point nmo = 82 (0.72551,-0.10364,-0.31093) ==
 == 111-th k-point nmo = 82 (0.82916,0.00000,-0.41458) ==
 == 112-th k-point nmo = 82 (0.20729,-0.82916,0.41458) ==
 == 113-th k-point nmo = 83 (0.31093,-0.72551,0.31093) ==
 == 114-th k-point nmo = 82 (0.41458,-0.62187,0.20729) ==
 == 115-th k-point nmo = 83 (0.51822,-0.51822,0.10364) ==
 == 116-th k-point nmo = 82 (0.62187,-0.41458,-0.00000) ==
 == 117-th k-point nmo = 82 (0.72551,-0.31093,-0.10364) ==
 == 118-th k-point nmo = 83 (0.82916,-0.20729,-0.20729) ==
 == 119-th k-point nmo = 82 (0.93280,-0.10364,-0.31093) ==
 == 120-th k-point nmo = 82 (0.31093,-0.93280,0.51822) ==
 == 121-th k-point nmo = 83 (0.41458,-0.82916,0.41458) ==
 == 122-th k-point nmo = 82 (0.51822,-0.72551,0.31093) ==
 == 123-th k-point nmo = 83 (0.62187,-0.62187,0.20729) ==
 == 124-th k-point nmo = 82 (0.72551,-0.51822,0.10364) ==
 == 125-th k-point nmo = 82 (0.82916,-0.41458,-0.00000) ==
 == 126-th k-point nmo = 82 (0.93280,-0.31093,-0.10364) ==
 == 127-th k-point nmo = 83 (1.03645,-0.20729,-0.20729) ==
 == 128-th k-point nmo = 82 (-0.51822,-0.10364,-0.10364) ==
 == 129-th k-point nmo = 82 (-0.41458,0.00000,-0.20729) ==
 == 130-th k-point nmo = 82 (-0.31093,0.10364,-0.31093) ==
 == 131-th k-point nmo = 82 (-0.20729,0.20729,-0.41458) ==
 == 132-th k-point nmo = 82 (-0.10364,0.31093,-0.51822) ==
 == 133-th k-point nmo = 82 (-0.00000,0.41458,-0.62187) ==
 == 134-th k-point nmo = 82 (0.10364,0.51822,-0.72551) ==
 == 135-th k-point nmo = 81 (0.20729,0.62187,-0.82916) ==
 == 136-th k-point nmo = 82 (-0.41458,-0.20729,-0.00000) ==
 == 137-th k-point nmo = 82 (-0.31093,-0.10364,-0.10364) ==
 == 138-th k-point nmo = 81 (-0.20729,0.00000,-0.20729) ==
 == 139-th k-point nmo = 82 (-0.10364,0.10364,-0.31093) ==
 == 140-th k-point nmo = 82 (-0.00000,0.20729,-0.41458) ==
 == 141-th k-point nmo = 82 (0.10364,0.31093,-0.51822) ==
 == 142-th k-point nmo = 82 (0.20729,0.41458,-0.62187) ==
 == 143-th k-point nmo = 82 (0.31093,0.51822,-0.72551) ==
 == 144-th k-point nmo = 82 (-0.31093,-0.31093,0.10364) ==
 == 145-th k-point nmo = 81 (-0.20729,-0.20729,-0.00000) ==
 == 146-th k-point nmo = 82 (-0.10364,-0.10364,-0.10364) ==
 == 147-th k-point nmo = 81 (-0.00000,0.00000,-0.20729) ==
 == 148-th k-point nmo = 82 (0.10364,0.10364,-0.31093) ==
 == 149-th k-point nmo = 82 (0.20729,0.20729,-0.41458) ==
 == 150-th k-point nmo = 83 (0.31093,0.31093,-0.51822) ==
 == 151-th k-point nmo = 83 (0.41458,0.41458,-0.62187) ==
 == 152-th k-point nmo = 82 (-0.20729,-0.41458,0.20729) ==
 == 153-th k-point nmo = 82 (-0.10364,-0.31093,0.10364) ==
 == 154-th k-point nmo = 81 (-0.00000,-0.20729,-0.00000) ==
 == 155-th k-point nmo = 82 (0.10364,-0.10364,-0.10364) ==
 == 156-th k-point nmo = 81 (0.20729,0.00000,-0.20729) ==
 == 157-th k-point nmo = 82 (0.31093,0.10364,-0.31093) ==
 == 158-th k-point nmo = 83 (0.41458,0.20729,-0.41458) ==
 == 159-th k-point nmo = 83 (0.51822,0.31093,-0.51822) ==
 == 160-th k-point nmo = 82 (-0.10364,-0.51822,0.31093) ==
 == 161-th k-point nmo = 82 (0.00000,-0.41458,0.20729) ==
 == 162-th k-point nmo = 82 (0.10364,-0.31093,0.10364) ==
 == 163-th k-point nmo = 81 (0.20729,-0.20729,-0.00000) ==
 == 164-th k-point nmo = 82 (0.31093,-0.10364,-0.10364) ==
 == 165-th k-point nmo = 82 (0.41458,0.00000,-0.20729) ==
 == 166-th k-point nmo = 82 (0.51822,0.10364,-0.31093) ==
 == 167-th k-point nmo = 82 (0.62187,0.20729,-0.41458) ==
 == 168-th k-point nmo = 82 (0.00000,-0.62187,0.41458) ==
 == 169-th k-point nmo = 82 (0.10364,-0.51822,0.31093) ==
 == 170-th k-point nmo = 82 (0.20729,-0.41458,0.20729) ==
 == 171-th k-point nmo = 82 (0.31093,-0.31093,0.10364) ==
 == 172-th k-point nmo = 82 (0.41458,-0.20729,-0.00000) ==
 == 173-th k-point nmo = 82 (0.51822,-0.10364,-0.10364) ==
 == 174-th k-point nmo = 81 (0.62187,0.00000,-0.20729) ==
 == 175-th k-point nmo = 82 (0.72551,0.10364,-0.31093) ==
 == 176-th k-point nmo = 82 (0.10364,-0.72551,0.51822) ==
 == 177-th k-point nmo = 82 (0.20729,-0.62187,0.41458) ==
 == 178-th k-point nmo = 83 (0.31093,-0.51822,0.31093) ==
 == 179-th k-point nmo = 83 (0.41458,-0.41458,0.20729) ==
 == 180-th k-point nmo = 82 (0.51822,-0.31093,0.10364) ==
 == 181-th k-point nmo = 81 (0.62187,-0.20729,-0.00000) ==
 == 182-th k-point nmo = 81 (0.72551,-0.10364,-0.10364) ==
 == 183-th k-point nmo = 82 (0.82916,0.00000,-0.20729) ==
 == 184-th k-point nmo = 81 (0.20729,-0.82916,0.62187) ==
 == 185-th k-point nmo = 82 (0.31093,-0.72551,0.51822) ==
 == 186-th k-point nmo = 83 (0.41458,-0.62187,0.41458) ==
 == 187-th k-point nmo = 83 (0.51822,-0.51822,0.31093) ==
 == 188-th k-point nmo = 82 (0.62187,-0.41458,0.20729) ==
 == 189-th k-point nmo = 82 (0.72551,-0.31093,0.10364) ==
 == 190-th k-point nmo = 82 (0.82916,-0.20729,-0.00000) ==
 == 191-th k-point nmo = 81 (0.93280,-0.10364,-0.10364) ==
 == 192-th k-point nmo = 81 (-0.62187,0.00000,0.00000) ==
 == 193-th k-point nmo = 82 (-0.51822,0.10364,-0.10364) ==
 == 194-th k-point nmo = 82 (-0.41458,0.20729,-0.20729) ==
 == 195-th k-point nmo = 81 (-0.31093,0.31093,-0.31093) ==
 == 196-th k-point nmo = 83 (-0.20729,0.41458,-0.41458) ==
 == 197-th k-point nmo = 83 (-0.10364,0.51822,-0.51822) ==
 == 198-th k-point nmo = 83 (-0.00000,0.62187,-0.62187) ==
 == 199-th k-point nmo = 81 (0.10364,0.72551,-0.72551) ==
 == 200-th k-point nmo = 82 (-0.51822,-0.10364,0.10364) ==
 == 201-th k-point nmo = 81 (-0.41458,0.00000,0.00000) ==
 == 202-th k-point nmo = 82 (-0.31093,0.10364,-0.10364) ==
 == 203-th k-point nmo = 83 (-0.20729,0.20729,-0.20729) ==
 == 204-th k-point nmo = 82 (-0.10364,0.31093,-0.31093) ==
 == 205-th k-point nmo = 83 (-0.00000,0.41458,-0.41458) ==
 == 206-th k-point nmo = 83 (0.10364,0.51822,-0.51822) ==
 == 207-th k-point nmo = 83 (0.20729,0.62187,-0.62187) ==
 == 208-th k-point nmo = 82 (-0.41458,-0.20729,0.20729) ==
 == 209-th k-point nmo = 82 (-0.31093,-0.10364,0.10364) ==
 == 210-th k-point nmo = 81 (-0.20729,0.00000,0.00000) ==
 == 211-th k-point nmo = 82 (-0.10364,0.10364,-0.10364) ==
 == 212-th k-point nmo = 81 (-0.00000,0.20729,-0.20729) ==
 == 213-th k-point nmo = 82 (0.10364,0.31093,-0.31093) ==
 == 214-th k-point nmo = 83 (0.20729,0.41458,-0.41458) ==
 == 215-th k-point nmo = 83 (0.31093,0.51822,-0.51822) ==
 == 216-th k-point nmo = 81 (-0.31093,-0.31093,0.31093) ==
 == 217-th k-point nmo = 83 (-0.20729,-0.20729,0.20729) ==
 == 218-th k-point nmo = 82 (-0.10364,-0.10364,0.10364) ==
 == 219-th k-point nmo = 83 (0.00000,0.00000,0.00000) ==
 == 220-th k-point nmo = 82 (0.10364,0.10364,-0.10364) ==
 == 221-th k-point nmo = 83 (0.20729,0.20729,-0.20729) ==
 == 222-th k-point nmo = 81 (0.31093,0.31093,-0.31093) ==
 == 223-th k-point nmo = 83 (0.41458,0.41458,-0.41458) ==
 == 224-th k-point nmo = 83 (-0.20729,-0.41458,0.41458) ==
 == 225-th k-point nmo = 82 (-0.10364,-0.31093,0.31093) ==
 == 226-th k-point nmo = 81 (0.00000,-0.20729,0.20729) ==
 == 227-th k-point nmo = 82 (0.10364,-0.10364,0.10364) ==
 == 228-th k-point nmo = 81 (0.20729,-0.00000,0.00000) ==
 == 229-th k-point nmo = 82 (0.31093,0.10364,-0.10364) ==
 == 230-th k-point nmo = 82 (0.41458,0.20729,-0.20729) ==
 == 231-th k-point nmo = 83 (0.51822,0.31093,-0.31093) ==
 == 232-th k-point nmo = 83 (-0.10364,-0.51822,0.51822) ==
 == 233-th k-point nmo = 83 (0.00000,-0.41458,0.41458) ==
 == 234-th k-point nmo = 82 (0.10364,-0.31093,0.31093) ==
 == 235-th k-point nmo = 83 (0.20729,-0.20729,0.20729) ==
 == 236-th k-point nmo = 82 (0.31093,-0.10364,0.10364) ==
 == 237-th k-point nmo = 81 (0.41458,-0.00000,0.00000) ==
 == 238-th k-point nmo = 82 (0.51822,0.10364,-0.10364) ==
 == 239-th k-point nmo = 83 (0.62187,0.20729,-0.20729) ==
 == 240-th k-point nmo = 83 (0.00000,-0.62187,0.62187) ==
 == 241-th k-point nmo = 83 (0.10364,-0.51822,0.51822) ==
 == 242-th k-point nmo = 83 (0.20729,-0.41458,0.41458) ==
 == 243-th k-point nmo = 81 (0.31093,-0.31093,0.31093) ==
 == 244-th k-point nmo = 82 (0.41458,-0.20729,0.20729) ==
 == 245-th k-point nmo = 82 (0.51822,-0.10364,0.10364) ==
 == 246-th k-point nmo = 81 (0.62187,-0.00000,0.00000) ==
 == 247-th k-point nmo = 81 (0.72551,0.10364,-0.10364) ==
 == 248-th k-point nmo = 81 (0.10364,-0.72551,0.72551) ==
 == 249-th k-point nmo = 83 (0.20729,-0.62187,0.62187) ==
 == 250-th k-point nmo = 83 (0.31093,-0.51822,0.51822) ==
 == 251-th k-point nmo = 83 (0.41458,-0.41458,0.41458) ==
 == 252-th k-point nmo = 83 (0.51822,-0.31093,0.31093) ==
 == 253-th k-point nmo = 83 (0.62187,-0.20729,0.20729) ==
 == 254-th k-point nmo = 81 (0.72551,-0.10364,0.10364) ==
 == 255-th k-point nmo = 81 (0.82916,-0.00000,0.00000) ==
 == 256-th k-point nmo = 81 (-0.72551,0.10364,0.10364) ==
 == 257-th k-point nmo = 81 (-0.62187,0.20729,0.00000) ==
 == 258-th k-point nmo = 82 (-0.51822,0.31093,-0.10364) ==
 == 259-th k-point nmo = 83 (-0.41458,0.41458,-0.20729) ==
 == 260-th k-point nmo = 83 (-0.31093,0.51822,-0.31093) ==
 == 261-th k-point nmo = 82 (-0.20729,0.62187,-0.41458) ==
 == 262-th k-point nmo = 82 (-0.10364,0.72551,-0.51822) ==
 == 263-th k-point nmo = 82 (-0.00000,0.82916,-0.62187) ==
 == 264-th k-point nmo = 81 (-0.62187,0.00000,0.20729) ==
 == 265-th k-point nmo = 82 (-0.51822,0.10364,0.10364) ==
 == 266-th k-point nmo = 82 (-0.41458,0.20729,0.00000) ==
 == 267-th k-point nmo = 82 (-0.31093,0.31093,-0.10364) ==
 == 268-th k-point nmo = 82 (-0.20729,0.41458,-0.20729) ==
 == 269-th k-point nmo = 82 (-0.10364,0.51822,-0.31093) ==
 == 270-th k-point nmo = 82 (-0.00000,0.62187,-0.41458) ==
 == 271-th k-point nmo = 82 (0.10364,0.72551,-0.51822) ==
 == 272-th k-point nmo = 82 (-0.51822,-0.10364,0.31093) ==
 == 273-th k-point nmo = 82 (-0.41458,-0.00000,0.20729) ==
 == 274-th k-point nmo = 82 (-0.31093,0.10364,0.10364) ==
 == 275-th k-point nmo = 81 (-0.20729,0.20729,0.00000) ==
 == 276-th k-point nmo = 82 (-0.10364,0.31093,-0.10364) ==
 == 277-th k-point nmo = 82 (-0.00000,0.41458,-0.20729) ==
 == 278-th k-point nmo = 82 (0.10364,0.51822,-0.31093) ==
 == 279-th k-point nmo = 82 (0.20729,0.62187,-0.41458) ==
 == 280-th k-point nmo = 83 (-0.41458,-0.20729,0.41458) ==
 == 281-th k-point nmo = 82 (-0.31093,-0.10364,0.31093) ==
 == 282-th k-point nmo = 81 (-0.20729,-0.00000,0.20729) ==
 == 283-th k-point nmo = 82 (-0.10364,0.10364,0.10364) ==
 == 284-th k-point nmo = 81 (0.00000,0.20729,0.00000) ==
 == 285-th k-point nmo = 82 (0.10364,0.31093,-0.10364) ==
 == 286-th k-point nmo = 82 (0.20729,0.41458,-0.20729) ==
 == 287-th k-point nmo = 83 (0.31093,0.51822,-0.31093) ==
 == 288-th k-point nmo = 83 (-0.31093,-0.31093,0.51822) ==
 == 289-th k-point nmo = 82 (-0.20729,-0.20729,0.41458) ==
 == 290-th k-point nmo = 82 (-0.10364,-0.10364,0.31093) ==
 == 291-th k-point nmo = 81 (0.00000,-0.00000,0.20729) ==
 == 292-th k-point nmo = 82 (0.10364,0.10364,0.10364) ==
 == 293-th k-point nmo = 81 (0.20729,0.20729,0.00000) ==
 == 294-th k-point nmo = 82 (0.31093,0.31093,-0.10364) ==
 == 295-th k-point nmo = 83 (0.41458,0.41458,-0.20729) ==
 == 296-th k-point nmo = 82 (-0.20729,-0.41458,0.62187) ==
 == 297-th k-point nmo = 82 (-0.10364,-0.31093,0.51822) ==
 == 298-th k-point nmo = 82 (0.00000,-0.20729,0.41458) ==
 == 299-th k-point nmo = 82 (0.10364,-0.10364,0.31093) ==
 == 300-th k-point nmo = 81 (0.20729,-0.00000,0.20729) ==
 == 301-th k-point nmo = 82 (0.31093,0.10364,0.10364) ==
 == 302-th k-point nmo = 82 (0.41458,0.20729,0.00000) ==
 == 303-th k-point nmo = 82 (0.51822,0.31093,-0.10364) ==
 == 304-th k-point nmo = 82 (-0.10364,-0.51822,0.72551) ==
 == 305-th k-point nmo = 82 (0.00000,-0.41458,0.62187) ==
 == 306-th k-point nmo = 82 (0.10364,-0.31093,0.51822) ==
 == 307-th k-point nmo = 82 (0.20729,-0.20729,0.41458) ==
 == 308-th k-point nmo = 82 (0.31093,-0.10364,0.31093) ==
 == 309-th k-point nmo = 82 (0.41458,-0.00000,0.20729) ==
 == 310-th k-point nmo = 82 (0.51822,0.10364,0.10364) ==
 == 311-th k-point nmo = 81 (0.62187,0.20729,0.00000) ==
 == 312-th k-point nmo = 82 (0.00000,-0.62187,0.82916) ==
 == 313-th k-point nmo = 82 (0.10364,-0.51822,0.72551) ==
 == 314-th k-point nmo = 82 (0.20729,-0.41458,0.62187) ==
 == 315-th k-point nmo = 83 (0.31093,-0.31093,0.51822) ==
 == 316-th k-point nmo = 83 (0.41458,-0.20729,0.41458) ==
 == 317-th k-point nmo = 82 (0.51822,-0.10364,0.31093) ==
 == 318-th k-point nmo = 81 (0.62187,-0.00000,0.20729) ==
 == 319-th k-point nmo = 81 (0.72551,0.10364,0.10364) ==
 == 320-th k-point nmo = 83 (-0.82916,0.20729,0.20729) ==
 == 321-th k-point nmo = 82 (-0.72551,0.31093,0.10364) ==
 == 322-th k-point nmo = 82 (-0.62187,0.41458,0.00000) ==
 == 323-th k-point nmo = 83 (-0.51822,0.51822,-0.10364) ==
 == 324-th k-point nmo = 82 (-0.41458,0.62187,-0.20729) ==
 == 325-th k-point nmo = 83 (-0.31093,0.72551,-0.31093) ==
 == 326-th k-point nmo = 82 (-0.20729,0.82916,-0.41458) ==
 == 327-th k-point nmo = 82 (-0.10364,0.93280,-0.51822) ==
 == 328-th k-point nmo = 82 (-0.72551,0.10364,0.31093) ==
 == 329-th k-point nmo = 83 (-0.62187,0.20729,0.20729) ==
 == 330-th k-point nmo = 82 (-0.51822,0.31093,0.10364) ==
 == 331-th k-point nmo = 83 (-0.41458,0.41458,0.00000) ==
 == 332-th k-point nmo = 82 (-0.31093,0.51822,-0.10364) ==
 == 333-th k-point nmo = 83 (-0.20729,0.62187,-0.20729) ==
 == 334-th k-point nmo = 82 (-0.10364,0.72551,-0.31093) ==
 == 335-th k-point nmo = 82 (-0.00000,0.82916,-0.41458) ==
 == 336-th k-point nmo = 82 (-0.62187,0.00000,0.41458) ==
 == 337-th k-point nmo = 82 (-0.51822,0.10364,0.31093) ==
 == 338-th k-point nmo = 82 (-0.41458,0.20729,0.20729) ==
 == 339-th k-point nmo = 82 (-0.31093,0.31093,0.10364) ==
 == 340-th k-point nmo = 82 (-0.20729,0.41458,0.00000) ==
 == 341-th k-point nmo = 82 (-0.10364,0.51822,-0.10364) ==
 == 342-th k-point nmo = 81 (0.00000,0.62187,-0.20729) ==
 == 343-th k-point nmo = 82 (0.10364,0.72551,-0.31093) ==
 == 344-th k-point nmo = 83 (-0.51822,-0.10364,0.51822) ==
 == 345-th k-point nmo = 83 (-0.41458,-0.00000,0.41458) ==
 == 346-th k-point nmo = 82 (-0.31093,0.10364,0.31093) ==
 == 347-th k-point nmo = 83 (-0.20729,0.20729,0.20729) ==
 == 348-th k-point nmo = 82 (-0.10364,0.31093,0.10364) ==
 == 349-th k-point nmo = 81 (0.00000,0.41458,0.00000) ==
 == 350-th k-point nmo = 82 (0.10364,0.51822,-0.10364) ==
 == 351-th k-point nmo = 83 (0.20729,0.62187,-0.20729) ==
 == 352-th k-point nmo = 82 (-0.41458,-0.20729,0.62187) ==
 == 353-th k-point nmo = 82 (-0.31093,-0.10364,0.51822) ==
 == 354-th k-point nmo = 82 (-0.20729,-0.00000,0.41458) ==
 == 355-th k-point nmo = 82 (-0.10364,0.10364,0.31093) ==
 == 356-th k-point nmo = 81 (0.00000,0.20729,0.20729) ==
 == 357-th k-point nmo = 82 (0.10364,0.31093,0.10364) ==
 == 358-th k-point nmo = 82 (0.20729,0.41458,0.00000) ==
 == 359-th k-point nmo = 82 (0.31093,0.51822,-0.10364) ==
 == 360-th k-point nmo = 83 (-0.31093,-0.31093,0.72551) ==
 == 361-th k-point nmo = 83 (-0.20729,-0.20729,0.62187) ==
 == 362-th k-point nmo = 82 (-0.10364,-0.10364,0.51822) ==
 == 363-th k-point nmo = 81 (0.00000,-0.00000,0.41458) ==
 == 364-th k-point nmo = 82 (0.10364,0.10364,0.31093) ==
 == 365-th k-point nmo = 83 (0.20729,0.20729,0.20729) ==
 == 366-th k-point nmo = 82 (0.31093,0.31093,0.10364) ==
 == 367-th k-point nmo = 83 (0.41458,0.41458,0.00000) ==
 == 368-th k-point nmo = 82 (-0.20729,-0.41458,0.82916) ==
 == 369-th k-point nmo = 82 (-0.10364,-0.31093,0.72551) ==
 == 370-th k-point nmo = 81 (0.00000,-0.20729,0.62187) ==
 == 371-th k-point nmo = 82 (0.10364,-0.10364,0.51822) ==
 == 372-th k-point nmo = 82 (0.20729,-0.00000,0.41458) ==
 == 373-th k-point nmo = 82 (0.31093,0.10364,0.31093) ==
 == 374-th k-point nmo = 82 (0.41458,0.20729,0.20729) ==
 == 375-th k-point nmo = 82 (0.51822,0.31093,0.10364) ==
 == 376-th k-point nmo = 82 (-0.10364,-0.51822,0.93280) ==
 == 377-th k-point nmo = 82 (0.00000,-0.41458,0.82916) ==
 == 378-th k-point nmo = 82 (0.10364,-0.31093,0.72551) ==
 == 379-th k-point nmo = 83 (0.20729,-0.20729,0.62187) ==
 == 380-th k-point nmo = 82 (0.31093,-0.10364,0.51822) ==
 == 381-th k-point nmo = 83 (0.41458,-0.00000,0.41458) ==
 == 382-th k-point nmo = 82 (0.51822,0.10364,0.31093) ==
 == 383-th k-point nmo = 83 (0.62187,0.20729,0.20729) ==
 == 384-th k-point nmo = 83 (-0.93280,0.31093,0.31093) ==
 == 385-th k-point nmo = 82 (-0.82916,0.41458,0.20729) ==
 == 386-th k-point nmo = 82 (-0.72551,0.51822,0.10364) ==
 == 387-th k-point nmo = 83 (-0.62187,0.62187,0.00000) ==
 == 388-th k-point nmo = 82 (-0.51822,0.72551,-0.10364) ==
 == 389-th k-point nmo = 82 (-0.41458,0.82916,-0.20729) ==
 == 390-th k-point nmo = 83 (-0.31093,0.93280,-0.31093) ==
 == 391-th k-point nmo = 82 (-0.20729,1.03645,-0.41458) ==
 == 392-th k-point nmo = 82 (-0.82916,0.20729,0.41458) ==
 == 393-th k-point nmo = 83 (-0.72551,0.31093,0.31093) ==
 == 394-th k-point nmo = 82 (-0.62187,0.41458,0.20729) ==
 == 395-th k-point nmo = 83 (-0.51822,0.51822,0.10364) ==
 == 396-th k-point nmo = 82 (-0.41458,0.62187,0.00000) ==
 == 397-th k-point nmo = 82 (-0.31093,0.72551,-0.10364) ==
 == 398-th k-point nmo = 83 (-0.20729,0.82916,-0.20729) ==
 == 399-th k-point nmo = 82 (-0.10364,0.93280,-0.31093) ==
 == 400-th k-point nmo = 82 (-0.72551,0.10364,0.51822) ==
 == 401-th k-point nmo = 82 (-0.62187,0.20729,0.41458) ==
 == 402-th k-point nmo = 83 (-0.51822,0.31093,0.31093) ==
 == 403-th k-point nmo = 83 (-0.41458,0.41458,0.20729) ==
 == 404-th k-point nmo = 82 (-0.31093,0.51822,0.10364) ==
 == 405-th k-point nmo = 81 (-0.20729,0.62187,0.00000) ==
 == 406-th k-point nmo = 81 (-0.10364,0.72551,-0.10364) ==
 == 407-th k-point nmo = 82 (0.00000,0.82916,-0.20729) ==
 == 408-th k-point nmo = 83 (-0.62187,-0.00000,0.62187) ==
 == 409-th k-point nmo = 83 (-0.51822,0.10364,0.51822) ==
 == 410-th k-point nmo = 83 (-0.41458,0.20729,0.41458) ==
 == 411-th k-point nmo = 81 (-0.31093,0.31093,0.31093) ==
 == 412-th k-point nmo = 82 (-0.20729,0.41458,0.20729) ==
 == 413-th k-point nmo = 82 (-0.10364,0.51822,0.10364) ==
 == 414-th k-point nmo = 81 (0.00000,0.62187,0.00000) ==
 == 415-th k-point nmo = 81 (0.10364,0.72551,-0.10364) ==
 == 416-th k-point nmo = 82 (-0.51822,-0.10364,0.72551) ==
 == 417-th k-point nmo = 82 (-0.41458,-0.00000,0.62187) ==
 == 418-th k-point nmo = 82 (-0.31093,0.10364,0.51822) ==
 == 419-th k-point nmo = 82 (-0.20729,0.20729,0.41458) ==
 == 420-th k-point nmo = 82 (-0.10364,0.31093,0.31093) ==
 == 421-th k-point nmo = 82 (0.00000,0.41458,0.20729) ==
 == 422-th k-point nmo = 82 (0.10364,0.51822,0.10364) ==
 == 423-th k-point nmo = 81 (0.20729,0.62187,0.00000) ==
 == 424-th k-point nmo = 82 (-0.41458,-0.20729,0.82916) ==
 == 425-th k-point nmo = 82 (-0.31093,-0.10364,0.72551) ==
 == 426-th k-point nmo = 81 (-0.20729,-0.00000,0.62187) ==
 == 427-th k-point nmo = 82 (-0.10364,0.10364,0.51822) ==
 == 428-th k-point nmo = 82 (0.00000,0.20729,0.41458) ==
 == 429-th k-point nmo = 82 (0.10364,0.31093,0.31093) ==
 == 430-th k-point nmo = 82 (0.20729,0.41458,0.20729) ==
 == 431-th k-point nmo = 82 (0.31093,0.51822,0.10364) ==
 == 432-th k-point nmo = 83 (-0.31093,-0.31093,0.93280) ==
 == 433-th k-point nmo = 83 (-0.20729,-0.20729,0.82916) ==
 == 434-th k-point nmo = 81 (-0.10364,-0.10364,0.72551) ==
 == 435-th k-point nmo = 81 (0.00000,-0.00000,0.62187) ==
 == 436-th k-point nmo = 82 (0.10364,0.10364,0.51822) ==
 == 437-th k-point nmo = 82 (0.20729,0.20729,0.41458) ==
 == 438-th k-point nmo = 81 (0.31093,0.31093,0.31093) ==
 == 439-th k-point nmo = 83 (0.41458,0.41458,0.20729) ==
 == 440-th k-point nmo = 82 (-0.20729,-0.41458,1.03645) ==
 == 441-th k-point nmo = 82 (-0.10364,-0.31093,0.93280) ==
 == 442-th k-point nmo = 82 (0.00000,-0.20729,0.82916) ==
 == 443-th k-point nmo = 81 (0.10364,-0.10364,0.72551) ==
 == 444-th k-point nmo = 81 (0.20729,-0.00000,0.62187) ==
 == 445-th k-point nmo = 82 (0.31093,0.10364,0.51822) ==
 == 446-th k-point nmo = 83 (0.41458,0.20729,0.41458) ==
 == 447-th k-point nmo = 83 (0.51822,0.31093,0.31093) ==
 == 448-th k-point nmo = 83 (-1.03645,0.41458,0.41458) ==
 == 449-th k-point nmo = 82 (-0.93280,0.51822,0.31093) ==
 == 450-th k-point nmo = 81 (-0.82916,0.62187,0.20729) ==
 == 451-th k-point nmo = 81 (-0.72551,0.72551,0.10364) ==
 == 452-th k-point nmo = 82 (-0.62187,0.82916,0.00000) ==
 == 453-th k-point nmo = 82 (-0.51822,0.93280,-0.10364) ==
 == 454-th k-point nmo = 82 (-0.41458,1.03645,-0.20729) ==
 == 455-th k-point nmo = 83 (-0.31093,1.14009,-0.31093) ==
 == 456-th k-point nmo = 82 (-0.93280,0.31093,0.51822) ==
 == 457-th k-point nmo = 83 (-0.82916,0.41458,0.41458) ==
 == 458-th k-point nmo = 82 (-0.72551,0.51822,0.31093) ==
 == 459-th k-point nmo = 83 (-0.62187,0.62187,0.20729) ==
 == 460-th k-point nmo = 82 (-0.51822,0.72551,0.10364) ==
 == 461-th k-point nmo = 82 (-0.41458,0.82916,0.00000) ==
 == 462-th k-point nmo = 82 (-0.31093,0.93280,-0.10364) ==
 == 463-th k-point nmo = 83 (-0.20729,1.03645,-0.20729) ==
 == 464-th k-point nmo = 81 (-0.82916,0.20729,0.62187) ==
 == 465-th k-point nmo = 82 (-0.72551,0.31093,0.51822) ==
 == 466-th k-point nmo = 83 (-0.62187,0.41458,0.41458) ==
 == 467-th k-point nmo = 83 (-0.51822,0.51822,0.31093) ==
 == 468-th k-point nmo = 82 (-0.41458,0.62187,0.20729) ==
 == 469-th k-point nmo = 82 (-0.31093,0.72551,0.10364) ==
 == 470-th k-point nmo = 82 (-0.20729,0.82916,0.00000) ==
 == 471-th k-point nmo = 81 (-0.10364,0.93280,-0.10364) ==
 == 472-th k-point nmo = 81 (-0.72551,0.10364,0.72551) ==
 == 473-th k-point nmo = 83 (-0.62187,0.20729,0.62187) ==
 == 474-th k-point nmo = 83 (-0.51822,0.31093,0.51822) ==
 == 475-th k-point nmo = 83 (-0.41458,0.41458,0.41458) ==
 == 476-th k-point nmo = 83 (-0.31093,0.51822,0.31093) ==
 == 477-th k-point nmo = 83 (-0.20729,0.62187,0.20729) ==
 == 478-th k-point nmo = 81 (-0.10364,0.72551,0.10364) ==
 == 479-th k-point nmo = 81 (0.00000,0.82916,0.00000) ==
 == 480-th k-point nmo = 82 (-0.62187,-0.00000,0.82916) ==
 == 481-th k-point nmo = 82 (-0.51822,0.10364,0.72551) ==
 == 482-th k-point nmo = 82 (-0.41458,0.20729,0.62187) ==
 == 483-th k-point nmo = 83 (-0.31093,0.31093,0.51822) ==
 == 484-th k-point nmo = 83 (-0.20729,0.41458,0.41458) ==
 == 485-th k-point nmo = 82 (-0.10364,0.51822,0.31093) ==
 == 486-th k-point nmo = 81 (0.00000,0.62187,0.20729) ==
 == 487-th k-point nmo = 81 (0.10364,0.72551,0.10364) ==
 == 488-th k-point nmo = 82 (-0.51822,-0.10364,0.93280) ==
 == 489-th k-point nmo = 82 (-0.41458,-0.00000,0.82916) ==
 == 490-th k-point nmo = 82 (-0.31093,0.10364,0.72551) ==
 == 491-th k-point nmo = 83 (-0.20729,0.20729,0.62187) ==
 == 492-th k-point nmo = 82 (-0.10364,0.31093,0.51822) ==
 == 493-th k-point nmo = 83 (0.00000,0.41458,0.41458) ==
 == 494-th k-point nmo = 82 (0.10364,0.51822,0.31093) ==
 == 495-th k-point nmo = 83 (0.20729,0.62187,0.20729) ==
 == 496-th k-point nmo = 82 (-0.41458,-0.20729,1.03645) ==
 == 497-th k-point nmo = 82 (-0.31093,-0.10364,0.93280) ==
 == 498-th k-point nmo = 82 (-0.20729,-0.00000,0.82916) ==
 == 499-th k-point nmo = 81 (-0.10364,0.10364,0.72551) ==
 == 500-th k-point nmo = 81 (0.00000,0.20729,0.62187) ==
 == 501-th k-point nmo = 82 (0.10364,0.31093,0.51822) ==
 == 502-th k-point nmo = 83 (0.20729,0.41458,0.41458) ==
 == 503-th k-point nmo = 83 (0.31093,0.51822,0.31093) ==
 == 504-th k-point nmo = 83 (-0.31093,-0.31093,1.14009) ==
 == 505-th k-point nmo = 83 (-0.20729,-0.20729,1.03645) ==
 == 506-th k-point nmo = 81 (-0.10364,-0.10364,0.93280) ==
 == 507-th k-point nmo = 81 (0.00000,-0.00000,0.82916) ==
 == 508-th k-point nmo = 81 (0.10364,0.10364,0.72551) ==
 == 509-th k-point nmo = 83 (0.20729,0.20729,0.62187) ==
 == 510-th k-point nmo = 83 (0.31093,0.31093,0.51822) ==
 == 511-th k-point nmo = 83 (0.41458,0.41458,0.41458) ==

 Generate autoSAD guess
backing up fragment data
Atom # 0: li, charge: 0, multiplicity: 2.000000
Atom # 1: f, charge: 0, multiplicity: 2.000000
writing autosad to fragment context
Settings for isolated fragments: 
  frgm_gamma: TRUE
  frgm_center: FALSE

    Running SCF for isolated atom #0
    Fragment Input file: /n/netscratch/joonholee_lab/Lab/hieudinh//lif_solve_def2qzvp_omega_0.9_888.scratch20250909023000/autosad_frgmt_0/frgmt_input.in
    Fragment Output file: /n/netscratch/joonholee_lab/Lab/hieudinh//lif_solve_def2qzvp_omega_0.9_888.scratch20250909023000/autosad_frgmt_0/frgmt_job.out
    Fragment job begins at Tue Sep  9 02:30:39 2025

 Integrated density by DFT XC:
   Numerical integral  =     3.000000007147
   Relative error      =     0.0000002382 %
Final energy components:
 DFT Correlation            Energy =  -0.05090044545114
 DFT Exchange               Energy =  -1.75144597421909
 Kinetic (alpha)            Energy =   3.82935284817784
 Kinetic (beta)             Energy =   3.58515893685385
 Nuclear Attraction (alpha) Energy =  -9.10791001172893
 Nuclear Attraction (beta)  Energy =  -8.01914849492517
 Nuclear Repulsion          Energy =   0.00000000000000
 SEOQF                      Energy =  -0.00000000000000
 Total Coulomb              Energy =   4.05291331077687
----------------------------------------------
    SCF Energy: -7.4619798305
   Total fragment job time:  0.52 s.
    Running SCF for isolated atom #1
    Fragment Input file: /n/netscratch/joonholee_lab/Lab/hieudinh//lif_solve_def2qzvp_omega_0.9_888.scratch20250909023000/autosad_frgmt_1/frgmt_input.in
    Fragment Output file: /n/netscratch/joonholee_lab/Lab/hieudinh//lif_solve_def2qzvp_omega_0.9_888.scratch20250909023000/autosad_frgmt_1/frgmt_job.out
    Fragment job begins at Tue Sep  9 02:30:39 2025

 Integrated density by DFT XC:
   Numerical integral  =     9.000000098353
   Relative error      =     0.0000010928 %
Final energy components:
 DFT Correlation            Energy =  -0.28943664182310
 DFT Exchange               Energy =  -9.96991500891564
 Kinetic (alpha)            Energy =  51.55258412072429
 Kinetic (beta)             Energy =  47.84820569403615
 Nuclear Attraction (alpha) Energy = -125.30574122940695
 Nuclear Attraction (beta)  Energy = -113.20186276241677
 Nuclear Repulsion          Energy =   0.00000000000000
 SEOQF                      Energy =  -0.00000000020726
 Total Coulomb              Energy =  49.69105360806793
----------------------------------------------
    SCF Energy: -99.6751122199
   Total fragment job time:  0.56 s.
restoring fragment data

 ------------------------------------------------------------------------
 Allocate 344947968 B from available memory: 104788126048 B
 Time for generating SCF guess: 1.20 s

 Allocate 446984 B from available memory: 104443178080 B
 Selected algorithms for each term:
  kpts_kinetic -> @0x148c11bd0680
  kpts_nn -> @0x148c11bd0800
  kpts_rij_bigmem -> @0x148c11bd03e0
  kpts_vnuc_df -> @0x148c11bd0380
  kpts_xc -> @0x148c11bd02c0
 Time for computing kinetic matrix is 28.07 s
Start calculating Vnuc DD type!
Start calculating Vnuc CD type!
Start calculating Vnuc CC type!
 Time for computing nuclear attraction matrix is 64.84 s
Compute (P|Q) and use solve on the fly!
Maximum distance between P and Q is 28.75642758820560
Number of images for (P|Qn) is 1873
 Time for computing 2e2c SR integral is 0.12 s
Maximum dynamic memory per thread for 2e3c SR integrals: 0.234 GiB
Batch size for basis function pair is 2046 out of 2046
 === bvk cell = 0 has 100.000 % of the basis function pairs === 
 === bvk cell = 1 has 100.000 % of the basis function pairs === 
 === bvk cell = 2 has 99.560 % of the basis function pairs === 
 === bvk cell = 3 has 69.404 % of the basis function pairs === 
 === bvk cell = 4 has 37.341 % of the basis function pairs === 
 === bvk cell = 5 has 41.642 % of the basis function pairs === 
 === bvk cell = 6 has 87.781 % of the basis function pairs === 
 === bvk cell = 7 has 100.000 % of the basis function pairs === 
 === bvk cell = 8 has 100.000 % of the basis function pairs === 
 === bvk cell = 9 has 99.756 % of the basis function pairs === 
 === bvk cell = 10 has 92.717 % of the basis function pairs === 
 === bvk cell = 11 has 41.984 % of the basis function pairs === 
 === bvk cell = 12 has 26.442 % of the basis function pairs === 
 === bvk cell = 13 has 55.376 % of the basis function pairs === 
 === bvk cell = 14 has 100.000 % of the basis function pairs === 
 === bvk cell = 15 has 100.000 % of the basis function pairs === 
 === bvk cell = 16 has 99.560 % of the basis function pairs === 
 === bvk cell = 17 has 92.717 % of the basis function pairs === 
 === bvk cell = 18 has 45.552 % of the basis function pairs === 
 === bvk cell = 19 has 29.374 % of the basis function pairs === 
 === bvk cell = 20 has 32.356 % of the basis function pairs === 
 === bvk cell = 21 has 58.700 % of the basis function pairs === 
 === bvk cell = 22 has 100.000 % of the basis function pairs === 
 === bvk cell = 23 has 100.000 % of the basis function pairs === 
 === bvk cell = 24 has 69.404 % of the basis function pairs === 
 === bvk cell = 25 has 41.984 % of the basis function pairs === 
 === bvk cell = 26 has 29.374 % of the basis function pairs === 
 === bvk cell = 27 has 15.738 % of the basis function pairs === 
 === bvk cell = 28 has 32.307 % of the basis function pairs === 
 === bvk cell = 29 has 42.766 % of the basis function pairs === 
 === bvk cell = 30 has 80.645 % of the basis function pairs === 
 === bvk cell = 31 has 84.409 % of the basis function pairs === 
 === bvk cell = 32 has 37.341 % of the basis function pairs === 
 === bvk cell = 33 has 26.442 % of the basis function pairs === 
 === bvk cell = 34 has 32.356 % of the basis function pairs === 
 === bvk cell = 35 has 32.307 % of the basis function pairs === 
 === bvk cell = 36 has 24.242 % of the basis function pairs === 
 === bvk cell = 37 has 39.541 % of the basis function pairs === 
 === bvk cell = 38 has 42.033 % of the basis function pairs === 
 === bvk cell = 39 has 41.984 % of the basis function pairs === 
 === bvk cell = 40 has 41.642 % of the basis function pairs === 
 === bvk cell = 41 has 55.376 % of the basis function pairs === 
 === bvk cell = 42 has 58.700 % of the basis function pairs === 
 === bvk cell = 43 has 42.766 % of the basis function pairs === 
 === bvk cell = 44 has 39.541 % of the basis function pairs === 
 === bvk cell = 45 has 23.509 % of the basis function pairs === 
 === bvk cell = 46 has 23.509 % of the basis function pairs === 
 === bvk cell = 47 has 26.442 % of the basis function pairs === 
 === bvk cell = 48 has 87.781 % of the basis function pairs === 
 === bvk cell = 49 has 100.000 % of the basis function pairs === 
 === bvk cell = 50 has 100.000 % of the basis function pairs === 
 === bvk cell = 51 has 80.645 % of the basis function pairs === 
 === bvk cell = 52 has 42.033 % of the basis function pairs === 
 === bvk cell = 53 has 23.509 % of the basis function pairs === 
 === bvk cell = 54 has 26.637 % of the basis function pairs === 
 === bvk cell = 55 has 55.621 % of the basis function pairs === 
 === bvk cell = 56 has 100.000 % of the basis function pairs === 
 === bvk cell = 57 has 100.000 % of the basis function pairs === 
 === bvk cell = 58 has 100.000 % of the basis function pairs === 
 === bvk cell = 59 has 84.409 % of the basis function pairs === 
 === bvk cell = 60 has 41.984 % of the basis function pairs === 
 === bvk cell = 61 has 26.442 % of the basis function pairs === 
 === bvk cell = 62 has 55.621 % of the basis function pairs === 
 === bvk cell = 63 has 91.691 % of the basis function pairs === 
 === bvk cell = 64 has 100.000 % of the basis function pairs === 
 === bvk cell = 65 has 100.000 % of the basis function pairs === 
 === bvk cell = 66 has 84.409 % of the basis function pairs === 
 === bvk cell = 67 has 41.984 % of the basis function pairs === 
 === bvk cell = 68 has 26.442 % of the basis function pairs === 
 === bvk cell = 69 has 55.621 % of the basis function pairs === 
 === bvk cell = 70 has 91.691 % of the basis function pairs === 
 === bvk cell = 71 has 100.000 % of the basis function pairs === 
 === bvk cell = 72 has 100.000 % of the basis function pairs === 
 === bvk cell = 73 has 94.233 % of the basis function pairs === 
 === bvk cell = 74 has 45.943 % of the basis function pairs === 
 === bvk cell = 75 has 30.108 % of the basis function pairs === 
 === bvk cell = 76 has 32.893 % of the basis function pairs === 
 === bvk cell = 77 has 60.508 % of the basis function pairs === 
 === bvk cell = 78 has 100.000 % of the basis function pairs === 
 === bvk cell = 79 has 100.000 % of the basis function pairs === 
 === bvk cell = 80 has 84.409 % of the basis function pairs === 
 === bvk cell = 81 has 45.943 % of the basis function pairs === 
 === bvk cell = 82 has 37.195 % of the basis function pairs === 
 === bvk cell = 83 has 16.471 % of the basis function pairs === 
 === bvk cell = 84 has 39.834 % of the basis function pairs === 
 === bvk cell = 85 has 58.700 % of the basis function pairs === 
 === bvk cell = 86 has 91.056 % of the basis function pairs === 
 === bvk cell = 87 has 99.169 % of the basis function pairs === 
 === bvk cell = 88 has 41.984 % of the basis function pairs === 
 === bvk cell = 89 has 30.108 % of the basis function pairs === 
 === bvk cell = 90 has 16.471 % of the basis function pairs === 
 === bvk cell = 91 has 16.471 % of the basis function pairs === 
 === bvk cell = 92 has 32.307 % of the basis function pairs === 
 === bvk cell = 93 has 42.424 % of the basis function pairs === 
 === bvk cell = 94 has 46.285 % of the basis function pairs === 
 === bvk cell = 95 has 45.943 % of the basis function pairs === 
 === bvk cell = 96 has 26.442 % of the basis function pairs === 
 === bvk cell = 97 has 32.893 % of the basis function pairs === 
 === bvk cell = 98 has 39.834 % of the basis function pairs === 
 === bvk cell = 99 has 32.307 % of the basis function pairs === 
 === bvk cell = 100 has 24.242 % of the basis function pairs === 
 === bvk cell = 101 has 30.108 % of the basis function pairs === 
 === bvk cell = 102 has 37.195 % of the basis function pairs === 
 === bvk cell = 103 has 30.108 % of the basis function pairs === 
 === bvk cell = 104 has 55.621 % of the basis function pairs === 
 === bvk cell = 105 has 60.508 % of the basis function pairs === 
 === bvk cell = 106 has 58.700 % of the basis function pairs === 
 === bvk cell = 107 has 42.424 % of the basis function pairs === 
 === bvk cell = 108 has 30.108 % of the basis function pairs === 
 === bvk cell = 109 has 15.152 % of the basis function pairs === 
 === bvk cell = 110 has 16.471 % of the basis function pairs === 
 === bvk cell = 111 has 34.066 % of the basis function pairs === 
 === bvk cell = 112 has 91.691 % of the basis function pairs === 
 === bvk cell = 113 has 100.000 % of the basis function pairs === 
 === bvk cell = 114 has 91.056 % of the basis function pairs === 
 === bvk cell = 115 has 46.285 % of the basis function pairs === 
 === bvk cell = 116 has 37.195 % of the basis function pairs === 
 === bvk cell = 117 has 16.471 % of the basis function pairs === 
 === bvk cell = 118 has 41.691 % of the basis function pairs === 
 === bvk cell = 119 has 64.272 % of the basis function pairs === 
 === bvk cell = 120 has 100.000 % of the basis function pairs === 
 === bvk cell = 121 has 100.000 % of the basis function pairs === 
 === bvk cell = 122 has 99.169 % of the basis function pairs === 
 === bvk cell = 123 has 45.943 % of the basis function pairs === 
 === bvk cell = 124 has 30.108 % of the basis function pairs === 
 === bvk cell = 125 has 34.066 % of the basis function pairs === 
 === bvk cell = 126 has 64.272 % of the basis function pairs === 
 === bvk cell = 127 has 100.000 % of the basis function pairs === 
 === bvk cell = 128 has 100.000 % of the basis function pairs === 
 === bvk cell = 129 has 80.645 % of the basis function pairs === 
 === bvk cell = 130 has 42.033 % of the basis function pairs === 
 === bvk cell = 131 has 23.509 % of the basis function pairs === 
 === bvk cell = 132 has 26.637 % of the basis function pairs === 
 === bvk cell = 133 has 55.621 % of the basis function pairs === 
 === bvk cell = 134 has 87.781 % of the basis function pairs === 
 === bvk cell = 135 has 100.000 % of the basis function pairs === 
 === bvk cell = 136 has 80.645 % of the basis function pairs === 
 === bvk cell = 137 has 42.424 % of the basis function pairs === 
 === bvk cell = 138 has 30.108 % of the basis function pairs === 
 === bvk cell = 139 has 16.471 % of the basis function pairs === 
 === bvk cell = 140 has 32.893 % of the basis function pairs === 
 === bvk cell = 141 has 55.376 % of the basis function pairs === 
 === bvk cell = 142 has 87.390 % of the basis function pairs === 
 === bvk cell = 143 has 91.056 % of the basis function pairs === 
 === bvk cell = 144 has 42.033 % of the basis function pairs === 
 === bvk cell = 145 has 30.108 % of the basis function pairs === 
 === bvk cell = 146 has 14.858 % of the basis function pairs === 
 === bvk cell = 147 has 16.471 % of the basis function pairs === 
 === bvk cell = 148 has 32.356 % of the basis function pairs === 
 === bvk cell = 149 has 42.913 % of the basis function pairs === 
 === bvk cell = 150 has 49.951 % of the basis function pairs === 
 === bvk cell = 151 has 46.285 % of the basis function pairs === 
 === bvk cell = 152 has 23.509 % of the basis function pairs === 
 === bvk cell = 153 has 16.471 % of the basis function pairs === 
 === bvk cell = 154 has 16.471 % of the basis function pairs === 
 === bvk cell = 155 has 15.738 % of the basis function pairs === 
 === bvk cell = 156 has 24.242 % of the basis function pairs === 
 === bvk cell = 157 has 39.394 % of the basis function pairs === 
 === bvk cell = 158 has 39.541 % of the basis function pairs === 
 === bvk cell = 159 has 37.195 % of the basis function pairs === 
 === bvk cell = 160 has 26.637 % of the basis function pairs === 
 === bvk cell = 161 has 32.893 % of the basis function pairs === 
[...]
 0.82668 1.28768 1.39961 1.42859 1.50642 1.59421 1.64837 1.70804 1.85552 1.88492
 1.95309 1.97485 2.15428 2.23343 2.32968 2.34178 2.42076 2.64062 2.72331 2.82803
 2.88112 3.03987 3.12109 3.48032 3.78044 3.85547 4.07034 4.62712 4.81920 4.85227
 4.94667 5.00767 5.17256 5.21396 5.78744 5.83779 5.86028 6.22920 6.30829 6.34504
 7.54060 7.67318 7.90206 8.00913 8.28932 8.41829 11.60200 11.61399 11.62298 11.63888
 11.64577 11.64751 11.64865 11.67789 11.73535 12.92011 14.86560 14.95335 14.95454 15.03679
 15.04468 15.18797 15.19329 16.29335 16.33094 16.57509 16.68613 16.72931 16.91936 55.39409
 286.05620
 == 488-th k-point (-0.51822,-0.10364,0.93280) occupation: 6==
 -23.85915 -1.46217 -0.67205 -0.05226 -0.02471 0.00890 0.55867 0.60225 0.71006 0.75478
 0.95801 1.16377 1.33031 1.41683 1.49057 1.53624 1.70864 1.80029 1.88731 1.93211
 2.00866 2.07451 2.15298 2.24394 2.25644 2.35601 2.43346 2.56262 2.67940 2.77136
 2.80123 2.88707 3.33883 3.40542 3.51918 3.66794 3.76814 3.92925 4.66413 4.87958
 5.04020 5.22392 5.29620 5.43899 5.52852 5.70194 5.86217 6.07751 6.27390 6.38791
 6.83740 7.40446 7.51088 8.00574 8.11304 8.37557 8.52145 11.61636 11.62202 11.62745
 11.63591 11.63988 11.64669 11.65115 11.67993 11.74682 12.35920 14.86009 14.99267 15.06828
 15.16549 15.25082 15.29527 15.37503 16.24096 16.40457 16.57903 16.80441 16.85913 17.38615
 55.76197 286.52162
 == 489-th k-point (-0.41458,-0.00000,0.82916) occupation: 6==
 -23.85915 -1.46207 -0.67081 -0.04171 -0.04171 0.00634 0.59274 0.59274 0.68261 0.75001
 1.05200 1.05200 1.29987 1.45106 1.60125 1.60131 1.62480 1.74539 1.92174 1.96622
 1.96642 2.00353 2.14693 2.29850 2.29888 2.48466 2.48593 2.54651 2.62650 2.88675
 2.92091 2.93060 3.01653 3.43332 3.43544 3.65117 3.75464 4.38377 4.42305 4.93923
 4.93939 5.26745 5.40633 5.53756 5.54310 5.56995 5.85866 5.95845 5.96012 6.37839
 7.23222 7.60108 7.62994 7.63009 8.50192 8.50842 8.72448 11.61711 11.62838 11.63545
 11.63545 11.64115 11.65072 11.65078 11.66462 11.87444 12.44035 14.74825 15.03621 15.03623
 15.20370 15.25693 15.43452 15.43622 16.19127 16.42709 16.42726 16.52905 16.81622 17.67500
 55.70828 286.44946
 == 490-th k-point (-0.31093,0.10364,0.72551) occupation: 6==
 -23.85915 -1.46217 -0.67205 -0.05226 -0.02471 0.00890 0.55867 0.60225 0.71006 0.75478
 0.95801 1.16377 1.33031 1.41683 1.49058 1.53624 1.70853 1.80030 1.88732 1.93212
 2.00861 2.07458 2.15296 2.24432 2.25641 2.35580 2.43315 2.56363 2.67958 2.77349
 2.79898 2.88702 3.33814 3.40268 3.52011 3.66816 3.76816 3.92952 4.66417 4.87981
 5.04032 5.22378 5.29597 5.43891 5.52722 5.70207 5.86208 6.07681 6.27362 6.38809
 6.83753 7.40446 7.51107 8.00564 8.11437 8.37434 8.51718 11.61636 11.62202 11.62745
 11.63591 11.63988 11.64669 11.65115 11.67995 11.74684 12.35922 14.86010 14.99271 15.06829
 15.16548 15.25085 15.29522 15.37439 16.24096 16.40457 16.57898 16.80420 16.85912 17.38612
 55.76195 286.52162
 == 491-th k-point (-0.20729,0.20729,0.62187) occupation: 6==
 -23.85915 -1.46241 -0.67498 -0.05254 -0.00749 0.01260 0.51616 0.62154 0.72996 0.76185
 0.92641 1.25992 1.28605 1.40457 1.45449 1.45733 1.65436 1.74670 1.89602 1.93489
 1.98808 2.10320 2.18215 2.18542 2.29538 2.39988 2.52489 2.61062 2.68312 2.73598
 2.86081 2.94768 2.96443 3.47355 3.57193 3.65783 3.83865 3.85502 4.04545 4.60013
 4.78225 5.09524 5.17797 5.37940 5.50736 5.52021 5.83870 6.04755 6.18799 6.43440
 6.56166 6.56487 7.39330 8.02471 8.16802 8.26975 8.43838 8.45601 11.61564 11.62155
 11.62524 11.64050 11.64961 11.65445 11.66063 11.70314 11.71378 12.57862 14.85656 14.92073
 15.09706 15.14596 15.25216 15.32444 15.33804 16.43613 16.52517 16.68574 16.86828 16.93310
 17.25096 55.80007 286.56832
 == 492-th k-point (-0.10364,0.31093,0.51822) occupation: 6==
 -23.85915 -1.46264 -0.67783 -0.04314 -0.00558 0.02067 0.49160 0.62635 0.74235 0.75846
 0.98850 1.16101 1.26108 1.38945 1.41567 1.50806 1.62619 1.79048 1.82327 1.88365
 1.99110 2.04410 2.18392 2.30940 2.35978 2.44502 2.51216 2.68833 2.77620 2.84347
 2.84950 2.90230 3.29563 3.53934 3.65910 3.81807 3.90185 4.10248 4.63723 4.73250
 4.92904 5.07623 5.17897 5.43686 5.49884 6.08010 6.11976 6.22823 6.34993 6.42851
 6.66490 7.41924 7.55566 7.99014 8.23355 8.43072 8.51941 11.60782 11.61314 11.62014
 11.62946 11.64068 11.64998 11.65390 11.67300 11.70474 12.19788 14.85934 14.90035 15.00792
 15.07805 15.14163 15.28381 15.30184 16.53967 16.59909 16.69262 16.76613 17.05605 17.22757
 55.78556 286.55054
 == 493-th k-point (0.00000,0.41458,0.41458) occupation: 6==
 -23.85915 -1.46274 -0.67899 -0.03346 -0.01376 0.02696 0.48404 0.61973 0.75662 0.75729
 1.10714 1.11363 1.11490 1.40715 1.41313 1.52620 1.64234 1.77880 1.82839 1.88506
 1.99365 2.03652 2.10960 2.21965 2.46242 2.47912 2.62693 2.76490 2.81774 2.81922
 2.83481 2.87087 2.94169 3.22098 3.58271 3.64271 3.86749 4.12650 4.17161 4.58999
 4.62551 5.07557 5.12740 5.20582 5.36572 5.58810 6.10012 6.22680 6.28083 6.28115
 6.68374 6.88534 7.50407 7.56238 8.17821 8.33897 8.56415 8.62502 11.59954 11.61118
 11.62822 11.63509 11.63780 11.64722 11.66630 11.68375 11.70242 12.44506 14.85049 14.86263
 15.06714 15.11543 15.15977 15.23839 15.35236 16.54380 16.70033 16.70951 16.76173 17.23623
 17.36822 55.85359 286.63265
 == 494-th k-point (0.10364,0.51822,0.31093) occupation: 6==
 -23.85915 -1.46264 -0.67783 -0.04314 -0.00558 0.02067 0.49160 0.62635 0.74235 0.75846
 0.98850 1.16101 1.26108 1.38945 1.41567 1.50808 1.62620 1.79056 1.82335 1.88367
 1.99114 2.04411 2.18414 2.30945 2.36012 2.44586 2.51237 2.68838 2.78293 2.84365
 2.85251 2.90327 3.29879 3.54217 3.65922 3.81909 3.90377 4.10501 4.63758 4.73268
 4.93041 5.07862 5.17903 5.44038 5.49894 6.08019 6.11983 6.22834 6.35044 6.42867
 6.66529 7.41925 7.55609 7.99040 8.23455 8.43178 8.52478 11.60782 11.61315 11.62015
 11.62947 11.64068 11.64999 11.65390 11.67313 11.70488 12.19791 14.85936 14.90035 15.00806
 15.07824 15.14164 15.28436 15.30186 16.53968 16.59913 16.69263 16.76617 17.05608 17.22796
 55.78561 286.55055
 == 495-th k-point (0.20729,0.62187,0.20729) occupation: 6==
 -23.85915 -1.46241 -0.67498 -0.05254 -0.00749 0.01260 0.51616 0.62154 0.72996 0.76185
 0.92641 1.25992 1.28605 1.40458 1.45449 1.45733 1.65435 1.74671 1.89626 1.93488
 1.98805 2.10322 2.18216 2.18544 2.29535 2.40139 2.52490 2.61025 2.68247 2.73521
 2.86163 2.94688 2.96513 3.47375 3.57155 3.65823 3.83692 3.85498 4.04637 4.60012
 4.78224 5.09493 5.17796 5.38083 5.50662 5.51986 5.83894 6.04754 6.18825 6.43464
 6.56017 6.56473 7.39330 8.02458 8.16794 8.27077 8.43777 8.45512 11.61564 11.62155
 11.62524 11.64050 11.64961 11.65444 11.66062 11.70316 11.71377 12.57875 14.85656 14.92073
 15.09701 15.14596 15.25238 15.32435 15.33794 16.43617 16.52517 16.68575 16.86845 16.93306
 17.25059 55.80002 286.56830
 == 496-th k-point (-0.41458,-0.20729,1.03645) occupation: 6==
 -23.85915 -1.46239 -0.67548 -0.05101 -0.00987 0.01813 0.49940 0.61839 0.73787 0.74636
 1.05955 1.10072 1.30753 1.38612 1.42559 1.46585 1.69347 1.77596 1.93200 1.97879
 2.00440 2.07678 2.16973 2.18236 2.34820 2.39225 2.46651 2.48156 2.66291 2.80508
 2.82629 2.87576 3.45123 3.51549 3.65852 3.72516 3.74654 4.02590 4.64531 4.73619
 5.01170 5.19927 5.29899 5.46511 5.47836 5.89493 6.05761 6.21292 6.36772 6.43191
 6.65849 7.39112 7.62601 8.03018 8.15991 8.23857 8.47315 11.61363 11.61835 11.61969
 11.62491 11.63731 11.65114 11.66386 11.66618 11.67184 12.31234 14.85399 14.90175 15.06044
 15.14765 15.20267 15.29862 15.32387 16.44645 16.53648 16.68338 16.86435 17.03514 17.16653
 55.76607 286.53615
 == 497-th k-point (-0.31093,-0.10364,0.93280) occupation: 6==
 -23.85915 -1.46217 -0.67205 -0.05226 -0.02471 0.00890 0.55867 0.60225 0.71006 0.75478
 0.95801 1.16377 1.33031 1.41683 1.49057 1.53624 1.70864 1.80029 1.88731 1.93211
 2.00866 2.07451 2.15298 2.24394 2.25644 2.35601 2.43346 2.56262 2.67940 2.77136
 2.80123 2.88707 3.33883 3.40542 3.51918 3.66794 3.76814 3.92925 4.66413 4.87958
 5.04020 5.22392 5.29620 5.43899 5.52852 5.70194 5.86217 6.07751 6.27390 6.38791
 6.83740 7.40446 7.51088 8.00574 8.11304 8.37557 8.52145 11.61636 11.62202 11.62745
 11.63591 11.63988 11.64669 11.65115 11.67993 11.74682 12.35920 14.86009 14.99267 15.06828
 15.16549 15.25082 15.29527 15.37503 16.24096 16.40457 16.57903 16.80441 16.85913 17.38615
 55.76197 286.52162
 == 498-th k-point (-0.20729,-0.00000,0.82916) occupation: 6==
 -23.85915 -1.46209 -0.67030 -0.06679 -0.01383 0.00249 0.58531 0.61641 0.68325 0.76716
 0.87005 1.29153 1.29192 1.44689 1.57284 1.62798 1.65040 1.76381 1.79530 1.86284
 2.00261 2.03695 2.14083 2.20017 2.23391 2.31808 2.35355 2.56546 2.67850 2.86555
 2.89611 3.08587 3.24879 3.37498 3.45243 3.79181 3.87016 4.20699 4.61410 4.63478
 5.01208 5.10518 5.23804 5.47471 5.47492 5.51294 5.97076 6.05337 6.24556 6.34747
 6.56610 7.52124 7.78943 7.81363 8.47063 8.53628 8.73458 11.61081 11.62200 11.62962
 11.63586 11.64544 11.64924 11.66531 11.66998 11.79741 12.58967 14.83877 14.86345 15.07317
 15.09765 15.23357 15.32834 15.33687 16.11086 16.53324 16.62969 16.67887 16.75802 17.33879
 55.69679 286.43596
 == 499-th k-point (-0.10364,0.10364,0.72551) occupation: 6==
 -23.85915 -1.46220 -0.67132 -0.06748 -0.00612 0.00268 0.56843 0.62739 0.69924 0.77918
 0.82668 1.28768 1.39961 1.42859 1.50642 1.59420 1.64835 1.70800 1.85552 1.88491
 1.95308 1.97471 2.15417 2.23341 2.32945 2.34179 2.42035 2.64057 2.72330 2.82744
 2.88112 3.03884 3.12094 3.48029 3.78005 3.85552 4.07019 4.62709 4.81915 4.85226
 4.94658 5.00760 5.17251 5.21395 5.78744 5.83766 5.86030 6.22903 6.30830 6.34502
 7.54060 7.67297 7.90189 8.00898 8.28920 8.41827 11.60200 11.61399 11.62297 11.63888
 11.64577 11.64751 11.64865 11.67789 11.73534 12.92009 14.86560 14.95334 14.95454 15.03679
 15.04467 15.18797 15.19327 16.29334 16.33094 16.57509 16.68610 16.72931 16.91929 55.39407
 286.05619
 == 500-th k-point (0.00000,0.20729,0.62187) occupation: 6==
 -23.85915 -1.46243 -0.67447 -0.05336 -0.00765 0.00908 0.53551 0.62900 0.71580 0.76962
 0.87889 1.23891 1.36187 1.43319 1.43513 1.55505 1.61372 1.70183 1.81388 1.86705
 1.99089 2.10256 2.13630 2.25465 2.32121 2.40412 2.46993 2.63132 2.84168 2.86962
 2.87596 3.06720 3.25229 3.52089 3.78489 3.79053 3.91470 4.58617 4.76779 4.91261
 4.93516 5.05288 5.12735 5.27670 5.91339 6.02349 6.10838 6.23421 6.36635 6.41688
 7.48740 7.49706 7.53871 8.14055 8.16513 8.39414 11.60799 11.62164 11.63016 11.63366
 11.63891 11.64577 11.65562 11.66466 11.70229 12.40441 14.84494 14.91476 15.00440 15.02029
 15.06713 15.11080 15.20973 16.44891 16.47522 16.65878 16.72107 16.83200 17.05233 55.59836
 286.31675
 == 501-th k-point (0.10364,0.31093,0.51822) occupation: 6==
 -23.85915 -1.46264 -0.67783 -0.04314 -0.00558 0.02067 0.49160 0.62635 0.74235 0.75846
 0.98850 1.16101 1.26108 1.38945 1.41567 1.50808 1.62620 1.79056 1.82335 1.88367
 1.99114 2.04411 2.18414 2.30945 2.36012 2.44586 2.51237 2.68838 2.78293 2.84365
 2.85251 2.90327 3.29879 3.54217 3.65922 3.81909 3.90377 4.10501 4.63758 4.73268
 4.93041 5.07862 5.17903 5.44038 5.49894 6.08019 6.11983 6.22834 6.35044 6.42867
 6.66529 7.41925 7.55609 7.99040 8.23455 8.43178 8.52478 11.60782 11.61315 11.62015
 11.62947 11.64068 11.64999 11.65390 11.67313 11.70488 12.19791 14.85936 14.90035 15.00806
 15.07824 15.14164 15.28436 15.30186 16.53968 16.59913 16.69263 16.76617 17.05608 17.22796
 55.78561 286.55055
 == 502-th k-point (0.20729,0.41458,0.41458) occupation: 6==
 -23.85915 -1.46272 -0.67949 -0.04998 0.01090 0.02728 0.45746 0.63952 0.74526 0.74750
 1.11949 1.14456 1.15218 1.36930 1.41026 1.45963 1.64101 1.82297 1.85660 1.86288
 1.94406 1.99979 2.26134 2.31700 2.36363 2.49548 2.49714 2.67793 2.78978 2.81282
 2.81555 2.87914 2.93567 3.54342 3.64409 3.66525 3.86020 3.87760 4.21389 4.47083
 4.75592 5.02960 5.12253 5.40011 5.48680 5.57541 6.17192 6.17601 6.20894 6.50224
 6.78623 6.83503 7.36884 7.74576 7.91781 8.24429 8.47279 8.56671 11.61033 11.61468
 11.62048 11.62638 11.62742 11.66118 11.66734 11.67744 11.70553 12.67667 14.77854 14.91431
 15.06600 15.10666 15.26454 15.29557 15.36882 16.61900 16.65087 16.69186 16.89756 17.12508
 17.57684 56.06012 286.88863
 == 503-th k-point (0.31093,0.51822,0.31093) occupation: 6==
 -23.85915 -1.46261 -0.67853 -0.05454 0.01389 0.02307 0.45920 0.64053 0.73987 0.74323
 1.06726 1.19711 1.21178 1.35003 1.41943 1.42491 1.69942 1.71006 1.88971 1.95426
 1.97506 2.03215 2.18575 2.29128 2.36958 2.38047 2.52499 2.68685 2.71067 2.75832
 2.87019 2.87481 2.95015 3.55929 3.70060 3.72077 3.79100 3.86080 4.19551 4.44119
 4.76017 5.04504 5.12155 5.41440 5.51351 5.51913 6.13900 6.16738 6.22844 6.64281
 6.68195 6.80379 7.37240 7.79097 8.00148 8.11901 8.44406 8.48133 11.61522 11.61537
 11.62385 11.62862 11.63729 11.65948 11.66235 11.66956 11.70841 12.75468 14.76540 14.91707
 15.07712 15.11191 15.26764 15.32095 15.34022 16.60051 16.64612 16.69084 17.03587 17.04186
 17.65295 56.14715 286.99762
 == 504-th k-point (-0.31093,-0.31093,1.14009) occupation: 6==
 -23.85915 -1.46261 -0.67853 -0.05454 0.01389 0.02307 0.45920 0.64053 0.73987 0.74323
 1.06726 1.19711 1.21178 1.35003 1.41943 1.42491 1.69942 1.71006 1.88971 1.95426
 1.97506 2.03215 2.18575 2.29128 2.36958 2.38047 2.52499 2.68685 2.71067 2.75832
 2.87019 2.87481 2.95015 3.55929 3.70060 3.72077 3.79100 3.86080 4.19551 4.44119
 4.76017 5.04504 5.12155 5.41440 5.51351 5.51913 6.13900 6.16738 6.22844 6.64281
 6.68195 6.80379 7.37240 7.79097 8.00148 8.11901 8.44406 8.48133 11.61522 11.61537
 11.62385 11.62862 11.63729 11.65948 11.66235 11.66956 11.70841 12.75468 14.76540 14.91707
 15.07712 15.11191 15.26764 15.32095 15.34022 16.60051 16.64612 16.69084 17.03587 17.04186
 17.65295 56.14715 286.99762
 == 505-th k-point (-0.20729,-0.20729,1.03645) occupation: 6==
 -23.85915 -1.46241 -0.67498 -0.05254 -0.00749 0.01260 0.51616 0.62154 0.72996 0.76185
 0.92641 1.25992 1.28605 1.40458 1.45449 1.45733 1.65435 1.74671 1.89626 1.93488
 1.98805 2.10322 2.18216 2.18544 2.29535 2.40139 2.52490 2.61025 2.68247 2.73521
 2.86163 2.94688 2.96513 3.47375 3.57155 3.65823 3.83692 3.85498 4.04637 4.60012
 4.78224 5.09493 5.17796 5.38083 5.50662 5.51986 5.83894 6.04754 6.18825 6.43464
 6.56017 6.56473 7.39330 8.02458 8.16794 8.27077 8.43777 8.45512 11.61564 11.62155
 11.62524 11.64050 11.64961 11.65444 11.66062 11.70316 11.71377 12.57875 14.85656 14.92073
 15.09701 15.14596 15.25238 15.32435 15.33794 16.43617 16.52517 16.68575 16.86845 16.93306
 17.25059 55.80002 286.56830
 == 506-th k-point (-0.10364,-0.10364,0.93280) occupation: 6==
 -23.85915 -1.46220 -0.67132 -0.06748 -0.00612 0.00268 0.56843 0.62739 0.69924 0.77918
 0.82668 1.28768 1.39961 1.42859 1.50642 1.59421 1.64837 1.70804 1.85552 1.88492
 1.95309 1.97485 2.15428 2.23343 2.32968 2.34178 2.42076 2.64062 2.72331 2.82803
 2.88112 3.03987 3.12109 3.48032 3.78044 3.85547 4.07034 4.62712 4.81920 4.85227
 4.94667 5.00767 5.17256 5.21396 5.78744 5.83779 5.86028 6.22920 6.30829 6.34504
 7.54060 7.67318 7.90206 8.00913 8.28932 8.41829 11.60200 11.61399 11.62298 11.63888
 11.64577 11.64751 11.64865 11.67789 11.73535 12.92011 14.86560 14.95335 14.95454 15.03679
 15.04468 15.18797 15.19329 16.29335 16.33094 16.57509 16.68613 16.72931 16.91936 55.39409
 286.05620
 == 507-th k-point (0.00000,-0.00000,0.82916) occupation: 6==
 -23.85915 -1.46211 -0.66978 -0.07650 -0.00127 -0.00127 0.58433 0.64368 0.68359 0.78592
 0.78592 1.27690 1.45558 1.51280 1.63272 1.63272 1.65761 1.67202 1.67207 1.92275
 1.92275 2.04031 2.08260 2.20244 2.20250 2.31901 2.31941 2.66945 2.73896 2.83991
 2.84099 2.90668 3.11667 3.47630 3.90681 3.90695 4.17659 4.81152 4.86219 5.03556
 5.03587 5.10435 5.34964 5.34964 5.57171 5.57178 5.71496 6.13676 6.30285 6.30447
 7.55889 8.08357 8.13970 8.14016 8.68475 8.68494 11.59613 11.59757 11.59757 11.61831
 11.64638 11.64682 11.64682 11.68309 11.74452 13.32017 14.93267 14.96110 15.04527 15.04531
 15.10947 15.38372 15.38374 16.02591 16.02591 16.53777 16.58474 16.71482 16.82467 55.28844
 285.91663
 == 508-th k-point (0.10364,0.10364,0.72551) occupation: 6==
 -23.85915 -1.46220 -0.67132 -0.06748 -0.00612 0.00268 0.56843 0.62739 0.69924 0.77918
 0.82668 1.28768 1.39961 1.42859 1.50642 1.59421 1.64837 1.70804 1.85552 1.88492
 1.95309 1.97485 2.15428 2.23343 2.32968 2.34178 2.42076 2.64062 2.72331 2.82803
 2.88112 3.03987 3.12109 3.48032 3.78044 3.85547 4.07034 4.62712 4.81920 4.85227
 4.94667 5.00767 5.17256 5.21396 5.78744 5.83779 5.86028 6.22920 6.30829 6.34504
 7.54060 7.67318 7.90206 8.00913 8.28932 8.41829 11.60200 11.61399 11.62298 11.63888
 11.64577 11.64751 11.64865 11.67789 11.73535 12.92011 14.86560 14.95335 14.95454 15.03679
 15.04468 15.18797 15.19329 16.29335 16.33094 16.57509 16.68613 16.72931 16.91936 55.39409
 286.05620
 == 509-th k-point (0.20729,0.20729,0.62187) occupation: 6==
 -23.85915 -1.46241 -0.67498 -0.05254 -0.00749 0.01260 0.51616 0.62154 0.72996 0.76185
 0.92641 1.25992 1.28605 1.40458 1.45449 1.45733 1.65435 1.74671 1.89626 1.93488
 1.98805 2.10322 2.18216 2.18544 2.29535 2.40139 2.52490 2.61025 2.68247 2.73521
 2.86163 2.94688 2.96513 3.47375 3.57155 3.65823 3.83692 3.85498 4.04637 4.60012
 4.78224 5.09493 5.17796 5.38083 5.50662 5.51986 5.83894 6.04754 6.18825 6.43464
 6.56017 6.56473 7.39330 8.02458 8.16794 8.27077 8.43777 8.45512 11.61564 11.62155
 11.62524 11.64050 11.64961 11.65444 11.66062 11.70316 11.71377 12.57875 14.85656 14.92073
 15.09701 15.14596 15.25238 15.32435 15.33794 16.43617 16.52517 16.68575 16.86845 16.93306
 17.25059 55.80002 286.56830
 == 510-th k-point (0.31093,0.31093,0.51822) occupation: 6==
 -23.85915 -1.46261 -0.67853 -0.05454 0.01389 0.02307 0.45920 0.64053 0.73987 0.74323
 1.06726 1.19711 1.21178 1.35003 1.41943 1.42491 1.69942 1.71006 1.88971 1.95426
 1.97506 2.03215 2.18575 2.29128 2.36958 2.38047 2.52499 2.68685 2.71067 2.75832
 2.87019 2.87481 2.95015 3.55929 3.70060 3.72077 3.79100 3.86080 4.19551 4.44119
 4.76017 5.04504 5.12155 5.41440 5.51351 5.51913 6.13900 6.16738 6.22844 6.64281
 6.68195 6.80379 7.37240 7.79097 8.00148 8.11901 8.44406 8.48133 11.61522 11.61537
 11.62385 11.62862 11.63729 11.65948 11.66235 11.66956 11.70841 12.75468 14.76540 14.91707
 15.07712 15.11191 15.26764 15.32095 15.34022 16.60051 16.64612 16.69084 17.03587 17.04186
 17.65295 56.14715 286.99762
 == 511-th k-point (0.41458,0.41458,0.41458) occupation: 6==
 -23.85915 -1.46270 -0.67998 -0.05803 0.02758 0.02758 0.43490 0.65598 0.73506 0.73506
 1.16683 1.18719 1.18719 1.27744 1.41280 1.41280 1.72345 1.72345 1.80723 2.00632
 2.00632 2.01194 2.09316 2.31953 2.31953 2.49266 2.70229 2.79266 2.79266 2.80222
 2.80222 2.90431 2.96757 3.64805 3.64805 3.74347 3.74347 3.80108 4.19229 4.37035
 4.76639 5.23864 5.23864 5.50206 5.50206 5.60619 6.11608 6.11608 6.15859 6.55109
 6.55109 6.98182 6.98182 7.19866 7.66217 7.70884 8.21474 8.21474 11.60207 11.60207
 11.61919 11.62572 11.62572 11.66133 11.66133 11.67124 11.74466 13.18850 14.72737 14.92121
 15.17595 15.17595 15.31105 15.31105 15.45933 16.58932 16.58932 16.67066 16.94727 16.94727
 18.07549 56.44603 287.35694
 ---------------------------------------------------------------------------
 VBM is at 219-th k-point with 0.98251 eV
 CBM is at 219-th k-point with 10.17366 eV
 Band gap is 9.19115 eV


           Ground-State Mulliken Net Atomic Charges

      Atom                 Charge (a.u.)          Spin (a.u.)
   --------------------------------------------------------
      1 Li               (0.111909,-0.000000)    (0.000000,0.000000)
      2  F               (-0.111909,0.000000)    (0.000000,0.000000)
   --------------------------------------------------------
  Sum of atomic charges =     (-0.000000,-0.000000)
  Sum of spin   charges =       (0.000000,0.000000)



 Total job time:  732.77 s.
 Tue Sep  9 02:42:14 2025


        *************************************************************
        *                                                           *
        *  Thank you very much for using QCPBC. Have a nice day.    *
        *                                                           *
        *************************************************************

Running job 1 of 1
