                  Welcome to Q-Chem
           with Periodic Boundary Condition
     A Quantum Leap Into The Future Of Chemistry

 Adam Rettig, Xintian Feng, Meng-Fu Chen, Hieu Dinh, Stephen Quiton,
 Anton Ni, Paul J. Robinson, Jinghong Zhang, Joonho Lee

Contributors to earlier versions of Q-Chem not listed above:
 Evgeny Epifanovsky, Leo Cunha, Jerome F. Gonthier, Kuan-Yu Liu
 Input file: /n/netscratch/joonholee_lab/Lab/hieudinh//lif_solve_def2qzvp_omega_0.3_888.scratch20250909020907/lif_solve_def2qzvp_omega_0.3_888.0
 Scratch folder: /n/netscratch/joonholee_lab/Lab/hieudinh//lif_solve_def2qzvp_omega_0.3_888.scratch20250909020907
 Auxillary files located at: /n/holylabs/LABS/joonholee_lab/Lab/qchem_base/qcaux
 Q-Chem begins on Tue Sep  9 02:09:08 2025

 -------------------------------------------------------------
 User input:
 -------------------------------------------------------------
 $lattice
 3
 0.000000 2.005000 2.005000
 2.005000 0.000000 2.005000
 2.005000 2.005000 0.000000
 $end
 
 $unitcell
 ABSOLUTE
 0 1
 Li 0.000000 0.000000 0.000000
 F  2.005000 0.000000 0.000000
 $end
 
 $rem
 jobtype = sp
 method = pbe
 scf_convergence = 5
 scf_guess = autosad
 scf_algorithm = gdm
 basis = def2-qzvp
 aux_basis = gen
 input_bohr = false
 symmetry false
 is_basis_uctr true
 rsdf_print_level 1
 
 mp_mesh = [8,8,8]
 
 integral_direct true
 bvk_cgto true
 
 thresh 14
 mem_total 100000
 threads 32
 
 MAX_SCF_CYCLES 400
 madelung = false
 omega 0.3
 do_rij_bigmem true
 automate_g true
 print_level 10
 grid_type_xc 1
 
 thresh_1e2c_sp 1e-14
 thresh_2e3c_bra_ket_sep 1e-10
 thresh_g 1e-12
 $end
 
 $aux_basis
 Li     0
 S   7   1.00
     498.3689730              0.0207908
     162.9342738              0.0542177
      57.3246735              0.1776783
      21.6427314              0.4181150
       8.7345375              0.6535245
       3.7491039              0.5492618
       1.7006754              0.1701425
 S   1   1.00
       0.8090859             -0.0097548
 S   1   1.00
       0.4000933             -0.0050152
 S   1   1.00
       0.2035793              0.0232200
 !S   1   1.00
 !      0.1054201              0.0134535
 !S   1   1.00
 !      0.0549139              0.0006647
 P   2   1.00
      10.7024696              0.0072923
       3.6551543              0.0060940
 P   1   1.00
       1.2464013              0.0172529
 P   1   1.00
       0.4246282             -0.0160026
 P   1   1.00
       0.1446192             -0.0195111
 D   2   1.00
       1.1510647             -0.0014314
       0.6019112              0.0038969
 D   1   1.00
       0.3109573              0.0024683
 D   1   1.00
       0.1600032              0.0036451
 F   2   1.00
       0.5967918              0.0010494
       0.1790687              0.0006468
 G   1   1.00
       1.0460130             -0.0001971
 ****
 F     0
 S   7   1.00
    3514.9201549              0.1805835
    1231.2458815              0.3676084
     454.1367336              1.2707881
     175.8376258              2.8274164
      71.2081775              4.3588226
      30.0316883              2.7180994
      13.1259023             -0.0804726
 S   1   1.00
       5.9126861             -0.0023370
 S   1   1.00
       2.7284431              1.1236274
 S   1   1.00
       1.2813993              0.9999042
 S   1   1.00
       0.6082793              0.3119579
 S   1   1.00
       0.2897894              0.0312295
 P   2   1.00
      49.3740409             -0.0346332
      13.4874956             -0.0096069
 P   1   1.00
       3.9664900              0.0762067
 P   1   1.00
       1.2226629             -0.0103329
 P   1   1.00
       0.3830317              0.0018853
 D   2   1.00
      29.9719140             -0.0113316
       6.7860915             -0.0467639
 D   1   1.00
       1.8137313             -0.0167604
 D   1   1.00
       0.5157840             -0.0050777
 F   2   1.00
       2.8301877              1.0
       0.9155962              1.0
 G   1   1.00
       1.6097500             -0.0005411
 ****
 $end
 -------------------------------------------------------------
 Running PBC job

 Requested Exchange Correlation Functionals: 
  DFT Exchange:  1.00000 pbe_x
  DFT Correlation:  1.00000 pbe_c
 using 32 threads for computing.
 ---------------------------------------------------------------
      Coordinates of Atoms in Central Unit Cell (Angstroms)
    I     Atom         X            Y            Z
 ---------------------------------------------------------------
    1      Li      0.000000     0.000000     0.000000
    2       F      2.005000     0.000000     0.000000
 ---------------------------------------------------------------
 --------------------------------------------------
              Lattice Vectors (Angstroms)
              X            Y            Z
 --------------------------------------------------
   X       0.000000     2.005000     2.005000
   Y       2.005000     0.000000     2.005000
   Z       2.005000     2.005000     0.000000
 --------------------------------------------------
 --------------------------------------------------
       Reciprocal Lattice Vectors (Angstroms^-1)
              X            Y            Z
 --------------------------------------------------
   X      -1.566879     1.566879     1.566879
   Y       1.566879    -1.566879     1.566879
   Z       1.566879     1.566879    -1.566879
 --------------------------------------------------

 Single point calculation requested

 Hamiltonian contributions:
 List of terms in Hamiltonian: kpts_nn, kpts_kinetic, kpts_vnuc_df, kpts_xc, kpts_rij_bigmem

 K-Points calculation started.

 Basis set information about using solid harmonic (1) or Cartesian (0):
  li : D(1) D(1) F(1) 
  f : D(1) D(1) D(1) F(1) F(1) G(1) 

 Basis set information about using solid harmonic (1) or Cartesian (0):
  li : D(1) D(1) D(1) F(1) G(1) 
  f : D(1) D(1) D(1) F(1) G(1) 

 There are 92 basis functions in the central unit cell.
 Print atomic basis of atoms in the central unit cell:
 -------------------------------------------------------------
2 53 53 30

  0.00000000000000e+00  0.00000000000000e+00  0.00000000000000e+00
  3.78890087987467e+00  0.00000000000000e+00  0.00000000000000e+00

  1.48539770850000e+04
  2.22522364770000e+03
  5.04887390080000e+02
  1.42458475480000e+02
  4.63155995800000e+01
  1.66553354740000e+01
  6.43311861990000e+00
  2.60270438580000e+00
  1.08972454050000e+00
  4.42365959710000e+00
  1.23563949900000e+00
  4.60674706020000e-01
  9.66171669550000e-02
  4.59154522960000e-02
  2.11400487300000e-02
  3.26051092060000e+00
  6.50030431150000e-01
  1.69416710730000e-01
  3.32700000000000e+00
  5.57323437670000e-02
  2.04899592410000e-02
  2.30000000000000e-01
  7.57000000000000e-02
  1.35000000000000e-01
  1.32535973450000e+05
  1.97581125880000e+04
  4.48519969470000e+03
  1.27381510200000e+03
  4.18938312360000e+02
  1.52557219850000e+02
  5.98215248230000e+01
  2.48190769320000e+01
  1.00744466730000e+02
  3.01037282900000e+01
  1.08142832720000e+01
  4.81728867700000e+00
  1.65593342130000e+00
  6.48935195820000e-01
  2.47781045450000e-01
  2.40966541140000e+02
  5.70206997810000e+01
  1.81269521200000e+01
  6.64574046210000e+00
  2.63757228920000e+00
  1.06382172000000e+00
  4.19325627500000e-01
  1.57475882990000e-01
  5.01400000000000e+00
  1.72500000000000e+00
  5.86000000000000e-01
  3.56200000000000e+00
  1.14800000000000e+00
  2.37600000000000e+00

  4.67593013229757e-02
  8.76137465723478e-02
  1.51821576860780e-01
  2.46527731442678e-01
  3.74140539449148e-01
  5.14323804423000e-01
  6.00677517411378e-01
  5.44460466941871e-01
  3.21097242154446e-01
  2.72734215356930e-01
  7.53702662810338e-01
  3.98525272814913e-01
  1.23509628755786e-01
  7.06934606713439e-02
  3.95129614058778e-02
  2.22230636644090e-01
  1.62952044217479e-01
  1.33842808684561e-01
  6.40480761295544e+00
  3.85988372286674e-02
  1.10501063034648e-02
  1.25728336426159e-01
  1.79815549832937e-02
  1.62631785032468e-02
  3.86107783813291e-01
  7.24648975903829e-01
  1.25045495963763e+00
  2.01518764389143e+00
  3.04056815166578e+00
  4.21268576129244e+00
  5.00944268647146e+00
  4.54693835849554e+00
  2.32503271092484e+00
  8.41440806306271e+00
  4.25019052011886e+00
  2.31745919743391e+00
  1.04038060130896e+00
  5.15301123337211e-01
  2.50300174847139e-01
  3.49166780573024e+00
  4.61886090108967e+00
  5.17964869303152e+00
  4.78626212475628e+00
  3.24578400123904e+00
  1.54001926672016e+00
  4.80982576947690e-01
  1.41402684040663e-01
  2.76523492268872e+01
  4.27356565232165e+00
  6.45996677345861e-01
  2.56605380682814e+01
  2.00827738540458e+00
  1.20230076986570e+01

0 0 0 0 1 1 1
0 0 
9 0

0 1 1 9 1 1 1
9 0 
2 0

0 2 2 11 1 1 1
11 0 
1 0

0 3 3 12 1 1 1
12 0 
1 0

0 4 4 13 1 1 1
13 0 
1 0

0 5 5 14 1 1 1
14 0 
1 0

0 6 6 15 1 3 3
15 1 
3 0

0 9 9 18 1 3 3
18 1 
1 0

0 12 12 19 1 3 3
19 1 
1 0

0 15 15 20 1 3 3
20 1 
1 0

0 18 18 21 1 5 6
21 2 
1 1

0 23 23 22 1 5 6
22 2 
1 1

0 28 28 23 1 7 10
23 3 
1 1

1 35 35 24 1 1 1
24 0 
8 0

1 36 36 32 1 1 1
32 0 
2 0

1 37 37 34 1 1 1
34 0 
1 0

1 38 38 35 1 1 1
35 0 
1 0

1 39 39 36 1 1 1
36 0 
1 0

1 40 40 37 1 1 1
37 0 
1 0

1 41 41 38 1 1 1
38 0 
1 0

1 42 42 39 1 3 3
39 1 
5 0

1 45 45 44 1 3 3
44 1 
1 0

1 48 48 45 1 3 3
45 1 
1 0

1 51 51 46 1 3 3
46 1 
1 0

1 54 54 47 1 5 6
47 2 
1 1

1 59 59 48 1 5 6
48 2 
1 1

1 64 64 49 1 5 6
49 2 
1 1

1 69 69 50 1 7 10
50 3 
1 1

1 76 76 51 1 7 10
51 3 
1 1

1 83 83 52 1 9 15
52 4 
1 1

 -------------------------------------------------------------
 Allocate 136872 B from available memory: 104857600000 B
 There are 15625 image cells after screening.
 There are 17628 image cells for CGTO evaluation after screening.
 Real-Space grid for FFT initialized based on kinetic energy cutoff (eV) = 500.0
 Real-Space grid for FFT: (8,8,8)
 There are 4913 real-space grid points.
 There are 27 batches of real-space grid points. 
 Size of each grid batch is around 128
 Grid for AFT initialized based on kinetic energy cutoff (eV) = 500.0
 Real-Space grid for AFT: (8,8,8)
 There are 4913 real-space grid points.

 There are 5912 atom-centered grid points.

 Spacegroup symmetry group: Fm-3m
 Reducing spacegroup symmetry to symmorphic group: F m -3 m
 Monkhorst-Pack mesh is [8,8,8]
 There are 512 k points.
kpoints in Bohr
-0.3109337727 -0.3109337727 -0.3109337727
-0.2072891818 -0.2072891818 -0.4145783636
-0.1036445909 -0.1036445909 -0.5182229546
-0.0000000000 0.0000000000 -0.6218675455
0.1036445909 0.1036445909 -0.7255121364
0.2072891818 0.2072891818 -0.8291567273
0.3109337727 0.3109337727 -0.9328013182
0.4145783636 0.4145783636 -1.0364459091
-0.2072891818 -0.4145783636 -0.2072891818
-0.1036445909 -0.3109337727 -0.3109337727
-0.0000000000 -0.2072891818 -0.4145783636
0.1036445909 -0.1036445909 -0.5182229546
0.2072891818 0.0000000000 -0.6218675455
0.3109337727 0.1036445909 -0.7255121364
0.4145783636 0.2072891818 -0.8291567273
0.5182229546 0.3109337727 -0.9328013182
-0.1036445909 -0.5182229546 -0.1036445909
-0.0000000000 -0.4145783636 -0.2072891818
0.1036445909 -0.3109337727 -0.3109337727
0.2072891818 -0.2072891818 -0.4145783636
0.3109337727 -0.1036445909 -0.5182229546
0.4145783636 0.0000000000 -0.6218675455
0.5182229546 0.1036445909 -0.7255121364
0.6218675455 0.2072891818 -0.8291567273
-0.0000000000 -0.6218675455 -0.0000000000
0.1036445909 -0.5182229546 -0.1036445909
0.2072891818 -0.4145783636 -0.2072891818
0.3109337727 -0.3109337727 -0.3109337727
0.4145783636 -0.2072891818 -0.4145783636
0.5182229546 -0.1036445909 -0.5182229546
0.6218675455 0.0000000000 -0.6218675455
0.7255121364 0.1036445909 -0.7255121364
0.1036445909 -0.7255121364 0.1036445909
0.2072891818 -0.6218675455 -0.0000000000
0.3109337727 -0.5182229546 -0.1036445909
0.4145783636 -0.4145783636 -0.2072891818
0.5182229546 -0.3109337727 -0.3109337727
0.6218675455 -0.2072891818 -0.4145783636
0.7255121364 -0.1036445909 -0.5182229546
0.8291567273 0.0000000000 -0.6218675455
0.2072891818 -0.8291567273 0.2072891818
0.3109337727 -0.7255121364 0.1036445909
0.4145783636 -0.6218675455 -0.0000000000
0.5182229546 -0.5182229546 -0.1036445909
0.6218675455 -0.4145783636 -0.2072891818
0.7255121364 -0.3109337727 -0.3109337727
0.8291567273 -0.2072891818 -0.4145783636
0.9328013182 -0.1036445909 -0.5182229546
0.3109337727 -0.9328013182 0.3109337727
0.4145783636 -0.8291567273 0.2072891818
0.5182229546 -0.7255121364 0.1036445909
0.6218675455 -0.6218675455 -0.0000000000
0.7255121364 -0.5182229546 -0.1036445909
0.8291567273 -0.4145783636 -0.2072891818
0.9328013182 -0.3109337727 -0.3109337727
1.0364459091 -0.2072891818 -0.4145783636
0.4145783636 -1.0364459091 0.4145783636
0.5182229546 -0.9328013182 0.3109337727
0.6218675455 -0.8291567273 0.2072891818
0.7255121364 -0.7255121364 0.1036445909
0.8291567273 -0.6218675455 -0.0000000000
0.9328013182 -0.5182229546 -0.1036445909
1.0364459091 -0.4145783636 -0.2072891818
1.1400905000 -0.3109337727 -0.3109337727
-0.4145783636 -0.2072891818 -0.2072891818
-0.3109337727 -0.1036445909 -0.3109337727
-0.2072891818 0.0000000000 -0.4145783636
-0.1036445909 0.1036445909 -0.5182229546
-0.0000000000 0.2072891818 -0.6218675455
0.1036445909 0.3109337727 -0.7255121364
0.2072891818 0.4145783636 -0.8291567273
0.3109337727 0.5182229546 -0.9328013182
-0.3109337727 -0.3109337727 -0.1036445909
-0.2072891818 -0.2072891818 -0.2072891818
-0.1036445909 -0.1036445909 -0.3109337727
-0.0000000000 0.0000000000 -0.4145783636
0.1036445909 0.1036445909 -0.5182229546
0.2072891818 0.2072891818 -0.6218675455
0.3109337727 0.3109337727 -0.7255121364
0.4145783636 0.4145783636 -0.8291567273
-0.2072891818 -0.4145783636 -0.0000000000
-0.1036445909 -0.3109337727 -0.1036445909
-0.0000000000 -0.2072891818 -0.2072891818
0.1036445909 -0.1036445909 -0.3109337727
0.2072891818 0.0000000000 -0.4145783636
0.3109337727 0.1036445909 -0.5182229546
0.4145783636 0.2072891818 -0.6218675455
0.5182229546 0.3109337727 -0.7255121364
-0.1036445909 -0.5182229546 0.1036445909
-0.0000000000 -0.4145783636 -0.0000000000
0.1036445909 -0.3109337727 -0.1036445909
0.2072891818 -0.2072891818 -0.2072891818
0.3109337727 -0.1036445909 -0.3109337727
0.4145783636 0.0000000000 -0.4145783636
0.5182229546 0.1036445909 -0.5182229546
0.6218675455 0.2072891818 -0.6218675455
0.0000000000 -0.6218675455 0.2072891818
0.1036445909 -0.5182229546 0.1036445909
0.2072891818 -0.4145783636 -0.0000000000
0.3109337727 -0.3109337727 -0.1036445909
0.4145783636 -0.2072891818 -0.2072891818
0.5182229546 -0.1036445909 -0.3109337727
0.6218675455 0.0000000000 -0.4145783636
0.7255121364 0.1036445909 -0.5182229546
0.1036445909 -0.7255121364 0.3109337727
0.2072891818 -0.6218675455 0.2072891818
0.3109337727 -0.5182229546 0.1036445909
0.4145783636 -0.4145783636 -0.0000000000
0.5182229546 -0.3109337727 -0.1036445909
0.6218675455 -0.2072891818 -0.2072891818
0.7255121364 -0.1036445909 -0.3109337727
0.8291567273 0.0000000000 -0.4145783636
0.2072891818 -0.8291567273 0.4145783636
0.3109337727 -0.7255121364 0.3109337727
0.4145783636 -0.6218675455 0.2072891818
0.5182229546 -0.5182229546 0.1036445909
0.6218675455 -0.4145783636 -0.0000000000
0.7255121364 -0.3109337727 -0.1036445909
0.8291567273 -0.2072891818 -0.2072891818
0.9328013182 -0.1036445909 -0.3109337727
0.3109337727 -0.9328013182 0.5182229546
0.4145783636 -0.8291567273 0.4145783636
0.5182229546 -0.7255121364 0.3109337727
0.6218675455 -0.6218675455 0.2072891818
0.7255121364 -0.5182229546 0.1036445909
0.8291567273 -0.4145783636 -0.0000000000
0.9328013182 -0.3109337727 -0.1036445909
1.0364459091 -0.2072891818 -0.2072891818
-0.5182229546 -0.1036445909 -0.1036445909
-0.4145783636 0.0000000000 -0.2072891818
-0.3109337727 0.1036445909 -0.3109337727
-0.2072891818 0.2072891818 -0.4145783636
-0.1036445909 0.3109337727 -0.5182229546
-0.0000000000 0.4145783636 -0.6218675455
0.1036445909 0.5182229546 -0.7255121364
0.2072891818 0.6218675455 -0.8291567273
-0.4145783636 -0.2072891818 -0.0000000000
-0.3109337727 -0.1036445909 -0.1036445909
-0.2072891818 0.0000000000 -0.2072891818
-0.1036445909 0.1036445909 -0.3109337727
-0.0000000000 0.2072891818 -0.4145783636
0.1036445909 0.3109337727 -0.5182229546
0.2072891818 0.4145783636 -0.6218675455
0.3109337727 0.5182229546 -0.7255121364
-0.3109337727 -0.3109337727 0.1036445909
-0.2072891818 -0.2072891818 -0.0000000000
-0.1036445909 -0.1036445909 -0.1036445909
-0.0000000000 0.0000000000 -0.2072891818
0.1036445909 0.1036445909 -0.3109337727
0.2072891818 0.2072891818 -0.4145783636
0.3109337727 0.3109337727 -0.5182229546
0.4145783636 0.4145783636 -0.6218675455
-0.2072891818 -0.4145783636 0.2072891818
-0.1036445909 -0.3109337727 0.1036445909
-0.0000000000 -0.2072891818 -0.0000000000
0.1036445909 -0.1036445909 -0.1036445909
0.2072891818 0.0000000000 -0.2072891818
0.3109337727 0.1036445909 -0.3109337727
0.4145783636 0.2072891818 -0.4145783636
0.5182229546 0.3109337727 -0.5182229546
-0.1036445909 -0.5182229546 0.3109337727
0.0000000000 -0.4145783636 0.2072891818
0.1036445909 -0.3109337727 0.1036445909
0.2072891818 -0.2072891818 -0.0000000000
0.3109337727 -0.1036445909 -0.1036445909
0.4145783636 0.0000000000 -0.2072891818
0.5182229546 0.1036445909 -0.3109337727
0.6218675455 0.2072891818 -0.4145783636
0.0000000000 -0.6218675455 0.4145783636
0.1036445909 -0.5182229546 0.3109337727
0.2072891818 -0.4145783636 0.2072891818
0.3109337727 -0.3109337727 0.1036445909
0.4145783636 -0.2072891818 -0.0000000000
0.5182229546 -0.1036445909 -0.1036445909
0.6218675455 0.0000000000 -0.2072891818
0.7255121364 0.1036445909 -0.3109337727
0.1036445909 -0.7255121364 0.5182229546
0.2072891818 -0.6218675455 0.4145783636
0.3109337727 -0.5182229546 0.3109337727
0.4145783636 -0.4145783636 0.2072891818
0.5182229546 -0.3109337727 0.1036445909
0.6218675455 -0.2072891818 -0.0000000000
0.7255121364 -0.1036445909 -0.1036445909
0.8291567273 0.0000000000 -0.2072891818
0.2072891818 -0.8291567273 0.6218675455
0.3109337727 -0.7255121364 0.5182229546
0.4145783636 -0.6218675455 0.4145783636
0.5182229546 -0.5182229546 0.3109337727
0.6218675455 -0.4145783636 0.2072891818
0.7255121364 -0.3109337727 0.1036445909
0.8291567273 -0.2072891818 -0.0000000000
0.9328013182 -0.1036445909 -0.1036445909
-0.6218675455 0.0000000000 0.0000000000
-0.5182229546 0.1036445909 -0.1036445909
-0.4145783636 0.2072891818 -0.2072891818
-0.3109337727 0.3109337727 -0.3109337727
-0.2072891818 0.4145783636 -0.4145783636
-0.1036445909 0.5182229546 -0.5182229546
-0.0000000000 0.6218675455 -0.6218675455
0.1036445909 0.7255121364 -0.7255121364
-0.5182229546 -0.1036445909 0.1036445909
-0.4145783636 0.0000000000 0.0000000000
-0.3109337727 0.1036445909 -0.1036445909
-0.2072891818 0.2072891818 -0.2072891818
-0.1036445909 0.3109337727 -0.3109337727
-0.0000000000 0.4145783636 -0.4145783636
0.1036445909 0.5182229546 -0.5182229546
0.2072891818 0.6218675455 -0.6218675455
-0.4145783636 -0.2072891818 0.2072891818
-0.3109337727 -0.1036445909 0.1036445909
-0.2072891818 0.0000000000 0.0000000000
-0.1036445909 0.1036445909 -0.1036445909
-0.0000000000 0.2072891818 -0.2072891818
0.1036445909 0.3109337727 -0.3109337727
0.2072891818 0.4145783636 -0.4145783636
0.3109337727 0.5182229546 -0.5182229546
-0.3109337727 -0.3109337727 0.3109337727
-0.2072891818 -0.2072891818 0.2072891818
-0.1036445909 -0.1036445909 0.1036445909
0.0000000000 0.0000000000 0.0000000000
0.1036445909 0.1036445909 -0.1036445909
0.2072891818 0.2072891818 -0.2072891818
0.3109337727 0.3109337727 -0.3109337727
0.4145783636 0.4145783636 -0.4145783636
-0.2072891818 -0.4145783636 0.4145783636
-0.1036445909 -0.3109337727 0.3109337727
0.0000000000 -0.2072891818 0.2072891818
0.1036445909 -0.1036445909 0.1036445909
0.2072891818 -0.0000000000 0.0000000000
0.3109337727 0.1036445909 -0.1036445909
0.4145783636 0.2072891818 -0.2072891818
0.5182229546 0.3109337727 -0.3109337727
-0.1036445909 -0.5182229546 0.5182229546
0.0000000000 -0.4145783636 0.4145783636
0.1036445909 -0.3109337727 0.3109337727
0.2072891818 -0.2072891818 0.2072891818
0.3109337727 -0.1036445909 0.1036445909
0.4145783636 -0.0000000000 0.0000000000
0.5182229546 0.1036445909 -0.1036445909
0.6218675455 0.2072891818 -0.2072891818
0.0000000000 -0.6218675455 0.6218675455
0.1036445909 -0.5182229546 0.5182229546
0.2072891818 -0.4145783636 0.4145783636
0.3109337727 -0.3109337727 0.3109337727
0.4145783636 -0.2072891818 0.2072891818
0.5182229546 -0.1036445909 0.1036445909
0.6218675455 -0.0000000000 0.0000000000
0.7255121364 0.1036445909 -0.1036445909
0.1036445909 -0.7255121364 0.7255121364
0.2072891818 -0.6218675455 0.6218675455
0.3109337727 -0.5182229546 0.5182229546
0.4145783636 -0.4145783636 0.4145783636
0.5182229546 -0.3109337727 0.3109337727
0.6218675455 -0.2072891818 0.2072891818
0.7255121364 -0.1036445909 0.1036445909
0.8291567273 -0.0000000000 0.0000000000
-0.7255121364 0.1036445909 0.1036445909
-0.6218675455 0.2072891818 0.0000000000
-0.5182229546 0.3109337727 -0.1036445909
-0.4145783636 0.4145783636 -0.2072891818
-0.3109337727 0.5182229546 -0.3109337727
-0.2072891818 0.6218675455 -0.4145783636
-0.1036445909 0.7255121364 -0.5182229546
-0.0000000000 0.8291567273 -0.6218675455
-0.6218675455 0.0000000000 0.2072891818
-0.5182229546 0.1036445909 0.1036445909
-0.4145783636 0.2072891818 0.0000000000
-0.3109337727 0.3109337727 -0.1036445909
-0.2072891818 0.4145783636 -0.2072891818
-0.1036445909 0.5182229546 -0.3109337727
-0.0000000000 0.6218675455 -0.4145783636
0.1036445909 0.7255121364 -0.5182229546
-0.5182229546 -0.1036445909 0.3109337727
-0.4145783636 -0.0000000000 0.2072891818
-0.3109337727 0.1036445909 0.1036445909
-0.2072891818 0.2072891818 0.0000000000
-0.1036445909 0.3109337727 -0.1036445909
-0.0000000000 0.4145783636 -0.2072891818
0.1036445909 0.5182229546 -0.3109337727
0.2072891818 0.6218675455 -0.4145783636
-0.4145783636 -0.2072891818 0.4145783636
-0.3109337727 -0.1036445909 0.3109337727
-0.2072891818 -0.0000000000 0.2072891818
-0.1036445909 0.1036445909 0.1036445909
0.0000000000 0.2072891818 0.0000000000
0.1036445909 0.3109337727 -0.1036445909
0.2072891818 0.4145783636 -0.2072891818
0.3109337727 0.5182229546 -0.3109337727
-0.3109337727 -0.3109337727 0.5182229546
-0.2072891818 -0.2072891818 0.4145783636
-0.1036445909 -0.1036445909 0.3109337727
0.0000000000 -0.0000000000 0.2072891818
0.1036445909 0.1036445909 0.1036445909
0.2072891818 0.2072891818 0.0000000000
0.3109337727 0.3109337727 -0.1036445909
0.4145783636 0.4145783636 -0.2072891818
-0.2072891818 -0.4145783636 0.6218675455
-0.1036445909 -0.3109337727 0.5182229546
0.0000000000 -0.2072891818 0.4145783636
0.1036445909 -0.1036445909 0.3109337727
0.2072891818 -0.0000000000 0.2072891818
0.3109337727 0.1036445909 0.1036445909
0.4145783636 0.2072891818 0.0000000000
0.5182229546 0.3109337727 -0.1036445909
-0.1036445909 -0.5182229546 0.7255121364
0.0000000000 -0.4145783636 0.6218675455
0.1036445909 -0.3109337727 0.5182229546
0.2072891818 -0.2072891818 0.4145783636
0.3109337727 -0.1036445909 0.3109337727
0.4145783636 -0.0000000000 0.2072891818
0.5182229546 0.1036445909 0.1036445909
0.6218675455 0.2072891818 0.0000000000
0.0000000000 -0.6218675455 0.8291567273
0.1036445909 -0.5182229546 0.7255121364
0.2072891818 -0.4145783636 0.6218675455
0.3109337727 -0.3109337727 0.5182229546
0.4145783636 -0.2072891818 0.4145783636
0.5182229546 -0.1036445909 0.3109337727
0.6218675455 -0.0000000000 0.2072891818
0.7255121364 0.1036445909 0.1036445909
-0.8291567273 0.2072891818 0.2072891818
-0.7255121364 0.3109337727 0.1036445909
-0.6218675455 0.4145783636 0.0000000000
-0.5182229546 0.5182229546 -0.1036445909
-0.4145783636 0.6218675455 -0.2072891818
-0.3109337727 0.7255121364 -0.3109337727
-0.2072891818 0.8291567273 -0.4145783636
-0.1036445909 0.9328013182 -0.5182229546
-0.7255121364 0.1036445909 0.3109337727
-0.6218675455 0.2072891818 0.2072891818
-0.5182229546 0.3109337727 0.1036445909
-0.4145783636 0.4145783636 0.0000000000
-0.3109337727 0.5182229546 -0.1036445909
-0.2072891818 0.6218675455 -0.2072891818
-0.1036445909 0.7255121364 -0.3109337727
-0.0000000000 0.8291567273 -0.4145783636
-0.6218675455 0.0000000000 0.4145783636
-0.5182229546 0.1036445909 0.3109337727
-0.4145783636 0.2072891818 0.2072891818
-0.3109337727 0.3109337727 0.1036445909
-0.2072891818 0.4145783636 0.0000000000
-0.1036445909 0.5182229546 -0.1036445909
0.0000000000 0.6218675455 -0.2072891818
0.1036445909 0.7255121364 -0.3109337727
-0.5182229546 -0.1036445909 0.5182229546
-0.4145783636 -0.0000000000 0.4145783636
-0.3109337727 0.1036445909 0.3109337727
-0.2072891818 0.2072891818 0.2072891818
-0.1036445909 0.3109337727 0.1036445909
0.0000000000 0.4145783636 0.0000000000
0.1036445909 0.5182229546 -0.1036445909
0.2072891818 0.6218675455 -0.2072891818
-0.4145783636 -0.2072891818 0.6218675455
-0.3109337727 -0.1036445909 0.5182229546
-0.2072891818 -0.0000000000 0.4145783636
-0.1036445909 0.1036445909 0.3109337727
0.0000000000 0.2072891818 0.2072891818
0.1036445909 0.3109337727 0.1036445909
0.2072891818 0.4145783636 0.0000000000
0.3109337727 0.5182229546 -0.1036445909
-0.3109337727 -0.3109337727 0.7255121364
-0.2072891818 -0.2072891818 0.6218675455
-0.1036445909 -0.1036445909 0.5182229546
0.0000000000 -0.0000000000 0.4145783636
0.1036445909 0.1036445909 0.3109337727
0.2072891818 0.2072891818 0.2072891818
0.3109337727 0.3109337727 0.1036445909
0.4145783636 0.4145783636 0.0000000000
-0.2072891818 -0.4145783636 0.8291567273
-0.1036445909 -0.3109337727 0.7255121364
0.0000000000 -0.2072891818 0.6218675455
0.1036445909 -0.1036445909 0.5182229546
0.2072891818 -0.0000000000 0.4145783636
0.3109337727 0.1036445909 0.3109337727
0.4145783636 0.2072891818 0.2072891818
0.5182229546 0.3109337727 0.1036445909
-0.1036445909 -0.5182229546 0.9328013182
0.0000000000 -0.4145783636 0.8291567273
0.1036445909 -0.3109337727 0.7255121364
0.2072891818 -0.2072891818 0.6218675455
0.3109337727 -0.1036445909 0.5182229546
0.4145783636 -0.0000000000 0.4145783636
0.5182229546 0.1036445909 0.3109337727
0.6218675455 0.2072891818 0.2072891818
-0.9328013182 0.3109337727 0.3109337727
-0.8291567273 0.4145783636 0.2072891818
-0.7255121364 0.5182229546 0.1036445909
-0.6218675455 0.6218675455 0.0000000000
-0.5182229546 0.7255121364 -0.1036445909
-0.4145783636 0.8291567273 -0.2072891818
-0.3109337727 0.9328013182 -0.3109337727
-0.2072891818 1.0364459091 -0.4145783636
-0.8291567273 0.2072891818 0.4145783636
-0.7255121364 0.3109337727 0.3109337727
-0.6218675455 0.4145783636 0.2072891818
-0.5182229546 0.5182229546 0.1036445909
-0.4145783636 0.6218675455 0.0000000000
-0.3109337727 0.7255121364 -0.1036445909
-0.2072891818 0.8291567273 -0.2072891818
-0.1036445909 0.9328013182 -0.3109337727
-0.7255121364 0.1036445909 0.5182229546
-0.6218675455 0.2072891818 0.4145783636
-0.5182229546 0.3109337727 0.3109337727
-0.4145783636 0.4145783636 0.2072891818
-0.3109337727 0.5182229546 0.1036445909
-0.2072891818 0.6218675455 0.0000000000
-0.1036445909 0.7255121364 -0.1036445909
0.0000000000 0.8291567273 -0.2072891818
-0.6218675455 -0.0000000000 0.6218675455
-0.5182229546 0.1036445909 0.5182229546
-0.4145783636 0.2072891818 0.4145783636
-0.3109337727 0.3109337727 0.3109337727
-0.2072891818 0.4145783636 0.2072891818
-0.1036445909 0.5182229546 0.1036445909
0.0000000000 0.6218675455 0.0000000000
0.1036445909 0.7255121364 -0.1036445909
-0.5182229546 -0.1036445909 0.7255121364
-0.4145783636 -0.0000000000 0.6218675455
-0.3109337727 0.1036445909 0.5182229546
-0.2072891818 0.2072891818 0.4145783636
-0.1036445909 0.3109337727 0.3109337727
0.0000000000 0.4145783636 0.2072891818
0.1036445909 0.5182229546 0.1036445909
0.2072891818 0.6218675455 0.0000000000
-0.4145783636 -0.2072891818 0.8291567273
-0.3109337727 -0.1036445909 0.7255121364
-0.2072891818 -0.0000000000 0.6218675455
-0.1036445909 0.1036445909 0.5182229546
0.0000000000 0.2072891818 0.4145783636
0.1036445909 0.3109337727 0.3109337727
0.2072891818 0.4145783636 0.2072891818
0.3109337727 0.5182229546 0.1036445909
-0.3109337727 -0.3109337727 0.9328013182
-0.2072891818 -0.2072891818 0.8291567273
-0.1036445909 -0.1036445909 0.7255121364
0.0000000000 -0.0000000000 0.6218675455
0.1036445909 0.1036445909 0.5182229546
0.2072891818 0.2072891818 0.4145783636
0.3109337727 0.3109337727 0.3109337727
0.4145783636 0.4145783636 0.2072891818
-0.2072891818 -0.4145783636 1.0364459091
-0.1036445909 -0.3109337727 0.9328013182
0.0000000000 -0.2072891818 0.8291567273
0.1036445909 -0.1036445909 0.7255121364
0.2072891818 -0.0000000000 0.6218675455
0.3109337727 0.1036445909 0.5182229546
0.4145783636 0.2072891818 0.4145783636
0.5182229546 0.3109337727 0.3109337727
-1.0364459091 0.4145783636 0.4145783636
-0.9328013182 0.5182229546 0.3109337727
-0.8291567273 0.6218675455 0.2072891818
-0.7255121364 0.7255121364 0.1036445909
-0.6218675455 0.8291567273 0.0000000000
-0.5182229546 0.9328013182 -0.1036445909
-0.4145783636 1.0364459091 -0.2072891818
-0.3109337727 1.1400905000 -0.3109337727
-0.9328013182 0.3109337727 0.5182229546
-0.8291567273 0.4145783636 0.4145783636
-0.7255121364 0.5182229546 0.3109337727
-0.6218675455 0.6218675455 0.2072891818
-0.5182229546 0.7255121364 0.1036445909
-0.4145783636 0.8291567273 0.0000000000
-0.3109337727 0.9328013182 -0.1036445909
-0.2072891818 1.0364459091 -0.2072891818
-0.8291567273 0.2072891818 0.6218675455
-0.7255121364 0.3109337727 0.5182229546
-0.6218675455 0.4145783636 0.4145783636
-0.5182229546 0.5182229546 0.3109337727
-0.4145783636 0.6218675455 0.2072891818
-0.3109337727 0.7255121364 0.1036445909
-0.2072891818 0.8291567273 0.0000000000
-0.1036445909 0.9328013182 -0.1036445909
-0.7255121364 0.1036445909 0.7255121364
-0.6218675455 0.2072891818 0.6218675455
-0.5182229546 0.3109337727 0.5182229546
-0.4145783636 0.4145783636 0.4145783636
-0.3109337727 0.5182229546 0.3109337727
-0.2072891818 0.6218675455 0.2072891818
-0.1036445909 0.7255121364 0.1036445909
0.0000000000 0.8291567273 0.0000000000
-0.6218675455 -0.0000000000 0.8291567273
-0.5182229546 0.1036445909 0.7255121364
-0.4145783636 0.2072891818 0.6218675455
-0.3109337727 0.3109337727 0.5182229546
-0.2072891818 0.4145783636 0.4145783636
-0.1036445909 0.5182229546 0.3109337727
0.0000000000 0.6218675455 0.2072891818
0.1036445909 0.7255121364 0.1036445909
-0.5182229546 -0.1036445909 0.9328013182
-0.4145783636 -0.0000000000 0.8291567273
-0.3109337727 0.1036445909 0.7255121364
-0.2072891818 0.2072891818 0.6218675455
-0.1036445909 0.3109337727 0.5182229546
0.0000000000 0.4145783636 0.4145783636
0.1036445909 0.5182229546 0.3109337727
0.2072891818 0.6218675455 0.2072891818
-0.4145783636 -0.2072891818 1.0364459091
-0.3109337727 -0.1036445909 0.9328013182
-0.2072891818 -0.0000000000 0.8291567273
-0.1036445909 0.1036445909 0.7255121364
0.0000000000 0.2072891818 0.6218675455
0.1036445909 0.3109337727 0.5182229546
0.2072891818 0.4145783636 0.4145783636
0.3109337727 0.5182229546 0.3109337727
-0.3109337727 -0.3109337727 1.1400905000
-0.2072891818 -0.2072891818 1.0364459091
-0.1036445909 -0.1036445909 0.9328013182
0.0000000000 -0.0000000000 0.8291567273
0.1036445909 0.1036445909 0.7255121364
0.2072891818 0.2072891818 0.6218675455
0.3109337727 0.3109337727 0.5182229546
0.4145783636 0.4145783636 0.4145783636
 There are 6 alpha and 6 beta electrons
 Start computing overlap matrix
 Allocate 69337088 B from available memory: 104857463136 B
 Time for computing overlap matrix: 31.2770000000 s
 ====== Initialize compute kernels for all-electron RI-J (kpts) ====== 
 ========================================================== 
 Range-separated parameter omega        = 0.299999999999999989
 Threshold for 1e2c shellpair           = 0.000000000000010000
 Threshold for 2e2c SR integral         = 0.000000000000000001
 Threshold for 2e3c SR integral         = 0.000000000100000000
 Threshold for AFT G-space screening is = 0.000000000001000000
 The exponent cutoff for C/D classification (omega2 / 2) is  = 0.044999999999999998
 ========================================================== 
 === Post process the basis set for RI calculation (exp_cutoff = 0.044999999999999998 ) === 
nshells_b1 before uncontraction = 30
nshells_b1 after uncontraction = 30
nshells_baux before uncontraction = 28
nshells_baux after uncontraction = 28
===============================================
nbsf total   = 92
nbsf compact = 88
nbsf diffuse = 4
naux total   = 96
naux compact = 96
naux diffuse = 0
nshells_bnuc = 2

 Number of unique atoms is 2
 Unique atom #0 (li) has 11 shells.
 Unique atom #1 (f) has 17 shells.

Shell 0 to 10 belongs to atom li
Shell 11 to 27 belongs to atom f

 Number of unique atoms is 2
 Unique atom #0 (li) has 2 shells.
 Unique atom #1 (f) has 0 shells.

Shell 0 to 1 belongs to atom li

 Number of unique atom is 2
 Unique atom #0 (li) has 13 auxiliary shells.
 Unique atom #1 (f) has 15 auxiliary shells.

Auxiliary Shell 0 to 12 belongs to atom li
Auxiliary Shell 13 to 27 belongs to atom f

================= Automatically determine grid size for reciprocal space summation =================
 Range-separated parameter = 0.30000000000000 and G-space screening threshold = 0.00000000000100
The number of grid points along each axis dimension is (3, 3, 3)
Total number of grid points = 343

Use nonortho shellpair for diffuse density
======== Initializing relevant kernel for RIJ (DD type) ========
There are 3 shellpairs in the reference unit cell
There are 26589 images and we expect to have 79767 in total
There are 13095 shellpairs in the lattice sum after screening
======== Initializing relevant kernel for RIJ (CD type) ========
There are 56 shellpairs in the reference unit cell
There are 16651 images and we expect to have 932456 in total
There are 118476 shellpairs in the lattice sum after screening
****** AFT -> SR ******
Maximum bra distance cutoff is 42.000000000000
Maximum bra ket distance cutoff is 36.979730101834
Maximum bra ket screening distance is 32.906250000000
Number of auxiliary image is 4797
There are 56 shellpairs in the reference unit cell
There are 4797 images and we expect to have 268632 in total
There are 118476 shellpairs in the lattice sum after screening
Available memory per thread for 2e3c calculation is 3.274628939000Gb
Finish initializing 2e3c SR with the lattice sum!
=================================================
======== Initializing relevant kernel for RIJ (CC type) ========
There are 403 shellpairs in the reference unit cell
There are 8175 images and we expect to have 3294525 in total
There are 69291 shellpairs in the lattice sum after screening
****** AFT -> SR ******
Maximum bra distance cutoff is 34.000000000000
Maximum bra ket distance cutoff is 40.772076789667
Maximum bra ket screening distance is 30.437500000000
Number of auxiliary image is 4389
There are 403 shellpairs in the reference unit cell
There are 2731 images and we expect to have 1100593 in total
There are 69291 shellpairs in the lattice sum after screening
Available memory per thread for 2e3c calculation is 3.274628939000Gb
Finish initializing 2e3c SR with the lattice sum!
=================================================
======== Initializing the SR component for Vnuc (CD type) ========
Maximum bra distance cutoff is 42.000000000000
Maximum bra ket distance cutoff is 30.634253998064
Maximum bra ket screening distance is 26.529449973802
Number of auxiliary image is 4797
There are 56 shellpairs in the reference unit cell
There are 4797 images and we expect to have 268632 in total
There are 118476 shellpairs in the lattice sum after screening
Available memory per thread for 2e3c calculation is 3.274628939000Gb
Finish initializing 2e3c SR with the lattice sum!
=================================================
======== Initialize the SR component for Vnuc (CC type) ========
Maximum bra distance cutoff is 34.000000000000
Maximum bra ket distance cutoff is 34.296485010202
Maximum bra ket screening distance is 23.902388373585
Number of auxiliary image is 2731
There are 403 shellpairs in the reference unit cell
There are 2731 images and we expect to have 1100593 in total
There are 69291 shellpairs in the lattice sum after screening
Available memory per thread for 2e3c calculation is 3.274628939000Gb
Finish initializing 2e3c SR with the lattice sum!
=================================================
 Aufbau occupation scheme, occupation determined by eigenvalue
 == 0-th k-point nmo = 81 (-0.31093,-0.31093,-0.31093) ==
 == 1-th k-point nmo = 82 (-0.20729,-0.20729,-0.41458) ==
 == 2-th k-point nmo = 82 (-0.10364,-0.10364,-0.51822) ==
 == 3-th k-point nmo = 81 (-0.00000,0.00000,-0.62187) ==
 == 4-th k-point nmo = 81 (0.10364,0.10364,-0.72551) ==
 == 5-th k-point nmo = 83 (0.20729,0.20729,-0.82916) ==
 == 6-th k-point nmo = 83 (0.31093,0.31093,-0.93280) ==
 == 7-th k-point nmo = 83 (0.41458,0.41458,-1.03645) ==
 == 8-th k-point nmo = 82 (-0.20729,-0.41458,-0.20729) ==
 == 9-th k-point nmo = 82 (-0.10364,-0.31093,-0.31093) ==
 == 10-th k-point nmo = 82 (-0.00000,-0.20729,-0.41458) ==
 == 11-th k-point nmo = 82 (0.10364,-0.10364,-0.51822) ==
 == 12-th k-point nmo = 81 (0.20729,0.00000,-0.62187) ==
 == 13-th k-point nmo = 82 (0.31093,0.10364,-0.72551) ==
 == 14-th k-point nmo = 82 (0.41458,0.20729,-0.82916) ==
 == 15-th k-point nmo = 82 (0.51822,0.31093,-0.93280) ==
 == 16-th k-point nmo = 82 (-0.10364,-0.51822,-0.10364) ==
 == 17-th k-point nmo = 82 (-0.00000,-0.41458,-0.20729) ==
 == 18-th k-point nmo = 82 (0.10364,-0.31093,-0.31093) ==
 == 19-th k-point nmo = 82 (0.20729,-0.20729,-0.41458) ==
 == 20-th k-point nmo = 82 (0.31093,-0.10364,-0.51822) ==
 == 21-th k-point nmo = 82 (0.41458,0.00000,-0.62187) ==
 == 22-th k-point nmo = 82 (0.51822,0.10364,-0.72551) ==
 == 23-th k-point nmo = 81 (0.62187,0.20729,-0.82916) ==
 == 24-th k-point nmo = 81 (-0.00000,-0.62187,-0.00000) ==
 == 25-th k-point nmo = 82 (0.10364,-0.51822,-0.10364) ==
 == 26-th k-point nmo = 82 (0.20729,-0.41458,-0.20729) ==
 == 27-th k-point nmo = 81 (0.31093,-0.31093,-0.31093) ==
 == 28-th k-point nmo = 83 (0.41458,-0.20729,-0.41458) ==
 == 29-th k-point nmo = 83 (0.51822,-0.10364,-0.51822) ==
 == 30-th k-point nmo = 83 (0.62187,0.00000,-0.62187) ==
 == 31-th k-point nmo = 81 (0.72551,0.10364,-0.72551) ==
 == 32-th k-point nmo = 81 (0.10364,-0.72551,0.10364) ==
 == 33-th k-point nmo = 81 (0.20729,-0.62187,-0.00000) ==
 == 34-th k-point nmo = 82 (0.31093,-0.51822,-0.10364) ==
 == 35-th k-point nmo = 83 (0.41458,-0.41458,-0.20729) ==
 == 36-th k-point nmo = 83 (0.51822,-0.31093,-0.31093) ==
 == 37-th k-point nmo = 82 (0.62187,-0.20729,-0.41458) ==
 == 38-th k-point nmo = 82 (0.72551,-0.10364,-0.51822) ==
 == 39-th k-point nmo = 82 (0.82916,0.00000,-0.62187) ==
 == 40-th k-point nmo = 83 (0.20729,-0.82916,0.20729) ==
 == 41-th k-point nmo = 82 (0.31093,-0.72551,0.10364) ==
 == 42-th k-point nmo = 82 (0.41458,-0.62187,-0.00000) ==
 == 43-th k-point nmo = 83 (0.51822,-0.51822,-0.10364) ==
 == 44-th k-point nmo = 82 (0.62187,-0.41458,-0.20729) ==
 == 45-th k-point nmo = 83 (0.72551,-0.31093,-0.31093) ==
 == 46-th k-point nmo = 82 (0.82916,-0.20729,-0.41458) ==
 == 47-th k-point nmo = 82 (0.93280,-0.10364,-0.51822) ==
 == 48-th k-point nmo = 83 (0.31093,-0.93280,0.31093) ==
 == 49-th k-point nmo = 82 (0.41458,-0.82916,0.20729) ==
 == 50-th k-point nmo = 82 (0.51822,-0.72551,0.10364) ==
 == 51-th k-point nmo = 83 (0.62187,-0.62187,-0.00000) ==
 == 52-th k-point nmo = 82 (0.72551,-0.51822,-0.10364) ==
 == 53-th k-point nmo = 82 (0.82916,-0.41458,-0.20729) ==
 == 54-th k-point nmo = 83 (0.93280,-0.31093,-0.31093) ==
 == 55-th k-point nmo = 82 (1.03645,-0.20729,-0.41458) ==
 == 56-th k-point nmo = 83 (0.41458,-1.03645,0.41458) ==
 == 57-th k-point nmo = 82 (0.51822,-0.93280,0.31093) ==
 == 58-th k-point nmo = 81 (0.62187,-0.82916,0.20729) ==
 == 59-th k-point nmo = 81 (0.72551,-0.72551,0.10364) ==
 == 60-th k-point nmo = 82 (0.82916,-0.62187,-0.00000) ==
 == 61-th k-point nmo = 82 (0.93280,-0.51822,-0.10364) ==
 == 62-th k-point nmo = 82 (1.03645,-0.41458,-0.20729) ==
 == 63-th k-point nmo = 83 (1.14009,-0.31093,-0.31093) ==
 == 64-th k-point nmo = 82 (-0.41458,-0.20729,-0.20729) ==
 == 65-th k-point nmo = 82 (-0.31093,-0.10364,-0.31093) ==
 == 66-th k-point nmo = 82 (-0.20729,0.00000,-0.41458) ==
 == 67-th k-point nmo = 82 (-0.10364,0.10364,-0.51822) ==
 == 68-th k-point nmo = 81 (-0.00000,0.20729,-0.62187) ==
 == 69-th k-point nmo = 82 (0.10364,0.31093,-0.72551) ==
 == 70-th k-point nmo = 82 (0.20729,0.41458,-0.82916) ==
 == 71-th k-point nmo = 82 (0.31093,0.51822,-0.93280) ==
 == 72-th k-point nmo = 82 (-0.31093,-0.31093,-0.10364) ==
 == 73-th k-point nmo = 83 (-0.20729,-0.20729,-0.20729) ==
 == 74-th k-point nmo = 82 (-0.10364,-0.10364,-0.31093) ==
 == 75-th k-point nmo = 81 (-0.00000,0.00000,-0.41458) ==
 == 76-th k-point nmo = 82 (0.10364,0.10364,-0.51822) ==
 == 77-th k-point nmo = 83 (0.20729,0.20729,-0.62187) ==
 == 78-th k-point nmo = 83 (0.31093,0.31093,-0.72551) ==
 == 79-th k-point nmo = 83 (0.41458,0.41458,-0.82916) ==
 == 80-th k-point nmo = 82 (-0.20729,-0.41458,-0.00000) ==
 == 81-th k-point nmo = 82 (-0.10364,-0.31093,-0.10364) ==
 == 82-th k-point nmo = 81 (-0.00000,-0.20729,-0.20729) ==
 == 83-th k-point nmo = 82 (0.10364,-0.10364,-0.31093) ==
 == 84-th k-point nmo = 82 (0.20729,0.00000,-0.41458) ==
 == 85-th k-point nmo = 82 (0.31093,0.10364,-0.51822) ==
 == 86-th k-point nmo = 82 (0.41458,0.20729,-0.62187) ==
 == 87-th k-point nmo = 82 (0.51822,0.31093,-0.72551) ==
 == 88-th k-point nmo = 82 (-0.10364,-0.51822,0.10364) ==
 == 89-th k-point nmo = 81 (-0.00000,-0.41458,-0.00000) ==
 == 90-th k-point nmo = 82 (0.10364,-0.31093,-0.10364) ==
 == 91-th k-point nmo = 83 (0.20729,-0.20729,-0.20729) ==
 == 92-th k-point nmo = 82 (0.31093,-0.10364,-0.31093) ==
 == 93-th k-point nmo = 83 (0.41458,0.00000,-0.41458) ==
 == 94-th k-point nmo = 83 (0.51822,0.10364,-0.51822) ==
 == 95-th k-point nmo = 83 (0.62187,0.20729,-0.62187) ==
 == 96-th k-point nmo = 81 (0.00000,-0.62187,0.20729) ==
 == 97-th k-point nmo = 82 (0.10364,-0.51822,0.10364) ==
 == 98-th k-point nmo = 82 (0.20729,-0.41458,-0.00000) ==
 == 99-th k-point nmo = 82 (0.31093,-0.31093,-0.10364) ==
 == 100-th k-point nmo = 82 (0.41458,-0.20729,-0.20729) ==
 == 101-th k-point nmo = 82 (0.51822,-0.10364,-0.31093) ==
 == 102-th k-point nmo = 82 (0.62187,0.00000,-0.41458) ==
 == 103-th k-point nmo = 82 (0.72551,0.10364,-0.51822) ==
 == 104-th k-point nmo = 82 (0.10364,-0.72551,0.31093) ==
 == 105-th k-point nmo = 83 (0.20729,-0.62187,0.20729) ==
 == 106-th k-point nmo = 82 (0.31093,-0.51822,0.10364) ==
 == 107-th k-point nmo = 83 (0.41458,-0.41458,-0.00000) ==
 == 108-th k-point nmo = 82 (0.51822,-0.31093,-0.10364) ==
 == 109-th k-point nmo = 83 (0.62187,-0.20729,-0.20729) ==
 == 110-th k-point nmo = 82 (0.72551,-0.10364,-0.31093) ==
 == 111-th k-point nmo = 82 (0.82916,0.00000,-0.41458) ==
 == 112-th k-point nmo = 82 (0.20729,-0.82916,0.41458) ==
 == 113-th k-point nmo = 83 (0.31093,-0.72551,0.31093) ==
 == 114-th k-point nmo = 82 (0.41458,-0.62187,0.20729) ==
 == 115-th k-point nmo = 83 (0.51822,-0.51822,0.10364) ==
 == 116-th k-point nmo = 82 (0.62187,-0.41458,-0.00000) ==
 == 117-th k-point nmo = 82 (0.72551,-0.31093,-0.10364) ==
 == 118-th k-point nmo = 83 (0.82916,-0.20729,-0.20729) ==
 == 119-th k-point nmo = 82 (0.93280,-0.10364,-0.31093) ==
 == 120-th k-point nmo = 82 (0.31093,-0.93280,0.51822) ==
 == 121-th k-point nmo = 83 (0.41458,-0.82916,0.41458) ==
 == 122-th k-point nmo = 82 (0.51822,-0.72551,0.31093) ==
 == 123-th k-point nmo = 83 (0.62187,-0.62187,0.20729) ==
 == 124-th k-point nmo = 82 (0.72551,-0.51822,0.10364) ==
 == 125-th k-point nmo = 82 (0.82916,-0.41458,-0.00000) ==
 == 126-th k-point nmo = 82 (0.93280,-0.31093,-0.10364) ==
 == 127-th k-point nmo = 83 (1.03645,-0.20729,-0.20729) ==
 == 128-th k-point nmo = 82 (-0.51822,-0.10364,-0.10364) ==
 == 129-th k-point nmo = 82 (-0.41458,0.00000,-0.20729) ==
 == 130-th k-point nmo = 82 (-0.31093,0.10364,-0.31093) ==
 == 131-th k-point nmo = 82 (-0.20729,0.20729,-0.41458) ==
 == 132-th k-point nmo = 82 (-0.10364,0.31093,-0.51822) ==
 == 133-th k-point nmo = 82 (-0.00000,0.41458,-0.62187) ==
 == 134-th k-point nmo = 82 (0.10364,0.51822,-0.72551) ==
 == 135-th k-point nmo = 81 (0.20729,0.62187,-0.82916) ==
 == 136-th k-point nmo = 82 (-0.41458,-0.20729,-0.00000) ==
 == 137-th k-point nmo = 82 (-0.31093,-0.10364,-0.10364) ==
 == 138-th k-point nmo = 81 (-0.20729,0.00000,-0.20729) ==
 == 139-th k-point nmo = 82 (-0.10364,0.10364,-0.31093) ==
 == 140-th k-point nmo = 82 (-0.00000,0.20729,-0.41458) ==
 == 141-th k-point nmo = 82 (0.10364,0.31093,-0.51822) ==
 == 142-th k-point nmo = 82 (0.20729,0.41458,-0.62187) ==
 == 143-th k-point nmo = 82 (0.31093,0.51822,-0.72551) ==
 == 144-th k-point nmo = 82 (-0.31093,-0.31093,0.10364) ==
 == 145-th k-point nmo = 81 (-0.20729,-0.20729,-0.00000) ==
 == 146-th k-point nmo = 82 (-0.10364,-0.10364,-0.10364) ==
 == 147-th k-point nmo = 81 (-0.00000,0.00000,-0.20729) ==
 == 148-th k-point nmo = 82 (0.10364,0.10364,-0.31093) ==
 == 149-th k-point nmo = 82 (0.20729,0.20729,-0.41458) ==
 == 150-th k-point nmo = 83 (0.31093,0.31093,-0.51822) ==
 == 151-th k-point nmo = 83 (0.41458,0.41458,-0.62187) ==
 == 152-th k-point nmo = 82 (-0.20729,-0.41458,0.20729) ==
 == 153-th k-point nmo = 82 (-0.10364,-0.31093,0.10364) ==
 == 154-th k-point nmo = 81 (-0.00000,-0.20729,-0.00000) ==
 == 155-th k-point nmo = 82 (0.10364,-0.10364,-0.10364) ==
 == 156-th k-point nmo = 81 (0.20729,0.00000,-0.20729) ==
 == 157-th k-point nmo = 82 (0.31093,0.10364,-0.31093) ==
 == 158-th k-point nmo = 83 (0.41458,0.20729,-0.41458) ==
 == 159-th k-point nmo = 83 (0.51822,0.31093,-0.51822) ==
 == 160-th k-point nmo = 82 (-0.10364,-0.51822,0.31093) ==
 == 161-th k-point nmo = 82 (0.00000,-0.41458,0.20729) ==
 == 162-th k-point nmo = 82 (0.10364,-0.31093,0.10364) ==
 == 163-th k-point nmo = 81 (0.20729,-0.20729,-0.00000) ==
 == 164-th k-point nmo = 82 (0.31093,-0.10364,-0.10364) ==
 == 165-th k-point nmo = 82 (0.41458,0.00000,-0.20729) ==
 == 166-th k-point nmo = 82 (0.51822,0.10364,-0.31093) ==
 == 167-th k-point nmo = 82 (0.62187,0.20729,-0.41458) ==
 == 168-th k-point nmo = 82 (0.00000,-0.62187,0.41458) ==
 == 169-th k-point nmo = 82 (0.10364,-0.51822,0.31093) ==
 == 170-th k-point nmo = 82 (0.20729,-0.41458,0.20729) ==
 == 171-th k-point nmo = 82 (0.31093,-0.31093,0.10364) ==
 == 172-th k-point nmo = 82 (0.41458,-0.20729,-0.00000) ==
 == 173-th k-point nmo = 82 (0.51822,-0.10364,-0.10364) ==
 == 174-th k-point nmo = 81 (0.62187,0.00000,-0.20729) ==
 == 175-th k-point nmo = 82 (0.72551,0.10364,-0.31093) ==
 == 176-th k-point nmo = 82 (0.10364,-0.72551,0.51822) ==
 == 177-th k-point nmo = 82 (0.20729,-0.62187,0.41458) ==
 == 178-th k-point nmo = 83 (0.31093,-0.51822,0.31093) ==
 == 179-th k-point nmo = 83 (0.41458,-0.41458,0.20729) ==
 == 180-th k-point nmo = 82 (0.51822,-0.31093,0.10364) ==
 == 181-th k-point nmo = 81 (0.62187,-0.20729,-0.00000) ==
 == 182-th k-point nmo = 81 (0.72551,-0.10364,-0.10364) ==
 == 183-th k-point nmo = 82 (0.82916,0.00000,-0.20729) ==
 == 184-th k-point nmo = 81 (0.20729,-0.82916,0.62187) ==
 == 185-th k-point nmo = 82 (0.31093,-0.72551,0.51822) ==
 == 186-th k-point nmo = 83 (0.41458,-0.62187,0.41458) ==
 == 187-th k-point nmo = 83 (0.51822,-0.51822,0.31093) ==
 == 188-th k-point nmo = 82 (0.62187,-0.41458,0.20729) ==
 == 189-th k-point nmo = 82 (0.72551,-0.31093,0.10364) ==
 == 190-th k-point nmo = 82 (0.82916,-0.20729,-0.00000) ==
 == 191-th k-point nmo = 81 (0.93280,-0.10364,-0.10364) ==
 == 192-th k-point nmo = 81 (-0.62187,0.00000,0.00000) ==
 == 193-th k-point nmo = 82 (-0.51822,0.10364,-0.10364) ==
 == 194-th k-point nmo = 82 (-0.41458,0.20729,-0.20729) ==
 == 195-th k-point nmo = 81 (-0.31093,0.31093,-0.31093) ==
 == 196-th k-point nmo = 83 (-0.20729,0.41458,-0.41458) ==
 == 197-th k-point nmo = 83 (-0.10364,0.51822,-0.51822) ==
 == 198-th k-point nmo = 83 (-0.00000,0.62187,-0.62187) ==
 == 199-th k-point nmo = 81 (0.10364,0.72551,-0.72551) ==
 == 200-th k-point nmo = 82 (-0.51822,-0.10364,0.10364) ==
 == 201-th k-point nmo = 81 (-0.41458,0.00000,0.00000) ==
 == 202-th k-point nmo = 82 (-0.31093,0.10364,-0.10364) ==
 == 203-th k-point nmo = 83 (-0.20729,0.20729,-0.20729) ==
 == 204-th k-point nmo = 82 (-0.10364,0.31093,-0.31093) ==
 == 205-th k-point nmo = 83 (-0.00000,0.41458,-0.41458) ==
 == 206-th k-point nmo = 83 (0.10364,0.51822,-0.51822) ==
 == 207-th k-point nmo = 83 (0.20729,0.62187,-0.62187) ==
 == 208-th k-point nmo = 82 (-0.41458,-0.20729,0.20729) ==
 == 209-th k-point nmo = 82 (-0.31093,-0.10364,0.10364) ==
 == 210-th k-point nmo = 81 (-0.20729,0.00000,0.00000) ==
 == 211-th k-point nmo = 82 (-0.10364,0.10364,-0.10364) ==
 == 212-th k-point nmo = 81 (-0.00000,0.20729,-0.20729) ==
 == 213-th k-point nmo = 82 (0.10364,0.31093,-0.31093) ==
 == 214-th k-point nmo = 83 (0.20729,0.41458,-0.41458) ==
 == 215-th k-point nmo = 83 (0.31093,0.51822,-0.51822) ==
 == 216-th k-point nmo = 81 (-0.31093,-0.31093,0.31093) ==
 == 217-th k-point nmo = 83 (-0.20729,-0.20729,0.20729) ==
 == 218-th k-point nmo = 82 (-0.10364,-0.10364,0.10364) ==
 == 219-th k-point nmo = 83 (0.00000,0.00000,0.00000) ==
 == 220-th k-point nmo = 82 (0.10364,0.10364,-0.10364) ==
 == 221-th k-point nmo = 83 (0.20729,0.20729,-0.20729) ==
 == 222-th k-point nmo = 81 (0.31093,0.31093,-0.31093) ==
 == 223-th k-point nmo = 83 (0.41458,0.41458,-0.41458) ==
 == 224-th k-point nmo = 83 (-0.20729,-0.41458,0.41458) ==
 == 225-th k-point nmo = 82 (-0.10364,-0.31093,0.31093) ==
 == 226-th k-point nmo = 81 (0.00000,-0.20729,0.20729) ==
 == 227-th k-point nmo = 82 (0.10364,-0.10364,0.10364) ==
 == 228-th k-point nmo = 81 (0.20729,-0.00000,0.00000) ==
 == 229-th k-point nmo = 82 (0.31093,0.10364,-0.10364) ==
 == 230-th k-point nmo = 82 (0.41458,0.20729,-0.20729) ==
 == 231-th k-point nmo = 83 (0.51822,0.31093,-0.31093) ==
 == 232-th k-point nmo = 83 (-0.10364,-0.51822,0.51822) ==
 == 233-th k-point nmo = 83 (0.00000,-0.41458,0.41458) ==
 == 234-th k-point nmo = 82 (0.10364,-0.31093,0.31093) ==
 == 235-th k-point nmo = 83 (0.20729,-0.20729,0.20729) ==
 == 236-th k-point nmo = 82 (0.31093,-0.10364,0.10364) ==
 == 237-th k-point nmo = 81 (0.41458,-0.00000,0.00000) ==
 == 238-th k-point nmo = 82 (0.51822,0.10364,-0.10364) ==
 == 239-th k-point nmo = 83 (0.62187,0.20729,-0.20729) ==
 == 240-th k-point nmo = 83 (0.00000,-0.62187,0.62187) ==
 == 241-th k-point nmo = 83 (0.10364,-0.51822,0.51822) ==
 == 242-th k-point nmo = 83 (0.20729,-0.41458,0.41458) ==
 == 243-th k-point nmo = 81 (0.31093,-0.31093,0.31093) ==
 == 244-th k-point nmo = 82 (0.41458,-0.20729,0.20729) ==
 == 245-th k-point nmo = 82 (0.51822,-0.10364,0.10364) ==
 == 246-th k-point nmo = 81 (0.62187,-0.00000,0.00000) ==
 == 247-th k-point nmo = 81 (0.72551,0.10364,-0.10364) ==
 == 248-th k-point nmo = 81 (0.10364,-0.72551,0.72551) ==
 == 249-th k-point nmo = 83 (0.20729,-0.62187,0.62187) ==
 == 250-th k-point nmo = 83 (0.31093,-0.51822,0.51822) ==
 == 251-th k-point nmo = 83 (0.41458,-0.41458,0.41458) ==
 == 252-th k-point nmo = 83 (0.51822,-0.31093,0.31093) ==
 == 253-th k-point nmo = 83 (0.62187,-0.20729,0.20729) ==
 == 254-th k-point nmo = 81 (0.72551,-0.10364,0.10364) ==
 == 255-th k-point nmo = 81 (0.82916,-0.00000,0.00000) ==
 == 256-th k-point nmo = 81 (-0.72551,0.10364,0.10364) ==
 == 257-th k-point nmo = 81 (-0.62187,0.20729,0.00000) ==
 == 258-th k-point nmo = 82 (-0.51822,0.31093,-0.10364) ==
 == 259-th k-point nmo = 83 (-0.41458,0.41458,-0.20729) ==
 == 260-th k-point nmo = 83 (-0.31093,0.51822,-0.31093) ==
 == 261-th k-point nmo = 82 (-0.20729,0.62187,-0.41458) ==
 == 262-th k-point nmo = 82 (-0.10364,0.72551,-0.51822) ==
 == 263-th k-point nmo = 82 (-0.00000,0.82916,-0.62187) ==
 == 264-th k-point nmo = 81 (-0.62187,0.00000,0.20729) ==
 == 265-th k-point nmo = 82 (-0.51822,0.10364,0.10364) ==
 == 266-th k-point nmo = 82 (-0.41458,0.20729,0.00000) ==
 == 267-th k-point nmo = 82 (-0.31093,0.31093,-0.10364) ==
 == 268-th k-point nmo = 82 (-0.20729,0.41458,-0.20729) ==
 == 269-th k-point nmo = 82 (-0.10364,0.51822,-0.31093) ==
 == 270-th k-point nmo = 82 (-0.00000,0.62187,-0.41458) ==
 == 271-th k-point nmo = 82 (0.10364,0.72551,-0.51822) ==
 == 272-th k-point nmo = 82 (-0.51822,-0.10364,0.31093) ==
 == 273-th k-point nmo = 82 (-0.41458,-0.00000,0.20729) ==
 == 274-th k-point nmo = 82 (-0.31093,0.10364,0.10364) ==
 == 275-th k-point nmo = 81 (-0.20729,0.20729,0.00000) ==
 == 276-th k-point nmo = 82 (-0.10364,0.31093,-0.10364) ==
 == 277-th k-point nmo = 82 (-0.00000,0.41458,-0.20729) ==
 == 278-th k-point nmo = 82 (0.10364,0.51822,-0.31093) ==
 == 279-th k-point nmo = 82 (0.20729,0.62187,-0.41458) ==
 == 280-th k-point nmo = 83 (-0.41458,-0.20729,0.41458) ==
 == 281-th k-point nmo = 82 (-0.31093,-0.10364,0.31093) ==
 == 282-th k-point nmo = 81 (-0.20729,-0.00000,0.20729) ==
 == 283-th k-point nmo = 82 (-0.10364,0.10364,0.10364) ==
 == 284-th k-point nmo = 81 (0.00000,0.20729,0.00000) ==
 == 285-th k-point nmo = 82 (0.10364,0.31093,-0.10364) ==
 == 286-th k-point nmo = 82 (0.20729,0.41458,-0.20729) ==
 == 287-th k-point nmo = 83 (0.31093,0.51822,-0.31093) ==
 == 288-th k-point nmo = 83 (-0.31093,-0.31093,0.51822) ==
 == 289-th k-point nmo = 82 (-0.20729,-0.20729,0.41458) ==
 == 290-th k-point nmo = 82 (-0.10364,-0.10364,0.31093) ==
 == 291-th k-point nmo = 81 (0.00000,-0.00000,0.20729) ==
 == 292-th k-point nmo = 82 (0.10364,0.10364,0.10364) ==
 == 293-th k-point nmo = 81 (0.20729,0.20729,0.00000) ==
 == 294-th k-point nmo = 82 (0.31093,0.31093,-0.10364) ==
 == 295-th k-point nmo = 83 (0.41458,0.41458,-0.20729) ==
 == 296-th k-point nmo = 82 (-0.20729,-0.41458,0.62187) ==
 == 297-th k-point nmo = 82 (-0.10364,-0.31093,0.51822) ==
 == 298-th k-point nmo = 82 (0.00000,-0.20729,0.41458) ==
 == 299-th k-point nmo = 82 (0.10364,-0.10364,0.31093) ==
 == 300-th k-point nmo = 81 (0.20729,-0.00000,0.20729) ==
 == 301-th k-point nmo = 82 (0.31093,0.10364,0.10364) ==
 == 302-th k-point nmo = 82 (0.41458,0.20729,0.00000) ==
 == 303-th k-point nmo = 82 (0.51822,0.31093,-0.10364) ==
 == 304-th k-point nmo = 82 (-0.10364,-0.51822,0.72551) ==
 == 305-th k-point nmo = 82 (0.00000,-0.41458,0.62187) ==
 == 306-th k-point nmo = 82 (0.10364,-0.31093,0.51822) ==
 == 307-th k-point nmo = 82 (0.20729,-0.20729,0.41458) ==
 == 308-th k-point nmo = 82 (0.31093,-0.10364,0.31093) ==
 == 309-th k-point nmo = 82 (0.41458,-0.00000,0.20729) ==
 == 310-th k-point nmo = 82 (0.51822,0.10364,0.10364) ==
 == 311-th k-point nmo = 81 (0.62187,0.20729,0.00000) ==
 == 312-th k-point nmo = 82 (0.00000,-0.62187,0.82916) ==
 == 313-th k-point nmo = 82 (0.10364,-0.51822,0.72551) ==
 == 314-th k-point nmo = 82 (0.20729,-0.41458,0.62187) ==
 == 315-th k-point nmo = 83 (0.31093,-0.31093,0.51822) ==
 == 316-th k-point nmo = 83 (0.41458,-0.20729,0.41458) ==
 == 317-th k-point nmo = 82 (0.51822,-0.10364,0.31093) ==
 == 318-th k-point nmo = 81 (0.62187,-0.00000,0.20729) ==
 == 319-th k-point nmo = 81 (0.72551,0.10364,0.10364) ==
 == 320-th k-point nmo = 83 (-0.82916,0.20729,0.20729) ==
 == 321-th k-point nmo = 82 (-0.72551,0.31093,0.10364) ==
 == 322-th k-point nmo = 82 (-0.62187,0.41458,0.00000) ==
 == 323-th k-point nmo = 83 (-0.51822,0.51822,-0.10364) ==
 == 324-th k-point nmo = 82 (-0.41458,0.62187,-0.20729) ==
 == 325-th k-point nmo = 83 (-0.31093,0.72551,-0.31093) ==
 == 326-th k-point nmo = 82 (-0.20729,0.82916,-0.41458) ==
 == 327-th k-point nmo = 82 (-0.10364,0.93280,-0.51822) ==
 == 328-th k-point nmo = 82 (-0.72551,0.10364,0.31093) ==
 == 329-th k-point nmo = 83 (-0.62187,0.20729,0.20729) ==
 == 330-th k-point nmo = 82 (-0.51822,0.31093,0.10364) ==
 == 331-th k-point nmo = 83 (-0.41458,0.41458,0.00000) ==
 == 332-th k-point nmo = 82 (-0.31093,0.51822,-0.10364) ==
 == 333-th k-point nmo = 83 (-0.20729,0.62187,-0.20729) ==
 == 334-th k-point nmo = 82 (-0.10364,0.72551,-0.31093) ==
 == 335-th k-point nmo = 82 (-0.00000,0.82916,-0.41458) ==
 == 336-th k-point nmo = 82 (-0.62187,0.00000,0.41458) ==
 == 337-th k-point nmo = 82 (-0.51822,0.10364,0.31093) ==
 == 338-th k-point nmo = 82 (-0.41458,0.20729,0.20729) ==
 == 339-th k-point nmo = 82 (-0.31093,0.31093,0.10364) ==
 == 340-th k-point nmo = 82 (-0.20729,0.41458,0.00000) ==
 == 341-th k-point nmo = 82 (-0.10364,0.51822,-0.10364) ==
 == 342-th k-point nmo = 81 (0.00000,0.62187,-0.20729) ==
 == 343-th k-point nmo = 82 (0.10364,0.72551,-0.31093) ==
 == 344-th k-point nmo = 83 (-0.51822,-0.10364,0.51822) ==
 == 345-th k-point nmo = 83 (-0.41458,-0.00000,0.41458) ==
 == 346-th k-point nmo = 82 (-0.31093,0.10364,0.31093) ==
 == 347-th k-point nmo = 83 (-0.20729,0.20729,0.20729) ==
 == 348-th k-point nmo = 82 (-0.10364,0.31093,0.10364) ==
 == 349-th k-point nmo = 81 (0.00000,0.41458,0.00000) ==
 == 350-th k-point nmo = 82 (0.10364,0.51822,-0.10364) ==
 == 351-th k-point nmo = 83 (0.20729,0.62187,-0.20729) ==
 == 352-th k-point nmo = 82 (-0.41458,-0.20729,0.62187) ==
 == 353-th k-point nmo = 82 (-0.31093,-0.10364,0.51822) ==
 == 354-th k-point nmo = 82 (-0.20729,-0.00000,0.41458) ==
 == 355-th k-point nmo = 82 (-0.10364,0.10364,0.31093) ==
 == 356-th k-point nmo = 81 (0.00000,0.20729,0.20729) ==
 == 357-th k-point nmo = 82 (0.10364,0.31093,0.10364) ==
 == 358-th k-point nmo = 82 (0.20729,0.41458,0.00000) ==
 == 359-th k-point nmo = 82 (0.31093,0.51822,-0.10364) ==
 == 360-th k-point nmo = 83 (-0.31093,-0.31093,0.72551) ==
 == 361-th k-point nmo = 83 (-0.20729,-0.20729,0.62187) ==
 == 362-th k-point nmo = 82 (-0.10364,-0.10364,0.51822) ==
 == 363-th k-point nmo = 81 (0.00000,-0.00000,0.41458) ==
 == 364-th k-point nmo = 82 (0.10364,0.10364,0.31093) ==
 == 365-th k-point nmo = 83 (0.20729,0.20729,0.20729) ==
 == 366-th k-point nmo = 82 (0.31093,0.31093,0.10364) ==
 == 367-th k-point nmo = 83 (0.41458,0.41458,0.00000) ==
 == 368-th k-point nmo = 82 (-0.20729,-0.41458,0.82916) ==
 == 369-th k-point nmo = 82 (-0.10364,-0.31093,0.72551) ==
 == 370-th k-point nmo = 81 (0.00000,-0.20729,0.62187) ==
 == 371-th k-point nmo = 82 (0.10364,-0.10364,0.51822) ==
 == 372-th k-point nmo = 82 (0.20729,-0.00000,0.41458) ==
 == 373-th k-point nmo = 82 (0.31093,0.10364,0.31093) ==
 == 374-th k-point nmo = 82 (0.41458,0.20729,0.20729) ==
 == 375-th k-point nmo = 82 (0.51822,0.31093,0.10364) ==
 == 376-th k-point nmo = 82 (-0.10364,-0.51822,0.93280) ==
 == 377-th k-point nmo = 82 (0.00000,-0.41458,0.82916) ==
 == 378-th k-point nmo = 82 (0.10364,-0.31093,0.72551) ==
 == 379-th k-point nmo = 83 (0.20729,-0.20729,0.62187) ==
 == 380-th k-point nmo = 82 (0.31093,-0.10364,0.51822) ==
 == 381-th k-point nmo = 83 (0.41458,-0.00000,0.41458) ==
 == 382-th k-point nmo = 82 (0.51822,0.10364,0.31093) ==
 == 383-th k-point nmo = 83 (0.62187,0.20729,0.20729) ==
 == 384-th k-point nmo = 83 (-0.93280,0.31093,0.31093) ==
 == 385-th k-point nmo = 82 (-0.82916,0.41458,0.20729) ==
 == 386-th k-point nmo = 82 (-0.72551,0.51822,0.10364) ==
 == 387-th k-point nmo = 83 (-0.62187,0.62187,0.00000) ==
 == 388-th k-point nmo = 82 (-0.51822,0.72551,-0.10364) ==
 == 389-th k-point nmo = 82 (-0.41458,0.82916,-0.20729) ==
 == 390-th k-point nmo = 83 (-0.31093,0.93280,-0.31093) ==
 == 391-th k-point nmo = 82 (-0.20729,1.03645,-0.41458) ==
 == 392-th k-point nmo = 82 (-0.82916,0.20729,0.41458) ==
 == 393-th k-point nmo = 83 (-0.72551,0.31093,0.31093) ==
 == 394-th k-point nmo = 82 (-0.62187,0.41458,0.20729) ==
 == 395-th k-point nmo = 83 (-0.51822,0.51822,0.10364) ==
 == 396-th k-point nmo = 82 (-0.41458,0.62187,0.00000) ==
 == 397-th k-point nmo = 82 (-0.31093,0.72551,-0.10364) ==
 == 398-th k-point nmo = 83 (-0.20729,0.82916,-0.20729) ==
 == 399-th k-point nmo = 82 (-0.10364,0.93280,-0.31093) ==
 == 400-th k-point nmo = 82 (-0.72551,0.10364,0.51822) ==
 == 401-th k-point nmo = 82 (-0.62187,0.20729,0.41458) ==
 == 402-th k-point nmo = 83 (-0.51822,0.31093,0.31093) ==
 == 403-th k-point nmo = 83 (-0.41458,0.41458,0.20729) ==
 == 404-th k-point nmo = 82 (-0.31093,0.51822,0.10364) ==
 == 405-th k-point nmo = 81 (-0.20729,0.62187,0.00000) ==
 == 406-th k-point nmo = 81 (-0.10364,0.72551,-0.10364) ==
 == 407-th k-point nmo = 82 (0.00000,0.82916,-0.20729) ==
 == 408-th k-point nmo = 83 (-0.62187,-0.00000,0.62187) ==
 == 409-th k-point nmo = 83 (-0.51822,0.10364,0.51822) ==
 == 410-th k-point nmo = 83 (-0.41458,0.20729,0.41458) ==
 == 411-th k-point nmo = 81 (-0.31093,0.31093,0.31093) ==
 == 412-th k-point nmo = 82 (-0.20729,0.41458,0.20729) ==
 == 413-th k-point nmo = 82 (-0.10364,0.51822,0.10364) ==
 == 414-th k-point nmo = 81 (0.00000,0.62187,0.00000) ==
 == 415-th k-point nmo = 81 (0.10364,0.72551,-0.10364) ==
 == 416-th k-point nmo = 82 (-0.51822,-0.10364,0.72551) ==
 == 417-th k-point nmo = 82 (-0.41458,-0.00000,0.62187) ==
 == 418-th k-point nmo = 82 (-0.31093,0.10364,0.51822) ==
 == 419-th k-point nmo = 82 (-0.20729,0.20729,0.41458) ==
 == 420-th k-point nmo = 82 (-0.10364,0.31093,0.31093) ==
 == 421-th k-point nmo = 82 (0.00000,0.41458,0.20729) ==
 == 422-th k-point nmo = 82 (0.10364,0.51822,0.10364) ==
 == 423-th k-point nmo = 81 (0.20729,0.62187,0.00000) ==
 == 424-th k-point nmo = 82 (-0.41458,-0.20729,0.82916) ==
 == 425-th k-point nmo = 82 (-0.31093,-0.10364,0.72551) ==
 == 426-th k-point nmo = 81 (-0.20729,-0.00000,0.62187) ==
 == 427-th k-point nmo = 82 (-0.10364,0.10364,0.51822) ==
 == 428-th k-point nmo = 82 (0.00000,0.20729,0.41458) ==
 == 429-th k-point nmo = 82 (0.10364,0.31093,0.31093) ==
 == 430-th k-point nmo = 82 (0.20729,0.41458,0.20729) ==
 == 431-th k-point nmo = 82 (0.31093,0.51822,0.10364) ==
 == 432-th k-point nmo = 83 (-0.31093,-0.31093,0.93280) ==
 == 433-th k-point nmo = 83 (-0.20729,-0.20729,0.82916) ==
 == 434-th k-point nmo = 81 (-0.10364,-0.10364,0.72551) ==
 == 435-th k-point nmo = 81 (0.00000,-0.00000,0.62187) ==
 == 436-th k-point nmo = 82 (0.10364,0.10364,0.51822) ==
 == 437-th k-point nmo = 82 (0.20729,0.20729,0.41458) ==
 == 438-th k-point nmo = 81 (0.31093,0.31093,0.31093) ==
 == 439-th k-point nmo = 83 (0.41458,0.41458,0.20729) ==
 == 440-th k-point nmo = 82 (-0.20729,-0.41458,1.03645) ==
 == 441-th k-point nmo = 82 (-0.10364,-0.31093,0.93280) ==
 == 442-th k-point nmo = 82 (0.00000,-0.20729,0.82916) ==
 == 443-th k-point nmo = 81 (0.10364,-0.10364,0.72551) ==
 == 444-th k-point nmo = 81 (0.20729,-0.00000,0.62187) ==
 == 445-th k-point nmo = 82 (0.31093,0.10364,0.51822) ==
 == 446-th k-point nmo = 83 (0.41458,0.20729,0.41458) ==
 == 447-th k-point nmo = 83 (0.51822,0.31093,0.31093) ==
 == 448-th k-point nmo = 83 (-1.03645,0.41458,0.41458) ==
 == 449-th k-point nmo = 82 (-0.93280,0.51822,0.31093) ==
 == 450-th k-point nmo = 81 (-0.82916,0.62187,0.20729) ==
 == 451-th k-point nmo = 81 (-0.72551,0.72551,0.10364) ==
 == 452-th k-point nmo = 82 (-0.62187,0.82916,0.00000) ==
 == 453-th k-point nmo = 82 (-0.51822,0.93280,-0.10364) ==
 == 454-th k-point nmo = 82 (-0.41458,1.03645,-0.20729) ==
 == 455-th k-point nmo = 83 (-0.31093,1.14009,-0.31093) ==
 == 456-th k-point nmo = 82 (-0.93280,0.31093,0.51822) ==
 == 457-th k-point nmo = 83 (-0.82916,0.41458,0.41458) ==
 == 458-th k-point nmo = 82 (-0.72551,0.51822,0.31093) ==
 == 459-th k-point nmo = 83 (-0.62187,0.62187,0.20729) ==
 == 460-th k-point nmo = 82 (-0.51822,0.72551,0.10364) ==
 == 461-th k-point nmo = 82 (-0.41458,0.82916,0.00000) ==
 == 462-th k-point nmo = 82 (-0.31093,0.93280,-0.10364) ==
 == 463-th k-point nmo = 83 (-0.20729,1.03645,-0.20729) ==
 == 464-th k-point nmo = 81 (-0.82916,0.20729,0.62187) ==
 == 465-th k-point nmo = 82 (-0.72551,0.31093,0.51822) ==
 == 466-th k-point nmo = 83 (-0.62187,0.41458,0.41458) ==
 == 467-th k-point nmo = 83 (-0.51822,0.51822,0.31093) ==
 == 468-th k-point nmo = 82 (-0.41458,0.62187,0.20729) ==
 == 469-th k-point nmo = 82 (-0.31093,0.72551,0.10364) ==
 == 470-th k-point nmo = 82 (-0.20729,0.82916,0.00000) ==
 == 471-th k-point nmo = 81 (-0.10364,0.93280,-0.10364) ==
 == 472-th k-point nmo = 81 (-0.72551,0.10364,0.72551) ==
 == 473-th k-point nmo = 83 (-0.62187,0.20729,0.62187) ==
 == 474-th k-point nmo = 83 (-0.51822,0.31093,0.51822) ==
 == 475-th k-point nmo = 83 (-0.41458,0.41458,0.41458) ==
 == 476-th k-point nmo = 83 (-0.31093,0.51822,0.31093) ==
 == 477-th k-point nmo = 83 (-0.20729,0.62187,0.20729) ==
 == 478-th k-point nmo = 81 (-0.10364,0.72551,0.10364) ==
 == 479-th k-point nmo = 81 (0.00000,0.82916,0.00000) ==
 == 480-th k-point nmo = 82 (-0.62187,-0.00000,0.82916) ==
 == 481-th k-point nmo = 82 (-0.51822,0.10364,0.72551) ==
 == 482-th k-point nmo = 82 (-0.41458,0.20729,0.62187) ==
 == 483-th k-point nmo = 83 (-0.31093,0.31093,0.51822) ==
 == 484-th k-point nmo = 83 (-0.20729,0.41458,0.41458) ==
 == 485-th k-point nmo = 82 (-0.10364,0.51822,0.31093) ==
 == 486-th k-point nmo = 81 (0.00000,0.62187,0.20729) ==
 == 487-th k-point nmo = 81 (0.10364,0.72551,0.10364) ==
 == 488-th k-point nmo = 82 (-0.51822,-0.10364,0.93280) ==
 == 489-th k-point nmo = 82 (-0.41458,-0.00000,0.82916) ==
 == 490-th k-point nmo = 82 (-0.31093,0.10364,0.72551) ==
 == 491-th k-point nmo = 83 (-0.20729,0.20729,0.62187) ==
 == 492-th k-point nmo = 82 (-0.10364,0.31093,0.51822) ==
 == 493-th k-point nmo = 83 (0.00000,0.41458,0.41458) ==
 == 494-th k-point nmo = 82 (0.10364,0.51822,0.31093) ==
 == 495-th k-point nmo = 83 (0.20729,0.62187,0.20729) ==
 == 496-th k-point nmo = 82 (-0.41458,-0.20729,1.03645) ==
 == 497-th k-point nmo = 82 (-0.31093,-0.10364,0.93280) ==
 == 498-th k-point nmo = 82 (-0.20729,-0.00000,0.82916) ==
 == 499-th k-point nmo = 81 (-0.10364,0.10364,0.72551) ==
 == 500-th k-point nmo = 81 (0.00000,0.20729,0.62187) ==
 == 501-th k-point nmo = 82 (0.10364,0.31093,0.51822) ==
 == 502-th k-point nmo = 83 (0.20729,0.41458,0.41458) ==
 == 503-th k-point nmo = 83 (0.31093,0.51822,0.31093) ==
 == 504-th k-point nmo = 83 (-0.31093,-0.31093,1.14009) ==
 == 505-th k-point nmo = 83 (-0.20729,-0.20729,1.03645) ==
 == 506-th k-point nmo = 81 (-0.10364,-0.10364,0.93280) ==
 == 507-th k-point nmo = 81 (0.00000,-0.00000,0.82916) ==
 == 508-th k-point nmo = 81 (0.10364,0.10364,0.72551) ==
 == 509-th k-point nmo = 83 (0.20729,0.20729,0.62187) ==
 == 510-th k-point nmo = 83 (0.31093,0.31093,0.51822) ==
 == 511-th k-point nmo = 83 (0.41458,0.41458,0.41458) ==

 Generate autoSAD guess
backing up fragment data
Atom # 0: li, charge: 0, multiplicity: 2.000000
Atom # 1: f, charge: 0, multiplicity: 2.000000
writing autosad to fragment context
Settings for isolated fragments: 
  frgm_gamma: TRUE
  frgm_center: FALSE

    Running SCF for isolated atom #0
    Fragment Input file: /n/netscratch/joonholee_lab/Lab/hieudinh//lif_solve_def2qzvp_omega_0.3_888.scratch20250909020907/autosad_frgmt_0/frgmt_input.in
    Fragment Output file: /n/netscratch/joonholee_lab/Lab/hieudinh//lif_solve_def2qzvp_omega_0.3_888.scratch20250909020907/autosad_frgmt_0/frgmt_job.out
    Fragment job begins at Tue Sep  9 02:09:51 2025

 Integrated density by DFT XC:
   Numerical integral  =     3.000000007147
   Relative error      =     0.0000002382 %
Final energy components:
 DFT Correlation            Energy =  -0.05090044545114
 DFT Exchange               Energy =  -1.75144597421910
 Kinetic (alpha)            Energy =   3.82935284817784
 Kinetic (beta)             Energy =   3.58515893685386
 Nuclear Attraction (alpha) Energy =  -9.10791001172893
 Nuclear Attraction (beta)  Energy =  -8.01914849492518
 Nuclear Repulsion          Energy =   0.00000000000000
 SEOQF                      Energy =  -0.00000000000000
 Total Coulomb              Energy =   4.05291331077687
----------------------------------------------
    SCF Energy: -7.4619798305
   Total fragment job time:  0.49 s.
    Running SCF for isolated atom #1
    Fragment Input file: /n/netscratch/joonholee_lab/Lab/hieudinh//lif_solve_def2qzvp_omega_0.3_888.scratch20250909020907/autosad_frgmt_1/frgmt_input.in
    Fragment Output file: /n/netscratch/joonholee_lab/Lab/hieudinh//lif_solve_def2qzvp_omega_0.3_888.scratch20250909020907/autosad_frgmt_1/frgmt_job.out
    Fragment job begins at Tue Sep  9 02:09:51 2025

 Integrated density by DFT XC:
   Numerical integral  =     9.000000098353
   Relative error      =     0.0000010928 %
Final energy components:
 DFT Correlation            Energy =  -0.28943664182310
 DFT Exchange               Energy =  -9.96991500891564
 Kinetic (alpha)            Energy =  51.55258412072413
 Kinetic (beta)             Energy =  47.84820569403621
 Nuclear Attraction (alpha) Energy = -125.30574122940673
 Nuclear Attraction (beta)  Energy = -113.20186276241691
 Nuclear Repulsion          Energy =   0.00000000000000
 SEOQF                      Energy =  -0.00000000020726
 Total Coulomb              Energy =  49.69105360806790
----------------------------------------------
    SCF Energy: -99.6751122199
   Total fragment job time:  0.52 s.
restoring fragment data

 ------------------------------------------------------------------------
 Allocate 344947968 B from available memory: 104788126048 B
 Time for generating SCF guess: 1.14 s

 Allocate 446984 B from available memory: 104443178080 B
 Selected algorithms for each term:
  kpts_kinetic -> @0x154c55e1d680
  kpts_nn -> @0x154c55e1d800
  kpts_rij_bigmem -> @0x154c55e1d3e0
  kpts_vnuc_df -> @0x154c55e1d380
  kpts_xc -> @0x154c55e1d2c0
 Time for computing kinetic matrix is 28.71 s
Start calculating Vnuc DD type!
Start calculating Vnuc CD type!
Start calculating Vnuc CC type!
 Time for computing nuclear attraction matrix is 56.36 s
Compute (P|Q) and use solve on the fly!
Maximum distance between P and Q is 37.07317869796985
Number of images for (P|Qn) is 3451
 Time for computing 2e2c SR integral is 0.18 s
Maximum dynamic memory per thread for 2e3c SR integrals: 0.086 GiB
Batch size for basis function pair is 352 out of 352
 === bvk cell = 0 has 100.000 % of the basis function pairs === 
 === bvk cell = 1 has 100.000 % of the basis function pairs === 
 === bvk cell = 2 has 100.000 % of the basis function pairs === 
 === bvk cell = 3 has 100.000 % of the basis function pairs === 
 === bvk cell = 4 has 100.000 % of the basis function pairs === 
 === bvk cell = 5 has 100.000 % of the basis function pairs === 
 === bvk cell = 6 has 100.000 % of the basis function pairs === 
 === bvk cell = 7 has 100.000 % of the basis function pairs === 
 === bvk cell = 8 has 100.000 % of the basis function pairs === 
 === bvk cell = 9 has 100.000 % of the basis function pairs === 
 === bvk cell = 10 has 100.000 % of the basis function pairs === 
 === bvk cell = 11 has 100.000 % of the basis function pairs === 
 === bvk cell = 12 has 100.000 % of the basis function pairs === 
 === bvk cell = 13 has 100.000 % of the basis function pairs === 
 === bvk cell = 14 has 100.000 % of the basis function pairs === 
 === bvk cell = 15 has 100.000 % of the basis function pairs === 
 === bvk cell = 16 has 100.000 % of the basis function pairs === 
 === bvk cell = 17 has 100.000 % of the basis function pairs === 
 === bvk cell = 18 has 100.000 % of the basis function pairs === 
 === bvk cell = 19 has 100.000 % of the basis function pairs === 
 === bvk cell = 20 has 100.000 % of the basis function pairs === 
 === bvk cell = 21 has 100.000 % of the basis function pairs === 
 === bvk cell = 22 has 100.000 % of the basis function pairs === 
 === bvk cell = 23 has 100.000 % of the basis function pairs === 
 === bvk cell = 24 has 100.000 % of the basis function pairs === 
 === bvk cell = 25 has 100.000 % of the basis function pairs === 
 === bvk cell = 26 has 100.000 % of the basis function pairs === 
 === bvk cell = 27 has 100.000 % of the basis function pairs === 
 === bvk cell = 28 has 100.000 % of the basis function pairs === 
 === bvk cell = 29 has 100.000 % of the basis function pairs === 
 === bvk cell = 30 has 100.000 % of the basis function pairs === 
 === bvk cell = 31 has 100.000 % of the basis function pairs === 
 === bvk cell = 32 has 100.000 % of the basis function pairs === 
 === bvk cell = 33 has 100.000 % of the basis function pairs === 
 === bvk cell = 34 has 100.000 % of the basis function pairs === 
 === bvk cell = 35 has 100.000 % of the basis function pairs === 
 === bvk cell = 36 has 100.000 % of the basis function pairs === 
 === bvk cell = 37 has 100.000 % of the basis function pairs === 
 === bvk cell = 38 has 100.000 % of the basis function pairs === 
 === bvk cell = 39 has 100.000 % of the basis function pairs === 
 === bvk cell = 40 has 100.000 % of the basis function pairs === 
 === bvk cell = 41 has 100.000 % of the basis function pairs === 
 === bvk cell = 42 has 100.000 % of the basis function pairs === 
 === bvk cell = 43 has 100.000 % of the basis function pairs === 
 === bvk cell = 44 has 100.000 % of the basis function pairs === 
 === bvk cell = 45 has 100.000 % of the basis function pairs === 
 === bvk cell = 46 has 100.000 % of the basis function pairs === 
 === bvk cell = 47 has 100.000 % of the basis function pairs === 
 === bvk cell = 48 has 100.000 % of the basis function pairs === 
 === bvk cell = 49 has 100.000 % of the basis function pairs === 
 === bvk cell = 50 has 100.000 % of the basis function pairs === 
 === bvk cell = 51 has 100.000 % of the basis function pairs === 
 === bvk cell = 52 has 100.000 % of the basis function pairs === 
 === bvk cell = 53 has 100.000 % of the basis function pairs === 
 === bvk cell = 54 has 100.000 % of the basis function pairs === 
 === bvk cell = 55 has 100.000 % of the basis function pairs === 
 === bvk cell = 56 has 100.000 % of the basis function pairs === 
 === bvk cell = 57 has 100.000 % of the basis function pairs === 
 === bvk cell = 58 has 100.000 % of the basis function pairs === 
 === bvk cell = 59 has 100.000 % of the basis function pairs === 
 === bvk cell = 60 has 100.000 % of the basis function pairs === 
 === bvk cell = 61 has 100.000 % of the basis function pairs === 
 === bvk cell = 62 has 100.000 % of the basis function pairs === 
 === bvk cell = 63 has 100.000 % of the basis function pairs === 
 === bvk cell = 64 has 100.000 % of the basis function pairs === 
 === bvk cell = 65 has 100.000 % of the basis function pairs === 
 === bvk cell = 66 has 100.000 % of the basis function pairs === 
 === bvk cell = 67 has 100.000 % of the basis function pairs === 
 === bvk cell = 68 has 100.000 % of the basis function pairs === 
 === bvk cell = 69 has 100.000 % of the basis function pairs === 
 === bvk cell = 70 has 100.000 % of the basis function pairs === 
 === bvk cell = 71 has 100.000 % of the basis function pairs === 
 === bvk cell = 72 has 100.000 % of the basis function pairs === 
 === bvk cell = 73 has 100.000 % of the basis function pairs === 
 === bvk cell = 74 has 100.000 % of the basis function pairs === 
 === bvk cell = 75 has 100.000 % of the basis function pairs === 
 === bvk cell = 76 has 100.000 % of the basis function pairs === 
 === bvk cell = 77 has 100.000 % of the basis function pairs === 
 === bvk cell = 78 has 100.000 % of the basis function pairs === 
 === bvk cell = 79 has 100.000 % of the basis function pairs === 
 === bvk cell = 80 has 100.000 % of the basis function pairs === 
 === bvk cell = 81 has 100.000 % of the basis function pairs === 
 === bvk cell = 82 has 100.000 % of the basis function pairs === 
 === bvk cell = 83 has 100.000 % of the basis function pairs === 
 === bvk cell = 84 has 100.000 % of the basis function pairs === 
 === bvk cell = 85 has 100.000 % of the basis function pairs === 
 === bvk cell = 86 has 100.000 % of the basis function pairs === 
 === bvk cell = 87 has 100.000 % of the basis function pairs === 
 === bvk cell = 88 has 100.000 % of the basis function pairs === 
 === bvk cell = 89 has 100.000 % of the basis function pairs === 
 === bvk cell = 90 has 100.000 % of the basis function pairs === 
 === bvk cell = 91 has 100.000 % of the basis function pairs === 
 === bvk cell = 92 has 100.000 % of the basis function pairs === 
 === bvk cell = 93 has 100.000 % of the basis function pairs === 
 === bvk cell = 94 has 100.000 % of the basis function pairs === 
 === bvk cell = 95 has 100.000 % of the basis function pairs === 
 === bvk cell = 96 has 100.000 % of the basis function pairs === 
 === bvk cell = 97 has 100.000 % of the basis function pairs === 
 === bvk cell = 98 has 100.000 % of the basis function pairs === 
 === bvk cell = 99 has 100.000 % of the basis function pairs === 
 === bvk cell = 100 has 100.000 % of the basis function pairs === 
 === bvk cell = 101 has 100.000 % of the basis function pairs === 
 === bvk cell = 102 has 100.000 % of the basis function pairs === 
 === bvk cell = 103 has 100.000 % of the basis function pairs === 
 === bvk cell = 104 has 100.000 % of the basis function pairs === 
 === bvk cell = 105 has 100.000 % of the basis function pairs === 
 === bvk cell = 106 has 100.000 % of the basis function pairs === 
 === bvk cell = 107 has 100.000 % of the basis function pairs === 
 === bvk cell = 108 has 100.000 % of the basis function pairs === 
 === bvk cell = 109 has 100.000 % of the basis function pairs === 
 === bvk cell = 110 has 100.000 % of the basis function pairs === 
 === bvk cell = 111 has 100.000 % of the basis function pairs === 
 === bvk cell = 112 has 100.000 % of the basis function pairs === 
 === bvk cell = 113 has 100.000 % of the basis function pairs === 
 === bvk cell = 114 has 100.000 % of the basis function pairs === 
 === bvk cell = 115 has 100.000 % of the basis function pairs === 
 === bvk cell = 116 has 100.000 % of the basis function pairs === 
 === bvk cell = 117 has 100.000 % of the basis function pairs === 
 === bvk cell = 118 has 100.000 % of the basis function pairs === 
 === bvk cell = 119 has 100.000 % of the basis function pairs === 
 === bvk cell = 120 has 100.000 % of the basis function pairs === 
 === bvk cell = 121 has 100.000 % of the basis function pairs === 
 === bvk cell = 122 has 100.000 % of the basis function pairs === 
 === bvk cell = 123 has 100.000 % of the basis function pairs === 
 === bvk cell = 124 has 100.000 % of the basis function pairs === 
 === bvk cell = 125 has 100.000 % of the basis function pairs === 
 === bvk cell = 126 has 100.000 % of the basis function pairs === 
 === bvk cell = 127 has 100.000 % of the basis function pairs === 
 === bvk cell = 128 has 100.000 % of the basis function pairs === 
 === bvk cell = 129 has 100.000 % of the basis function pairs === 
 === bvk cell = 130 has 100.000 % of the basis function pairs === 
 === bvk cell = 131 has 100.000 % of the basis function pairs === 
 === bvk cell = 132 has 100.000 % of the basis function pairs === 
 === bvk cell = 133 has 100.000 % of the basis function pairs === 
 === bvk cell = 134 has 100.000 % of the basis function pairs === 
 === bvk cell = 135 has 100.000 % of the basis function pairs === 
 === bvk cell = 136 has 100.000 % of the basis function pairs === 
 === bvk cell = 137 has 100.000 % of the basis function pairs === 
 === bvk cell = 138 has 100.000 % of the basis function pairs === 
 === bvk cell = 139 has 100.000 % of the basis function pairs === 
 === bvk cell = 140 has 100.000 % of the basis function pairs === 
 === bvk cell = 141 has 100.000 % of the basis function pairs === 
 === bvk cell = 142 has 100.000 % of the basis function pairs === 
 === bvk cell = 143 has 100.000 % of the basis function pairs === 
 === bvk cell = 144 has 100.000 % of the basis function pairs === 
 === bvk cell = 145 has 100.000 % of the basis function pairs === 
 === bvk cell = 146 has 100.000 % of the basis function pairs === 
 === bvk cell = 147 has 100.000 % of the basis function pairs === 
 === bvk cell = 148 has 100.000 % of the basis function pairs === 
 === bvk cell = 149 has 100.000 % of the basis function pairs === 
 === bvk cell = 150 has 100.000 % of the basis function pairs === 
 === bvk cell = 151 has 100.000 % of the basis function pairs === 
 === bvk cell = 152 has 100.000 % of the basis function pairs === 
 === bvk cell = 153 has 100.000 % of the basis function pairs === 
 === bvk cell = 154 has 100.000 % of the basis function pairs === 
 === bvk cell = 155 has 100.000 % of the basis function pairs === 
 === bvk cell = 156 has 100.000 % of the basis function pairs === 
 === bvk cell = 157 has 100.000 % of the basis function pairs === 
 === bvk cell = 158 has 100.000 % of the basis function pairs === 
 === bvk cell = 159 has 100.000 % of the basis function pairs === 
[...]
 0.82668 1.28770 1.39961 1.42859 1.50644 1.59409 1.64864 1.70797 1.85558 1.88492
 1.95327 1.97443 2.15415 2.23346 2.32920 2.34183 2.41974 2.64058 2.72327 2.83692
 2.88093 3.03338 3.12345 3.48015 3.77993 3.85610 4.06862 4.62696 4.81992 4.85208
 4.94803 5.00747 5.17261 5.21458 5.78735 5.83748 5.86059 6.22847 6.30839 6.34501
 7.54059 7.67194 7.90442 8.00848 8.28944 8.42070 11.60201 11.61400 11.62297 11.63896
 11.64577 11.64751 11.64864 11.67788 11.73530 12.91997 14.86559 14.95349 14.95452 15.03686
 15.04466 15.18811 15.19330 16.29335 16.33100 16.57509 16.68593 16.72934 16.91913 55.39403
 286.05617
 == 488-th k-point (-0.51822,-0.10364,0.93280) occupation: 6==
 -23.85915 -1.46217 -0.67205 -0.05226 -0.02471 0.00890 0.55867 0.60225 0.71005 0.75478
 0.95801 1.16378 1.33032 1.41683 1.49056 1.53624 1.70849 1.80029 1.88731 1.93207
 2.00852 2.07463 2.15279 2.24444 2.25656 2.35614 2.43300 2.56306 2.67752 2.76831
 2.79807 2.88718 3.33426 3.40295 3.51492 3.66814 3.76904 3.92844 4.66424 4.87913
 5.04022 5.22407 5.29612 5.43833 5.52117 5.70205 5.86185 6.07655 6.27056 6.38807
 6.83827 7.40445 7.51098 8.00620 8.11296 8.37572 8.50772 11.61636 11.62202 11.62744
 11.63591 11.63988 11.64669 11.65115 11.67988 11.74664 12.35918 14.86010 14.99261 15.06829
 15.16552 15.25085 15.29516 15.37289 16.24096 16.40456 16.57894 16.80439 16.85805 17.38587
 55.76178 286.52157
 == 489-th k-point (-0.41458,-0.00000,0.82916) occupation: 6==
 -23.85915 -1.46207 -0.67082 -0.04171 -0.04171 0.00634 0.59274 0.59274 0.68260 0.75001
 1.05200 1.05200 1.29988 1.45107 1.60120 1.60120 1.62482 1.74545 1.92175 1.96601
 1.96601 2.00346 2.14654 2.29869 2.29869 2.48531 2.48531 2.54660 2.62665 2.88760
 2.91702 2.91702 3.01630 3.43384 3.43384 3.65142 3.75251 4.39081 4.42305 4.93918
 4.93918 5.26656 5.40667 5.53640 5.53640 5.56996 5.85839 5.95776 5.95776 6.37893
 7.23001 7.59879 7.62976 7.62976 8.50104 8.50104 8.72866 11.61711 11.62839 11.63545
 11.63545 11.64115 11.65070 11.65070 11.66461 11.87494 12.44074 14.74825 15.03620 15.03620
 15.20354 15.25695 15.43415 15.43415 16.19127 16.42702 16.42702 16.52904 16.81649 17.67362
 55.70810 286.44941
 == 490-th k-point (-0.31093,0.10364,0.72551) occupation: 6==
 -23.85915 -1.46217 -0.67205 -0.05226 -0.02471 0.00890 0.55867 0.60225 0.71005 0.75478
 0.95801 1.16378 1.33032 1.41683 1.49056 1.53624 1.70849 1.80029 1.88731 1.93207
 2.00852 2.07463 2.15279 2.24444 2.25656 2.35614 2.43300 2.56306 2.67752 2.76831
 2.79807 2.88718 3.33426 3.40295 3.51492 3.66814 3.76904 3.92844 4.66424 4.87913
 5.04022 5.22407 5.29612 5.43833 5.52117 5.70205 5.86185 6.07655 6.27056 6.38807
 6.83827 7.40445 7.51098 8.00620 8.11296 8.37572 8.50772 11.61636 11.62202 11.62744
 11.63591 11.63988 11.64669 11.65115 11.67988 11.74664 12.35918 14.86010 14.99261 15.06829
 15.16552 15.25085 15.29516 15.37289 16.24096 16.40456 16.57894 16.80439 16.85805 17.38587
 55.76178 286.52157
 == 491-th k-point (-0.20729,0.20729,0.62187) occupation: 6==
 -23.85915 -1.46241 -0.67498 -0.05254 -0.00749 0.01260 0.51616 0.62154 0.72996 0.76184
 0.92641 1.25994 1.28603 1.40459 1.45451 1.45730 1.65436 1.74671 1.89611 1.93468
 1.98842 2.10303 2.18215 2.18560 2.29548 2.40129 2.52497 2.61037 2.68217 2.73335
 2.86132 2.94869 2.96632 3.47484 3.57805 3.66150 3.83761 3.85766 4.04553 4.60011
 4.78212 5.09503 5.17791 5.38077 5.50819 5.52343 5.83940 6.04790 6.18852 6.43515
 6.56303 6.56693 7.39331 8.02547 8.16872 8.27007 8.44138 8.45569 11.61562 11.62155
 11.62524 11.64050 11.64961 11.65445 11.66064 11.70312 11.71404 12.57917 14.85655 14.92073
 15.09704 15.14596 15.25232 15.32487 15.33855 16.43618 16.52526 16.68580 16.86840 16.93354
 17.25201 55.80025 286.56835
 == 492-th k-point (-0.10364,0.31093,0.51822) occupation: 6==
 -23.85915 -1.46264 -0.67783 -0.04314 -0.00558 0.02067 0.49160 0.62635 0.74235 0.75846
 0.98850 1.16101 1.26107 1.38945 1.41568 1.50806 1.62621 1.79048 1.82323 1.88370
 1.99112 2.04413 2.18410 2.30947 2.35911 2.44650 2.51302 2.68846 2.77301 2.84308
 2.85050 2.90205 3.29346 3.53924 3.65902 3.82091 3.90308 4.10514 4.63772 4.73250
 4.92854 5.07501 5.17920 5.43676 5.49892 6.08063 6.12001 6.22884 6.35000 6.42867
 6.66598 7.41927 7.55555 7.99031 8.23408 8.43670 8.52012 11.60782 11.61314 11.62014
 11.62945 11.64068 11.64998 11.65391 11.67301 11.70480 12.19775 14.85935 14.90036 15.00787
 15.07795 15.14166 15.28396 15.30183 16.53970 16.59920 16.69270 16.76615 17.05596 17.22898
 55.78565 286.55055
 == 493-th k-point (0.00000,0.41458,0.41458) occupation: 6==
 -23.85915 -1.46274 -0.67899 -0.03346 -0.01376 0.02696 0.48404 0.61973 0.75662 0.75729
 1.10712 1.11365 1.11489 1.40715 1.41317 1.52618 1.64237 1.77934 1.82828 1.88499
 1.99416 2.03652 2.11035 2.22205 2.46515 2.47803 2.62471 2.76879 2.83370 2.83917
 2.84583 2.87073 2.94038 3.22002 3.58175 3.64684 3.86906 4.12032 4.18192 4.58998
 4.62602 5.08685 5.12564 5.20726 5.36503 5.59029 6.10007 6.22645 6.28066 6.28128
 6.67866 6.88802 7.50400 7.56336 8.18342 8.33154 8.57432 8.62962 11.59954 11.61118
 11.62823 11.63509 11.63781 11.64729 11.66667 11.68369 11.70274 12.44435 14.85049 14.86263
 15.06821 15.11518 15.16004 15.23826 15.35283 16.54379 16.70032 16.70960 16.76158 17.23746
 17.36585 55.85325 286.63257
 == 494-th k-point (0.10364,0.51822,0.31093) occupation: 6==
 -23.85915 -1.46264 -0.67783 -0.04314 -0.00558 0.02067 0.49160 0.62635 0.74235 0.75846
 0.98850 1.16101 1.26107 1.38945 1.41568 1.50806 1.62621 1.79048 1.82323 1.88370
 1.99112 2.04413 2.18410 2.30947 2.35911 2.44650 2.51302 2.68846 2.77301 2.84308
 2.85050 2.90205 3.29346 3.53924 3.65902 3.82091 3.90308 4.10514 4.63772 4.73250
 4.92854 5.07501 5.17920 5.43676 5.49892 6.08063 6.12001 6.22884 6.35000 6.42867
 6.66598 7.41927 7.55555 7.99031 8.23408 8.43670 8.52012 11.60782 11.61314 11.62014
 11.62945 11.64068 11.64998 11.65391 11.67301 11.70480 12.19775 14.85935 14.90036 15.00787
 15.07795 15.14166 15.28396 15.30183 16.53970 16.59920 16.69270 16.76615 17.05596 17.22898
 55.78565 286.55055
 == 495-th k-point (0.20729,0.62187,0.20729) occupation: 6==
 -23.85915 -1.46241 -0.67498 -0.05254 -0.00749 0.01260 0.51616 0.62154 0.72996 0.76184
 0.92641 1.25994 1.28603 1.40459 1.45451 1.45730 1.65436 1.74671 1.89611 1.93468
 1.98842 2.10303 2.18215 2.18560 2.29548 2.40129 2.52497 2.61037 2.68217 2.73334
 2.86132 2.94869 2.96632 3.47484 3.57805 3.66150 3.83761 3.85766 4.04553 4.60011
 4.78212 5.09503 5.17791 5.38077 5.50819 5.52343 5.83940 6.04790 6.18852 6.43515
 6.56303 6.56693 7.39331 8.02547 8.16872 8.27007 8.44138 8.45569 11.61562 11.62155
 11.62524 11.64050 11.64961 11.65445 11.66064 11.70312 11.71404 12.57917 14.85655 14.92073
 15.09704 15.14596 15.25232 15.32487 15.33855 16.43618 16.52526 16.68580 16.86840 16.93354
 17.25201 55.80025 286.56835
 == 496-th k-point (-0.41458,-0.20729,1.03645) occupation: 6==
 -23.85915 -1.46238 -0.67548 -0.05101 -0.00987 0.01813 0.49940 0.61839 0.73787 0.74636
 1.05955 1.10072 1.30752 1.38612 1.42559 1.46585 1.69346 1.77598 1.93195 1.97881
 2.00446 2.07699 2.16999 2.18251 2.34768 2.39183 2.46634 2.48120 2.66277 2.80535
 2.82628 2.87554 3.45018 3.51339 3.65836 3.72518 3.74679 4.02681 4.64551 4.73623
 5.01173 5.19899 5.29906 5.46423 5.47814 5.89503 6.05763 6.21296 6.36612 6.43192
 6.65874 7.39111 7.62608 8.03043 8.15957 8.23707 8.47288 11.61363 11.61835 11.61969
 11.62491 11.63731 11.65114 11.66388 11.66617 11.67185 12.31218 14.85400 14.90176 15.06044
 15.14760 15.20269 15.29858 15.32364 16.44647 16.53650 16.68340 16.86435 17.03519 17.16575
 55.76593 286.53611
 == 497-th k-point (-0.31093,-0.10364,0.93280) occupation: 6==
 -23.85915 -1.46217 -0.67205 -0.05226 -0.02471 0.00890 0.55867 0.60225 0.71005 0.75478
 0.95801 1.16378 1.33032 1.41683 1.49056 1.53624 1.70849 1.80029 1.88731 1.93207
 2.00852 2.07463 2.15279 2.24444 2.25656 2.35614 2.43300 2.56306 2.67752 2.76831
 2.79807 2.88718 3.33426 3.40295 3.51492 3.66814 3.76904 3.92844 4.66424 4.87913
 5.04022 5.22407 5.29612 5.43833 5.52117 5.70205 5.86185 6.07655 6.27056 6.38807
 6.83827 7.40445 7.51098 8.00620 8.11296 8.37572 8.50772 11.61636 11.62202 11.62744
 11.63591 11.63988 11.64669 11.65115 11.67988 11.74664 12.35918 14.86010 14.99261 15.06829
 15.16552 15.25085 15.29516 15.37289 16.24096 16.40456 16.57894 16.80439 16.85805 17.38587
 55.76178 286.52157
 == 498-th k-point (-0.20729,-0.00000,0.82916) occupation: 6==
 -23.85915 -1.46209 -0.67030 -0.06679 -0.01383 0.00249 0.58531 0.61642 0.68325 0.76716
 0.87005 1.29153 1.29193 1.44689 1.57341 1.62799 1.65049 1.76346 1.79533 1.86616
 2.00365 2.03772 2.14108 2.20382 2.23388 2.31802 2.35553 2.56524 2.67853 2.86390
 2.90055 3.08569 3.29802 3.35753 3.45735 3.78980 3.87375 4.18745 4.61409 4.63493
 5.01260 5.10520 5.25087 5.47492 5.47515 5.51422 5.96765 6.07424 6.24694 6.34654
 6.56412 7.52172 7.79043 7.80786 8.47333 8.56881 8.73069 11.61082 11.62202 11.62980
 11.63582 11.64544 11.64929 11.66531 11.67009 11.79652 12.58837 14.83877 14.86345 15.07323
 15.09766 15.23771 15.32845 15.33716 16.11086 16.53873 16.62938 16.67920 16.75764 17.33676
 55.69633 286.43585
 == 499-th k-point (-0.10364,0.10364,0.72551) occupation: 6==
 -23.85915 -1.46220 -0.67132 -0.06748 -0.00612 0.00268 0.56843 0.62739 0.69924 0.77918
 0.82668 1.28770 1.39961 1.42859 1.50644 1.59409 1.64864 1.70797 1.85558 1.88492
 1.95327 1.97443 2.15415 2.23346 2.32920 2.34183 2.41974 2.64058 2.72327 2.83693
 2.88093 3.03338 3.12345 3.48015 3.77993 3.85610 4.06862 4.62696 4.81992 4.85208
 4.94803 5.00747 5.17261 5.21458 5.78735 5.83748 5.86059 6.22847 6.30839 6.34501
 7.54059 7.67194 7.90442 8.00848 8.28944 8.42070 11.60201 11.61400 11.62297 11.63896
 11.64577 11.64751 11.64864 11.67788 11.73530 12.91997 14.86559 14.95349 14.95452 15.03686
 15.04466 15.18811 15.19330 16.29335 16.33100 16.57509 16.68593 16.72934 16.91913 55.39403
 286.05617
 == 500-th k-point (0.00000,0.20729,0.62187) occupation: 6==
 -23.85915 -1.46243 -0.67447 -0.05337 -0.00765 0.00908 0.53551 0.62900 0.71580 0.76962
 0.87889 1.23891 1.36187 1.43314 1.43513 1.55499 1.61384 1.70180 1.81380 1.86703
 1.99074 2.10238 2.13624 2.25542 2.32100 2.40379 2.47017 2.63123 2.84320 2.86935
 2.87502 3.06721 3.25062 3.51944 3.78557 3.78961 3.91376 4.58618 4.76759 4.91249
 4.93552 5.05216 5.12660 5.27611 5.91334 6.02366 6.10739 6.23407 6.36603 6.41675
 7.48722 7.49701 7.53864 8.13886 8.16571 8.39317 11.60799 11.62164 11.63016 11.63365
 11.63892 11.64576 11.65562 11.66466 11.70221 12.40448 14.84494 14.91475 15.00438 15.02032
 15.06701 15.11074 15.20968 16.44890 16.47526 16.65874 16.72107 16.83191 17.05188 55.59827
 286.31672
 == 501-th k-point (0.10364,0.31093,0.51822) occupation: 6==
 -23.85915 -1.46264 -0.67783 -0.04314 -0.00558 0.02067 0.49160 0.62635 0.74235 0.75846
 0.98850 1.16101 1.26107 1.38945 1.41568 1.50806 1.62621 1.79048 1.82323 1.88370
 1.99112 2.04413 2.18410 2.30947 2.35911 2.44650 2.51302 2.68846 2.77301 2.84308
 2.85050 2.90205 3.29346 3.53924 3.65902 3.82091 3.90308 4.10514 4.63772 4.73250
 4.92854 5.07501 5.17920 5.43676 5.49892 6.08063 6.12001 6.22884 6.35000 6.42867
 6.66598 7.41927 7.55555 7.99031 8.23408 8.43670 8.52012 11.60782 11.61314 11.62014
 11.62945 11.64068 11.64998 11.65391 11.67301 11.70480 12.19775 14.85935 14.90036 15.00787
 15.07795 15.14166 15.28396 15.30183 16.53970 16.59920 16.69270 16.76615 17.05596 17.22898
 55.78565 286.55055
 == 502-th k-point (0.20729,0.41458,0.41458) occupation: 6==
 -23.85915 -1.46272 -0.67949 -0.04998 0.01090 0.02728 0.45746 0.63952 0.74526 0.74750
 1.11949 1.14453 1.15217 1.36930 1.41016 1.45958 1.64103 1.82283 1.85640 1.86285
 1.94357 1.99993 2.26001 2.31698 2.36268 2.49061 2.49549 2.67198 2.76896 2.81244
 2.81457 2.87149 2.93089 3.53637 3.63583 3.66433 3.85718 3.87474 4.21136 4.47045
 4.75587 5.02902 5.12117 5.39779 5.48645 5.56348 6.17127 6.17593 6.20871 6.50090
 6.78662 6.83355 7.36884 7.74519 7.91449 8.23926 8.46104 8.55610 11.61031 11.61464
 11.62047 11.62636 11.62742 11.66115 11.66728 11.67740 11.70505 12.67394 14.77850 14.91431
 15.06593 15.10651 15.26422 15.29551 15.36602 16.61896 16.65059 16.69184 16.89703 17.12454
 17.57613 56.05997 286.88859
 == 503-th k-point (0.31093,0.51822,0.31093) occupation: 6==
 -23.85915 -1.46261 -0.67853 -0.05454 0.01389 0.02307 0.45920 0.64053 0.73987 0.74323
 1.06726 1.19712 1.21176 1.35004 1.41936 1.42489 1.69946 1.71008 1.88980 1.95405
 1.97483 2.03224 2.18610 2.29113 2.36944 2.37994 2.52459 2.68999 2.70917 2.76143
 2.86371 2.87516 2.94914 3.55872 3.69885 3.71892 3.79009 3.86221 4.19873 4.44115
 4.76011 5.04624 5.12148 5.41362 5.51291 5.51827 6.13896 6.16756 6.22887 6.64321
 6.68089 6.80189 7.37235 7.79100 8.00133 8.11692 8.43895 8.48452 11.61520 11.61537
 11.62385 11.62861 11.63731 11.65947 11.66238 11.66960 11.70831 12.75429 14.76539 14.91707
 15.07727 15.11191 15.26754 15.32077 15.33991 16.60048 16.64615 16.69101 17.03594 17.04134
 17.65202 56.14696 286.99757
 == 504-th k-point (-0.31093,-0.31093,1.14009) occupation: 6==
 -23.85915 -1.46261 -0.67853 -0.05454 0.01389 0.02307 0.45920 0.64053 0.73987 0.74323
 1.06726 1.19712 1.21176 1.35004 1.41936 1.42489 1.69946 1.71008 1.88980 1.95405
 1.97483 2.03224 2.18610 2.29113 2.36944 2.37994 2.52459 2.68999 2.70917 2.76143
 2.86371 2.87516 2.94914 3.55872 3.69885 3.71892 3.79009 3.86221 4.19873 4.44115
 4.76011 5.04624 5.12148 5.41362 5.51291 5.51827 6.13896 6.16756 6.22887 6.64321
 6.68089 6.80189 7.37235 7.79100 8.00133 8.11692 8.43895 8.48452 11.61520 11.61537
 11.62385 11.62861 11.63731 11.65947 11.66238 11.66960 11.70831 12.75429 14.76539 14.91707
 15.07727 15.11191 15.26754 15.32077 15.33991 16.60048 16.64615 16.69101 17.03594 17.04134
 17.65202 56.14696 286.99757
 == 505-th k-point (-0.20729,-0.20729,1.03645) occupation: 6==
 -23.85915 -1.46241 -0.67498 -0.05254 -0.00749 0.01260 0.51616 0.62154 0.72996 0.76184
 0.92641 1.25994 1.28603 1.40459 1.45451 1.45730 1.65436 1.74671 1.89611 1.93468
 1.98842 2.10303 2.18215 2.18560 2.29548 2.40129 2.52497 2.61037 2.68217 2.73334
 2.86132 2.94869 2.96632 3.47484 3.57805 3.66150 3.83761 3.85766 4.04552 4.60011
 4.78212 5.09503 5.17791 5.38077 5.50819 5.52343 5.83940 6.04790 6.18852 6.43515
 6.56303 6.56693 7.39331 8.02547 8.16872 8.27007 8.44138 8.45569 11.61562 11.62155
 11.62524 11.64050 11.64961 11.65445 11.66064 11.70312 11.71404 12.57917 14.85655 14.92073
 15.09704 15.14596 15.25232 15.32487 15.33855 16.43618 16.52526 16.68580 16.86840 16.93354
 17.25201 55.80025 286.56835
 == 506-th k-point (-0.10364,-0.10364,0.93280) occupation: 6==
 -23.85915 -1.46220 -0.67132 -0.06748 -0.00612 0.00268 0.56843 0.62739 0.69924 0.77918
 0.82668 1.28770 1.39961 1.42859 1.50644 1.59409 1.64864 1.70797 1.85558 1.88492
 1.95327 1.97443 2.15415 2.23346 2.32920 2.34183 2.41974 2.64058 2.72327 2.83692
 2.88093 3.03338 3.12345 3.48015 3.77993 3.85610 4.06862 4.62696 4.81992 4.85208
 4.94803 5.00747 5.17261 5.21458 5.78735 5.83748 5.86059 6.22847 6.30839 6.34501
 7.54059 7.67194 7.90442 8.00848 8.28944 8.42070 11.60201 11.61400 11.62297 11.63896
 11.64577 11.64751 11.64864 11.67788 11.73530 12.91997 14.86559 14.95349 14.95452 15.03686
 15.04466 15.18811 15.19330 16.29335 16.33100 16.57509 16.68593 16.72934 16.91913 55.39403
 286.05617
 == 507-th k-point (0.00000,-0.00000,0.82916) occupation: 6==
 -23.85915 -1.46211 -0.66978 -0.07650 -0.00127 -0.00127 0.58433 0.64368 0.68358 0.78591
 0.78591 1.27691 1.45561 1.51287 1.63274 1.63274 1.65756 1.67259 1.67259 1.92277
 1.92277 2.04056 2.08234 2.20221 2.20221 2.31864 2.31963 2.66934 2.73820 2.85129
 2.85129 2.90582 3.11679 3.47671 3.90653 3.90653 4.17363 4.81157 4.86236 5.03854
 5.03854 5.10434 5.34964 5.34964 5.57223 5.57223 5.71473 6.13675 6.30291 6.30440
 7.55890 8.08384 8.14437 8.14437 8.68508 8.68508 11.59613 11.59757 11.59757 11.61832
 11.64638 11.64682 11.64682 11.68309 11.74451 13.31866 14.93267 14.96112 15.04567 15.04567
 15.10947 15.38387 15.38387 16.02591 16.02591 16.53766 16.58473 16.71483 16.82461 55.28842
 285.91662
 == 508-th k-point (0.10364,0.10364,0.72551) occupation: 6==
 -23.85915 -1.46220 -0.67132 -0.06748 -0.00612 0.00268 0.56843 0.62739 0.69924 0.77918
 0.82668 1.28770 1.39961 1.42859 1.50644 1.59409 1.64864 1.70797 1.85558 1.88492
 1.95327 1.97443 2.15415 2.23346 2.32920 2.34183 2.41974 2.64058 2.72327 2.83692
 2.88093 3.03338 3.12345 3.48015 3.77993 3.85610 4.06862 4.62696 4.81992 4.85208
 4.94803 5.00747 5.17261 5.21458 5.78735 5.83748 5.86059 6.22847 6.30839 6.34501
 7.54059 7.67194 7.90442 8.00848 8.28944 8.42070 11.60201 11.61400 11.62297 11.63896
 11.64577 11.64751 11.64864 11.67788 11.73530 12.91997 14.86559 14.95349 14.95452 15.03686
 15.04466 15.18811 15.19330 16.29335 16.33100 16.57509 16.68593 16.72934 16.91913 55.39403
 286.05617
 == 509-th k-point (0.20729,0.20729,0.62187) occupation: 6==
 -23.85915 -1.46241 -0.67498 -0.05254 -0.00749 0.01260 0.51616 0.62154 0.72996 0.76184
 0.92641 1.25994 1.28603 1.40459 1.45451 1.45730 1.65436 1.74671 1.89611 1.93468
 1.98842 2.10303 2.18215 2.18560 2.29548 2.40129 2.52497 2.61037 2.68217 2.73334
 2.86132 2.94869 2.96632 3.47484 3.57805 3.66150 3.83761 3.85766 4.04552 4.60011
 4.78212 5.09503 5.17791 5.38077 5.50819 5.52343 5.83940 6.04790 6.18852 6.43515
 6.56303 6.56693 7.39331 8.02547 8.16872 8.27007 8.44138 8.45569 11.61562 11.62155
 11.62524 11.64050 11.64961 11.65445 11.66064 11.70312 11.71404 12.57917 14.85655 14.92073
 15.09704 15.14596 15.25232 15.32487 15.33855 16.43618 16.52526 16.68580 16.86840 16.93354
 17.25201 55.80025 286.56835
 == 510-th k-point (0.31093,0.31093,0.51822) occupation: 6==
 -23.85915 -1.46261 -0.67853 -0.05454 0.01389 0.02307 0.45920 0.64053 0.73987 0.74323
 1.06726 1.19712 1.21176 1.35004 1.41936 1.42489 1.69946 1.71008 1.88980 1.95405
 1.97483 2.03224 2.18610 2.29113 2.36944 2.37994 2.52459 2.68999 2.70917 2.76143
 2.86371 2.87516 2.94914 3.55872 3.69885 3.71892 3.79009 3.86221 4.19873 4.44115
 4.76011 5.04624 5.12148 5.41362 5.51291 5.51827 6.13896 6.16756 6.22887 6.64321
 6.68089 6.80189 7.37235 7.79100 8.00133 8.11692 8.43895 8.48452 11.61520 11.61537
 11.62385 11.62861 11.63731 11.65947 11.66238 11.66960 11.70831 12.75429 14.76539 14.91707
 15.07727 15.11191 15.26754 15.32077 15.33991 16.60048 16.64615 16.69101 17.03594 17.04134
 17.65202 56.14696 286.99757
 == 511-th k-point (0.41458,0.41458,0.41458) occupation: 6==
 -23.85915 -1.46270 -0.67998 -0.05803 0.02759 0.02759 0.43490 0.65599 0.73506 0.73506
 1.16687 1.18721 1.18721 1.27746 1.41280 1.41280 1.72372 1.72372 1.80721 2.00656
 2.00656 2.01218 2.09298 2.32813 2.32813 2.49267 2.70220 2.80215 2.80215 2.87300
 2.87300 2.94331 2.96738 3.65140 3.65140 3.76360 3.76360 3.80029 4.18885 4.37035
 4.76643 5.25905 5.25905 5.51018 5.51018 5.60513 6.11622 6.11622 6.15857 6.55311
 6.55311 6.98185 6.98185 7.19694 7.66220 7.70154 8.23445 8.23445 11.60208 11.60208
 11.61918 11.62572 11.62572 11.66137 11.66137 11.67121 11.74533 13.18766 14.72737 14.92121
 15.17833 15.17833 15.31268 15.31268 15.45894 16.58932 16.58932 16.67064 16.94766 16.94766
 18.07244 56.44545 287.35680
 ---------------------------------------------------------------------------
 VBM is at 219-th k-point with 0.98251 eV
 CBM is at 219-th k-point with 10.17366 eV
 Band gap is 9.19115 eV


           Ground-State Mulliken Net Atomic Charges

      Atom                 Charge (a.u.)          Spin (a.u.)
   --------------------------------------------------------
      1 Li               (0.112048,-0.000000)    (0.000000,0.000000)
      2  F               (-0.112048,0.000000)    (0.000000,0.000000)
   --------------------------------------------------------
  Sum of atomic charges =     (-0.000000,-0.000000)
  Sum of spin   charges =       (0.000000,0.000000)



 Total job time:  602.56 s.
 Tue Sep  9 02:19:10 2025


        *************************************************************
        *                                                           *
        *  Thank you very much for using QCPBC. Have a nice day.    *
        *                                                           *
        *************************************************************

Running job 1 of 1
