                  Welcome to Q-Chem
           with Periodic Boundary Condition
     A Quantum Leap Into The Future Of Chemistry

 Adam Rettig, Xintian Feng, Meng-Fu Chen, Hieu Dinh, Stephen Quiton,
 Anton Ni, Paul J. Robinson, Jinghong Zhang, Joonho Lee

Contributors to earlier versions of Q-Chem not listed above:
 Evgeny Epifanovsky, Leo Cunha, Jerome F. Gonthier, Kuan-Yu Liu
 Input file: input_supercell_omega_5/si_ccpvtz_omega_0.40.in
 Scratch folder: /n/netscratch/joonholee_lab/Lab/hieudinh//input_supercell_omega_5si_ccpvtz_omega_0.40.scratch20250908151412
 Auxillary files located at: /n/holylabs/LABS/joonholee_lab/Lab/qchem_base/qcaux
 Q-Chem begins on Mon Sep  8 15:14:13 2025

 -------------------------------------------------------------
 User input:
 -------------------------------------------------------------
 $lattice
 3
 0.000000 10.261200 10.261200
 10.261200 0.000000 10.261200
 10.261200 10.26120 0.000000
 $end
 
 $unitcell
 ABSOLUTE
 0 1
 Si 0.000000 0.000000 0.000000
 Si 2.565300 2.565300 2.565300
 Si 5.130600 5.130600 0.000000
 Si 7.695900 7.695900 2.565300
 Si 5.130600 0.000000 5.130600
 Si 7.695900 2.565300 7.695900
 Si 10.261200 5.130600 5.130600
 Si 12.826500 7.695900 7.695900
 Si 0.000000 5.130600 5.130600
 Si 2.565300 7.695900 7.695900
 Si 5.130600 10.261200 5.130600
 Si 7.695900 12.826500 7.695900
 Si 5.130600 5.130600 10.261200
 Si 7.695900 7.695900 12.826500
 Si 10.261200 10.261200 10.261200
 Si 12.826500 12.826500 12.826500
 $end
 
 $rem
 jobtype = sp
 method = pbe
 scf_convergence = 6
 scf_guess = autosad
 scf_algorithm = gdm
 basis = gen
 aux_basis = gen
 input_bohr = true
 symmetry = false
 rsdf_print_level 1
 
 mp_mesh = [1,1,1]
 
 integral_direct true
 bvk_cgto true
 
 thresh 14
 mem_total 1000000
 threads 32
 
 MAX_SCF_CYCLES 500
 madelung = false
 omega 0.40
 do_rij_bigmem true
 automate_g true
 print_level 10
 grid_type_xc 1
 
 thresh_1e2c_sp 1e-14
 thresh_2e3c_bra_ket_sep 1e-10
 thresh_g 1e-12
 $end
 
 $basis
 Si     0
 S   15   1.00
       2.549000D+05           6.251010D-05
       3.819000D+04           4.855530D-04
       8.690000D+03           2.545160D-03
       2.462000D+03           1.058660D-02
       8.048000D+02           3.687870D-02
       2.913000D+02           1.074790D-01
       1.136000D+02           2.479360D-01
       4.675000D+01           3.909270D-01
       1.982000D+01           3.020260D-01
       7.708000D+00           5.592360D-02
       3.340000D+00          -4.024060D-03
       1.402000D+00           2.580300D-03
       4.387000D-01          -1.038210D-03
       2.070000D-01           6.079300D-04
       7.944000D-02          -1.540220D-04
 S   15   1.00
       2.549000D+05          -1.663700D-05
       3.819000D+04          -1.293100D-04
       8.690000D+03          -6.788280D-04
       2.462000D+03          -2.841170D-03
       8.048000D+02          -1.005510D-02
       2.913000D+02          -3.057740D-02
       1.136000D+02          -7.772560D-02
       4.675000D+01          -1.542360D-01
       1.982000D+01          -1.803680D-01
       7.708000D+00           7.982180D-02
       3.340000D+00           5.474410D-01
       1.402000D+00           4.801190D-01
       4.387000D-01           4.748460D-02
       2.070000D-01          -1.069960D-02
       7.944000D-02           2.198710D-03
 S   15   1.00
       2.549000D+05           4.262570D-06
       3.819000D+04           3.310620D-05
       8.690000D+03           1.740150D-04
       2.462000D+03           7.275740D-04
       8.048000D+02           2.583330D-03
       2.913000D+02           7.863540D-03
       1.136000D+02           2.021550D-02
       4.675000D+01           4.073200D-02
       1.982000D+01           4.993580D-02
       7.708000D+00          -2.493960D-02
       3.340000D+00          -1.903500D-01
       1.402000D+00          -3.183500D-01
       4.387000D-01           9.480360D-02
       2.070000D-01           6.811800D-01
       7.944000D-02           3.956720D-01
 S   1   1.00
       4.387000D-01           1.000000D+00
 S   1   1.00
       7.944000D-02           1.000000D+00
 P   9   1.00
       4.815000D+02           1.920450D-03
       1.139000D+02           1.535520D-02
       3.623000D+01           7.139910D-02
       1.334000D+01           2.130520D-01
       5.252000D+00           3.903540D-01
       2.120000D+00           3.937210D-01
       8.561000D-01           1.325650D-01
       2.528000D-01           3.956300D-03
       7.889000D-02           3.316240D-04
 P   9   1.00
       4.815000D+02          -4.052200D-04
       1.139000D+02          -3.358960D-03
       3.623000D+01          -1.528600D-02
       1.334000D+01          -4.892180D-02
       5.252000D+00          -8.550080D-02
       2.120000D+00          -1.121370D-01
       8.561000D-01           6.182740D-02
       2.528000D-01           5.519190D-01
       7.889000D-02           5.234920D-01
 P   1   1.00
       8.561000D-01           1.000000D+00
 P   1   1.00
       7.889000D-02           1.000000D+00
 D   1   1.00
       4.810000D-01           1.000000D+00
 D   1   1.00
       1.590000D-01           1.000000D+00
 F   1   1.00
       3.360000D-01           1.0000000
 ****
 $end
 
 
 $aux_basis
 Si     0
 S   1   1.00
    3966.7823006              1.0000000
 S   1   1.00
     913.65240130             1.0000000
 S   1   1.00
     309.47572532             1.0000000
 S   1   1.00
     121.48371896             1.0000000
 S   1   1.00
      51.949842541            1.0000000
 S   1   1.00
      22.531415259            1.0000000
 S   1   1.00
       8.6118544488           1.0000000
 S   1   1.00
       4.0353794583           1.0000000
 S   1   1.00
       1.5605354258           1.0000000
 S   1   1.00
       0.82658343937          1.0000000
 S   1   1.00
       0.48403471116          1.0000000
 S   1   1.00
       0.28757870174          1.0000000
 S   1   1.00
       0.13188187610          1.0000000
 P   1   1.00
     629.30680737             1.0000000
 P   1   1.00
     255.71500914             1.0000000
 P   1   1.00
     109.29630664             1.0000000
 P   1   1.00
      45.943769765            1.0000000
 P   1   1.00
      19.784226943            1.0000000
 P   1   1.00
       9.7746090299           1.0000000
 P   1   1.00
       4.6426781657           1.0000000
 P   1   1.00
       2.0449974109           1.0000000
 P   1   1.00
       0.82208144153          1.0000000
 P   1   1.00
       0.40978741460          1.0000000
 P   1   1.00
       0.18451465956          1.0000000
 D   1   1.00
     181.67344614             1.0000000
 D   1   1.00
      59.654414923            1.0000000
 D   1   1.00
      25.353983605            1.0000000
 D   1   1.00
      11.718973530            1.0000000
 D   1   1.00
       5.4455778078           1.0000000
 D   1   1.00
       2.4659440013           1.0000000
 D   1   1.00
       1.0365292729           1.0000000
 D   1   1.00
       0.41097001308          1.0000000
 D   1   1.00
       0.16950067844          1.0000000
 F   1   1.00
       1.9560745621690000000  1.0000000
 F   1   1.00
        .55887844633400000000 1.0000000
 F   1   1.00
        .23687844633400000000 1.0000000
 G   1   1.00
        .41387844633400000000 1.0000000
 ****
 $end
 
 
 -------------------------------------------------------------
 Running PBC job

 Requested Exchange Correlation Functionals: 
  DFT Exchange:  1.00000 pbe_x
  DFT Correlation:  1.00000 pbe_c
 using 32 threads for computing.
 ---------------------------------------------------------------
      Coordinates of Atoms in Central Unit Cell (Angstroms)
    I     Atom         X            Y            Z
 ---------------------------------------------------------------
    1      Si      0.000000     0.000000     0.000000
    2      Si      1.357498     1.357498     1.357498
    3      Si      2.714997     2.714997     0.000000
    4      Si      4.072495     4.072495     1.357498
    5      Si      2.714997     0.000000     2.714997
    6      Si      4.072495     1.357498     4.072495
    7      Si      5.429993     2.714997     2.714997
    8      Si      6.787491     4.072495     4.072495
    9      Si      0.000000     2.714997     2.714997
   10      Si      1.357498     4.072495     4.072495
   11      Si      2.714997     5.429993     2.714997
   12      Si      4.072495     6.787491     4.072495
   13      Si      2.714997     2.714997     5.429993
   14      Si      4.072495     4.072495     6.787491
   15      Si      5.429993     5.429993     5.429993
   16      Si      6.787491     6.787491     6.787491
 ---------------------------------------------------------------
 --------------------------------------------------
              Lattice Vectors (Angstroms)
              X            Y            Z
 --------------------------------------------------
   X       0.000000     5.429993     5.429993
   Y       5.429993     0.000000     5.429993
   Z       5.429993     5.429993     0.000000
 --------------------------------------------------
 --------------------------------------------------
       Reciprocal Lattice Vectors (Angstroms^-1)
              X            Y            Z
 --------------------------------------------------
   X      -0.578563     0.578563     0.578563
   Y       0.578563    -0.578563     0.578563
   Z       0.578563     0.578563    -0.578563
 --------------------------------------------------

 Single point calculation requested

 Hamiltonian contributions:
 List of terms in Hamiltonian: kpts_nn, kpts_kinetic, kpts_vnuc_df, kpts_xc, kpts_rij_bigmem

 K-Points calculation started.

 Basis set information about using solid harmonic (1) or Cartesian (0):
  si : D(1) D(1) F(1) 

 Basis set information about using solid harmonic (1) or Cartesian (0):
  si : D(1) D(1) D(1) D(1) D(1) D(1) D(1) D(1) D(1) F(1) F(1) F(1) G(1) 

 There are 544 basis functions in the central unit cell.
 Print atomic basis of atoms in the central unit cell:
 -------------------------------------------------------------
16 496 1120 144

  0.00000000000000e+00  0.00000000000000e+00  0.00000000000000e+00
  2.56530000000000e+00  2.56530000000000e+00  2.56530000000000e+00
  5.13060000000000e+00  5.13060000000000e+00  0.00000000000000e+00
  7.69590000000000e+00  7.69590000000000e+00  2.56530000000000e+00
  5.13060000000000e+00  0.00000000000000e+00  5.13060000000000e+00
  7.69590000000000e+00  2.56530000000000e+00  7.69590000000000e+00
  1.02612000000000e+01  5.13060000000000e+00  5.13060000000000e+00
  1.28265000000000e+01  7.69590000000000e+00  7.69590000000000e+00
  0.00000000000000e+00  5.13060000000000e+00  5.13060000000000e+00
  2.56530000000000e+00  7.69590000000000e+00  7.69590000000000e+00
  5.13060000000000e+00  1.02612000000000e+01  5.13060000000000e+00
  7.69590000000000e+00  1.28265000000000e+01  7.69590000000000e+00
  5.13060000000000e+00  5.13060000000000e+00  1.02612000000000e+01
  7.69590000000000e+00  7.69590000000000e+00  1.28265000000000e+01
  1.02612000000000e+01  1.02612000000000e+01  1.02612000000000e+01
  1.28265000000000e+01  1.28265000000000e+01  1.28265000000000e+01

  2.54900000000000e+05
  3.81900000000000e+04
  8.69000000000000e+03
  2.46200000000000e+03
  8.04800000000000e+02
  2.91300000000000e+02
  1.13600000000000e+02
  4.67500000000000e+01
  1.98200000000000e+01
  7.70800000000000e+00
  3.34000000000000e+00
  1.40200000000000e+00
  4.38700000000000e-01
  2.07000000000000e-01
  7.94400000000000e-02
  4.38700000000000e-01
  7.94400000000000e-02
  4.81500000000000e+02
  1.13900000000000e+02
  3.62300000000000e+01
  1.33400000000000e+01
  5.25200000000000e+00
  2.12000000000000e+00
  8.56100000000000e-01
  2.52800000000000e-01
  7.88900000000000e-02
  8.56100000000000e-01
  7.88900000000000e-02
  4.81000000000000e-01
  1.59000000000000e-01
  3.36000000000000e-01
  2.54900000000000e+05
  3.81900000000000e+04
  8.69000000000000e+03
  2.46200000000000e+03
  8.04800000000000e+02
  2.91300000000000e+02
  1.13600000000000e+02
  4.67500000000000e+01
  1.98200000000000e+01
  7.70800000000000e+00
  3.34000000000000e+00
  1.40200000000000e+00
  4.38700000000000e-01
  2.07000000000000e-01
  7.94400000000000e-02
  4.38700000000000e-01
  7.94400000000000e-02
  4.81500000000000e+02
  1.13900000000000e+02
  3.62300000000000e+01
  1.33400000000000e+01
  5.25200000000000e+00
  2.12000000000000e+00
  8.56100000000000e-01
  2.52800000000000e-01
  7.88900000000000e-02
  8.56100000000000e-01
  7.88900000000000e-02
  4.81000000000000e-01
  1.59000000000000e-01
  3.36000000000000e-01
  2.54900000000000e+05
  3.81900000000000e+04
  8.69000000000000e+03
  2.46200000000000e+03
  8.04800000000000e+02
  2.91300000000000e+02
  1.13600000000000e+02
  4.67500000000000e+01
  1.98200000000000e+01
  7.70800000000000e+00
  3.34000000000000e+00
  1.40200000000000e+00
  4.38700000000000e-01
  2.07000000000000e-01
  7.94400000000000e-02
  4.38700000000000e-01
  7.94400000000000e-02
  4.81500000000000e+02
  1.13900000000000e+02
  3.62300000000000e+01
  1.33400000000000e+01
  5.25200000000000e+00
  2.12000000000000e+00
  8.56100000000000e-01
  2.52800000000000e-01
  7.88900000000000e-02
  8.56100000000000e-01
  7.88900000000000e-02
  4.81000000000000e-01
  1.59000000000000e-01
  3.36000000000000e-01
  2.54900000000000e+05
  3.81900000000000e+04
  8.69000000000000e+03
  2.46200000000000e+03
  8.04800000000000e+02
  2.91300000000000e+02
  1.13600000000000e+02
  4.67500000000000e+01
  1.98200000000000e+01
  7.70800000000000e+00
  3.34000000000000e+00
  1.40200000000000e+00
  4.38700000000000e-01
  2.07000000000000e-01
  7.94400000000000e-02
  4.38700000000000e-01
  7.94400000000000e-02
  4.81500000000000e+02
  1.13900000000000e+02
  3.62300000000000e+01
  1.33400000000000e+01
  5.25200000000000e+00
  2.12000000000000e+00
  8.56100000000000e-01
  2.52800000000000e-01
  7.88900000000000e-02
  8.56100000000000e-01
  7.88900000000000e-02
  4.81000000000000e-01
  1.59000000000000e-01
  3.36000000000000e-01
  2.54900000000000e+05
  3.81900000000000e+04
  8.69000000000000e+03
  2.46200000000000e+03
  8.04800000000000e+02
  2.91300000000000e+02
  1.13600000000000e+02
  4.67500000000000e+01
  1.98200000000000e+01
  7.70800000000000e+00
  3.34000000000000e+00
  1.40200000000000e+00
  4.38700000000000e-01
  2.07000000000000e-01
  7.94400000000000e-02
  4.38700000000000e-01
  7.94400000000000e-02
  4.81500000000000e+02
  1.13900000000000e+02
  3.62300000000000e+01
  1.33400000000000e+01
  5.25200000000000e+00
  2.12000000000000e+00
  8.56100000000000e-01
  2.52800000000000e-01
  7.88900000000000e-02
  8.56100000000000e-01
  7.88900000000000e-02
  4.81000000000000e-01
  1.59000000000000e-01
  3.36000000000000e-01
  2.54900000000000e+05
  3.81900000000000e+04
  8.69000000000000e+03
  2.46200000000000e+03
  8.04800000000000e+02
  2.91300000000000e+02
  1.13600000000000e+02
  4.67500000000000e+01
  1.98200000000000e+01
  7.70800000000000e+00
  3.34000000000000e+00
  1.40200000000000e+00
  4.38700000000000e-01
  2.07000000000000e-01
  7.94400000000000e-02
  4.38700000000000e-01
  7.94400000000000e-02
  4.81500000000000e+02
  1.13900000000000e+02
  3.62300000000000e+01
  1.33400000000000e+01
  5.25200000000000e+00
  2.12000000000000e+00
  8.56100000000000e-01
  2.52800000000000e-01
  7.88900000000000e-02
  8.56100000000000e-01
  7.88900000000000e-02
  4.81000000000000e-01
  1.59000000000000e-01
  3.36000000000000e-01
  2.54900000000000e+05
  3.81900000000000e+04
  8.69000000000000e+03
  2.46200000000000e+03
  8.04800000000000e+02
  2.91300000000000e+02
  1.13600000000000e+02
  4.67500000000000e+01
  1.98200000000000e+01
  7.70800000000000e+00
  3.34000000000000e+00
  1.40200000000000e+00
  4.38700000000000e-01
  2.07000000000000e-01
  7.94400000000000e-02
  4.38700000000000e-01
  7.94400000000000e-02
  4.81500000000000e+02
  1.13900000000000e+02
  3.62300000000000e+01
  1.33400000000000e+01
  5.25200000000000e+00
  2.12000000000000e+00
  8.56100000000000e-01
  2.52800000000000e-01
  7.88900000000000e-02
  8.56100000000000e-01
  7.88900000000000e-02
  4.81000000000000e-01
  1.59000000000000e-01
  3.36000000000000e-01
  2.54900000000000e+05
  3.81900000000000e+04
  8.69000000000000e+03
  2.46200000000000e+03
  8.04800000000000e+02
  2.91300000000000e+02
  1.13600000000000e+02
  4.67500000000000e+01
  1.98200000000000e+01
  7.70800000000000e+00
  3.34000000000000e+00
  1.40200000000000e+00
  4.38700000000000e-01
  2.07000000000000e-01
  7.94400000000000e-02
  4.38700000000000e-01
  7.94400000000000e-02
  4.81500000000000e+02
  1.13900000000000e+02
  3.62300000000000e+01
  1.33400000000000e+01
  5.25200000000000e+00
  2.12000000000000e+00
  8.56100000000000e-01
  2.52800000000000e-01
  7.88900000000000e-02
  8.56100000000000e-01
  7.88900000000000e-02
  4.81000000000000e-01
  1.59000000000000e-01
  3.36000000000000e-01
  2.54900000000000e+05
  3.81900000000000e+04
  8.69000000000000e+03
  2.46200000000000e+03
  8.04800000000000e+02
  2.91300000000000e+02
  1.13600000000000e+02
  4.67500000000000e+01
  1.98200000000000e+01
  7.70800000000000e+00
  3.34000000000000e+00
  1.40200000000000e+00
  4.38700000000000e-01
  2.07000000000000e-01
  7.94400000000000e-02
  4.38700000000000e-01
  7.94400000000000e-02
  4.81500000000000e+02
  1.13900000000000e+02
  3.62300000000000e+01
  1.33400000000000e+01
  5.25200000000000e+00
  2.12000000000000e+00
  8.56100000000000e-01
  2.52800000000000e-01
  7.88900000000000e-02
  8.56100000000000e-01
  7.88900000000000e-02
  4.81000000000000e-01
  1.59000000000000e-01
  3.36000000000000e-01
  2.54900000000000e+05
  3.81900000000000e+04
  8.69000000000000e+03
  2.46200000000000e+03
  8.04800000000000e+02
  2.91300000000000e+02
  1.13600000000000e+02
  4.67500000000000e+01
  1.98200000000000e+01
  7.70800000000000e+00
  3.34000000000000e+00
  1.40200000000000e+00
  4.38700000000000e-01
  2.07000000000000e-01
  7.94400000000000e-02
  4.38700000000000e-01
  7.94400000000000e-02
  4.81500000000000e+02
  1.13900000000000e+02
  3.62300000000000e+01
  1.33400000000000e+01
  5.25200000000000e+00
  2.12000000000000e+00
  8.56100000000000e-01
  2.52800000000000e-01
  7.88900000000000e-02
  8.56100000000000e-01
  7.88900000000000e-02
  4.81000000000000e-01
  1.59000000000000e-01
  3.36000000000000e-01
  2.54900000000000e+05
  3.81900000000000e+04
  8.69000000000000e+03
  2.46200000000000e+03
  8.04800000000000e+02
  2.91300000000000e+02
  1.13600000000000e+02
  4.67500000000000e+01
  1.98200000000000e+01
  7.70800000000000e+00
  3.34000000000000e+00
  1.40200000000000e+00
  4.38700000000000e-01
  2.07000000000000e-01
  7.94400000000000e-02
  4.38700000000000e-01
  7.94400000000000e-02
  4.81500000000000e+02
  1.13900000000000e+02
  3.62300000000000e+01
  1.33400000000000e+01
  5.25200000000000e+00
  2.12000000000000e+00
  8.56100000000000e-01
  2.52800000000000e-01
  7.88900000000000e-02
  8.56100000000000e-01
  7.88900000000000e-02
  4.81000000000000e-01
  1.59000000000000e-01
  3.36000000000000e-01
  2.54900000000000e+05
  3.81900000000000e+04
  8.69000000000000e+03
  2.46200000000000e+03
  8.04800000000000e+02
  2.91300000000000e+02
  1.13600000000000e+02
  4.67500000000000e+01
  1.98200000000000e+01
  7.70800000000000e+00
  3.34000000000000e+00
  1.40200000000000e+00
  4.38700000000000e-01
  2.07000000000000e-01
  7.94400000000000e-02
  4.38700000000000e-01
  7.94400000000000e-02
  4.81500000000000e+02
  1.13900000000000e+02
  3.62300000000000e+01
  1.33400000000000e+01
  5.25200000000000e+00
  2.12000000000000e+00
  8.56100000000000e-01
  2.52800000000000e-01
  7.88900000000000e-02
  8.56100000000000e-01
  7.88900000000000e-02
  4.81000000000000e-01
  1.59000000000000e-01
  3.36000000000000e-01
  2.54900000000000e+05
  3.81900000000000e+04
  8.69000000000000e+03
  2.46200000000000e+03
  8.04800000000000e+02
  2.91300000000000e+02
  1.13600000000000e+02
  4.67500000000000e+01
  1.98200000000000e+01
  7.70800000000000e+00
  3.34000000000000e+00
  1.40200000000000e+00
  4.38700000000000e-01
  2.07000000000000e-01
  7.94400000000000e-02
  4.38700000000000e-01
  7.94400000000000e-02
  4.81500000000000e+02
  1.13900000000000e+02
  3.62300000000000e+01
  1.33400000000000e+01
  5.25200000000000e+00
  2.12000000000000e+00
  8.56100000000000e-01
  2.52800000000000e-01
  7.88900000000000e-02
  8.56100000000000e-01
  7.88900000000000e-02
  4.81000000000000e-01
  1.59000000000000e-01
  3.36000000000000e-01
  2.54900000000000e+05
  3.81900000000000e+04
  8.69000000000000e+03
  2.46200000000000e+03
  8.04800000000000e+02
  2.91300000000000e+02
  1.13600000000000e+02
  4.67500000000000e+01
  1.98200000000000e+01
  7.70800000000000e+00
  3.34000000000000e+00
  1.40200000000000e+00
  4.38700000000000e-01
  2.07000000000000e-01
  7.94400000000000e-02
  4.38700000000000e-01
  7.94400000000000e-02
  4.81500000000000e+02
  1.13900000000000e+02
  3.62300000000000e+01
  1.33400000000000e+01
  5.25200000000000e+00
  2.12000000000000e+00
  8.56100000000000e-01
  2.52800000000000e-01
  7.88900000000000e-02
  8.56100000000000e-01
  7.88900000000000e-02
  4.81000000000000e-01
  1.59000000000000e-01
  3.36000000000000e-01
  2.54900000000000e+05
  3.81900000000000e+04
  8.69000000000000e+03
  2.46200000000000e+03
  8.04800000000000e+02
  2.91300000000000e+02
  1.13600000000000e+02
  4.67500000000000e+01
  1.98200000000000e+01
  7.70800000000000e+00
  3.34000000000000e+00
  1.40200000000000e+00
  4.38700000000000e-01
  2.07000000000000e-01
  7.94400000000000e-02
  4.38700000000000e-01
  7.94400000000000e-02
  4.81500000000000e+02
  1.13900000000000e+02
  3.62300000000000e+01
  1.33400000000000e+01
  5.25200000000000e+00
  2.12000000000000e+00
  8.56100000000000e-01
  2.52800000000000e-01
  7.88900000000000e-02
  8.56100000000000e-01
  7.88900000000000e-02
  4.81000000000000e-01
  1.59000000000000e-01
  3.36000000000000e-01
  2.54900000000000e+05
  3.81900000000000e+04
  8.69000000000000e+03
  2.46200000000000e+03
  8.04800000000000e+02
  2.91300000000000e+02
  1.13600000000000e+02
  4.67500000000000e+01
  1.98200000000000e+01
  7.70800000000000e+00
  3.34000000000000e+00
  1.40200000000000e+00
  4.38700000000000e-01
  2.07000000000000e-01
  7.94400000000000e-02
  4.38700000000000e-01
  7.94400000000000e-02
  4.81500000000000e+02
  1.13900000000000e+02
  3.62300000000000e+01
  1.33400000000000e+01
  5.25200000000000e+00
  2.12000000000000e+00
  8.56100000000000e-01
  2.52800000000000e-01
  7.88900000000000e-02
  8.56100000000000e-01
  7.88900000000000e-02
  4.81000000000000e-01
  1.59000000000000e-01
  3.36000000000000e-01

  5.05403467915471e-01
  9.45386797186431e-01
  1.63264051224784e+00
  2.63714001086535e+00
  3.97147859852864e+00
  5.40119215050637e+00
  6.14870965896808e+00
  4.98129802061327e+00
  2.02200728458694e+00
  1.84379251466071e-01
 -7.08573563476492e-03
  2.36941896319336e-03
 -3.98861006463470e-04
  1.32966421796225e-04
 -1.64256601295173e-05
 -1.34512438752165e-01
 -2.51770248718730e-01
 -4.35446328768012e-01
 -7.07739296748779e-01
 -1.08283534530288e+00
 -1.53661819539070e+00
 -1.92755991041176e+00
 -1.96531431930057e+00
 -1.20752819687628e+00
  2.63170890451311e-01
  9.63956028801811e-01
  4.40879551824779e-01
  1.82426767689928e-02
 -2.34021282252237e-03
  2.34480878040369e-04
  3.44634672426854e-02
  6.44587153086151e-02
  1.11625029228014e-01
  1.81239675090039e-01
  2.78199234484600e-01
  3.95169603475486e-01
  5.01335320972848e-01
  5.19017514923335e-01
  3.34310345934075e-01
 -8.22253688950412e-02
 -3.35175911178551e-01
 -2.92331713269778e-01
  3.64217343524576e-02
  1.48987459510852e-01
  4.21963428391156e-02
  3.84180942836044e-01
  1.06644759418552e-01
  6.17430621298862e+00
  8.14422808848463e+00
  9.04623677044510e+00
  7.74230361024472e+00
  4.42389006701226e+00
  1.43564876328126e+00
  1.55605266958627e-01
  1.01088173257800e-03
  1.97634697796654e-05
 -1.30279542598236e+00
 -1.78155599020551e+00
 -1.93673080953964e+00
 -1.77781760853838e+00
 -9.68982789940722e-01
 -4.08892126488451e-01
  7.25732535666533e-02
  1.41021935388812e-01
  3.11980523757144e-02
  1.17380433533106e+00
  5.95960578383022e-02
  4.57260134599596e-01
  6.58952976069849e-02
  1.26537084505476e-01
  5.05403467915471e-01
  9.45386797186431e-01
  1.63264051224784e+00
  2.63714001086535e+00
  3.97147859852864e+00
  5.40119215050637e+00
  6.14870965896808e+00
  4.98129802061327e+00
  2.02200728458694e+00
  1.84379251466071e-01
 -7.08573563476492e-03
  2.36941896319336e-03
 -3.98861006463470e-04
  1.32966421796225e-04
 -1.64256601295173e-05
 -1.34512438752165e-01
 -2.51770248718730e-01
 -4.35446328768012e-01
 -7.07739296748779e-01
 -1.08283534530288e+00
 -1.53661819539070e+00
 -1.92755991041176e+00
 -1.96531431930057e+00
 -1.20752819687628e+00
  2.63170890451311e-01
  9.63956028801811e-01
  4.40879551824779e-01
  1.82426767689928e-02
 -2.34021282252237e-03
  2.34480878040369e-04
  3.44634672426854e-02
  6.44587153086151e-02
  1.11625029228014e-01
  1.81239675090039e-01
  2.78199234484600e-01
  3.95169603475486e-01
  5.01335320972848e-01
  5.19017514923335e-01
  3.34310345934075e-01
 -8.22253688950412e-02
 -3.35175911178551e-01
 -2.92331713269778e-01
  3.64217343524576e-02
  1.48987459510852e-01
  4.21963428391156e-02
  3.84180942836044e-01
  1.06644759418552e-01
  6.17430621298862e+00
  8.14422808848463e+00
  9.04623677044510e+00
  7.74230361024472e+00
  4.42389006701226e+00
  1.43564876328126e+00
  1.55605266958627e-01
  1.01088173257800e-03
  1.97634697796654e-05
 -1.30279542598236e+00
 -1.78155599020551e+00
 -1.93673080953964e+00
 -1.77781760853838e+00
 -9.68982789940722e-01
 -4.08892126488451e-01
  7.25732535666533e-02
  1.41021935388812e-01
  3.11980523757144e-02
  1.17380433533106e+00
  5.95960578383022e-02
  4.57260134599596e-01
  6.58952976069849e-02
  1.26537084505476e-01
  5.05403467915471e-01
  9.45386797186431e-01
  1.63264051224784e+00
  2.63714001086535e+00
  3.97147859852864e+00
  5.40119215050637e+00
  6.14870965896808e+00
  4.98129802061327e+00
  2.02200728458694e+00
  1.84379251466071e-01
 -7.08573563476492e-03
  2.36941896319336e-03
 -3.98861006463470e-04
  1.32966421796225e-04
 -1.64256601295173e-05
 -1.34512438752165e-01
 -2.51770248718730e-01
 -4.35446328768012e-01
 -7.07739296748779e-01
 -1.08283534530288e+00
 -1.53661819539070e+00
 -1.92755991041176e+00
 -1.96531431930057e+00
 -1.20752819687628e+00
  2.63170890451311e-01
  9.63956028801811e-01
  4.40879551824779e-01
  1.82426767689928e-02
 -2.34021282252237e-03
  2.34480878040369e-04
  3.44634672426854e-02
  6.44587153086151e-02
  1.11625029228014e-01
  1.81239675090039e-01
  2.78199234484600e-01
  3.95169603475486e-01
  5.01335320972848e-01
  5.19017514923335e-01
  3.34310345934075e-01
 -8.22253688950412e-02
 -3.35175911178551e-01
 -2.92331713269778e-01
  3.64217343524576e-02
  1.48987459510852e-01
  4.21963428391156e-02
  3.84180942836044e-01
  1.06644759418552e-01
  6.17430621298862e+00
  8.14422808848463e+00
  9.04623677044510e+00
  7.74230361024472e+00
  4.42389006701226e+00
  1.43564876328126e+00
  1.55605266958627e-01
  1.01088173257800e-03
  1.97634697796654e-05
 -1.30279542598236e+00
 -1.78155599020551e+00
 -1.93673080953964e+00
 -1.77781760853838e+00
 -9.68982789940722e-01
 -4.08892126488451e-01
  7.25732535666533e-02
  1.41021935388812e-01
  3.11980523757144e-02
  1.17380433533106e+00
  5.95960578383022e-02
  4.57260134599596e-01
  6.58952976069849e-02
  1.26537084505476e-01
  5.05403467915471e-01
  9.45386797186431e-01
  1.63264051224784e+00
  2.63714001086535e+00
  3.97147859852864e+00
  5.40119215050637e+00
  6.14870965896808e+00
  4.98129802061327e+00
  2.02200728458694e+00
  1.84379251466071e-01
 -7.08573563476492e-03
  2.36941896319336e-03
 -3.98861006463470e-04
  1.32966421796225e-04
 -1.64256601295173e-05
 -1.34512438752165e-01
 -2.51770248718730e-01
 -4.35446328768012e-01
 -7.07739296748779e-01
 -1.08283534530288e+00
 -1.53661819539070e+00
 -1.92755991041176e+00
 -1.96531431930057e+00
 -1.20752819687628e+00
  2.63170890451311e-01
  9.63956028801811e-01
  4.40879551824779e-01
  1.82426767689928e-02
 -2.34021282252237e-03
  2.34480878040369e-04
  3.44634672426854e-02
  6.44587153086151e-02
  1.11625029228014e-01
  1.81239675090039e-01
  2.78199234484600e-01
  3.95169603475486e-01
  5.01335320972848e-01
  5.19017514923335e-01
  3.34310345934075e-01
 -8.22253688950412e-02
 -3.35175911178551e-01
 -2.92331713269778e-01
  3.64217343524576e-02
  1.48987459510852e-01
  4.21963428391156e-02
  3.84180942836044e-01
  1.06644759418552e-01
  6.17430621298862e+00
  8.14422808848463e+00
  9.04623677044510e+00
  7.74230361024472e+00
  4.42389006701226e+00
  1.43564876328126e+00
  1.55605266958627e-01
  1.01088173257800e-03
  1.97634697796654e-05
 -1.30279542598236e+00
 -1.78155599020551e+00
 -1.93673080953964e+00
 -1.77781760853838e+00
 -9.68982789940722e-01
 -4.08892126488451e-01
  7.25732535666533e-02
  1.41021935388812e-01
  3.11980523757144e-02
  1.17380433533106e+00
  5.95960578383022e-02
  4.57260134599596e-01
  6.58952976069849e-02
  1.26537084505476e-01
  5.05403467915471e-01
  9.45386797186431e-01
  1.63264051224784e+00
  2.63714001086535e+00
  3.97147859852864e+00
  5.40119215050637e+00
  6.14870965896808e+00
  4.98129802061327e+00
  2.02200728458694e+00
  1.84379251466071e-01
 -7.08573563476492e-03
  2.36941896319336e-03
 -3.98861006463470e-04
  1.32966421796225e-04
 -1.64256601295173e-05
 -1.34512438752165e-01
 -2.51770248718730e-01
 -4.35446328768012e-01
 -7.07739296748779e-01
 -1.08283534530288e+00
 -1.53661819539070e+00
 -1.92755991041176e+00
 -1.96531431930057e+00
 -1.20752819687628e+00
  2.63170890451311e-01
  9.63956028801811e-01
  4.40879551824779e-01
  1.82426767689928e-02
 -2.34021282252237e-03
  2.34480878040369e-04
  3.44634672426854e-02
  6.44587153086151e-02
  1.11625029228014e-01
  1.81239675090039e-01
  2.78199234484600e-01
  3.95169603475486e-01
  5.01335320972848e-01
  5.19017514923335e-01
  3.34310345934075e-01
 -8.22253688950412e-02
 -3.35175911178551e-01
 -2.92331713269778e-01
  3.64217343524576e-02
  1.48987459510852e-01
  4.21963428391156e-02
  3.84180942836044e-01
  1.06644759418552e-01
  6.17430621298862e+00
  8.14422808848463e+00
  9.04623677044510e+00
  7.74230361024472e+00
  4.42389006701226e+00
  1.43564876328126e+00
  1.55605266958627e-01
  1.01088173257800e-03
  1.97634697796654e-05
 -1.30279542598236e+00
 -1.78155599020551e+00
 -1.93673080953964e+00
 -1.77781760853838e+00
 -9.68982789940722e-01
 -4.08892126488451e-01
  7.25732535666533e-02
  1.41021935388812e-01
  3.11980523757144e-02
  1.17380433533106e+00
  5.95960578383022e-02
  4.57260134599596e-01
  6.58952976069849e-02
  1.26537084505476e-01
  5.05403467915471e-01
  9.45386797186431e-01
  1.63264051224784e+00
  2.63714001086535e+00
  3.97147859852864e+00
  5.40119215050637e+00
  6.14870965896808e+00
  4.98129802061327e+00
  2.02200728458694e+00
  1.84379251466071e-01
 -7.08573563476492e-03
  2.36941896319336e-03
 -3.98861006463470e-04
  1.32966421796225e-04
 -1.64256601295173e-05
 -1.34512438752165e-01
 -2.51770248718730e-01
 -4.35446328768012e-01
 -7.07739296748779e-01
 -1.08283534530288e+00
 -1.53661819539070e+00
 -1.92755991041176e+00
 -1.96531431930057e+00
 -1.20752819687628e+00
  2.63170890451311e-01
  9.63956028801811e-01
  4.40879551824779e-01
  1.82426767689928e-02
 -2.34021282252237e-03
  2.34480878040369e-04
  3.44634672426854e-02
  6.44587153086151e-02
  1.11625029228014e-01
  1.81239675090039e-01
  2.78199234484600e-01
  3.95169603475486e-01
  5.01335320972848e-01
  5.19017514923335e-01
  3.34310345934075e-01
 -8.22253688950412e-02
 -3.35175911178551e-01
 -2.92331713269778e-01
  3.64217343524576e-02
  1.48987459510852e-01
  4.21963428391156e-02
  3.84180942836044e-01
  1.06644759418552e-01
  6.17430621298862e+00
  8.14422808848463e+00
  9.04623677044510e+00
  7.74230361024472e+00
  4.42389006701226e+00
  1.43564876328126e+00
  1.55605266958627e-01
  1.01088173257800e-03
  1.97634697796654e-05
 -1.30279542598236e+00
 -1.78155599020551e+00
 -1.93673080953964e+00
 -1.77781760853838e+00
 -9.68982789940722e-01
 -4.08892126488451e-01
  7.25732535666533e-02
  1.41021935388812e-01
  3.11980523757144e-02
  1.17380433533106e+00
  5.95960578383022e-02
  4.57260134599596e-01
  6.58952976069849e-02
  1.26537084505476e-01
  5.05403467915471e-01
  9.45386797186431e-01
  1.63264051224784e+00
  2.63714001086535e+00
  3.97147859852864e+00
  5.40119215050637e+00
  6.14870965896808e+00
  4.98129802061327e+00
  2.02200728458694e+00
  1.84379251466071e-01
 -7.08573563476492e-03
  2.36941896319336e-03
 -3.98861006463470e-04
  1.32966421796225e-04
 -1.64256601295173e-05
 -1.34512438752165e-01
 -2.51770248718730e-01
 -4.35446328768012e-01
 -7.07739296748779e-01
 -1.08283534530288e+00
 -1.53661819539070e+00
 -1.92755991041176e+00
 -1.96531431930057e+00
 -1.20752819687628e+00
  2.63170890451311e-01
  9.63956028801811e-01
  4.40879551824779e-01
  1.82426767689928e-02
 -2.34021282252237e-03
  2.34480878040369e-04
  3.44634672426854e-02
  6.44587153086151e-02
  1.11625029228014e-01
  1.81239675090039e-01
  2.78199234484600e-01
  3.95169603475486e-01
  5.01335320972848e-01
  5.19017514923335e-01
  3.34310345934075e-01
 -8.22253688950412e-02
 -3.35175911178551e-01
 -2.92331713269778e-01
  3.64217343524576e-02
  1.48987459510852e-01
  4.21963428391156e-02
  3.84180942836044e-01
  1.06644759418552e-01
  6.17430621298862e+00
  8.14422808848463e+00
  9.04623677044510e+00
  7.74230361024472e+00
  4.42389006701226e+00
  1.43564876328126e+00
  1.55605266958627e-01
  1.01088173257800e-03
  1.97634697796654e-05
 -1.30279542598236e+00
 -1.78155599020551e+00
 -1.93673080953964e+00
 -1.77781760853838e+00
 -9.68982789940722e-01
 -4.08892126488451e-01
  7.25732535666533e-02
  1.41021935388812e-01
  3.11980523757144e-02
  1.17380433533106e+00
  5.95960578383022e-02
  4.57260134599596e-01
  6.58952976069849e-02
  1.26537084505476e-01
  5.05403467915471e-01
  9.45386797186431e-01
  1.63264051224784e+00
  2.63714001086535e+00
  3.97147859852864e+00
  5.40119215050637e+00
  6.14870965896808e+00
  4.98129802061327e+00
  2.02200728458694e+00
  1.84379251466071e-01
 -7.08573563476492e-03
  2.36941896319336e-03
 -3.98861006463470e-04
  1.32966421796225e-04
 -1.64256601295173e-05
 -1.34512438752165e-01
 -2.51770248718730e-01
 -4.35446328768012e-01
 -7.07739296748779e-01
 -1.08283534530288e+00
 -1.53661819539070e+00
 -1.92755991041176e+00
 -1.96531431930057e+00
 -1.20752819687628e+00
  2.63170890451311e-01
  9.63956028801811e-01
  4.40879551824779e-01
  1.82426767689928e-02
 -2.34021282252237e-03
  2.34480878040369e-04
  3.44634672426854e-02
  6.44587153086151e-02
  1.11625029228014e-01
  1.81239675090039e-01
  2.78199234484600e-01
  3.95169603475486e-01
  5.01335320972848e-01
  5.19017514923335e-01
  3.34310345934075e-01
 -8.22253688950412e-02
 -3.35175911178551e-01
 -2.92331713269778e-01
  3.64217343524576e-02
  1.48987459510852e-01
  4.21963428391156e-02
  3.84180942836044e-01
  1.06644759418552e-01
  6.17430621298862e+00
  8.14422808848463e+00
  9.04623677044510e+00
  7.74230361024472e+00
  4.42389006701226e+00
  1.43564876328126e+00
  1.55605266958627e-01
  1.01088173257800e-03
  1.97634697796654e-05
 -1.30279542598236e+00
 -1.78155599020551e+00
 -1.93673080953964e+00
 -1.77781760853838e+00
 -9.68982789940722e-01
 -4.08892126488451e-01
  7.25732535666533e-02
  1.41021935388812e-01
  3.11980523757144e-02
  1.17380433533106e+00
  5.95960578383022e-02
  4.57260134599596e-01
  6.58952976069849e-02
  1.26537084505476e-01
  5.05403467915471e-01
  9.45386797186431e-01
  1.63264051224784e+00
  2.63714001086535e+00
  3.97147859852864e+00
  5.40119215050637e+00
  6.14870965896808e+00
  4.98129802061327e+00
  2.02200728458694e+00
  1.84379251466071e-01
 -7.08573563476492e-03
  2.36941896319336e-03
 -3.98861006463470e-04
  1.32966421796225e-04
 -1.64256601295173e-05
 -1.34512438752165e-01
 -2.51770248718730e-01
 -4.35446328768012e-01
 -7.07739296748779e-01
 -1.08283534530288e+00
 -1.53661819539070e+00
 -1.92755991041176e+00
 -1.96531431930057e+00
 -1.20752819687628e+00
  2.63170890451311e-01
  9.63956028801811e-01
  4.40879551824779e-01
  1.82426767689928e-02
 -2.34021282252237e-03
  2.34480878040369e-04
  3.44634672426854e-02
  6.44587153086151e-02
  1.11625029228014e-01
  1.81239675090039e-01
  2.78199234484600e-01
  3.95169603475486e-01
  5.01335320972848e-01
  5.19017514923335e-01
  3.34310345934075e-01
 -8.22253688950412e-02
 -3.35175911178551e-01
 -2.92331713269778e-01
  3.64217343524576e-02
  1.48987459510852e-01
  4.21963428391156e-02
  3.84180942836044e-01
  1.06644759418552e-01
  6.17430621298862e+00
  8.14422808848463e+00
  9.04623677044510e+00
  7.74230361024472e+00
  4.42389006701226e+00
  1.43564876328126e+00
  1.55605266958627e-01
  1.01088173257800e-03
  1.97634697796654e-05
 -1.30279542598236e+00
 -1.78155599020551e+00
 -1.93673080953964e+00
 -1.77781760853838e+00
 -9.68982789940722e-01
 -4.08892126488451e-01
  7.25732535666533e-02
  1.41021935388812e-01
  3.11980523757144e-02
  1.17380433533106e+00
  5.95960578383022e-02
  4.57260134599596e-01
  6.58952976069849e-02
  1.26537084505476e-01
  5.05403467915471e-01
  9.45386797186431e-01
  1.63264051224784e+00
  2.63714001086535e+00
  3.97147859852864e+00
  5.40119215050637e+00
  6.14870965896808e+00
  4.98129802061327e+00
  2.02200728458694e+00
  1.84379251466071e-01
 -7.08573563476492e-03
  2.36941896319336e-03
 -3.98861006463470e-04
  1.32966421796225e-04
 -1.64256601295173e-05
 -1.34512438752165e-01
 -2.51770248718730e-01
 -4.35446328768012e-01
 -7.07739296748779e-01
 -1.08283534530288e+00
 -1.53661819539070e+00
 -1.92755991041176e+00
 -1.96531431930057e+00
 -1.20752819687628e+00
  2.63170890451311e-01
  9.63956028801811e-01
  4.40879551824779e-01
  1.82426767689928e-02
 -2.34021282252237e-03
  2.34480878040369e-04
  3.44634672426854e-02
  6.44587153086151e-02
  1.11625029228014e-01
  1.81239675090039e-01
  2.78199234484600e-01
  3.95169603475486e-01
  5.01335320972848e-01
  5.19017514923335e-01
  3.34310345934075e-01
 -8.22253688950412e-02
 -3.35175911178551e-01
 -2.92331713269778e-01
  3.64217343524576e-02
  1.48987459510852e-01
  4.21963428391156e-02
  3.84180942836044e-01
  1.06644759418552e-01
  6.17430621298862e+00
  8.14422808848463e+00
  9.04623677044510e+00
  7.74230361024472e+00
  4.42389006701226e+00
  1.43564876328126e+00
  1.55605266958627e-01
  1.01088173257800e-03
  1.97634697796654e-05
 -1.30279542598236e+00
 -1.78155599020551e+00
 -1.93673080953964e+00
 -1.77781760853838e+00
 -9.68982789940722e-01
 -4.08892126488451e-01
  7.25732535666533e-02
  1.41021935388812e-01
  3.11980523757144e-02
  1.17380433533106e+00
  5.95960578383022e-02
  4.57260134599596e-01
  6.58952976069849e-02
  1.26537084505476e-01
  5.05403467915471e-01
  9.45386797186431e-01
  1.63264051224784e+00
  2.63714001086535e+00
  3.97147859852864e+00
  5.40119215050637e+00
  6.14870965896808e+00
  4.98129802061327e+00
  2.02200728458694e+00
  1.84379251466071e-01
 -7.08573563476492e-03
  2.36941896319336e-03
 -3.98861006463470e-04
  1.32966421796225e-04
 -1.64256601295173e-05
 -1.34512438752165e-01
 -2.51770248718730e-01
 -4.35446328768012e-01
 -7.07739296748779e-01
 -1.08283534530288e+00
 -1.53661819539070e+00
 -1.92755991041176e+00
 -1.96531431930057e+00
 -1.20752819687628e+00
  2.63170890451311e-01
  9.63956028801811e-01
  4.40879551824779e-01
  1.82426767689928e-02
 -2.34021282252237e-03
  2.34480878040369e-04
  3.44634672426854e-02
  6.44587153086151e-02
  1.11625029228014e-01
  1.81239675090039e-01
  2.78199234484600e-01
  3.95169603475486e-01
  5.01335320972848e-01
  5.19017514923335e-01
  3.34310345934075e-01
 -8.22253688950412e-02
 -3.35175911178551e-01
 -2.92331713269778e-01
  3.64217343524576e-02
  1.48987459510852e-01
  4.21963428391156e-02
  3.84180942836044e-01
  1.06644759418552e-01
  6.17430621298862e+00
  8.14422808848463e+00
  9.04623677044510e+00
  7.74230361024472e+00
  4.42389006701226e+00
  1.43564876328126e+00
  1.55605266958627e-01
  1.01088173257800e-03
  1.97634697796654e-05
 -1.30279542598236e+00
 -1.78155599020551e+00
 -1.93673080953964e+00
 -1.77781760853838e+00
 -9.68982789940722e-01
 -4.08892126488451e-01
  7.25732535666533e-02
  1.41021935388812e-01
  3.11980523757144e-02
  1.17380433533106e+00
  5.95960578383022e-02
  4.57260134599596e-01
  6.58952976069849e-02
  1.26537084505476e-01
  5.05403467915471e-01
  9.45386797186431e-01
  1.63264051224784e+00
  2.63714001086535e+00
  3.97147859852864e+00
  5.40119215050637e+00
  6.14870965896808e+00
  4.98129802061327e+00
  2.02200728458694e+00
  1.84379251466071e-01
 -7.08573563476492e-03
  2.36941896319336e-03
 -3.98861006463470e-04
  1.32966421796225e-04
 -1.64256601295173e-05
 -1.34512438752165e-01
 -2.51770248718730e-01
 -4.35446328768012e-01
 -7.07739296748779e-01
 -1.08283534530288e+00
 -1.53661819539070e+00
 -1.92755991041176e+00
 -1.96531431930057e+00
 -1.20752819687628e+00
  2.63170890451311e-01
  9.63956028801811e-01
  4.40879551824779e-01
  1.82426767689928e-02
 -2.34021282252237e-03
  2.34480878040369e-04
  3.44634672426854e-02
  6.44587153086151e-02
  1.11625029228014e-01
  1.81239675090039e-01
  2.78199234484600e-01
  3.95169603475486e-01
  5.01335320972848e-01
  5.19017514923335e-01
  3.34310345934075e-01
 -8.22253688950412e-02
 -3.35175911178551e-01
 -2.92331713269778e-01
  3.64217343524576e-02
  1.48987459510852e-01
  4.21963428391156e-02
  3.84180942836044e-01
  1.06644759418552e-01
  6.17430621298862e+00
  8.14422808848463e+00
  9.04623677044510e+00
  7.74230361024472e+00
  4.42389006701226e+00
  1.43564876328126e+00
  1.55605266958627e-01
  1.01088173257800e-03
  1.97634697796654e-05
 -1.30279542598236e+00
 -1.78155599020551e+00
 -1.93673080953964e+00
 -1.77781760853838e+00
 -9.68982789940722e-01
 -4.08892126488451e-01
  7.25732535666533e-02
  1.41021935388812e-01
  3.11980523757144e-02
  1.17380433533106e+00
  5.95960578383022e-02
  4.57260134599596e-01
  6.58952976069849e-02
  1.26537084505476e-01
  5.05403467915471e-01
  9.45386797186431e-01
  1.63264051224784e+00
  2.63714001086535e+00
  3.97147859852864e+00
  5.40119215050637e+00
  6.14870965896808e+00
  4.98129802061327e+00
  2.02200728458694e+00
  1.84379251466071e-01
 -7.08573563476492e-03
  2.36941896319336e-03
 -3.98861006463470e-04
  1.32966421796225e-04
 -1.64256601295173e-05
 -1.34512438752165e-01
 -2.51770248718730e-01
 -4.35446328768012e-01
 -7.07739296748779e-01
 -1.08283534530288e+00
 -1.53661819539070e+00
 -1.92755991041176e+00
 -1.96531431930057e+00
 -1.20752819687628e+00
  2.63170890451311e-01
  9.63956028801811e-01
  4.40879551824779e-01
  1.82426767689928e-02
 -2.34021282252237e-03
  2.34480878040369e-04
  3.44634672426854e-02
  6.44587153086151e-02
  1.11625029228014e-01
  1.81239675090039e-01
  2.78199234484600e-01
  3.95169603475486e-01
  5.01335320972848e-01
  5.19017514923335e-01
  3.34310345934075e-01
 -8.22253688950412e-02
 -3.35175911178551e-01
 -2.92331713269778e-01
  3.64217343524576e-02
  1.48987459510852e-01
  4.21963428391156e-02
  3.84180942836044e-01
  1.06644759418552e-01
  6.17430621298862e+00
  8.14422808848463e+00
  9.04623677044510e+00
  7.74230361024472e+00
  4.42389006701226e+00
  1.43564876328126e+00
  1.55605266958627e-01
  1.01088173257800e-03
  1.97634697796654e-05
 -1.30279542598236e+00
 -1.78155599020551e+00
 -1.93673080953964e+00
 -1.77781760853838e+00
 -9.68982789940722e-01
 -4.08892126488451e-01
  7.25732535666533e-02
  1.41021935388812e-01
  3.11980523757144e-02
  1.17380433533106e+00
  5.95960578383022e-02
  4.57260134599596e-01
  6.58952976069849e-02
  1.26537084505476e-01
  5.05403467915471e-01
  9.45386797186431e-01
  1.63264051224784e+00
  2.63714001086535e+00
  3.97147859852864e+00
  5.40119215050637e+00
  6.14870965896808e+00
  4.98129802061327e+00
  2.02200728458694e+00
  1.84379251466071e-01
 -7.08573563476492e-03
  2.36941896319336e-03
 -3.98861006463470e-04
  1.32966421796225e-04
 -1.64256601295173e-05
 -1.34512438752165e-01
 -2.51770248718730e-01
 -4.35446328768012e-01
 -7.07739296748779e-01
 -1.08283534530288e+00
 -1.53661819539070e+00
 -1.92755991041176e+00
 -1.96531431930057e+00
 -1.20752819687628e+00
  2.63170890451311e-01
  9.63956028801811e-01
  4.40879551824779e-01
  1.82426767689928e-02
 -2.34021282252237e-03
  2.34480878040369e-04
  3.44634672426854e-02
  6.44587153086151e-02
  1.11625029228014e-01
  1.81239675090039e-01
  2.78199234484600e-01
  3.95169603475486e-01
  5.01335320972848e-01
  5.19017514923335e-01
  3.34310345934075e-01
 -8.22253688950412e-02
 -3.35175911178551e-01
 -2.92331713269778e-01
  3.64217343524576e-02
  1.48987459510852e-01
  4.21963428391156e-02
  3.84180942836044e-01
  1.06644759418552e-01
  6.17430621298862e+00
  8.14422808848463e+00
  9.04623677044510e+00
  7.74230361024472e+00
  4.42389006701226e+00
  1.43564876328126e+00
  1.55605266958627e-01
  1.01088173257800e-03
  1.97634697796654e-05
 -1.30279542598236e+00
 -1.78155599020551e+00
 -1.93673080953964e+00
 -1.77781760853838e+00
 -9.68982789940722e-01
 -4.08892126488451e-01
  7.25732535666533e-02
  1.41021935388812e-01
  3.11980523757144e-02
  1.17380433533106e+00
  5.95960578383022e-02
  4.57260134599596e-01
  6.58952976069849e-02
  1.26537084505476e-01
  5.05403467915471e-01
  9.45386797186431e-01
  1.63264051224784e+00
  2.63714001086535e+00
  3.97147859852864e+00
  5.40119215050637e+00
  6.14870965896808e+00
  4.98129802061327e+00
  2.02200728458694e+00
  1.84379251466071e-01
 -7.08573563476492e-03
  2.36941896319336e-03
 -3.98861006463470e-04
  1.32966421796225e-04
 -1.64256601295173e-05
 -1.34512438752165e-01
 -2.51770248718730e-01
 -4.35446328768012e-01
 -7.07739296748779e-01
 -1.08283534530288e+00
 -1.53661819539070e+00
 -1.92755991041176e+00
 -1.96531431930057e+00
 -1.20752819687628e+00
  2.63170890451311e-01
  9.63956028801811e-01
  4.40879551824779e-01
  1.82426767689928e-02
 -2.34021282252237e-03
  2.34480878040369e-04
  3.44634672426854e-02
  6.44587153086151e-02
  1.11625029228014e-01
  1.81239675090039e-01
  2.78199234484600e-01
  3.95169603475486e-01
  5.01335320972848e-01
  5.19017514923335e-01
  3.34310345934075e-01
 -8.22253688950412e-02
 -3.35175911178551e-01
 -2.92331713269778e-01
  3.64217343524576e-02
  1.48987459510852e-01
  4.21963428391156e-02
  3.84180942836044e-01
  1.06644759418552e-01
  6.17430621298862e+00
  8.14422808848463e+00
  9.04623677044510e+00
  7.74230361024472e+00
  4.42389006701226e+00
  1.43564876328126e+00
  1.55605266958627e-01
  1.01088173257800e-03
  1.97634697796654e-05
 -1.30279542598236e+00
 -1.78155599020551e+00
 -1.93673080953964e+00
 -1.77781760853838e+00
 -9.68982789940722e-01
 -4.08892126488451e-01
  7.25732535666533e-02
  1.41021935388812e-01
  3.11980523757144e-02
  1.17380433533106e+00
  5.95960578383022e-02
  4.57260134599596e-01
  6.58952976069849e-02
  1.26537084505476e-01
  5.05403467915471e-01
  9.45386797186431e-01
  1.63264051224784e+00
  2.63714001086535e+00
  3.97147859852864e+00
  5.40119215050637e+00
  6.14870965896808e+00
  4.98129802061327e+00
  2.02200728458694e+00
  1.84379251466071e-01
 -7.08573563476492e-03
  2.36941896319336e-03
 -3.98861006463470e-04
  1.32966421796225e-04
 -1.64256601295173e-05
 -1.34512438752165e-01
 -2.51770248718730e-01
 -4.35446328768012e-01
 -7.07739296748779e-01
 -1.08283534530288e+00
 -1.53661819539070e+00
 -1.92755991041176e+00
 -1.96531431930057e+00
 -1.20752819687628e+00
  2.63170890451311e-01
  9.63956028801811e-01
  4.40879551824779e-01
  1.82426767689928e-02
 -2.34021282252237e-03
  2.34480878040369e-04
  3.44634672426854e-02
  6.44587153086151e-02
  1.11625029228014e-01
  1.81239675090039e-01
  2.78199234484600e-01
  3.95169603475486e-01
  5.01335320972848e-01
  5.19017514923335e-01
  3.34310345934075e-01
 -8.22253688950412e-02
 -3.35175911178551e-01
 -2.92331713269778e-01
  3.64217343524576e-02
  1.48987459510852e-01
  4.21963428391156e-02
  3.84180942836044e-01
  1.06644759418552e-01
  6.17430621298862e+00
  8.14422808848463e+00
  9.04623677044510e+00
  7.74230361024472e+00
  4.42389006701226e+00
  1.43564876328126e+00
  1.55605266958627e-01
  1.01088173257800e-03
  1.97634697796654e-05
 -1.30279542598236e+00
 -1.78155599020551e+00
 -1.93673080953964e+00
 -1.77781760853838e+00
 -9.68982789940722e-01
 -4.08892126488451e-01
  7.25732535666533e-02
  1.41021935388812e-01
  3.11980523757144e-02
  1.17380433533106e+00
  5.95960578383022e-02
  4.57260134599596e-01
  6.58952976069849e-02
  1.26537084505476e-01

0 0 0 0 3 3 3
0 0 15 0 30 0 
15 0

0 3 3 15 1 1 1
45 0 
1 0

0 4 4 16 1 1 1
46 0 
1 0

0 5 5 17 2 6 6
47 1 56 1 
9 0

0 11 11 26 1 3 3
65 1 
1 0

0 14 14 27 1 3 3
66 1 
1 0

0 17 17 28 1 5 6
67 2 
1 1

0 22 22 29 1 5 6
68 2 
1 1

0 27 27 30 1 7 10
69 3 
1 1

1 34 34 31 3 3 3
70 0 85 0 100 0 
15 0

1 37 37 46 1 1 1
115 0 
1 0

1 38 38 47 1 1 1
116 0 
1 0

1 39 39 48 2 6 6
117 1 126 1 
9 0

1 45 45 57 1 3 3
135 1 
1 0

1 48 48 58 1 3 3
136 1 
1 0

1 51 51 59 1 5 6
137 2 
1 1

1 56 56 60 1 5 6
138 2 
1 1

1 61 61 61 1 7 10
139 3 
1 1

2 68 68 62 3 3 3
140 0 155 0 170 0 
15 0

2 71 71 77 1 1 1
185 0 
1 0

2 72 72 78 1 1 1
186 0 
1 0

2 73 73 79 2 6 6
187 1 196 1 
9 0

2 79 79 88 1 3 3
205 1 
1 0

2 82 82 89 1 3 3
206 1 
1 0

2 85 85 90 1 5 6
207 2 
1 1

2 90 90 91 1 5 6
208 2 
1 1

2 95 95 92 1 7 10
209 3 
1 1

3 102 102 93 3 3 3
210 0 225 0 240 0 
15 0

3 105 105 108 1 1 1
255 0 
1 0

3 106 106 109 1 1 1
256 0 
1 0

3 107 107 110 2 6 6
257 1 266 1 
9 0

3 113 113 119 1 3 3
275 1 
1 0

3 116 116 120 1 3 3
276 1 
1 0

3 119 119 121 1 5 6
277 2 
1 1

3 124 124 122 1 5 6
278 2 
1 1

3 129 129 123 1 7 10
279 3 
1 1

4 136 136 124 3 3 3
280 0 295 0 310 0 
15 0

4 139 139 139 1 1 1
325 0 
1 0

4 140 140 140 1 1 1
326 0 
1 0

4 141 141 141 2 6 6
327 1 336 1 
9 0

4 147 147 150 1 3 3
345 1 
1 0

4 150 150 151 1 3 3
346 1 
1 0

4 153 153 152 1 5 6
347 2 
1 1

4 158 158 153 1 5 6
348 2 
1 1

4 163 163 154 1 7 10
349 3 
1 1

5 170 170 155 3 3 3
350 0 365 0 380 0 
15 0

5 173 173 170 1 1 1
395 0 
1 0

5 174 174 171 1 1 1
396 0 
1 0

5 175 175 172 2 6 6
397 1 406 1 
9 0

5 181 181 181 1 3 3
415 1 
1 0

5 184 184 182 1 3 3
416 1 
1 0

5 187 187 183 1 5 6
417 2 
1 1

5 192 192 184 1 5 6
418 2 
1 1

5 197 197 185 1 7 10
419 3 
1 1

6 204 204 186 3 3 3
420 0 435 0 450 0 
15 0

6 207 207 201 1 1 1
465 0 
1 0

6 208 208 202 1 1 1
466 0 
1 0

6 209 209 203 2 6 6
467 1 476 1 
9 0

6 215 215 212 1 3 3
485 1 
1 0

6 218 218 213 1 3 3
486 1 
1 0

6 221 221 214 1 5 6
487 2 
1 1

6 226 226 215 1 5 6
488 2 
1 1

6 231 231 216 1 7 10
489 3 
1 1

7 238 238 217 3 3 3
490 0 505 0 520 0 
15 0

7 241 241 232 1 1 1
535 0 
1 0

7 242 242 233 1 1 1
536 0 
1 0

7 243 243 234 2 6 6
537 1 546 1 
9 0

7 249 249 243 1 3 3
555 1 
1 0

7 252 252 244 1 3 3
556 1 
1 0

7 255 255 245 1 5 6
557 2 
1 1

7 260 260 246 1 5 6
558 2 
1 1

7 265 265 247 1 7 10
559 3 
1 1

8 272 272 248 3 3 3
560 0 575 0 590 0 
15 0

8 275 275 263 1 1 1
605 0 
1 0

8 276 276 264 1 1 1
606 0 
1 0

8 277 277 265 2 6 6
607 1 616 1 
9 0

8 283 283 274 1 3 3
625 1 
1 0

8 286 286 275 1 3 3
626 1 
1 0

8 289 289 276 1 5 6
627 2 
1 1

8 294 294 277 1 5 6
628 2 
1 1

8 299 299 278 1 7 10
629 3 
1 1

9 306 306 279 3 3 3
630 0 645 0 660 0 
15 0

9 309 309 294 1 1 1
675 0 
1 0

9 310 310 295 1 1 1
676 0 
1 0

9 311 311 296 2 6 6
677 1 686 1 
9 0

9 317 317 305 1 3 3
695 1 
1 0

9 320 320 306 1 3 3
696 1 
1 0

9 323 323 307 1 5 6
697 2 
1 1

9 328 328 308 1 5 6
698 2 
1 1

9 333 333 309 1 7 10
699 3 
1 1

10 340 340 310 3 3 3
700 0 715 0 730 0 
15 0

10 343 343 325 1 1 1
745 0 
1 0

10 344 344 326 1 1 1
746 0 
1 0

10 345 345 327 2 6 6
747 1 756 1 
9 0

10 351 351 336 1 3 3
765 1 
1 0

10 354 354 337 1 3 3
766 1 
1 0

10 357 357 338 1 5 6
767 2 
1 1

10 362 362 339 1 5 6
768 2 
1 1

10 367 367 340 1 7 10
769 3 
1 1

11 374 374 341 3 3 3
770 0 785 0 800 0 
15 0

11 377 377 356 1 1 1
815 0 
1 0

11 378 378 357 1 1 1
816 0 
1 0

11 379 379 358 2 6 6
817 1 826 1 
9 0

11 385 385 367 1 3 3
835 1 
1 0

11 388 388 368 1 3 3
836 1 
1 0

11 391 391 369 1 5 6
837 2 
1 1

11 396 396 370 1 5 6
838 2 
1 1

11 401 401 371 1 7 10
839 3 
1 1

12 408 408 372 3 3 3
840 0 855 0 870 0 
15 0

12 411 411 387 1 1 1
885 0 
1 0

12 412 412 388 1 1 1
886 0 
1 0

12 413 413 389 2 6 6
887 1 896 1 
9 0

12 419 419 398 1 3 3
905 1 
1 0

12 422 422 399 1 3 3
906 1 
1 0

12 425 425 400 1 5 6
907 2 
1 1

12 430 430 401 1 5 6
908 2 
1 1

12 435 435 402 1 7 10
909 3 
1 1

13 442 442 403 3 3 3
910 0 925 0 940 0 
15 0

13 445 445 418 1 1 1
955 0 
1 0

13 446 446 419 1 1 1
956 0 
1 0

13 447 447 420 2 6 6
957 1 966 1 
9 0

13 453 453 429 1 3 3
975 1 
1 0

13 456 456 430 1 3 3
976 1 
1 0

13 459 459 431 1 5 6
977 2 
1 1

13 464 464 432 1 5 6
978 2 
1 1

13 469 469 433 1 7 10
979 3 
1 1

14 476 476 434 3 3 3
980 0 995 0 1010 0 
15 0

14 479 479 449 1 1 1
1025 0 
1 0

14 480 480 450 1 1 1
1026 0 
1 0

14 481 481 451 2 6 6
1027 1 1036 1 
9 0

14 487 487 460 1 3 3
1045 1 
1 0

14 490 490 461 1 3 3
1046 1 
1 0

14 493 493 462 1 5 6
1047 2 
1 1

14 498 498 463 1 5 6
1048 2 
1 1

14 503 503 464 1 7 10
1049 3 
1 1

15 510 510 465 3 3 3
1050 0 1065 0 1080 0 
15 0

15 513 513 480 1 1 1
1095 0 
1 0

15 514 514 481 1 1 1
1096 0 
1 0

15 515 515 482 2 6 6
1097 1 1106 1 
9 0

15 521 521 491 1 3 3
1115 1 
1 0

15 524 524 492 1 3 3
1116 1 
1 0

15 527 527 493 1 5 6
1117 2 
1 1

15 532 532 494 1 5 6
1118 2 
1 1

15 537 537 495 1 7 10
1119 3 
1 1

 -------------------------------------------------------------
 Allocate 2524424 B from available memory: 1048576000000 B
 There are 729 image cells after screening.
 There are 265 image cells for CGTO evaluation after screening.
 Real-Space grid for FFT initialized based on kinetic energy cutoff (eV) = 500.0
 Real-Space grid for FFT: (20,20,20)
 There are 68921 real-space grid points.
 There are 512 batches of real-space grid points. 
 Size of each grid batch is around 128
 Grid for AFT initialized based on kinetic energy cutoff (eV) = 500.0
 Real-Space grid for AFT: (20,20,20)
 There are 68921 real-space grid points.

 There are 43648 atom-centered grid points.

 Spacegroup symmetry group: Fd-3m
 Reducing spacegroup symmetry to symmorphic group: F -4 3 m
 Monkhorst-Pack mesh is [1,1,1]
 There are 1 k points.
kpoints in Bohr
0.0000000000 0.0000000000 0.0000000000
 There are 112 alpha and 112 beta electrons
 Start computing overlap matrix
 Allocate 4734976 B from available memory: 1048573475584 B
 Time for computing overlap matrix: 5.0220000000 s
 ====== Initialize compute kernels for all-electron RI-J (kpts) ====== 
 ========================================================== 
 Range-separated parameter omega        = 0.400000000000000022
 Threshold for 1e2c shellpair           = 0.000000000000010000
 Threshold for 2e2c SR integral         = 0.000000000000000001
 Threshold for 2e3c SR integral         = 0.000000000100000000
 Threshold for AFT G-space screening is = 0.000000000001000000
 The exponent cutoff for C/D classification (omega2 / 2) is  = 0.080000000000000016
 ========================================================== 
 === Post process the basis set for RI calculation (exp_cutoff = 0.080000000000000016 ) === 
nshells_b1 before uncontraction = 144
nshells_b1 after uncontraction = 176
nshells_baux before uncontraction = 592
nshells_baux after uncontraction = 592
===============================================
nbsf total   = 688
nbsf compact = 480
nbsf diffuse = 208
naux total   = 1936
naux compact = 1936
naux diffuse = 0
nshells_bnuc = 16

 Number of unique atoms is 1
 Unique atom #0 (si) has 7 shells.

Shell 0 to 6 belongs to atom si
Shell 7 to 13 belongs to atom si
Shell 14 to 20 belongs to atom si
Shell 21 to 27 belongs to atom si
Shell 28 to 34 belongs to atom si
Shell 35 to 41 belongs to atom si
Shell 42 to 48 belongs to atom si
Shell 49 to 55 belongs to atom si
Shell 56 to 62 belongs to atom si
Shell 63 to 69 belongs to atom si
Shell 70 to 76 belongs to atom si
Shell 77 to 83 belongs to atom si
Shell 84 to 90 belongs to atom si
Shell 91 to 97 belongs to atom si
Shell 98 to 104 belongs to atom si
Shell 105 to 111 belongs to atom si

 Number of unique atoms is 1
 Unique atom #0 (si) has 4 shells.

Shell 0 to 3 belongs to atom si
Shell 4 to 7 belongs to atom si
Shell 8 to 11 belongs to atom si
Shell 12 to 15 belongs to atom si
Shell 16 to 19 belongs to atom si
Shell 20 to 23 belongs to atom si
Shell 24 to 27 belongs to atom si
Shell 28 to 31 belongs to atom si
Shell 32 to 35 belongs to atom si
Shell 36 to 39 belongs to atom si
Shell 40 to 43 belongs to atom si
Shell 44 to 47 belongs to atom si
Shell 48 to 51 belongs to atom si
Shell 52 to 55 belongs to atom si
Shell 56 to 59 belongs to atom si
Shell 60 to 63 belongs to atom si

 Number of unique atom is 1
 Unique atom #0 (si) has 37 auxiliary shells.

Auxiliary Shell 0 to 36 belongs to atom si
Auxiliary Shell 37 to 73 belongs to atom si
Auxiliary Shell 74 to 110 belongs to atom si
Auxiliary Shell 111 to 147 belongs to atom si
Auxiliary Shell 148 to 184 belongs to atom si
Auxiliary Shell 185 to 221 belongs to atom si
Auxiliary Shell 222 to 258 belongs to atom si
Auxiliary Shell 259 to 295 belongs to atom si
Auxiliary Shell 296 to 332 belongs to atom si
Auxiliary Shell 333 to 369 belongs to atom si
Auxiliary Shell 370 to 406 belongs to atom si
Auxiliary Shell 407 to 443 belongs to atom si
Auxiliary Shell 444 to 480 belongs to atom si
Auxiliary Shell 481 to 517 belongs to atom si
Auxiliary Shell 518 to 554 belongs to atom si
Auxiliary Shell 555 to 591 belongs to atom si

================= Automatically determine grid size for reciprocal space summation =================
 Range-separated parameter = 0.40000000000000 and G-space screening threshold = 0.00000000000100
The number of grid points along each axis dimension is (9, 9, 9)
Total number of grid points = 6859

Use nonortho shellpair for diffuse density
======== Initializing relevant kernel for RIJ (DD type) ========
There are 2080 shellpairs in the reference unit cell
There are 815 images and we expect to have 1695200 in total
There are 69440 shellpairs in the lattice sum after screening
======== Initializing relevant kernel for RIJ (CD type) ========
There are 7168 shellpairs in the reference unit cell
There are 647 images and we expect to have 4637696 in total
There are 132480 shellpairs in the lattice sum after screening
****** AFT -> SR ******
Maximum bra distance cutoff is 22.000000000000
Maximum bra ket distance cutoff is 26.679112457438
Maximum bra ket screening distance is 24.281250000000
Number of auxiliary image is 213
There are 7168 shellpairs in the reference unit cell
There are 117 images and we expect to have 838656 in total
There are 132480 shellpairs in the lattice sum after screening
Available memory per thread for 2e3c calculation is 32.767773144000Gb
Finish initializing 2e3c SR with the lattice sum!
=================================================
======== Initializing relevant kernel for RIJ (CC type) ========
There are 6304 shellpairs in the reference unit cell
There are 455 images and we expect to have 2868320 in total
There are 34464 shellpairs in the lattice sum after screening
****** AFT -> SR ******
Maximum bra distance cutoff is 18.000000000000
Maximum bra ket distance cutoff is 31.026958582213
Maximum bra ket screening distance is 23.906250000000
Number of auxiliary image is 237
There are 6304 shellpairs in the reference unit cell
There are 99 images and we expect to have 624096 in total
There are 34464 shellpairs in the lattice sum after screening
Available memory per thread for 2e3c calculation is 32.767773144000Gb
Finish initializing 2e3c SR with the lattice sum!
=================================================
======== Initializing the SR component for Vnuc (CD type) ========
Maximum bra distance cutoff is 22.000000000000
Maximum bra ket distance cutoff is 20.024775525061
Maximum bra ket screening distance is 17.441677266996
Number of auxiliary image is 117
There are 7168 shellpairs in the reference unit cell
There are 117 images and we expect to have 838656 in total
There are 132480 shellpairs in the lattice sum after screening
Available memory per thread for 2e3c calculation is 32.767773144000Gb
Finish initializing 2e3c SR with the lattice sum!
=================================================
======== Initialize the SR component for Vnuc (CC type) ========
Maximum bra distance cutoff is 18.000000000000
Maximum bra ket distance cutoff is 24.650329805660
Maximum bra ket screening distance is 16.954216533142
Number of auxiliary image is 117
There are 6304 shellpairs in the reference unit cell
There are 99 images and we expect to have 624096 in total
There are 34464 shellpairs in the lattice sum after screening
Available memory per thread for 2e3c calculation is 32.767773144000Gb
Finish initializing 2e3c SR with the lattice sum!
=================================================
 Aufbau occupation scheme, occupation determined by eigenvalue
 == 0-th k-point nmo = 544 (0.00000,0.00000,0.00000) ==

 Generate autoSAD guess
backing up fragment data
Atom # 0: si, charge: 0, multiplicity: 3.000000
writing autosad to fragment context
Settings for isolated fragments: 
  frgm_gamma: TRUE
  frgm_center: FALSE

    Running SCF for isolated atom #0
    Fragment Input file: /n/netscratch/joonholee_lab/Lab/hieudinh//input_supercell_omega_5si_ccpvtz_omega_0.40.scratch20250908151412/autosad_frgmt_0/frgmt_input.in
    Fragment Output file: /n/netscratch/joonholee_lab/Lab/hieudinh//input_supercell_omega_5si_ccpvtz_omega_0.40.scratch20250908151412/autosad_frgmt_0/frgmt_job.out
    Fragment job begins at Mon Sep  8 15:14:22 2025

 Integrated density by DFT XC:
   Numerical integral  =    13.999999324692
   Relative error      =     0.0000048236 %
Final energy components:
 DFT Correlation            Energy =  -0.48419291769686
 DFT Exchange               Energy = -20.15457771672918
 Kinetic (alpha)            Energy = 145.16532816240084
 Kinetic (beta)             Energy = 143.17442881802009
 Nuclear Attraction (alpha) Energy = -351.25548668345129
 Nuclear Attraction (beta)  Energy = -337.63206697062606
 Nuclear Repulsion          Energy =   0.00000000000000
 SEOQF                      Energy =   0.00000000065999
 Total Coulomb              Energy = 131.95998001585235
----------------------------------------------
    SCF Energy: -289.2265872916
   Total fragment job time:  0.37 s.
restoring fragment data

 ------------------------------------------------------------------------
 Allocate 14209168 B from available memory: 1048568740608 B
 Time for generating SCF guess: 0.38 s

 Allocate 904344 B from available memory: 1048554531456 B
 Selected algorithms for each term:
  kpts_kinetic -> @0x14c7a0b72680
  kpts_nn -> @0x14c7a0b72800
  kpts_rij_bigmem -> @0x14c7a0b723e0
  kpts_vnuc_df -> @0x14c7a0b72380
  kpts_xc -> @0x14c7a0b722c0
 Time for computing kinetic matrix is 6.75 s
Start calculating Vnuc DD type!
Start calculating Vnuc CD type!
Start calculating Vnuc CC type!
 Time for computing nuclear attraction matrix is 10.86 s
Compute (P|Q) and use solve on the fly!
Maximum distance between P and Q is 32.62546518430815
Number of images for (P|Qn) is 285
 Time for computing 2e2c SR integral is 0.58 s
Maximum dynamic memory per thread for 2e3c SR integrals: 0.048 GiB
Batch size for basis function pair is 99840 out of 99840
 === bvk cell = 0 has 100.000 % of the basis function pairs === 
Static memory requirement for 2e3c SR integrals: 1.440 GB
There are 1 munu batches for computing 2e3c SR integrals with latsum
There are 32 Q batches for computing 2e3c SR integrals with latsum
 Time for computing 2e3c SR integral (CD) is 30.00 s
Maximum dynamic memory per thread for 2e3c SR integrals: 0.055 GiB
Batch size for basis function pair is 116120 out of 116120
 === bvk cell = 0 has 100.000 % of the basis function pairs === 
Static memory requirement for 2e3c SR integrals: 1.675 GB
There are 1 munu batches for computing 2e3c SR integrals with latsum
There are 32 Q batches for computing 2e3c SR integrals with latsum
 Time for computing 2e3c SR integral (CC) is 14.62 s
 Time for RI-J this SCF iteration is 48.15 s
 Time for RI-J this SCF iteration is 2.89 s
 ----------------------------------------------
 Guess energy: -4629.5384667414
 ----------------------------------------------
 Guess energy components:
 DFT Correlation    Energy =  -8.72213080479289
 DFT Exchange       Energy = -324.90884974709468
 Kinetic            Energy = 4620.53429886922459
 Nuclear Attraction Energy = -9492.28430818135530
 Nuclear Repulsion  Energy = -823.14927427733528
 Total Coulomb      Energy = 1398.99179739997589
 ----------------------------------------------
  Cycle       Energy        RMS Gradient
 ----------------------------------------------
 Time for RI-J this SCF iteration is 3.01 s
    1   -4629.5593812738      2.86e-02   Normal BFGS step
 Energy components after cycle 1:
 DFT Correlation    Energy =  -8.74357310416812
 DFT Exchange       Energy = -324.39180365656125
 Kinetic            Energy = 4615.74432710565816
 Nuclear Attraction Energy = -9482.16820333984469
 Nuclear Repulsion  Energy = -823.14927427733528
 Total Coulomb      Energy = 1393.14914599849112
 Time for RI-J this SCF iteration is 2.89 s
    2   -4629.5615703877      8.64e-03   Normal BFGS step
 Energy components after cycle 2:
 DFT Correlation    Energy =  -8.73992092913040
 DFT Exchange       Energy = -324.58707365751224
 Kinetic            Energy = 4618.03209027646881
 Nuclear Attraction Energy = -9486.24076651141331
 Nuclear Repulsion  Energy = -823.14927427733528
 Total Coulomb      Energy = 1395.12337471120190
 Time for RI-J this SCF iteration is 3.04 s
    3   -4629.5615973082      6.48e-04   Normal BFGS step
 Energy components after cycle 3:
 DFT Correlation    Energy =  -8.73931758715057
 DFT Exchange       Energy = -324.55868120799471
 Kinetic            Energy = 4617.57765877431211
 Nuclear Attraction Energy = -9485.59455181418525
 Nuclear Repulsion  Energy = -823.14927427733528
 Total Coulomb      Energy = 1394.90256880414086
 Time for RI-J this SCF iteration is 2.94 s
    4   -4629.5616004904      1.87e-04   Normal BFGS step
 Energy components after cycle 4:
 DFT Correlation    Energy =  -8.73952346374318
 DFT Exchange       Energy = -324.56368333851668
 Kinetic            Energy = 4617.66868369404619
 Nuclear Attraction Energy = -9485.71316730765466
 Nuclear Repulsion  Energy = -823.14927427733528
 Total Coulomb      Energy = 1394.93536420277724
 Time for RI-J this SCF iteration is 2.96 s
    5   -4629.5616004902      4.00e-06   Normal BFGS step
 Energy components after cycle 5:
 DFT Correlation    Energy =  -8.73952111338384
 DFT Exchange       Energy = -324.56374504272009
 Kinetic            Energy = 4617.66927624802611
 Nuclear Attraction Energy = -9485.71441080965997
 Nuclear Repulsion  Energy = -823.14927427733528
 Total Coulomb      Energy = 1394.93607450486365
 Time for RI-J this SCF iteration is 2.89 s
    6   -4629.5616004906      1.23e-07   Normal BFGS step
 Energy components after cycle 6:
 DFT Correlation    Energy =  -8.73952115869481
 DFT Exchange       Energy = -324.56374238952776
 Kinetic            Energy = 4617.66924530346660
 Nuclear Attraction Energy = -9485.71435504417423
 Nuclear Repulsion  Energy = -823.14927427733528
 Total Coulomb      Energy = 1394.93604707570671
    6   -4629.5616004906      1.23e-07  Convergence criterion met
 ----------------------------------------------
 Final energy components:
 DFT Correlation    Energy =  -8.73952115869481
 DFT Exchange       Energy = -324.56374238952776
 Kinetic            Energy = 4617.66924530346660
 Nuclear Attraction Energy = -9485.71435504417423
 Nuclear Repulsion  Energy = -823.14927427733528
 Total Coulomb      Energy = 1394.93604707570671
 ----------------------------------------------
 Final energy is -4629.5616004906

 SCF time:   CPU 6057.38s  wall 196.00s 
 Total wall time for computing Kinetic: 0.01 s (8)
 Total wall time for computing RIJ-BIGMEM: 68.78 s (8)
 Total wall time for computing RSDF Vnuc: 0.01 s (8)
 Total wall time for computing DFT XC: 98.12 s (8)
 ---------------------------------------------------------------------------
                        Orbital Energies (a.u.)
 ---------------------------------------------------------------------------
 == 0-th k-point (0.00000,0.00000,0.00000) occupation: 112==
 -64.97112 -64.97112 -64.97112 -64.97112 -64.97108 -64.97108 -64.97108 -64.97108 -64.97108 -64.97108
 -64.97106 -64.97104 -64.97104 -64.97104 -64.97104 -64.97102 -4.60332 -4.60326 -4.60326 -4.60326
 -4.60326 -4.60319 -4.60319 -4.60319 -4.60319 -4.60319 -4.60319 -4.60312 -4.60312 -4.60312
 -4.60312 -4.60305 -3.01382 -3.01382 -3.01382 -3.01382 -3.01382 -3.01382 -3.01381 -3.01381
 -3.01381 -3.01381 -3.01381 -3.01381 -3.01381 -3.01381 -3.01376 -3.01376 -3.01376 -3.01367
 -3.01367 -3.01367 -3.01367 -3.01344 -3.01344 -3.01344 -3.01344 -3.01344 -3.01344 -3.01320
 -3.01320 -3.01320 -3.01320 -3.01315 -3.01315 -3.01315 -3.01311 -3.01311 -3.01311 -3.01311
 -3.01311 -3.01311 -3.01311 -3.01311 -3.01309 -3.01309 -3.01309 -3.01309 -3.01309 -3.01309
 -0.15534 -0.06864 -0.06864 -0.06864 -0.06864 -0.00207 -0.00207 -0.00207 -0.00207 -0.00207
 -0.00207 0.02701 0.02701 0.02701 0.02701 0.17796 0.17796 0.17796 0.17796 0.17796
 0.17796 0.24058 0.24058 0.24058 0.24058 0.24058 0.24058 0.24058 0.24058 0.28690
 0.28690 0.28690 0.31058 0.31058 0.31058 0.31058 0.31058 0.31058 0.34397 0.34397
 0.34397 0.34397 0.37760 0.37760 0.37760 0.40780 0.40780 0.40780 0.40780 0.40780
 0.40780 0.40780 0.40780 0.41304 0.57404 0.57404 0.57404 0.57404 0.57696 0.57696
 0.59411 0.65881 0.65881 0.65881 0.65881 0.65881 0.65881 0.68757 0.68757 0.68757
 0.68757 0.68757 0.68757 0.68757 0.68757 0.70624 0.70624 0.70624 0.70624 0.70624
 0.70624 0.71104 0.71104 0.71104 0.71149 0.71149 0.71149 0.71149 0.71149 0.71149
 0.71149 0.71149 0.71169 0.71169 0.71169 0.71169 0.75756 0.75756 0.75756 0.75756
 0.75756 0.75756 0.77041 0.77041 0.77041 0.77041 0.77041 0.77041 0.77651 0.77651
 0.77651 0.77651 0.93022 1.00881 1.00881 1.00881 1.00881 1.00881 1.00881 1.02944
 1.02944 1.02944 1.02944 1.04151 1.04151 1.04151 1.04151 1.04888 1.04888 1.04888
 1.04889 1.04889 1.04889 1.07519 1.07519 1.07519 1.07519 1.07519 1.07519 1.11656
 1.11656 1.11656 1.11656 1.11656 1.11656 1.11656 1.11656 1.12327 1.12327 1.12327
 1.12327 1.12327 1.12327 1.16760 1.16760 1.16760 1.16760 1.16760 1.16761 1.16761
 1.16761 1.19857 1.19857 1.19857 1.22989 1.22989 1.25250 1.25250 1.25250 1.26479
 1.26479 1.26479 1.26480 1.28344 1.28344 1.28344 1.28344 1.28344 1.28344 1.30515
 1.30515 1.30515 1.30515 1.30515 1.30515 1.30515 1.30515 1.37204 1.37204 1.37204
 1.37204 1.37204 1.37206 1.37206 1.37206 1.38198 1.38198 1.38198 1.42806 1.42806
 1.42806 1.42806 1.43089 1.43089 1.43089 1.43090 1.43090 1.43090 1.55424 1.55424
 1.55424 1.55424 1.55424 1.55425 1.55425 1.55425 1.56310 1.56310 1.56310 1.56310
 1.56310 1.56310 1.56310 1.56310 1.64175 1.64175 1.64175 1.64175 1.64175 1.64175
 1.64456 1.64456 1.64456 1.64825 1.64825 1.64825 1.64826 1.64956 1.64956 1.64956
 1.64956 1.76381 1.76381 1.76381 1.76381 1.76381 1.76381 1.77625 1.77625 1.77625
 1.77625 1.77625 1.77625 1.80444 1.80444 1.85862 1.85862 1.85862 1.85862 1.85862
 1.85862 1.86715 1.86715 1.86715 1.86715 1.87088 1.87088 1.87088 1.90695 1.90695
 1.90695 1.90695 1.90695 1.90695 1.93952 1.93952 1.93952 1.93952 1.94494 1.96387
 1.96387 1.96387 1.96959 1.96959 1.96959 1.96959 1.96959 1.96959 1.96959 1.96959
 1.97278 1.97278 2.02345 2.02345 2.02345 2.02345 2.02345 2.02346 2.02346 2.02346
 2.02516 2.02516 2.02516 2.02517 2.07750 2.07750 2.07750 2.09553 2.09553 2.09553
 2.09553 2.12472 2.12472 2.12472 2.12472 2.12472 2.12472 2.14335 2.14335 2.14335
 2.16591 2.16591 2.16591 2.16591 2.16591 2.16591 2.17736 2.17736 2.17736 2.17846
 2.17846 2.17846 2.26351 2.26351 2.26351 2.26351 2.26351 2.26351 2.27892 2.35130
 2.35130 2.35130 2.35130 2.35130 2.35130 2.35352 2.35352 2.35352 2.35352 2.35352
 2.35365 2.35365 2.35365 2.43453 2.43453 2.43453 2.43453 2.43453 2.43459 2.43459
 2.43459 2.44551 2.44551 2.44551 2.44551 2.44551 2.44551 2.44551 2.44551 2.47189
 2.47189 2.47189 2.47189 2.50072 2.50072 2.50072 2.50073 2.50073 2.50073 2.50073
 2.50073 2.51299 2.51299 2.51299 2.51302 2.66154 2.66154 2.66154 2.66348 2.66348
 2.66348 2.67298 2.67298 2.67298 2.67300 2.67300 2.67300 2.75456 2.84954 2.84954
 2.84954 2.84954 2.84954 2.84954 2.87605 2.87614 2.87614 3.44027 3.44027 3.44027
 3.44027 3.44027 3.44027 3.44027 3.44027 3.48128 3.48128 3.48129 3.48174 3.48175
 3.48175 3.48175 3.59280 3.59280 3.59280 3.59281 3.68697 3.68697 3.68697 3.68697
 3.84752 3.84752 3.84752 3.84754 3.84754 3.84754 4.11354 4.11354 4.11354 4.11354
 4.11354 4.11357 4.11357 4.11357 4.13000 4.13004 4.13004 4.14500 4.14500 4.14500
 4.14566 4.14566 4.14566 4.47899 5.46865 5.46865 5.46865 5.46867 5.46867 5.46867
 7.74190 7.74191 7.74191 7.74191
 ---------------------------------------------------------------------------
 VBM is at 0-th k-point with 7.80701 eV
 CBM is at 0-th k-point with 8.45140 eV
 Band gap is 0.64439 eV


           Ground-State Mulliken Net Atomic Charges

      Atom                 Charge (a.u.)          Spin (a.u.)
   --------------------------------------------------------
      1 Si              (-0.000000,-0.000000)    (0.000000,0.000000)
      2 Si              (-0.000000,-0.000000)    (0.000000,0.000000)
      3 Si              (-0.000000,-0.000000)    (0.000000,0.000000)
      4 Si              (-0.000000,-0.000000)    (0.000000,0.000000)
      5 Si              (-0.000000,-0.000000)    (0.000000,0.000000)
      6 Si              (-0.000000,-0.000000)    (0.000000,0.000000)
      7 Si              (-0.000000,-0.000000)    (0.000000,0.000000)
      8 Si              (-0.000000,-0.000000)    (0.000000,0.000000)
      9 Si               (0.000000,-0.000000)    (0.000000,0.000000)
     10 Si               (0.000000,-0.000000)    (0.000000,0.000000)
     11 Si               (0.000000,-0.000000)    (0.000000,0.000000)
     12 Si               (0.000000,-0.000000)    (0.000000,0.000000)
     13 Si               (0.000000,-0.000000)    (0.000000,0.000000)
     14 Si               (0.000000,-0.000000)    (0.000000,0.000000)
     15 Si               (0.000000,-0.000000)    (0.000000,0.000000)
     16 Si               (0.000000,-0.000000)    (0.000000,0.000000)
   --------------------------------------------------------
  Sum of atomic charges =     (-0.000000,-0.000000)
  Sum of spin   charges =       (0.000000,0.000000)



 Total job time:  196.36 s.
 Mon Sep  8 15:17:29 2025


        *************************************************************
        *                                                           *
        *  Thank you very much for using QCPBC. Have a nice day.    *
        *                                                           *
        *************************************************************

