                  Welcome to Q-Chem
           with Periodic Boundary Condition
     A Quantum Leap Into The Future Of Chemistry

 Adam Rettig, Xintian Feng, Meng-Fu Chen, Hieu Dinh, Stephen Quiton,
 Anton Ni, Paul J. Robinson, Jinghong Zhang, Joonho Lee

Contributors to earlier versions of Q-Chem not listed above:
 Evgeny Epifanovsky, Leo Cunha, Jerome F. Gonthier, Kuan-Yu Liu
 Input file: /n/netscratch/joonholee_lab/Lab/hieudinh//lif_solve_def2svp_omega_0.9_999.scratch20250909025055/lif_solve_def2svp_omega_0.9_999.0
 Scratch folder: /n/netscratch/joonholee_lab/Lab/hieudinh//lif_solve_def2svp_omega_0.9_999.scratch20250909025055
 Auxillary files located at: /n/holylabs/LABS/joonholee_lab/Lab/qchem_base/qcaux
 Q-Chem begins on Tue Sep  9 02:50:56 2025

 -------------------------------------------------------------
 User input:
 -------------------------------------------------------------
 $lattice
 3
 0.000000 2.005000 2.005000
 2.005000 0.000000 2.005000
 2.005000 2.005000 0.000000
 $end
 
 $unitcell
 ABSOLUTE
 0 1
 Li 0.000000 0.000000 0.000000
 F  2.005000 0.000000 0.000000
 $end
 
 $rem
 jobtype = sp
 method = pbe
 scf_convergence = 5
 scf_guess = autosad
 scf_algorithm = gdm
 basis = def2-svp
 aux_basis = gen
 input_bohr = false
 symmetry false
 is_basis_uctr true
 rsdf_print_level 1
 
 mp_mesh = [9,9,9]
 
 integral_direct true
 bvk_cgto true
 
 thresh 14
 mem_total 100000
 threads 32
 
 MAX_SCF_CYCLES 400
 madelung = false
 omega 0.9
 do_rij_bigmem true
 automate_g true
 print_level 10
 grid_type_xc 1
 
 thresh_1e2c_sp 1e-14
 thresh_2e3c_bra_ket_sep 1e-10
 thresh_g 1e-12
 $end
 
 $aux_basis
 Li     0
 S   7   1.00
     498.3689730              0.0207908
     162.9342738              0.0542177
      57.3246735              0.1776783
      21.6427314              0.4181150
       8.7345375              0.6535245
       3.7491039              0.5492618
       1.7006754              0.1701425
 S   1   1.00
       0.8090859             -0.0097548
 S   1   1.00
       0.4000933             -0.0050152
 S   1   1.00
       0.2035793              0.0232200
 !S   1   1.00
 !      0.1054201              0.0134535
 !S   1   1.00
 !      0.0549139              0.0006647
 P   2   1.00
      10.7024696              0.0072923
       3.6551543              0.0060940
 P   1   1.00
       1.2464013              0.0172529
 P   1   1.00
       0.4246282             -0.0160026
 P   1   1.00
       0.1446192             -0.0195111
 D   2   1.00
       1.1510647             -0.0014314
       0.6019112              0.0038969
 D   1   1.00
       0.3109573              0.0024683
 D   1   1.00
       0.1600032              0.0036451
 F   2   1.00
       0.5967918              0.0010494
       0.1790687              0.0006468
 G   1   1.00
       1.0460130             -0.0001971
 ****
 F     0
 S   7   1.00
    3514.9201549              0.1805835
    1231.2458815              0.3676084
     454.1367336              1.2707881
     175.8376258              2.8274164
      71.2081775              4.3588226
      30.0316883              2.7180994
      13.1259023             -0.0804726
 S   1   1.00
       5.9126861             -0.0023370
 S   1   1.00
       2.7284431              1.1236274
 S   1   1.00
       1.2813993              0.9999042
 S   1   1.00
       0.6082793              0.3119579
 S   1   1.00
       0.2897894              0.0312295
 P   2   1.00
      49.3740409             -0.0346332
      13.4874956             -0.0096069
 P   1   1.00
       3.9664900              0.0762067
 P   1   1.00
       1.2226629             -0.0103329
 P   1   1.00
       0.3830317              0.0018853
 D   2   1.00
      29.9719140             -0.0113316
       6.7860915             -0.0467639
 D   1   1.00
       1.8137313             -0.0167604
 D   1   1.00
       0.5157840             -0.0050777
 F   2   1.00
       2.8301877              1.0
       0.9155962              1.0
 G   1   1.00
       1.6097500             -0.0005411
 ****
 $end
 -------------------------------------------------------------
 Running PBC job

 Requested Exchange Correlation Functionals: 
  DFT Exchange:  1.00000 pbe_x
  DFT Correlation:  1.00000 pbe_c
 using 32 threads for computing.
 ---------------------------------------------------------------
      Coordinates of Atoms in Central Unit Cell (Angstroms)
    I     Atom         X            Y            Z
 ---------------------------------------------------------------
    1      Li      0.000000     0.000000     0.000000
    2       F      2.005000     0.000000     0.000000
 ---------------------------------------------------------------
 --------------------------------------------------
              Lattice Vectors (Angstroms)
              X            Y            Z
 --------------------------------------------------
   X       0.000000     2.005000     2.005000
   Y       2.005000     0.000000     2.005000
   Z       2.005000     2.005000     0.000000
 --------------------------------------------------
 --------------------------------------------------
       Reciprocal Lattice Vectors (Angstroms^-1)
              X            Y            Z
 --------------------------------------------------
   X      -1.566879     1.566879     1.566879
   Y       1.566879    -1.566879     1.566879
   Z       1.566879     1.566879    -1.566879
 --------------------------------------------------

 Single point calculation requested

 Hamiltonian contributions:
 List of terms in Hamiltonian: kpts_nn, kpts_kinetic, kpts_vnuc_df, kpts_xc, kpts_rij_bigmem

 K-Points calculation started.

 Basis set information about using solid harmonic (1) or Cartesian (0):
  li : 
  f : D(1) 

 Basis set information about using solid harmonic (1) or Cartesian (0):
  li : D(1) D(1) D(1) F(1) G(1) 
  f : D(1) D(1) D(1) F(1) G(1) 

 There are 23 basis functions in the central unit cell.
 Print atomic basis of atoms in the central unit cell:
 -------------------------------------------------------------
2 22 22 11

  0.00000000000000e+00  0.00000000000000e+00  0.00000000000000e+00
  3.78890087987467e+00  0.00000000000000e+00  0.00000000000000e+00

  2.66277855160000e+02
  4.00697834470000e+01
  9.05599443890000e+00
  2.45030090510000e+00
  7.22095718550000e-01
  5.28108847210000e-02
  2.09609487980000e-02
  1.45000000000000e+00
  3.00000000000000e-01
  8.20000000000000e-02
  2.89483259900000e+03
  4.35419391200000e+02
  9.88433288660000e+01
  2.74851980010000e+01
  8.54054981710000e+00
  1.06545780380000e+00
  3.32473467480000e-01
  2.26966339240000e+01
  4.98723392570000e+00
  1.34916139540000e+00
  3.48298819770000e-01
  1.40000000000000e+00

  2.98523259158809e-01
  5.30473944856059e-01
  7.38120784182850e-01
  6.64059438610974e-01
  2.38395787996007e-01
  7.85150071492147e-02
  3.92616272060942e-02
  5.10109427593945e-01
  2.75249408957986e-01
  6.25471323993550e-02
 -1.50461836060050e+00
 -2.71519138656203e+00
 -4.00842348425574e+00
 -4.00664898239610e+00
 -1.59245314394331e+00
  7.47415815228736e-01
  3.12052622570615e-01
 -4.57453810587525e+00
 -3.61576784341891e+00
 -1.52308270817964e+00
  3.81399475464114e-01
  2.96574303152418e+00

0 0 0 0 1 1 1
0 0 
5 0

0 1 1 5 1 1 1
5 0 
1 0

0 2 2 6 1 1 1
6 0 
1 0

0 3 3 7 1 3 3
7 1 
2 0

0 6 6 9 1 3 3
9 1 
1 0

1 9 9 10 1 1 1
10 0 
5 0

1 10 10 15 1 1 1
15 0 
1 0

1 11 11 16 1 1 1
16 0 
1 0

1 12 12 17 1 3 3
17 1 
3 0

1 15 15 20 1 3 3
20 1 
1 0

1 18 18 21 1 5 6
21 2 
1 1

 -------------------------------------------------------------
 Allocate 132768 B from available memory: 104857600000 B
 There are 12167 image cells after screening.
 There are 15858 image cells for CGTO evaluation after screening.
 Real-Space grid for FFT initialized based on kinetic energy cutoff (eV) = 500.0
 Real-Space grid for FFT: (8,8,8)
 There are 4913 real-space grid points.
 There are 27 batches of real-space grid points. 
 Size of each grid batch is around 128
 Grid for AFT initialized based on kinetic energy cutoff (eV) = 500.0
 Real-Space grid for AFT: (8,8,8)
 There are 4913 real-space grid points.

 There are 5740 atom-centered grid points.

 Spacegroup symmetry group: Fm-3m
 Reducing spacegroup symmetry to symmorphic group: F m -3 m
 Monkhorst-Pack mesh is [9,9,9]
 There are 729 k points.
kpoints in Bohr
-0.3685141010 -0.3685141010 -0.3685141010
-0.2763855758 -0.2763855758 -0.4606426263
-0.1842570505 -0.1842570505 -0.5527711515
-0.0921285253 -0.0921285253 -0.6448996768
-0.0000000000 0.0000000000 -0.7370282020
0.0921285253 0.0921285253 -0.8291567273
0.1842570505 0.1842570505 -0.9212852525
0.2763855758 0.2763855758 -1.0134137778
0.3685141010 0.3685141010 -1.1055423031
-0.2763855758 -0.4606426263 -0.2763855758
-0.1842570505 -0.3685141010 -0.3685141010
-0.0921285253 -0.2763855758 -0.4606426263
-0.0000000000 -0.1842570505 -0.5527711515
0.0921285253 -0.0921285253 -0.6448996768
0.1842570505 0.0000000000 -0.7370282020
0.2763855758 0.0921285253 -0.8291567273
0.3685141010 0.1842570505 -0.9212852525
0.4606426263 0.2763855758 -1.0134137778
-0.1842570505 -0.5527711515 -0.1842570505
-0.0921285253 -0.4606426263 -0.2763855758
-0.0000000000 -0.3685141010 -0.3685141010
0.0921285253 -0.2763855758 -0.4606426263
0.1842570505 -0.1842570505 -0.5527711515
0.2763855758 -0.0921285253 -0.6448996768
0.3685141010 0.0000000000 -0.7370282020
0.4606426263 0.0921285253 -0.8291567273
0.5527711515 0.1842570505 -0.9212852525
-0.0921285253 -0.6448996768 -0.0921285253
-0.0000000000 -0.5527711515 -0.1842570505
0.0921285253 -0.4606426263 -0.2763855758
0.1842570505 -0.3685141010 -0.3685141010
0.2763855758 -0.2763855758 -0.4606426263
0.3685141010 -0.1842570505 -0.5527711515
0.4606426263 -0.0921285253 -0.6448996768
0.5527711515 0.0000000000 -0.7370282020
0.6448996768 0.0921285253 -0.8291567273
0.0000000000 -0.7370282020 -0.0000000000
0.0921285253 -0.6448996768 -0.0921285253
0.1842570505 -0.5527711515 -0.1842570505
0.2763855758 -0.4606426263 -0.2763855758
0.3685141010 -0.3685141010 -0.3685141010
0.4606426263 -0.2763855758 -0.4606426263
0.5527711515 -0.1842570505 -0.5527711515
0.6448996768 -0.0921285253 -0.6448996768
0.7370282020 0.0000000000 -0.7370282020
0.0921285253 -0.8291567273 0.0921285253
0.1842570505 -0.7370282020 -0.0000000000
0.2763855758 -0.6448996768 -0.0921285253
0.3685141010 -0.5527711515 -0.1842570505
0.4606426263 -0.4606426263 -0.2763855758
0.5527711515 -0.3685141010 -0.3685141010
0.6448996768 -0.2763855758 -0.4606426263
0.7370282020 -0.1842570505 -0.5527711515
0.8291567273 -0.0921285253 -0.6448996768
0.1842570505 -0.9212852525 0.1842570505
0.2763855758 -0.8291567273 0.0921285253
0.3685141010 -0.7370282020 -0.0000000000
0.4606426263 -0.6448996768 -0.0921285253
0.5527711515 -0.5527711515 -0.1842570505
0.6448996768 -0.4606426263 -0.2763855758
0.7370282020 -0.3685141010 -0.3685141010
0.8291567273 -0.2763855758 -0.4606426263
0.9212852525 -0.1842570505 -0.5527711515
0.2763855758 -1.0134137778 0.2763855758
0.3685141010 -0.9212852525 0.1842570505
0.4606426263 -0.8291567273 0.0921285253
0.5527711515 -0.7370282020 -0.0000000000
0.6448996768 -0.6448996768 -0.0921285253
0.7370282020 -0.5527711515 -0.1842570505
0.8291567273 -0.4606426263 -0.2763855758
0.9212852525 -0.3685141010 -0.3685141010
1.0134137778 -0.2763855758 -0.4606426263
0.3685141010 -1.1055423031 0.3685141010
0.4606426263 -1.0134137778 0.2763855758
0.5527711515 -0.9212852525 0.1842570505
0.6448996768 -0.8291567273 0.0921285253
0.7370282020 -0.7370282020 -0.0000000000
0.8291567273 -0.6448996768 -0.0921285253
0.9212852525 -0.5527711515 -0.1842570505
1.0134137778 -0.4606426263 -0.2763855758
1.1055423031 -0.3685141010 -0.3685141010
-0.4606426263 -0.2763855758 -0.2763855758
-0.3685141010 -0.1842570505 -0.3685141010
-0.2763855758 -0.0921285253 -0.4606426263
-0.1842570505 0.0000000000 -0.5527711515
-0.0921285253 0.0921285253 -0.6448996768
-0.0000000000 0.1842570505 -0.7370282020
0.0921285253 0.2763855758 -0.8291567273
0.1842570505 0.3685141010 -0.9212852525
0.2763855758 0.4606426263 -1.0134137778
-0.3685141010 -0.3685141010 -0.1842570505
-0.2763855758 -0.2763855758 -0.2763855758
-0.1842570505 -0.1842570505 -0.3685141010
-0.0921285253 -0.0921285253 -0.4606426263
-0.0000000000 0.0000000000 -0.5527711515
0.0921285253 0.0921285253 -0.6448996768
0.1842570505 0.1842570505 -0.7370282020
0.2763855758 0.2763855758 -0.8291567273
0.3685141010 0.3685141010 -0.9212852525
-0.2763855758 -0.4606426263 -0.0921285253
-0.1842570505 -0.3685141010 -0.1842570505
-0.0921285253 -0.2763855758 -0.2763855758
-0.0000000000 -0.1842570505 -0.3685141010
0.0921285253 -0.0921285253 -0.4606426263
0.1842570505 0.0000000000 -0.5527711515
0.2763855758 0.0921285253 -0.6448996768
0.3685141010 0.1842570505 -0.7370282020
0.4606426263 0.2763855758 -0.8291567273
-0.1842570505 -0.5527711515 -0.0000000000
-0.0921285253 -0.4606426263 -0.0921285253
-0.0000000000 -0.3685141010 -0.1842570505
0.0921285253 -0.2763855758 -0.2763855758
0.1842570505 -0.1842570505 -0.3685141010
0.2763855758 -0.0921285253 -0.4606426263
0.3685141010 0.0000000000 -0.5527711515
0.4606426263 0.0921285253 -0.6448996768
0.5527711515 0.1842570505 -0.7370282020
-0.0921285253 -0.6448996768 0.0921285253
-0.0000000000 -0.5527711515 -0.0000000000
0.0921285253 -0.4606426263 -0.0921285253
0.1842570505 -0.3685141010 -0.1842570505
0.2763855758 -0.2763855758 -0.2763855758
0.3685141010 -0.1842570505 -0.3685141010
0.4606426263 -0.0921285253 -0.4606426263
0.5527711515 0.0000000000 -0.5527711515
0.6448996768 0.0921285253 -0.6448996768
0.0000000000 -0.7370282020 0.1842570505
0.0921285253 -0.6448996768 0.0921285253
0.1842570505 -0.5527711515 -0.0000000000
0.2763855758 -0.4606426263 -0.0921285253
0.3685141010 -0.3685141010 -0.1842570505
0.4606426263 -0.2763855758 -0.2763855758
0.5527711515 -0.1842570505 -0.3685141010
0.6448996768 -0.0921285253 -0.4606426263
0.7370282020 0.0000000000 -0.5527711515
0.0921285253 -0.8291567273 0.2763855758
0.1842570505 -0.7370282020 0.1842570505
0.2763855758 -0.6448996768 0.0921285253
0.3685141010 -0.5527711515 -0.0000000000
0.4606426263 -0.4606426263 -0.0921285253
0.5527711515 -0.3685141010 -0.1842570505
0.6448996768 -0.2763855758 -0.2763855758
0.7370282020 -0.1842570505 -0.3685141010
0.8291567273 -0.0921285253 -0.4606426263
0.1842570505 -0.9212852525 0.3685141010
0.2763855758 -0.8291567273 0.2763855758
0.3685141010 -0.7370282020 0.1842570505
0.4606426263 -0.6448996768 0.0921285253
0.5527711515 -0.5527711515 -0.0000000000
0.6448996768 -0.4606426263 -0.0921285253
0.7370282020 -0.3685141010 -0.1842570505
0.8291567273 -0.2763855758 -0.2763855758
0.9212852525 -0.1842570505 -0.3685141010
0.2763855758 -1.0134137778 0.4606426263
0.3685141010 -0.9212852525 0.3685141010
0.4606426263 -0.8291567273 0.2763855758
0.5527711515 -0.7370282020 0.1842570505
0.6448996768 -0.6448996768 0.0921285253
0.7370282020 -0.5527711515 -0.0000000000
0.8291567273 -0.4606426263 -0.0921285253
0.9212852525 -0.3685141010 -0.1842570505
1.0134137778 -0.2763855758 -0.2763855758
-0.5527711515 -0.1842570505 -0.1842570505
-0.4606426263 -0.0921285253 -0.2763855758
-0.3685141010 0.0000000000 -0.3685141010
-0.2763855758 0.0921285253 -0.4606426263
-0.1842570505 0.1842570505 -0.5527711515
-0.0921285253 0.2763855758 -0.6448996768
-0.0000000000 0.3685141010 -0.7370282020
0.0921285253 0.4606426263 -0.8291567273
0.1842570505 0.5527711515 -0.9212852525
-0.4606426263 -0.2763855758 -0.0921285253
-0.3685141010 -0.1842570505 -0.1842570505
-0.2763855758 -0.0921285253 -0.2763855758
-0.1842570505 0.0000000000 -0.3685141010
-0.0921285253 0.0921285253 -0.4606426263
-0.0000000000 0.1842570505 -0.5527711515
0.0921285253 0.2763855758 -0.6448996768
0.1842570505 0.3685141010 -0.7370282020
0.2763855758 0.4606426263 -0.8291567273
-0.3685141010 -0.3685141010 -0.0000000000
-0.2763855758 -0.2763855758 -0.0921285253
-0.1842570505 -0.1842570505 -0.1842570505
-0.0921285253 -0.0921285253 -0.2763855758
-0.0000000000 0.0000000000 -0.3685141010
0.0921285253 0.0921285253 -0.4606426263
0.1842570505 0.1842570505 -0.5527711515
0.2763855758 0.2763855758 -0.6448996768
0.3685141010 0.3685141010 -0.7370282020
-0.2763855758 -0.4606426263 0.0921285253
-0.1842570505 -0.3685141010 -0.0000000000
-0.0921285253 -0.2763855758 -0.0921285253
-0.0000000000 -0.1842570505 -0.1842570505
0.0921285253 -0.0921285253 -0.2763855758
0.1842570505 0.0000000000 -0.3685141010
0.2763855758 0.0921285253 -0.4606426263
0.3685141010 0.1842570505 -0.5527711515
0.4606426263 0.2763855758 -0.6448996768
-0.1842570505 -0.5527711515 0.1842570505
-0.0921285253 -0.4606426263 0.0921285253
0.0000000000 -0.3685141010 -0.0000000000
0.0921285253 -0.2763855758 -0.0921285253
0.1842570505 -0.1842570505 -0.1842570505
0.2763855758 -0.0921285253 -0.2763855758
0.3685141010 0.0000000000 -0.3685141010
0.4606426263 0.0921285253 -0.4606426263
0.5527711515 0.1842570505 -0.5527711515
-0.0921285253 -0.6448996768 0.2763855758
0.0000000000 -0.5527711515 0.1842570505
0.0921285253 -0.4606426263 0.0921285253
0.1842570505 -0.3685141010 -0.0000000000
0.2763855758 -0.2763855758 -0.0921285253
0.3685141010 -0.1842570505 -0.1842570505
0.4606426263 -0.0921285253 -0.2763855758
0.5527711515 0.0000000000 -0.3685141010
0.6448996768 0.0921285253 -0.4606426263
0.0000000000 -0.7370282020 0.3685141010
0.0921285253 -0.6448996768 0.2763855758
0.1842570505 -0.5527711515 0.1842570505
0.2763855758 -0.4606426263 0.0921285253
0.3685141010 -0.3685141010 -0.0000000000
0.4606426263 -0.2763855758 -0.0921285253
0.5527711515 -0.1842570505 -0.1842570505
0.6448996768 -0.0921285253 -0.2763855758
0.7370282020 0.0000000000 -0.3685141010
0.0921285253 -0.8291567273 0.4606426263
0.1842570505 -0.7370282020 0.3685141010
0.2763855758 -0.6448996768 0.2763855758
0.3685141010 -0.5527711515 0.1842570505
0.4606426263 -0.4606426263 0.0921285253
0.5527711515 -0.3685141010 -0.0000000000
0.6448996768 -0.2763855758 -0.0921285253
0.7370282020 -0.1842570505 -0.1842570505
0.8291567273 -0.0921285253 -0.2763855758
0.1842570505 -0.9212852525 0.5527711515
0.2763855758 -0.8291567273 0.4606426263
0.3685141010 -0.7370282020 0.3685141010
0.4606426263 -0.6448996768 0.2763855758
0.5527711515 -0.5527711515 0.1842570505
0.6448996768 -0.4606426263 0.0921285253
0.7370282020 -0.3685141010 -0.0000000000
0.8291567273 -0.2763855758 -0.0921285253
0.9212852525 -0.1842570505 -0.1842570505
-0.6448996768 -0.0921285253 -0.0921285253
-0.5527711515 0.0000000000 -0.1842570505
-0.4606426263 0.0921285253 -0.2763855758
-0.3685141010 0.1842570505 -0.3685141010
-0.2763855758 0.2763855758 -0.4606426263
-0.1842570505 0.3685141010 -0.5527711515
-0.0921285253 0.4606426263 -0.6448996768
-0.0000000000 0.5527711515 -0.7370282020
0.0921285253 0.6448996768 -0.8291567273
-0.5527711515 -0.1842570505 -0.0000000000
-0.4606426263 -0.0921285253 -0.0921285253
-0.3685141010 0.0000000000 -0.1842570505
-0.2763855758 0.0921285253 -0.2763855758
-0.1842570505 0.1842570505 -0.3685141010
-0.0921285253 0.2763855758 -0.4606426263
-0.0000000000 0.3685141010 -0.5527711515
0.0921285253 0.4606426263 -0.6448996768
0.1842570505 0.5527711515 -0.7370282020
-0.4606426263 -0.2763855758 0.0921285253
-0.3685141010 -0.1842570505 -0.0000000000
-0.2763855758 -0.0921285253 -0.0921285253
-0.1842570505 0.0000000000 -0.1842570505
-0.0921285253 0.0921285253 -0.2763855758
-0.0000000000 0.1842570505 -0.3685141010
0.0921285253 0.2763855758 -0.4606426263
0.1842570505 0.3685141010 -0.5527711515
0.2763855758 0.4606426263 -0.6448996768
-0.3685141010 -0.3685141010 0.1842570505
-0.2763855758 -0.2763855758 0.0921285253
-0.1842570505 -0.1842570505 -0.0000000000
-0.0921285253 -0.0921285253 -0.0921285253
-0.0000000000 0.0000000000 -0.1842570505
0.0921285253 0.0921285253 -0.2763855758
0.1842570505 0.1842570505 -0.3685141010
0.2763855758 0.2763855758 -0.4606426263
0.3685141010 0.3685141010 -0.5527711515
-0.2763855758 -0.4606426263 0.2763855758
-0.1842570505 -0.3685141010 0.1842570505
-0.0921285253 -0.2763855758 0.0921285253
0.0000000000 -0.1842570505 -0.0000000000
0.0921285253 -0.0921285253 -0.0921285253
0.1842570505 0.0000000000 -0.1842570505
0.2763855758 0.0921285253 -0.2763855758
0.3685141010 0.1842570505 -0.3685141010
0.4606426263 0.2763855758 -0.4606426263
-0.1842570505 -0.5527711515 0.3685141010
-0.0921285253 -0.4606426263 0.2763855758
0.0000000000 -0.3685141010 0.1842570505
0.0921285253 -0.2763855758 0.0921285253
0.1842570505 -0.1842570505 -0.0000000000
0.2763855758 -0.0921285253 -0.0921285253
0.3685141010 0.0000000000 -0.1842570505
0.4606426263 0.0921285253 -0.2763855758
0.5527711515 0.1842570505 -0.3685141010
-0.0921285253 -0.6448996768 0.4606426263
0.0000000000 -0.5527711515 0.3685141010
0.0921285253 -0.4606426263 0.2763855758
0.1842570505 -0.3685141010 0.1842570505
0.2763855758 -0.2763855758 0.0921285253
0.3685141010 -0.1842570505 -0.0000000000
0.4606426263 -0.0921285253 -0.0921285253
0.5527711515 0.0000000000 -0.1842570505
0.6448996768 0.0921285253 -0.2763855758
0.0000000000 -0.7370282020 0.5527711515
0.0921285253 -0.6448996768 0.4606426263
0.1842570505 -0.5527711515 0.3685141010
0.2763855758 -0.4606426263 0.2763855758
0.3685141010 -0.3685141010 0.1842570505
0.4606426263 -0.2763855758 0.0921285253
0.5527711515 -0.1842570505 -0.0000000000
0.6448996768 -0.0921285253 -0.0921285253
0.7370282020 0.0000000000 -0.1842570505
0.0921285253 -0.8291567273 0.6448996768
0.1842570505 -0.7370282020 0.5527711515
0.2763855758 -0.6448996768 0.4606426263
0.3685141010 -0.5527711515 0.3685141010
0.4606426263 -0.4606426263 0.2763855758
0.5527711515 -0.3685141010 0.1842570505
0.6448996768 -0.2763855758 0.0921285253
0.7370282020 -0.1842570505 -0.0000000000
0.8291567273 -0.0921285253 -0.0921285253
-0.7370282020 0.0000000000 0.0000000000
-0.6448996768 0.0921285253 -0.0921285253
-0.5527711515 0.1842570505 -0.1842570505
-0.4606426263 0.2763855758 -0.2763855758
-0.3685141010 0.3685141010 -0.3685141010
-0.2763855758 0.4606426263 -0.4606426263
-0.1842570505 0.5527711515 -0.5527711515
-0.0921285253 0.6448996768 -0.6448996768
-0.0000000000 0.7370282020 -0.7370282020
-0.6448996768 -0.0921285253 0.0921285253
-0.5527711515 0.0000000000 0.0000000000
-0.4606426263 0.0921285253 -0.0921285253
-0.3685141010 0.1842570505 -0.1842570505
-0.2763855758 0.2763855758 -0.2763855758
-0.1842570505 0.3685141010 -0.3685141010
-0.0921285253 0.4606426263 -0.4606426263
-0.0000000000 0.5527711515 -0.5527711515
0.0921285253 0.6448996768 -0.6448996768
-0.5527711515 -0.1842570505 0.1842570505
-0.4606426263 -0.0921285253 0.0921285253
-0.3685141010 0.0000000000 0.0000000000
-0.2763855758 0.0921285253 -0.0921285253
-0.1842570505 0.1842570505 -0.1842570505
-0.0921285253 0.2763855758 -0.2763855758
-0.0000000000 0.3685141010 -0.3685141010
0.0921285253 0.4606426263 -0.4606426263
0.1842570505 0.5527711515 -0.5527711515
-0.4606426263 -0.2763855758 0.2763855758
-0.3685141010 -0.1842570505 0.1842570505
-0.2763855758 -0.0921285253 0.0921285253
-0.1842570505 0.0000000000 0.0000000000
-0.0921285253 0.0921285253 -0.0921285253
-0.0000000000 0.1842570505 -0.1842570505
0.0921285253 0.2763855758 -0.2763855758
0.1842570505 0.3685141010 -0.3685141010
0.2763855758 0.4606426263 -0.4606426263
-0.3685141010 -0.3685141010 0.3685141010
-0.2763855758 -0.2763855758 0.2763855758
-0.1842570505 -0.1842570505 0.1842570505
-0.0921285253 -0.0921285253 0.0921285253
0.0000000000 0.0000000000 0.0000000000
0.0921285253 0.0921285253 -0.0921285253
0.1842570505 0.1842570505 -0.1842570505
0.2763855758 0.2763855758 -0.2763855758
0.3685141010 0.3685141010 -0.3685141010
-0.2763855758 -0.4606426263 0.4606426263
-0.1842570505 -0.3685141010 0.3685141010
-0.0921285253 -0.2763855758 0.2763855758
0.0000000000 -0.1842570505 0.1842570505
0.0921285253 -0.0921285253 0.0921285253
0.1842570505 -0.0000000000 0.0000000000
0.2763855758 0.0921285253 -0.0921285253
0.3685141010 0.1842570505 -0.1842570505
0.4606426263 0.2763855758 -0.2763855758
-0.1842570505 -0.5527711515 0.5527711515
-0.0921285253 -0.4606426263 0.4606426263
0.0000000000 -0.3685141010 0.3685141010
0.0921285253 -0.2763855758 0.2763855758
0.1842570505 -0.1842570505 0.1842570505
0.2763855758 -0.0921285253 0.0921285253
0.3685141010 -0.0000000000 0.0000000000
0.4606426263 0.0921285253 -0.0921285253
0.5527711515 0.1842570505 -0.1842570505
-0.0921285253 -0.6448996768 0.6448996768
0.0000000000 -0.5527711515 0.5527711515
0.0921285253 -0.4606426263 0.4606426263
0.1842570505 -0.3685141010 0.3685141010
0.2763855758 -0.2763855758 0.2763855758
0.3685141010 -0.1842570505 0.1842570505
0.4606426263 -0.0921285253 0.0921285253
0.5527711515 -0.0000000000 0.0000000000
0.6448996768 0.0921285253 -0.0921285253
0.0000000000 -0.7370282020 0.7370282020
0.0921285253 -0.6448996768 0.6448996768
0.1842570505 -0.5527711515 0.5527711515
0.2763855758 -0.4606426263 0.4606426263
0.3685141010 -0.3685141010 0.3685141010
0.4606426263 -0.2763855758 0.2763855758
0.5527711515 -0.1842570505 0.1842570505
0.6448996768 -0.0921285253 0.0921285253
0.7370282020 -0.0000000000 0.0000000000
-0.8291567273 0.0921285253 0.0921285253
-0.7370282020 0.1842570505 0.0000000000
-0.6448996768 0.2763855758 -0.0921285253
-0.5527711515 0.3685141010 -0.1842570505
-0.4606426263 0.4606426263 -0.2763855758
-0.3685141010 0.5527711515 -0.3685141010
-0.2763855758 0.6448996768 -0.4606426263
-0.1842570505 0.7370282020 -0.5527711515
-0.0921285253 0.8291567273 -0.6448996768
-0.7370282020 0.0000000000 0.1842570505
-0.6448996768 0.0921285253 0.0921285253
-0.5527711515 0.1842570505 0.0000000000
-0.4606426263 0.2763855758 -0.0921285253
-0.3685141010 0.3685141010 -0.1842570505
-0.2763855758 0.4606426263 -0.2763855758
-0.1842570505 0.5527711515 -0.3685141010
-0.0921285253 0.6448996768 -0.4606426263
-0.0000000000 0.7370282020 -0.5527711515
-0.6448996768 -0.0921285253 0.2763855758
-0.5527711515 0.0000000000 0.1842570505
-0.4606426263 0.0921285253 0.0921285253
-0.3685141010 0.1842570505 0.0000000000
-0.2763855758 0.2763855758 -0.0921285253
-0.1842570505 0.3685141010 -0.1842570505
-0.0921285253 0.4606426263 -0.2763855758
-0.0000000000 0.5527711515 -0.3685141010
0.0921285253 0.6448996768 -0.4606426263
-0.5527711515 -0.1842570505 0.3685141010
-0.4606426263 -0.0921285253 0.2763855758
-0.3685141010 -0.0000000000 0.1842570505
-0.2763855758 0.0921285253 0.0921285253
-0.1842570505 0.1842570505 0.0000000000
-0.0921285253 0.2763855758 -0.0921285253
-0.0000000000 0.3685141010 -0.1842570505
0.0921285253 0.4606426263 -0.2763855758
0.1842570505 0.5527711515 -0.3685141010
-0.4606426263 -0.2763855758 0.4606426263
-0.3685141010 -0.1842570505 0.3685141010
-0.2763855758 -0.0921285253 0.2763855758
-0.1842570505 -0.0000000000 0.1842570505
-0.0921285253 0.0921285253 0.0921285253
0.0000000000 0.1842570505 0.0000000000
0.0921285253 0.2763855758 -0.0921285253
0.1842570505 0.3685141010 -0.1842570505
0.2763855758 0.4606426263 -0.2763855758
-0.3685141010 -0.3685141010 0.5527711515
-0.2763855758 -0.2763855758 0.4606426263
-0.1842570505 -0.1842570505 0.3685141010
-0.0921285253 -0.0921285253 0.2763855758
0.0000000000 -0.0000000000 0.1842570505
0.0921285253 0.0921285253 0.0921285253
0.1842570505 0.1842570505 0.0000000000
0.2763855758 0.2763855758 -0.0921285253
0.3685141010 0.3685141010 -0.1842570505
-0.2763855758 -0.4606426263 0.6448996768
-0.1842570505 -0.3685141010 0.5527711515
-0.0921285253 -0.2763855758 0.4606426263
0.0000000000 -0.1842570505 0.3685141010
0.0921285253 -0.0921285253 0.2763855758
0.1842570505 -0.0000000000 0.1842570505
0.2763855758 0.0921285253 0.0921285253
0.3685141010 0.1842570505 0.0000000000
0.4606426263 0.2763855758 -0.0921285253
-0.1842570505 -0.5527711515 0.7370282020
-0.0921285253 -0.4606426263 0.6448996768
0.0000000000 -0.3685141010 0.5527711515
0.0921285253 -0.2763855758 0.4606426263
0.1842570505 -0.1842570505 0.3685141010
0.2763855758 -0.0921285253 0.2763855758
0.3685141010 -0.0000000000 0.1842570505
0.4606426263 0.0921285253 0.0921285253
0.5527711515 0.1842570505 0.0000000000
-0.0921285253 -0.6448996768 0.8291567273
0.0000000000 -0.5527711515 0.7370282020
0.0921285253 -0.4606426263 0.6448996768
0.1842570505 -0.3685141010 0.5527711515
0.2763855758 -0.2763855758 0.4606426263
0.3685141010 -0.1842570505 0.3685141010
0.4606426263 -0.0921285253 0.2763855758
0.5527711515 -0.0000000000 0.1842570505
0.6448996768 0.0921285253 0.0921285253
-0.9212852525 0.1842570505 0.1842570505
-0.8291567273 0.2763855758 0.0921285253
-0.7370282020 0.3685141010 0.0000000000
-0.6448996768 0.4606426263 -0.0921285253
-0.5527711515 0.5527711515 -0.1842570505
-0.4606426263 0.6448996768 -0.2763855758
-0.3685141010 0.7370282020 -0.3685141010
-0.2763855758 0.8291567273 -0.4606426263
-0.1842570505 0.9212852525 -0.5527711515
-0.8291567273 0.0921285253 0.2763855758
-0.7370282020 0.1842570505 0.1842570505
-0.6448996768 0.2763855758 0.0921285253
-0.5527711515 0.3685141010 0.0000000000
-0.4606426263 0.4606426263 -0.0921285253
-0.3685141010 0.5527711515 -0.1842570505
-0.2763855758 0.6448996768 -0.2763855758
-0.1842570505 0.7370282020 -0.3685141010
-0.0921285253 0.8291567273 -0.4606426263
-0.7370282020 -0.0000000000 0.3685141010
-0.6448996768 0.0921285253 0.2763855758
-0.5527711515 0.1842570505 0.1842570505
-0.4606426263 0.2763855758 0.0921285253
-0.3685141010 0.3685141010 0.0000000000
-0.2763855758 0.4606426263 -0.0921285253
-0.1842570505 0.5527711515 -0.1842570505
-0.0921285253 0.6448996768 -0.2763855758
-0.0000000000 0.7370282020 -0.3685141010
-0.6448996768 -0.0921285253 0.4606426263
-0.5527711515 0.0000000000 0.3685141010
-0.4606426263 0.0921285253 0.2763855758
-0.3685141010 0.1842570505 0.1842570505
-0.2763855758 0.2763855758 0.0921285253
-0.1842570505 0.3685141010 0.0000000000
-0.0921285253 0.4606426263 -0.0921285253
-0.0000000000 0.5527711515 -0.1842570505
0.0921285253 0.6448996768 -0.2763855758
-0.5527711515 -0.1842570505 0.5527711515
-0.4606426263 -0.0921285253 0.4606426263
-0.3685141010 -0.0000000000 0.3685141010
-0.2763855758 0.0921285253 0.2763855758
-0.1842570505 0.1842570505 0.1842570505
-0.0921285253 0.2763855758 0.0921285253
0.0000000000 0.3685141010 0.0000000000
0.0921285253 0.4606426263 -0.0921285253
0.1842570505 0.5527711515 -0.1842570505
-0.4606426263 -0.2763855758 0.6448996768
-0.3685141010 -0.1842570505 0.5527711515
-0.2763855758 -0.0921285253 0.4606426263
-0.1842570505 -0.0000000000 0.3685141010
-0.0921285253 0.0921285253 0.2763855758
0.0000000000 0.1842570505 0.1842570505
0.0921285253 0.2763855758 0.0921285253
0.1842570505 0.3685141010 0.0000000000
0.2763855758 0.4606426263 -0.0921285253
-0.3685141010 -0.3685141010 0.7370282020
-0.2763855758 -0.2763855758 0.6448996768
-0.1842570505 -0.1842570505 0.5527711515
-0.0921285253 -0.0921285253 0.4606426263
0.0000000000 -0.0000000000 0.3685141010
0.0921285253 0.0921285253 0.2763855758
0.1842570505 0.1842570505 0.1842570505
0.2763855758 0.2763855758 0.0921285253
0.3685141010 0.3685141010 0.0000000000
-0.2763855758 -0.4606426263 0.8291567273
-0.1842570505 -0.3685141010 0.7370282020
-0.0921285253 -0.2763855758 0.6448996768
0.0000000000 -0.1842570505 0.5527711515
0.0921285253 -0.0921285253 0.4606426263
0.1842570505 -0.0000000000 0.3685141010
0.2763855758 0.0921285253 0.2763855758
0.3685141010 0.1842570505 0.1842570505
0.4606426263 0.2763855758 0.0921285253
-0.1842570505 -0.5527711515 0.9212852525
-0.0921285253 -0.4606426263 0.8291567273
0.0000000000 -0.3685141010 0.7370282020
0.0921285253 -0.2763855758 0.6448996768
0.1842570505 -0.1842570505 0.5527711515
0.2763855758 -0.0921285253 0.4606426263
0.3685141010 -0.0000000000 0.3685141010
0.4606426263 0.0921285253 0.2763855758
0.5527711515 0.1842570505 0.1842570505
-1.0134137778 0.2763855758 0.2763855758
-0.9212852525 0.3685141010 0.1842570505
-0.8291567273 0.4606426263 0.0921285253
-0.7370282020 0.5527711515 0.0000000000
-0.6448996768 0.6448996768 -0.0921285253
-0.5527711515 0.7370282020 -0.1842570505
-0.4606426263 0.8291567273 -0.2763855758
-0.3685141010 0.9212852525 -0.3685141010
-0.2763855758 1.0134137778 -0.4606426263
-0.9212852525 0.1842570505 0.3685141010
-0.8291567273 0.2763855758 0.2763855758
-0.7370282020 0.3685141010 0.1842570505
-0.6448996768 0.4606426263 0.0921285253
-0.5527711515 0.5527711515 0.0000000000
-0.4606426263 0.6448996768 -0.0921285253
-0.3685141010 0.7370282020 -0.1842570505
-0.2763855758 0.8291567273 -0.2763855758
-0.1842570505 0.9212852525 -0.3685141010
-0.8291567273 0.0921285253 0.4606426263
-0.7370282020 0.1842570505 0.3685141010
-0.6448996768 0.2763855758 0.2763855758
-0.5527711515 0.3685141010 0.1842570505
-0.4606426263 0.4606426263 0.0921285253
-0.3685141010 0.5527711515 0.0000000000
-0.2763855758 0.6448996768 -0.0921285253
-0.1842570505 0.7370282020 -0.1842570505
-0.0921285253 0.8291567273 -0.2763855758
-0.7370282020 -0.0000000000 0.5527711515
-0.6448996768 0.0921285253 0.4606426263
-0.5527711515 0.1842570505 0.3685141010
-0.4606426263 0.2763855758 0.2763855758
-0.3685141010 0.3685141010 0.1842570505
-0.2763855758 0.4606426263 0.0921285253
-0.1842570505 0.5527711515 0.0000000000
-0.0921285253 0.6448996768 -0.0921285253
0.0000000000 0.7370282020 -0.1842570505
-0.6448996768 -0.0921285253 0.6448996768
-0.5527711515 -0.0000000000 0.5527711515
-0.4606426263 0.0921285253 0.4606426263
-0.3685141010 0.1842570505 0.3685141010
-0.2763855758 0.2763855758 0.2763855758
-0.1842570505 0.3685141010 0.1842570505
-0.0921285253 0.4606426263 0.0921285253
0.0000000000 0.5527711515 0.0000000000
0.0921285253 0.6448996768 -0.0921285253
-0.5527711515 -0.1842570505 0.7370282020
-0.4606426263 -0.0921285253 0.6448996768
-0.3685141010 -0.0000000000 0.5527711515
-0.2763855758 0.0921285253 0.4606426263
-0.1842570505 0.1842570505 0.3685141010
-0.0921285253 0.2763855758 0.2763855758
0.0000000000 0.3685141010 0.1842570505
0.0921285253 0.4606426263 0.0921285253
0.1842570505 0.5527711515 0.0000000000
-0.4606426263 -0.2763855758 0.8291567273
-0.3685141010 -0.1842570505 0.7370282020
-0.2763855758 -0.0921285253 0.6448996768
-0.1842570505 -0.0000000000 0.5527711515
-0.0921285253 0.0921285253 0.4606426263
0.0000000000 0.1842570505 0.3685141010
0.0921285253 0.2763855758 0.2763855758
0.1842570505 0.3685141010 0.1842570505
0.2763855758 0.4606426263 0.0921285253
-0.3685141010 -0.3685141010 0.9212852525
-0.2763855758 -0.2763855758 0.8291567273
-0.1842570505 -0.1842570505 0.7370282020
-0.0921285253 -0.0921285253 0.6448996768
0.0000000000 -0.0000000000 0.5527711515
0.0921285253 0.0921285253 0.4606426263
0.1842570505 0.1842570505 0.3685141010
0.2763855758 0.2763855758 0.2763855758
0.3685141010 0.3685141010 0.1842570505
-0.2763855758 -0.4606426263 1.0134137778
-0.1842570505 -0.3685141010 0.9212852525
-0.0921285253 -0.2763855758 0.8291567273
0.0000000000 -0.1842570505 0.7370282020
0.0921285253 -0.0921285253 0.6448996768
0.1842570505 -0.0000000000 0.5527711515
0.2763855758 0.0921285253 0.4606426263
0.3685141010 0.1842570505 0.3685141010
0.4606426263 0.2763855758 0.2763855758
-1.1055423031 0.3685141010 0.3685141010
-1.0134137778 0.4606426263 0.2763855758
-0.9212852525 0.5527711515 0.1842570505
-0.8291567273 0.6448996768 0.0921285253
-0.7370282020 0.7370282020 0.0000000000
-0.6448996768 0.8291567273 -0.0921285253
-0.5527711515 0.9212852525 -0.1842570505
-0.4606426263 1.0134137778 -0.2763855758
-0.3685141010 1.1055423031 -0.3685141010
-1.0134137778 0.2763855758 0.4606426263
-0.9212852525 0.3685141010 0.3685141010
-0.8291567273 0.4606426263 0.2763855758
-0.7370282020 0.5527711515 0.1842570505
-0.6448996768 0.6448996768 0.0921285253
-0.5527711515 0.7370282020 0.0000000000
-0.4606426263 0.8291567273 -0.0921285253
-0.3685141010 0.9212852525 -0.1842570505
-0.2763855758 1.0134137778 -0.2763855758
-0.9212852525 0.1842570505 0.5527711515
-0.8291567273 0.2763855758 0.4606426263
-0.7370282020 0.3685141010 0.3685141010
-0.6448996768 0.4606426263 0.2763855758
-0.5527711515 0.5527711515 0.1842570505
-0.4606426263 0.6448996768 0.0921285253
-0.3685141010 0.7370282020 0.0000000000
-0.2763855758 0.8291567273 -0.0921285253
-0.1842570505 0.9212852525 -0.1842570505
-0.8291567273 0.0921285253 0.6448996768
-0.7370282020 0.1842570505 0.5527711515
-0.6448996768 0.2763855758 0.4606426263
-0.5527711515 0.3685141010 0.3685141010
-0.4606426263 0.4606426263 0.2763855758
-0.3685141010 0.5527711515 0.1842570505
-0.2763855758 0.6448996768 0.0921285253
-0.1842570505 0.7370282020 0.0000000000
-0.0921285253 0.8291567273 -0.0921285253
-0.7370282020 -0.0000000000 0.7370282020
-0.6448996768 0.0921285253 0.6448996768
-0.5527711515 0.1842570505 0.5527711515
-0.4606426263 0.2763855758 0.4606426263
-0.3685141010 0.3685141010 0.3685141010
-0.2763855758 0.4606426263 0.2763855758
-0.1842570505 0.5527711515 0.1842570505
-0.0921285253 0.6448996768 0.0921285253
0.0000000000 0.7370282020 0.0000000000
-0.6448996768 -0.0921285253 0.8291567273
-0.5527711515 -0.0000000000 0.7370282020
-0.4606426263 0.0921285253 0.6448996768
-0.3685141010 0.1842570505 0.5527711515
-0.2763855758 0.2763855758 0.4606426263
-0.1842570505 0.3685141010 0.3685141010
-0.0921285253 0.4606426263 0.2763855758
0.0000000000 0.5527711515 0.1842570505
0.0921285253 0.6448996768 0.0921285253
-0.5527711515 -0.1842570505 0.9212852525
-0.4606426263 -0.0921285253 0.8291567273
-0.3685141010 -0.0000000000 0.7370282020
-0.2763855758 0.0921285253 0.6448996768
-0.1842570505 0.1842570505 0.5527711515
-0.0921285253 0.2763855758 0.4606426263
0.0000000000 0.3685141010 0.3685141010
0.0921285253 0.4606426263 0.2763855758
0.1842570505 0.5527711515 0.1842570505
-0.4606426263 -0.2763855758 1.0134137778
-0.3685141010 -0.1842570505 0.9212852525
-0.2763855758 -0.0921285253 0.8291567273
-0.1842570505 -0.0000000000 0.7370282020
-0.0921285253 0.0921285253 0.6448996768
0.0000000000 0.1842570505 0.5527711515
0.0921285253 0.2763855758 0.4606426263
0.1842570505 0.3685141010 0.3685141010
0.2763855758 0.4606426263 0.2763855758
-0.3685141010 -0.3685141010 1.1055423031
-0.2763855758 -0.2763855758 1.0134137778
-0.1842570505 -0.1842570505 0.9212852525
-0.0921285253 -0.0921285253 0.8291567273
0.0000000000 -0.0000000000 0.7370282020
0.0921285253 0.0921285253 0.6448996768
0.1842570505 0.1842570505 0.5527711515
0.2763855758 0.2763855758 0.4606426263
0.3685141010 0.3685141010 0.3685141010
 There are 6 alpha and 6 beta electrons
 Start computing overlap matrix
 Allocate 6170256 B from available memory: 104857467232 B
 Time for computing overlap matrix: 16.7530000000 s
 ====== Initialize compute kernels for all-electron RI-J (kpts) ====== 
 ========================================================== 
 Range-separated parameter omega        = 0.900000000000000022
 Threshold for 1e2c shellpair           = 0.000000000000010000
 Threshold for 2e2c SR integral         = 0.000000000000000001
 Threshold for 2e3c SR integral         = 0.000000000100000000
 Threshold for AFT G-space screening is = 0.000000000001000000
 The exponent cutoff for C/D classification (omega2 / 2) is  = 0.405000000000000027
 ========================================================== 
 === Post process the basis set for RI calculation (exp_cutoff = 0.405000000000000027 ) === 
nshells_b1 before uncontraction = 11
nshells_b1 after uncontraction = 12
nshells_baux before uncontraction = 28
nshells_baux after uncontraction = 28
===============================================
nbsf total   = 26
nbsf compact = 14
nbsf diffuse = 12
naux total   = 96
naux compact = 96
naux diffuse = 0
nshells_bnuc = 2

 Number of unique atoms is 2
 Unique atom #0 (li) has 2 shells.
 Unique atom #1 (f) has 4 shells.

Shell 0 to 1 belongs to atom li
Shell 2 to 5 belongs to atom f

 Number of unique atoms is 2
 Unique atom #0 (li) has 4 shells.
 Unique atom #1 (f) has 2 shells.

Shell 0 to 3 belongs to atom li
Shell 4 to 5 belongs to atom f

 Number of unique atom is 2
 Unique atom #0 (li) has 13 auxiliary shells.
 Unique atom #1 (f) has 15 auxiliary shells.

Auxiliary Shell 0 to 12 belongs to atom li
Auxiliary Shell 13 to 27 belongs to atom f

================= Automatically determine grid size for reciprocal space summation =================
 Range-separated parameter = 0.90000000000000 and G-space screening threshold = 0.00000000000100
The number of grid points along each axis dimension is (7, 7, 7)
Total number of grid points = 3375

Use nonortho shellpair for diffuse density
======== Initializing relevant kernel for RIJ (DD type) ========
There are 21 shellpairs in the reference unit cell
There are 21037 images and we expect to have 441777 in total
There are 22367 shellpairs in the lattice sum after screening
======== Initializing relevant kernel for RIJ (CD type) ========
There are 36 shellpairs in the reference unit cell
There are 11345 images and we expect to have 408420 in total
There are 18422 shellpairs in the lattice sum after screening
****** AFT -> SR ******
Maximum bra distance cutoff is 38.000000000000
Maximum bra ket distance cutoff is 17.319928803145
Maximum bra ket screening distance is 16.812500000000
Number of auxiliary image is 3661
There are 36 shellpairs in the reference unit cell
There are 3661 images and we expect to have 131796 in total
There are 18422 shellpairs in the lattice sum after screening
Available memory per thread for 2e3c calculation is 3.276603031000Gb
Finish initializing 2e3c SR with the lattice sum!
=================================================
======== Initializing relevant kernel for RIJ (CC type) ========
There are 21 shellpairs in the reference unit cell
There are 527 images and we expect to have 11067 in total
There are 255 shellpairs in the lattice sum after screening
****** AFT -> SR ******
Maximum bra distance cutoff is 9.000000000000
Maximum bra ket distance cutoff is 18.479079330277
Maximum bra ket screening distance is 16.562500000000
Number of auxiliary image is 647
There are 21 shellpairs in the reference unit cell
There are 117 images and we expect to have 2457 in total
There are 255 shellpairs in the lattice sum after screening
Available memory per thread for 2e3c calculation is 3.276603031000Gb
Finish initializing 2e3c SR with the lattice sum!
=================================================
======== Initializing the SR component for Vnuc (CD type) ========
Maximum bra distance cutoff is 38.000000000000
Maximum bra ket distance cutoff is 8.157803433096
Maximum bra ket screening distance is 7.681203387974
Number of auxiliary image is 3661
There are 36 shellpairs in the reference unit cell
There are 3661 images and we expect to have 131796 in total
There are 18422 shellpairs in the lattice sum after screening
Available memory per thread for 2e3c calculation is 3.276603031000Gb
Finish initializing 2e3c SR with the lattice sum!
=================================================
======== Initialize the SR component for Vnuc (CC type) ========
Maximum bra distance cutoff is 9.000000000000
Maximum bra ket distance cutoff is 10.175490900892
Maximum bra ket screening distance is 6.800848225094
Number of auxiliary image is 213
There are 21 shellpairs in the reference unit cell
There are 117 images and we expect to have 2457 in total
There are 255 shellpairs in the lattice sum after screening
Available memory per thread for 2e3c calculation is 3.276603031000Gb
Finish initializing 2e3c SR with the lattice sum!
=================================================
 Aufbau occupation scheme, occupation determined by eigenvalue
 == 0-th k-point nmo = 22 (-0.36851,-0.36851,-0.36851) ==
 == 1-th k-point nmo = 22 (-0.27639,-0.27639,-0.46064) ==
 == 2-th k-point nmo = 22 (-0.18426,-0.18426,-0.55277) ==
 == 3-th k-point nmo = 22 (-0.09213,-0.09213,-0.64490) ==
 == 4-th k-point nmo = 22 (-0.00000,0.00000,-0.73703) ==
 == 5-th k-point nmo = 22 (0.09213,0.09213,-0.82916) ==
 == 6-th k-point nmo = 22 (0.18426,0.18426,-0.92129) ==
 == 7-th k-point nmo = 22 (0.27639,0.27639,-1.01341) ==
 == 8-th k-point nmo = 22 (0.36851,0.36851,-1.10554) ==
 == 9-th k-point nmo = 22 (-0.27639,-0.46064,-0.27639) ==
 == 10-th k-point nmo = 22 (-0.18426,-0.36851,-0.36851) ==
 == 11-th k-point nmo = 22 (-0.09213,-0.27639,-0.46064) ==
 == 12-th k-point nmo = 22 (-0.00000,-0.18426,-0.55277) ==
 == 13-th k-point nmo = 22 (0.09213,-0.09213,-0.64490) ==
 == 14-th k-point nmo = 22 (0.18426,0.00000,-0.73703) ==
 == 15-th k-point nmo = 22 (0.27639,0.09213,-0.82916) ==
 == 16-th k-point nmo = 22 (0.36851,0.18426,-0.92129) ==
 == 17-th k-point nmo = 22 (0.46064,0.27639,-1.01341) ==
 == 18-th k-point nmo = 22 (-0.18426,-0.55277,-0.18426) ==
 == 19-th k-point nmo = 22 (-0.09213,-0.46064,-0.27639) ==
 == 20-th k-point nmo = 22 (-0.00000,-0.36851,-0.36851) ==
 == 21-th k-point nmo = 22 (0.09213,-0.27639,-0.46064) ==
 == 22-th k-point nmo = 22 (0.18426,-0.18426,-0.55277) ==
 == 23-th k-point nmo = 22 (0.27639,-0.09213,-0.64490) ==
 == 24-th k-point nmo = 22 (0.36851,0.00000,-0.73703) ==
 == 25-th k-point nmo = 22 (0.46064,0.09213,-0.82916) ==
 == 26-th k-point nmo = 22 (0.55277,0.18426,-0.92129) ==
 == 27-th k-point nmo = 22 (-0.09213,-0.64490,-0.09213) ==
 == 28-th k-point nmo = 22 (-0.00000,-0.55277,-0.18426) ==
 == 29-th k-point nmo = 22 (0.09213,-0.46064,-0.27639) ==
 == 30-th k-point nmo = 22 (0.18426,-0.36851,-0.36851) ==
 == 31-th k-point nmo = 22 (0.27639,-0.27639,-0.46064) ==
 == 32-th k-point nmo = 22 (0.36851,-0.18426,-0.55277) ==
 == 33-th k-point nmo = 22 (0.46064,-0.09213,-0.64490) ==
 == 34-th k-point nmo = 22 (0.55277,0.00000,-0.73703) ==
 == 35-th k-point nmo = 22 (0.64490,0.09213,-0.82916) ==
 == 36-th k-point nmo = 22 (0.00000,-0.73703,-0.00000) ==
 == 37-th k-point nmo = 22 (0.09213,-0.64490,-0.09213) ==
 == 38-th k-point nmo = 22 (0.18426,-0.55277,-0.18426) ==
 == 39-th k-point nmo = 22 (0.27639,-0.46064,-0.27639) ==
 == 40-th k-point nmo = 22 (0.36851,-0.36851,-0.36851) ==
 == 41-th k-point nmo = 22 (0.46064,-0.27639,-0.46064) ==
 == 42-th k-point nmo = 22 (0.55277,-0.18426,-0.55277) ==
 == 43-th k-point nmo = 22 (0.64490,-0.09213,-0.64490) ==
 == 44-th k-point nmo = 22 (0.73703,0.00000,-0.73703) ==
 == 45-th k-point nmo = 22 (0.09213,-0.82916,0.09213) ==
 == 46-th k-point nmo = 22 (0.18426,-0.73703,-0.00000) ==
 == 47-th k-point nmo = 22 (0.27639,-0.64490,-0.09213) ==
 == 48-th k-point nmo = 22 (0.36851,-0.55277,-0.18426) ==
 == 49-th k-point nmo = 22 (0.46064,-0.46064,-0.27639) ==
 == 50-th k-point nmo = 22 (0.55277,-0.36851,-0.36851) ==
 == 51-th k-point nmo = 22 (0.64490,-0.27639,-0.46064) ==
 == 52-th k-point nmo = 22 (0.73703,-0.18426,-0.55277) ==
 == 53-th k-point nmo = 22 (0.82916,-0.09213,-0.64490) ==
 == 54-th k-point nmo = 22 (0.18426,-0.92129,0.18426) ==
 == 55-th k-point nmo = 22 (0.27639,-0.82916,0.09213) ==
 == 56-th k-point nmo = 22 (0.36851,-0.73703,-0.00000) ==
 == 57-th k-point nmo = 22 (0.46064,-0.64490,-0.09213) ==
 == 58-th k-point nmo = 22 (0.55277,-0.55277,-0.18426) ==
 == 59-th k-point nmo = 22 (0.64490,-0.46064,-0.27639) ==
 == 60-th k-point nmo = 22 (0.73703,-0.36851,-0.36851) ==
 == 61-th k-point nmo = 22 (0.82916,-0.27639,-0.46064) ==
 == 62-th k-point nmo = 22 (0.92129,-0.18426,-0.55277) ==
 == 63-th k-point nmo = 22 (0.27639,-1.01341,0.27639) ==
 == 64-th k-point nmo = 22 (0.36851,-0.92129,0.18426) ==
 == 65-th k-point nmo = 22 (0.46064,-0.82916,0.09213) ==
 == 66-th k-point nmo = 22 (0.55277,-0.73703,-0.00000) ==
 == 67-th k-point nmo = 22 (0.64490,-0.64490,-0.09213) ==
 == 68-th k-point nmo = 22 (0.73703,-0.55277,-0.18426) ==
 == 69-th k-point nmo = 22 (0.82916,-0.46064,-0.27639) ==
 == 70-th k-point nmo = 22 (0.92129,-0.36851,-0.36851) ==
 == 71-th k-point nmo = 22 (1.01341,-0.27639,-0.46064) ==
 == 72-th k-point nmo = 22 (0.36851,-1.10554,0.36851) ==
 == 73-th k-point nmo = 22 (0.46064,-1.01341,0.27639) ==
 == 74-th k-point nmo = 22 (0.55277,-0.92129,0.18426) ==
 == 75-th k-point nmo = 22 (0.64490,-0.82916,0.09213) ==
 == 76-th k-point nmo = 22 (0.73703,-0.73703,-0.00000) ==
 == 77-th k-point nmo = 22 (0.82916,-0.64490,-0.09213) ==
 == 78-th k-point nmo = 22 (0.92129,-0.55277,-0.18426) ==
 == 79-th k-point nmo = 22 (1.01341,-0.46064,-0.27639) ==
 == 80-th k-point nmo = 22 (1.10554,-0.36851,-0.36851) ==
 == 81-th k-point nmo = 22 (-0.46064,-0.27639,-0.27639) ==
 == 82-th k-point nmo = 22 (-0.36851,-0.18426,-0.36851) ==
 == 83-th k-point nmo = 22 (-0.27639,-0.09213,-0.46064) ==
 == 84-th k-point nmo = 22 (-0.18426,0.00000,-0.55277) ==
 == 85-th k-point nmo = 22 (-0.09213,0.09213,-0.64490) ==
 == 86-th k-point nmo = 22 (-0.00000,0.18426,-0.73703) ==
 == 87-th k-point nmo = 22 (0.09213,0.27639,-0.82916) ==
 == 88-th k-point nmo = 22 (0.18426,0.36851,-0.92129) ==
 == 89-th k-point nmo = 22 (0.27639,0.46064,-1.01341) ==
 == 90-th k-point nmo = 22 (-0.36851,-0.36851,-0.18426) ==
 == 91-th k-point nmo = 22 (-0.27639,-0.27639,-0.27639) ==
 == 92-th k-point nmo = 22 (-0.18426,-0.18426,-0.36851) ==
 == 93-th k-point nmo = 22 (-0.09213,-0.09213,-0.46064) ==
 == 94-th k-point nmo = 22 (-0.00000,0.00000,-0.55277) ==
 == 95-th k-point nmo = 22 (0.09213,0.09213,-0.64490) ==
 == 96-th k-point nmo = 22 (0.18426,0.18426,-0.73703) ==
 == 97-th k-point nmo = 22 (0.27639,0.27639,-0.82916) ==
 == 98-th k-point nmo = 22 (0.36851,0.36851,-0.92129) ==
 == 99-th k-point nmo = 22 (-0.27639,-0.46064,-0.09213) ==
 == 100-th k-point nmo = 22 (-0.18426,-0.36851,-0.18426) ==
 == 101-th k-point nmo = 22 (-0.09213,-0.27639,-0.27639) ==
 == 102-th k-point nmo = 22 (-0.00000,-0.18426,-0.36851) ==
 == 103-th k-point nmo = 22 (0.09213,-0.09213,-0.46064) ==
 == 104-th k-point nmo = 22 (0.18426,0.00000,-0.55277) ==
 == 105-th k-point nmo = 22 (0.27639,0.09213,-0.64490) ==
 == 106-th k-point nmo = 22 (0.36851,0.18426,-0.73703) ==
 == 107-th k-point nmo = 22 (0.46064,0.27639,-0.82916) ==
 == 108-th k-point nmo = 22 (-0.18426,-0.55277,-0.00000) ==
 == 109-th k-point nmo = 22 (-0.09213,-0.46064,-0.09213) ==
 == 110-th k-point nmo = 22 (-0.00000,-0.36851,-0.18426) ==
 == 111-th k-point nmo = 22 (0.09213,-0.27639,-0.27639) ==
 == 112-th k-point nmo = 22 (0.18426,-0.18426,-0.36851) ==
 == 113-th k-point nmo = 22 (0.27639,-0.09213,-0.46064) ==
 == 114-th k-point nmo = 22 (0.36851,0.00000,-0.55277) ==
 == 115-th k-point nmo = 22 (0.46064,0.09213,-0.64490) ==
 == 116-th k-point nmo = 22 (0.55277,0.18426,-0.73703) ==
 == 117-th k-point nmo = 22 (-0.09213,-0.64490,0.09213) ==
 == 118-th k-point nmo = 22 (-0.00000,-0.55277,-0.00000) ==
 == 119-th k-point nmo = 22 (0.09213,-0.46064,-0.09213) ==
 == 120-th k-point nmo = 22 (0.18426,-0.36851,-0.18426) ==
 == 121-th k-point nmo = 22 (0.27639,-0.27639,-0.27639) ==
 == 122-th k-point nmo = 22 (0.36851,-0.18426,-0.36851) ==
 == 123-th k-point nmo = 22 (0.46064,-0.09213,-0.46064) ==
 == 124-th k-point nmo = 22 (0.55277,0.00000,-0.55277) ==
 == 125-th k-point nmo = 22 (0.64490,0.09213,-0.64490) ==
 == 126-th k-point nmo = 22 (0.00000,-0.73703,0.18426) ==
 == 127-th k-point nmo = 22 (0.09213,-0.64490,0.09213) ==
 == 128-th k-point nmo = 22 (0.18426,-0.55277,-0.00000) ==
 == 129-th k-point nmo = 22 (0.27639,-0.46064,-0.09213) ==
 == 130-th k-point nmo = 22 (0.36851,-0.36851,-0.18426) ==
 == 131-th k-point nmo = 22 (0.46064,-0.27639,-0.27639) ==
 == 132-th k-point nmo = 22 (0.55277,-0.18426,-0.36851) ==
 == 133-th k-point nmo = 22 (0.64490,-0.09213,-0.46064) ==
 == 134-th k-point nmo = 22 (0.73703,0.00000,-0.55277) ==
 == 135-th k-point nmo = 22 (0.09213,-0.82916,0.27639) ==
 == 136-th k-point nmo = 22 (0.18426,-0.73703,0.18426) ==
 == 137-th k-point nmo = 22 (0.27639,-0.64490,0.09213) ==
 == 138-th k-point nmo = 22 (0.36851,-0.55277,-0.00000) ==
 == 139-th k-point nmo = 22 (0.46064,-0.46064,-0.09213) ==
 == 140-th k-point nmo = 22 (0.55277,-0.36851,-0.18426) ==
 == 141-th k-point nmo = 22 (0.64490,-0.27639,-0.27639) ==
 == 142-th k-point nmo = 22 (0.73703,-0.18426,-0.36851) ==
 == 143-th k-point nmo = 22 (0.82916,-0.09213,-0.46064) ==
 == 144-th k-point nmo = 22 (0.18426,-0.92129,0.36851) ==
 == 145-th k-point nmo = 22 (0.27639,-0.82916,0.27639) ==
 == 146-th k-point nmo = 22 (0.36851,-0.73703,0.18426) ==
 == 147-th k-point nmo = 22 (0.46064,-0.64490,0.09213) ==
 == 148-th k-point nmo = 22 (0.55277,-0.55277,-0.00000) ==
 == 149-th k-point nmo = 22 (0.64490,-0.46064,-0.09213) ==
 == 150-th k-point nmo = 22 (0.73703,-0.36851,-0.18426) ==
 == 151-th k-point nmo = 22 (0.82916,-0.27639,-0.27639) ==
 == 152-th k-point nmo = 22 (0.92129,-0.18426,-0.36851) ==
 == 153-th k-point nmo = 22 (0.27639,-1.01341,0.46064) ==
 == 154-th k-point nmo = 22 (0.36851,-0.92129,0.36851) ==
 == 155-th k-point nmo = 22 (0.46064,-0.82916,0.27639) ==
 == 156-th k-point nmo = 22 (0.55277,-0.73703,0.18426) ==
 == 157-th k-point nmo = 22 (0.64490,-0.64490,0.09213) ==
 == 158-th k-point nmo = 22 (0.73703,-0.55277,-0.00000) ==
 == 159-th k-point nmo = 22 (0.82916,-0.46064,-0.09213) ==
 == 160-th k-point nmo = 22 (0.92129,-0.36851,-0.18426) ==
 == 161-th k-point nmo = 22 (1.01341,-0.27639,-0.27639) ==
 == 162-th k-point nmo = 22 (-0.55277,-0.18426,-0.18426) ==
 == 163-th k-point nmo = 22 (-0.46064,-0.09213,-0.27639) ==
 == 164-th k-point nmo = 22 (-0.36851,0.00000,-0.36851) ==
 == 165-th k-point nmo = 22 (-0.27639,0.09213,-0.46064) ==
 == 166-th k-point nmo = 22 (-0.18426,0.18426,-0.55277) ==
 == 167-th k-point nmo = 22 (-0.09213,0.27639,-0.64490) ==
 == 168-th k-point nmo = 22 (-0.00000,0.36851,-0.73703) ==
 == 169-th k-point nmo = 22 (0.09213,0.46064,-0.82916) ==
 == 170-th k-point nmo = 22 (0.18426,0.55277,-0.92129) ==
 == 171-th k-point nmo = 22 (-0.46064,-0.27639,-0.09213) ==
 == 172-th k-point nmo = 22 (-0.36851,-0.18426,-0.18426) ==
 == 173-th k-point nmo = 22 (-0.27639,-0.09213,-0.27639) ==
 == 174-th k-point nmo = 22 (-0.18426,0.00000,-0.36851) ==
 == 175-th k-point nmo = 22 (-0.09213,0.09213,-0.46064) ==
 == 176-th k-point nmo = 22 (-0.00000,0.18426,-0.55277) ==
 == 177-th k-point nmo = 22 (0.09213,0.27639,-0.64490) ==
 == 178-th k-point nmo = 22 (0.18426,0.36851,-0.73703) ==
 == 179-th k-point nmo = 22 (0.27639,0.46064,-0.82916) ==
 == 180-th k-point nmo = 22 (-0.36851,-0.36851,-0.00000) ==
 == 181-th k-point nmo = 22 (-0.27639,-0.27639,-0.09213) ==
 == 182-th k-point nmo = 22 (-0.18426,-0.18426,-0.18426) ==
 == 183-th k-point nmo = 22 (-0.09213,-0.09213,-0.27639) ==
 == 184-th k-point nmo = 22 (-0.00000,0.00000,-0.36851) ==
 == 185-th k-point nmo = 22 (0.09213,0.09213,-0.46064) ==
 == 186-th k-point nmo = 22 (0.18426,0.18426,-0.55277) ==
 == 187-th k-point nmo = 22 (0.27639,0.27639,-0.64490) ==
 == 188-th k-point nmo = 22 (0.36851,0.36851,-0.73703) ==
 == 189-th k-point nmo = 22 (-0.27639,-0.46064,0.09213) ==
 == 190-th k-point nmo = 22 (-0.18426,-0.36851,-0.00000) ==
 == 191-th k-point nmo = 22 (-0.09213,-0.27639,-0.09213) ==
 == 192-th k-point nmo = 22 (-0.00000,-0.18426,-0.18426) ==
 == 193-th k-point nmo = 22 (0.09213,-0.09213,-0.27639) ==
 == 194-th k-point nmo = 22 (0.18426,0.00000,-0.36851) ==
 == 195-th k-point nmo = 22 (0.27639,0.09213,-0.46064) ==
 == 196-th k-point nmo = 22 (0.36851,0.18426,-0.55277) ==
 == 197-th k-point nmo = 22 (0.46064,0.27639,-0.64490) ==
 == 198-th k-point nmo = 22 (-0.18426,-0.55277,0.18426) ==
 == 199-th k-point nmo = 22 (-0.09213,-0.46064,0.09213) ==
 == 200-th k-point nmo = 22 (0.00000,-0.36851,-0.00000) ==
 == 201-th k-point nmo = 22 (0.09213,-0.27639,-0.09213) ==
 == 202-th k-point nmo = 22 (0.18426,-0.18426,-0.18426) ==
 == 203-th k-point nmo = 22 (0.27639,-0.09213,-0.27639) ==
 == 204-th k-point nmo = 22 (0.36851,0.00000,-0.36851) ==
 == 205-th k-point nmo = 22 (0.46064,0.09213,-0.46064) ==
 == 206-th k-point nmo = 22 (0.55277,0.18426,-0.55277) ==
 == 207-th k-point nmo = 22 (-0.09213,-0.64490,0.27639) ==
 == 208-th k-point nmo = 22 (0.00000,-0.55277,0.18426) ==
 == 209-th k-point nmo = 22 (0.09213,-0.46064,0.09213) ==
 == 210-th k-point nmo = 22 (0.18426,-0.36851,-0.00000) ==
 == 211-th k-point nmo = 22 (0.27639,-0.27639,-0.09213) ==
 == 212-th k-point nmo = 22 (0.36851,-0.18426,-0.18426) ==
 == 213-th k-point nmo = 22 (0.46064,-0.09213,-0.27639) ==
 == 214-th k-point nmo = 22 (0.55277,0.00000,-0.36851) ==
 == 215-th k-point nmo = 22 (0.64490,0.09213,-0.46064) ==
 == 216-th k-point nmo = 22 (0.00000,-0.73703,0.36851) ==
 == 217-th k-point nmo = 22 (0.09213,-0.64490,0.27639) ==
 == 218-th k-point nmo = 22 (0.18426,-0.55277,0.18426) ==
 == 219-th k-point nmo = 22 (0.27639,-0.46064,0.09213) ==
 == 220-th k-point nmo = 22 (0.36851,-0.36851,-0.00000) ==
 == 221-th k-point nmo = 22 (0.46064,-0.27639,-0.09213) ==
 == 222-th k-point nmo = 22 (0.55277,-0.18426,-0.18426) ==
 == 223-th k-point nmo = 22 (0.64490,-0.09213,-0.27639) ==
 == 224-th k-point nmo = 22 (0.73703,0.00000,-0.36851) ==
 == 225-th k-point nmo = 22 (0.09213,-0.82916,0.46064) ==
 == 226-th k-point nmo = 22 (0.18426,-0.73703,0.36851) ==
 == 227-th k-point nmo = 22 (0.27639,-0.64490,0.27639) ==
 == 228-th k-point nmo = 22 (0.36851,-0.55277,0.18426) ==
 == 229-th k-point nmo = 22 (0.46064,-0.46064,0.09213) ==
 == 230-th k-point nmo = 22 (0.55277,-0.36851,-0.00000) ==
 == 231-th k-point nmo = 22 (0.64490,-0.27639,-0.09213) ==
 == 232-th k-point nmo = 22 (0.73703,-0.18426,-0.18426) ==
 == 233-th k-point nmo = 22 (0.82916,-0.09213,-0.27639) ==
 == 234-th k-point nmo = 22 (0.18426,-0.92129,0.55277) ==
 == 235-th k-point nmo = 22 (0.27639,-0.82916,0.46064) ==
 == 236-th k-point nmo = 22 (0.36851,-0.73703,0.36851) ==
 == 237-th k-point nmo = 22 (0.46064,-0.64490,0.27639) ==
 == 238-th k-point nmo = 22 (0.55277,-0.55277,0.18426) ==
 == 239-th k-point nmo = 22 (0.64490,-0.46064,0.09213) ==
 == 240-th k-point nmo = 22 (0.73703,-0.36851,-0.00000) ==
 == 241-th k-point nmo = 22 (0.82916,-0.27639,-0.09213) ==
 == 242-th k-point nmo = 22 (0.92129,-0.18426,-0.18426) ==
 == 243-th k-point nmo = 22 (-0.64490,-0.09213,-0.09213) ==
 == 244-th k-point nmo = 22 (-0.55277,0.00000,-0.18426) ==
 == 245-th k-point nmo = 22 (-0.46064,0.09213,-0.27639) ==
 == 246-th k-point nmo = 22 (-0.36851,0.18426,-0.36851) ==
 == 247-th k-point nmo = 22 (-0.27639,0.27639,-0.46064) ==
 == 248-th k-point nmo = 22 (-0.18426,0.36851,-0.55277) ==
 == 249-th k-point nmo = 22 (-0.09213,0.46064,-0.64490) ==
 == 250-th k-point nmo = 22 (-0.00000,0.55277,-0.73703) ==
 == 251-th k-point nmo = 22 (0.09213,0.64490,-0.82916) ==
 == 252-th k-point nmo = 22 (-0.55277,-0.18426,-0.00000) ==
 == 253-th k-point nmo = 22 (-0.46064,-0.09213,-0.09213) ==
 == 254-th k-point nmo = 22 (-0.36851,0.00000,-0.18426) ==
 == 255-th k-point nmo = 22 (-0.27639,0.09213,-0.27639) ==
 == 256-th k-point nmo = 22 (-0.18426,0.18426,-0.36851) ==
 == 257-th k-point nmo = 22 (-0.09213,0.27639,-0.46064) ==
 == 258-th k-point nmo = 22 (-0.00000,0.36851,-0.55277) ==
 == 259-th k-point nmo = 22 (0.09213,0.46064,-0.64490) ==
 == 260-th k-point nmo = 22 (0.18426,0.55277,-0.73703) ==
 == 261-th k-point nmo = 22 (-0.46064,-0.27639,0.09213) ==
 == 262-th k-point nmo = 22 (-0.36851,-0.18426,-0.00000) ==
 == 263-th k-point nmo = 22 (-0.27639,-0.09213,-0.09213) ==
 == 264-th k-point nmo = 22 (-0.18426,0.00000,-0.18426) ==
 == 265-th k-point nmo = 22 (-0.09213,0.09213,-0.27639) ==
 == 266-th k-point nmo = 22 (-0.00000,0.18426,-0.36851) ==
 == 267-th k-point nmo = 22 (0.09213,0.27639,-0.46064) ==
 == 268-th k-point nmo = 22 (0.18426,0.36851,-0.55277) ==
 == 269-th k-point nmo = 22 (0.27639,0.46064,-0.64490) ==
 == 270-th k-point nmo = 22 (-0.36851,-0.36851,0.18426) ==
 == 271-th k-point nmo = 22 (-0.27639,-0.27639,0.09213) ==
 == 272-th k-point nmo = 22 (-0.18426,-0.18426,-0.00000) ==
 == 273-th k-point nmo = 22 (-0.09213,-0.09213,-0.09213) ==
 == 274-th k-point nmo = 22 (-0.00000,0.00000,-0.18426) ==
 == 275-th k-point nmo = 22 (0.09213,0.09213,-0.27639) ==
 == 276-th k-point nmo = 22 (0.18426,0.18426,-0.36851) ==
 == 277-th k-point nmo = 22 (0.27639,0.27639,-0.46064) ==
 == 278-th k-point nmo = 22 (0.36851,0.36851,-0.55277) ==
 == 279-th k-point nmo = 22 (-0.27639,-0.46064,0.27639) ==
 == 280-th k-point nmo = 22 (-0.18426,-0.36851,0.18426) ==
 == 281-th k-point nmo = 22 (-0.09213,-0.27639,0.09213) ==
 == 282-th k-point nmo = 22 (0.00000,-0.18426,-0.00000) ==
 == 283-th k-point nmo = 22 (0.09213,-0.09213,-0.09213) ==
 == 284-th k-point nmo = 22 (0.18426,0.00000,-0.18426) ==
 == 285-th k-point nmo = 22 (0.27639,0.09213,-0.27639) ==
 == 286-th k-point nmo = 22 (0.36851,0.18426,-0.36851) ==
 == 287-th k-point nmo = 22 (0.46064,0.27639,-0.46064) ==
 == 288-th k-point nmo = 22 (-0.18426,-0.55277,0.36851) ==
 == 289-th k-point nmo = 22 (-0.09213,-0.46064,0.27639) ==
 == 290-th k-point nmo = 22 (0.00000,-0.36851,0.18426) ==
 == 291-th k-point nmo = 22 (0.09213,-0.27639,0.09213) ==
 == 292-th k-point nmo = 22 (0.18426,-0.18426,-0.00000) ==
 == 293-th k-point nmo = 22 (0.27639,-0.09213,-0.09213) ==
 == 294-th k-point nmo = 22 (0.36851,0.00000,-0.18426) ==
 == 295-th k-point nmo = 22 (0.46064,0.09213,-0.27639) ==
 == 296-th k-point nmo = 22 (0.55277,0.18426,-0.36851) ==
 == 297-th k-point nmo = 22 (-0.09213,-0.64490,0.46064) ==
 == 298-th k-point nmo = 22 (0.00000,-0.55277,0.36851) ==
 == 299-th k-point nmo = 22 (0.09213,-0.46064,0.27639) ==
 == 300-th k-point nmo = 22 (0.18426,-0.36851,0.18426) ==
 == 301-th k-point nmo = 22 (0.27639,-0.27639,0.09213) ==
 == 302-th k-point nmo = 22 (0.36851,-0.18426,-0.00000) ==
 == 303-th k-point nmo = 22 (0.46064,-0.09213,-0.09213) ==
 == 304-th k-point nmo = 22 (0.55277,0.00000,-0.18426) ==
 == 305-th k-point nmo = 22 (0.64490,0.09213,-0.27639) ==
 == 306-th k-point nmo = 22 (0.00000,-0.73703,0.55277) ==
 == 307-th k-point nmo = 22 (0.09213,-0.64490,0.46064) ==
 == 308-th k-point nmo = 22 (0.18426,-0.55277,0.36851) ==
 == 309-th k-point nmo = 22 (0.27639,-0.46064,0.27639) ==
 == 310-th k-point nmo = 22 (0.36851,-0.36851,0.18426) ==
 == 311-th k-point nmo = 22 (0.46064,-0.27639,0.09213) ==
 == 312-th k-point nmo = 22 (0.55277,-0.18426,-0.00000) ==
 == 313-th k-point nmo = 22 (0.64490,-0.09213,-0.09213) ==
 == 314-th k-point nmo = 22 (0.73703,0.00000,-0.18426) ==
 == 315-th k-point nmo = 22 (0.09213,-0.82916,0.64490) ==
 == 316-th k-point nmo = 22 (0.18426,-0.73703,0.55277) ==
 == 317-th k-point nmo = 22 (0.27639,-0.64490,0.46064) ==
 == 318-th k-point nmo = 22 (0.36851,-0.55277,0.36851) ==
 == 319-th k-point nmo = 22 (0.46064,-0.46064,0.27639) ==
 == 320-th k-point nmo = 22 (0.55277,-0.36851,0.18426) ==
 == 321-th k-point nmo = 22 (0.64490,-0.27639,0.09213) ==
 == 322-th k-point nmo = 22 (0.73703,-0.18426,-0.00000) ==
 == 323-th k-point nmo = 22 (0.82916,-0.09213,-0.09213) ==
 == 324-th k-point nmo = 22 (-0.73703,0.00000,0.00000) ==
 == 325-th k-point nmo = 22 (-0.64490,0.09213,-0.09213) ==
 == 326-th k-point nmo = 22 (-0.55277,0.18426,-0.18426) ==
 == 327-th k-point nmo = 22 (-0.46064,0.27639,-0.27639) ==
 == 328-th k-point nmo = 22 (-0.36851,0.36851,-0.36851) ==
 == 329-th k-point nmo = 22 (-0.27639,0.46064,-0.46064) ==
 == 330-th k-point nmo = 22 (-0.18426,0.55277,-0.55277) ==
 == 331-th k-point nmo = 22 (-0.09213,0.64490,-0.64490) ==
 == 332-th k-point nmo = 22 (-0.00000,0.73703,-0.73703) ==
 == 333-th k-point nmo = 22 (-0.64490,-0.09213,0.09213) ==
 == 334-th k-point nmo = 22 (-0.55277,0.00000,0.00000) ==
 == 335-th k-point nmo = 22 (-0.46064,0.09213,-0.09213) ==
 == 336-th k-point nmo = 22 (-0.36851,0.18426,-0.18426) ==
 == 337-th k-point nmo = 22 (-0.27639,0.27639,-0.27639) ==
 == 338-th k-point nmo = 22 (-0.18426,0.36851,-0.36851) ==
 == 339-th k-point nmo = 22 (-0.09213,0.46064,-0.46064) ==
 == 340-th k-point nmo = 22 (-0.00000,0.55277,-0.55277) ==
 == 341-th k-point nmo = 22 (0.09213,0.64490,-0.64490) ==
 == 342-th k-point nmo = 22 (-0.55277,-0.18426,0.18426) ==
 == 343-th k-point nmo = 22 (-0.46064,-0.09213,0.09213) ==
 == 344-th k-point nmo = 22 (-0.36851,0.00000,0.00000) ==
 == 345-th k-point nmo = 22 (-0.27639,0.09213,-0.09213) ==
 == 346-th k-point nmo = 22 (-0.18426,0.18426,-0.18426) ==
 == 347-th k-point nmo = 22 (-0.09213,0.27639,-0.27639) ==
 == 348-th k-point nmo = 22 (-0.00000,0.36851,-0.36851) ==
 == 349-th k-point nmo = 22 (0.09213,0.46064,-0.46064) ==
 == 350-th k-point nmo = 22 (0.18426,0.55277,-0.55277) ==
 == 351-th k-point nmo = 22 (-0.46064,-0.27639,0.27639) ==
 == 352-th k-point nmo = 22 (-0.36851,-0.18426,0.18426) ==
 == 353-th k-point nmo = 22 (-0.27639,-0.09213,0.09213) ==
 == 354-th k-point nmo = 22 (-0.18426,0.00000,0.00000) ==
 == 355-th k-point nmo = 22 (-0.09213,0.09213,-0.09213) ==
 == 356-th k-point nmo = 22 (-0.00000,0.18426,-0.18426) ==
 == 357-th k-point nmo = 22 (0.09213,0.27639,-0.27639) ==
 == 358-th k-point nmo = 22 (0.18426,0.36851,-0.36851) ==
 == 359-th k-point nmo = 22 (0.27639,0.46064,-0.46064) ==
 == 360-th k-point nmo = 22 (-0.36851,-0.36851,0.36851) ==
 == 361-th k-point nmo = 22 (-0.27639,-0.27639,0.27639) ==
 == 362-th k-point nmo = 22 (-0.18426,-0.18426,0.18426) ==
 == 363-th k-point nmo = 22 (-0.09213,-0.09213,0.09213) ==
 == 364-th k-point nmo = 22 (0.00000,0.00000,0.00000) ==
 == 365-th k-point nmo = 22 (0.09213,0.09213,-0.09213) ==
 == 366-th k-point nmo = 22 (0.18426,0.18426,-0.18426) ==
 == 367-th k-point nmo = 22 (0.27639,0.27639,-0.27639) ==
 == 368-th k-point nmo = 22 (0.36851,0.36851,-0.36851) ==
 == 369-th k-point nmo = 22 (-0.27639,-0.46064,0.46064) ==
 == 370-th k-point nmo = 22 (-0.18426,-0.36851,0.36851) ==
 == 371-th k-point nmo = 22 (-0.09213,-0.27639,0.27639) ==
 == 372-th k-point nmo = 22 (0.00000,-0.18426,0.18426) ==
 == 373-th k-point nmo = 22 (0.09213,-0.09213,0.09213) ==
 == 374-th k-point nmo = 22 (0.18426,-0.00000,0.00000) ==
 == 375-th k-point nmo = 22 (0.27639,0.09213,-0.09213) ==
 == 376-th k-point nmo = 22 (0.36851,0.18426,-0.18426) ==
 == 377-th k-point nmo = 22 (0.46064,0.27639,-0.27639) ==
 == 378-th k-point nmo = 22 (-0.18426,-0.55277,0.55277) ==
 == 379-th k-point nmo = 22 (-0.09213,-0.46064,0.46064) ==
 == 380-th k-point nmo = 22 (0.00000,-0.36851,0.36851) ==
 == 381-th k-point nmo = 22 (0.09213,-0.27639,0.27639) ==
 == 382-th k-point nmo = 22 (0.18426,-0.18426,0.18426) ==
 == 383-th k-point nmo = 22 (0.27639,-0.09213,0.09213) ==
 == 384-th k-point nmo = 22 (0.36851,-0.00000,0.00000) ==
 == 385-th k-point nmo = 22 (0.46064,0.09213,-0.09213) ==
 == 386-th k-point nmo = 22 (0.55277,0.18426,-0.18426) ==
 == 387-th k-point nmo = 22 (-0.09213,-0.64490,0.64490) ==
 == 388-th k-point nmo = 22 (0.00000,-0.55277,0.55277) ==
 == 389-th k-point nmo = 22 (0.09213,-0.46064,0.46064) ==
 == 390-th k-point nmo = 22 (0.18426,-0.36851,0.36851) ==
 == 391-th k-point nmo = 22 (0.27639,-0.27639,0.27639) ==
 == 392-th k-point nmo = 22 (0.36851,-0.18426,0.18426) ==
 == 393-th k-point nmo = 22 (0.46064,-0.09213,0.09213) ==
 == 394-th k-point nmo = 22 (0.55277,-0.00000,0.00000) ==
 == 395-th k-point nmo = 22 (0.64490,0.09213,-0.09213) ==
 == 396-th k-point nmo = 22 (0.00000,-0.73703,0.73703) ==
 == 397-th k-point nmo = 22 (0.09213,-0.64490,0.64490) ==
 == 398-th k-point nmo = 22 (0.18426,-0.55277,0.55277) ==
 == 399-th k-point nmo = 22 (0.27639,-0.46064,0.46064) ==
 == 400-th k-point nmo = 22 (0.36851,-0.36851,0.36851) ==
 == 401-th k-point nmo = 22 (0.46064,-0.27639,0.27639) ==
 == 402-th k-point nmo = 22 (0.55277,-0.18426,0.18426) ==
 == 403-th k-point nmo = 22 (0.64490,-0.09213,0.09213) ==
 == 404-th k-point nmo = 22 (0.73703,-0.00000,0.00000) ==
 == 405-th k-point nmo = 22 (-0.82916,0.09213,0.09213) ==
 == 406-th k-point nmo = 22 (-0.73703,0.18426,0.00000) ==
 == 407-th k-point nmo = 22 (-0.64490,0.27639,-0.09213) ==
 == 408-th k-point nmo = 22 (-0.55277,0.36851,-0.18426) ==
 == 409-th k-point nmo = 22 (-0.46064,0.46064,-0.27639) ==
 == 410-th k-point nmo = 22 (-0.36851,0.55277,-0.36851) ==
 == 411-th k-point nmo = 22 (-0.27639,0.64490,-0.46064) ==
 == 412-th k-point nmo = 22 (-0.18426,0.73703,-0.55277) ==
 == 413-th k-point nmo = 22 (-0.09213,0.82916,-0.64490) ==
 == 414-th k-point nmo = 22 (-0.73703,0.00000,0.18426) ==
 == 415-th k-point nmo = 22 (-0.64490,0.09213,0.09213) ==
 == 416-th k-point nmo = 22 (-0.55277,0.18426,0.00000) ==
 == 417-th k-point nmo = 22 (-0.46064,0.27639,-0.09213) ==
 == 418-th k-point nmo = 22 (-0.36851,0.36851,-0.18426) ==
 == 419-th k-point nmo = 22 (-0.27639,0.46064,-0.27639) ==
 == 420-th k-point nmo = 22 (-0.18426,0.55277,-0.36851) ==
 == 421-th k-point nmo = 22 (-0.09213,0.64490,-0.46064) ==
 == 422-th k-point nmo = 22 (-0.00000,0.73703,-0.55277) ==
 == 423-th k-point nmo = 22 (-0.64490,-0.09213,0.27639) ==
 == 424-th k-point nmo = 22 (-0.55277,0.00000,0.18426) ==
 == 425-th k-point nmo = 22 (-0.46064,0.09213,0.09213) ==
 == 426-th k-point nmo = 22 (-0.36851,0.18426,0.00000) ==
 == 427-th k-point nmo = 22 (-0.27639,0.27639,-0.09213) ==
 == 428-th k-point nmo = 22 (-0.18426,0.36851,-0.18426) ==
 == 429-th k-point nmo = 22 (-0.09213,0.46064,-0.27639) ==
 == 430-th k-point nmo = 22 (-0.00000,0.55277,-0.36851) ==
 == 431-th k-point nmo = 22 (0.09213,0.64490,-0.46064) ==
 == 432-th k-point nmo = 22 (-0.55277,-0.18426,0.36851) ==
 == 433-th k-point nmo = 22 (-0.46064,-0.09213,0.27639) ==
 == 434-th k-point nmo = 22 (-0.36851,-0.00000,0.18426) ==
 == 435-th k-point nmo = 22 (-0.27639,0.09213,0.09213) ==
 == 436-th k-point nmo = 22 (-0.18426,0.18426,0.00000) ==
 == 437-th k-point nmo = 22 (-0.09213,0.27639,-0.09213) ==
 == 438-th k-point nmo = 22 (-0.00000,0.36851,-0.18426) ==
 == 439-th k-point nmo = 22 (0.09213,0.46064,-0.27639) ==
 == 440-th k-point nmo = 22 (0.18426,0.55277,-0.36851) ==
 == 441-th k-point nmo = 22 (-0.46064,-0.27639,0.46064) ==
 == 442-th k-point nmo = 22 (-0.36851,-0.18426,0.36851) ==
 == 443-th k-point nmo = 22 (-0.27639,-0.09213,0.27639) ==
 == 444-th k-point nmo = 22 (-0.18426,-0.00000,0.18426) ==
 == 445-th k-point nmo = 22 (-0.09213,0.09213,0.09213) ==
 == 446-th k-point nmo = 22 (0.00000,0.18426,0.00000) ==
 == 447-th k-point nmo = 22 (0.09213,0.27639,-0.09213) ==
 == 448-th k-point nmo = 22 (0.18426,0.36851,-0.18426) ==
 == 449-th k-point nmo = 22 (0.27639,0.46064,-0.27639) ==
 == 450-th k-point nmo = 22 (-0.36851,-0.36851,0.55277) ==
 == 451-th k-point nmo = 22 (-0.27639,-0.27639,0.46064) ==
 == 452-th k-point nmo = 22 (-0.18426,-0.18426,0.36851) ==
 == 453-th k-point nmo = 22 (-0.09213,-0.09213,0.27639) ==
 == 454-th k-point nmo = 22 (0.00000,-0.00000,0.18426) ==
 == 455-th k-point nmo = 22 (0.09213,0.09213,0.09213) ==
 == 456-th k-point nmo = 22 (0.18426,0.18426,0.00000) ==
 == 457-th k-point nmo = 22 (0.27639,0.27639,-0.09213) ==
 == 458-th k-point nmo = 22 (0.36851,0.36851,-0.18426) ==
 == 459-th k-point nmo = 22 (-0.27639,-0.46064,0.64490) ==
 == 460-th k-point nmo = 22 (-0.18426,-0.36851,0.55277) ==
 == 461-th k-point nmo = 22 (-0.09213,-0.27639,0.46064) ==
 == 462-th k-point nmo = 22 (0.00000,-0.18426,0.36851) ==
 == 463-th k-point nmo = 22 (0.09213,-0.09213,0.27639) ==
 == 464-th k-point nmo = 22 (0.18426,-0.00000,0.18426) ==
 == 465-th k-point nmo = 22 (0.27639,0.09213,0.09213) ==
 == 466-th k-point nmo = 22 (0.36851,0.18426,0.00000) ==
 == 467-th k-point nmo = 22 (0.46064,0.27639,-0.09213) ==
 == 468-th k-point nmo = 22 (-0.18426,-0.55277,0.73703) ==
 == 469-th k-point nmo = 22 (-0.09213,-0.46064,0.64490) ==
 == 470-th k-point nmo = 22 (0.00000,-0.36851,0.55277) ==
 == 471-th k-point nmo = 22 (0.09213,-0.27639,0.46064) ==
 == 472-th k-point nmo = 22 (0.18426,-0.18426,0.36851) ==
 == 473-th k-point nmo = 22 (0.27639,-0.09213,0.27639) ==
 == 474-th k-point nmo = 22 (0.36851,-0.00000,0.18426) ==
 == 475-th k-point nmo = 22 (0.46064,0.09213,0.09213) ==
 == 476-th k-point nmo = 22 (0.55277,0.18426,0.00000) ==
 == 477-th k-point nmo = 22 (-0.09213,-0.64490,0.82916) ==
 == 478-th k-point nmo = 22 (0.00000,-0.55277,0.73703) ==
 == 479-th k-point nmo = 22 (0.09213,-0.46064,0.64490) ==
 == 480-th k-point nmo = 22 (0.18426,-0.36851,0.55277) ==
 == 481-th k-point nmo = 22 (0.27639,-0.27639,0.46064) ==
 == 482-th k-point nmo = 22 (0.36851,-0.18426,0.36851) ==
 == 483-th k-point nmo = 22 (0.46064,-0.09213,0.27639) ==
 == 484-th k-point nmo = 22 (0.55277,-0.00000,0.18426) ==
 == 485-th k-point nmo = 22 (0.64490,0.09213,0.09213) ==
 == 486-th k-point nmo = 22 (-0.92129,0.18426,0.18426) ==
 == 487-th k-point nmo = 22 (-0.82916,0.27639,0.09213) ==
 == 488-th k-point nmo = 22 (-0.73703,0.36851,0.00000) ==
 == 489-th k-point nmo = 22 (-0.64490,0.46064,-0.09213) ==
 == 490-th k-point nmo = 22 (-0.55277,0.55277,-0.18426) ==
 == 491-th k-point nmo = 22 (-0.46064,0.64490,-0.27639) ==
 == 492-th k-point nmo = 22 (-0.36851,0.73703,-0.36851) ==
 == 493-th k-point nmo = 22 (-0.27639,0.82916,-0.46064) ==
 == 494-th k-point nmo = 22 (-0.18426,0.92129,-0.55277) ==
 == 495-th k-point nmo = 22 (-0.82916,0.09213,0.27639) ==
 == 496-th k-point nmo = 22 (-0.73703,0.18426,0.18426) ==
 == 497-th k-point nmo = 22 (-0.64490,0.27639,0.09213) ==
 == 498-th k-point nmo = 22 (-0.55277,0.36851,0.00000) ==
 == 499-th k-point nmo = 22 (-0.46064,0.46064,-0.09213) ==
 == 500-th k-point nmo = 22 (-0.36851,0.55277,-0.18426) ==
 == 501-th k-point nmo = 22 (-0.27639,0.64490,-0.27639) ==
 == 502-th k-point nmo = 22 (-0.18426,0.73703,-0.36851) ==
 == 503-th k-point nmo = 22 (-0.09213,0.82916,-0.46064) ==
 == 504-th k-point nmo = 22 (-0.73703,-0.00000,0.36851) ==
 == 505-th k-point nmo = 22 (-0.64490,0.09213,0.27639) ==
 == 506-th k-point nmo = 22 (-0.55277,0.18426,0.18426) ==
 == 507-th k-point nmo = 22 (-0.46064,0.27639,0.09213) ==
 == 508-th k-point nmo = 22 (-0.36851,0.36851,0.00000) ==
 == 509-th k-point nmo = 22 (-0.27639,0.46064,-0.09213) ==
 == 510-th k-point nmo = 22 (-0.18426,0.55277,-0.18426) ==
 == 511-th k-point nmo = 22 (-0.09213,0.64490,-0.27639) ==
 == 512-th k-point nmo = 22 (-0.00000,0.73703,-0.36851) ==
 == 513-th k-point nmo = 22 (-0.64490,-0.09213,0.46064) ==
 == 514-th k-point nmo = 22 (-0.55277,0.00000,0.36851) ==
 == 515-th k-point nmo = 22 (-0.46064,0.09213,0.27639) ==
 == 516-th k-point nmo = 22 (-0.36851,0.18426,0.18426) ==
 == 517-th k-point nmo = 22 (-0.27639,0.27639,0.09213) ==
 == 518-th k-point nmo = 22 (-0.18426,0.36851,0.00000) ==
 == 519-th k-point nmo = 22 (-0.09213,0.46064,-0.09213) ==
 == 520-th k-point nmo = 22 (-0.00000,0.55277,-0.18426) ==
 == 521-th k-point nmo = 22 (0.09213,0.64490,-0.27639) ==
 == 522-th k-point nmo = 22 (-0.55277,-0.18426,0.55277) ==
 == 523-th k-point nmo = 22 (-0.46064,-0.09213,0.46064) ==
 == 524-th k-point nmo = 22 (-0.36851,-0.00000,0.36851) ==
 == 525-th k-point nmo = 22 (-0.27639,0.09213,0.27639) ==
 == 526-th k-point nmo = 22 (-0.18426,0.18426,0.18426) ==
 == 527-th k-point nmo = 22 (-0.09213,0.27639,0.09213) ==
 == 528-th k-point nmo = 22 (0.00000,0.36851,0.00000) ==
 == 529-th k-point nmo = 22 (0.09213,0.46064,-0.09213) ==
 == 530-th k-point nmo = 22 (0.18426,0.55277,-0.18426) ==
 == 531-th k-point nmo = 22 (-0.46064,-0.27639,0.64490) ==
 == 532-th k-point nmo = 22 (-0.36851,-0.18426,0.55277) ==
 == 533-th k-point nmo = 22 (-0.27639,-0.09213,0.46064) ==
 == 534-th k-point nmo = 22 (-0.18426,-0.00000,0.36851) ==
 == 535-th k-point nmo = 22 (-0.09213,0.09213,0.27639) ==
 == 536-th k-point nmo = 22 (0.00000,0.18426,0.18426) ==
 == 537-th k-point nmo = 22 (0.09213,0.27639,0.09213) ==
 == 538-th k-point nmo = 22 (0.18426,0.36851,0.00000) ==
 == 539-th k-point nmo = 22 (0.27639,0.46064,-0.09213) ==
 == 540-th k-point nmo = 22 (-0.36851,-0.36851,0.73703) ==
 == 541-th k-point nmo = 22 (-0.27639,-0.27639,0.64490) ==
 == 542-th k-point nmo = 22 (-0.18426,-0.18426,0.55277) ==
 == 543-th k-point nmo = 22 (-0.09213,-0.09213,0.46064) ==
 == 544-th k-point nmo = 22 (0.00000,-0.00000,0.36851) ==
 == 545-th k-point nmo = 22 (0.09213,0.09213,0.27639) ==
 == 546-th k-point nmo = 22 (0.18426,0.18426,0.18426) ==
 == 547-th k-point nmo = 22 (0.27639,0.27639,0.09213) ==
 == 548-th k-point nmo = 22 (0.36851,0.36851,0.00000) ==
 == 549-th k-point nmo = 22 (-0.27639,-0.46064,0.82916) ==
 == 550-th k-point nmo = 22 (-0.18426,-0.36851,0.73703) ==
 == 551-th k-point nmo = 22 (-0.09213,-0.27639,0.64490) ==
 == 552-th k-point nmo = 22 (0.00000,-0.18426,0.55277) ==
 == 553-th k-point nmo = 22 (0.09213,-0.09213,0.46064) ==
 == 554-th k-point nmo = 22 (0.18426,-0.00000,0.36851) ==
 == 555-th k-point nmo = 22 (0.27639,0.09213,0.27639) ==
 == 556-th k-point nmo = 22 (0.36851,0.18426,0.18426) ==
 == 557-th k-point nmo = 22 (0.46064,0.27639,0.09213) ==
 == 558-th k-point nmo = 22 (-0.18426,-0.55277,0.92129) ==
 == 559-th k-point nmo = 22 (-0.09213,-0.46064,0.82916) ==
 == 560-th k-point nmo = 22 (0.00000,-0.36851,0.73703) ==
 == 561-th k-point nmo = 22 (0.09213,-0.27639,0.64490) ==
 == 562-th k-point nmo = 22 (0.18426,-0.18426,0.55277) ==
 == 563-th k-point nmo = 22 (0.27639,-0.09213,0.46064) ==
 == 564-th k-point nmo = 22 (0.36851,-0.00000,0.36851) ==
 == 565-th k-point nmo = 22 (0.46064,0.09213,0.27639) ==
 == 566-th k-point nmo = 22 (0.55277,0.18426,0.18426) ==
 == 567-th k-point nmo = 22 (-1.01341,0.27639,0.27639) ==
 == 568-th k-point nmo = 22 (-0.92129,0.36851,0.18426) ==
 == 569-th k-point nmo = 22 (-0.82916,0.46064,0.09213) ==
 == 570-th k-point nmo = 22 (-0.73703,0.55277,0.00000) ==
 == 571-th k-point nmo = 22 (-0.64490,0.64490,-0.09213) ==
 == 572-th k-point nmo = 22 (-0.55277,0.73703,-0.18426) ==
 == 573-th k-point nmo = 22 (-0.46064,0.82916,-0.27639) ==
 == 574-th k-point nmo = 22 (-0.36851,0.92129,-0.36851) ==
 == 575-th k-point nmo = 22 (-0.27639,1.01341,-0.46064) ==
 == 576-th k-point nmo = 22 (-0.92129,0.18426,0.36851) ==
 == 577-th k-point nmo = 22 (-0.82916,0.27639,0.27639) ==
 == 578-th k-point nmo = 22 (-0.73703,0.36851,0.18426) ==
 == 579-th k-point nmo = 22 (-0.64490,0.46064,0.09213) ==
 == 580-th k-point nmo = 22 (-0.55277,0.55277,0.00000) ==
 == 581-th k-point nmo = 22 (-0.46064,0.64490,-0.09213) ==
 == 582-th k-point nmo = 22 (-0.36851,0.73703,-0.18426) ==
 == 583-th k-point nmo = 22 (-0.27639,0.82916,-0.27639) ==
 == 584-th k-point nmo = 22 (-0.18426,0.92129,-0.36851) ==
 == 585-th k-point nmo = 22 (-0.82916,0.09213,0.46064) ==
 == 586-th k-point nmo = 22 (-0.73703,0.18426,0.36851) ==
 == 587-th k-point nmo = 22 (-0.64490,0.27639,0.27639) ==
 == 588-th k-point nmo = 22 (-0.55277,0.36851,0.18426) ==
 == 589-th k-point nmo = 22 (-0.46064,0.46064,0.09213) ==
 == 590-th k-point nmo = 22 (-0.36851,0.55277,0.00000) ==
 == 591-th k-point nmo = 22 (-0.27639,0.64490,-0.09213) ==
 == 592-th k-point nmo = 22 (-0.18426,0.73703,-0.18426) ==
 == 593-th k-point nmo = 22 (-0.09213,0.82916,-0.27639) ==
 == 594-th k-point nmo = 22 (-0.73703,-0.00000,0.55277) ==
 == 595-th k-point nmo = 22 (-0.64490,0.09213,0.46064) ==
 == 596-th k-point nmo = 22 (-0.55277,0.18426,0.36851) ==
 == 597-th k-point nmo = 22 (-0.46064,0.27639,0.27639) ==
 == 598-th k-point nmo = 22 (-0.36851,0.36851,0.18426) ==
 == 599-th k-point nmo = 22 (-0.27639,0.46064,0.09213) ==
 == 600-th k-point nmo = 22 (-0.18426,0.55277,0.00000) ==
 == 601-th k-point nmo = 22 (-0.09213,0.64490,-0.09213) ==
 == 602-th k-point nmo = 22 (0.00000,0.73703,-0.18426) ==
 == 603-th k-point nmo = 22 (-0.64490,-0.09213,0.64490) ==
 == 604-th k-point nmo = 22 (-0.55277,-0.00000,0.55277) ==
 == 605-th k-point nmo = 22 (-0.46064,0.09213,0.46064) ==
 == 606-th k-point nmo = 22 (-0.36851,0.18426,0.36851) ==
 == 607-th k-point nmo = 22 (-0.27639,0.27639,0.27639) ==
 == 608-th k-point nmo = 22 (-0.18426,0.36851,0.18426) ==
 == 609-th k-point nmo = 22 (-0.09213,0.46064,0.09213) ==
 == 610-th k-point nmo = 22 (0.00000,0.55277,0.00000) ==
 == 611-th k-point nmo = 22 (0.09213,0.64490,-0.09213) ==
 == 612-th k-point nmo = 22 (-0.55277,-0.18426,0.73703) ==
 == 613-th k-point nmo = 22 (-0.46064,-0.09213,0.64490) ==
 == 614-th k-point nmo = 22 (-0.36851,-0.00000,0.55277) ==
 == 615-th k-point nmo = 22 (-0.27639,0.09213,0.46064) ==
 == 616-th k-point nmo = 22 (-0.18426,0.18426,0.36851) ==
 == 617-th k-point nmo = 22 (-0.09213,0.27639,0.27639) ==
 == 618-th k-point nmo = 22 (0.00000,0.36851,0.18426) ==
 == 619-th k-point nmo = 22 (0.09213,0.46064,0.09213) ==
 == 620-th k-point nmo = 22 (0.18426,0.55277,0.00000) ==
 == 621-th k-point nmo = 22 (-0.46064,-0.27639,0.82916) ==
 == 622-th k-point nmo = 22 (-0.36851,-0.18426,0.73703) ==
 == 623-th k-point nmo = 22 (-0.27639,-0.09213,0.64490) ==
 == 624-th k-point nmo = 22 (-0.18426,-0.00000,0.55277) ==
 == 625-th k-point nmo = 22 (-0.09213,0.09213,0.46064) ==
 == 626-th k-point nmo = 22 (0.00000,0.18426,0.36851) ==
 == 627-th k-point nmo = 22 (0.09213,0.27639,0.27639) ==
 == 628-th k-point nmo = 22 (0.18426,0.36851,0.18426) ==
 == 629-th k-point nmo = 22 (0.27639,0.46064,0.09213) ==
 == 630-th k-point nmo = 22 (-0.36851,-0.36851,0.92129) ==
 == 631-th k-point nmo = 22 (-0.27639,-0.27639,0.82916) ==
 == 632-th k-point nmo = 22 (-0.18426,-0.18426,0.73703) ==
 == 633-th k-point nmo = 22 (-0.09213,-0.09213,0.64490) ==
 == 634-th k-point nmo = 22 (0.00000,-0.00000,0.55277) ==
[...]
 1.19617 1.59987 1.77665 1.81204 2.09187 2.56518 2.58589 3.31601 3.35892 3.36150
 3.50019 3.50852
 == 653-th k-point (-0.64490,0.82916,-0.09213) occupation: 6==
 -23.88062 -1.46580 -0.65043 -0.06575 -0.01028 0.00282 0.57405 0.66061 0.71217 0.78677
 1.11497 1.50445 1.61755 1.90554 2.08297 2.50755 2.67021 3.31693 3.36480 3.41566
 3.50345 3.51575
 == 654-th k-point (-0.55277,0.92129,-0.18426) occupation: 6==
 -23.88067 -1.46598 -0.65329 -0.05157 -0.01557 0.01067 0.54148 0.62765 0.73368 0.78334
 1.20626 1.43151 1.61901 1.80950 2.10584 2.43885 2.59210 3.33029 3.41848 3.47064
 3.50105 3.51612
 == 655-th k-point (-0.46064,1.01341,-0.27639) occupation: 6==
 -23.88062 -1.46618 -0.65647 -0.05033 -0.00315 0.02010 0.49474 0.63071 0.74895 0.77602
 1.32277 1.44331 1.62491 1.72099 2.11402 2.35026 2.48888 3.34999 3.43141 3.50511
 3.51172 3.57646
 == 656-th k-point (-0.36851,1.10554,-0.36851) occupation: 6==
 -23.88055 -1.46630 -0.65850 -0.05548 0.01479 0.02512 0.46330 0.64995 0.74482 0.76323
 1.41775 1.58814 1.61781 1.68459 1.99348 2.10477 2.58398 3.36383 3.39798 3.51053
 3.54045 3.70136
 == 657-th k-point (-1.01341,0.27639,0.46064) occupation: 6==
 -23.88062 -1.46618 -0.65647 -0.05033 -0.00315 0.02010 0.49474 0.63071 0.74895 0.77602
 1.32277 1.44331 1.62491 1.72099 2.11402 2.35026 2.48888 3.34999 3.43141 3.50511
 3.51172 3.57646
 == 658-th k-point (-0.92129,0.36851,0.36851) occupation: 6==
 -23.88056 -1.46620 -0.65669 -0.04236 -0.01392 0.02311 0.50194 0.61795 0.75486 0.77974
 1.29532 1.59183 1.64327 1.77320 2.12274 2.36882 2.44163 3.32935 3.44857 3.49722
 3.51223 3.63266
 == 659-th k-point (-0.82916,0.46064,0.27639) occupation: 6==
 -23.88068 -1.46613 -0.65545 -0.03921 -0.02214 0.01850 0.52093 0.61473 0.74655 0.78481
 1.25102 1.43525 1.63757 1.76688 2.11392 2.41082 2.60239 3.31711 3.44434 3.49038
 3.51305 3.51331
 == 660-th k-point (-0.73703,0.55277,0.18426) occupation: 6==
 -23.88067 -1.46598 -0.65329 -0.05157 -0.01557 0.01067 0.54148 0.62765 0.73368 0.78334
 1.20626 1.43151 1.61901 1.80950 2.10584 2.43885 2.59210 3.33029 3.41848 3.47064
 3.50105 3.51612
 == 661-th k-point (-0.64490,0.64490,0.09213) occupation: 6==
 -23.88045 -1.46581 -0.65120 -0.05953 -0.01633 0.00721 0.56705 0.62398 0.74941 0.77091
 1.27837 1.50988 1.72582 1.76758 2.13144 2.43092 2.44315 3.32954 3.42932 3.47155
 3.49771 3.51093
 == 662-th k-point (-0.55277,0.73703,0.00000) occupation: 6==
 -23.88069 -1.46573 -0.65019 -0.05784 -0.02348 0.00574 0.58850 0.60677 0.71407 0.78301
 1.20163 1.46798 1.53047 1.85629 2.14625 2.35877 2.72498 3.31609 3.41433 3.45112
 3.50129 3.51195
 == 663-th k-point (-0.46064,0.82916,-0.09213) occupation: 6==
 -23.88076 -1.46576 -0.65076 -0.04684 -0.03358 0.00743 0.57955 0.60505 0.70389 0.78495
 1.26132 1.37185 1.52522 1.82800 2.17582 2.29313 2.76368 3.31646 3.41971 3.47807
 3.50161 3.50453
 == 664-th k-point (-0.36851,0.92129,-0.18426) occupation: 6==
 -23.88068 -1.46588 -0.65262 -0.04615 -0.02722 0.01287 0.54611 0.60616 0.73533 0.77971
 1.34725 1.35898 1.55669 1.77865 2.19281 2.31332 2.65146 3.32536 3.46464 3.47560
 3.49954 3.50558
 == 665-th k-point (-0.27639,1.01341,-0.27639) occupation: 6==
 -23.88051 -1.46605 -0.65487 -0.05185 -0.00919 0.01689 0.51129 0.62584 0.75735 0.76608
 1.38436 1.50494 1.62776 1.72261 2.15101 2.23977 2.43386 3.34942 3.44333 3.50046
 3.50666 3.59278
 == 666-th k-point (-0.92129,0.18426,0.55277) occupation: 6==
 -23.88067 -1.46598 -0.65329 -0.05157 -0.01557 0.01067 0.54148 0.62765 0.73368 0.78334
 1.20626 1.43151 1.61901 1.80950 2.10584 2.43885 2.59210 3.33029 3.41848 3.47064
 3.50105 3.51612
 == 667-th k-point (-0.82916,0.27639,0.46064) occupation: 6==
 -23.88068 -1.46613 -0.65545 -0.03921 -0.02214 0.01850 0.52093 0.61473 0.74655 0.78481
 1.25102 1.43525 1.63757 1.76688 2.11392 2.41082 2.60239 3.31711 3.44434 3.49038
 3.51305 3.51331
 == 668-th k-point (-0.73703,0.36851,0.36851) occupation: 6==
 -23.88056 -1.46620 -0.65669 -0.04236 -0.01392 0.02311 0.50194 0.61795 0.75486 0.77974
 1.29532 1.59183 1.64327 1.77320 2.12274 2.36882 2.44163 3.32935 3.44857 3.49722
 3.51223 3.63266
 == 669-th k-point (-0.64490,0.46064,0.27639) occupation: 6==
 -23.88062 -1.46618 -0.65647 -0.05033 -0.00315 0.02010 0.49474 0.63071 0.74895 0.77602
 1.32277 1.44331 1.62491 1.72099 2.11402 2.35027 2.48888 3.34999 3.43141 3.50511
 3.51172 3.57646
 == 670-th k-point (-0.55277,0.55277,0.18426) occupation: 6==
 -23.88051 -1.46605 -0.65487 -0.05185 -0.00919 0.01689 0.51129 0.62584 0.75735 0.76608
 1.38436 1.50494 1.62776 1.72261 2.15101 2.23977 2.43386 3.34942 3.44333 3.50046
 3.50666 3.59278
 == 671-th k-point (-0.46064,0.64490,0.09213) occupation: 6==
 -23.88068 -1.46588 -0.65262 -0.04615 -0.02722 0.01287 0.54611 0.60616 0.73533 0.77971
 1.34725 1.35898 1.55669 1.77865 2.19281 2.31332 2.65146 3.32536 3.46464 3.47560
 3.49954 3.50558
 == 672-th k-point (-0.36851,0.73703,0.00000) occupation: 6==
 -23.88076 -1.46576 -0.65076 -0.04684 -0.03358 0.00743 0.57955 0.60505 0.70389 0.78495
 1.26132 1.37185 1.52522 1.82800 2.17582 2.29313 2.76368 3.31646 3.41971 3.47807
 3.50161 3.50453
 == 673-th k-point (-0.27639,0.82916,-0.09213) occupation: 6==
 -23.88069 -1.46573 -0.65019 -0.05784 -0.02348 0.00574 0.58850 0.60677 0.71407 0.78301
 1.20163 1.46798 1.53047 1.85629 2.14625 2.35877 2.72498 3.31609 3.41433 3.45112
 3.50129 3.51195
 == 674-th k-point (-0.18426,0.92129,-0.18426) occupation: 6==
 -23.88045 -1.46581 -0.65120 -0.05953 -0.01633 0.00721 0.56705 0.62398 0.74941 0.77091
 1.27837 1.50988 1.72582 1.76758 2.13144 2.43092 2.44315 3.32954 3.42932 3.47155
 3.49771 3.51093
 == 675-th k-point (-0.82916,0.09213,0.64490) occupation: 6==
 -23.88062 -1.46580 -0.65043 -0.06575 -0.01028 0.00282 0.57405 0.66061 0.71217 0.78677
 1.11497 1.50445 1.61755 1.90554 2.08297 2.50755 2.67021 3.31693 3.36480 3.41566
 3.50345 3.51575
 == 676-th k-point (-0.73703,0.18426,0.55277) occupation: 6==
 -23.88067 -1.46598 -0.65329 -0.05157 -0.01557 0.01067 0.54148 0.62765 0.73368 0.78334
 1.20626 1.43151 1.61901 1.80950 2.10584 2.43885 2.59210 3.33029 3.41848 3.47064
 3.50105 3.51612
 == 677-th k-point (-0.64490,0.27639,0.46064) occupation: 6==
 -23.88062 -1.46618 -0.65647 -0.05033 -0.00315 0.02010 0.49474 0.63071 0.74895 0.77602
 1.32277 1.44331 1.62491 1.72099 2.11402 2.35027 2.48888 3.34999 3.43141 3.50511
 3.51172 3.57646
 == 678-th k-point (-0.55277,0.36851,0.36851) occupation: 6==
 -23.88055 -1.46630 -0.65850 -0.05548 0.01479 0.02512 0.46330 0.64995 0.74482 0.76323
 1.41775 1.58814 1.61781 1.68459 1.99348 2.10477 2.58398 3.36383 3.39798 3.51053
 3.54045 3.70136
 == 679-th k-point (-0.46064,0.46064,0.27639) occupation: 6==
 -23.88055 -1.46630 -0.65850 -0.05548 0.01479 0.02512 0.46330 0.64995 0.74482 0.76323
 1.41775 1.58814 1.61781 1.68459 1.99348 2.10477 2.58398 3.36383 3.39798 3.51053
 3.54045 3.70136
 == 680-th k-point (-0.36851,0.55277,0.18426) occupation: 6==
 -23.88062 -1.46618 -0.65647 -0.05033 -0.00315 0.02010 0.49474 0.63071 0.74895 0.77602
 1.32277 1.44331 1.62491 1.72099 2.11402 2.35026 2.48888 3.34999 3.43141 3.50511
 3.51172 3.57646
 == 681-th k-point (-0.27639,0.64490,0.09213) occupation: 6==
 -23.88067 -1.46598 -0.65329 -0.05157 -0.01557 0.01067 0.54148 0.62765 0.73368 0.78334
 1.20626 1.43151 1.61901 1.80950 2.10584 2.43885 2.59210 3.33029 3.41848 3.47064
 3.50105 3.51612
 == 682-th k-point (-0.18426,0.73703,0.00000) occupation: 6==
 -23.88062 -1.46580 -0.65043 -0.06575 -0.01028 0.00282 0.57405 0.66061 0.71217 0.78677
 1.11497 1.50445 1.61755 1.90554 2.08297 2.50755 2.67021 3.31693 3.36480 3.41566
 3.50345 3.51575
 == 683-th k-point (-0.09213,0.82916,-0.09213) occupation: 6==
 -23.88040 -1.46572 -0.64927 -0.07265 -0.00679 0.00049 0.58417 0.68478 0.73598 0.78186
 1.19617 1.59987 1.77665 1.81204 2.09187 2.56518 2.58589 3.31601 3.35892 3.36150
 3.50019 3.50852
 == 684-th k-point (-0.73703,-0.00000,0.73703) occupation: 6==
 -23.88040 -1.46572 -0.64927 -0.07265 -0.00679 0.00049 0.58417 0.68478 0.73598 0.78186
 1.19617 1.59987 1.77665 1.81204 2.09187 2.56518 2.58589 3.31601 3.35892 3.36150
 3.50019 3.50852
 == 685-th k-point (-0.64490,0.09213,0.64490) occupation: 6==
 -23.88045 -1.46581 -0.65120 -0.05953 -0.01633 0.00721 0.56705 0.62398 0.74941 0.77091
 1.27837 1.50988 1.72582 1.76758 2.13144 2.43092 2.44315 3.32954 3.42932 3.47155
 3.49771 3.51093
 == 686-th k-point (-0.55277,0.18426,0.55277) occupation: 6==
 -23.88051 -1.46605 -0.65487 -0.05185 -0.00919 0.01689 0.51129 0.62584 0.75735 0.76608
 1.38436 1.50494 1.62776 1.72261 2.15101 2.23977 2.43386 3.34942 3.44333 3.50046
 3.50666 3.59278
 == 687-th k-point (-0.46064,0.27639,0.46064) occupation: 6==
 -23.88055 -1.46630 -0.65850 -0.05548 0.01479 0.02512 0.46330 0.64995 0.74482 0.76323
 1.41775 1.58814 1.61781 1.68459 1.99348 2.10477 2.58398 3.36383 3.39798 3.51053
 3.54045 3.70136
 == 688-th k-point (-0.36851,0.36851,0.36851) occupation: 6==
 -23.88058 -1.46644 -0.66045 -0.05514 0.02764 0.02764 0.44451 0.68082 0.74180 0.74180
 1.58614 1.62447 1.62447 1.76906 1.76907 2.07244 2.67428 3.37101 3.37101 3.51340
 3.73358 3.73359
 == 689-th k-point (-0.27639,0.46064,0.27639) occupation: 6==
 -23.88058 -1.46649 -0.65990 -0.04996 0.01887 0.02293 0.46246 0.65819 0.75590 0.76553
 1.37109 1.56446 1.57706 1.74469 1.88300 2.07210 2.62356 3.36765 3.38725 3.51349
 3.54130 3.66701
 == 690-th k-point (-0.18426,0.55277,0.18426) occupation: 6==
 -23.88055 -1.46633 -0.65707 -0.04738 0.00183 0.01370 0.50522 0.65688 0.76355 0.77231
 1.24745 1.53157 1.63438 1.77789 2.07021 2.08721 2.57429 3.35189 3.39653 3.50074
 3.51564 3.58265
 == 691-th k-point (-0.09213,0.64490,0.09213) occupation: 6==
 -23.88049 -1.46606 -0.65320 -0.05977 -0.00146 0.00456 0.54771 0.70150 0.74620 0.78326
 1.20167 1.56391 1.74394 1.80338 2.06196 2.32504 2.62248 3.32700 3.35421 3.48080
 3.50162 3.51290
 == 692-th k-point (0.00000,0.73703,0.00000) occupation: 6==
 -23.88039 -1.46582 -0.65007 -0.07285 -0.00053 -0.00053 0.57386 0.72010 0.78660 0.78660
 1.60861 1.77254 1.82181 1.82181 2.54108 2.54108 2.66065 3.31115 3.31587 3.36972
 3.36972 3.50429
 == 693-th k-point (-0.64490,-0.09213,0.82916) occupation: 6==
 -23.88062 -1.46580 -0.65043 -0.06575 -0.01028 0.00282 0.57405 0.66061 0.71217 0.78677
 1.11497 1.50445 1.61755 1.90554 2.08297 2.50755 2.67021 3.31693 3.36480 3.41566
 3.50345 3.51575
 == 694-th k-point (-0.55277,-0.00000,0.73703) occupation: 6==
 -23.88069 -1.46573 -0.65019 -0.05784 -0.02348 0.00574 0.58850 0.60677 0.71407 0.78301
 1.20163 1.46798 1.53047 1.85629 2.14625 2.35877 2.72498 3.31609 3.41433 3.45112
 3.50129 3.51195
 == 695-th k-point (-0.46064,0.09213,0.64490) occupation: 6==
 -23.88068 -1.46588 -0.65262 -0.04615 -0.02722 0.01287 0.54611 0.60616 0.73533 0.77971
 1.34725 1.35898 1.55669 1.77865 2.19281 2.31332 2.65146 3.32536 3.46464 3.47560
 3.49954 3.50558
 == 696-th k-point (-0.36851,0.18426,0.55277) occupation: 6==
 -23.88062 -1.46618 -0.65647 -0.05033 -0.00315 0.02010 0.49474 0.63071 0.74895 0.77602
 1.32277 1.44331 1.62491 1.72099 2.11402 2.35026 2.48888 3.34999 3.43141 3.50511
 3.51172 3.57646
 == 697-th k-point (-0.27639,0.27639,0.46064) occupation: 6==
 -23.88058 -1.46649 -0.65990 -0.04996 0.01887 0.02293 0.46246 0.65819 0.75590 0.76553
 1.37109 1.56446 1.57706 1.74469 1.88300 2.07210 2.62356 3.36765 3.38725 3.51349
 3.54130 3.66701
 == 698-th k-point (-0.18426,0.36851,0.36851) occupation: 6==
 -23.88063 -1.46664 -0.66138 -0.04317 0.01430 0.02919 0.45929 0.65642 0.75716 0.77971
 1.27610 1.58480 1.66077 1.78683 2.01240 2.04286 2.62842 3.35480 3.39422 3.51519
 3.55009 3.72455
 == 699-th k-point (-0.09213,0.46064,0.27639) occupation: 6==
 -23.88066 -1.46661 -0.66030 -0.03674 0.00199 0.02366 0.48236 0.65035 0.76388 0.79005
 1.19818 1.46488 1.70869 1.79580 2.03453 2.21110 2.63003 3.33571 3.39625 3.50532
 3.52246 3.58548
 == 700-th k-point (0.00000,0.55277,0.18426) occupation: 6==
 -23.88064 -1.46638 -0.65711 -0.04478 -0.00120 0.01257 0.51597 0.67353 0.74900 0.79163
 1.13884 1.44924 1.73164 1.83523 2.03016 2.30964 2.67888 3.31965 3.35386 3.49943
 3.51318 3.52364
 == 701-th k-point (0.09213,0.64490,0.09213) occupation: 6==
 -23.88049 -1.46606 -0.65320 -0.05977 -0.00146 0.00456 0.54771 0.70150 0.74620 0.78326
 1.20167 1.56391 1.74394 1.80338 2.06196 2.32504 2.62248 3.32700 3.35421 3.48080
 3.50162 3.51290
 == 702-th k-point (-0.55277,-0.18426,0.92129) occupation: 6==
 -23.88067 -1.46598 -0.65329 -0.05157 -0.01557 0.01067 0.54148 0.62765 0.73368 0.78334
 1.20626 1.43151 1.61901 1.80950 2.10584 2.43885 2.59210 3.33029 3.41848 3.47064
 3.50105 3.51612
 == 703-th k-point (-0.46064,-0.09213,0.82916) occupation: 6==
 -23.88076 -1.46576 -0.65076 -0.04684 -0.03358 0.00743 0.57955 0.60505 0.70389 0.78495
 1.26132 1.37185 1.52522 1.82800 2.17582 2.29313 2.76368 3.31646 3.41971 3.47807
 3.50161 3.50453
 == 704-th k-point (-0.36851,-0.00000,0.73703) occupation: 6==
 -23.88076 -1.46576 -0.65076 -0.04684 -0.03358 0.00743 0.57955 0.60505 0.70389 0.78495
 1.26132 1.37185 1.52522 1.82800 2.17582 2.29313 2.76368 3.31646 3.41971 3.47807
 3.50161 3.50453
 == 705-th k-point (-0.27639,0.09213,0.64490) occupation: 6==
 -23.88067 -1.46598 -0.65329 -0.05157 -0.01557 0.01067 0.54148 0.62765 0.73368 0.78334
 1.20626 1.43151 1.61901 1.80950 2.10584 2.43885 2.59210 3.33029 3.41848 3.47064
 3.50105 3.51612
 == 706-th k-point (-0.18426,0.18426,0.55277) occupation: 6==
 -23.88055 -1.46633 -0.65707 -0.04738 0.00183 0.01370 0.50522 0.65688 0.76355 0.77231
 1.24745 1.53157 1.63438 1.77789 2.07021 2.08721 2.57429 3.35189 3.39653 3.50074
 3.51564 3.58265
 == 707-th k-point (-0.09213,0.27639,0.46064) occupation: 6==
 -23.88066 -1.46661 -0.66030 -0.03674 0.00199 0.02366 0.48236 0.65035 0.76388 0.79005
 1.19818 1.46488 1.70869 1.79580 2.03453 2.21110 2.63003 3.33571 3.39625 3.50532
 3.52246 3.58548
 == 708-th k-point (0.00000,0.36851,0.36851) occupation: 6==
 -23.88066 -1.46671 -0.66154 -0.02867 -0.00385 0.02957 0.47520 0.64100 0.76882 0.79523
 1.20000 1.56188 1.69769 1.84420 2.03432 2.39943 2.56672 3.31594 3.41353 3.50840
 3.52465 3.69824
 == 709-th k-point (0.09213,0.46064,0.27639) occupation: 6==
 -23.88066 -1.46661 -0.66030 -0.03674 0.00199 0.02366 0.48236 0.65035 0.76388 0.79005
 1.19818 1.46488 1.70869 1.79580 2.03453 2.21110 2.63003 3.33571 3.39625 3.50532
 3.52246 3.58548
 == 710-th k-point (0.18426,0.55277,0.18426) occupation: 6==
 -23.88055 -1.46633 -0.65707 -0.04738 0.00183 0.01370 0.50522 0.65688 0.76355 0.77231
 1.24745 1.53157 1.63438 1.77789 2.07021 2.08721 2.57429 3.35189 3.39653 3.50074
 3.51564 3.58265
 == 711-th k-point (-0.46064,-0.27639,1.01341) occupation: 6==
 -23.88062 -1.46618 -0.65647 -0.05033 -0.00315 0.02010 0.49474 0.63071 0.74895 0.77602
 1.32277 1.44331 1.62491 1.72099 2.11402 2.35026 2.48888 3.34999 3.43141 3.50511
 3.51172 3.57646
 == 712-th k-point (-0.36851,-0.18426,0.92129) occupation: 6==
 -23.88068 -1.46588 -0.65262 -0.04615 -0.02722 0.01287 0.54611 0.60616 0.73533 0.77971
 1.34725 1.35898 1.55669 1.77865 2.19281 2.31332 2.65146 3.32536 3.46464 3.47560
 3.49954 3.50558
 == 713-th k-point (-0.27639,-0.09213,0.82916) occupation: 6==
 -23.88069 -1.46573 -0.65019 -0.05784 -0.02348 0.00574 0.58850 0.60677 0.71407 0.78301
 1.20163 1.46798 1.53047 1.85629 2.14625 2.35877 2.72498 3.31609 3.41433 3.45112
 3.50129 3.51195
 == 714-th k-point (-0.18426,-0.00000,0.73703) occupation: 6==
 -23.88062 -1.46580 -0.65043 -0.06575 -0.01028 0.00282 0.57405 0.66061 0.71217 0.78677
 1.11497 1.50445 1.61755 1.90554 2.08297 2.50755 2.67021 3.31693 3.36480 3.41566
 3.50345 3.51575
 == 715-th k-point (-0.09213,0.09213,0.64490) occupation: 6==
 -23.88049 -1.46606 -0.65320 -0.05977 -0.00146 0.00456 0.54771 0.70150 0.74620 0.78326
 1.20167 1.56391 1.74394 1.80338 2.06196 2.32504 2.62248 3.32700 3.35421 3.48080
 3.50162 3.51290
 == 716-th k-point (0.00000,0.18426,0.55277) occupation: 6==
 -23.88064 -1.46638 -0.65711 -0.04478 -0.00120 0.01257 0.51597 0.67353 0.74900 0.79163
 1.13884 1.44924 1.73164 1.83523 2.03016 2.30964 2.67888 3.31965 3.35386 3.49943
 3.51318 3.52364
 == 717-th k-point (0.09213,0.27639,0.46064) occupation: 6==
 -23.88066 -1.46661 -0.66030 -0.03674 0.00199 0.02366 0.48236 0.65035 0.76388 0.79005
 1.19818 1.46488 1.70869 1.79580 2.03453 2.21110 2.63003 3.33571 3.39625 3.50532
 3.52246 3.58548
 == 718-th k-point (0.18426,0.36851,0.36851) occupation: 6==
 -23.88063 -1.46664 -0.66138 -0.04317 0.01430 0.02919 0.45929 0.65642 0.75716 0.77971
 1.27610 1.58480 1.66077 1.78683 2.01240 2.04286 2.62842 3.35480 3.39422 3.51519
 3.55009 3.72455
 == 719-th k-point (0.27639,0.46064,0.27639) occupation: 6==
 -23.88058 -1.46649 -0.65990 -0.04996 0.01887 0.02293 0.46246 0.65819 0.75590 0.76553
 1.37109 1.56446 1.57706 1.74469 1.88300 2.07210 2.62356 3.36765 3.38725 3.51349
 3.54130 3.66701
 == 720-th k-point (-0.36851,-0.36851,1.10554) occupation: 6==
 -23.88055 -1.46630 -0.65850 -0.05548 0.01479 0.02512 0.46330 0.64995 0.74482 0.76323
 1.41775 1.58814 1.61781 1.68459 1.99348 2.10477 2.58398 3.36383 3.39798 3.51053
 3.54045 3.70136
 == 721-th k-point (-0.27639,-0.27639,1.01341) occupation: 6==
 -23.88051 -1.46605 -0.65487 -0.05185 -0.00919 0.01689 0.51129 0.62584 0.75735 0.76608
 1.38436 1.50494 1.62776 1.72261 2.15101 2.23977 2.43386 3.34942 3.44333 3.50046
 3.50666 3.59278
 == 722-th k-point (-0.18426,-0.18426,0.92129) occupation: 6==
 -23.88045 -1.46581 -0.65120 -0.05953 -0.01633 0.00721 0.56705 0.62398 0.74941 0.77091
 1.27837 1.50988 1.72582 1.76758 2.13144 2.43092 2.44315 3.32954 3.42932 3.47155
 3.49771 3.51093
 == 723-th k-point (-0.09213,-0.09213,0.82916) occupation: 6==
 -23.88040 -1.46572 -0.64927 -0.07265 -0.00679 0.00049 0.58417 0.68478 0.73598 0.78186
 1.19617 1.59987 1.77665 1.81204 2.09187 2.56518 2.58589 3.31601 3.35892 3.36150
 3.50019 3.50852
 == 724-th k-point (0.00000,-0.00000,0.73703) occupation: 6==
 -23.88039 -1.46582 -0.65007 -0.07285 -0.00053 -0.00053 0.57386 0.72010 0.78660 0.78660
 1.60861 1.77254 1.82181 1.82181 2.54108 2.54108 2.66065 3.31115 3.31587 3.36972
 3.36972 3.50429
 == 725-th k-point (0.09213,0.09213,0.64490) occupation: 6==
 -23.88049 -1.46606 -0.65320 -0.05977 -0.00146 0.00456 0.54771 0.70150 0.74620 0.78326
 1.20167 1.56391 1.74394 1.80338 2.06196 2.32504 2.62248 3.32700 3.35421 3.48080
 3.50162 3.51290
 == 726-th k-point (0.18426,0.18426,0.55277) occupation: 6==
 -23.88055 -1.46633 -0.65707 -0.04738 0.00183 0.01370 0.50522 0.65688 0.76355 0.77231
 1.24745 1.53157 1.63438 1.77789 2.07021 2.08721 2.57429 3.35189 3.39653 3.50074
 3.51564 3.58265
 == 727-th k-point (0.27639,0.27639,0.46064) occupation: 6==
 -23.88058 -1.46649 -0.65990 -0.04996 0.01887 0.02293 0.46246 0.65819 0.75590 0.76553
 1.37109 1.56446 1.57706 1.74469 1.88300 2.07210 2.62356 3.36765 3.38725 3.51349
 3.54130 3.66701
 == 728-th k-point (0.36851,0.36851,0.36851) occupation: 6==
 -23.88058 -1.46644 -0.66045 -0.05514 0.02764 0.02764 0.44451 0.68082 0.74180 0.74180
 1.58614 1.62447 1.62447 1.76907 1.76907 2.07244 2.67428 3.37101 3.37101 3.51340
 3.73359 3.73359
 ---------------------------------------------------------------------------
 VBM is at 364-th k-point with 0.96789 eV
 CBM is at 364-th k-point with 10.57269 eV
 Band gap is 9.60480 eV


           Ground-State Mulliken Net Atomic Charges

      Atom                 Charge (a.u.)          Spin (a.u.)
   --------------------------------------------------------
      1 Li               (0.468359,-0.000000)    (0.000000,0.000000)
      2  F               (-0.468359,0.000000)    (0.000000,0.000000)
   --------------------------------------------------------
  Sum of atomic charges =      (0.000000,-0.000000)
  Sum of spin   charges =       (0.000000,0.000000)



 Total job time:  293.45 s.
 Tue Sep  9 02:55:49 2025


        *************************************************************
        *                                                           *
        *  Thank you very much for using QCPBC. Have a nice day.    *
        *                                                           *
        *************************************************************

Running job 1 of 1
