                  Welcome to Q-Chem
           with Periodic Boundary Condition
     A Quantum Leap Into The Future Of Chemistry

 Adam Rettig, Xintian Feng, Meng-Fu Chen, Hieu Dinh, Stephen Quiton,
 Anton Ni, Paul J. Robinson, Jinghong Zhang, Joonho Lee

Contributors to earlier versions of Q-Chem not listed above:
 Evgeny Epifanovsky, Leo Cunha, Jerome F. Gonthier, Kuan-Yu Liu
 Input file: /n/netscratch/joonholee_lab/Lab/hieudinh//lif_solve_def2svp_omega_0.9_888.scratch20250909015524/lif_solve_def2svp_omega_0.9_888.0
 Scratch folder: /n/netscratch/joonholee_lab/Lab/hieudinh//lif_solve_def2svp_omega_0.9_888.scratch20250909015524
 Auxillary files located at: /n/holylabs/LABS/joonholee_lab/Lab/qchem_base/qcaux
 Q-Chem begins on Tue Sep  9 01:55:25 2025

 -------------------------------------------------------------
 User input:
 -------------------------------------------------------------
 $lattice
 3
 0.000000 2.005000 2.005000
 2.005000 0.000000 2.005000
 2.005000 2.005000 0.000000
 $end
 
 $unitcell
 ABSOLUTE
 0 1
 Li 0.000000 0.000000 0.000000
 F  2.005000 0.000000 0.000000
 $end
 
 $rem
 jobtype = sp
 method = pbe
 scf_convergence = 5
 scf_guess = autosad
 scf_algorithm = gdm
 basis = def2-svp
 aux_basis = gen
 input_bohr = false
 symmetry false
 is_basis_uctr true
 rsdf_print_level 1
 
 mp_mesh = [8,8,8]
 
 integral_direct true
 bvk_cgto true
 
 thresh 14
 mem_total 100000
 threads 32
 
 MAX_SCF_CYCLES 400
 madelung = false
 omega 0.9
 do_rij_bigmem true
 automate_g true
 print_level 10
 grid_type_xc 1
 
 thresh_1e2c_sp 1e-14
 thresh_2e3c_bra_ket_sep 1e-10
 thresh_g 1e-12
 $end
 
 $aux_basis
 Li     0
 S   7   1.00
     498.3689730              0.0207908
     162.9342738              0.0542177
      57.3246735              0.1776783
      21.6427314              0.4181150
       8.7345375              0.6535245
       3.7491039              0.5492618
       1.7006754              0.1701425
 S   1   1.00
       0.8090859             -0.0097548
 S   1   1.00
       0.4000933             -0.0050152
 S   1   1.00
       0.2035793              0.0232200
 !S   1   1.00
 !      0.1054201              0.0134535
 !S   1   1.00
 !      0.0549139              0.0006647
 P   2   1.00
      10.7024696              0.0072923
       3.6551543              0.0060940
 P   1   1.00
       1.2464013              0.0172529
 P   1   1.00
       0.4246282             -0.0160026
 P   1   1.00
       0.1446192             -0.0195111
 D   2   1.00
       1.1510647             -0.0014314
       0.6019112              0.0038969
 D   1   1.00
       0.3109573              0.0024683
 D   1   1.00
       0.1600032              0.0036451
 F   2   1.00
       0.5967918              0.0010494
       0.1790687              0.0006468
 G   1   1.00
       1.0460130             -0.0001971
 ****
 F     0
 S   7   1.00
    3514.9201549              0.1805835
    1231.2458815              0.3676084
     454.1367336              1.2707881
     175.8376258              2.8274164
      71.2081775              4.3588226
      30.0316883              2.7180994
      13.1259023             -0.0804726
 S   1   1.00
       5.9126861             -0.0023370
 S   1   1.00
       2.7284431              1.1236274
 S   1   1.00
       1.2813993              0.9999042
 S   1   1.00
       0.6082793              0.3119579
 S   1   1.00
       0.2897894              0.0312295
 P   2   1.00
      49.3740409             -0.0346332
      13.4874956             -0.0096069
 P   1   1.00
       3.9664900              0.0762067
 P   1   1.00
       1.2226629             -0.0103329
 P   1   1.00
       0.3830317              0.0018853
 D   2   1.00
      29.9719140             -0.0113316
       6.7860915             -0.0467639
 D   1   1.00
       1.8137313             -0.0167604
 D   1   1.00
       0.5157840             -0.0050777
 F   2   1.00
       2.8301877              1.0
       0.9155962              1.0
 G   1   1.00
       1.6097500             -0.0005411
 ****
 $end
 -------------------------------------------------------------
 Running PBC job

 Requested Exchange Correlation Functionals: 
  DFT Exchange:  1.00000 pbe_x
  DFT Correlation:  1.00000 pbe_c
 using 32 threads for computing.
 ---------------------------------------------------------------
      Coordinates of Atoms in Central Unit Cell (Angstroms)
    I     Atom         X            Y            Z
 ---------------------------------------------------------------
    1      Li      0.000000     0.000000     0.000000
    2       F      2.005000     0.000000     0.000000
 ---------------------------------------------------------------
 --------------------------------------------------
              Lattice Vectors (Angstroms)
              X            Y            Z
 --------------------------------------------------
   X       0.000000     2.005000     2.005000
   Y       2.005000     0.000000     2.005000
   Z       2.005000     2.005000     0.000000
 --------------------------------------------------
 --------------------------------------------------
       Reciprocal Lattice Vectors (Angstroms^-1)
              X            Y            Z
 --------------------------------------------------
   X      -1.566879     1.566879     1.566879
   Y       1.566879    -1.566879     1.566879
   Z       1.566879     1.566879    -1.566879
 --------------------------------------------------

 Single point calculation requested

 Hamiltonian contributions:
 List of terms in Hamiltonian: kpts_nn, kpts_kinetic, kpts_vnuc_df, kpts_xc, kpts_rij_bigmem

 K-Points calculation started.

 Basis set information about using solid harmonic (1) or Cartesian (0):
  li : 
  f : D(1) 

 Basis set information about using solid harmonic (1) or Cartesian (0):
  li : D(1) D(1) D(1) F(1) G(1) 
  f : D(1) D(1) D(1) F(1) G(1) 

 There are 23 basis functions in the central unit cell.
 Print atomic basis of atoms in the central unit cell:
 -------------------------------------------------------------
2 22 22 11

  0.00000000000000e+00  0.00000000000000e+00  0.00000000000000e+00
  3.78890087987467e+00  0.00000000000000e+00  0.00000000000000e+00

  2.66277855160000e+02
  4.00697834470000e+01
  9.05599443890000e+00
  2.45030090510000e+00
  7.22095718550000e-01
  5.28108847210000e-02
  2.09609487980000e-02
  1.45000000000000e+00
  3.00000000000000e-01
  8.20000000000000e-02
  2.89483259900000e+03
  4.35419391200000e+02
  9.88433288660000e+01
  2.74851980010000e+01
  8.54054981710000e+00
  1.06545780380000e+00
  3.32473467480000e-01
  2.26966339240000e+01
  4.98723392570000e+00
  1.34916139540000e+00
  3.48298819770000e-01
  1.40000000000000e+00

  2.98523259158809e-01
  5.30473944856059e-01
  7.38120784182850e-01
  6.64059438610974e-01
  2.38395787996007e-01
  7.85150071492147e-02
  3.92616272060942e-02
  5.10109427593945e-01
  2.75249408957986e-01
  6.25471323993550e-02
 -1.50461836060050e+00
 -2.71519138656203e+00
 -4.00842348425574e+00
 -4.00664898239610e+00
 -1.59245314394331e+00
  7.47415815228736e-01
  3.12052622570615e-01
 -4.57453810587525e+00
 -3.61576784341891e+00
 -1.52308270817964e+00
  3.81399475464114e-01
  2.96574303152418e+00

0 0 0 0 1 1 1
0 0 
5 0

0 1 1 5 1 1 1
5 0 
1 0

0 2 2 6 1 1 1
6 0 
1 0

0 3 3 7 1 3 3
7 1 
2 0

0 6 6 9 1 3 3
9 1 
1 0

1 9 9 10 1 1 1
10 0 
5 0

1 10 10 15 1 1 1
15 0 
1 0

1 11 11 16 1 1 1
16 0 
1 0

1 12 12 17 1 3 3
17 1 
3 0

1 15 15 20 1 3 3
20 1 
1 0

1 18 18 21 1 5 6
21 2 
1 1

 -------------------------------------------------------------
 Allocate 132768 B from available memory: 104857600000 B
 There are 12167 image cells after screening.
 There are 15858 image cells for CGTO evaluation after screening.
 Real-Space grid for FFT initialized based on kinetic energy cutoff (eV) = 500.0
 Real-Space grid for FFT: (8,8,8)
 There are 4913 real-space grid points.
 There are 27 batches of real-space grid points. 
 Size of each grid batch is around 128
 Grid for AFT initialized based on kinetic energy cutoff (eV) = 500.0
 Real-Space grid for AFT: (8,8,8)
 There are 4913 real-space grid points.

 There are 5740 atom-centered grid points.

 Spacegroup symmetry group: Fm-3m
 Reducing spacegroup symmetry to symmorphic group: F m -3 m
 Monkhorst-Pack mesh is [8,8,8]
 There are 512 k points.
kpoints in Bohr
-0.3109337727 -0.3109337727 -0.3109337727
-0.2072891818 -0.2072891818 -0.4145783636
-0.1036445909 -0.1036445909 -0.5182229546
-0.0000000000 0.0000000000 -0.6218675455
0.1036445909 0.1036445909 -0.7255121364
0.2072891818 0.2072891818 -0.8291567273
0.3109337727 0.3109337727 -0.9328013182
0.4145783636 0.4145783636 -1.0364459091
-0.2072891818 -0.4145783636 -0.2072891818
-0.1036445909 -0.3109337727 -0.3109337727
-0.0000000000 -0.2072891818 -0.4145783636
0.1036445909 -0.1036445909 -0.5182229546
0.2072891818 0.0000000000 -0.6218675455
0.3109337727 0.1036445909 -0.7255121364
0.4145783636 0.2072891818 -0.8291567273
0.5182229546 0.3109337727 -0.9328013182
-0.1036445909 -0.5182229546 -0.1036445909
-0.0000000000 -0.4145783636 -0.2072891818
0.1036445909 -0.3109337727 -0.3109337727
0.2072891818 -0.2072891818 -0.4145783636
0.3109337727 -0.1036445909 -0.5182229546
0.4145783636 0.0000000000 -0.6218675455
0.5182229546 0.1036445909 -0.7255121364
0.6218675455 0.2072891818 -0.8291567273
-0.0000000000 -0.6218675455 -0.0000000000
0.1036445909 -0.5182229546 -0.1036445909
0.2072891818 -0.4145783636 -0.2072891818
0.3109337727 -0.3109337727 -0.3109337727
0.4145783636 -0.2072891818 -0.4145783636
0.5182229546 -0.1036445909 -0.5182229546
0.6218675455 0.0000000000 -0.6218675455
0.7255121364 0.1036445909 -0.7255121364
0.1036445909 -0.7255121364 0.1036445909
0.2072891818 -0.6218675455 -0.0000000000
0.3109337727 -0.5182229546 -0.1036445909
0.4145783636 -0.4145783636 -0.2072891818
0.5182229546 -0.3109337727 -0.3109337727
0.6218675455 -0.2072891818 -0.4145783636
0.7255121364 -0.1036445909 -0.5182229546
0.8291567273 0.0000000000 -0.6218675455
0.2072891818 -0.8291567273 0.2072891818
0.3109337727 -0.7255121364 0.1036445909
0.4145783636 -0.6218675455 -0.0000000000
0.5182229546 -0.5182229546 -0.1036445909
0.6218675455 -0.4145783636 -0.2072891818
0.7255121364 -0.3109337727 -0.3109337727
0.8291567273 -0.2072891818 -0.4145783636
0.9328013182 -0.1036445909 -0.5182229546
0.3109337727 -0.9328013182 0.3109337727
0.4145783636 -0.8291567273 0.2072891818
0.5182229546 -0.7255121364 0.1036445909
0.6218675455 -0.6218675455 -0.0000000000
0.7255121364 -0.5182229546 -0.1036445909
0.8291567273 -0.4145783636 -0.2072891818
0.9328013182 -0.3109337727 -0.3109337727
1.0364459091 -0.2072891818 -0.4145783636
0.4145783636 -1.0364459091 0.4145783636
0.5182229546 -0.9328013182 0.3109337727
0.6218675455 -0.8291567273 0.2072891818
0.7255121364 -0.7255121364 0.1036445909
0.8291567273 -0.6218675455 -0.0000000000
0.9328013182 -0.5182229546 -0.1036445909
1.0364459091 -0.4145783636 -0.2072891818
1.1400905000 -0.3109337727 -0.3109337727
-0.4145783636 -0.2072891818 -0.2072891818
-0.3109337727 -0.1036445909 -0.3109337727
-0.2072891818 0.0000000000 -0.4145783636
-0.1036445909 0.1036445909 -0.5182229546
-0.0000000000 0.2072891818 -0.6218675455
0.1036445909 0.3109337727 -0.7255121364
0.2072891818 0.4145783636 -0.8291567273
0.3109337727 0.5182229546 -0.9328013182
-0.3109337727 -0.3109337727 -0.1036445909
-0.2072891818 -0.2072891818 -0.2072891818
-0.1036445909 -0.1036445909 -0.3109337727
-0.0000000000 0.0000000000 -0.4145783636
0.1036445909 0.1036445909 -0.5182229546
0.2072891818 0.2072891818 -0.6218675455
0.3109337727 0.3109337727 -0.7255121364
0.4145783636 0.4145783636 -0.8291567273
-0.2072891818 -0.4145783636 -0.0000000000
-0.1036445909 -0.3109337727 -0.1036445909
-0.0000000000 -0.2072891818 -0.2072891818
0.1036445909 -0.1036445909 -0.3109337727
0.2072891818 0.0000000000 -0.4145783636
0.3109337727 0.1036445909 -0.5182229546
0.4145783636 0.2072891818 -0.6218675455
0.5182229546 0.3109337727 -0.7255121364
-0.1036445909 -0.5182229546 0.1036445909
-0.0000000000 -0.4145783636 -0.0000000000
0.1036445909 -0.3109337727 -0.1036445909
0.2072891818 -0.2072891818 -0.2072891818
0.3109337727 -0.1036445909 -0.3109337727
0.4145783636 0.0000000000 -0.4145783636
0.5182229546 0.1036445909 -0.5182229546
0.6218675455 0.2072891818 -0.6218675455
0.0000000000 -0.6218675455 0.2072891818
0.1036445909 -0.5182229546 0.1036445909
0.2072891818 -0.4145783636 -0.0000000000
0.3109337727 -0.3109337727 -0.1036445909
0.4145783636 -0.2072891818 -0.2072891818
0.5182229546 -0.1036445909 -0.3109337727
0.6218675455 0.0000000000 -0.4145783636
0.7255121364 0.1036445909 -0.5182229546
0.1036445909 -0.7255121364 0.3109337727
0.2072891818 -0.6218675455 0.2072891818
0.3109337727 -0.5182229546 0.1036445909
0.4145783636 -0.4145783636 -0.0000000000
0.5182229546 -0.3109337727 -0.1036445909
0.6218675455 -0.2072891818 -0.2072891818
0.7255121364 -0.1036445909 -0.3109337727
0.8291567273 0.0000000000 -0.4145783636
0.2072891818 -0.8291567273 0.4145783636
0.3109337727 -0.7255121364 0.3109337727
0.4145783636 -0.6218675455 0.2072891818
0.5182229546 -0.5182229546 0.1036445909
0.6218675455 -0.4145783636 -0.0000000000
0.7255121364 -0.3109337727 -0.1036445909
0.8291567273 -0.2072891818 -0.2072891818
0.9328013182 -0.1036445909 -0.3109337727
0.3109337727 -0.9328013182 0.5182229546
0.4145783636 -0.8291567273 0.4145783636
0.5182229546 -0.7255121364 0.3109337727
0.6218675455 -0.6218675455 0.2072891818
0.7255121364 -0.5182229546 0.1036445909
0.8291567273 -0.4145783636 -0.0000000000
0.9328013182 -0.3109337727 -0.1036445909
1.0364459091 -0.2072891818 -0.2072891818
-0.5182229546 -0.1036445909 -0.1036445909
-0.4145783636 0.0000000000 -0.2072891818
-0.3109337727 0.1036445909 -0.3109337727
-0.2072891818 0.2072891818 -0.4145783636
-0.1036445909 0.3109337727 -0.5182229546
-0.0000000000 0.4145783636 -0.6218675455
0.1036445909 0.5182229546 -0.7255121364
0.2072891818 0.6218675455 -0.8291567273
-0.4145783636 -0.2072891818 -0.0000000000
-0.3109337727 -0.1036445909 -0.1036445909
-0.2072891818 0.0000000000 -0.2072891818
-0.1036445909 0.1036445909 -0.3109337727
-0.0000000000 0.2072891818 -0.4145783636
0.1036445909 0.3109337727 -0.5182229546
0.2072891818 0.4145783636 -0.6218675455
0.3109337727 0.5182229546 -0.7255121364
-0.3109337727 -0.3109337727 0.1036445909
-0.2072891818 -0.2072891818 -0.0000000000
-0.1036445909 -0.1036445909 -0.1036445909
-0.0000000000 0.0000000000 -0.2072891818
0.1036445909 0.1036445909 -0.3109337727
0.2072891818 0.2072891818 -0.4145783636
0.3109337727 0.3109337727 -0.5182229546
0.4145783636 0.4145783636 -0.6218675455
-0.2072891818 -0.4145783636 0.2072891818
-0.1036445909 -0.3109337727 0.1036445909
-0.0000000000 -0.2072891818 -0.0000000000
0.1036445909 -0.1036445909 -0.1036445909
0.2072891818 0.0000000000 -0.2072891818
0.3109337727 0.1036445909 -0.3109337727
0.4145783636 0.2072891818 -0.4145783636
0.5182229546 0.3109337727 -0.5182229546
-0.1036445909 -0.5182229546 0.3109337727
0.0000000000 -0.4145783636 0.2072891818
0.1036445909 -0.3109337727 0.1036445909
0.2072891818 -0.2072891818 -0.0000000000
0.3109337727 -0.1036445909 -0.1036445909
0.4145783636 0.0000000000 -0.2072891818
0.5182229546 0.1036445909 -0.3109337727
0.6218675455 0.2072891818 -0.4145783636
0.0000000000 -0.6218675455 0.4145783636
0.1036445909 -0.5182229546 0.3109337727
0.2072891818 -0.4145783636 0.2072891818
0.3109337727 -0.3109337727 0.1036445909
0.4145783636 -0.2072891818 -0.0000000000
0.5182229546 -0.1036445909 -0.1036445909
0.6218675455 0.0000000000 -0.2072891818
0.7255121364 0.1036445909 -0.3109337727
0.1036445909 -0.7255121364 0.5182229546
0.2072891818 -0.6218675455 0.4145783636
0.3109337727 -0.5182229546 0.3109337727
0.4145783636 -0.4145783636 0.2072891818
0.5182229546 -0.3109337727 0.1036445909
0.6218675455 -0.2072891818 -0.0000000000
0.7255121364 -0.1036445909 -0.1036445909
0.8291567273 0.0000000000 -0.2072891818
0.2072891818 -0.8291567273 0.6218675455
0.3109337727 -0.7255121364 0.5182229546
0.4145783636 -0.6218675455 0.4145783636
0.5182229546 -0.5182229546 0.3109337727
0.6218675455 -0.4145783636 0.2072891818
0.7255121364 -0.3109337727 0.1036445909
0.8291567273 -0.2072891818 -0.0000000000
0.9328013182 -0.1036445909 -0.1036445909
-0.6218675455 0.0000000000 0.0000000000
-0.5182229546 0.1036445909 -0.1036445909
-0.4145783636 0.2072891818 -0.2072891818
-0.3109337727 0.3109337727 -0.3109337727
-0.2072891818 0.4145783636 -0.4145783636
-0.1036445909 0.5182229546 -0.5182229546
-0.0000000000 0.6218675455 -0.6218675455
0.1036445909 0.7255121364 -0.7255121364
-0.5182229546 -0.1036445909 0.1036445909
-0.4145783636 0.0000000000 0.0000000000
-0.3109337727 0.1036445909 -0.1036445909
-0.2072891818 0.2072891818 -0.2072891818
-0.1036445909 0.3109337727 -0.3109337727
-0.0000000000 0.4145783636 -0.4145783636
0.1036445909 0.5182229546 -0.5182229546
0.2072891818 0.6218675455 -0.6218675455
-0.4145783636 -0.2072891818 0.2072891818
-0.3109337727 -0.1036445909 0.1036445909
-0.2072891818 0.0000000000 0.0000000000
-0.1036445909 0.1036445909 -0.1036445909
-0.0000000000 0.2072891818 -0.2072891818
0.1036445909 0.3109337727 -0.3109337727
0.2072891818 0.4145783636 -0.4145783636
0.3109337727 0.5182229546 -0.5182229546
-0.3109337727 -0.3109337727 0.3109337727
-0.2072891818 -0.2072891818 0.2072891818
-0.1036445909 -0.1036445909 0.1036445909
0.0000000000 0.0000000000 0.0000000000
0.1036445909 0.1036445909 -0.1036445909
0.2072891818 0.2072891818 -0.2072891818
0.3109337727 0.3109337727 -0.3109337727
0.4145783636 0.4145783636 -0.4145783636
-0.2072891818 -0.4145783636 0.4145783636
-0.1036445909 -0.3109337727 0.3109337727
0.0000000000 -0.2072891818 0.2072891818
0.1036445909 -0.1036445909 0.1036445909
0.2072891818 -0.0000000000 0.0000000000
0.3109337727 0.1036445909 -0.1036445909
0.4145783636 0.2072891818 -0.2072891818
0.5182229546 0.3109337727 -0.3109337727
-0.1036445909 -0.5182229546 0.5182229546
0.0000000000 -0.4145783636 0.4145783636
0.1036445909 -0.3109337727 0.3109337727
0.2072891818 -0.2072891818 0.2072891818
0.3109337727 -0.1036445909 0.1036445909
0.4145783636 -0.0000000000 0.0000000000
0.5182229546 0.1036445909 -0.1036445909
0.6218675455 0.2072891818 -0.2072891818
0.0000000000 -0.6218675455 0.6218675455
0.1036445909 -0.5182229546 0.5182229546
0.2072891818 -0.4145783636 0.4145783636
0.3109337727 -0.3109337727 0.3109337727
0.4145783636 -0.2072891818 0.2072891818
0.5182229546 -0.1036445909 0.1036445909
0.6218675455 -0.0000000000 0.0000000000
0.7255121364 0.1036445909 -0.1036445909
0.1036445909 -0.7255121364 0.7255121364
0.2072891818 -0.6218675455 0.6218675455
0.3109337727 -0.5182229546 0.5182229546
0.4145783636 -0.4145783636 0.4145783636
0.5182229546 -0.3109337727 0.3109337727
0.6218675455 -0.2072891818 0.2072891818
0.7255121364 -0.1036445909 0.1036445909
0.8291567273 -0.0000000000 0.0000000000
-0.7255121364 0.1036445909 0.1036445909
-0.6218675455 0.2072891818 0.0000000000
-0.5182229546 0.3109337727 -0.1036445909
-0.4145783636 0.4145783636 -0.2072891818
-0.3109337727 0.5182229546 -0.3109337727
-0.2072891818 0.6218675455 -0.4145783636
-0.1036445909 0.7255121364 -0.5182229546
-0.0000000000 0.8291567273 -0.6218675455
-0.6218675455 0.0000000000 0.2072891818
-0.5182229546 0.1036445909 0.1036445909
-0.4145783636 0.2072891818 0.0000000000
-0.3109337727 0.3109337727 -0.1036445909
-0.2072891818 0.4145783636 -0.2072891818
-0.1036445909 0.5182229546 -0.3109337727
-0.0000000000 0.6218675455 -0.4145783636
0.1036445909 0.7255121364 -0.5182229546
-0.5182229546 -0.1036445909 0.3109337727
-0.4145783636 -0.0000000000 0.2072891818
-0.3109337727 0.1036445909 0.1036445909
-0.2072891818 0.2072891818 0.0000000000
-0.1036445909 0.3109337727 -0.1036445909
-0.0000000000 0.4145783636 -0.2072891818
0.1036445909 0.5182229546 -0.3109337727
0.2072891818 0.6218675455 -0.4145783636
-0.4145783636 -0.2072891818 0.4145783636
-0.3109337727 -0.1036445909 0.3109337727
-0.2072891818 -0.0000000000 0.2072891818
-0.1036445909 0.1036445909 0.1036445909
0.0000000000 0.2072891818 0.0000000000
0.1036445909 0.3109337727 -0.1036445909
0.2072891818 0.4145783636 -0.2072891818
0.3109337727 0.5182229546 -0.3109337727
-0.3109337727 -0.3109337727 0.5182229546
-0.2072891818 -0.2072891818 0.4145783636
-0.1036445909 -0.1036445909 0.3109337727
0.0000000000 -0.0000000000 0.2072891818
0.1036445909 0.1036445909 0.1036445909
0.2072891818 0.2072891818 0.0000000000
0.3109337727 0.3109337727 -0.1036445909
0.4145783636 0.4145783636 -0.2072891818
-0.2072891818 -0.4145783636 0.6218675455
-0.1036445909 -0.3109337727 0.5182229546
0.0000000000 -0.2072891818 0.4145783636
0.1036445909 -0.1036445909 0.3109337727
0.2072891818 -0.0000000000 0.2072891818
0.3109337727 0.1036445909 0.1036445909
0.4145783636 0.2072891818 0.0000000000
0.5182229546 0.3109337727 -0.1036445909
-0.1036445909 -0.5182229546 0.7255121364
0.0000000000 -0.4145783636 0.6218675455
0.1036445909 -0.3109337727 0.5182229546
0.2072891818 -0.2072891818 0.4145783636
0.3109337727 -0.1036445909 0.3109337727
0.4145783636 -0.0000000000 0.2072891818
0.5182229546 0.1036445909 0.1036445909
0.6218675455 0.2072891818 0.0000000000
0.0000000000 -0.6218675455 0.8291567273
0.1036445909 -0.5182229546 0.7255121364
0.2072891818 -0.4145783636 0.6218675455
0.3109337727 -0.3109337727 0.5182229546
0.4145783636 -0.2072891818 0.4145783636
0.5182229546 -0.1036445909 0.3109337727
0.6218675455 -0.0000000000 0.2072891818
0.7255121364 0.1036445909 0.1036445909
-0.8291567273 0.2072891818 0.2072891818
-0.7255121364 0.3109337727 0.1036445909
-0.6218675455 0.4145783636 0.0000000000
-0.5182229546 0.5182229546 -0.1036445909
-0.4145783636 0.6218675455 -0.2072891818
-0.3109337727 0.7255121364 -0.3109337727
-0.2072891818 0.8291567273 -0.4145783636
-0.1036445909 0.9328013182 -0.5182229546
-0.7255121364 0.1036445909 0.3109337727
-0.6218675455 0.2072891818 0.2072891818
-0.5182229546 0.3109337727 0.1036445909
-0.4145783636 0.4145783636 0.0000000000
-0.3109337727 0.5182229546 -0.1036445909
-0.2072891818 0.6218675455 -0.2072891818
-0.1036445909 0.7255121364 -0.3109337727
-0.0000000000 0.8291567273 -0.4145783636
-0.6218675455 0.0000000000 0.4145783636
-0.5182229546 0.1036445909 0.3109337727
-0.4145783636 0.2072891818 0.2072891818
-0.3109337727 0.3109337727 0.1036445909
-0.2072891818 0.4145783636 0.0000000000
-0.1036445909 0.5182229546 -0.1036445909
0.0000000000 0.6218675455 -0.2072891818
0.1036445909 0.7255121364 -0.3109337727
-0.5182229546 -0.1036445909 0.5182229546
-0.4145783636 -0.0000000000 0.4145783636
-0.3109337727 0.1036445909 0.3109337727
-0.2072891818 0.2072891818 0.2072891818
-0.1036445909 0.3109337727 0.1036445909
0.0000000000 0.4145783636 0.0000000000
0.1036445909 0.5182229546 -0.1036445909
0.2072891818 0.6218675455 -0.2072891818
-0.4145783636 -0.2072891818 0.6218675455
-0.3109337727 -0.1036445909 0.5182229546
-0.2072891818 -0.0000000000 0.4145783636
-0.1036445909 0.1036445909 0.3109337727
0.0000000000 0.2072891818 0.2072891818
0.1036445909 0.3109337727 0.1036445909
0.2072891818 0.4145783636 0.0000000000
0.3109337727 0.5182229546 -0.1036445909
-0.3109337727 -0.3109337727 0.7255121364
-0.2072891818 -0.2072891818 0.6218675455
-0.1036445909 -0.1036445909 0.5182229546
0.0000000000 -0.0000000000 0.4145783636
0.1036445909 0.1036445909 0.3109337727
0.2072891818 0.2072891818 0.2072891818
0.3109337727 0.3109337727 0.1036445909
0.4145783636 0.4145783636 0.0000000000
-0.2072891818 -0.4145783636 0.8291567273
-0.1036445909 -0.3109337727 0.7255121364
0.0000000000 -0.2072891818 0.6218675455
0.1036445909 -0.1036445909 0.5182229546
0.2072891818 -0.0000000000 0.4145783636
0.3109337727 0.1036445909 0.3109337727
0.4145783636 0.2072891818 0.2072891818
0.5182229546 0.3109337727 0.1036445909
-0.1036445909 -0.5182229546 0.9328013182
0.0000000000 -0.4145783636 0.8291567273
0.1036445909 -0.3109337727 0.7255121364
0.2072891818 -0.2072891818 0.6218675455
0.3109337727 -0.1036445909 0.5182229546
0.4145783636 -0.0000000000 0.4145783636
0.5182229546 0.1036445909 0.3109337727
0.6218675455 0.2072891818 0.2072891818
-0.9328013182 0.3109337727 0.3109337727
-0.8291567273 0.4145783636 0.2072891818
-0.7255121364 0.5182229546 0.1036445909
-0.6218675455 0.6218675455 0.0000000000
-0.5182229546 0.7255121364 -0.1036445909
-0.4145783636 0.8291567273 -0.2072891818
-0.3109337727 0.9328013182 -0.3109337727
-0.2072891818 1.0364459091 -0.4145783636
-0.8291567273 0.2072891818 0.4145783636
-0.7255121364 0.3109337727 0.3109337727
-0.6218675455 0.4145783636 0.2072891818
-0.5182229546 0.5182229546 0.1036445909
-0.4145783636 0.6218675455 0.0000000000
-0.3109337727 0.7255121364 -0.1036445909
-0.2072891818 0.8291567273 -0.2072891818
-0.1036445909 0.9328013182 -0.3109337727
-0.7255121364 0.1036445909 0.5182229546
-0.6218675455 0.2072891818 0.4145783636
-0.5182229546 0.3109337727 0.3109337727
-0.4145783636 0.4145783636 0.2072891818
-0.3109337727 0.5182229546 0.1036445909
-0.2072891818 0.6218675455 0.0000000000
-0.1036445909 0.7255121364 -0.1036445909
0.0000000000 0.8291567273 -0.2072891818
-0.6218675455 -0.0000000000 0.6218675455
-0.5182229546 0.1036445909 0.5182229546
-0.4145783636 0.2072891818 0.4145783636
-0.3109337727 0.3109337727 0.3109337727
-0.2072891818 0.4145783636 0.2072891818
-0.1036445909 0.5182229546 0.1036445909
0.0000000000 0.6218675455 0.0000000000
0.1036445909 0.7255121364 -0.1036445909
-0.5182229546 -0.1036445909 0.7255121364
-0.4145783636 -0.0000000000 0.6218675455
-0.3109337727 0.1036445909 0.5182229546
-0.2072891818 0.2072891818 0.4145783636
-0.1036445909 0.3109337727 0.3109337727
0.0000000000 0.4145783636 0.2072891818
0.1036445909 0.5182229546 0.1036445909
0.2072891818 0.6218675455 0.0000000000
-0.4145783636 -0.2072891818 0.8291567273
-0.3109337727 -0.1036445909 0.7255121364
-0.2072891818 -0.0000000000 0.6218675455
-0.1036445909 0.1036445909 0.5182229546
0.0000000000 0.2072891818 0.4145783636
0.1036445909 0.3109337727 0.3109337727
0.2072891818 0.4145783636 0.2072891818
0.3109337727 0.5182229546 0.1036445909
-0.3109337727 -0.3109337727 0.9328013182
-0.2072891818 -0.2072891818 0.8291567273
-0.1036445909 -0.1036445909 0.7255121364
0.0000000000 -0.0000000000 0.6218675455
0.1036445909 0.1036445909 0.5182229546
0.2072891818 0.2072891818 0.4145783636
0.3109337727 0.3109337727 0.3109337727
0.4145783636 0.4145783636 0.2072891818
-0.2072891818 -0.4145783636 1.0364459091
-0.1036445909 -0.3109337727 0.9328013182
0.0000000000 -0.2072891818 0.8291567273
0.1036445909 -0.1036445909 0.7255121364
0.2072891818 -0.0000000000 0.6218675455
0.3109337727 0.1036445909 0.5182229546
0.4145783636 0.2072891818 0.4145783636
0.5182229546 0.3109337727 0.3109337727
-1.0364459091 0.4145783636 0.4145783636
-0.9328013182 0.5182229546 0.3109337727
-0.8291567273 0.6218675455 0.2072891818
-0.7255121364 0.7255121364 0.1036445909
-0.6218675455 0.8291567273 0.0000000000
-0.5182229546 0.9328013182 -0.1036445909
-0.4145783636 1.0364459091 -0.2072891818
-0.3109337727 1.1400905000 -0.3109337727
-0.9328013182 0.3109337727 0.5182229546
-0.8291567273 0.4145783636 0.4145783636
-0.7255121364 0.5182229546 0.3109337727
-0.6218675455 0.6218675455 0.2072891818
-0.5182229546 0.7255121364 0.1036445909
-0.4145783636 0.8291567273 0.0000000000
-0.3109337727 0.9328013182 -0.1036445909
-0.2072891818 1.0364459091 -0.2072891818
-0.8291567273 0.2072891818 0.6218675455
-0.7255121364 0.3109337727 0.5182229546
-0.6218675455 0.4145783636 0.4145783636
-0.5182229546 0.5182229546 0.3109337727
-0.4145783636 0.6218675455 0.2072891818
-0.3109337727 0.7255121364 0.1036445909
-0.2072891818 0.8291567273 0.0000000000
-0.1036445909 0.9328013182 -0.1036445909
-0.7255121364 0.1036445909 0.7255121364
-0.6218675455 0.2072891818 0.6218675455
-0.5182229546 0.3109337727 0.5182229546
-0.4145783636 0.4145783636 0.4145783636
-0.3109337727 0.5182229546 0.3109337727
-0.2072891818 0.6218675455 0.2072891818
-0.1036445909 0.7255121364 0.1036445909
0.0000000000 0.8291567273 0.0000000000
-0.6218675455 -0.0000000000 0.8291567273
-0.5182229546 0.1036445909 0.7255121364
-0.4145783636 0.2072891818 0.6218675455
-0.3109337727 0.3109337727 0.5182229546
-0.2072891818 0.4145783636 0.4145783636
-0.1036445909 0.5182229546 0.3109337727
0.0000000000 0.6218675455 0.2072891818
0.1036445909 0.7255121364 0.1036445909
-0.5182229546 -0.1036445909 0.9328013182
-0.4145783636 -0.0000000000 0.8291567273
-0.3109337727 0.1036445909 0.7255121364
-0.2072891818 0.2072891818 0.6218675455
-0.1036445909 0.3109337727 0.5182229546
0.0000000000 0.4145783636 0.4145783636
0.1036445909 0.5182229546 0.3109337727
0.2072891818 0.6218675455 0.2072891818
-0.4145783636 -0.2072891818 1.0364459091
-0.3109337727 -0.1036445909 0.9328013182
-0.2072891818 -0.0000000000 0.8291567273
-0.1036445909 0.1036445909 0.7255121364
0.0000000000 0.2072891818 0.6218675455
0.1036445909 0.3109337727 0.5182229546
0.2072891818 0.4145783636 0.4145783636
0.3109337727 0.5182229546 0.3109337727
-0.3109337727 -0.3109337727 1.1400905000
-0.2072891818 -0.2072891818 1.0364459091
-0.1036445909 -0.1036445909 0.9328013182
0.0000000000 -0.0000000000 0.8291567273
0.1036445909 0.1036445909 0.7255121364
0.2072891818 0.2072891818 0.6218675455
0.3109337727 0.3109337727 0.5182229546
0.4145783636 0.4145783636 0.4145783636
 There are 6 alpha and 6 beta electrons
 Start computing overlap matrix
 Allocate 4333568 B from available memory: 104857467232 B
 Time for computing overlap matrix: 16.5250000000 s
 ====== Initialize compute kernels for all-electron RI-J (kpts) ====== 
 ========================================================== 
 Range-separated parameter omega        = 0.900000000000000022
 Threshold for 1e2c shellpair           = 0.000000000000010000
 Threshold for 2e2c SR integral         = 0.000000000000000001
 Threshold for 2e3c SR integral         = 0.000000000100000000
 Threshold for AFT G-space screening is = 0.000000000001000000
 The exponent cutoff for C/D classification (omega2 / 2) is  = 0.405000000000000027
 ========================================================== 
 === Post process the basis set for RI calculation (exp_cutoff = 0.405000000000000027 ) === 
nshells_b1 before uncontraction = 11
nshells_b1 after uncontraction = 12
nshells_baux before uncontraction = 28
nshells_baux after uncontraction = 28
===============================================
nbsf total   = 26
nbsf compact = 14
nbsf diffuse = 12
naux total   = 96
naux compact = 96
naux diffuse = 0
nshells_bnuc = 2

 Number of unique atoms is 2
 Unique atom #0 (li) has 2 shells.
 Unique atom #1 (f) has 4 shells.

Shell 0 to 1 belongs to atom li
Shell 2 to 5 belongs to atom f

 Number of unique atoms is 2
 Unique atom #0 (li) has 4 shells.
 Unique atom #1 (f) has 2 shells.

Shell 0 to 3 belongs to atom li
Shell 4 to 5 belongs to atom f

 Number of unique atom is 2
 Unique atom #0 (li) has 13 auxiliary shells.
 Unique atom #1 (f) has 15 auxiliary shells.

Auxiliary Shell 0 to 12 belongs to atom li
Auxiliary Shell 13 to 27 belongs to atom f

================= Automatically determine grid size for reciprocal space summation =================
 Range-separated parameter = 0.90000000000000 and G-space screening threshold = 0.00000000000100
The number of grid points along each axis dimension is (7, 7, 7)
Total number of grid points = 3375

Use nonortho shellpair for diffuse density
======== Initializing relevant kernel for RIJ (DD type) ========
There are 21 shellpairs in the reference unit cell
There are 21037 images and we expect to have 441777 in total
There are 22367 shellpairs in the lattice sum after screening
======== Initializing relevant kernel for RIJ (CD type) ========
There are 36 shellpairs in the reference unit cell
There are 11345 images and we expect to have 408420 in total
There are 18422 shellpairs in the lattice sum after screening
****** AFT -> SR ******
Maximum bra distance cutoff is 38.000000000000
Maximum bra ket distance cutoff is 17.319928803145
Maximum bra ket screening distance is 16.812500000000
Number of auxiliary image is 3661
There are 36 shellpairs in the reference unit cell
There are 3661 images and we expect to have 131796 in total
There are 18422 shellpairs in the lattice sum after screening
Available memory per thread for 2e3c calculation is 3.276660427000Gb
Finish initializing 2e3c SR with the lattice sum!
=================================================
======== Initializing relevant kernel for RIJ (CC type) ========
There are 21 shellpairs in the reference unit cell
There are 527 images and we expect to have 11067 in total
There are 255 shellpairs in the lattice sum after screening
****** AFT -> SR ******
Maximum bra distance cutoff is 9.000000000000
Maximum bra ket distance cutoff is 18.479079330277
Maximum bra ket screening distance is 16.562500000000
Number of auxiliary image is 647
There are 21 shellpairs in the reference unit cell
There are 117 images and we expect to have 2457 in total
There are 255 shellpairs in the lattice sum after screening
Available memory per thread for 2e3c calculation is 3.276660427000Gb
Finish initializing 2e3c SR with the lattice sum!
=================================================
======== Initializing the SR component for Vnuc (CD type) ========
Maximum bra distance cutoff is 38.000000000000
Maximum bra ket distance cutoff is 8.157803433096
Maximum bra ket screening distance is 7.681203387974
Number of auxiliary image is 3661
There are 36 shellpairs in the reference unit cell
There are 3661 images and we expect to have 131796 in total
There are 18422 shellpairs in the lattice sum after screening
Available memory per thread for 2e3c calculation is 3.276660427000Gb
Finish initializing 2e3c SR with the lattice sum!
=================================================
======== Initialize the SR component for Vnuc (CC type) ========
Maximum bra distance cutoff is 9.000000000000
Maximum bra ket distance cutoff is 10.175490900892
Maximum bra ket screening distance is 6.800848225094
Number of auxiliary image is 213
There are 21 shellpairs in the reference unit cell
There are 117 images and we expect to have 2457 in total
There are 255 shellpairs in the lattice sum after screening
Available memory per thread for 2e3c calculation is 3.276660427000Gb
Finish initializing 2e3c SR with the lattice sum!
=================================================
 Aufbau occupation scheme, occupation determined by eigenvalue
 == 0-th k-point nmo = 22 (-0.31093,-0.31093,-0.31093) ==
 == 1-th k-point nmo = 22 (-0.20729,-0.20729,-0.41458) ==
 == 2-th k-point nmo = 22 (-0.10364,-0.10364,-0.51822) ==
 == 3-th k-point nmo = 22 (-0.00000,0.00000,-0.62187) ==
 == 4-th k-point nmo = 22 (0.10364,0.10364,-0.72551) ==
 == 5-th k-point nmo = 22 (0.20729,0.20729,-0.82916) ==
 == 6-th k-point nmo = 22 (0.31093,0.31093,-0.93280) ==
 == 7-th k-point nmo = 22 (0.41458,0.41458,-1.03645) ==
 == 8-th k-point nmo = 22 (-0.20729,-0.41458,-0.20729) ==
 == 9-th k-point nmo = 22 (-0.10364,-0.31093,-0.31093) ==
 == 10-th k-point nmo = 22 (-0.00000,-0.20729,-0.41458) ==
 == 11-th k-point nmo = 22 (0.10364,-0.10364,-0.51822) ==
 == 12-th k-point nmo = 22 (0.20729,0.00000,-0.62187) ==
 == 13-th k-point nmo = 22 (0.31093,0.10364,-0.72551) ==
 == 14-th k-point nmo = 22 (0.41458,0.20729,-0.82916) ==
 == 15-th k-point nmo = 22 (0.51822,0.31093,-0.93280) ==
 == 16-th k-point nmo = 22 (-0.10364,-0.51822,-0.10364) ==
 == 17-th k-point nmo = 22 (-0.00000,-0.41458,-0.20729) ==
 == 18-th k-point nmo = 22 (0.10364,-0.31093,-0.31093) ==
 == 19-th k-point nmo = 22 (0.20729,-0.20729,-0.41458) ==
 == 20-th k-point nmo = 22 (0.31093,-0.10364,-0.51822) ==
 == 21-th k-point nmo = 22 (0.41458,0.00000,-0.62187) ==
 == 22-th k-point nmo = 22 (0.51822,0.10364,-0.72551) ==
 == 23-th k-point nmo = 22 (0.62187,0.20729,-0.82916) ==
 == 24-th k-point nmo = 22 (-0.00000,-0.62187,-0.00000) ==
 == 25-th k-point nmo = 22 (0.10364,-0.51822,-0.10364) ==
 == 26-th k-point nmo = 22 (0.20729,-0.41458,-0.20729) ==
 == 27-th k-point nmo = 22 (0.31093,-0.31093,-0.31093) ==
 == 28-th k-point nmo = 22 (0.41458,-0.20729,-0.41458) ==
 == 29-th k-point nmo = 22 (0.51822,-0.10364,-0.51822) ==
 == 30-th k-point nmo = 22 (0.62187,0.00000,-0.62187) ==
 == 31-th k-point nmo = 22 (0.72551,0.10364,-0.72551) ==
 == 32-th k-point nmo = 22 (0.10364,-0.72551,0.10364) ==
 == 33-th k-point nmo = 22 (0.20729,-0.62187,-0.00000) ==
 == 34-th k-point nmo = 22 (0.31093,-0.51822,-0.10364) ==
 == 35-th k-point nmo = 22 (0.41458,-0.41458,-0.20729) ==
 == 36-th k-point nmo = 22 (0.51822,-0.31093,-0.31093) ==
 == 37-th k-point nmo = 22 (0.62187,-0.20729,-0.41458) ==
 == 38-th k-point nmo = 22 (0.72551,-0.10364,-0.51822) ==
 == 39-th k-point nmo = 22 (0.82916,0.00000,-0.62187) ==
 == 40-th k-point nmo = 22 (0.20729,-0.82916,0.20729) ==
 == 41-th k-point nmo = 22 (0.31093,-0.72551,0.10364) ==
 == 42-th k-point nmo = 22 (0.41458,-0.62187,-0.00000) ==
 == 43-th k-point nmo = 22 (0.51822,-0.51822,-0.10364) ==
 == 44-th k-point nmo = 22 (0.62187,-0.41458,-0.20729) ==
 == 45-th k-point nmo = 22 (0.72551,-0.31093,-0.31093) ==
 == 46-th k-point nmo = 22 (0.82916,-0.20729,-0.41458) ==
 == 47-th k-point nmo = 22 (0.93280,-0.10364,-0.51822) ==
 == 48-th k-point nmo = 22 (0.31093,-0.93280,0.31093) ==
 == 49-th k-point nmo = 22 (0.41458,-0.82916,0.20729) ==
 == 50-th k-point nmo = 22 (0.51822,-0.72551,0.10364) ==
 == 51-th k-point nmo = 22 (0.62187,-0.62187,-0.00000) ==
 == 52-th k-point nmo = 22 (0.72551,-0.51822,-0.10364) ==
 == 53-th k-point nmo = 22 (0.82916,-0.41458,-0.20729) ==
 == 54-th k-point nmo = 22 (0.93280,-0.31093,-0.31093) ==
 == 55-th k-point nmo = 22 (1.03645,-0.20729,-0.41458) ==
 == 56-th k-point nmo = 22 (0.41458,-1.03645,0.41458) ==
 == 57-th k-point nmo = 22 (0.51822,-0.93280,0.31093) ==
 == 58-th k-point nmo = 22 (0.62187,-0.82916,0.20729) ==
 == 59-th k-point nmo = 22 (0.72551,-0.72551,0.10364) ==
 == 60-th k-point nmo = 22 (0.82916,-0.62187,-0.00000) ==
 == 61-th k-point nmo = 22 (0.93280,-0.51822,-0.10364) ==
 == 62-th k-point nmo = 22 (1.03645,-0.41458,-0.20729) ==
 == 63-th k-point nmo = 22 (1.14009,-0.31093,-0.31093) ==
 == 64-th k-point nmo = 22 (-0.41458,-0.20729,-0.20729) ==
 == 65-th k-point nmo = 22 (-0.31093,-0.10364,-0.31093) ==
 == 66-th k-point nmo = 22 (-0.20729,0.00000,-0.41458) ==
 == 67-th k-point nmo = 22 (-0.10364,0.10364,-0.51822) ==
 == 68-th k-point nmo = 22 (-0.00000,0.20729,-0.62187) ==
 == 69-th k-point nmo = 22 (0.10364,0.31093,-0.72551) ==
 == 70-th k-point nmo = 22 (0.20729,0.41458,-0.82916) ==
 == 71-th k-point nmo = 22 (0.31093,0.51822,-0.93280) ==
 == 72-th k-point nmo = 22 (-0.31093,-0.31093,-0.10364) ==
 == 73-th k-point nmo = 22 (-0.20729,-0.20729,-0.20729) ==
 == 74-th k-point nmo = 22 (-0.10364,-0.10364,-0.31093) ==
 == 75-th k-point nmo = 22 (-0.00000,0.00000,-0.41458) ==
 == 76-th k-point nmo = 22 (0.10364,0.10364,-0.51822) ==
 == 77-th k-point nmo = 22 (0.20729,0.20729,-0.62187) ==
 == 78-th k-point nmo = 22 (0.31093,0.31093,-0.72551) ==
 == 79-th k-point nmo = 22 (0.41458,0.41458,-0.82916) ==
 == 80-th k-point nmo = 22 (-0.20729,-0.41458,-0.00000) ==
 == 81-th k-point nmo = 22 (-0.10364,-0.31093,-0.10364) ==
 == 82-th k-point nmo = 22 (-0.00000,-0.20729,-0.20729) ==
 == 83-th k-point nmo = 22 (0.10364,-0.10364,-0.31093) ==
 == 84-th k-point nmo = 22 (0.20729,0.00000,-0.41458) ==
 == 85-th k-point nmo = 22 (0.31093,0.10364,-0.51822) ==
 == 86-th k-point nmo = 22 (0.41458,0.20729,-0.62187) ==
 == 87-th k-point nmo = 22 (0.51822,0.31093,-0.72551) ==
 == 88-th k-point nmo = 22 (-0.10364,-0.51822,0.10364) ==
 == 89-th k-point nmo = 22 (-0.00000,-0.41458,-0.00000) ==
 == 90-th k-point nmo = 22 (0.10364,-0.31093,-0.10364) ==
 == 91-th k-point nmo = 22 (0.20729,-0.20729,-0.20729) ==
 == 92-th k-point nmo = 22 (0.31093,-0.10364,-0.31093) ==
 == 93-th k-point nmo = 22 (0.41458,0.00000,-0.41458) ==
 == 94-th k-point nmo = 22 (0.51822,0.10364,-0.51822) ==
 == 95-th k-point nmo = 22 (0.62187,0.20729,-0.62187) ==
 == 96-th k-point nmo = 22 (0.00000,-0.62187,0.20729) ==
 == 97-th k-point nmo = 22 (0.10364,-0.51822,0.10364) ==
 == 98-th k-point nmo = 22 (0.20729,-0.41458,-0.00000) ==
 == 99-th k-point nmo = 22 (0.31093,-0.31093,-0.10364) ==
 == 100-th k-point nmo = 22 (0.41458,-0.20729,-0.20729) ==
 == 101-th k-point nmo = 22 (0.51822,-0.10364,-0.31093) ==
 == 102-th k-point nmo = 22 (0.62187,0.00000,-0.41458) ==
 == 103-th k-point nmo = 22 (0.72551,0.10364,-0.51822) ==
 == 104-th k-point nmo = 22 (0.10364,-0.72551,0.31093) ==
 == 105-th k-point nmo = 22 (0.20729,-0.62187,0.20729) ==
 == 106-th k-point nmo = 22 (0.31093,-0.51822,0.10364) ==
 == 107-th k-point nmo = 22 (0.41458,-0.41458,-0.00000) ==
 == 108-th k-point nmo = 22 (0.51822,-0.31093,-0.10364) ==
 == 109-th k-point nmo = 22 (0.62187,-0.20729,-0.20729) ==
 == 110-th k-point nmo = 22 (0.72551,-0.10364,-0.31093) ==
 == 111-th k-point nmo = 22 (0.82916,0.00000,-0.41458) ==
 == 112-th k-point nmo = 22 (0.20729,-0.82916,0.41458) ==
 == 113-th k-point nmo = 22 (0.31093,-0.72551,0.31093) ==
 == 114-th k-point nmo = 22 (0.41458,-0.62187,0.20729) ==
 == 115-th k-point nmo = 22 (0.51822,-0.51822,0.10364) ==
 == 116-th k-point nmo = 22 (0.62187,-0.41458,-0.00000) ==
 == 117-th k-point nmo = 22 (0.72551,-0.31093,-0.10364) ==
 == 118-th k-point nmo = 22 (0.82916,-0.20729,-0.20729) ==
 == 119-th k-point nmo = 22 (0.93280,-0.10364,-0.31093) ==
 == 120-th k-point nmo = 22 (0.31093,-0.93280,0.51822) ==
 == 121-th k-point nmo = 22 (0.41458,-0.82916,0.41458) ==
 == 122-th k-point nmo = 22 (0.51822,-0.72551,0.31093) ==
 == 123-th k-point nmo = 22 (0.62187,-0.62187,0.20729) ==
 == 124-th k-point nmo = 22 (0.72551,-0.51822,0.10364) ==
 == 125-th k-point nmo = 22 (0.82916,-0.41458,-0.00000) ==
 == 126-th k-point nmo = 22 (0.93280,-0.31093,-0.10364) ==
 == 127-th k-point nmo = 22 (1.03645,-0.20729,-0.20729) ==
 == 128-th k-point nmo = 22 (-0.51822,-0.10364,-0.10364) ==
 == 129-th k-point nmo = 22 (-0.41458,0.00000,-0.20729) ==
 == 130-th k-point nmo = 22 (-0.31093,0.10364,-0.31093) ==
 == 131-th k-point nmo = 22 (-0.20729,0.20729,-0.41458) ==
 == 132-th k-point nmo = 22 (-0.10364,0.31093,-0.51822) ==
 == 133-th k-point nmo = 22 (-0.00000,0.41458,-0.62187) ==
 == 134-th k-point nmo = 22 (0.10364,0.51822,-0.72551) ==
 == 135-th k-point nmo = 22 (0.20729,0.62187,-0.82916) ==
 == 136-th k-point nmo = 22 (-0.41458,-0.20729,-0.00000) ==
 == 137-th k-point nmo = 22 (-0.31093,-0.10364,-0.10364) ==
 == 138-th k-point nmo = 22 (-0.20729,0.00000,-0.20729) ==
 == 139-th k-point nmo = 22 (-0.10364,0.10364,-0.31093) ==
 == 140-th k-point nmo = 22 (-0.00000,0.20729,-0.41458) ==
 == 141-th k-point nmo = 22 (0.10364,0.31093,-0.51822) ==
 == 142-th k-point nmo = 22 (0.20729,0.41458,-0.62187) ==
 == 143-th k-point nmo = 22 (0.31093,0.51822,-0.72551) ==
 == 144-th k-point nmo = 22 (-0.31093,-0.31093,0.10364) ==
 == 145-th k-point nmo = 22 (-0.20729,-0.20729,-0.00000) ==
 == 146-th k-point nmo = 22 (-0.10364,-0.10364,-0.10364) ==
 == 147-th k-point nmo = 22 (-0.00000,0.00000,-0.20729) ==
 == 148-th k-point nmo = 22 (0.10364,0.10364,-0.31093) ==
 == 149-th k-point nmo = 22 (0.20729,0.20729,-0.41458) ==
 == 150-th k-point nmo = 22 (0.31093,0.31093,-0.51822) ==
 == 151-th k-point nmo = 22 (0.41458,0.41458,-0.62187) ==
 == 152-th k-point nmo = 22 (-0.20729,-0.41458,0.20729) ==
 == 153-th k-point nmo = 22 (-0.10364,-0.31093,0.10364) ==
 == 154-th k-point nmo = 22 (-0.00000,-0.20729,-0.00000) ==
 == 155-th k-point nmo = 22 (0.10364,-0.10364,-0.10364) ==
 == 156-th k-point nmo = 22 (0.20729,0.00000,-0.20729) ==
 == 157-th k-point nmo = 22 (0.31093,0.10364,-0.31093) ==
 == 158-th k-point nmo = 22 (0.41458,0.20729,-0.41458) ==
 == 159-th k-point nmo = 22 (0.51822,0.31093,-0.51822) ==
 == 160-th k-point nmo = 22 (-0.10364,-0.51822,0.31093) ==
 == 161-th k-point nmo = 22 (0.00000,-0.41458,0.20729) ==
 == 162-th k-point nmo = 22 (0.10364,-0.31093,0.10364) ==
 == 163-th k-point nmo = 22 (0.20729,-0.20729,-0.00000) ==
 == 164-th k-point nmo = 22 (0.31093,-0.10364,-0.10364) ==
 == 165-th k-point nmo = 22 (0.41458,0.00000,-0.20729) ==
 == 166-th k-point nmo = 22 (0.51822,0.10364,-0.31093) ==
 == 167-th k-point nmo = 22 (0.62187,0.20729,-0.41458) ==
 == 168-th k-point nmo = 22 (0.00000,-0.62187,0.41458) ==
 == 169-th k-point nmo = 22 (0.10364,-0.51822,0.31093) ==
 == 170-th k-point nmo = 22 (0.20729,-0.41458,0.20729) ==
 == 171-th k-point nmo = 22 (0.31093,-0.31093,0.10364) ==
 == 172-th k-point nmo = 22 (0.41458,-0.20729,-0.00000) ==
 == 173-th k-point nmo = 22 (0.51822,-0.10364,-0.10364) ==
 == 174-th k-point nmo = 22 (0.62187,0.00000,-0.20729) ==
 == 175-th k-point nmo = 22 (0.72551,0.10364,-0.31093) ==
 == 176-th k-point nmo = 22 (0.10364,-0.72551,0.51822) ==
 == 177-th k-point nmo = 22 (0.20729,-0.62187,0.41458) ==
 == 178-th k-point nmo = 22 (0.31093,-0.51822,0.31093) ==
 == 179-th k-point nmo = 22 (0.41458,-0.41458,0.20729) ==
 == 180-th k-point nmo = 22 (0.51822,-0.31093,0.10364) ==
 == 181-th k-point nmo = 22 (0.62187,-0.20729,-0.00000) ==
 == 182-th k-point nmo = 22 (0.72551,-0.10364,-0.10364) ==
 == 183-th k-point nmo = 22 (0.82916,0.00000,-0.20729) ==
 == 184-th k-point nmo = 22 (0.20729,-0.82916,0.62187) ==
 == 185-th k-point nmo = 22 (0.31093,-0.72551,0.51822) ==
 == 186-th k-point nmo = 22 (0.41458,-0.62187,0.41458) ==
 == 187-th k-point nmo = 22 (0.51822,-0.51822,0.31093) ==
 == 188-th k-point nmo = 22 (0.62187,-0.41458,0.20729) ==
 == 189-th k-point nmo = 22 (0.72551,-0.31093,0.10364) ==
 == 190-th k-point nmo = 22 (0.82916,-0.20729,-0.00000) ==
 == 191-th k-point nmo = 22 (0.93280,-0.10364,-0.10364) ==
 == 192-th k-point nmo = 22 (-0.62187,0.00000,0.00000) ==
 == 193-th k-point nmo = 22 (-0.51822,0.10364,-0.10364) ==
 == 194-th k-point nmo = 22 (-0.41458,0.20729,-0.20729) ==
 == 195-th k-point nmo = 22 (-0.31093,0.31093,-0.31093) ==
 == 196-th k-point nmo = 22 (-0.20729,0.41458,-0.41458) ==
 == 197-th k-point nmo = 22 (-0.10364,0.51822,-0.51822) ==
 == 198-th k-point nmo = 22 (-0.00000,0.62187,-0.62187) ==
 == 199-th k-point nmo = 22 (0.10364,0.72551,-0.72551) ==
 == 200-th k-point nmo = 22 (-0.51822,-0.10364,0.10364) ==
 == 201-th k-point nmo = 22 (-0.41458,0.00000,0.00000) ==
 == 202-th k-point nmo = 22 (-0.31093,0.10364,-0.10364) ==
 == 203-th k-point nmo = 22 (-0.20729,0.20729,-0.20729) ==
 == 204-th k-point nmo = 22 (-0.10364,0.31093,-0.31093) ==
 == 205-th k-point nmo = 22 (-0.00000,0.41458,-0.41458) ==
 == 206-th k-point nmo = 22 (0.10364,0.51822,-0.51822) ==
 == 207-th k-point nmo = 22 (0.20729,0.62187,-0.62187) ==
 == 208-th k-point nmo = 22 (-0.41458,-0.20729,0.20729) ==
 == 209-th k-point nmo = 22 (-0.31093,-0.10364,0.10364) ==
 == 210-th k-point nmo = 22 (-0.20729,0.00000,0.00000) ==
 == 211-th k-point nmo = 22 (-0.10364,0.10364,-0.10364) ==
 == 212-th k-point nmo = 22 (-0.00000,0.20729,-0.20729) ==
 == 213-th k-point nmo = 22 (0.10364,0.31093,-0.31093) ==
 == 214-th k-point nmo = 22 (0.20729,0.41458,-0.41458) ==
 == 215-th k-point nmo = 22 (0.31093,0.51822,-0.51822) ==
 == 216-th k-point nmo = 22 (-0.31093,-0.31093,0.31093) ==
 == 217-th k-point nmo = 22 (-0.20729,-0.20729,0.20729) ==
 == 218-th k-point nmo = 22 (-0.10364,-0.10364,0.10364) ==
 == 219-th k-point nmo = 22 (0.00000,0.00000,0.00000) ==
 == 220-th k-point nmo = 22 (0.10364,0.10364,-0.10364) ==
 == 221-th k-point nmo = 22 (0.20729,0.20729,-0.20729) ==
 == 222-th k-point nmo = 22 (0.31093,0.31093,-0.31093) ==
 == 223-th k-point nmo = 22 (0.41458,0.41458,-0.41458) ==
 == 224-th k-point nmo = 22 (-0.20729,-0.41458,0.41458) ==
 == 225-th k-point nmo = 22 (-0.10364,-0.31093,0.31093) ==
 == 226-th k-point nmo = 22 (0.00000,-0.20729,0.20729) ==
 == 227-th k-point nmo = 22 (0.10364,-0.10364,0.10364) ==
 == 228-th k-point nmo = 22 (0.20729,-0.00000,0.00000) ==
 == 229-th k-point nmo = 22 (0.31093,0.10364,-0.10364) ==
 == 230-th k-point nmo = 22 (0.41458,0.20729,-0.20729) ==
 == 231-th k-point nmo = 22 (0.51822,0.31093,-0.31093) ==
 == 232-th k-point nmo = 22 (-0.10364,-0.51822,0.51822) ==
 == 233-th k-point nmo = 22 (0.00000,-0.41458,0.41458) ==
 == 234-th k-point nmo = 22 (0.10364,-0.31093,0.31093) ==
 == 235-th k-point nmo = 22 (0.20729,-0.20729,0.20729) ==
 == 236-th k-point nmo = 22 (0.31093,-0.10364,0.10364) ==
 == 237-th k-point nmo = 22 (0.41458,-0.00000,0.00000) ==
 == 238-th k-point nmo = 22 (0.51822,0.10364,-0.10364) ==
 == 239-th k-point nmo = 22 (0.62187,0.20729,-0.20729) ==
 == 240-th k-point nmo = 22 (0.00000,-0.62187,0.62187) ==
 == 241-th k-point nmo = 22 (0.10364,-0.51822,0.51822) ==
 == 242-th k-point nmo = 22 (0.20729,-0.41458,0.41458) ==
 == 243-th k-point nmo = 22 (0.31093,-0.31093,0.31093) ==
 == 244-th k-point nmo = 22 (0.41458,-0.20729,0.20729) ==
 == 245-th k-point nmo = 22 (0.51822,-0.10364,0.10364) ==
 == 246-th k-point nmo = 22 (0.62187,-0.00000,0.00000) ==
 == 247-th k-point nmo = 22 (0.72551,0.10364,-0.10364) ==
 == 248-th k-point nmo = 22 (0.10364,-0.72551,0.72551) ==
 == 249-th k-point nmo = 22 (0.20729,-0.62187,0.62187) ==
 == 250-th k-point nmo = 22 (0.31093,-0.51822,0.51822) ==
 == 251-th k-point nmo = 22 (0.41458,-0.41458,0.41458) ==
 == 252-th k-point nmo = 22 (0.51822,-0.31093,0.31093) ==
 == 253-th k-point nmo = 22 (0.62187,-0.20729,0.20729) ==
 == 254-th k-point nmo = 22 (0.72551,-0.10364,0.10364) ==
 == 255-th k-point nmo = 22 (0.82916,-0.00000,0.00000) ==
 == 256-th k-point nmo = 22 (-0.72551,0.10364,0.10364) ==
 == 257-th k-point nmo = 22 (-0.62187,0.20729,0.00000) ==
 == 258-th k-point nmo = 22 (-0.51822,0.31093,-0.10364) ==
 == 259-th k-point nmo = 22 (-0.41458,0.41458,-0.20729) ==
 == 260-th k-point nmo = 22 (-0.31093,0.51822,-0.31093) ==
 == 261-th k-point nmo = 22 (-0.20729,0.62187,-0.41458) ==
 == 262-th k-point nmo = 22 (-0.10364,0.72551,-0.51822) ==
 == 263-th k-point nmo = 22 (-0.00000,0.82916,-0.62187) ==
 == 264-th k-point nmo = 22 (-0.62187,0.00000,0.20729) ==
 == 265-th k-point nmo = 22 (-0.51822,0.10364,0.10364) ==
 == 266-th k-point nmo = 22 (-0.41458,0.20729,0.00000) ==
 == 267-th k-point nmo = 22 (-0.31093,0.31093,-0.10364) ==
 == 268-th k-point nmo = 22 (-0.20729,0.41458,-0.20729) ==
 == 269-th k-point nmo = 22 (-0.10364,0.51822,-0.31093) ==
 == 270-th k-point nmo = 22 (-0.00000,0.62187,-0.41458) ==
 == 271-th k-point nmo = 22 (0.10364,0.72551,-0.51822) ==
 == 272-th k-point nmo = 22 (-0.51822,-0.10364,0.31093) ==
 == 273-th k-point nmo = 22 (-0.41458,-0.00000,0.20729) ==
 == 274-th k-point nmo = 22 (-0.31093,0.10364,0.10364) ==
 == 275-th k-point nmo = 22 (-0.20729,0.20729,0.00000) ==
 == 276-th k-point nmo = 22 (-0.10364,0.31093,-0.10364) ==
 == 277-th k-point nmo = 22 (-0.00000,0.41458,-0.20729) ==
 == 278-th k-point nmo = 22 (0.10364,0.51822,-0.31093) ==
 == 279-th k-point nmo = 22 (0.20729,0.62187,-0.41458) ==
 == 280-th k-point nmo = 22 (-0.41458,-0.20729,0.41458) ==
 == 281-th k-point nmo = 22 (-0.31093,-0.10364,0.31093) ==
 == 282-th k-point nmo = 22 (-0.20729,-0.00000,0.20729) ==
 == 283-th k-point nmo = 22 (-0.10364,0.10364,0.10364) ==
 == 284-th k-point nmo = 22 (0.00000,0.20729,0.00000) ==
 == 285-th k-point nmo = 22 (0.10364,0.31093,-0.10364) ==
 == 286-th k-point nmo = 22 (0.20729,0.41458,-0.20729) ==
 == 287-th k-point nmo = 22 (0.31093,0.51822,-0.31093) ==
 == 288-th k-point nmo = 22 (-0.31093,-0.31093,0.51822) ==
 == 289-th k-point nmo = 22 (-0.20729,-0.20729,0.41458) ==
 == 290-th k-point nmo = 22 (-0.10364,-0.10364,0.31093) ==
 == 291-th k-point nmo = 22 (0.00000,-0.00000,0.20729) ==
 == 292-th k-point nmo = 22 (0.10364,0.10364,0.10364) ==
 == 293-th k-point nmo = 22 (0.20729,0.20729,0.00000) ==
 == 294-th k-point nmo = 22 (0.31093,0.31093,-0.10364) ==
 == 295-th k-point nmo = 22 (0.41458,0.41458,-0.20729) ==
 == 296-th k-point nmo = 22 (-0.20729,-0.41458,0.62187) ==
 == 297-th k-point nmo = 22 (-0.10364,-0.31093,0.51822) ==
 == 298-th k-point nmo = 22 (0.00000,-0.20729,0.41458) ==
 == 299-th k-point nmo = 22 (0.10364,-0.10364,0.31093) ==
 == 300-th k-point nmo = 22 (0.20729,-0.00000,0.20729) ==
 == 301-th k-point nmo = 22 (0.31093,0.10364,0.10364) ==
 == 302-th k-point nmo = 22 (0.41458,0.20729,0.00000) ==
 == 303-th k-point nmo = 22 (0.51822,0.31093,-0.10364) ==
 == 304-th k-point nmo = 22 (-0.10364,-0.51822,0.72551) ==
 == 305-th k-point nmo = 22 (0.00000,-0.41458,0.62187) ==
 == 306-th k-point nmo = 22 (0.10364,-0.31093,0.51822) ==
 == 307-th k-point nmo = 22 (0.20729,-0.20729,0.41458) ==
 == 308-th k-point nmo = 22 (0.31093,-0.10364,0.31093) ==
 == 309-th k-point nmo = 22 (0.41458,-0.00000,0.20729) ==
 == 310-th k-point nmo = 22 (0.51822,0.10364,0.10364) ==
 == 311-th k-point nmo = 22 (0.62187,0.20729,0.00000) ==
 == 312-th k-point nmo = 22 (0.00000,-0.62187,0.82916) ==
 == 313-th k-point nmo = 22 (0.10364,-0.51822,0.72551) ==
 == 314-th k-point nmo = 22 (0.20729,-0.41458,0.62187) ==
 == 315-th k-point nmo = 22 (0.31093,-0.31093,0.51822) ==
 == 316-th k-point nmo = 22 (0.41458,-0.20729,0.41458) ==
 == 317-th k-point nmo = 22 (0.51822,-0.10364,0.31093) ==
 == 318-th k-point nmo = 22 (0.62187,-0.00000,0.20729) ==
 == 319-th k-point nmo = 22 (0.72551,0.10364,0.10364) ==
 == 320-th k-point nmo = 22 (-0.82916,0.20729,0.20729) ==
 == 321-th k-point nmo = 22 (-0.72551,0.31093,0.10364) ==
 == 322-th k-point nmo = 22 (-0.62187,0.41458,0.00000) ==
 == 323-th k-point nmo = 22 (-0.51822,0.51822,-0.10364) ==
 == 324-th k-point nmo = 22 (-0.41458,0.62187,-0.20729) ==
 == 325-th k-point nmo = 22 (-0.31093,0.72551,-0.31093) ==
 == 326-th k-point nmo = 22 (-0.20729,0.82916,-0.41458) ==
 == 327-th k-point nmo = 22 (-0.10364,0.93280,-0.51822) ==
 == 328-th k-point nmo = 22 (-0.72551,0.10364,0.31093) ==
 == 329-th k-point nmo = 22 (-0.62187,0.20729,0.20729) ==
 == 330-th k-point nmo = 22 (-0.51822,0.31093,0.10364) ==
 == 331-th k-point nmo = 22 (-0.41458,0.41458,0.00000) ==
 == 332-th k-point nmo = 22 (-0.31093,0.51822,-0.10364) ==
 == 333-th k-point nmo = 22 (-0.20729,0.62187,-0.20729) ==
 == 334-th k-point nmo = 22 (-0.10364,0.72551,-0.31093) ==
 == 335-th k-point nmo = 22 (-0.00000,0.82916,-0.41458) ==
 == 336-th k-point nmo = 22 (-0.62187,0.00000,0.41458) ==
 == 337-th k-point nmo = 22 (-0.51822,0.10364,0.31093) ==
 == 338-th k-point nmo = 22 (-0.41458,0.20729,0.20729) ==
 == 339-th k-point nmo = 22 (-0.31093,0.31093,0.10364) ==
 == 340-th k-point nmo = 22 (-0.20729,0.41458,0.00000) ==
 == 341-th k-point nmo = 22 (-0.10364,0.51822,-0.10364) ==
 == 342-th k-point nmo = 22 (0.00000,0.62187,-0.20729) ==
 == 343-th k-point nmo = 22 (0.10364,0.72551,-0.31093) ==
 == 344-th k-point nmo = 22 (-0.51822,-0.10364,0.51822) ==
 == 345-th k-point nmo = 22 (-0.41458,-0.00000,0.41458) ==
 == 346-th k-point nmo = 22 (-0.31093,0.10364,0.31093) ==
 == 347-th k-point nmo = 22 (-0.20729,0.20729,0.20729) ==
 == 348-th k-point nmo = 22 (-0.10364,0.31093,0.10364) ==
 == 349-th k-point nmo = 22 (0.00000,0.41458,0.00000) ==
 == 350-th k-point nmo = 22 (0.10364,0.51822,-0.10364) ==
 == 351-th k-point nmo = 22 (0.20729,0.62187,-0.20729) ==
 == 352-th k-point nmo = 22 (-0.41458,-0.20729,0.62187) ==
 == 353-th k-point nmo = 22 (-0.31093,-0.10364,0.51822) ==
 == 354-th k-point nmo = 22 (-0.20729,-0.00000,0.41458) ==
 == 355-th k-point nmo = 22 (-0.10364,0.10364,0.31093) ==
 == 356-th k-point nmo = 22 (0.00000,0.20729,0.20729) ==
 == 357-th k-point nmo = 22 (0.10364,0.31093,0.10364) ==
 == 358-th k-point nmo = 22 (0.20729,0.41458,0.00000) ==
 == 359-th k-point nmo = 22 (0.31093,0.51822,-0.10364) ==
 == 360-th k-point nmo = 22 (-0.31093,-0.31093,0.72551) ==
 == 361-th k-point nmo = 22 (-0.20729,-0.20729,0.62187) ==
 == 362-th k-point nmo = 22 (-0.10364,-0.10364,0.51822) ==
 == 363-th k-point nmo = 22 (0.00000,-0.00000,0.41458) ==
 == 364-th k-point nmo = 22 (0.10364,0.10364,0.31093) ==
 == 365-th k-point nmo = 22 (0.20729,0.20729,0.20729) ==
 == 366-th k-point nmo = 22 (0.31093,0.31093,0.10364) ==
 == 367-th k-point nmo = 22 (0.41458,0.41458,0.00000) ==
 == 368-th k-point nmo = 22 (-0.20729,-0.41458,0.82916) ==
 == 369-th k-point nmo = 22 (-0.10364,-0.31093,0.72551) ==
 == 370-th k-point nmo = 22 (0.00000,-0.20729,0.62187) ==
 == 371-th k-point nmo = 22 (0.10364,-0.10364,0.51822) ==
 == 372-th k-point nmo = 22 (0.20729,-0.00000,0.41458) ==
 == 373-th k-point nmo = 22 (0.31093,0.10364,0.31093) ==
 == 374-th k-point nmo = 22 (0.41458,0.20729,0.20729) ==
 == 375-th k-point nmo = 22 (0.51822,0.31093,0.10364) ==
 == 376-th k-point nmo = 22 (-0.10364,-0.51822,0.93280) ==
 == 377-th k-point nmo = 22 (0.00000,-0.41458,0.82916) ==
 == 378-th k-point nmo = 22 (0.10364,-0.31093,0.72551) ==
 == 379-th k-point nmo = 22 (0.20729,-0.20729,0.62187) ==
 == 380-th k-point nmo = 22 (0.31093,-0.10364,0.51822) ==
 == 381-th k-point nmo = 22 (0.41458,-0.00000,0.41458) ==
 == 382-th k-point nmo = 22 (0.51822,0.10364,0.31093) ==
 == 383-th k-point nmo = 22 (0.62187,0.20729,0.20729) ==
 == 384-th k-point nmo = 22 (-0.93280,0.31093,0.31093) ==
 == 385-th k-point nmo = 22 (-0.82916,0.41458,0.20729) ==
 == 386-th k-point nmo = 22 (-0.72551,0.51822,0.10364) ==
 == 387-th k-point nmo = 22 (-0.62187,0.62187,0.00000) ==
 == 388-th k-point nmo = 22 (-0.51822,0.72551,-0.10364) ==
 == 389-th k-point nmo = 22 (-0.41458,0.82916,-0.20729) ==
 == 390-th k-point nmo = 22 (-0.31093,0.93280,-0.31093) ==
 == 391-th k-point nmo = 22 (-0.20729,1.03645,-0.41458) ==
 == 392-th k-point nmo = 22 (-0.82916,0.20729,0.41458) ==
 == 393-th k-point nmo = 22 (-0.72551,0.31093,0.31093) ==
 == 394-th k-point nmo = 22 (-0.62187,0.41458,0.20729) ==
 == 395-th k-point nmo = 22 (-0.51822,0.51822,0.10364) ==
 == 396-th k-point nmo = 22 (-0.41458,0.62187,0.00000) ==
 == 397-th k-point nmo = 22 (-0.31093,0.72551,-0.10364) ==
 == 398-th k-point nmo = 22 (-0.20729,0.82916,-0.20729) ==
 == 399-th k-point nmo = 22 (-0.10364,0.93280,-0.31093) ==
 == 400-th k-point nmo = 22 (-0.72551,0.10364,0.51822) ==
 == 401-th k-point nmo = 22 (-0.62187,0.20729,0.41458) ==
 == 402-th k-point nmo = 22 (-0.51822,0.31093,0.31093) ==
 == 403-th k-point nmo = 22 (-0.41458,0.41458,0.20729) ==
 == 404-th k-point nmo = 22 (-0.31093,0.51822,0.10364) ==
 == 405-th k-point nmo = 22 (-0.20729,0.62187,0.00000) ==
 == 406-th k-point nmo = 22 (-0.10364,0.72551,-0.10364) ==
 == 407-th k-point nmo = 22 (0.00000,0.82916,-0.20729) ==
 == 408-th k-point nmo = 22 (-0.62187,-0.00000,0.62187) ==
 == 409-th k-point nmo = 22 (-0.51822,0.10364,0.51822) ==
 == 410-th k-point nmo = 22 (-0.41458,0.20729,0.41458) ==
 == 411-th k-point nmo = 22 (-0.31093,0.31093,0.31093) ==
 == 412-th k-point nmo = 22 (-0.20729,0.41458,0.20729) ==
 == 413-th k-point nmo = 22 (-0.10364,0.51822,0.10364) ==
 == 414-th k-point nmo = 22 (0.00000,0.62187,0.00000) ==
 == 415-th k-point nmo = 22 (0.10364,0.72551,-0.10364) ==
 == 416-th k-point nmo = 22 (-0.51822,-0.10364,0.72551) ==
 == 417-th k-point nmo = 22 (-0.41458,-0.00000,0.62187) ==
 == 418-th k-point nmo = 22 (-0.31093,0.10364,0.51822) ==
 == 419-th k-point nmo = 22 (-0.20729,0.20729,0.41458) ==
 == 420-th k-point nmo = 22 (-0.10364,0.31093,0.31093) ==
 == 421-th k-point nmo = 22 (0.00000,0.41458,0.20729) ==
 == 422-th k-point nmo = 22 (0.10364,0.51822,0.10364) ==
 == 423-th k-point nmo = 22 (0.20729,0.62187,0.00000) ==
 == 424-th k-point nmo = 22 (-0.41458,-0.20729,0.82916) ==
 == 425-th k-point nmo = 22 (-0.31093,-0.10364,0.72551) ==
 == 426-th k-point nmo = 22 (-0.20729,-0.00000,0.62187) ==
 == 427-th k-point nmo = 22 (-0.10364,0.10364,0.51822) ==
 == 428-th k-point nmo = 22 (0.00000,0.20729,0.41458) ==
 == 429-th k-point nmo = 22 (0.10364,0.31093,0.31093) ==
 == 430-th k-point nmo = 22 (0.20729,0.41458,0.20729) ==
 == 431-th k-point nmo = 22 (0.31093,0.51822,0.10364) ==
 == 432-th k-point nmo = 22 (-0.31093,-0.31093,0.93280) ==
 == 433-th k-point nmo = 22 (-0.20729,-0.20729,0.82916) ==
 == 434-th k-point nmo = 22 (-0.10364,-0.10364,0.72551) ==
 == 435-th k-point nmo = 22 (0.00000,-0.00000,0.62187) ==
 == 436-th k-point nmo = 22 (0.10364,0.10364,0.51822) ==
 == 437-th k-point nmo = 22 (0.20729,0.20729,0.41458) ==
 == 438-th k-point nmo = 22 (0.31093,0.31093,0.31093) ==
 == 439-th k-point nmo = 22 (0.41458,0.41458,0.20729) ==
 == 440-th k-point nmo = 22 (-0.20729,-0.41458,1.03645) ==
 == 441-th k-point nmo = 22 (-0.10364,-0.31093,0.93280) ==
 == 442-th k-point nmo = 22 (0.00000,-0.20729,0.82916) ==
 == 443-th k-point nmo = 22 (0.10364,-0.10364,0.72551) ==
 == 444-th k-point nmo = 22 (0.20729,-0.00000,0.62187) ==
 == 445-th k-point nmo = 22 (0.31093,0.10364,0.51822) ==
 == 446-th k-point nmo = 22 (0.41458,0.20729,0.41458) ==
 == 447-th k-point nmo = 22 (0.51822,0.31093,0.31093) ==
 == 448-th k-point nmo = 22 (-1.03645,0.41458,0.41458) ==
 == 449-th k-point nmo = 22 (-0.93280,0.51822,0.31093) ==
 == 450-th k-point nmo = 22 (-0.82916,0.62187,0.20729) ==
 == 451-th k-point nmo = 22 (-0.72551,0.72551,0.10364) ==
 == 452-th k-point nmo = 22 (-0.62187,0.82916,0.00000) ==
 == 453-th k-point nmo = 22 (-0.51822,0.93280,-0.10364) ==
 == 454-th k-point nmo = 22 (-0.41458,1.03645,-0.20729) ==
 == 455-th k-point nmo = 22 (-0.31093,1.14009,-0.31093) ==
 == 456-th k-point nmo = 22 (-0.93280,0.31093,0.51822) ==
 == 457-th k-point nmo = 22 (-0.82916,0.41458,0.41458) ==
 == 458-th k-point nmo = 22 (-0.72551,0.51822,0.31093) ==
 == 459-th k-point nmo = 22 (-0.62187,0.62187,0.20729) ==
 == 460-th k-point nmo = 22 (-0.51822,0.72551,0.10364) ==
 == 461-th k-point nmo = 22 (-0.41458,0.82916,0.00000) ==
 == 462-th k-point nmo = 22 (-0.31093,0.93280,-0.10364) ==
 == 463-th k-point nmo = 22 (-0.20729,1.03645,-0.20729) ==
 == 464-th k-point nmo = 22 (-0.82916,0.20729,0.62187) ==
 == 465-th k-point nmo = 22 (-0.72551,0.31093,0.51822) ==
 == 466-th k-point nmo = 22 (-0.62187,0.41458,0.41458) ==
 == 467-th k-point nmo = 22 (-0.51822,0.51822,0.31093) ==
 == 468-th k-point nmo = 22 (-0.41458,0.62187,0.20729) ==
 == 469-th k-point nmo = 22 (-0.31093,0.72551,0.10364) ==
 == 470-th k-point nmo = 22 (-0.20729,0.82916,0.00000) ==
 == 471-th k-point nmo = 22 (-0.10364,0.93280,-0.10364) ==
 == 472-th k-point nmo = 22 (-0.72551,0.10364,0.72551) ==
 == 473-th k-point nmo = 22 (-0.62187,0.20729,0.62187) ==
 == 474-th k-point nmo = 22 (-0.51822,0.31093,0.51822) ==
 == 475-th k-point nmo = 22 (-0.41458,0.41458,0.41458) ==
 == 476-th k-point nmo = 22 (-0.31093,0.51822,0.31093) ==
 == 477-th k-point nmo = 22 (-0.20729,0.62187,0.20729) ==
 == 478-th k-point nmo = 22 (-0.10364,0.72551,0.10364) ==
 == 479-th k-point nmo = 22 (0.00000,0.82916,0.00000) ==
 == 480-th k-point nmo = 22 (-0.62187,-0.00000,0.82916) ==
 == 481-th k-point nmo = 22 (-0.51822,0.10364,0.72551) ==
 == 482-th k-point nmo = 22 (-0.41458,0.20729,0.62187) ==
 == 483-th k-point nmo = 22 (-0.31093,0.31093,0.51822) ==
 == 484-th k-point nmo = 22 (-0.20729,0.41458,0.41458) ==
 == 485-th k-point nmo = 22 (-0.10364,0.51822,0.31093) ==
 == 486-th k-point nmo = 22 (0.00000,0.62187,0.20729) ==
 == 487-th k-point nmo = 22 (0.10364,0.72551,0.10364) ==
 == 488-th k-point nmo = 22 (-0.51822,-0.10364,0.93280) ==
 == 489-th k-point nmo = 22 (-0.41458,-0.00000,0.82916) ==
 == 490-th k-point nmo = 22 (-0.31093,0.10364,0.72551) ==
 == 491-th k-point nmo = 22 (-0.20729,0.20729,0.62187) ==
 == 492-th k-point nmo = 22 (-0.10364,0.31093,0.51822) ==
 == 493-th k-point nmo = 22 (0.00000,0.41458,0.41458) ==
 == 494-th k-point nmo = 22 (0.10364,0.51822,0.31093) ==
 == 495-th k-point nmo = 22 (0.20729,0.62187,0.20729) ==
 == 496-th k-point nmo = 22 (-0.41458,-0.20729,1.03645) ==
 == 497-th k-point nmo = 22 (-0.31093,-0.10364,0.93280) ==
 == 498-th k-point nmo = 22 (-0.20729,-0.00000,0.82916) ==
 == 499-th k-point nmo = 22 (-0.10364,0.10364,0.72551) ==
 == 500-th k-point nmo = 22 (0.00000,0.20729,0.62187) ==
 == 501-th k-point nmo = 22 (0.10364,0.31093,0.51822) ==
 == 502-th k-point nmo = 22 (0.20729,0.41458,0.41458) ==
 == 503-th k-point nmo = 22 (0.31093,0.51822,0.31093) ==
 == 504-th k-point nmo = 22 (-0.31093,-0.31093,1.14009) ==
 == 505-th k-point nmo = 22 (-0.20729,-0.20729,1.03645) ==
 == 506-th k-point nmo = 22 (-0.10364,-0.10364,0.93280) ==
 == 507-th k-point nmo = 22 (0.00000,-0.00000,0.82916) ==
 == 508-th k-point nmo = 22 (0.10364,0.10364,0.72551) ==
 == 509-th k-point nmo = 22 (0.20729,0.20729,0.62187) ==
 == 510-th k-point nmo = 22 (0.31093,0.31093,0.51822) ==
 == 511-th k-point nmo = 22 (0.41458,0.41458,0.41458) ==

 Generate autoSAD guess
backing up fragment data
Atom # 0: li, charge: 0, multiplicity: 2.000000
Atom # 1: f, charge: 0, multiplicity: 2.000000
writing autosad to fragment context
Settings for isolated fragments: 
  frgm_gamma: TRUE
  frgm_center: FALSE

    Running SCF for isolated atom #0
    Fragment Input file: /n/netscratch/joonholee_lab/Lab/hieudinh//lif_solve_def2svp_omega_0.9_888.scratch20250909015524/autosad_frgmt_0/frgmt_input.in
    Fragment Output file: /n/netscratch/joonholee_lab/Lab/hieudinh//lif_solve_def2svp_omega_0.9_888.scratch20250909015524/autosad_frgmt_0/frgmt_job.out
    Fragment job begins at Tue Sep  9 01:55:43 2025

 Integrated density by DFT XC:
   Numerical integral  =     2.999999997939
   Relative error      =     0.0000000687 %
Final energy components:
 DFT Correlation            Energy =  -0.05129449360107
 DFT Exchange               Energy =  -1.75293492673808
 Kinetic (alpha)            Energy =   3.83698747219399
 Kinetic (beta)             Energy =   3.56502760489078
 Nuclear Attraction (alpha) Energy =  -9.10672143734250
 Nuclear Attraction (beta)  Energy =  -8.00006101932192
 Nuclear Repulsion          Energy =   0.00000000000000
 SEOQF                      Energy =  -0.00000000000000
 Total Coulomb              Energy =   4.05509638491419
----------------------------------------------
    SCF Energy: -7.4539004150
   Total fragment job time:  0.36 s.
    Running SCF for isolated atom #1
    Fragment Input file: /n/netscratch/joonholee_lab/Lab/hieudinh//lif_solve_def2svp_omega_0.9_888.scratch20250909015524/autosad_frgmt_1/frgmt_input.in
    Fragment Output file: /n/netscratch/joonholee_lab/Lab/hieudinh//lif_solve_def2svp_omega_0.9_888.scratch20250909015524/autosad_frgmt_1/frgmt_job.out
    Fragment job begins at Tue Sep  9 01:55:44 2025

 Integrated density by DFT XC:
   Numerical integral  =     8.999999994599
   Relative error      =     0.0000000600 %
Final energy components:
 DFT Correlation            Energy =  -0.29413872621791
 DFT Exchange               Energy =  -9.98852123057036
 Kinetic (alpha)            Energy =  51.41981583415192
 Kinetic (beta)             Energy =  47.72578494848346
 Nuclear Attraction (alpha) Energy = -125.16794293981917
 Nuclear Attraction (beta)  Energy = -113.10638093104606
 Nuclear Repulsion          Energy =   0.00000000000000
 SEOQF                      Energy =   0.00000000006159
 Total Coulomb              Energy =  49.87162446720960
----------------------------------------------
    SCF Energy: -99.5397585777
   Total fragment job time:  0.42 s.
restoring fragment data

 ------------------------------------------------------------------------
 Allocate 142721024 B from available memory: 104853133664 B
 Time for generating SCF guess: 0.82 s

 Allocate 397396 B from available memory: 104710412640 B
 Selected algorithms for each term:
  kpts_kinetic -> @0x14b15c04c680
  kpts_nn -> @0x14b15c04c800
  kpts_rij_bigmem -> @0x14b15c04c3e0
  kpts_vnuc_df -> @0x14b15c04c380
  kpts_xc -> @0x14b15c04c2c0
 Time for computing kinetic matrix is 17.12 s
Start calculating Vnuc DD type!
Start calculating Vnuc CD type!
Start calculating Vnuc CC type!
 Time for computing nuclear attraction matrix is 36.00 s
Compute (P|Q) and use solve on the fly!
Maximum distance between P and Q is 28.75642758820560
Number of images for (P|Qn) is 1873
 Time for computing 2e2c SR integral is 0.12 s
Maximum dynamic memory per thread for 2e3c SR integrals: 0.015 GiB
Batch size for basis function pair is 168 out of 168
 === bvk cell = 0 has 100.000 % of the basis function pairs === 
 === bvk cell = 1 has 100.000 % of the basis function pairs === 
 === bvk cell = 2 has 82.738 % of the basis function pairs === 
 === bvk cell = 3 has 41.667 % of the basis function pairs === 
 === bvk cell = 4 has 34.524 % of the basis function pairs === 
 === bvk cell = 5 has 41.667 % of the basis function pairs === 
 === bvk cell = 6 has 74.405 % of the basis function pairs === 
 === bvk cell = 7 has 100.000 % of the basis function pairs === 
 === bvk cell = 8 has 100.000 % of the basis function pairs === 
 === bvk cell = 9 has 90.476 % of the basis function pairs === 
 === bvk cell = 10 has 52.381 % of the basis function pairs === 
 === bvk cell = 11 has 36.310 % of the basis function pairs === 
 === bvk cell = 12 has 18.452 % of the basis function pairs === 
 === bvk cell = 13 has 41.667 % of the basis function pairs === 
 === bvk cell = 14 has 92.857 % of the basis function pairs === 
 === bvk cell = 15 has 100.000 % of the basis function pairs === 
 === bvk cell = 16 has 82.738 % of the basis function pairs === 
 === bvk cell = 17 has 52.381 % of the basis function pairs === 
 === bvk cell = 18 has 41.667 % of the basis function pairs === 
 === bvk cell = 19 has 16.667 % of the basis function pairs === 
 === bvk cell = 20 has 23.810 % of the basis function pairs === 
 === bvk cell = 21 has 41.667 % of the basis function pairs === 
 === bvk cell = 22 has 76.190 % of the basis function pairs === 
 === bvk cell = 23 has 91.071 % of the basis function pairs === 
 === bvk cell = 24 has 41.667 % of the basis function pairs === 
 === bvk cell = 25 has 36.310 % of the basis function pairs === 
 === bvk cell = 26 has 16.667 % of the basis function pairs === 
 === bvk cell = 27 has 10.714 % of the basis function pairs === 
 === bvk cell = 28 has 18.452 % of the basis function pairs === 
 === bvk cell = 29 has 41.667 % of the basis function pairs === 
 === bvk cell = 30 has 41.667 % of the basis function pairs === 
 === bvk cell = 31 has 41.667 % of the basis function pairs === 
 === bvk cell = 32 has 34.524 % of the basis function pairs === 
 === bvk cell = 33 has 18.452 % of the basis function pairs === 
 === bvk cell = 34 has 23.810 % of the basis function pairs === 
 === bvk cell = 35 has 18.452 % of the basis function pairs === 
 === bvk cell = 36 has 16.667 % of the basis function pairs === 
 === bvk cell = 37 has 36.310 % of the basis function pairs === 
 === bvk cell = 38 has 41.667 % of the basis function pairs === 
 === bvk cell = 39 has 36.310 % of the basis function pairs === 
 === bvk cell = 40 has 41.667 % of the basis function pairs === 
 === bvk cell = 41 has 41.667 % of the basis function pairs === 
 === bvk cell = 42 has 41.667 % of the basis function pairs === 
 === bvk cell = 43 has 41.667 % of the basis function pairs === 
 === bvk cell = 44 has 36.310 % of the basis function pairs === 
 === bvk cell = 45 has 16.667 % of the basis function pairs === 
 === bvk cell = 46 has 16.667 % of the basis function pairs === 
 === bvk cell = 47 has 18.452 % of the basis function pairs === 
 === bvk cell = 48 has 74.405 % of the basis function pairs === 
 === bvk cell = 49 has 92.857 % of the basis function pairs === 
 === bvk cell = 50 has 76.190 % of the basis function pairs === 
 === bvk cell = 51 has 41.667 % of the basis function pairs === 
 === bvk cell = 52 has 41.667 % of the basis function pairs === 
 === bvk cell = 53 has 16.667 % of the basis function pairs === 
 === bvk cell = 54 has 23.810 % of the basis function pairs === 
 === bvk cell = 55 has 42.262 % of the basis function pairs === 
 === bvk cell = 56 has 100.000 % of the basis function pairs === 
 === bvk cell = 57 has 100.000 % of the basis function pairs === 
 === bvk cell = 58 has 91.071 % of the basis function pairs === 
 === bvk cell = 59 has 41.667 % of the basis function pairs === 
 === bvk cell = 60 has 36.310 % of the basis function pairs === 
 === bvk cell = 61 has 18.452 % of the basis function pairs === 
 === bvk cell = 62 has 42.262 % of the basis function pairs === 
 === bvk cell = 63 has 82.143 % of the basis function pairs === 
 === bvk cell = 64 has 100.000 % of the basis function pairs === 
 === bvk cell = 65 has 91.071 % of the basis function pairs === 
 === bvk cell = 66 has 41.667 % of the basis function pairs === 
 === bvk cell = 67 has 36.310 % of the basis function pairs === 
 === bvk cell = 68 has 18.452 % of the basis function pairs === 
 === bvk cell = 69 has 42.262 % of the basis function pairs === 
 === bvk cell = 70 has 82.143 % of the basis function pairs === 
 === bvk cell = 71 has 100.000 % of the basis function pairs === 
 === bvk cell = 72 has 91.071 % of the basis function pairs === 
 === bvk cell = 73 has 52.381 % of the basis function pairs === 
 === bvk cell = 74 has 41.667 % of the basis function pairs === 
 === bvk cell = 75 has 16.667 % of the basis function pairs === 
 === bvk cell = 76 has 23.810 % of the basis function pairs === 
 === bvk cell = 77 has 42.262 % of the basis function pairs === 
 === bvk cell = 78 has 92.857 % of the basis function pairs === 
 === bvk cell = 79 has 100.000 % of the basis function pairs === 
 === bvk cell = 80 has 41.667 % of the basis function pairs === 
 === bvk cell = 81 has 41.667 % of the basis function pairs === 
 === bvk cell = 82 has 25.595 % of the basis function pairs === 
 === bvk cell = 83 has 16.071 % of the basis function pairs === 
 === bvk cell = 84 has 32.738 % of the basis function pairs === 
 === bvk cell = 85 has 41.667 % of the basis function pairs === 
 === bvk cell = 86 has 41.667 % of the basis function pairs === 
 === bvk cell = 87 has 52.381 % of the basis function pairs === 
 === bvk cell = 88 has 36.310 % of the basis function pairs === 
 === bvk cell = 89 has 16.667 % of the basis function pairs === 
 === bvk cell = 90 has 16.071 % of the basis function pairs === 
 === bvk cell = 91 has 16.071 % of the basis function pairs === 
 === bvk cell = 92 has 18.452 % of the basis function pairs === 
 === bvk cell = 93 has 41.667 % of the basis function pairs === 
 === bvk cell = 94 has 41.667 % of the basis function pairs === 
 === bvk cell = 95 has 41.667 % of the basis function pairs === 
 === bvk cell = 96 has 18.452 % of the basis function pairs === 
 === bvk cell = 97 has 23.810 % of the basis function pairs === 
 === bvk cell = 98 has 32.738 % of the basis function pairs === 
 === bvk cell = 99 has 18.452 % of the basis function pairs === 
 === bvk cell = 100 has 16.667 % of the basis function pairs === 
 === bvk cell = 101 has 16.667 % of the basis function pairs === 
 === bvk cell = 102 has 25.595 % of the basis function pairs === 
 === bvk cell = 103 has 16.667 % of the basis function pairs === 
 === bvk cell = 104 has 42.262 % of the basis function pairs === 
 === bvk cell = 105 has 42.262 % of the basis function pairs === 
 === bvk cell = 106 has 41.667 % of the basis function pairs === 
 === bvk cell = 107 has 41.667 % of the basis function pairs === 
 === bvk cell = 108 has 16.667 % of the basis function pairs === 
 === bvk cell = 109 has 13.690 % of the basis function pairs === 
 === bvk cell = 110 has 16.071 % of the basis function pairs === 
 === bvk cell = 111 has 23.810 % of the basis function pairs === 
 === bvk cell = 112 has 82.143 % of the basis function pairs === 
 === bvk cell = 113 has 92.857 % of the basis function pairs === 
 === bvk cell = 114 has 41.667 % of the basis function pairs === 
 === bvk cell = 115 has 41.667 % of the basis function pairs === 
 === bvk cell = 116 has 25.595 % of the basis function pairs === 
 === bvk cell = 117 has 16.071 % of the basis function pairs === 
 === bvk cell = 118 has 32.738 % of the basis function pairs === 
 === bvk cell = 119 has 51.190 % of the basis function pairs === 
 === bvk cell = 120 has 100.000 % of the basis function pairs === 
 === bvk cell = 121 has 100.000 % of the basis function pairs === 
 === bvk cell = 122 has 52.381 % of the basis function pairs === 
 === bvk cell = 123 has 41.667 % of the basis function pairs === 
 === bvk cell = 124 has 16.667 % of the basis function pairs === 
 === bvk cell = 125 has 23.810 % of the basis function pairs === 
 === bvk cell = 126 has 51.190 % of the basis function pairs === 
 === bvk cell = 127 has 92.857 % of the basis function pairs === 
 === bvk cell = 128 has 76.190 % of the basis function pairs === 
 === bvk cell = 129 has 41.667 % of the basis function pairs === 
 === bvk cell = 130 has 41.667 % of the basis function pairs === 
 === bvk cell = 131 has 16.667 % of the basis function pairs === 
 === bvk cell = 132 has 23.810 % of the basis function pairs === 
 === bvk cell = 133 has 42.262 % of the basis function pairs === 
 === bvk cell = 134 has 74.405 % of the basis function pairs === 
 === bvk cell = 135 has 92.857 % of the basis function pairs === 
 === bvk cell = 136 has 41.667 % of the basis function pairs === 
 === bvk cell = 137 has 41.667 % of the basis function pairs === 
 === bvk cell = 138 has 16.667 % of the basis function pairs === 
 === bvk cell = 139 has 10.714 % of the basis function pairs === 
 === bvk cell = 140 has 23.810 % of the basis function pairs === 
 === bvk cell = 141 has 41.667 % of the basis function pairs === 
 === bvk cell = 142 has 42.262 % of the basis function pairs === 
 === bvk cell = 143 has 41.667 % of the basis function pairs === 
 === bvk cell = 144 has 41.667 % of the basis function pairs === 
 === bvk cell = 145 has 16.667 % of the basis function pairs === 
 === bvk cell = 146 has 13.690 % of the basis function pairs === 
 === bvk cell = 147 has 16.071 % of the basis function pairs === 
 === bvk cell = 148 has 23.810 % of the basis function pairs === 
 === bvk cell = 149 has 41.667 % of the basis function pairs === 
 === bvk cell = 150 has 41.667 % of the basis function pairs === 
 === bvk cell = 151 has 41.667 % of the basis function pairs === 
 === bvk cell = 152 has 16.667 % of the basis function pairs === 
 === bvk cell = 153 has 10.714 % of the basis function pairs === 
 === bvk cell = 154 has 16.071 % of the basis function pairs === 
 === bvk cell = 155 has 10.714 % of the basis function pairs === 
 === bvk cell = 156 has 16.667 % of the basis function pairs === 
 === bvk cell = 157 has 27.381 % of the basis function pairs === 
 === bvk cell = 158 has 36.310 % of the basis function pairs === 
 === bvk cell = 159 has 25.595 % of the basis function pairs === 
 === bvk cell = 160 has 23.810 % of the basis function pairs === 
 === bvk cell = 161 has 23.810 % of the basis function pairs === 
 === bvk cell = 162 has 23.810 % of the basis function pairs === 
 === bvk cell = 163 has 16.667 % of the basis function pairs === 
 === bvk cell = 164 has 13.690 % of the basis function pairs === 
 === bvk cell = 165 has 16.667 % of the basis function pairs === 
 === bvk cell = 166 has 14.286 % of the basis function pairs === 
 === bvk cell = 167 has 16.071 % of the basis function pairs === 
 === bvk cell = 168 has 42.262 % of the basis function pairs === 
 === bvk cell = 169 has 41.667 % of the basis function pairs === 
 === bvk cell = 170 has 41.667 % of the basis function pairs === 
 === bvk cell = 171 has 27.381 % of the basis function pairs === 
 === bvk cell = 172 has 16.667 % of the basis function pairs === 
 === bvk cell = 173 has 10.714 % of the basis function pairs === 
 === bvk cell = 174 has 18.452 % of the basis function pairs === 
 === bvk cell = 175 has 32.738 % of the basis function pairs === 
 === bvk cell = 176 has 74.405 % of the basis function pairs === 
 === bvk cell = 177 has 42.262 % of the basis function pairs === 
 === bvk cell = 178 has 41.667 % of the basis function pairs === 
 === bvk cell = 179 has 36.310 % of the basis function pairs === 
 === bvk cell = 180 has 14.286 % of the basis function pairs === 
 === bvk cell = 181 has 18.452 % of the basis function pairs === 
 === bvk cell = 182 has 42.262 % of the basis function pairs === 
 === bvk cell = 183 has 51.190 % of the basis function pairs === 
 === bvk cell = 184 has 92.857 % of the basis function pairs === 
 === bvk cell = 185 has 41.667 % of the basis function pairs === 
 === bvk cell = 186 has 41.667 % of the basis function pairs === 
 === bvk cell = 187 has 25.595 % of the basis function pairs === 
 === bvk cell = 188 has 16.071 % of the basis function pairs === 
 === bvk cell = 189 has 32.738 % of the basis function pairs === 
 === bvk cell = 190 has 51.190 % of the basis function pairs === 
 === bvk cell = 191 has 82.143 % of the basis function pairs === 
 === bvk cell = 192 has 41.667 % of the basis function pairs === 
[...]
 1.55715 1.74284 1.74284 1.83021 2.31611 2.31612 2.69531 3.31115 3.31588 3.48654
 3.48654 3.50223
 == 436-th k-point (0.10364,0.10364,0.51822) occupation: 6==
 -23.88059 -1.46657 -0.65904 -0.04018 0.00729 0.01165 0.50279 0.70782 0.76690 0.78660
 1.19079 1.54546 1.62113 1.85606 2.02335 2.09120 2.67585 3.33139 3.35072 3.49816
 3.52391 3.57374
 == 437-th k-point (0.20729,0.20729,0.41458) occupation: 6==
 -23.88063 -1.46681 -0.66249 -0.03722 0.02060 0.02196 0.46150 0.67328 0.77412 0.77983
 1.24734 1.53372 1.57541 1.83105 1.86231 2.02136 2.66760 3.36042 3.37654 3.51727
 3.53290 3.64381
 == 438-th k-point (0.31093,0.31093,0.31093) occupation: 6==
 -23.88062 -1.46671 -0.66262 -0.04550 0.02858 0.02858 0.44332 0.68836 0.75551 0.75551
 1.49705 1.63437 1.63437 1.68631 1.68631 2.02544 2.70090 3.36968 3.36968 3.51681
 3.71463 3.71463
 == 439-th k-point (0.41458,0.41458,0.20729) occupation: 6==
 -23.88057 -1.46640 -0.65936 -0.04974 0.01093 0.02695 0.46622 0.64676 0.74974 0.77309
 1.32210 1.58407 1.65200 1.74952 2.06455 2.08081 2.58385 3.35611 3.40440 3.51134
 3.53484 3.70938
 == 440-th k-point (-0.20729,-0.41458,1.03645) occupation: 6==
 -23.88063 -1.46605 -0.65508 -0.05086 -0.00976 0.01779 0.50747 0.62347 0.74523 0.77615
 1.36478 1.38531 1.59152 1.72917 2.14446 2.42386 2.46811 3.34622 3.44738 3.50335
 3.50614 3.54118
 == 441-th k-point (-0.10364,-0.31093,0.93280) occupation: 6==
 -23.88069 -1.46580 -0.65142 -0.05217 -0.02465 0.00857 0.56490 0.61135 0.72161 0.78259
 1.23669 1.41911 1.55389 1.82120 2.15311 2.35362 2.69460 3.32241 3.43019 3.46210
 3.50081 3.51045
 == 442-th k-point (0.00000,-0.20729,0.82916) occupation: 6==
 -23.88065 -1.46570 -0.64954 -0.06680 -0.01395 0.00220 0.58559 0.64736 0.70263 0.78630
 1.11726 1.53809 1.54397 1.91154 2.09817 2.46679 2.71877 3.31601 3.38094 3.40807
 3.50350 3.51538
 == 443-th k-point (0.10364,-0.10364,0.72551) occupation: 6==
 -23.88042 -1.46582 -0.65063 -0.06750 -0.00624 0.00235 0.57055 0.68093 0.73893 0.78108
 1.19070 1.57832 1.78192 1.78375 2.08308 2.47428 2.56885 3.32633 3.36793 3.41458
 3.50118 3.51082
 == 444-th k-point (0.20729,-0.00000,0.62187) occupation: 6==
 -23.88063 -1.46608 -0.65402 -0.05327 -0.00777 0.00880 0.53990 0.65531 0.73304 0.78852
 1.13461 1.45124 1.68187 1.85044 2.05936 2.44784 2.63720 3.31892 3.36784 3.47084
 3.50137 3.51954
 == 445-th k-point (0.31093,0.10364,0.51822) occupation: 6==
 -23.88064 -1.46632 -0.65760 -0.04295 -0.00557 0.02035 0.49866 0.63479 0.75333 0.78489
 1.22932 1.44689 1.68432 1.75895 2.07338 2.34766 2.56277 3.33649 3.41696 3.50164
 3.51624 3.55060
 == 446-th k-point (0.41458,0.20729,0.41458) occupation: 6==
 -23.88057 -1.46640 -0.65936 -0.04974 0.01093 0.02695 0.46622 0.64676 0.74974 0.77309
 1.32210 1.58407 1.65200 1.74952 2.06455 2.08081 2.58385 3.35611 3.40440 3.51134
 3.53484 3.70938
 == 447-th k-point (0.51822,0.31093,0.31093) occupation: 6==
 -23.88054 -1.46630 -0.65834 -0.05436 0.01395 0.02280 0.46815 0.64945 0.74968 0.76337
 1.42138 1.55333 1.58787 1.69850 1.96982 2.10371 2.57797 3.36587 3.39922 3.51091
 3.52956 3.67209
 == 448-th k-point (-1.03645,0.41458,0.41458) occupation: 6==
 -23.88057 -1.46640 -0.65936 -0.04974 0.01093 0.02695 0.46622 0.64676 0.74974 0.77309
 1.32210 1.58407 1.65200 1.74952 2.06455 2.08081 2.58385 3.35611 3.40440 3.51134
 3.53484 3.70938
 == 449-th k-point (-0.93280,0.51822,0.31093) occupation: 6==
 -23.88064 -1.46632 -0.65760 -0.04295 -0.00557 0.02035 0.49866 0.63479 0.75333 0.78489
 1.22932 1.44689 1.68432 1.75895 2.07338 2.34766 2.56277 3.33649 3.41696 3.50164
 3.51624 3.55060
 == 450-th k-point (-0.82916,0.62187,0.20729) occupation: 6==
 -23.88063 -1.46608 -0.65402 -0.05327 -0.00777 0.00880 0.53990 0.65531 0.73304 0.78852
 1.13461 1.45124 1.68187 1.85044 2.05936 2.44784 2.63720 3.31892 3.36784 3.47084
 3.50137 3.51954
 == 451-th k-point (-0.72551,0.72551,0.10364) occupation: 6==
 -23.88042 -1.46582 -0.65063 -0.06750 -0.00624 0.00235 0.57055 0.68093 0.73893 0.78108
 1.19070 1.57832 1.78192 1.78375 2.08308 2.47428 2.56885 3.32633 3.36793 3.41458
 3.50118 3.51082
 == 452-th k-point (-0.62187,0.82916,0.00000) occupation: 6==
 -23.88065 -1.46570 -0.64954 -0.06680 -0.01395 0.00220 0.58559 0.64736 0.70263 0.78630
 1.11726 1.53809 1.54397 1.91154 2.09817 2.46679 2.71877 3.31601 3.38094 3.40807
 3.50350 3.51538
 == 453-th k-point (-0.51822,0.93280,-0.10364) occupation: 6==
 -23.88069 -1.46580 -0.65142 -0.05217 -0.02465 0.00857 0.56490 0.61135 0.72161 0.78259
 1.23669 1.41911 1.55389 1.82120 2.15311 2.35362 2.69460 3.32241 3.43019 3.46210
 3.50081 3.51045
 == 454-th k-point (-0.41458,1.03645,-0.20729) occupation: 6==
 -23.88063 -1.46605 -0.65508 -0.05086 -0.00976 0.01779 0.50747 0.62347 0.74523 0.77615
 1.36478 1.38531 1.59152 1.72917 2.14446 2.42386 2.46811 3.34622 3.44738 3.50335
 3.50614 3.54118
 == 455-th k-point (-0.31093,1.14009,-0.31093) occupation: 6==
 -23.88054 -1.46630 -0.65834 -0.05436 0.01395 0.02280 0.46815 0.64945 0.74968 0.76337
 1.42138 1.55333 1.58787 1.69850 1.96982 2.10371 2.57797 3.36587 3.39922 3.51091
 3.52956 3.67209
 == 456-th k-point (-0.93280,0.31093,0.51822) occupation: 6==
 -23.88064 -1.46632 -0.65760 -0.04295 -0.00557 0.02035 0.49866 0.63479 0.75333 0.78489
 1.22932 1.44689 1.68432 1.75895 2.07338 2.34766 2.56277 3.33649 3.41696 3.50164
 3.51624 3.55060
 == 457-th k-point (-0.82916,0.41458,0.41458) occupation: 6==
 -23.88059 -1.46640 -0.65884 -0.03305 -0.01375 0.02649 0.49220 0.62381 0.76041 0.78834
 1.23936 1.57380 1.68326 1.82249 2.07608 2.42867 2.49330 3.31595 3.43577 3.49867
 3.51893 3.65803
 == 458-th k-point (-0.72551,0.51822,0.31093) occupation: 6==
 -23.88064 -1.46632 -0.65760 -0.04295 -0.00557 0.02035 0.49866 0.63479 0.75333 0.78489
 1.22932 1.44689 1.68432 1.75895 2.07338 2.34766 2.56277 3.33649 3.41696 3.50164
 3.51624 3.55060
 == 459-th k-point (-0.62187,0.62187,0.20729) occupation: 6==
 -23.88049 -1.46607 -0.65455 -0.05243 -0.00731 0.01227 0.52355 0.63889 0.75926 0.76747
 1.29859 1.50983 1.66329 1.74727 2.11041 2.21351 2.49278 3.34990 3.42117 3.49966
 3.51149 3.55639
 == 460-th k-point (-0.51822,0.72551,0.10364) occupation: 6==
 -23.88069 -1.46580 -0.65142 -0.05217 -0.02465 0.00857 0.56490 0.61135 0.72161 0.78259
 1.23669 1.41911 1.55389 1.82120 2.15311 2.35362 2.69460 3.32241 3.43019 3.46210
 3.50081 3.51045
 == 461-th k-point (-0.41458,0.82916,0.00000) occupation: 6==
 -23.88077 -1.46569 -0.65010 -0.04165 -0.04165 0.00608 0.59804 0.59804 0.69096 0.78541
 1.31595 1.31595 1.50602 1.83718 2.22381 2.22381 2.78818 3.31601 3.41564 3.49411
 3.49411 3.50144
 == 462-th k-point (-0.31093,0.93280,-0.10364) occupation: 6==
 -23.88069 -1.46580 -0.65142 -0.05217 -0.02465 0.00857 0.56490 0.61135 0.72161 0.78259
 1.23669 1.41911 1.55389 1.82120 2.15311 2.35362 2.69460 3.32241 3.43019 3.46210
 3.50081 3.51045
 == 463-th k-point (-0.20729,1.03645,-0.20729) occupation: 6==
 -23.88049 -1.46607 -0.65455 -0.05243 -0.00731 0.01227 0.52355 0.63889 0.75926 0.76747
 1.29859 1.50983 1.66329 1.74727 2.11041 2.21351 2.49278 3.34990 3.42117 3.49966
 3.51149 3.55639
 == 464-th k-point (-0.82916,0.20729,0.62187) occupation: 6==
 -23.88063 -1.46608 -0.65402 -0.05327 -0.00777 0.00880 0.53990 0.65531 0.73304 0.78852
 1.13461 1.45124 1.68187 1.85044 2.05936 2.44784 2.63720 3.31892 3.36784 3.47084
 3.50137 3.51954
 == 465-th k-point (-0.72551,0.31093,0.51822) occupation: 6==
 -23.88064 -1.46632 -0.65760 -0.04295 -0.00557 0.02035 0.49866 0.63479 0.75333 0.78489
 1.22932 1.44689 1.68432 1.75895 2.07338 2.34766 2.56277 3.33649 3.41696 3.50164
 3.51624 3.55060
 == 466-th k-point (-0.62187,0.41458,0.41458) occupation: 6==
 -23.88057 -1.46640 -0.65936 -0.04974 0.01093 0.02695 0.46622 0.64676 0.74974 0.77309
 1.32211 1.58407 1.65200 1.74953 2.06455 2.08081 2.58385 3.35611 3.40440 3.51134
 3.53484 3.70938
 == 467-th k-point (-0.51822,0.51822,0.31093) occupation: 6==
 -23.88054 -1.46630 -0.65834 -0.05436 0.01395 0.02280 0.46815 0.64945 0.74968 0.76337
 1.42138 1.55333 1.58787 1.69850 1.96982 2.10371 2.57797 3.36587 3.39922 3.51091
 3.52956 3.67209
 == 468-th k-point (-0.41458,0.62187,0.20729) occupation: 6==
 -23.88063 -1.46605 -0.65508 -0.05086 -0.00976 0.01779 0.50747 0.62347 0.74523 0.77615
 1.36478 1.38531 1.59152 1.72917 2.14446 2.42386 2.46811 3.34622 3.44738 3.50335
 3.50614 3.54118
 == 469-th k-point (-0.31093,0.72551,0.10364) occupation: 6==
 -23.88069 -1.46580 -0.65142 -0.05217 -0.02465 0.00857 0.56490 0.61135 0.72161 0.78259
 1.23669 1.41911 1.55389 1.82120 2.15311 2.35362 2.69460 3.32241 3.43019 3.46210
 3.50081 3.51045
 == 470-th k-point (-0.20729,0.82916,0.00000) occupation: 6==
 -23.88065 -1.46570 -0.64954 -0.06680 -0.01395 0.00220 0.58559 0.64736 0.70263 0.78630
 1.11726 1.53809 1.54397 1.91154 2.09817 2.46679 2.71877 3.31601 3.38094 3.40807
 3.50350 3.51538
 == 471-th k-point (-0.10364,0.93280,-0.10364) occupation: 6==
 -23.88042 -1.46582 -0.65063 -0.06750 -0.00624 0.00235 0.57055 0.68093 0.73893 0.78108
 1.19070 1.57832 1.78192 1.78375 2.08308 2.47428 2.56885 3.32633 3.36793 3.41458
 3.50118 3.51082
 == 472-th k-point (-0.72551,0.10364,0.72551) occupation: 6==
 -23.88042 -1.46582 -0.65063 -0.06750 -0.00624 0.00235 0.57055 0.68093 0.73893 0.78108
 1.19070 1.57832 1.78192 1.78375 2.08308 2.47428 2.56885 3.32633 3.36793 3.41458
 3.50118 3.51082
 == 473-th k-point (-0.62187,0.20729,0.62187) occupation: 6==
 -23.88049 -1.46607 -0.65455 -0.05243 -0.00731 0.01227 0.52355 0.63889 0.75926 0.76747
 1.29859 1.50983 1.66329 1.74727 2.11041 2.21351 2.49278 3.34990 3.42117 3.49966
 3.51149 3.55639
 == 474-th k-point (-0.51822,0.31093,0.51822) occupation: 6==
 -23.88054 -1.46630 -0.65834 -0.05436 0.01395 0.02280 0.46815 0.64945 0.74968 0.76337
 1.42138 1.55333 1.58787 1.69850 1.96982 2.10371 2.57797 3.36587 3.39922 3.51091
 3.52956 3.67209
 == 475-th k-point (-0.41458,0.41458,0.41458) occupation: 6==
 -23.88055 -1.46635 -0.65988 -0.05760 0.02741 0.02741 0.44456 0.67940 0.73838 0.73838
 1.61281 1.61991 1.61991 1.79593 1.79594 2.08714 2.66567 3.37119 3.37119 3.51258
 3.73953 3.73953
 == 476-th k-point (-0.31093,0.51822,0.31093) occupation: 6==
 -23.88054 -1.46630 -0.65834 -0.05436 0.01395 0.02280 0.46815 0.64945 0.74968 0.76337
 1.42138 1.55333 1.58787 1.69850 1.96982 2.10371 2.57797 3.36587 3.39922 3.51091
 3.52956 3.67209
 == 477-th k-point (-0.20729,0.62187,0.20729) occupation: 6==
 -23.88049 -1.46607 -0.65455 -0.05243 -0.00731 0.01227 0.52355 0.63889 0.75926 0.76747
 1.29859 1.50983 1.66329 1.74727 2.11041 2.21351 2.49278 3.34990 3.42117 3.49966
 3.51149 3.55639
 == 478-th k-point (-0.10364,0.72551,0.10364) occupation: 6==
 -23.88042 -1.46582 -0.65063 -0.06750 -0.00624 0.00235 0.57055 0.68093 0.73893 0.78108
 1.19070 1.57832 1.78192 1.78375 2.08308 2.47428 2.56885 3.32633 3.36793 3.41458
 3.50118 3.51082
 == 479-th k-point (0.00000,0.82916,0.00000) occupation: 6==
 -23.88035 -1.46572 -0.64897 -0.07661 -0.00162 -0.00162 0.58347 0.71439 0.78622 0.78622
 1.63602 1.74808 1.84123 1.84123 2.63039 2.63040 2.64948 3.31116 3.31588 3.31601
 3.31601 3.50456
 == 480-th k-point (-0.62187,-0.00000,0.82916) occupation: 6==
 -23.88065 -1.46570 -0.64954 -0.06680 -0.01395 0.00220 0.58559 0.64736 0.70263 0.78630
 1.11726 1.53809 1.54397 1.91154 2.09817 2.46679 2.71877 3.31601 3.38094 3.40807
 3.50350 3.51538
 == 481-th k-point (-0.51822,0.10364,0.72551) occupation: 6==
 -23.88069 -1.46580 -0.65142 -0.05217 -0.02465 0.00857 0.56490 0.61135 0.72161 0.78259
 1.23669 1.41911 1.55389 1.82120 2.15311 2.35362 2.69460 3.32241 3.43019 3.46210
 3.50081 3.51045
 == 482-th k-point (-0.41458,0.20729,0.62187) occupation: 6==
 -23.88063 -1.46605 -0.65508 -0.05086 -0.00976 0.01779 0.50747 0.62347 0.74523 0.77615
 1.36478 1.38531 1.59152 1.72917 2.14446 2.42386 2.46811 3.34622 3.44738 3.50335
 3.50614 3.54118
 == 483-th k-point (-0.31093,0.31093,0.51822) occupation: 6==
 -23.88054 -1.46630 -0.65834 -0.05436 0.01395 0.02280 0.46815 0.64945 0.74968 0.76337
 1.42138 1.55333 1.58787 1.69850 1.96982 2.10371 2.57797 3.36587 3.39922 3.51091
 3.52956 3.67209
 == 484-th k-point (-0.20729,0.41458,0.41458) occupation: 6==
 -23.88057 -1.46640 -0.65936 -0.04974 0.01093 0.02695 0.46622 0.64676 0.74974 0.77309
 1.32211 1.58407 1.65200 1.74953 2.06455 2.08081 2.58385 3.35611 3.40440 3.51134
 3.53484 3.70938
 == 485-th k-point (-0.10364,0.51822,0.31093) occupation: 6==
 -23.88064 -1.46632 -0.65760 -0.04295 -0.00557 0.02035 0.49866 0.63479 0.75333 0.78489
 1.22932 1.44689 1.68432 1.75895 2.07338 2.34766 2.56277 3.33649 3.41696 3.50164
 3.51624 3.55060
 == 486-th k-point (0.00000,0.62187,0.20729) occupation: 6==
 -23.88063 -1.46608 -0.65402 -0.05327 -0.00777 0.00880 0.53990 0.65531 0.73304 0.78852
 1.13461 1.45124 1.68187 1.85044 2.05936 2.44784 2.63720 3.31892 3.36784 3.47084
 3.50137 3.51954
 == 487-th k-point (0.10364,0.72551,0.10364) occupation: 6==
 -23.88042 -1.46582 -0.65063 -0.06750 -0.00624 0.00235 0.57055 0.68093 0.73893 0.78108
 1.19070 1.57832 1.78192 1.78375 2.08308 2.47428 2.56885 3.32633 3.36793 3.41458
 3.50118 3.51082
 == 488-th k-point (-0.51822,-0.10364,0.93280) occupation: 6==
 -23.88069 -1.46580 -0.65142 -0.05217 -0.02465 0.00857 0.56490 0.61135 0.72161 0.78259
 1.23669 1.41911 1.55389 1.82120 2.15311 2.35362 2.69460 3.32241 3.43019 3.46210
 3.50081 3.51045
 == 489-th k-point (-0.41458,-0.00000,0.82916) occupation: 6==
 -23.88077 -1.46569 -0.65010 -0.04165 -0.04165 0.00608 0.59804 0.59804 0.69096 0.78541
 1.31595 1.31595 1.50602 1.83718 2.22381 2.22381 2.78818 3.31601 3.41564 3.49411
 3.49411 3.50144
 == 490-th k-point (-0.31093,0.10364,0.72551) occupation: 6==
 -23.88069 -1.46580 -0.65142 -0.05217 -0.02465 0.00857 0.56490 0.61135 0.72161 0.78259
 1.23669 1.41911 1.55389 1.82120 2.15311 2.35362 2.69460 3.32241 3.43019 3.46210
 3.50081 3.51045
 == 491-th k-point (-0.20729,0.20729,0.62187) occupation: 6==
 -23.88049 -1.46607 -0.65455 -0.05243 -0.00731 0.01227 0.52355 0.63889 0.75926 0.76747
 1.29859 1.50983 1.66329 1.74727 2.11041 2.21351 2.49278 3.34990 3.42117 3.49966
 3.51149 3.55639
 == 492-th k-point (-0.10364,0.31093,0.51822) occupation: 6==
 -23.88064 -1.46632 -0.65760 -0.04295 -0.00557 0.02035 0.49866 0.63479 0.75333 0.78489
 1.22932 1.44689 1.68432 1.75895 2.07338 2.34766 2.56277 3.33649 3.41696 3.50164
 3.51624 3.55060
 == 493-th k-point (0.00000,0.41458,0.41458) occupation: 6==
 -23.88059 -1.46640 -0.65884 -0.03305 -0.01375 0.02649 0.49220 0.62381 0.76041 0.78834
 1.23936 1.57380 1.68326 1.82249 2.07608 2.42867 2.49330 3.31595 3.43577 3.49867
 3.51893 3.65803
 == 494-th k-point (0.10364,0.51822,0.31093) occupation: 6==
 -23.88064 -1.46632 -0.65760 -0.04295 -0.00557 0.02035 0.49866 0.63479 0.75333 0.78489
 1.22932 1.44689 1.68432 1.75895 2.07338 2.34766 2.56277 3.33649 3.41696 3.50164
 3.51624 3.55060
 == 495-th k-point (0.20729,0.62187,0.20729) occupation: 6==
 -23.88049 -1.46607 -0.65455 -0.05243 -0.00731 0.01227 0.52355 0.63889 0.75926 0.76747
 1.29859 1.50983 1.66329 1.74727 2.11041 2.21351 2.49278 3.34990 3.42117 3.49966
 3.51149 3.55639
 == 496-th k-point (-0.41458,-0.20729,1.03645) occupation: 6==
 -23.88063 -1.46605 -0.65508 -0.05086 -0.00976 0.01779 0.50747 0.62347 0.74523 0.77615
 1.36478 1.38531 1.59152 1.72917 2.14446 2.42386 2.46811 3.34622 3.44738 3.50335
 3.50614 3.54118
 == 497-th k-point (-0.31093,-0.10364,0.93280) occupation: 6==
 -23.88069 -1.46580 -0.65142 -0.05217 -0.02465 0.00857 0.56490 0.61135 0.72161 0.78259
 1.23669 1.41911 1.55389 1.82120 2.15311 2.35362 2.69460 3.32241 3.43019 3.46210
 3.50081 3.51045
 == 498-th k-point (-0.20729,-0.00000,0.82916) occupation: 6==
 -23.88065 -1.46570 -0.64954 -0.06680 -0.01395 0.00220 0.58559 0.64736 0.70263 0.78630
 1.11726 1.53809 1.54397 1.91154 2.09817 2.46679 2.71877 3.31601 3.38094 3.40807
 3.50350 3.51538
 == 499-th k-point (-0.10364,0.10364,0.72551) occupation: 6==
 -23.88042 -1.46582 -0.65063 -0.06750 -0.00624 0.00235 0.57055 0.68093 0.73893 0.78108
 1.19070 1.57832 1.78192 1.78375 2.08308 2.47428 2.56885 3.32633 3.36793 3.41458
 3.50118 3.51082
 == 500-th k-point (0.00000,0.20729,0.62187) occupation: 6==
 -23.88063 -1.46608 -0.65402 -0.05327 -0.00777 0.00880 0.53990 0.65531 0.73304 0.78852
 1.13461 1.45124 1.68187 1.85044 2.05936 2.44784 2.63720 3.31892 3.36784 3.47084
 3.50137 3.51954
 == 501-th k-point (0.10364,0.31093,0.51822) occupation: 6==
 -23.88064 -1.46632 -0.65760 -0.04295 -0.00557 0.02035 0.49866 0.63479 0.75333 0.78489
 1.22932 1.44689 1.68432 1.75895 2.07338 2.34766 2.56277 3.33649 3.41696 3.50164
 3.51624 3.55060
 == 502-th k-point (0.20729,0.41458,0.41458) occupation: 6==
 -23.88057 -1.46640 -0.65936 -0.04974 0.01093 0.02695 0.46622 0.64676 0.74974 0.77309
 1.32210 1.58407 1.65200 1.74952 2.06455 2.08081 2.58385 3.35611 3.40440 3.51134
 3.53484 3.70938
 == 503-th k-point (0.31093,0.51822,0.31093) occupation: 6==
 -23.88054 -1.46630 -0.65834 -0.05436 0.01395 0.02280 0.46815 0.64945 0.74968 0.76337
 1.42138 1.55333 1.58787 1.69850 1.96982 2.10371 2.57797 3.36587 3.39922 3.51091
 3.52956 3.67209
 == 504-th k-point (-0.31093,-0.31093,1.14009) occupation: 6==
 -23.88054 -1.46630 -0.65834 -0.05436 0.01395 0.02280 0.46815 0.64945 0.74968 0.76337
 1.42138 1.55333 1.58787 1.69850 1.96982 2.10371 2.57797 3.36587 3.39922 3.51091
 3.52956 3.67209
 == 505-th k-point (-0.20729,-0.20729,1.03645) occupation: 6==
 -23.88049 -1.46607 -0.65455 -0.05243 -0.00731 0.01227 0.52355 0.63889 0.75926 0.76747
 1.29859 1.50983 1.66329 1.74727 2.11041 2.21351 2.49278 3.34990 3.42117 3.49966
 3.51149 3.55639
 == 506-th k-point (-0.10364,-0.10364,0.93280) occupation: 6==
 -23.88042 -1.46582 -0.65063 -0.06750 -0.00624 0.00235 0.57055 0.68093 0.73893 0.78108
 1.19070 1.57832 1.78192 1.78375 2.08308 2.47428 2.56885 3.32633 3.36793 3.41458
 3.50118 3.51082
 == 507-th k-point (0.00000,-0.00000,0.82916) occupation: 6==
 -23.88035 -1.46572 -0.64897 -0.07661 -0.00162 -0.00162 0.58347 0.71439 0.78622 0.78622
 1.63602 1.74808 1.84123 1.84123 2.63039 2.63040 2.64948 3.31116 3.31588 3.31601
 3.31601 3.50456
 == 508-th k-point (0.10364,0.10364,0.72551) occupation: 6==
 -23.88042 -1.46582 -0.65063 -0.06750 -0.00624 0.00235 0.57055 0.68093 0.73893 0.78108
 1.19070 1.57832 1.78192 1.78375 2.08308 2.47428 2.56885 3.32633 3.36793 3.41458
 3.50118 3.51082
 == 509-th k-point (0.20729,0.20729,0.62187) occupation: 6==
 -23.88049 -1.46607 -0.65455 -0.05243 -0.00731 0.01227 0.52355 0.63889 0.75926 0.76747
 1.29859 1.50983 1.66329 1.74727 2.11041 2.21351 2.49278 3.34990 3.42117 3.49966
 3.51149 3.55639
 == 510-th k-point (0.31093,0.31093,0.51822) occupation: 6==
 -23.88054 -1.46630 -0.65834 -0.05436 0.01395 0.02280 0.46815 0.64945 0.74968 0.76337
 1.42138 1.55333 1.58787 1.69850 1.96982 2.10371 2.57797 3.36587 3.39922 3.51091
 3.52956 3.67209
 == 511-th k-point (0.41458,0.41458,0.41458) occupation: 6==
 -23.88055 -1.46635 -0.65988 -0.05760 0.02741 0.02741 0.44456 0.67940 0.73838 0.73838
 1.61281 1.61991 1.61991 1.79594 1.79594 2.08714 2.66567 3.37119 3.37119 3.51258
 3.73953 3.73953
 ---------------------------------------------------------------------------
 VBM is at 219-th k-point with 0.96805 eV
 CBM is at 219-th k-point with 10.57285 eV
 Band gap is 9.60480 eV


           Ground-State Mulliken Net Atomic Charges

      Atom                 Charge (a.u.)          Spin (a.u.)
   --------------------------------------------------------
      1 Li               (0.468595,-0.000000)    (0.000000,0.000000)
      2  F               (-0.468595,0.000000)    (0.000000,0.000000)
   --------------------------------------------------------
  Sum of atomic charges =      (-0.000000,0.000000)
  Sum of spin   charges =       (0.000000,0.000000)



 Total job time:  251.26 s.
 Tue Sep  9 01:59:36 2025


        *************************************************************
        *                                                           *
        *  Thank you very much for using QCPBC. Have a nice day.    *
        *                                                           *
        *************************************************************

Running job 1 of 1
