                  Welcome to Q-Chem
           with Periodic Boundary Condition
     A Quantum Leap Into The Future Of Chemistry

 Adam Rettig, Xintian Feng, Meng-Fu Chen, Hieu Dinh, Stephen Quiton,
 Anton Ni, Paul J. Robinson, Jinghong Zhang, Joonho Lee

Contributors to earlier versions of Q-Chem not listed above:
 Evgeny Epifanovsky, Leo Cunha, Jerome F. Gonthier, Kuan-Yu Liu
 Input file: /n/netscratch/joonholee_lab/Lab/hieudinh//lif_solve_def2svp_omega_0.9_777.scratch20250909011038/lif_solve_def2svp_omega_0.9_777.0
 Scratch folder: /n/netscratch/joonholee_lab/Lab/hieudinh//lif_solve_def2svp_omega_0.9_777.scratch20250909011038
 Auxillary files located at: /n/holylabs/LABS/joonholee_lab/Lab/qchem_base/qcaux
 Q-Chem begins on Tue Sep  9 01:10:39 2025

 -------------------------------------------------------------
 User input:
 -------------------------------------------------------------
 $lattice
 3
 0.000000 2.005000 2.005000
 2.005000 0.000000 2.005000
 2.005000 2.005000 0.000000
 $end
 
 $unitcell
 ABSOLUTE
 0 1
 Li 0.000000 0.000000 0.000000
 F  2.005000 0.000000 0.000000
 $end
 
 $rem
 jobtype = sp
 method = pbe
 scf_convergence = 5
 scf_guess = autosad
 scf_algorithm = gdm
 basis = def2-svp
 aux_basis = gen
 input_bohr = false
 symmetry false
 is_basis_uctr true
 rsdf_print_level 1
 
 mp_mesh = [7,7,7]
 
 integral_direct true
 bvk_cgto true
 
 thresh 14
 mem_total 100000
 threads 32
 
 MAX_SCF_CYCLES 400
 madelung = false
 omega 0.9
 do_rij_bigmem true
 automate_g true
 print_level 10
 grid_type_xc 1
 
 thresh_1e2c_sp 1e-14
 thresh_2e3c_bra_ket_sep 1e-10
 thresh_g 1e-12
 $end
 
 $aux_basis
 Li     0
 S   7   1.00
     498.3689730              0.0207908
     162.9342738              0.0542177
      57.3246735              0.1776783
      21.6427314              0.4181150
       8.7345375              0.6535245
       3.7491039              0.5492618
       1.7006754              0.1701425
 S   1   1.00
       0.8090859             -0.0097548
 S   1   1.00
       0.4000933             -0.0050152
 S   1   1.00
       0.2035793              0.0232200
 !S   1   1.00
 !      0.1054201              0.0134535
 !S   1   1.00
 !      0.0549139              0.0006647
 P   2   1.00
      10.7024696              0.0072923
       3.6551543              0.0060940
 P   1   1.00
       1.2464013              0.0172529
 P   1   1.00
       0.4246282             -0.0160026
 P   1   1.00
       0.1446192             -0.0195111
 D   2   1.00
       1.1510647             -0.0014314
       0.6019112              0.0038969
 D   1   1.00
       0.3109573              0.0024683
 D   1   1.00
       0.1600032              0.0036451
 F   2   1.00
       0.5967918              0.0010494
       0.1790687              0.0006468
 G   1   1.00
       1.0460130             -0.0001971
 ****
 F     0
 S   7   1.00
    3514.9201549              0.1805835
    1231.2458815              0.3676084
     454.1367336              1.2707881
     175.8376258              2.8274164
      71.2081775              4.3588226
      30.0316883              2.7180994
      13.1259023             -0.0804726
 S   1   1.00
       5.9126861             -0.0023370
 S   1   1.00
       2.7284431              1.1236274
 S   1   1.00
       1.2813993              0.9999042
 S   1   1.00
       0.6082793              0.3119579
 S   1   1.00
       0.2897894              0.0312295
 P   2   1.00
      49.3740409             -0.0346332
      13.4874956             -0.0096069
 P   1   1.00
       3.9664900              0.0762067
 P   1   1.00
       1.2226629             -0.0103329
 P   1   1.00
       0.3830317              0.0018853
 D   2   1.00
      29.9719140             -0.0113316
       6.7860915             -0.0467639
 D   1   1.00
       1.8137313             -0.0167604
 D   1   1.00
       0.5157840             -0.0050777
 F   2   1.00
       2.8301877              1.0
       0.9155962              1.0
 G   1   1.00
       1.6097500             -0.0005411
 ****
 $end
 -------------------------------------------------------------
 Running PBC job

 Requested Exchange Correlation Functionals: 
  DFT Exchange:  1.00000 pbe_x
  DFT Correlation:  1.00000 pbe_c
 using 32 threads for computing.
 ---------------------------------------------------------------
      Coordinates of Atoms in Central Unit Cell (Angstroms)
    I     Atom         X            Y            Z
 ---------------------------------------------------------------
    1      Li      0.000000     0.000000     0.000000
    2       F      2.005000     0.000000     0.000000
 ---------------------------------------------------------------
 --------------------------------------------------
              Lattice Vectors (Angstroms)
              X            Y            Z
 --------------------------------------------------
   X       0.000000     2.005000     2.005000
   Y       2.005000     0.000000     2.005000
   Z       2.005000     2.005000     0.000000
 --------------------------------------------------
 --------------------------------------------------
       Reciprocal Lattice Vectors (Angstroms^-1)
              X            Y            Z
 --------------------------------------------------
   X      -1.566879     1.566879     1.566879
   Y       1.566879    -1.566879     1.566879
   Z       1.566879     1.566879    -1.566879
 --------------------------------------------------

 Single point calculation requested

 Hamiltonian contributions:
 List of terms in Hamiltonian: kpts_nn, kpts_kinetic, kpts_vnuc_df, kpts_xc, kpts_rij_bigmem

 K-Points calculation started.

 Basis set information about using solid harmonic (1) or Cartesian (0):
  li : 
  f : D(1) 

 Basis set information about using solid harmonic (1) or Cartesian (0):
  li : D(1) D(1) D(1) F(1) G(1) 
  f : D(1) D(1) D(1) F(1) G(1) 

 There are 23 basis functions in the central unit cell.
 Print atomic basis of atoms in the central unit cell:
 -------------------------------------------------------------
2 22 22 11

  0.00000000000000e+00  0.00000000000000e+00  0.00000000000000e+00
  3.78890087987467e+00  0.00000000000000e+00  0.00000000000000e+00

  2.66277855160000e+02
  4.00697834470000e+01
  9.05599443890000e+00
  2.45030090510000e+00
  7.22095718550000e-01
  5.28108847210000e-02
  2.09609487980000e-02
  1.45000000000000e+00
  3.00000000000000e-01
  8.20000000000000e-02
  2.89483259900000e+03
  4.35419391200000e+02
  9.88433288660000e+01
  2.74851980010000e+01
  8.54054981710000e+00
  1.06545780380000e+00
  3.32473467480000e-01
  2.26966339240000e+01
  4.98723392570000e+00
  1.34916139540000e+00
  3.48298819770000e-01
  1.40000000000000e+00

  2.98523259158809e-01
  5.30473944856059e-01
  7.38120784182850e-01
  6.64059438610974e-01
  2.38395787996007e-01
  7.85150071492147e-02
  3.92616272060942e-02
  5.10109427593945e-01
  2.75249408957986e-01
  6.25471323993550e-02
 -1.50461836060050e+00
 -2.71519138656203e+00
 -4.00842348425574e+00
 -4.00664898239610e+00
 -1.59245314394331e+00
  7.47415815228736e-01
  3.12052622570615e-01
 -4.57453810587525e+00
 -3.61576784341891e+00
 -1.52308270817964e+00
  3.81399475464114e-01
  2.96574303152418e+00

0 0 0 0 1 1 1
0 0 
5 0

0 1 1 5 1 1 1
5 0 
1 0

0 2 2 6 1 1 1
6 0 
1 0

0 3 3 7 1 3 3
7 1 
2 0

0 6 6 9 1 3 3
9 1 
1 0

1 9 9 10 1 1 1
10 0 
5 0

1 10 10 15 1 1 1
15 0 
1 0

1 11 11 16 1 1 1
16 0 
1 0

1 12 12 17 1 3 3
17 1 
3 0

1 15 15 20 1 3 3
20 1 
1 0

1 18 18 21 1 5 6
21 2 
1 1

 -------------------------------------------------------------
 Allocate 132768 B from available memory: 104857600000 B
 There are 12167 image cells after screening.
 There are 15858 image cells for CGTO evaluation after screening.
 Real-Space grid for FFT initialized based on kinetic energy cutoff (eV) = 500.0
 Real-Space grid for FFT: (8,8,8)
 There are 4913 real-space grid points.
 There are 27 batches of real-space grid points. 
 Size of each grid batch is around 128
 Grid for AFT initialized based on kinetic energy cutoff (eV) = 500.0
 Real-Space grid for AFT: (8,8,8)
 There are 4913 real-space grid points.

 There are 5740 atom-centered grid points.

 Spacegroup symmetry group: Fm-3m
 Reducing spacegroup symmetry to symmorphic group: F m -3 m
 Monkhorst-Pack mesh is [7,7,7]
 There are 343 k points.
kpoints in Bohr
-0.3553528831 -0.3553528831 -0.3553528831
-0.2369019221 -0.2369019221 -0.4738038442
-0.1184509610 -0.1184509610 -0.5922548052
-0.0000000000 0.0000000000 -0.7107057663
0.1184509610 0.1184509610 -0.8291567273
0.2369019221 0.2369019221 -0.9476076883
0.3553528831 0.3553528831 -1.0660586494
-0.2369019221 -0.4738038442 -0.2369019221
-0.1184509610 -0.3553528831 -0.3553528831
-0.0000000000 -0.2369019221 -0.4738038442
0.1184509610 -0.1184509610 -0.5922548052
0.2369019221 0.0000000000 -0.7107057663
0.3553528831 0.1184509610 -0.8291567273
0.4738038442 0.2369019221 -0.9476076883
-0.1184509610 -0.5922548052 -0.1184509610
-0.0000000000 -0.4738038442 -0.2369019221
0.1184509610 -0.3553528831 -0.3553528831
0.2369019221 -0.2369019221 -0.4738038442
0.3553528831 -0.1184509610 -0.5922548052
0.4738038442 0.0000000000 -0.7107057663
0.5922548052 0.1184509610 -0.8291567273
-0.0000000000 -0.7107057663 -0.0000000000
0.1184509610 -0.5922548052 -0.1184509610
0.2369019221 -0.4738038442 -0.2369019221
0.3553528831 -0.3553528831 -0.3553528831
0.4738038442 -0.2369019221 -0.4738038442
0.5922548052 -0.1184509610 -0.5922548052
0.7107057663 0.0000000000 -0.7107057663
0.1184509610 -0.8291567273 0.1184509610
0.2369019221 -0.7107057663 -0.0000000000
0.3553528831 -0.5922548052 -0.1184509610
0.4738038442 -0.4738038442 -0.2369019221
0.5922548052 -0.3553528831 -0.3553528831
0.7107057663 -0.2369019221 -0.4738038442
0.8291567273 -0.1184509610 -0.5922548052
0.2369019221 -0.9476076883 0.2369019221
0.3553528831 -0.8291567273 0.1184509610
0.4738038442 -0.7107057663 -0.0000000000
0.5922548052 -0.5922548052 -0.1184509610
0.7107057663 -0.4738038442 -0.2369019221
0.8291567273 -0.3553528831 -0.3553528831
0.9476076883 -0.2369019221 -0.4738038442
0.3553528831 -1.0660586494 0.3553528831
0.4738038442 -0.9476076883 0.2369019221
0.5922548052 -0.8291567273 0.1184509610
0.7107057663 -0.7107057663 -0.0000000000
0.8291567273 -0.5922548052 -0.1184509610
0.9476076883 -0.4738038442 -0.2369019221
1.0660586494 -0.3553528831 -0.3553528831
-0.4738038442 -0.2369019221 -0.2369019221
-0.3553528831 -0.1184509610 -0.3553528831
-0.2369019221 0.0000000000 -0.4738038442
-0.1184509610 0.1184509610 -0.5922548052
-0.0000000000 0.2369019221 -0.7107057663
0.1184509610 0.3553528831 -0.8291567273
0.2369019221 0.4738038442 -0.9476076883
-0.3553528831 -0.3553528831 -0.1184509610
-0.2369019221 -0.2369019221 -0.2369019221
-0.1184509610 -0.1184509610 -0.3553528831
-0.0000000000 0.0000000000 -0.4738038442
0.1184509610 0.1184509610 -0.5922548052
0.2369019221 0.2369019221 -0.7107057663
0.3553528831 0.3553528831 -0.8291567273
-0.2369019221 -0.4738038442 -0.0000000000
-0.1184509610 -0.3553528831 -0.1184509610
-0.0000000000 -0.2369019221 -0.2369019221
0.1184509610 -0.1184509610 -0.3553528831
0.2369019221 0.0000000000 -0.4738038442
0.3553528831 0.1184509610 -0.5922548052
0.4738038442 0.2369019221 -0.7107057663
-0.1184509610 -0.5922548052 0.1184509610
-0.0000000000 -0.4738038442 -0.0000000000
0.1184509610 -0.3553528831 -0.1184509610
0.2369019221 -0.2369019221 -0.2369019221
0.3553528831 -0.1184509610 -0.3553528831
0.4738038442 0.0000000000 -0.4738038442
0.5922548052 0.1184509610 -0.5922548052
0.0000000000 -0.7107057663 0.2369019221
0.1184509610 -0.5922548052 0.1184509610
0.2369019221 -0.4738038442 -0.0000000000
0.3553528831 -0.3553528831 -0.1184509610
0.4738038442 -0.2369019221 -0.2369019221
0.5922548052 -0.1184509610 -0.3553528831
0.7107057663 0.0000000000 -0.4738038442
0.1184509610 -0.8291567273 0.3553528831
0.2369019221 -0.7107057663 0.2369019221
0.3553528831 -0.5922548052 0.1184509610
0.4738038442 -0.4738038442 -0.0000000000
0.5922548052 -0.3553528831 -0.1184509610
0.7107057663 -0.2369019221 -0.2369019221
0.8291567273 -0.1184509610 -0.3553528831
0.2369019221 -0.9476076883 0.4738038442
0.3553528831 -0.8291567273 0.3553528831
0.4738038442 -0.7107057663 0.2369019221
0.5922548052 -0.5922548052 0.1184509610
0.7107057663 -0.4738038442 -0.0000000000
0.8291567273 -0.3553528831 -0.1184509610
0.9476076883 -0.2369019221 -0.2369019221
-0.5922548052 -0.1184509610 -0.1184509610
-0.4738038442 0.0000000000 -0.2369019221
-0.3553528831 0.1184509610 -0.3553528831
-0.2369019221 0.2369019221 -0.4738038442
-0.1184509610 0.3553528831 -0.5922548052
-0.0000000000 0.4738038442 -0.7107057663
0.1184509610 0.5922548052 -0.8291567273
-0.4738038442 -0.2369019221 -0.0000000000
-0.3553528831 -0.1184509610 -0.1184509610
-0.2369019221 0.0000000000 -0.2369019221
-0.1184509610 0.1184509610 -0.3553528831
-0.0000000000 0.2369019221 -0.4738038442
0.1184509610 0.3553528831 -0.5922548052
0.2369019221 0.4738038442 -0.7107057663
-0.3553528831 -0.3553528831 0.1184509610
-0.2369019221 -0.2369019221 -0.0000000000
-0.1184509610 -0.1184509610 -0.1184509610
-0.0000000000 0.0000000000 -0.2369019221
0.1184509610 0.1184509610 -0.3553528831
0.2369019221 0.2369019221 -0.4738038442
0.3553528831 0.3553528831 -0.5922548052
-0.2369019221 -0.4738038442 0.2369019221
-0.1184509610 -0.3553528831 0.1184509610
-0.0000000000 -0.2369019221 -0.0000000000
0.1184509610 -0.1184509610 -0.1184509610
0.2369019221 0.0000000000 -0.2369019221
0.3553528831 0.1184509610 -0.3553528831
0.4738038442 0.2369019221 -0.4738038442
-0.1184509610 -0.5922548052 0.3553528831
0.0000000000 -0.4738038442 0.2369019221
0.1184509610 -0.3553528831 0.1184509610
0.2369019221 -0.2369019221 -0.0000000000
0.3553528831 -0.1184509610 -0.1184509610
0.4738038442 0.0000000000 -0.2369019221
0.5922548052 0.1184509610 -0.3553528831
0.0000000000 -0.7107057663 0.4738038442
0.1184509610 -0.5922548052 0.3553528831
0.2369019221 -0.4738038442 0.2369019221
0.3553528831 -0.3553528831 0.1184509610
0.4738038442 -0.2369019221 -0.0000000000
0.5922548052 -0.1184509610 -0.1184509610
0.7107057663 0.0000000000 -0.2369019221
0.1184509610 -0.8291567273 0.5922548052
0.2369019221 -0.7107057663 0.4738038442
0.3553528831 -0.5922548052 0.3553528831
0.4738038442 -0.4738038442 0.2369019221
0.5922548052 -0.3553528831 0.1184509610
0.7107057663 -0.2369019221 -0.0000000000
0.8291567273 -0.1184509610 -0.1184509610
-0.7107057663 0.0000000000 0.0000000000
-0.5922548052 0.1184509610 -0.1184509610
-0.4738038442 0.2369019221 -0.2369019221
-0.3553528831 0.3553528831 -0.3553528831
-0.2369019221 0.4738038442 -0.4738038442
-0.1184509610 0.5922548052 -0.5922548052
-0.0000000000 0.7107057663 -0.7107057663
-0.5922548052 -0.1184509610 0.1184509610
-0.4738038442 0.0000000000 0.0000000000
-0.3553528831 0.1184509610 -0.1184509610
-0.2369019221 0.2369019221 -0.2369019221
-0.1184509610 0.3553528831 -0.3553528831
-0.0000000000 0.4738038442 -0.4738038442
0.1184509610 0.5922548052 -0.5922548052
-0.4738038442 -0.2369019221 0.2369019221
-0.3553528831 -0.1184509610 0.1184509610
-0.2369019221 0.0000000000 0.0000000000
-0.1184509610 0.1184509610 -0.1184509610
-0.0000000000 0.2369019221 -0.2369019221
0.1184509610 0.3553528831 -0.3553528831
0.2369019221 0.4738038442 -0.4738038442
-0.3553528831 -0.3553528831 0.3553528831
-0.2369019221 -0.2369019221 0.2369019221
-0.1184509610 -0.1184509610 0.1184509610
0.0000000000 0.0000000000 0.0000000000
0.1184509610 0.1184509610 -0.1184509610
0.2369019221 0.2369019221 -0.2369019221
0.3553528831 0.3553528831 -0.3553528831
-0.2369019221 -0.4738038442 0.4738038442
-0.1184509610 -0.3553528831 0.3553528831
0.0000000000 -0.2369019221 0.2369019221
0.1184509610 -0.1184509610 0.1184509610
0.2369019221 -0.0000000000 0.0000000000
0.3553528831 0.1184509610 -0.1184509610
0.4738038442 0.2369019221 -0.2369019221
-0.1184509610 -0.5922548052 0.5922548052
0.0000000000 -0.4738038442 0.4738038442
0.1184509610 -0.3553528831 0.3553528831
0.2369019221 -0.2369019221 0.2369019221
0.3553528831 -0.1184509610 0.1184509610
0.4738038442 -0.0000000000 0.0000000000
0.5922548052 0.1184509610 -0.1184509610
0.0000000000 -0.7107057663 0.7107057663
0.1184509610 -0.5922548052 0.5922548052
0.2369019221 -0.4738038442 0.4738038442
0.3553528831 -0.3553528831 0.3553528831
0.4738038442 -0.2369019221 0.2369019221
0.5922548052 -0.1184509610 0.1184509610
0.7107057663 -0.0000000000 0.0000000000
-0.8291567273 0.1184509610 0.1184509610
-0.7107057663 0.2369019221 0.0000000000
-0.5922548052 0.3553528831 -0.1184509610
-0.4738038442 0.4738038442 -0.2369019221
-0.3553528831 0.5922548052 -0.3553528831
-0.2369019221 0.7107057663 -0.4738038442
-0.1184509610 0.8291567273 -0.5922548052
-0.7107057663 0.0000000000 0.2369019221
-0.5922548052 0.1184509610 0.1184509610
-0.4738038442 0.2369019221 0.0000000000
-0.3553528831 0.3553528831 -0.1184509610
-0.2369019221 0.4738038442 -0.2369019221
-0.1184509610 0.5922548052 -0.3553528831
-0.0000000000 0.7107057663 -0.4738038442
-0.5922548052 -0.1184509610 0.3553528831
-0.4738038442 -0.0000000000 0.2369019221
-0.3553528831 0.1184509610 0.1184509610
-0.2369019221 0.2369019221 0.0000000000
-0.1184509610 0.3553528831 -0.1184509610
-0.0000000000 0.4738038442 -0.2369019221
0.1184509610 0.5922548052 -0.3553528831
-0.4738038442 -0.2369019221 0.4738038442
-0.3553528831 -0.1184509610 0.3553528831
-0.2369019221 -0.0000000000 0.2369019221
-0.1184509610 0.1184509610 0.1184509610
0.0000000000 0.2369019221 0.0000000000
0.1184509610 0.3553528831 -0.1184509610
0.2369019221 0.4738038442 -0.2369019221
-0.3553528831 -0.3553528831 0.5922548052
-0.2369019221 -0.2369019221 0.4738038442
-0.1184509610 -0.1184509610 0.3553528831
0.0000000000 -0.0000000000 0.2369019221
0.1184509610 0.1184509610 0.1184509610
0.2369019221 0.2369019221 0.0000000000
0.3553528831 0.3553528831 -0.1184509610
-0.2369019221 -0.4738038442 0.7107057663
-0.1184509610 -0.3553528831 0.5922548052
0.0000000000 -0.2369019221 0.4738038442
0.1184509610 -0.1184509610 0.3553528831
0.2369019221 -0.0000000000 0.2369019221
0.3553528831 0.1184509610 0.1184509610
0.4738038442 0.2369019221 0.0000000000
-0.1184509610 -0.5922548052 0.8291567273
0.0000000000 -0.4738038442 0.7107057663
0.1184509610 -0.3553528831 0.5922548052
0.2369019221 -0.2369019221 0.4738038442
0.3553528831 -0.1184509610 0.3553528831
0.4738038442 -0.0000000000 0.2369019221
0.5922548052 0.1184509610 0.1184509610
-0.9476076883 0.2369019221 0.2369019221
-0.8291567273 0.3553528831 0.1184509610
-0.7107057663 0.4738038442 0.0000000000
-0.5922548052 0.5922548052 -0.1184509610
-0.4738038442 0.7107057663 -0.2369019221
-0.3553528831 0.8291567273 -0.3553528831
-0.2369019221 0.9476076883 -0.4738038442
-0.8291567273 0.1184509610 0.3553528831
-0.7107057663 0.2369019221 0.2369019221
-0.5922548052 0.3553528831 0.1184509610
-0.4738038442 0.4738038442 0.0000000000
-0.3553528831 0.5922548052 -0.1184509610
-0.2369019221 0.7107057663 -0.2369019221
-0.1184509610 0.8291567273 -0.3553528831
-0.7107057663 -0.0000000000 0.4738038442
-0.5922548052 0.1184509610 0.3553528831
-0.4738038442 0.2369019221 0.2369019221
-0.3553528831 0.3553528831 0.1184509610
-0.2369019221 0.4738038442 0.0000000000
-0.1184509610 0.5922548052 -0.1184509610
0.0000000000 0.7107057663 -0.2369019221
-0.5922548052 -0.1184509610 0.5922548052
-0.4738038442 -0.0000000000 0.4738038442
-0.3553528831 0.1184509610 0.3553528831
-0.2369019221 0.2369019221 0.2369019221
-0.1184509610 0.3553528831 0.1184509610
0.0000000000 0.4738038442 0.0000000000
0.1184509610 0.5922548052 -0.1184509610
-0.4738038442 -0.2369019221 0.7107057663
-0.3553528831 -0.1184509610 0.5922548052
-0.2369019221 -0.0000000000 0.4738038442
-0.1184509610 0.1184509610 0.3553528831
0.0000000000 0.2369019221 0.2369019221
0.1184509610 0.3553528831 0.1184509610
0.2369019221 0.4738038442 0.0000000000
-0.3553528831 -0.3553528831 0.8291567273
-0.2369019221 -0.2369019221 0.7107057663
-0.1184509610 -0.1184509610 0.5922548052
0.0000000000 -0.0000000000 0.4738038442
0.1184509610 0.1184509610 0.3553528831
0.2369019221 0.2369019221 0.2369019221
0.3553528831 0.3553528831 0.1184509610
-0.2369019221 -0.4738038442 0.9476076883
-0.1184509610 -0.3553528831 0.8291567273
0.0000000000 -0.2369019221 0.7107057663
0.1184509610 -0.1184509610 0.5922548052
0.2369019221 -0.0000000000 0.4738038442
0.3553528831 0.1184509610 0.3553528831
0.4738038442 0.2369019221 0.2369019221
-1.0660586494 0.3553528831 0.3553528831
-0.9476076883 0.4738038442 0.2369019221
-0.8291567273 0.5922548052 0.1184509610
-0.7107057663 0.7107057663 0.0000000000
-0.5922548052 0.8291567273 -0.1184509610
-0.4738038442 0.9476076883 -0.2369019221
-0.3553528831 1.0660586494 -0.3553528831
-0.9476076883 0.2369019221 0.4738038442
-0.8291567273 0.3553528831 0.3553528831
-0.7107057663 0.4738038442 0.2369019221
-0.5922548052 0.5922548052 0.1184509610
-0.4738038442 0.7107057663 0.0000000000
-0.3553528831 0.8291567273 -0.1184509610
-0.2369019221 0.9476076883 -0.2369019221
-0.8291567273 0.1184509610 0.5922548052
-0.7107057663 0.2369019221 0.4738038442
-0.5922548052 0.3553528831 0.3553528831
-0.4738038442 0.4738038442 0.2369019221
-0.3553528831 0.5922548052 0.1184509610
-0.2369019221 0.7107057663 0.0000000000
-0.1184509610 0.8291567273 -0.1184509610
-0.7107057663 -0.0000000000 0.7107057663
-0.5922548052 0.1184509610 0.5922548052
-0.4738038442 0.2369019221 0.4738038442
-0.3553528831 0.3553528831 0.3553528831
-0.2369019221 0.4738038442 0.2369019221
-0.1184509610 0.5922548052 0.1184509610
0.0000000000 0.7107057663 0.0000000000
-0.5922548052 -0.1184509610 0.8291567273
-0.4738038442 -0.0000000000 0.7107057663
-0.3553528831 0.1184509610 0.5922548052
-0.2369019221 0.2369019221 0.4738038442
-0.1184509610 0.3553528831 0.3553528831
0.0000000000 0.4738038442 0.2369019221
0.1184509610 0.5922548052 0.1184509610
-0.4738038442 -0.2369019221 0.9476076883
-0.3553528831 -0.1184509610 0.8291567273
-0.2369019221 -0.0000000000 0.7107057663
-0.1184509610 0.1184509610 0.5922548052
0.0000000000 0.2369019221 0.4738038442
0.1184509610 0.3553528831 0.3553528831
0.2369019221 0.4738038442 0.2369019221
-0.3553528831 -0.3553528831 1.0660586494
-0.2369019221 -0.2369019221 0.9476076883
-0.1184509610 -0.1184509610 0.8291567273
0.0000000000 -0.0000000000 0.7107057663
0.1184509610 0.1184509610 0.5922548052
0.2369019221 0.2369019221 0.4738038442
0.3553528831 0.3553528831 0.3553528831
 There are 6 alpha and 6 beta electrons
 Start computing overlap matrix
 Allocate 2903152 B from available memory: 104857467232 B
 Time for computing overlap matrix: 16.4770000000 s
 ====== Initialize compute kernels for all-electron RI-J (kpts) ====== 
 ========================================================== 
 Range-separated parameter omega        = 0.900000000000000022
 Threshold for 1e2c shellpair           = 0.000000000000010000
 Threshold for 2e2c SR integral         = 0.000000000000000001
 Threshold for 2e3c SR integral         = 0.000000000100000000
 Threshold for AFT G-space screening is = 0.000000000001000000
 The exponent cutoff for C/D classification (omega2 / 2) is  = 0.405000000000000027
 ========================================================== 
 === Post process the basis set for RI calculation (exp_cutoff = 0.405000000000000027 ) === 
nshells_b1 before uncontraction = 11
nshells_b1 after uncontraction = 12
nshells_baux before uncontraction = 28
nshells_baux after uncontraction = 28
===============================================
nbsf total   = 26
nbsf compact = 14
nbsf diffuse = 12
naux total   = 96
naux compact = 96
naux diffuse = 0
nshells_bnuc = 2

 Number of unique atoms is 2
 Unique atom #0 (li) has 2 shells.
 Unique atom #1 (f) has 4 shells.

Shell 0 to 1 belongs to atom li
Shell 2 to 5 belongs to atom f

 Number of unique atoms is 2
 Unique atom #0 (li) has 4 shells.
 Unique atom #1 (f) has 2 shells.

Shell 0 to 3 belongs to atom li
Shell 4 to 5 belongs to atom f

 Number of unique atom is 2
 Unique atom #0 (li) has 13 auxiliary shells.
 Unique atom #1 (f) has 15 auxiliary shells.

Auxiliary Shell 0 to 12 belongs to atom li
Auxiliary Shell 13 to 27 belongs to atom f

================= Automatically determine grid size for reciprocal space summation =================
 Range-separated parameter = 0.90000000000000 and G-space screening threshold = 0.00000000000100
The number of grid points along each axis dimension is (7, 7, 7)
Total number of grid points = 3375

Use nonortho shellpair for diffuse density
======== Initializing relevant kernel for RIJ (DD type) ========
There are 21 shellpairs in the reference unit cell
There are 21037 images and we expect to have 441777 in total
There are 22367 shellpairs in the lattice sum after screening
======== Initializing relevant kernel for RIJ (CD type) ========
There are 36 shellpairs in the reference unit cell
There are 11345 images and we expect to have 408420 in total
There are 18422 shellpairs in the lattice sum after screening
****** AFT -> SR ******
Maximum bra distance cutoff is 38.000000000000
Maximum bra ket distance cutoff is 17.319928803145
Maximum bra ket screening distance is 16.812500000000
Number of auxiliary image is 3661
There are 36 shellpairs in the reference unit cell
There are 3661 images and we expect to have 131796 in total
There are 18422 shellpairs in the lattice sum after screening
Available memory per thread for 2e3c calculation is 3.276705128000Gb
Finish initializing 2e3c SR with the lattice sum!
=================================================
======== Initializing relevant kernel for RIJ (CC type) ========
There are 21 shellpairs in the reference unit cell
There are 527 images and we expect to have 11067 in total
There are 255 shellpairs in the lattice sum after screening
****** AFT -> SR ******
Maximum bra distance cutoff is 9.000000000000
Maximum bra ket distance cutoff is 18.479079330277
Maximum bra ket screening distance is 16.562500000000
Number of auxiliary image is 647
There are 21 shellpairs in the reference unit cell
There are 117 images and we expect to have 2457 in total
There are 255 shellpairs in the lattice sum after screening
Available memory per thread for 2e3c calculation is 3.276705128000Gb
Finish initializing 2e3c SR with the lattice sum!
=================================================
======== Initializing the SR component for Vnuc (CD type) ========
Maximum bra distance cutoff is 38.000000000000
Maximum bra ket distance cutoff is 8.157803433096
Maximum bra ket screening distance is 7.681203387974
Number of auxiliary image is 3661
There are 36 shellpairs in the reference unit cell
There are 3661 images and we expect to have 131796 in total
There are 18422 shellpairs in the lattice sum after screening
Available memory per thread for 2e3c calculation is 3.276705128000Gb
Finish initializing 2e3c SR with the lattice sum!
=================================================
======== Initialize the SR component for Vnuc (CC type) ========
Maximum bra distance cutoff is 9.000000000000
Maximum bra ket distance cutoff is 10.175490900892
Maximum bra ket screening distance is 6.800848225094
Number of auxiliary image is 213
There are 21 shellpairs in the reference unit cell
There are 117 images and we expect to have 2457 in total
There are 255 shellpairs in the lattice sum after screening
Available memory per thread for 2e3c calculation is 3.276705128000Gb
Finish initializing 2e3c SR with the lattice sum!
=================================================
 Aufbau occupation scheme, occupation determined by eigenvalue
 == 0-th k-point nmo = 22 (-0.35535,-0.35535,-0.35535) ==
 == 1-th k-point nmo = 22 (-0.23690,-0.23690,-0.47380) ==
 == 2-th k-point nmo = 22 (-0.11845,-0.11845,-0.59225) ==
 == 3-th k-point nmo = 22 (-0.00000,0.00000,-0.71071) ==
 == 4-th k-point nmo = 22 (0.11845,0.11845,-0.82916) ==
 == 5-th k-point nmo = 22 (0.23690,0.23690,-0.94761) ==
 == 6-th k-point nmo = 22 (0.35535,0.35535,-1.06606) ==
 == 7-th k-point nmo = 22 (-0.23690,-0.47380,-0.23690) ==
 == 8-th k-point nmo = 22 (-0.11845,-0.35535,-0.35535) ==
 == 9-th k-point nmo = 22 (-0.00000,-0.23690,-0.47380) ==
 == 10-th k-point nmo = 22 (0.11845,-0.11845,-0.59225) ==
 == 11-th k-point nmo = 22 (0.23690,0.00000,-0.71071) ==
 == 12-th k-point nmo = 22 (0.35535,0.11845,-0.82916) ==
 == 13-th k-point nmo = 22 (0.47380,0.23690,-0.94761) ==
 == 14-th k-point nmo = 22 (-0.11845,-0.59225,-0.11845) ==
 == 15-th k-point nmo = 22 (-0.00000,-0.47380,-0.23690) ==
 == 16-th k-point nmo = 22 (0.11845,-0.35535,-0.35535) ==
 == 17-th k-point nmo = 22 (0.23690,-0.23690,-0.47380) ==
 == 18-th k-point nmo = 22 (0.35535,-0.11845,-0.59225) ==
 == 19-th k-point nmo = 22 (0.47380,0.00000,-0.71071) ==
 == 20-th k-point nmo = 22 (0.59225,0.11845,-0.82916) ==
 == 21-th k-point nmo = 22 (-0.00000,-0.71071,-0.00000) ==
 == 22-th k-point nmo = 22 (0.11845,-0.59225,-0.11845) ==
 == 23-th k-point nmo = 22 (0.23690,-0.47380,-0.23690) ==
 == 24-th k-point nmo = 22 (0.35535,-0.35535,-0.35535) ==
 == 25-th k-point nmo = 22 (0.47380,-0.23690,-0.47380) ==
 == 26-th k-point nmo = 22 (0.59225,-0.11845,-0.59225) ==
 == 27-th k-point nmo = 22 (0.71071,0.00000,-0.71071) ==
 == 28-th k-point nmo = 22 (0.11845,-0.82916,0.11845) ==
 == 29-th k-point nmo = 22 (0.23690,-0.71071,-0.00000) ==
 == 30-th k-point nmo = 22 (0.35535,-0.59225,-0.11845) ==
 == 31-th k-point nmo = 22 (0.47380,-0.47380,-0.23690) ==
 == 32-th k-point nmo = 22 (0.59225,-0.35535,-0.35535) ==
 == 33-th k-point nmo = 22 (0.71071,-0.23690,-0.47380) ==
 == 34-th k-point nmo = 22 (0.82916,-0.11845,-0.59225) ==
 == 35-th k-point nmo = 22 (0.23690,-0.94761,0.23690) ==
 == 36-th k-point nmo = 22 (0.35535,-0.82916,0.11845) ==
 == 37-th k-point nmo = 22 (0.47380,-0.71071,-0.00000) ==
 == 38-th k-point nmo = 22 (0.59225,-0.59225,-0.11845) ==
 == 39-th k-point nmo = 22 (0.71071,-0.47380,-0.23690) ==
 == 40-th k-point nmo = 22 (0.82916,-0.35535,-0.35535) ==
 == 41-th k-point nmo = 22 (0.94761,-0.23690,-0.47380) ==
 == 42-th k-point nmo = 22 (0.35535,-1.06606,0.35535) ==
 == 43-th k-point nmo = 22 (0.47380,-0.94761,0.23690) ==
 == 44-th k-point nmo = 22 (0.59225,-0.82916,0.11845) ==
 == 45-th k-point nmo = 22 (0.71071,-0.71071,-0.00000) ==
 == 46-th k-point nmo = 22 (0.82916,-0.59225,-0.11845) ==
 == 47-th k-point nmo = 22 (0.94761,-0.47380,-0.23690) ==
 == 48-th k-point nmo = 22 (1.06606,-0.35535,-0.35535) ==
 == 49-th k-point nmo = 22 (-0.47380,-0.23690,-0.23690) ==
 == 50-th k-point nmo = 22 (-0.35535,-0.11845,-0.35535) ==
 == 51-th k-point nmo = 22 (-0.23690,0.00000,-0.47380) ==
 == 52-th k-point nmo = 22 (-0.11845,0.11845,-0.59225) ==
 == 53-th k-point nmo = 22 (-0.00000,0.23690,-0.71071) ==
 == 54-th k-point nmo = 22 (0.11845,0.35535,-0.82916) ==
 == 55-th k-point nmo = 22 (0.23690,0.47380,-0.94761) ==
 == 56-th k-point nmo = 22 (-0.35535,-0.35535,-0.11845) ==
 == 57-th k-point nmo = 22 (-0.23690,-0.23690,-0.23690) ==
 == 58-th k-point nmo = 22 (-0.11845,-0.11845,-0.35535) ==
 == 59-th k-point nmo = 22 (-0.00000,0.00000,-0.47380) ==
 == 60-th k-point nmo = 22 (0.11845,0.11845,-0.59225) ==
 == 61-th k-point nmo = 22 (0.23690,0.23690,-0.71071) ==
 == 62-th k-point nmo = 22 (0.35535,0.35535,-0.82916) ==
 == 63-th k-point nmo = 22 (-0.23690,-0.47380,-0.00000) ==
 == 64-th k-point nmo = 22 (-0.11845,-0.35535,-0.11845) ==
 == 65-th k-point nmo = 22 (-0.00000,-0.23690,-0.23690) ==
 == 66-th k-point nmo = 22 (0.11845,-0.11845,-0.35535) ==
 == 67-th k-point nmo = 22 (0.23690,0.00000,-0.47380) ==
 == 68-th k-point nmo = 22 (0.35535,0.11845,-0.59225) ==
 == 69-th k-point nmo = 22 (0.47380,0.23690,-0.71071) ==
 == 70-th k-point nmo = 22 (-0.11845,-0.59225,0.11845) ==
 == 71-th k-point nmo = 22 (-0.00000,-0.47380,-0.00000) ==
 == 72-th k-point nmo = 22 (0.11845,-0.35535,-0.11845) ==
 == 73-th k-point nmo = 22 (0.23690,-0.23690,-0.23690) ==
 == 74-th k-point nmo = 22 (0.35535,-0.11845,-0.35535) ==
 == 75-th k-point nmo = 22 (0.47380,0.00000,-0.47380) ==
 == 76-th k-point nmo = 22 (0.59225,0.11845,-0.59225) ==
 == 77-th k-point nmo = 22 (0.00000,-0.71071,0.23690) ==
 == 78-th k-point nmo = 22 (0.11845,-0.59225,0.11845) ==
 == 79-th k-point nmo = 22 (0.23690,-0.47380,-0.00000) ==
 == 80-th k-point nmo = 22 (0.35535,-0.35535,-0.11845) ==
 == 81-th k-point nmo = 22 (0.47380,-0.23690,-0.23690) ==
 == 82-th k-point nmo = 22 (0.59225,-0.11845,-0.35535) ==
 == 83-th k-point nmo = 22 (0.71071,0.00000,-0.47380) ==
 == 84-th k-point nmo = 22 (0.11845,-0.82916,0.35535) ==
 == 85-th k-point nmo = 22 (0.23690,-0.71071,0.23690) ==
 == 86-th k-point nmo = 22 (0.35535,-0.59225,0.11845) ==
 == 87-th k-point nmo = 22 (0.47380,-0.47380,-0.00000) ==
 == 88-th k-point nmo = 22 (0.59225,-0.35535,-0.11845) ==
 == 89-th k-point nmo = 22 (0.71071,-0.23690,-0.23690) ==
 == 90-th k-point nmo = 22 (0.82916,-0.11845,-0.35535) ==
 == 91-th k-point nmo = 22 (0.23690,-0.94761,0.47380) ==
 == 92-th k-point nmo = 22 (0.35535,-0.82916,0.35535) ==
 == 93-th k-point nmo = 22 (0.47380,-0.71071,0.23690) ==
 == 94-th k-point nmo = 22 (0.59225,-0.59225,0.11845) ==
 == 95-th k-point nmo = 22 (0.71071,-0.47380,-0.00000) ==
 == 96-th k-point nmo = 22 (0.82916,-0.35535,-0.11845) ==
 == 97-th k-point nmo = 22 (0.94761,-0.23690,-0.23690) ==
 == 98-th k-point nmo = 22 (-0.59225,-0.11845,-0.11845) ==
 == 99-th k-point nmo = 22 (-0.47380,0.00000,-0.23690) ==
 == 100-th k-point nmo = 22 (-0.35535,0.11845,-0.35535) ==
 == 101-th k-point nmo = 22 (-0.23690,0.23690,-0.47380) ==
 == 102-th k-point nmo = 22 (-0.11845,0.35535,-0.59225) ==
 == 103-th k-point nmo = 22 (-0.00000,0.47380,-0.71071) ==
 == 104-th k-point nmo = 22 (0.11845,0.59225,-0.82916) ==
 == 105-th k-point nmo = 22 (-0.47380,-0.23690,-0.00000) ==
 == 106-th k-point nmo = 22 (-0.35535,-0.11845,-0.11845) ==
 == 107-th k-point nmo = 22 (-0.23690,0.00000,-0.23690) ==
 == 108-th k-point nmo = 22 (-0.11845,0.11845,-0.35535) ==
 == 109-th k-point nmo = 22 (-0.00000,0.23690,-0.47380) ==
 == 110-th k-point nmo = 22 (0.11845,0.35535,-0.59225) ==
 == 111-th k-point nmo = 22 (0.23690,0.47380,-0.71071) ==
 == 112-th k-point nmo = 22 (-0.35535,-0.35535,0.11845) ==
 == 113-th k-point nmo = 22 (-0.23690,-0.23690,-0.00000) ==
 == 114-th k-point nmo = 22 (-0.11845,-0.11845,-0.11845) ==
 == 115-th k-point nmo = 22 (-0.00000,0.00000,-0.23690) ==
 == 116-th k-point nmo = 22 (0.11845,0.11845,-0.35535) ==
 == 117-th k-point nmo = 22 (0.23690,0.23690,-0.47380) ==
 == 118-th k-point nmo = 22 (0.35535,0.35535,-0.59225) ==
 == 119-th k-point nmo = 22 (-0.23690,-0.47380,0.23690) ==
 == 120-th k-point nmo = 22 (-0.11845,-0.35535,0.11845) ==
 == 121-th k-point nmo = 22 (-0.00000,-0.23690,-0.00000) ==
 == 122-th k-point nmo = 22 (0.11845,-0.11845,-0.11845) ==
 == 123-th k-point nmo = 22 (0.23690,0.00000,-0.23690) ==
 == 124-th k-point nmo = 22 (0.35535,0.11845,-0.35535) ==
 == 125-th k-point nmo = 22 (0.47380,0.23690,-0.47380) ==
 == 126-th k-point nmo = 22 (-0.11845,-0.59225,0.35535) ==
 == 127-th k-point nmo = 22 (0.00000,-0.47380,0.23690) ==
 == 128-th k-point nmo = 22 (0.11845,-0.35535,0.11845) ==
 == 129-th k-point nmo = 22 (0.23690,-0.23690,-0.00000) ==
 == 130-th k-point nmo = 22 (0.35535,-0.11845,-0.11845) ==
 == 131-th k-point nmo = 22 (0.47380,0.00000,-0.23690) ==
 == 132-th k-point nmo = 22 (0.59225,0.11845,-0.35535) ==
 == 133-th k-point nmo = 22 (0.00000,-0.71071,0.47380) ==
 == 134-th k-point nmo = 22 (0.11845,-0.59225,0.35535) ==
 == 135-th k-point nmo = 22 (0.23690,-0.47380,0.23690) ==
 == 136-th k-point nmo = 22 (0.35535,-0.35535,0.11845) ==
 == 137-th k-point nmo = 22 (0.47380,-0.23690,-0.00000) ==
 == 138-th k-point nmo = 22 (0.59225,-0.11845,-0.11845) ==
 == 139-th k-point nmo = 22 (0.71071,0.00000,-0.23690) ==
 == 140-th k-point nmo = 22 (0.11845,-0.82916,0.59225) ==
 == 141-th k-point nmo = 22 (0.23690,-0.71071,0.47380) ==
 == 142-th k-point nmo = 22 (0.35535,-0.59225,0.35535) ==
 == 143-th k-point nmo = 22 (0.47380,-0.47380,0.23690) ==
 == 144-th k-point nmo = 22 (0.59225,-0.35535,0.11845) ==
 == 145-th k-point nmo = 22 (0.71071,-0.23690,-0.00000) ==
 == 146-th k-point nmo = 22 (0.82916,-0.11845,-0.11845) ==
 == 147-th k-point nmo = 22 (-0.71071,0.00000,0.00000) ==
 == 148-th k-point nmo = 22 (-0.59225,0.11845,-0.11845) ==
 == 149-th k-point nmo = 22 (-0.47380,0.23690,-0.23690) ==
 == 150-th k-point nmo = 22 (-0.35535,0.35535,-0.35535) ==
 == 151-th k-point nmo = 22 (-0.23690,0.47380,-0.47380) ==
 == 152-th k-point nmo = 22 (-0.11845,0.59225,-0.59225) ==
 == 153-th k-point nmo = 22 (-0.00000,0.71071,-0.71071) ==
 == 154-th k-point nmo = 22 (-0.59225,-0.11845,0.11845) ==
 == 155-th k-point nmo = 22 (-0.47380,0.00000,0.00000) ==
 == 156-th k-point nmo = 22 (-0.35535,0.11845,-0.11845) ==
 == 157-th k-point nmo = 22 (-0.23690,0.23690,-0.23690) ==
 == 158-th k-point nmo = 22 (-0.11845,0.35535,-0.35535) ==
 == 159-th k-point nmo = 22 (-0.00000,0.47380,-0.47380) ==
 == 160-th k-point nmo = 22 (0.11845,0.59225,-0.59225) ==
 == 161-th k-point nmo = 22 (-0.47380,-0.23690,0.23690) ==
 == 162-th k-point nmo = 22 (-0.35535,-0.11845,0.11845) ==
 == 163-th k-point nmo = 22 (-0.23690,0.00000,0.00000) ==
 == 164-th k-point nmo = 22 (-0.11845,0.11845,-0.11845) ==
 == 165-th k-point nmo = 22 (-0.00000,0.23690,-0.23690) ==
 == 166-th k-point nmo = 22 (0.11845,0.35535,-0.35535) ==
 == 167-th k-point nmo = 22 (0.23690,0.47380,-0.47380) ==
 == 168-th k-point nmo = 22 (-0.35535,-0.35535,0.35535) ==
 == 169-th k-point nmo = 22 (-0.23690,-0.23690,0.23690) ==
 == 170-th k-point nmo = 22 (-0.11845,-0.11845,0.11845) ==
 == 171-th k-point nmo = 22 (0.00000,0.00000,0.00000) ==
 == 172-th k-point nmo = 22 (0.11845,0.11845,-0.11845) ==
 == 173-th k-point nmo = 22 (0.23690,0.23690,-0.23690) ==
 == 174-th k-point nmo = 22 (0.35535,0.35535,-0.35535) ==
 == 175-th k-point nmo = 22 (-0.23690,-0.47380,0.47380) ==
 == 176-th k-point nmo = 22 (-0.11845,-0.35535,0.35535) ==
 == 177-th k-point nmo = 22 (0.00000,-0.23690,0.23690) ==
 == 178-th k-point nmo = 22 (0.11845,-0.11845,0.11845) ==
 == 179-th k-point nmo = 22 (0.23690,-0.00000,0.00000) ==
 == 180-th k-point nmo = 22 (0.35535,0.11845,-0.11845) ==
 == 181-th k-point nmo = 22 (0.47380,0.23690,-0.23690) ==
 == 182-th k-point nmo = 22 (-0.11845,-0.59225,0.59225) ==
 == 183-th k-point nmo = 22 (0.00000,-0.47380,0.47380) ==
 == 184-th k-point nmo = 22 (0.11845,-0.35535,0.35535) ==
 == 185-th k-point nmo = 22 (0.23690,-0.23690,0.23690) ==
 == 186-th k-point nmo = 22 (0.35535,-0.11845,0.11845) ==
 == 187-th k-point nmo = 22 (0.47380,-0.00000,0.00000) ==
 == 188-th k-point nmo = 22 (0.59225,0.11845,-0.11845) ==
 == 189-th k-point nmo = 22 (0.00000,-0.71071,0.71071) ==
 == 190-th k-point nmo = 22 (0.11845,-0.59225,0.59225) ==
 == 191-th k-point nmo = 22 (0.23690,-0.47380,0.47380) ==
 == 192-th k-point nmo = 22 (0.35535,-0.35535,0.35535) ==
 == 193-th k-point nmo = 22 (0.47380,-0.23690,0.23690) ==
 == 194-th k-point nmo = 22 (0.59225,-0.11845,0.11845) ==
 == 195-th k-point nmo = 22 (0.71071,-0.00000,0.00000) ==
 == 196-th k-point nmo = 22 (-0.82916,0.11845,0.11845) ==
 == 197-th k-point nmo = 22 (-0.71071,0.23690,0.00000) ==
 == 198-th k-point nmo = 22 (-0.59225,0.35535,-0.11845) ==
 == 199-th k-point nmo = 22 (-0.47380,0.47380,-0.23690) ==
 == 200-th k-point nmo = 22 (-0.35535,0.59225,-0.35535) ==
 == 201-th k-point nmo = 22 (-0.23690,0.71071,-0.47380) ==
 == 202-th k-point nmo = 22 (-0.11845,0.82916,-0.59225) ==
 == 203-th k-point nmo = 22 (-0.71071,0.00000,0.23690) ==
 == 204-th k-point nmo = 22 (-0.59225,0.11845,0.11845) ==
 == 205-th k-point nmo = 22 (-0.47380,0.23690,0.00000) ==
 == 206-th k-point nmo = 22 (-0.35535,0.35535,-0.11845) ==
 == 207-th k-point nmo = 22 (-0.23690,0.47380,-0.23690) ==
 == 208-th k-point nmo = 22 (-0.11845,0.59225,-0.35535) ==
 == 209-th k-point nmo = 22 (-0.00000,0.71071,-0.47380) ==
 == 210-th k-point nmo = 22 (-0.59225,-0.11845,0.35535) ==
 == 211-th k-point nmo = 22 (-0.47380,-0.00000,0.23690) ==
 == 212-th k-point nmo = 22 (-0.35535,0.11845,0.11845) ==
 == 213-th k-point nmo = 22 (-0.23690,0.23690,0.00000) ==
 == 214-th k-point nmo = 22 (-0.11845,0.35535,-0.11845) ==
 == 215-th k-point nmo = 22 (-0.00000,0.47380,-0.23690) ==
 == 216-th k-point nmo = 22 (0.11845,0.59225,-0.35535) ==
 == 217-th k-point nmo = 22 (-0.47380,-0.23690,0.47380) ==
 == 218-th k-point nmo = 22 (-0.35535,-0.11845,0.35535) ==
 == 219-th k-point nmo = 22 (-0.23690,-0.00000,0.23690) ==
 == 220-th k-point nmo = 22 (-0.11845,0.11845,0.11845) ==
 == 221-th k-point nmo = 22 (0.00000,0.23690,0.00000) ==
 == 222-th k-point nmo = 22 (0.11845,0.35535,-0.11845) ==
 == 223-th k-point nmo = 22 (0.23690,0.47380,-0.23690) ==
 == 224-th k-point nmo = 22 (-0.35535,-0.35535,0.59225) ==
 == 225-th k-point nmo = 22 (-0.23690,-0.23690,0.47380) ==
 == 226-th k-point nmo = 22 (-0.11845,-0.11845,0.35535) ==
 == 227-th k-point nmo = 22 (0.00000,-0.00000,0.23690) ==
 == 228-th k-point nmo = 22 (0.11845,0.11845,0.11845) ==
 == 229-th k-point nmo = 22 (0.23690,0.23690,0.00000) ==
 == 230-th k-point nmo = 22 (0.35535,0.35535,-0.11845) ==
 == 231-th k-point nmo = 22 (-0.23690,-0.47380,0.71071) ==
 == 232-th k-point nmo = 22 (-0.11845,-0.35535,0.59225) ==
 == 233-th k-point nmo = 22 (0.00000,-0.23690,0.47380) ==
 == 234-th k-point nmo = 22 (0.11845,-0.11845,0.35535) ==
 == 235-th k-point nmo = 22 (0.23690,-0.00000,0.23690) ==
 == 236-th k-point nmo = 22 (0.35535,0.11845,0.11845) ==
 == 237-th k-point nmo = 22 (0.47380,0.23690,0.00000) ==
 == 238-th k-point nmo = 22 (-0.11845,-0.59225,0.82916) ==
 == 239-th k-point nmo = 22 (0.00000,-0.47380,0.71071) ==
 == 240-th k-point nmo = 22 (0.11845,-0.35535,0.59225) ==
 == 241-th k-point nmo = 22 (0.23690,-0.23690,0.47380) ==
 == 242-th k-point nmo = 22 (0.35535,-0.11845,0.35535) ==
 == 243-th k-point nmo = 22 (0.47380,-0.00000,0.23690) ==
 == 244-th k-point nmo = 22 (0.59225,0.11845,0.11845) ==
 == 245-th k-point nmo = 22 (-0.94761,0.23690,0.23690) ==
 == 246-th k-point nmo = 22 (-0.82916,0.35535,0.11845) ==
 == 247-th k-point nmo = 22 (-0.71071,0.47380,0.00000) ==
 == 248-th k-point nmo = 22 (-0.59225,0.59225,-0.11845) ==
 == 249-th k-point nmo = 22 (-0.47380,0.71071,-0.23690) ==
 == 250-th k-point nmo = 22 (-0.35535,0.82916,-0.35535) ==
 == 251-th k-point nmo = 22 (-0.23690,0.94761,-0.47380) ==
 == 252-th k-point nmo = 22 (-0.82916,0.11845,0.35535) ==
 == 253-th k-point nmo = 22 (-0.71071,0.23690,0.23690) ==
 == 254-th k-point nmo = 22 (-0.59225,0.35535,0.11845) ==
 == 255-th k-point nmo = 22 (-0.47380,0.47380,0.00000) ==
 == 256-th k-point nmo = 22 (-0.35535,0.59225,-0.11845) ==
 == 257-th k-point nmo = 22 (-0.23690,0.71071,-0.23690) ==
 == 258-th k-point nmo = 22 (-0.11845,0.82916,-0.35535) ==
 == 259-th k-point nmo = 22 (-0.71071,-0.00000,0.47380) ==
 == 260-th k-point nmo = 22 (-0.59225,0.11845,0.35535) ==
 == 261-th k-point nmo = 22 (-0.47380,0.23690,0.23690) ==
 == 262-th k-point nmo = 22 (-0.35535,0.35535,0.11845) ==
 == 263-th k-point nmo = 22 (-0.23690,0.47380,0.00000) ==
 == 264-th k-point nmo = 22 (-0.11845,0.59225,-0.11845) ==
 == 265-th k-point nmo = 22 (0.00000,0.71071,-0.23690) ==
 == 266-th k-point nmo = 22 (-0.59225,-0.11845,0.59225) ==
 == 267-th k-point nmo = 22 (-0.47380,-0.00000,0.47380) ==
 == 268-th k-point nmo = 22 (-0.35535,0.11845,0.35535) ==
 == 269-th k-point nmo = 22 (-0.23690,0.23690,0.23690) ==
 == 270-th k-point nmo = 22 (-0.11845,0.35535,0.11845) ==
 == 271-th k-point nmo = 22 (0.00000,0.47380,0.00000) ==
 == 272-th k-point nmo = 22 (0.11845,0.59225,-0.11845) ==
 == 273-th k-point nmo = 22 (-0.47380,-0.23690,0.71071) ==
 == 274-th k-point nmo = 22 (-0.35535,-0.11845,0.59225) ==
 == 275-th k-point nmo = 22 (-0.23690,-0.00000,0.47380) ==
 == 276-th k-point nmo = 22 (-0.11845,0.11845,0.35535) ==
 == 277-th k-point nmo = 22 (0.00000,0.23690,0.23690) ==
 == 278-th k-point nmo = 22 (0.11845,0.35535,0.11845) ==
 == 279-th k-point nmo = 22 (0.23690,0.47380,0.00000) ==
 == 280-th k-point nmo = 22 (-0.35535,-0.35535,0.82916) ==
 == 281-th k-point nmo = 22 (-0.23690,-0.23690,0.71071) ==
 == 282-th k-point nmo = 22 (-0.11845,-0.11845,0.59225) ==
 == 283-th k-point nmo = 22 (0.00000,-0.00000,0.47380) ==
 == 284-th k-point nmo = 22 (0.11845,0.11845,0.35535) ==
 == 285-th k-point nmo = 22 (0.23690,0.23690,0.23690) ==
 == 286-th k-point nmo = 22 (0.35535,0.35535,0.11845) ==
 == 287-th k-point nmo = 22 (-0.23690,-0.47380,0.94761) ==
 == 288-th k-point nmo = 22 (-0.11845,-0.35535,0.82916) ==
 == 289-th k-point nmo = 22 (0.00000,-0.23690,0.71071) ==
 == 290-th k-point nmo = 22 (0.11845,-0.11845,0.59225) ==
 == 291-th k-point nmo = 22 (0.23690,-0.00000,0.47380) ==
 == 292-th k-point nmo = 22 (0.35535,0.11845,0.35535) ==
 == 293-th k-point nmo = 22 (0.47380,0.23690,0.23690) ==
 == 294-th k-point nmo = 22 (-1.06606,0.35535,0.35535) ==
 == 295-th k-point nmo = 22 (-0.94761,0.47380,0.23690) ==
 == 296-th k-point nmo = 22 (-0.82916,0.59225,0.11845) ==
 == 297-th k-point nmo = 22 (-0.71071,0.71071,0.00000) ==
 == 298-th k-point nmo = 22 (-0.59225,0.82916,-0.11845) ==
 == 299-th k-point nmo = 22 (-0.47380,0.94761,-0.23690) ==
 == 300-th k-point nmo = 22 (-0.35535,1.06606,-0.35535) ==
 == 301-th k-point nmo = 22 (-0.94761,0.23690,0.47380) ==
 == 302-th k-point nmo = 22 (-0.82916,0.35535,0.35535) ==
 == 303-th k-point nmo = 22 (-0.71071,0.47380,0.23690) ==
 == 304-th k-point nmo = 22 (-0.59225,0.59225,0.11845) ==
 == 305-th k-point nmo = 22 (-0.47380,0.71071,0.00000) ==
 == 306-th k-point nmo = 22 (-0.35535,0.82916,-0.11845) ==
 == 307-th k-point nmo = 22 (-0.23690,0.94761,-0.23690) ==
 == 308-th k-point nmo = 22 (-0.82916,0.11845,0.59225) ==
 == 309-th k-point nmo = 22 (-0.71071,0.23690,0.47380) ==
 == 310-th k-point nmo = 22 (-0.59225,0.35535,0.35535) ==
 == 311-th k-point nmo = 22 (-0.47380,0.47380,0.23690) ==
 == 312-th k-point nmo = 22 (-0.35535,0.59225,0.11845) ==
 == 313-th k-point nmo = 22 (-0.23690,0.71071,0.00000) ==
 == 314-th k-point nmo = 22 (-0.11845,0.82916,-0.11845) ==
 == 315-th k-point nmo = 22 (-0.71071,-0.00000,0.71071) ==
 == 316-th k-point nmo = 22 (-0.59225,0.11845,0.59225) ==
 == 317-th k-point nmo = 22 (-0.47380,0.23690,0.47380) ==
 == 318-th k-point nmo = 22 (-0.35535,0.35535,0.35535) ==
 == 319-th k-point nmo = 22 (-0.23690,0.47380,0.23690) ==
 == 320-th k-point nmo = 22 (-0.11845,0.59225,0.11845) ==
 == 321-th k-point nmo = 22 (0.00000,0.71071,0.00000) ==
 == 322-th k-point nmo = 22 (-0.59225,-0.11845,0.82916) ==
 == 323-th k-point nmo = 22 (-0.47380,-0.00000,0.71071) ==
 == 324-th k-point nmo = 22 (-0.35535,0.11845,0.59225) ==
 == 325-th k-point nmo = 22 (-0.23690,0.23690,0.47380) ==
 == 326-th k-point nmo = 22 (-0.11845,0.35535,0.35535) ==
 == 327-th k-point nmo = 22 (0.00000,0.47380,0.23690) ==
 == 328-th k-point nmo = 22 (0.11845,0.59225,0.11845) ==
 == 329-th k-point nmo = 22 (-0.47380,-0.23690,0.94761) ==
 == 330-th k-point nmo = 22 (-0.35535,-0.11845,0.82916) ==
 == 331-th k-point nmo = 22 (-0.23690,-0.00000,0.71071) ==
 == 332-th k-point nmo = 22 (-0.11845,0.11845,0.59225) ==
 == 333-th k-point nmo = 22 (0.00000,0.23690,0.47380) ==
 == 334-th k-point nmo = 22 (0.11845,0.35535,0.35535) ==
 == 335-th k-point nmo = 22 (0.23690,0.47380,0.23690) ==
 == 336-th k-point nmo = 22 (-0.35535,-0.35535,1.06606) ==
 == 337-th k-point nmo = 22 (-0.23690,-0.23690,0.94761) ==
 == 338-th k-point nmo = 22 (-0.11845,-0.11845,0.82916) ==
 == 339-th k-point nmo = 22 (0.00000,-0.00000,0.71071) ==
 == 340-th k-point nmo = 22 (0.11845,0.11845,0.59225) ==
 == 341-th k-point nmo = 22 (0.23690,0.23690,0.47380) ==
 == 342-th k-point nmo = 22 (0.35535,0.35535,0.35535) ==

 Generate autoSAD guess
backing up fragment data
Atom # 0: li, charge: 0, multiplicity: 2.000000
Atom # 1: f, charge: 0, multiplicity: 2.000000
writing autosad to fragment context
Settings for isolated fragments: 
  frgm_gamma: TRUE
  frgm_center: FALSE

    Running SCF for isolated atom #0
    Fragment Input file: /n/netscratch/joonholee_lab/Lab/hieudinh//lif_solve_def2svp_omega_0.9_777.scratch20250909011038/autosad_frgmt_0/frgmt_input.in
    Fragment Output file: /n/netscratch/joonholee_lab/Lab/hieudinh//lif_solve_def2svp_omega_0.9_777.scratch20250909011038/autosad_frgmt_0/frgmt_job.out
    Fragment job begins at Tue Sep  9 01:10:57 2025

 Integrated density by DFT XC:
   Numerical integral  =     2.999999997939
   Relative error      =     0.0000000687 %
Final energy components:
 DFT Correlation            Energy =  -0.05129449360107
 DFT Exchange               Energy =  -1.75293492673808
 Kinetic (alpha)            Energy =   3.83698747219399
 Kinetic (beta)             Energy =   3.56502760489078
 Nuclear Attraction (alpha) Energy =  -9.10672143734249
 Nuclear Attraction (beta)  Energy =  -8.00006101932192
 Nuclear Repulsion          Energy =   0.00000000000000
 SEOQF                      Energy =  -0.00000000000000
 Total Coulomb              Energy =   4.05509638491418
----------------------------------------------
    SCF Energy: -7.4539004150
   Total fragment job time:  0.50 s.
    Running SCF for isolated atom #1
    Fragment Input file: /n/netscratch/joonholee_lab/Lab/hieudinh//lif_solve_def2svp_omega_0.9_777.scratch20250909011038/autosad_frgmt_1/frgmt_input.in
    Fragment Output file: /n/netscratch/joonholee_lab/Lab/hieudinh//lif_solve_def2svp_omega_0.9_777.scratch20250909011038/autosad_frgmt_1/frgmt_job.out
    Fragment job begins at Tue Sep  9 01:10:58 2025

 Integrated density by DFT XC:
   Numerical integral  =     8.999999994599
   Relative error      =     0.0000000600 %
Final energy components:
 DFT Correlation            Energy =  -0.29413872621808
 DFT Exchange               Energy =  -9.98852123056945
 Kinetic (alpha)            Energy =  51.41981583402986
 Kinetic (beta)             Energy =  47.72578494861623
 Nuclear Attraction (alpha) Energy = -125.16794293960992
 Nuclear Attraction (beta)  Energy = -113.10638093127127
 Nuclear Repulsion          Energy =   0.00000000000000
 SEOQF                      Energy =   0.00000000006159
 Total Coulomb              Energy =  49.87162446721406
----------------------------------------------
    SCF Energy: -99.5397585777
   Total fragment job time:  0.69 s.
restoring fragment data

 ------------------------------------------------------------------------
 Allocate 95611936 B from available memory: 104854564096 B
 Time for generating SCF guess: 1.21 s

 Allocate 397396 B from available memory: 104758952160 B
 Selected algorithms for each term:
  kpts_kinetic -> @0x148202a78680
  kpts_nn -> @0x148202a78800
  kpts_rij_bigmem -> @0x148202a783e0
  kpts_vnuc_df -> @0x148202a78380
  kpts_xc -> @0x148202a782c0
 Time for computing kinetic matrix is 17.20 s
Start calculating Vnuc DD type!
Start calculating Vnuc CD type!
Start calculating Vnuc CC type!
 Time for computing nuclear attraction matrix is 37.16 s
Compute (P|Q) and use solve on the fly!
Maximum distance between P and Q is 28.75642758820560
Number of images for (P|Qn) is 1873
 Time for computing 2e2c SR integral is 0.10 s
Maximum dynamic memory per thread for 2e3c SR integrals: 0.012 GiB
Batch size for basis function pair is 168 out of 168
 === bvk cell = 0 has 100.000 % of the basis function pairs === 
 === bvk cell = 1 has 100.000 % of the basis function pairs === 
 === bvk cell = 2 has 82.738 % of the basis function pairs === 
 === bvk cell = 3 has 41.667 % of the basis function pairs === 
 === bvk cell = 4 has 41.667 % of the basis function pairs === 
 === bvk cell = 5 has 74.405 % of the basis function pairs === 
 === bvk cell = 6 has 100.000 % of the basis function pairs === 
 === bvk cell = 7 has 100.000 % of the basis function pairs === 
 === bvk cell = 8 has 90.476 % of the basis function pairs === 
 === bvk cell = 9 has 52.381 % of the basis function pairs === 
 === bvk cell = 10 has 36.310 % of the basis function pairs === 
 === bvk cell = 11 has 41.667 % of the basis function pairs === 
 === bvk cell = 12 has 92.857 % of the basis function pairs === 
 === bvk cell = 13 has 100.000 % of the basis function pairs === 
 === bvk cell = 14 has 82.738 % of the basis function pairs === 
 === bvk cell = 15 has 52.381 % of the basis function pairs === 
 === bvk cell = 16 has 41.667 % of the basis function pairs === 
 === bvk cell = 17 has 23.810 % of the basis function pairs === 
 === bvk cell = 18 has 41.667 % of the basis function pairs === 
 === bvk cell = 19 has 76.190 % of the basis function pairs === 
 === bvk cell = 20 has 91.071 % of the basis function pairs === 
 === bvk cell = 21 has 41.667 % of the basis function pairs === 
 === bvk cell = 22 has 36.310 % of the basis function pairs === 
 === bvk cell = 23 has 23.810 % of the basis function pairs === 
 === bvk cell = 24 has 18.452 % of the basis function pairs === 
 === bvk cell = 25 has 41.667 % of the basis function pairs === 
 === bvk cell = 26 has 41.667 % of the basis function pairs === 
 === bvk cell = 27 has 41.667 % of the basis function pairs === 
 === bvk cell = 28 has 41.667 % of the basis function pairs === 
 === bvk cell = 29 has 41.667 % of the basis function pairs === 
 === bvk cell = 30 has 41.667 % of the basis function pairs === 
 === bvk cell = 31 has 41.667 % of the basis function pairs === 
 === bvk cell = 32 has 36.310 % of the basis function pairs === 
 === bvk cell = 33 has 41.667 % of the basis function pairs === 
 === bvk cell = 34 has 36.310 % of the basis function pairs === 
 === bvk cell = 35 has 74.405 % of the basis function pairs === 
 === bvk cell = 36 has 92.857 % of the basis function pairs === 
 === bvk cell = 37 has 76.190 % of the basis function pairs === 
 === bvk cell = 38 has 41.667 % of the basis function pairs === 
 === bvk cell = 39 has 41.667 % of the basis function pairs === 
 === bvk cell = 40 has 23.810 % of the basis function pairs === 
 === bvk cell = 41 has 42.262 % of the basis function pairs === 
 === bvk cell = 42 has 100.000 % of the basis function pairs === 
 === bvk cell = 43 has 100.000 % of the basis function pairs === 
 === bvk cell = 44 has 91.071 % of the basis function pairs === 
 === bvk cell = 45 has 41.667 % of the basis function pairs === 
 === bvk cell = 46 has 36.310 % of the basis function pairs === 
 === bvk cell = 47 has 42.262 % of the basis function pairs === 
 === bvk cell = 48 has 82.143 % of the basis function pairs === 
 === bvk cell = 49 has 100.000 % of the basis function pairs === 
 === bvk cell = 50 has 91.071 % of the basis function pairs === 
 === bvk cell = 51 has 41.667 % of the basis function pairs === 
 === bvk cell = 52 has 36.310 % of the basis function pairs === 
 === bvk cell = 53 has 42.262 % of the basis function pairs === 
 === bvk cell = 54 has 82.143 % of the basis function pairs === 
 === bvk cell = 55 has 100.000 % of the basis function pairs === 
 === bvk cell = 56 has 91.071 % of the basis function pairs === 
 === bvk cell = 57 has 52.381 % of the basis function pairs === 
 === bvk cell = 58 has 41.667 % of the basis function pairs === 
 === bvk cell = 59 has 23.810 % of the basis function pairs === 
 === bvk cell = 60 has 42.262 % of the basis function pairs === 
 === bvk cell = 61 has 92.857 % of the basis function pairs === 
 === bvk cell = 62 has 100.000 % of the basis function pairs === 
 === bvk cell = 63 has 41.667 % of the basis function pairs === 
 === bvk cell = 64 has 41.667 % of the basis function pairs === 
 === bvk cell = 65 has 25.595 % of the basis function pairs === 
 === bvk cell = 66 has 32.738 % of the basis function pairs === 
 === bvk cell = 67 has 41.667 % of the basis function pairs === 
 === bvk cell = 68 has 41.667 % of the basis function pairs === 
 === bvk cell = 69 has 52.381 % of the basis function pairs === 
 === bvk cell = 70 has 36.310 % of the basis function pairs === 
 === bvk cell = 71 has 23.810 % of the basis function pairs === 
 === bvk cell = 72 has 32.738 % of the basis function pairs === 
 === bvk cell = 73 has 18.452 % of the basis function pairs === 
 === bvk cell = 74 has 41.667 % of the basis function pairs === 
 === bvk cell = 75 has 41.667 % of the basis function pairs === 
 === bvk cell = 76 has 41.667 % of the basis function pairs === 
 === bvk cell = 77 has 42.262 % of the basis function pairs === 
 === bvk cell = 78 has 42.262 % of the basis function pairs === 
 === bvk cell = 79 has 41.667 % of the basis function pairs === 
 === bvk cell = 80 has 41.667 % of the basis function pairs === 
 === bvk cell = 81 has 16.667 % of the basis function pairs === 
 === bvk cell = 82 has 25.595 % of the basis function pairs === 
 === bvk cell = 83 has 23.810 % of the basis function pairs === 
 === bvk cell = 84 has 82.143 % of the basis function pairs === 
 === bvk cell = 85 has 92.857 % of the basis function pairs === 
 === bvk cell = 86 has 41.667 % of the basis function pairs === 
 === bvk cell = 87 has 41.667 % of the basis function pairs === 
 === bvk cell = 88 has 25.595 % of the basis function pairs === 
 === bvk cell = 89 has 32.738 % of the basis function pairs === 
 === bvk cell = 90 has 51.190 % of the basis function pairs === 
 === bvk cell = 91 has 100.000 % of the basis function pairs === 
 === bvk cell = 92 has 100.000 % of the basis function pairs === 
 === bvk cell = 93 has 52.381 % of the basis function pairs === 
 === bvk cell = 94 has 41.667 % of the basis function pairs === 
 === bvk cell = 95 has 23.810 % of the basis function pairs === 
 === bvk cell = 96 has 51.190 % of the basis function pairs === 
 === bvk cell = 97 has 92.857 % of the basis function pairs === 
 === bvk cell = 98 has 76.190 % of the basis function pairs === 
 === bvk cell = 99 has 41.667 % of the basis function pairs === 
 === bvk cell = 100 has 41.667 % of the basis function pairs === 
 === bvk cell = 101 has 23.810 % of the basis function pairs === 
 === bvk cell = 102 has 42.262 % of the basis function pairs === 
 === bvk cell = 103 has 74.405 % of the basis function pairs === 
 === bvk cell = 104 has 92.857 % of the basis function pairs === 
 === bvk cell = 105 has 41.667 % of the basis function pairs === 
 === bvk cell = 106 has 41.667 % of the basis function pairs === 
 === bvk cell = 107 has 16.667 % of the basis function pairs === 
 === bvk cell = 108 has 23.810 % of the basis function pairs === 
 === bvk cell = 109 has 41.667 % of the basis function pairs === 
 === bvk cell = 110 has 42.262 % of the basis function pairs === 
 === bvk cell = 111 has 41.667 % of the basis function pairs === 
 === bvk cell = 112 has 41.667 % of the basis function pairs === 
 === bvk cell = 113 has 16.667 % of the basis function pairs === 
 === bvk cell = 114 has 25.595 % of the basis function pairs === 
 === bvk cell = 115 has 23.810 % of the basis function pairs === 
 === bvk cell = 116 has 41.667 % of the basis function pairs === 
 === bvk cell = 117 has 41.667 % of the basis function pairs === 
 === bvk cell = 118 has 41.667 % of the basis function pairs === 
 === bvk cell = 119 has 23.810 % of the basis function pairs === 
 === bvk cell = 120 has 23.810 % of the basis function pairs === 
 === bvk cell = 121 has 23.810 % of the basis function pairs === 
 === bvk cell = 122 has 16.667 % of the basis function pairs === 
 === bvk cell = 123 has 27.381 % of the basis function pairs === 
 === bvk cell = 124 has 36.310 % of the basis function pairs === 
 === bvk cell = 125 has 25.595 % of the basis function pairs === 
 === bvk cell = 126 has 42.262 % of the basis function pairs === 
 === bvk cell = 127 has 41.667 % of the basis function pairs === 
 === bvk cell = 128 has 41.667 % of the basis function pairs === 
 === bvk cell = 129 has 27.381 % of the basis function pairs === 
 === bvk cell = 130 has 16.667 % of the basis function pairs === 
 === bvk cell = 131 has 18.452 % of the basis function pairs === 
 === bvk cell = 132 has 32.738 % of the basis function pairs === 
 === bvk cell = 133 has 74.405 % of the basis function pairs === 
 === bvk cell = 134 has 42.262 % of the basis function pairs === 
 === bvk cell = 135 has 41.667 % of the basis function pairs === 
 === bvk cell = 136 has 36.310 % of the basis function pairs === 
 === bvk cell = 137 has 18.452 % of the basis function pairs === 
 === bvk cell = 138 has 42.262 % of the basis function pairs === 
 === bvk cell = 139 has 51.190 % of the basis function pairs === 
 === bvk cell = 140 has 92.857 % of the basis function pairs === 
 === bvk cell = 141 has 41.667 % of the basis function pairs === 
 === bvk cell = 142 has 41.667 % of the basis function pairs === 
 === bvk cell = 143 has 25.595 % of the basis function pairs === 
 === bvk cell = 144 has 32.738 % of the basis function pairs === 
 === bvk cell = 145 has 51.190 % of the basis function pairs === 
 === bvk cell = 146 has 82.143 % of the basis function pairs === 
 === bvk cell = 147 has 41.667 % of the basis function pairs === 
 === bvk cell = 148 has 36.310 % of the basis function pairs === 
 === bvk cell = 149 has 41.667 % of the basis function pairs === 
 === bvk cell = 150 has 36.310 % of the basis function pairs === 
 === bvk cell = 151 has 41.667 % of the basis function pairs === 
 === bvk cell = 152 has 41.667 % of the basis function pairs === 
 === bvk cell = 153 has 41.667 % of the basis function pairs === 
 === bvk cell = 154 has 36.310 % of the basis function pairs === 
 === bvk cell = 155 has 41.667 % of the basis function pairs === 
 === bvk cell = 156 has 41.667 % of the basis function pairs === 
 === bvk cell = 157 has 36.310 % of the basis function pairs === 
 === bvk cell = 158 has 41.667 % of the basis function pairs === 
 === bvk cell = 159 has 41.667 % of the basis function pairs === 
 === bvk cell = 160 has 41.667 % of the basis function pairs === 
 === bvk cell = 161 has 41.667 % of the basis function pairs === 
 === bvk cell = 162 has 41.667 % of the basis function pairs === 
 === bvk cell = 163 has 41.667 % of the basis function pairs === 
 === bvk cell = 164 has 34.524 % of the basis function pairs === 
 === bvk cell = 165 has 18.452 % of the basis function pairs === 
 === bvk cell = 166 has 27.381 % of the basis function pairs === 
 === bvk cell = 167 has 16.667 % of the basis function pairs === 
 === bvk cell = 168 has 36.310 % of the basis function pairs === 
 === bvk cell = 169 has 36.310 % of the basis function pairs === 
 === bvk cell = 170 has 34.524 % of the basis function pairs === 
 === bvk cell = 171 has 25.595 % of the basis function pairs === 
 === bvk cell = 172 has 16.667 % of the basis function pairs === 
 === bvk cell = 173 has 16.667 % of the basis function pairs === 
 === bvk cell = 174 has 25.595 % of the basis function pairs === 
 === bvk cell = 175 has 41.667 % of the basis function pairs === 
 === bvk cell = 176 has 41.667 % of the basis function pairs === 
 === bvk cell = 177 has 18.452 % of the basis function pairs === 
 === bvk cell = 178 has 16.667 % of the basis function pairs === 
 === bvk cell = 179 has 10.714 % of the basis function pairs === 
 === bvk cell = 180 has 18.452 % of the basis function pairs === 
 === bvk cell = 181 has 23.810 % of the basis function pairs === 
 === bvk cell = 182 has 41.667 % of the basis function pairs === 
 === bvk cell = 183 has 41.667 % of the basis function pairs === 
 === bvk cell = 184 has 27.381 % of the basis function pairs === 
 === bvk cell = 185 has 16.667 % of the basis function pairs === 
 === bvk cell = 186 has 18.452 % of the basis function pairs === 
 === bvk cell = 187 has 32.738 % of the basis function pairs === 
 === bvk cell = 188 has 42.262 % of the basis function pairs === 
 === bvk cell = 189 has 41.667 % of the basis function pairs === 
 === bvk cell = 190 has 41.667 % of the basis function pairs === 
 === bvk cell = 191 has 16.667 % of the basis function pairs === 
 === bvk cell = 192 has 25.595 % of the basis function pairs === 
 === bvk cell = 193 has 23.810 % of the basis function pairs === 
 === bvk cell = 194 has 42.262 % of the basis function pairs === 
 === bvk cell = 195 has 42.262 % of the basis function pairs === 
 === bvk cell = 196 has 41.667 % of the basis function pairs === 
 === bvk cell = 197 has 41.667 % of the basis function pairs === 
 === bvk cell = 198 has 41.667 % of the basis function pairs === 
 === bvk cell = 199 has 41.667 % of the basis function pairs === 
 === bvk cell = 200 has 36.310 % of the basis function pairs === 
 === bvk cell = 201 has 23.810 % of the basis function pairs === 
 === bvk cell = 202 has 18.452 % of the basis function pairs === 
 === bvk cell = 203 has 41.667 % of the basis function pairs === 
 === bvk cell = 204 has 52.381 % of the basis function pairs === 
 === bvk cell = 205 has 52.381 % of the basis function pairs === 
 === bvk cell = 206 has 41.667 % of the basis function pairs === 
 === bvk cell = 207 has 34.524 % of the basis function pairs === 
 === bvk cell = 208 has 16.667 % of the basis function pairs === 
 === bvk cell = 209 has 41.667 % of the basis function pairs === 
 === bvk cell = 210 has 41.667 % of the basis function pairs === 
 === bvk cell = 211 has 52.381 % of the basis function pairs === 
 === bvk cell = 212 has 41.667 % of the basis function pairs === 
 === bvk cell = 213 has 36.310 % of the basis function pairs === 
 === bvk cell = 214 has 25.595 % of the basis function pairs === 
 === bvk cell = 215 has 27.381 % of the basis function pairs === 
 === bvk cell = 216 has 41.667 % of the basis function pairs === 
 === bvk cell = 217 has 41.667 % of the basis function pairs === 
 === bvk cell = 218 has 41.667 % of the basis function pairs === 
 === bvk cell = 219 has 36.310 % of the basis function pairs === 
 === bvk cell = 220 has 34.524 % of the basis function pairs === 
 === bvk cell = 221 has 16.667 % of the basis function pairs === 
 === bvk cell = 222 has 36.310 % of the basis function pairs === 
 === bvk cell = 223 has 41.667 % of the basis function pairs === 
 === bvk cell = 224 has 36.310 % of the basis function pairs === 
 === bvk cell = 225 has 34.524 % of the basis function pairs === 
 === bvk cell = 226 has 25.595 % of the basis function pairs === 
 === bvk cell = 227 has 16.667 % of the basis function pairs === 
 === bvk cell = 228 has 16.667 % of the basis function pairs === 
 === bvk cell = 229 has 25.595 % of the basis function pairs === 
 === bvk cell = 230 has 36.310 % of the basis function pairs === 
 === bvk cell = 231 has 23.810 % of the basis function pairs === 
 === bvk cell = 232 has 16.667 % of the basis function pairs === 
 === bvk cell = 233 has 27.381 % of the basis function pairs === 
 === bvk cell = 234 has 36.310 % of the basis function pairs === 
 === bvk cell = 235 has 25.595 % of the basis function pairs === 
 === bvk cell = 236 has 23.810 % of the basis function pairs === 
 === bvk cell = 237 has 23.810 % of the basis function pairs === 
 === bvk cell = 238 has 18.452 % of the basis function pairs === 
 === bvk cell = 239 has 41.667 % of the basis function pairs === 
 === bvk cell = 240 has 41.667 % of the basis function pairs === 
 === bvk cell = 241 has 41.667 % of the basis function pairs === 
 === bvk cell = 242 has 36.310 % of the basis function pairs === 
 === bvk cell = 243 has 23.810 % of the basis function pairs === 
 === bvk cell = 244 has 32.738 % of the basis function pairs === 
 === bvk cell = 245 has 76.190 % of the basis function pairs === 
 === bvk cell = 246 has 91.071 % of the basis function pairs === 
 === bvk cell = 247 has 82.738 % of the basis function pairs === 
 === bvk cell = 248 has 52.381 % of the basis function pairs === 
 === bvk cell = 249 has 41.667 % of the basis function pairs === 
 === bvk cell = 250 has 23.810 % of the basis function pairs === 
 === bvk cell = 251 has 41.667 % of the basis function pairs === 
 === bvk cell = 252 has 91.071 % of the basis function pairs === 
 === bvk cell = 253 has 90.476 % of the basis function pairs === 
 === bvk cell = 254 has 59.524 % of the basis function pairs === 
 === bvk cell = 255 has 41.667 % of the basis function pairs === 
 === bvk cell = 256 has 34.524 % of the basis function pairs === 
 === bvk cell = 257 has 41.667 % of the basis function pairs === 
 === bvk cell = 258 has 41.667 % of the basis function pairs === 
 === bvk cell = 259 has 82.738 % of the basis function pairs === 
 === bvk cell = 260 has 59.524 % of the basis function pairs === 
 === bvk cell = 261 has 52.381 % of the basis function pairs === 
 === bvk cell = 262 has 36.310 % of the basis function pairs === 
 === bvk cell = 263 has 18.452 % of the basis function pairs === 
 === bvk cell = 264 has 41.667 % of the basis function pairs === 
 === bvk cell = 265 has 52.381 % of the basis function pairs === 
 === bvk cell = 266 has 52.381 % of the basis function pairs === 
 === bvk cell = 267 has 41.667 % of the basis function pairs === 
 === bvk cell = 268 has 36.310 % of the basis function pairs === 
 === bvk cell = 269 has 25.595 % of the basis function pairs === 
 === bvk cell = 270 has 27.381 % of the basis function pairs === 
 === bvk cell = 271 has 41.667 % of the basis function pairs === 
 === bvk cell = 272 has 41.667 % of the basis function pairs === 
 === bvk cell = 273 has 41.667 % of the basis function pairs === 
 === bvk cell = 274 has 34.524 % of the basis function pairs === 
 === bvk cell = 275 has 18.452 % of the basis function pairs === 
 === bvk cell = 276 has 27.381 % of the basis function pairs === 
 === bvk cell = 277 has 16.667 % of the basis function pairs === 
 === bvk cell = 278 has 41.667 % of the basis function pairs === 
 === bvk cell = 279 has 41.667 % of the basis function pairs === 
 === bvk cell = 280 has 23.810 % of the basis function pairs === 
 === bvk cell = 281 has 41.667 % of the basis function pairs === 
 === bvk cell = 282 has 41.667 % of the basis function pairs === 
 === bvk cell = 283 has 41.667 % of the basis function pairs === 
 === bvk cell = 284 has 41.667 % of the basis function pairs === 
 === bvk cell = 285 has 16.667 % of the basis function pairs === 
 === bvk cell = 286 has 25.595 % of the basis function pairs === 
 === bvk cell = 287 has 41.667 % of the basis function pairs === 
 === bvk cell = 288 has 41.667 % of the basis function pairs === 
 === bvk cell = 289 has 52.381 % of the basis function pairs === 
 === bvk cell = 290 has 41.667 % of the basis function pairs === 
 === bvk cell = 291 has 41.667 % of the basis function pairs === 
 === bvk cell = 292 has 25.595 % of the basis function pairs === 
 === bvk cell = 293 has 32.738 % of the basis function pairs === 
 === bvk cell = 294 has 100.000 % of the basis function pairs === 
 === bvk cell = 295 has 100.000 % of the basis function pairs === 
 === bvk cell = 296 has 90.476 % of the basis function pairs === 
 === bvk cell = 297 has 52.381 % of the basis function pairs === 
 === bvk cell = 298 has 36.310 % of the basis function pairs === 
 === bvk cell = 299 has 41.667 % of the basis function pairs === 
 === bvk cell = 300 has 92.857 % of the basis function pairs === 
 === bvk cell = 301 has 100.000 % of the basis function pairs === 
 === bvk cell = 302 has 91.071 % of the basis function pairs === 
 === bvk cell = 303 has 59.524 % of the basis function pairs === 
 === bvk cell = 304 has 41.667 % of the basis function pairs === 
 === bvk cell = 305 has 41.667 % of the basis function pairs === 
 === bvk cell = 306 has 42.262 % of the basis function pairs === 
 === bvk cell = 307 has 100.000 % of the basis function pairs === 
 === bvk cell = 308 has 90.476 % of the basis function pairs === 
 === bvk cell = 309 has 59.524 % of the basis function pairs === 
 === bvk cell = 310 has 41.667 % of the basis function pairs === 
 === bvk cell = 311 has 34.524 % of the basis function pairs === 
 === bvk cell = 312 has 41.667 % of the basis function pairs === 
 === bvk cell = 313 has 41.667 % of the basis function pairs === 
 === bvk cell = 314 has 91.071 % of the basis function pairs === 
 === bvk cell = 315 has 52.381 % of the basis function pairs === 
 === bvk cell = 316 has 41.667 % of the basis function pairs === 
 === bvk cell = 317 has 34.524 % of the basis function pairs === 
 === bvk cell = 318 has 16.667 % of the basis function pairs === 
 === bvk cell = 319 has 41.667 % of the basis function pairs === 
 === bvk cell = 320 has 41.667 % of the basis function pairs === 
 === bvk cell = 321 has 52.381 % of the basis function pairs === 
 === bvk cell = 322 has 36.310 % of the basis function pairs === 
 === bvk cell = 323 has 41.667 % of the basis function pairs === 
 === bvk cell = 324 has 41.667 % of the basis function pairs === 
 === bvk cell = 325 has 41.667 % of the basis function pairs === 
 === bvk cell = 326 has 36.310 % of the basis function pairs === 
 === bvk cell = 327 has 41.667 % of the basis function pairs === 
 === bvk cell = 328 has 41.667 % of the basis function pairs === 
 === bvk cell = 329 has 41.667 % of the basis function pairs === 
 === bvk cell = 330 has 42.262 % of the basis function pairs === 
 === bvk cell = 331 has 41.667 % of the basis function pairs === 
 === bvk cell = 332 has 41.667 % of the basis function pairs === 
 === bvk cell = 333 has 41.667 % of the basis function pairs === 
 === bvk cell = 334 has 16.667 % of the basis function pairs === 
 === bvk cell = 335 has 23.810 % of the basis function pairs === 
 === bvk cell = 336 has 92.857 % of the basis function pairs === 
 === bvk cell = 337 has 100.000 % of the basis function pairs === 
 === bvk cell = 338 has 91.071 % of the basis function pairs === 
 === bvk cell = 339 has 52.381 % of the basis function pairs === 
 === bvk cell = 340 has 41.667 % of the basis function pairs === 
 === bvk cell = 341 has 23.810 % of the basis function pairs === 
 === bvk cell = 342 has 42.262 % of the basis function pairs === 
Static memory requirement for 2e3c SR integrals: 0.018 GB
There are 1 munu batches for computing 2e3c SR integrals with latsum
There are 2 Q batches for computing 2e3c SR integrals with latsum
 Time for computing 2e3c SR integral (CD) is 0.74 s
Maximum dynamic memory per thread for 2e3c SR integrals: 0.001 GiB
Batch size for basis function pair is 121 out of 121
 === bvk cell = 0 has 100.000 % of the basis function pairs === 
 === bvk cell = 1 has 87.603 % of the basis function pairs === 
 === bvk cell = 2 has 0.000 % of the basis function pairs === 
 === bvk cell = 3 has 0.000 % of the basis function pairs === 
 === bvk cell = 4 has 0.000 % of the basis function pairs === 
 === bvk cell = 5 has 0.000 % of the basis function pairs === 
 === bvk cell = 6 has 64.463 % of the basis function pairs === 
 === bvk cell = 7 has 87.603 % of the basis function pairs === 
 === bvk cell = 8 has 28.099 % of the basis function pairs === 
 === bvk cell = 9 has 0.000 % of the basis function pairs === 
 === bvk cell = 10 has 0.000 % of the basis function pairs === 
 === bvk cell = 11 has 0.000 % of the basis function pairs === 
 === bvk cell = 12 has 0.000 % of the basis function pairs === 
 === bvk cell = 13 has 90.083 % of the basis function pairs === 
 === bvk cell = 14 has 0.000 % of the basis function pairs === 
 === bvk cell = 15 has 0.000 % of the basis function pairs === 
 === bvk cell = 16 has 0.000 % of the basis function pairs === 
 === bvk cell = 17 has 0.000 % of the basis function pairs === 
 === bvk cell = 18 has 0.000 % of the basis function pairs === 
 === bvk cell = 19 has 0.000 % of the basis function pairs === 
 === bvk cell = 20 has 0.000 % of the basis function pairs === 
 === bvk cell = 21 has 0.000 % of the basis function pairs === 
 === bvk cell = 22 has 0.000 % of the basis function pairs === 
 === bvk cell = 23 has 0.000 % of the basis function pairs === 
 === bvk cell = 24 has 0.000 % of the basis function pairs === 
 === bvk cell = 25 has 0.000 % of the basis function pairs === 
 === bvk cell = 26 has 0.000 % of the basis function pairs === 
 === bvk cell = 27 has 0.000 % of the basis function pairs === 
 === bvk cell = 28 has 0.000 % of the basis function pairs === 
 === bvk cell = 29 has 0.000 % of the basis function pairs === 
 === bvk cell = 30 has 0.000 % of the basis function pairs === 
 === bvk cell = 31 has 0.000 % of the basis function pairs === 
 === bvk cell = 32 has 0.000 % of the basis function pairs === 
 === bvk cell = 33 has 0.000 % of the basis function pairs === 
 === bvk cell = 34 has 0.000 % of the basis function pairs === 
 === bvk cell = 35 has 0.000 % of the basis function pairs === 
 === bvk cell = 36 has 0.000 % of the basis function pairs === 
 === bvk cell = 37 has 0.000 % of the basis function pairs === 
 === bvk cell = 38 has 0.000 % of the basis function pairs === 
 === bvk cell = 39 has 0.000 % of the basis function pairs === 
 === bvk cell = 40 has 0.000 % of the basis function pairs === 
 === bvk cell = 41 has 0.000 % of the basis function pairs === 
 === bvk cell = 42 has 64.463 % of the basis function pairs === 
 === bvk cell = 43 has 90.083 % of the basis function pairs === 
 === bvk cell = 44 has 0.000 % of the basis function pairs === 
 === bvk cell = 45 has 0.000 % of the basis function pairs === 
 === bvk cell = 46 has 0.000 % of the basis function pairs === 
 === bvk cell = 47 has 0.000 % of the basis function pairs === 
 === bvk cell = 48 has 2.479 % of the basis function pairs === 
 === bvk cell = 49 has 90.083 % of the basis function pairs === 
 === bvk cell = 50 has 0.000 % of the basis function pairs === 
 === bvk cell = 51 has 0.000 % of the basis function pairs === 
 === bvk cell = 52 has 0.000 % of the basis function pairs === 
 === bvk cell = 53 has 0.000 % of the basis function pairs === 
 === bvk cell = 54 has 2.479 % of the basis function pairs === 
 === bvk cell = 55 has 64.463 % of the basis function pairs === 
 === bvk cell = 56 has 0.000 % of the basis function pairs === 
 === bvk cell = 57 has 0.000 % of the basis function pairs === 
 === bvk cell = 58 has 0.000 % of the basis function pairs === 
 === bvk cell = 59 has 0.000 % of the basis function pairs === 
 === bvk cell = 60 has 0.000 % of the basis function pairs === 
 === bvk cell = 61 has 0.000 % of the basis function pairs === 
 === bvk cell = 62 has 4.132 % of the basis function pairs === 
 === bvk cell = 63 has 0.000 % of the basis function pairs === 
 === bvk cell = 64 has 0.000 % of the basis function pairs === 
 === bvk cell = 65 has 0.000 % of the basis function pairs === 
 === bvk cell = 66 has 0.000 % of the basis function pairs === 
 === bvk cell = 67 has 0.000 % of the basis function pairs === 
 === bvk cell = 68 has 0.000 % of the basis function pairs === 
 === bvk cell = 69 has 0.000 % of the basis function pairs === 
 === bvk cell = 70 has 0.000 % of the basis function pairs === 
 === bvk cell = 71 has 0.000 % of the basis function pairs === 
 === bvk cell = 72 has 0.000 % of the basis function pairs === 
 === bvk cell = 73 has 0.000 % of the basis function pairs === 
 === bvk cell = 74 has 0.000 % of the basis function pairs === 
 === bvk cell = 75 has 0.000 % of the basis function pairs === 
 === bvk cell = 76 has 0.000 % of the basis function pairs === 
 === bvk cell = 77 has 0.000 % of the basis function pairs === 
 === bvk cell = 78 has 0.000 % of the basis function pairs === 
 === bvk cell = 79 has 0.000 % of the basis function pairs === 
 === bvk cell = 80 has 0.000 % of the basis function pairs === 
 === bvk cell = 81 has 0.000 % of the basis function pairs === 
 === bvk cell = 82 has 0.000 % of the basis function pairs === 
 === bvk cell = 83 has 0.000 % of the basis function pairs === 
 === bvk cell = 84 has 2.479 % of the basis function pairs === 
 === bvk cell = 85 has 0.000 % of the basis function pairs === 
 === bvk cell = 86 has 0.000 % of the basis function pairs === 
 === bvk cell = 87 has 0.000 % of the basis function pairs === 
 === bvk cell = 88 has 0.000 % of the basis function pairs === 
 === bvk cell = 89 has 0.000 % of the basis function pairs === 
 === bvk cell = 90 has 0.000 % of the basis function pairs === 
 === bvk cell = 91 has 64.463 % of the basis function pairs === 
 === bvk cell = 92 has 4.132 % of the basis function pairs === 
 === bvk cell = 93 has 0.000 % of the basis function pairs === 
 === bvk cell = 94 has 0.000 % of the basis function pairs === 
 === bvk cell = 95 has 0.000 % of the basis function pairs === 
 === bvk cell = 96 has 0.000 % of the basis function pairs === 
 === bvk cell = 97 has 9.091 % of the basis function pairs === 
 === bvk cell = 98 has 0.000 % of the basis function pairs === 
[...]
 1.37140 1.46837 1.67403 1.75232 2.16541 2.37914 2.38139 3.33568 3.45290 3.49605
 3.50649 3.52875
 == 267-th k-point (-0.47380,-0.00000,0.47380) occupation: 6==
 -23.88051 -1.46608 -0.65575 -0.03469 -0.02699 0.02170 0.51633 0.60778 0.75626 0.77994
 1.29902 1.60105 1.63027 1.78807 2.14074 2.39197 2.45705 3.31598 3.46254 3.49372
 3.50873 3.60444
 == 268-th k-point (-0.35535,0.11845,0.35535) occupation: 6==
 -23.88062 -1.46673 -0.66221 -0.03492 0.00826 0.03011 0.46375 0.65320 0.76638 0.79079
 1.21871 1.57121 1.68116 1.82017 2.02652 2.16350 2.61454 3.34105 3.39961 3.51616
 3.53504 3.72002
 == 269-th k-point (-0.23690,0.23690,0.23690) occupation: 6==
 -23.88069 -1.46728 -0.66700 -0.02460 0.03055 0.03055 0.43549 0.71603 0.78727 0.78727
 1.36180 1.51964 1.51964 1.70579 1.70579 1.96111 2.73423 3.36305 3.36305 3.52559
 3.68806 3.68806
 == 270-th k-point (-0.11845,0.35535,0.11845) occupation: 6==
 -23.88070 -1.46734 -0.66682 -0.01529 0.02248 0.02343 0.44941 0.72472 0.80102 0.80867
 1.16799 1.43921 1.58763 1.90859 1.94189 1.97168 2.73444 3.33660 3.34775 3.50861
 3.53920 3.63101
 == 271-th k-point (0.00000,0.47380,0.00000) occupation: 6==
 -23.88062 -1.46686 -0.66181 -0.02982 0.01265 0.01265 0.48904 0.77613 0.79703 0.79703
 1.53745 1.56762 1.56762 1.92201 2.09014 2.09014 2.74470 3.31115 3.31590 3.49488
 3.58502 3.58502
 == 272-th k-point (0.11845,0.59225,-0.11845) occupation: 6==
 -23.88050 -1.46620 -0.65543 -0.05158 0.00018 0.00817 0.52791 0.68590 0.75427 0.78153
 1.19203 1.54617 1.69109 1.80858 2.05212 2.20404 2.61829 3.33498 3.36695 3.50029
 3.51683 3.53209
 == 273-th k-point (-0.47380,-0.23690,0.71071) occupation: 6==
 -23.88064 -1.46603 -0.65480 -0.04705 -0.01528 0.01635 0.51939 0.62065 0.74276 0.78120
 1.27471 1.41282 1.61209 1.75726 2.12680 2.41755 2.55235 3.33504 3.44436 3.49458
 3.50481 3.51644
 == 274-th k-point (-0.35535,-0.11845,0.59225) occupation: 6==
 -23.88064 -1.46603 -0.65480 -0.04705 -0.01528 0.01635 0.51939 0.62065 0.74276 0.78120
 1.27471 1.41282 1.61209 1.75726 2.12680 2.41755 2.55235 3.33504 3.44436 3.49458
 3.50481 3.51644
 == 275-th k-point (-0.23690,-0.00000,0.47380) occupation: 6==
 -23.88064 -1.46662 -0.66031 -0.03362 -0.00012 0.02137 0.48931 0.65955 0.76463 0.79516
 1.15811 1.44313 1.73570 1.81941 2.01958 2.24706 2.68629 3.31843 3.37629 3.50032
 3.52613 3.55074
 == 276-th k-point (-0.11845,0.11845,0.35535) occupation: 6==
 -23.88070 -1.46734 -0.66682 -0.01529 0.02248 0.02343 0.44941 0.72472 0.80102 0.80867
 1.16799 1.43921 1.58763 1.90859 1.94189 1.97168 2.73444 3.33660 3.34775 3.50861
 3.53920 3.63101
 == 277-th k-point (0.00000,0.23690,0.23690) occupation: 6==
 -23.88075 -1.46766 -0.66960 -0.00383 0.01947 0.03467 0.43193 0.71956 0.82130 0.82608
 1.12634 1.59558 1.62412 1.83024 1.95189 2.32276 2.71308 3.31593 3.35547 3.54414
 3.56077 3.77725
 == 278-th k-point (0.11845,0.35535,0.11845) occupation: 6==
 -23.88070 -1.46734 -0.66682 -0.01529 0.02248 0.02343 0.44941 0.72472 0.80102 0.80867
 1.16799 1.43921 1.58763 1.90859 1.94189 1.97168 2.73444 3.33660 3.34775 3.50861
 3.53920 3.63101
 == 279-th k-point (0.23690,0.47380,0.00000) occupation: 6==
 -23.88064 -1.46662 -0.66031 -0.03362 -0.00012 0.02137 0.48931 0.65955 0.76463 0.79516
 1.15811 1.44313 1.73570 1.81941 2.01958 2.24706 2.68629 3.31843 3.37629 3.50032
 3.52613 3.55074
 == 280-th k-point (-0.35535,-0.35535,0.82916) occupation: 6==
 -23.88051 -1.46608 -0.65575 -0.03469 -0.02699 0.02170 0.51633 0.60778 0.75626 0.77994
 1.29902 1.60105 1.63027 1.78807 2.14074 2.39197 2.45705 3.31598 3.46254 3.49372
 3.50873 3.60444
 == 281-th k-point (-0.23690,-0.23690,0.71071) occupation: 6==
 -23.88044 -1.46586 -0.65262 -0.05273 -0.01890 0.01206 0.54490 0.61516 0.75998 0.76349
 1.37140 1.46837 1.67403 1.75232 2.16541 2.37913 2.38139 3.33568 3.45290 3.49605
 3.50649 3.52875
 == 282-th k-point (-0.11845,-0.11845,0.59225) occupation: 6==
 -23.88050 -1.46620 -0.65543 -0.05158 0.00018 0.00817 0.52791 0.68590 0.75427 0.78153
 1.19203 1.54617 1.69109 1.80858 2.05212 2.20404 2.61829 3.33498 3.36695 3.50029
 3.51683 3.53209
 == 283-th k-point (0.00000,-0.00000,0.47380) occupation: 6==
 -23.88062 -1.46686 -0.66181 -0.02982 0.01265 0.01265 0.48904 0.77613 0.79703 0.79703
 1.53745 1.56762 1.56762 1.92201 2.09014 2.09014 2.74470 3.31115 3.31590 3.49488
 3.58502 3.58502
 == 284-th k-point (0.11845,0.11845,0.35535) occupation: 6==
 -23.88070 -1.46734 -0.66682 -0.01529 0.02248 0.02343 0.44941 0.72472 0.80102 0.80867
 1.16799 1.43921 1.58763 1.90859 1.94189 1.97168 2.73444 3.33660 3.34775 3.50861
 3.53920 3.63101
 == 285-th k-point (0.23690,0.23690,0.23690) occupation: 6==
 -23.88069 -1.46728 -0.66700 -0.02460 0.03055 0.03055 0.43549 0.71603 0.78727 0.78727
 1.36180 1.51964 1.51964 1.70579 1.70579 1.96111 2.73423 3.36305 3.36305 3.52559
 3.68806 3.68806
 == 286-th k-point (0.35535,0.35535,0.11845) occupation: 6==
 -23.88062 -1.46673 -0.66221 -0.03492 0.00826 0.03011 0.46375 0.65320 0.76637 0.79079
 1.21871 1.57121 1.68116 1.82017 2.02652 2.16350 2.61454 3.34105 3.39961 3.51616
 3.53504 3.72002
 == 287-th k-point (-0.23690,-0.47380,0.94761) occupation: 6==
 -23.88064 -1.46603 -0.65480 -0.04705 -0.01528 0.01635 0.51939 0.62065 0.74276 0.78120
 1.27471 1.41282 1.61209 1.75726 2.12680 2.41755 2.55235 3.33504 3.44436 3.49458
 3.50481 3.51644
 == 288-th k-point (-0.11845,-0.35535,0.82916) occupation: 6==
 -23.88070 -1.46572 -0.65085 -0.04698 -0.03343 0.00839 0.58300 0.59382 0.71470 0.78299
 1.28151 1.37920 1.52425 1.81995 2.21100 2.26236 2.74621 3.31632 3.42844 3.48235
 3.49727 3.50444
 == 289-th k-point (0.00000,-0.23690,0.71071) occupation: 6==
 -23.88065 -1.46580 -0.65114 -0.05965 -0.01522 0.00536 0.56787 0.63769 0.71351 0.78651
 1.13945 1.46341 1.59918 1.87364 2.09474 2.45733 2.68754 3.31726 3.38751 3.43870
 3.50267 3.51637
 == 290-th k-point (0.11845,-0.11845,0.59225) occupation: 6==
 -23.88050 -1.46620 -0.65543 -0.05158 0.00018 0.00817 0.52791 0.68590 0.75427 0.78153
 1.19203 1.54617 1.69109 1.80858 2.05212 2.20404 2.61829 3.33498 3.36695 3.50029
 3.51683 3.53209
 == 291-th k-point (0.23690,-0.00000,0.47380) occupation: 6==
 -23.88064 -1.46662 -0.66031 -0.03362 -0.00012 0.02137 0.48931 0.65955 0.76463 0.79516
 1.15811 1.44313 1.73570 1.81941 2.01958 2.24706 2.68629 3.31843 3.37629 3.50032
 3.52613 3.55074
 == 292-th k-point (0.35535,0.11845,0.35535) occupation: 6==
 -23.88062 -1.46673 -0.66221 -0.03492 0.00826 0.03011 0.46375 0.65320 0.76637 0.79079
 1.21871 1.57121 1.68116 1.82017 2.02652 2.16350 2.61454 3.34105 3.39961 3.51616
 3.53504 3.72002
 == 293-th k-point (0.47380,0.23690,0.23690) occupation: 6==
 -23.88056 -1.46649 -0.65983 -0.04603 0.01472 0.02046 0.47215 0.65802 0.76409 0.76995
 1.30240 1.55377 1.57646 1.77230 1.92244 2.06221 2.61480 3.36358 3.39077 3.51312
 3.52150 3.64073
 == 294-th k-point (-1.06606,0.35535,0.35535) occupation: 6==
 -23.88051 -1.46621 -0.65767 -0.05395 0.00762 0.02380 0.47447 0.64084 0.74777 0.76792
 1.37869 1.58848 1.61148 1.69514 2.08560 2.11626 2.53804 3.35883 3.41375 3.50876
 3.52156 3.67843
 == 295-th k-point (-0.94761,0.47380,0.23690) occupation: 6==
 -23.88064 -1.46603 -0.65480 -0.04705 -0.01528 0.01635 0.51939 0.62065 0.74276 0.78120
 1.27471 1.41282 1.61209 1.75726 2.12680 2.41755 2.55235 3.33504 3.44436 3.49458
 3.50481 3.51644
 == 296-th k-point (-0.82916,0.59225,0.11845) occupation: 6==
 -23.88065 -1.46580 -0.65114 -0.05965 -0.01522 0.00536 0.56787 0.63769 0.71351 0.78651
 1.13945 1.46341 1.59918 1.87364 2.09474 2.45733 2.68754 3.31726 3.38751 3.43870
 3.50267 3.51637
 == 297-th k-point (-0.71071,0.71071,0.00000) occupation: 6==
 -23.88037 -1.46569 -0.64946 -0.07009 -0.00982 0.00184 0.58472 0.66020 0.73632 0.77922
 1.19121 1.57773 1.77683 1.79418 2.09857 2.52078 2.56518 3.31602 3.38332 3.38351
 3.50013 3.51134
 == 298-th k-point (-0.59225,0.82916,-0.11845) occupation: 6==
 -23.88065 -1.46580 -0.65114 -0.05965 -0.01522 0.00536 0.56787 0.63769 0.71351 0.78651
 1.13945 1.46341 1.59918 1.87364 2.09474 2.45733 2.68754 3.31726 3.38751 3.43870
 3.50267 3.51637
 == 299-th k-point (-0.47380,0.94761,-0.23690) occupation: 6==
 -23.88064 -1.46603 -0.65480 -0.04705 -0.01528 0.01635 0.51939 0.62065 0.74276 0.78120
 1.27471 1.41282 1.61209 1.75726 2.12680 2.41755 2.55235 3.33504 3.44436 3.49458
 3.50481 3.51644
 == 300-th k-point (-0.35535,1.06606,-0.35535) occupation: 6==
 -23.88051 -1.46621 -0.65767 -0.05395 0.00762 0.02380 0.47447 0.64084 0.74777 0.76792
 1.37869 1.58848 1.61148 1.69514 2.08560 2.11626 2.53804 3.35883 3.41375 3.50876
 3.52156 3.67843
 == 301-th k-point (-0.94761,0.23690,0.47380) occupation: 6==
 -23.88064 -1.46603 -0.65480 -0.04705 -0.01528 0.01635 0.51939 0.62065 0.74276 0.78120
 1.27471 1.41282 1.61209 1.75726 2.12680 2.41755 2.55235 3.33504 3.44436 3.49458
 3.50481 3.51644
 == 302-th k-point (-0.82916,0.35535,0.35535) occupation: 6==
 -23.88051 -1.46608 -0.65575 -0.03469 -0.02699 0.02170 0.51633 0.60778 0.75626 0.77994
 1.29902 1.60105 1.63027 1.78807 2.14074 2.39197 2.45705 3.31598 3.46254 3.49372
 3.50873 3.60444
 == 303-th k-point (-0.71071,0.47380,0.23690) occupation: 6==
 -23.88064 -1.46603 -0.65480 -0.04705 -0.01528 0.01635 0.51939 0.62065 0.74276 0.78120
 1.27471 1.41282 1.61209 1.75726 2.12680 2.41755 2.55235 3.33504 3.44436 3.49458
 3.50481 3.51644
 == 304-th k-point (-0.59225,0.59225,0.11845) occupation: 6==
 -23.88044 -1.46586 -0.65262 -0.05273 -0.01890 0.01206 0.54490 0.61516 0.75998 0.76349
 1.37140 1.46837 1.67403 1.75232 2.16541 2.37914 2.38139 3.33568 3.45290 3.49605
 3.50649 3.52875
 == 305-th k-point (-0.47380,0.71071,0.00000) occupation: 6==
 -23.88070 -1.46572 -0.65085 -0.04698 -0.03343 0.00839 0.58300 0.59382 0.71470 0.78299
 1.28151 1.37920 1.52425 1.81995 2.21100 2.26236 2.74621 3.31632 3.42844 3.48235
 3.49727 3.50444
 == 306-th k-point (-0.35535,0.82916,-0.11845) occupation: 6==
 -23.88070 -1.46572 -0.65085 -0.04698 -0.03343 0.00839 0.58300 0.59382 0.71470 0.78299
 1.28151 1.37920 1.52425 1.81995 2.21100 2.26236 2.74621 3.31632 3.42844 3.48235
 3.49727 3.50444
 == 307-th k-point (-0.23690,0.94761,-0.23690) occupation: 6==
 -23.88044 -1.46586 -0.65262 -0.05273 -0.01890 0.01206 0.54490 0.61516 0.75998 0.76349
 1.37140 1.46837 1.67403 1.75232 2.16541 2.37913 2.38139 3.33568 3.45290 3.49605
 3.50649 3.52875
 == 308-th k-point (-0.82916,0.11845,0.59225) occupation: 6==
 -23.88065 -1.46580 -0.65114 -0.05965 -0.01522 0.00536 0.56787 0.63769 0.71351 0.78651
 1.13945 1.46341 1.59918 1.87364 2.09474 2.45733 2.68754 3.31726 3.38751 3.43870
 3.50267 3.51637
 == 309-th k-point (-0.71071,0.23690,0.47380) occupation: 6==
 -23.88064 -1.46603 -0.65480 -0.04705 -0.01528 0.01635 0.51939 0.62065 0.74276 0.78120
 1.27471 1.41282 1.61209 1.75726 2.12680 2.41755 2.55235 3.33504 3.44436 3.49458
 3.50481 3.51644
 == 310-th k-point (-0.59225,0.35535,0.35535) occupation: 6==
 -23.88051 -1.46621 -0.65767 -0.05395 0.00762 0.02380 0.47447 0.64084 0.74777 0.76792
 1.37869 1.58848 1.61148 1.69514 2.08560 2.11626 2.53804 3.35883 3.41375 3.50876
 3.52156 3.67843
 == 311-th k-point (-0.47380,0.47380,0.23690) occupation: 6==
 -23.88051 -1.46621 -0.65767 -0.05395 0.00762 0.02380 0.47447 0.64084 0.74777 0.76792
 1.37869 1.58848 1.61148 1.69514 2.08560 2.11626 2.53804 3.35883 3.41375 3.50876
 3.52156 3.67843
 == 312-th k-point (-0.35535,0.59225,0.11845) occupation: 6==
 -23.88064 -1.46603 -0.65480 -0.04705 -0.01528 0.01635 0.51939 0.62065 0.74276 0.78120
 1.27471 1.41282 1.61209 1.75726 2.12680 2.41755 2.55235 3.33504 3.44436 3.49458
 3.50481 3.51644
 == 313-th k-point (-0.23690,0.71071,0.00000) occupation: 6==
 -23.88065 -1.46580 -0.65114 -0.05965 -0.01522 0.00536 0.56787 0.63769 0.71351 0.78651
 1.13945 1.46341 1.59918 1.87364 2.09474 2.45733 2.68754 3.31726 3.38751 3.43870
 3.50267 3.51637
 == 314-th k-point (-0.11845,0.82916,-0.11845) occupation: 6==
 -23.88037 -1.46569 -0.64946 -0.07009 -0.00982 0.00184 0.58472 0.66020 0.73632 0.77922
 1.19121 1.57773 1.77683 1.79418 2.09857 2.52078 2.56518 3.31602 3.38332 3.38351
 3.50013 3.51134
 == 315-th k-point (-0.71071,-0.00000,0.71071) occupation: 6==
 -23.88037 -1.46569 -0.64946 -0.07009 -0.00982 0.00184 0.58472 0.66020 0.73632 0.77922
 1.19121 1.57773 1.77683 1.79418 2.09857 2.52078 2.56518 3.31602 3.38332 3.38351
 3.50013 3.51134
 == 316-th k-point (-0.59225,0.11845,0.59225) occupation: 6==
 -23.88044 -1.46586 -0.65262 -0.05273 -0.01890 0.01206 0.54490 0.61516 0.75998 0.76349
 1.37140 1.46837 1.67403 1.75232 2.16541 2.37914 2.38139 3.33568 3.45290 3.49605
 3.50649 3.52875
 == 317-th k-point (-0.47380,0.23690,0.47380) occupation: 6==
 -23.88051 -1.46621 -0.65767 -0.05395 0.00762 0.02380 0.47447 0.64084 0.74777 0.76792
 1.37869 1.58848 1.61148 1.69514 2.08560 2.11626 2.53804 3.35883 3.41375 3.50876
 3.52156 3.67843
 == 318-th k-point (-0.35535,0.35535,0.35535) occupation: 6==
 -23.88056 -1.46645 -0.66080 -0.05354 0.02782 0.02782 0.44444 0.68186 0.74403 0.74403
 1.56989 1.62729 1.62729 1.75273 1.75273 2.06363 2.67940 3.37088 3.37088 3.51396
 3.73004 3.73004
 == 319-th k-point (-0.23690,0.47380,0.23690) occupation: 6==
 -23.88056 -1.46649 -0.65983 -0.04603 0.01472 0.02046 0.47215 0.65802 0.76409 0.76995
 1.30240 1.55377 1.57646 1.77230 1.92243 2.06221 2.61480 3.36358 3.39077 3.51312
 3.52150 3.64073
 == 320-th k-point (-0.11845,0.59225,0.11845) occupation: 6==
 -23.88050 -1.46620 -0.65543 -0.05158 0.00018 0.00817 0.52791 0.68590 0.75427 0.78153
 1.19203 1.54617 1.69109 1.80858 2.05212 2.20404 2.61829 3.33498 3.36695 3.50029
 3.51683 3.53209
 == 321-th k-point (0.00000,0.71071,0.00000) occupation: 6==
 -23.88038 -1.46585 -0.65075 -0.07043 0.00020 0.00020 0.56809 0.72350 0.78689 0.78689
 1.59588 1.78454 1.80912 1.80912 2.49309 2.49310 2.66727 3.31117 3.31589 3.39669
 3.39669 3.50407
 == 322-th k-point (-0.59225,-0.11845,0.82916) occupation: 6==
 -23.88065 -1.46580 -0.65114 -0.05965 -0.01522 0.00536 0.56787 0.63769 0.71351 0.78651
 1.13945 1.46341 1.59918 1.87364 2.09474 2.45733 2.68754 3.31726 3.38751 3.43870
 3.50267 3.51637
 == 323-th k-point (-0.47380,-0.00000,0.71071) occupation: 6==
 -23.88070 -1.46572 -0.65085 -0.04698 -0.03343 0.00839 0.58300 0.59382 0.71470 0.78299
 1.28151 1.37920 1.52425 1.81995 2.21100 2.26236 2.74621 3.31632 3.42844 3.48235
 3.49727 3.50444
 == 324-th k-point (-0.35535,0.11845,0.59225) occupation: 6==
 -23.88064 -1.46603 -0.65480 -0.04705 -0.01528 0.01635 0.51939 0.62065 0.74276 0.78120
 1.27471 1.41282 1.61209 1.75726 2.12680 2.41755 2.55235 3.33504 3.44436 3.49458
 3.50481 3.51644
 == 325-th k-point (-0.23690,0.23690,0.47380) occupation: 6==
 -23.88056 -1.46649 -0.65983 -0.04603 0.01472 0.02046 0.47215 0.65802 0.76409 0.76995
 1.30240 1.55377 1.57646 1.77230 1.92243 2.06221 2.61480 3.36358 3.39077 3.51312
 3.52150 3.64073
 == 326-th k-point (-0.11845,0.35535,0.35535) occupation: 6==
 -23.88062 -1.46673 -0.66221 -0.03492 0.00826 0.03011 0.46375 0.65320 0.76637 0.79079
 1.21871 1.57121 1.68116 1.82017 2.02652 2.16350 2.61454 3.34105 3.39961 3.51616
 3.53504 3.72002
 == 327-th k-point (0.00000,0.47380,0.23690) occupation: 6==
 -23.88064 -1.46662 -0.66031 -0.03362 -0.00012 0.02137 0.48931 0.65955 0.76463 0.79516
 1.15811 1.44313 1.73570 1.81941 2.01958 2.24706 2.68629 3.31843 3.37629 3.50032
 3.52613 3.55074
 == 328-th k-point (0.11845,0.59225,0.11845) occupation: 6==
 -23.88050 -1.46620 -0.65543 -0.05158 0.00018 0.00817 0.52791 0.68590 0.75427 0.78153
 1.19203 1.54617 1.69109 1.80858 2.05212 2.20404 2.61829 3.33498 3.36695 3.50029
 3.51683 3.53209
 == 329-th k-point (-0.47380,-0.23690,0.94761) occupation: 6==
 -23.88064 -1.46603 -0.65480 -0.04705 -0.01528 0.01635 0.51939 0.62065 0.74276 0.78120
 1.27471 1.41282 1.61209 1.75726 2.12680 2.41755 2.55235 3.33504 3.44436 3.49458
 3.50481 3.51644
 == 330-th k-point (-0.35535,-0.11845,0.82916) occupation: 6==
 -23.88070 -1.46572 -0.65085 -0.04698 -0.03343 0.00839 0.58300 0.59382 0.71470 0.78299
 1.28151 1.37920 1.52425 1.81995 2.21100 2.26236 2.74621 3.31632 3.42844 3.48235
 3.49727 3.50444
 == 331-th k-point (-0.23690,-0.00000,0.71071) occupation: 6==
 -23.88065 -1.46580 -0.65114 -0.05965 -0.01522 0.00536 0.56787 0.63769 0.71351 0.78651
 1.13945 1.46341 1.59918 1.87364 2.09474 2.45733 2.68754 3.31726 3.38751 3.43870
 3.50267 3.51637
 == 332-th k-point (-0.11845,0.11845,0.59225) occupation: 6==
 -23.88050 -1.46620 -0.65543 -0.05158 0.00018 0.00817 0.52791 0.68590 0.75427 0.78153
 1.19203 1.54617 1.69109 1.80858 2.05212 2.20404 2.61829 3.33498 3.36695 3.50029
 3.51683 3.53209
 == 333-th k-point (0.00000,0.23690,0.47380) occupation: 6==
 -23.88064 -1.46662 -0.66031 -0.03362 -0.00012 0.02137 0.48931 0.65955 0.76463 0.79516
 1.15811 1.44313 1.73570 1.81941 2.01958 2.24706 2.68629 3.31843 3.37629 3.50032
 3.52613 3.55074
 == 334-th k-point (0.11845,0.35535,0.35535) occupation: 6==
 -23.88062 -1.46673 -0.66221 -0.03492 0.00826 0.03011 0.46375 0.65320 0.76637 0.79079
 1.21871 1.57121 1.68116 1.82017 2.02652 2.16350 2.61454 3.34105 3.39961 3.51616
 3.53504 3.72002
 == 335-th k-point (0.23690,0.47380,0.23690) occupation: 6==
 -23.88056 -1.46649 -0.65983 -0.04603 0.01472 0.02046 0.47215 0.65802 0.76409 0.76995
 1.30240 1.55377 1.57646 1.77230 1.92244 2.06221 2.61480 3.36358 3.39077 3.51312
 3.52150 3.64073
 == 336-th k-point (-0.35535,-0.35535,1.06606) occupation: 6==
 -23.88051 -1.46621 -0.65767 -0.05395 0.00762 0.02380 0.47447 0.64084 0.74777 0.76792
 1.37869 1.58848 1.61148 1.69514 2.08560 2.11626 2.53804 3.35883 3.41375 3.50876
 3.52156 3.67843
 == 337-th k-point (-0.23690,-0.23690,0.94761) occupation: 6==
 -23.88044 -1.46586 -0.65262 -0.05273 -0.01890 0.01206 0.54490 0.61516 0.75998 0.76349
 1.37140 1.46837 1.67403 1.75232 2.16541 2.37913 2.38139 3.33568 3.45290 3.49605
 3.50649 3.52875
 == 338-th k-point (-0.11845,-0.11845,0.82916) occupation: 6==
 -23.88037 -1.46569 -0.64946 -0.07009 -0.00982 0.00184 0.58472 0.66020 0.73632 0.77922
 1.19121 1.57773 1.77683 1.79418 2.09857 2.52078 2.56518 3.31602 3.38332 3.38351
 3.50013 3.51134
 == 339-th k-point (0.00000,-0.00000,0.71071) occupation: 6==
 -23.88038 -1.46585 -0.65075 -0.07043 0.00020 0.00020 0.56809 0.72350 0.78689 0.78689
 1.59588 1.78454 1.80912 1.80912 2.49309 2.49310 2.66727 3.31117 3.31589 3.39669
 3.39669 3.50407
 == 340-th k-point (0.11845,0.11845,0.59225) occupation: 6==
 -23.88050 -1.46620 -0.65543 -0.05158 0.00018 0.00817 0.52791 0.68590 0.75427 0.78153
 1.19203 1.54617 1.69109 1.80858 2.05212 2.20404 2.61829 3.33498 3.36695 3.50029
 3.51683 3.53209
 == 341-th k-point (0.23690,0.23690,0.47380) occupation: 6==
 -23.88056 -1.46649 -0.65983 -0.04603 0.01472 0.02046 0.47215 0.65802 0.76409 0.76995
 1.30240 1.55377 1.57646 1.77230 1.92244 2.06221 2.61480 3.36358 3.39077 3.51312
 3.52150 3.64073
 == 342-th k-point (0.35535,0.35535,0.35535) occupation: 6==
 -23.88056 -1.46645 -0.66080 -0.05354 0.02782 0.02782 0.44444 0.68186 0.74403 0.74403
 1.56989 1.62729 1.62729 1.75273 1.75273 2.06363 2.67940 3.37088 3.37088 3.51396
 3.73004 3.73004
 ---------------------------------------------------------------------------
 VBM is at 171-th k-point with 0.96836 eV
 CBM is at 171-th k-point with 10.57316 eV
 Band gap is 9.60479 eV


           Ground-State Mulliken Net Atomic Charges

      Atom                 Charge (a.u.)          Spin (a.u.)
   --------------------------------------------------------
      1 Li                (0.469030,0.000000)    (0.000000,0.000000)
      2  F              (-0.469030,-0.000000)    (0.000000,0.000000)
   --------------------------------------------------------
  Sum of atomic charges =     (-0.000000,-0.000000)
  Sum of spin   charges =       (0.000000,0.000000)



 Total job time:  161.55 s.
 Tue Sep  9 01:13:21 2025


        *************************************************************
        *                                                           *
        *  Thank you very much for using QCPBC. Have a nice day.    *
        *                                                           *
        *************************************************************

Running job 1 of 1
