                  Welcome to Q-Chem
           with Periodic Boundary Condition
     A Quantum Leap Into The Future Of Chemistry

 Adam Rettig, Xintian Feng, Meng-Fu Chen, Hieu Dinh, Stephen Quiton,
 Anton Ni, Paul J. Robinson, Jinghong Zhang, Joonho Lee

Contributors to earlier versions of Q-Chem not listed above:
 Evgeny Epifanovsky, Leo Cunha, Jerome F. Gonthier, Kuan-Yu Liu
 Input file: /n/netscratch/joonholee_lab/Lab/hieudinh//lif_solve_def2svp_omega_0.3_777.scratch20250909010612/lif_solve_def2svp_omega_0.3_777.0
 Scratch folder: /n/netscratch/joonholee_lab/Lab/hieudinh//lif_solve_def2svp_omega_0.3_777.scratch20250909010612
 Auxillary files located at: /n/holylabs/LABS/joonholee_lab/Lab/qchem_base/qcaux
 Q-Chem begins on Tue Sep  9 01:06:13 2025

 -------------------------------------------------------------
 User input:
 -------------------------------------------------------------
 $lattice
 3
 0.000000 2.005000 2.005000
 2.005000 0.000000 2.005000
 2.005000 2.005000 0.000000
 $end
 
 $unitcell
 ABSOLUTE
 0 1
 Li 0.000000 0.000000 0.000000
 F  2.005000 0.000000 0.000000
 $end
 
 $rem
 jobtype = sp
 method = pbe
 scf_convergence = 5
 scf_guess = autosad
 scf_algorithm = gdm
 basis = def2-svp
 aux_basis = gen
 input_bohr = false
 symmetry false
 is_basis_uctr true
 rsdf_print_level 1
 
 mp_mesh = [7,7,7]
 
 integral_direct true
 bvk_cgto true
 
 thresh 14
 mem_total 100000
 threads 32
 
 MAX_SCF_CYCLES 400
 madelung = false
 omega 0.3
 do_rij_bigmem true
 automate_g true
 print_level 10
 grid_type_xc 1
 
 thresh_1e2c_sp 1e-14
 thresh_2e3c_bra_ket_sep 1e-10
 thresh_g 1e-12
 $end
 
 $aux_basis
 Li     0
 S   7   1.00
     498.3689730              0.0207908
     162.9342738              0.0542177
      57.3246735              0.1776783
      21.6427314              0.4181150
       8.7345375              0.6535245
       3.7491039              0.5492618
       1.7006754              0.1701425
 S   1   1.00
       0.8090859             -0.0097548
 S   1   1.00
       0.4000933             -0.0050152
 S   1   1.00
       0.2035793              0.0232200
 !S   1   1.00
 !      0.1054201              0.0134535
 !S   1   1.00
 !      0.0549139              0.0006647
 P   2   1.00
      10.7024696              0.0072923
       3.6551543              0.0060940
 P   1   1.00
       1.2464013              0.0172529
 P   1   1.00
       0.4246282             -0.0160026
 P   1   1.00
       0.1446192             -0.0195111
 D   2   1.00
       1.1510647             -0.0014314
       0.6019112              0.0038969
 D   1   1.00
       0.3109573              0.0024683
 D   1   1.00
       0.1600032              0.0036451
 F   2   1.00
       0.5967918              0.0010494
       0.1790687              0.0006468
 G   1   1.00
       1.0460130             -0.0001971
 ****
 F     0
 S   7   1.00
    3514.9201549              0.1805835
    1231.2458815              0.3676084
     454.1367336              1.2707881
     175.8376258              2.8274164
      71.2081775              4.3588226
      30.0316883              2.7180994
      13.1259023             -0.0804726
 S   1   1.00
       5.9126861             -0.0023370
 S   1   1.00
       2.7284431              1.1236274
 S   1   1.00
       1.2813993              0.9999042
 S   1   1.00
       0.6082793              0.3119579
 S   1   1.00
       0.2897894              0.0312295
 P   2   1.00
      49.3740409             -0.0346332
      13.4874956             -0.0096069
 P   1   1.00
       3.9664900              0.0762067
 P   1   1.00
       1.2226629             -0.0103329
 P   1   1.00
       0.3830317              0.0018853
 D   2   1.00
      29.9719140             -0.0113316
       6.7860915             -0.0467639
 D   1   1.00
       1.8137313             -0.0167604
 D   1   1.00
       0.5157840             -0.0050777
 F   2   1.00
       2.8301877              1.0
       0.9155962              1.0
 G   1   1.00
       1.6097500             -0.0005411
 ****
 $end
 -------------------------------------------------------------
 Running PBC job

 Requested Exchange Correlation Functionals: 
  DFT Exchange:  1.00000 pbe_x
  DFT Correlation:  1.00000 pbe_c
 using 32 threads for computing.
 ---------------------------------------------------------------
      Coordinates of Atoms in Central Unit Cell (Angstroms)
    I     Atom         X            Y            Z
 ---------------------------------------------------------------
    1      Li      0.000000     0.000000     0.000000
    2       F      2.005000     0.000000     0.000000
 ---------------------------------------------------------------
 --------------------------------------------------
              Lattice Vectors (Angstroms)
              X            Y            Z
 --------------------------------------------------
   X       0.000000     2.005000     2.005000
   Y       2.005000     0.000000     2.005000
   Z       2.005000     2.005000     0.000000
 --------------------------------------------------
 --------------------------------------------------
       Reciprocal Lattice Vectors (Angstroms^-1)
              X            Y            Z
 --------------------------------------------------
   X      -1.566879     1.566879     1.566879
   Y       1.566879    -1.566879     1.566879
   Z       1.566879     1.566879    -1.566879
 --------------------------------------------------

 Single point calculation requested

 Hamiltonian contributions:
 List of terms in Hamiltonian: kpts_nn, kpts_kinetic, kpts_vnuc_df, kpts_xc, kpts_rij_bigmem

 K-Points calculation started.

 Basis set information about using solid harmonic (1) or Cartesian (0):
  li : 
  f : D(1) 

 Basis set information about using solid harmonic (1) or Cartesian (0):
  li : D(1) D(1) D(1) F(1) G(1) 
  f : D(1) D(1) D(1) F(1) G(1) 

 There are 23 basis functions in the central unit cell.
 Print atomic basis of atoms in the central unit cell:
 -------------------------------------------------------------
2 22 22 11

  0.00000000000000e+00  0.00000000000000e+00  0.00000000000000e+00
  3.78890087987467e+00  0.00000000000000e+00  0.00000000000000e+00

  2.66277855160000e+02
  4.00697834470000e+01
  9.05599443890000e+00
  2.45030090510000e+00
  7.22095718550000e-01
  5.28108847210000e-02
  2.09609487980000e-02
  1.45000000000000e+00
  3.00000000000000e-01
  8.20000000000000e-02
  2.89483259900000e+03
  4.35419391200000e+02
  9.88433288660000e+01
  2.74851980010000e+01
  8.54054981710000e+00
  1.06545780380000e+00
  3.32473467480000e-01
  2.26966339240000e+01
  4.98723392570000e+00
  1.34916139540000e+00
  3.48298819770000e-01
  1.40000000000000e+00

  2.98523259158809e-01
  5.30473944856059e-01
  7.38120784182850e-01
  6.64059438610974e-01
  2.38395787996007e-01
  7.85150071492147e-02
  3.92616272060942e-02
  5.10109427593945e-01
  2.75249408957986e-01
  6.25471323993550e-02
 -1.50461836060050e+00
 -2.71519138656203e+00
 -4.00842348425574e+00
 -4.00664898239610e+00
 -1.59245314394331e+00
  7.47415815228736e-01
  3.12052622570615e-01
 -4.57453810587525e+00
 -3.61576784341891e+00
 -1.52308270817964e+00
  3.81399475464114e-01
  2.96574303152418e+00

0 0 0 0 1 1 1
0 0 
5 0

0 1 1 5 1 1 1
5 0 
1 0

0 2 2 6 1 1 1
6 0 
1 0

0 3 3 7 1 3 3
7 1 
2 0

0 6 6 9 1 3 3
9 1 
1 0

1 9 9 10 1 1 1
10 0 
5 0

1 10 10 15 1 1 1
15 0 
1 0

1 11 11 16 1 1 1
16 0 
1 0

1 12 12 17 1 3 3
17 1 
3 0

1 15 15 20 1 3 3
20 1 
1 0

1 18 18 21 1 5 6
21 2 
1 1

 -------------------------------------------------------------
 Allocate 132768 B from available memory: 104857600000 B
 There are 12167 image cells after screening.
 There are 15858 image cells for CGTO evaluation after screening.
 Real-Space grid for FFT initialized based on kinetic energy cutoff (eV) = 500.0
 Real-Space grid for FFT: (8,8,8)
 There are 4913 real-space grid points.
 There are 27 batches of real-space grid points. 
 Size of each grid batch is around 128
 Grid for AFT initialized based on kinetic energy cutoff (eV) = 500.0
 Real-Space grid for AFT: (8,8,8)
 There are 4913 real-space grid points.

 There are 5740 atom-centered grid points.

 Spacegroup symmetry group: Fm-3m
 Reducing spacegroup symmetry to symmorphic group: F m -3 m
 Monkhorst-Pack mesh is [7,7,7]
 There are 343 k points.
kpoints in Bohr
-0.3553528831 -0.3553528831 -0.3553528831
-0.2369019221 -0.2369019221 -0.4738038442
-0.1184509610 -0.1184509610 -0.5922548052
-0.0000000000 0.0000000000 -0.7107057663
0.1184509610 0.1184509610 -0.8291567273
0.2369019221 0.2369019221 -0.9476076883
0.3553528831 0.3553528831 -1.0660586494
-0.2369019221 -0.4738038442 -0.2369019221
-0.1184509610 -0.3553528831 -0.3553528831
-0.0000000000 -0.2369019221 -0.4738038442
0.1184509610 -0.1184509610 -0.5922548052
0.2369019221 0.0000000000 -0.7107057663
0.3553528831 0.1184509610 -0.8291567273
0.4738038442 0.2369019221 -0.9476076883
-0.1184509610 -0.5922548052 -0.1184509610
-0.0000000000 -0.4738038442 -0.2369019221
0.1184509610 -0.3553528831 -0.3553528831
0.2369019221 -0.2369019221 -0.4738038442
0.3553528831 -0.1184509610 -0.5922548052
0.4738038442 0.0000000000 -0.7107057663
0.5922548052 0.1184509610 -0.8291567273
-0.0000000000 -0.7107057663 -0.0000000000
0.1184509610 -0.5922548052 -0.1184509610
0.2369019221 -0.4738038442 -0.2369019221
0.3553528831 -0.3553528831 -0.3553528831
0.4738038442 -0.2369019221 -0.4738038442
0.5922548052 -0.1184509610 -0.5922548052
0.7107057663 0.0000000000 -0.7107057663
0.1184509610 -0.8291567273 0.1184509610
0.2369019221 -0.7107057663 -0.0000000000
0.3553528831 -0.5922548052 -0.1184509610
0.4738038442 -0.4738038442 -0.2369019221
0.5922548052 -0.3553528831 -0.3553528831
0.7107057663 -0.2369019221 -0.4738038442
0.8291567273 -0.1184509610 -0.5922548052
0.2369019221 -0.9476076883 0.2369019221
0.3553528831 -0.8291567273 0.1184509610
0.4738038442 -0.7107057663 -0.0000000000
0.5922548052 -0.5922548052 -0.1184509610
0.7107057663 -0.4738038442 -0.2369019221
0.8291567273 -0.3553528831 -0.3553528831
0.9476076883 -0.2369019221 -0.4738038442
0.3553528831 -1.0660586494 0.3553528831
0.4738038442 -0.9476076883 0.2369019221
0.5922548052 -0.8291567273 0.1184509610
0.7107057663 -0.7107057663 -0.0000000000
0.8291567273 -0.5922548052 -0.1184509610
0.9476076883 -0.4738038442 -0.2369019221
1.0660586494 -0.3553528831 -0.3553528831
-0.4738038442 -0.2369019221 -0.2369019221
-0.3553528831 -0.1184509610 -0.3553528831
-0.2369019221 0.0000000000 -0.4738038442
-0.1184509610 0.1184509610 -0.5922548052
-0.0000000000 0.2369019221 -0.7107057663
0.1184509610 0.3553528831 -0.8291567273
0.2369019221 0.4738038442 -0.9476076883
-0.3553528831 -0.3553528831 -0.1184509610
-0.2369019221 -0.2369019221 -0.2369019221
-0.1184509610 -0.1184509610 -0.3553528831
-0.0000000000 0.0000000000 -0.4738038442
0.1184509610 0.1184509610 -0.5922548052
0.2369019221 0.2369019221 -0.7107057663
0.3553528831 0.3553528831 -0.8291567273
-0.2369019221 -0.4738038442 -0.0000000000
-0.1184509610 -0.3553528831 -0.1184509610
-0.0000000000 -0.2369019221 -0.2369019221
0.1184509610 -0.1184509610 -0.3553528831
0.2369019221 0.0000000000 -0.4738038442
0.3553528831 0.1184509610 -0.5922548052
0.4738038442 0.2369019221 -0.7107057663
-0.1184509610 -0.5922548052 0.1184509610
-0.0000000000 -0.4738038442 -0.0000000000
0.1184509610 -0.3553528831 -0.1184509610
0.2369019221 -0.2369019221 -0.2369019221
0.3553528831 -0.1184509610 -0.3553528831
0.4738038442 0.0000000000 -0.4738038442
0.5922548052 0.1184509610 -0.5922548052
0.0000000000 -0.7107057663 0.2369019221
0.1184509610 -0.5922548052 0.1184509610
0.2369019221 -0.4738038442 -0.0000000000
0.3553528831 -0.3553528831 -0.1184509610
0.4738038442 -0.2369019221 -0.2369019221
0.5922548052 -0.1184509610 -0.3553528831
0.7107057663 0.0000000000 -0.4738038442
0.1184509610 -0.8291567273 0.3553528831
0.2369019221 -0.7107057663 0.2369019221
0.3553528831 -0.5922548052 0.1184509610
0.4738038442 -0.4738038442 -0.0000000000
0.5922548052 -0.3553528831 -0.1184509610
0.7107057663 -0.2369019221 -0.2369019221
0.8291567273 -0.1184509610 -0.3553528831
0.2369019221 -0.9476076883 0.4738038442
0.3553528831 -0.8291567273 0.3553528831
0.4738038442 -0.7107057663 0.2369019221
0.5922548052 -0.5922548052 0.1184509610
0.7107057663 -0.4738038442 -0.0000000000
0.8291567273 -0.3553528831 -0.1184509610
0.9476076883 -0.2369019221 -0.2369019221
-0.5922548052 -0.1184509610 -0.1184509610
-0.4738038442 0.0000000000 -0.2369019221
-0.3553528831 0.1184509610 -0.3553528831
-0.2369019221 0.2369019221 -0.4738038442
-0.1184509610 0.3553528831 -0.5922548052
-0.0000000000 0.4738038442 -0.7107057663
0.1184509610 0.5922548052 -0.8291567273
-0.4738038442 -0.2369019221 -0.0000000000
-0.3553528831 -0.1184509610 -0.1184509610
-0.2369019221 0.0000000000 -0.2369019221
-0.1184509610 0.1184509610 -0.3553528831
-0.0000000000 0.2369019221 -0.4738038442
0.1184509610 0.3553528831 -0.5922548052
0.2369019221 0.4738038442 -0.7107057663
-0.3553528831 -0.3553528831 0.1184509610
-0.2369019221 -0.2369019221 -0.0000000000
-0.1184509610 -0.1184509610 -0.1184509610
-0.0000000000 0.0000000000 -0.2369019221
0.1184509610 0.1184509610 -0.3553528831
0.2369019221 0.2369019221 -0.4738038442
0.3553528831 0.3553528831 -0.5922548052
-0.2369019221 -0.4738038442 0.2369019221
-0.1184509610 -0.3553528831 0.1184509610
-0.0000000000 -0.2369019221 -0.0000000000
0.1184509610 -0.1184509610 -0.1184509610
0.2369019221 0.0000000000 -0.2369019221
0.3553528831 0.1184509610 -0.3553528831
0.4738038442 0.2369019221 -0.4738038442
-0.1184509610 -0.5922548052 0.3553528831
0.0000000000 -0.4738038442 0.2369019221
0.1184509610 -0.3553528831 0.1184509610
0.2369019221 -0.2369019221 -0.0000000000
0.3553528831 -0.1184509610 -0.1184509610
0.4738038442 0.0000000000 -0.2369019221
0.5922548052 0.1184509610 -0.3553528831
0.0000000000 -0.7107057663 0.4738038442
0.1184509610 -0.5922548052 0.3553528831
0.2369019221 -0.4738038442 0.2369019221
0.3553528831 -0.3553528831 0.1184509610
0.4738038442 -0.2369019221 -0.0000000000
0.5922548052 -0.1184509610 -0.1184509610
0.7107057663 0.0000000000 -0.2369019221
0.1184509610 -0.8291567273 0.5922548052
0.2369019221 -0.7107057663 0.4738038442
0.3553528831 -0.5922548052 0.3553528831
0.4738038442 -0.4738038442 0.2369019221
0.5922548052 -0.3553528831 0.1184509610
0.7107057663 -0.2369019221 -0.0000000000
0.8291567273 -0.1184509610 -0.1184509610
-0.7107057663 0.0000000000 0.0000000000
-0.5922548052 0.1184509610 -0.1184509610
-0.4738038442 0.2369019221 -0.2369019221
-0.3553528831 0.3553528831 -0.3553528831
-0.2369019221 0.4738038442 -0.4738038442
-0.1184509610 0.5922548052 -0.5922548052
-0.0000000000 0.7107057663 -0.7107057663
-0.5922548052 -0.1184509610 0.1184509610
-0.4738038442 0.0000000000 0.0000000000
-0.3553528831 0.1184509610 -0.1184509610
-0.2369019221 0.2369019221 -0.2369019221
-0.1184509610 0.3553528831 -0.3553528831
-0.0000000000 0.4738038442 -0.4738038442
0.1184509610 0.5922548052 -0.5922548052
-0.4738038442 -0.2369019221 0.2369019221
-0.3553528831 -0.1184509610 0.1184509610
-0.2369019221 0.0000000000 0.0000000000
-0.1184509610 0.1184509610 -0.1184509610
-0.0000000000 0.2369019221 -0.2369019221
0.1184509610 0.3553528831 -0.3553528831
0.2369019221 0.4738038442 -0.4738038442
-0.3553528831 -0.3553528831 0.3553528831
-0.2369019221 -0.2369019221 0.2369019221
-0.1184509610 -0.1184509610 0.1184509610
0.0000000000 0.0000000000 0.0000000000
0.1184509610 0.1184509610 -0.1184509610
0.2369019221 0.2369019221 -0.2369019221
0.3553528831 0.3553528831 -0.3553528831
-0.2369019221 -0.4738038442 0.4738038442
-0.1184509610 -0.3553528831 0.3553528831
0.0000000000 -0.2369019221 0.2369019221
0.1184509610 -0.1184509610 0.1184509610
0.2369019221 -0.0000000000 0.0000000000
0.3553528831 0.1184509610 -0.1184509610
0.4738038442 0.2369019221 -0.2369019221
-0.1184509610 -0.5922548052 0.5922548052
0.0000000000 -0.4738038442 0.4738038442
0.1184509610 -0.3553528831 0.3553528831
0.2369019221 -0.2369019221 0.2369019221
0.3553528831 -0.1184509610 0.1184509610
0.4738038442 -0.0000000000 0.0000000000
0.5922548052 0.1184509610 -0.1184509610
0.0000000000 -0.7107057663 0.7107057663
0.1184509610 -0.5922548052 0.5922548052
0.2369019221 -0.4738038442 0.4738038442
0.3553528831 -0.3553528831 0.3553528831
0.4738038442 -0.2369019221 0.2369019221
0.5922548052 -0.1184509610 0.1184509610
0.7107057663 -0.0000000000 0.0000000000
-0.8291567273 0.1184509610 0.1184509610
-0.7107057663 0.2369019221 0.0000000000
-0.5922548052 0.3553528831 -0.1184509610
-0.4738038442 0.4738038442 -0.2369019221
-0.3553528831 0.5922548052 -0.3553528831
-0.2369019221 0.7107057663 -0.4738038442
-0.1184509610 0.8291567273 -0.5922548052
-0.7107057663 0.0000000000 0.2369019221
-0.5922548052 0.1184509610 0.1184509610
-0.4738038442 0.2369019221 0.0000000000
-0.3553528831 0.3553528831 -0.1184509610
-0.2369019221 0.4738038442 -0.2369019221
-0.1184509610 0.5922548052 -0.3553528831
-0.0000000000 0.7107057663 -0.4738038442
-0.5922548052 -0.1184509610 0.3553528831
-0.4738038442 -0.0000000000 0.2369019221
-0.3553528831 0.1184509610 0.1184509610
-0.2369019221 0.2369019221 0.0000000000
-0.1184509610 0.3553528831 -0.1184509610
-0.0000000000 0.4738038442 -0.2369019221
0.1184509610 0.5922548052 -0.3553528831
-0.4738038442 -0.2369019221 0.4738038442
-0.3553528831 -0.1184509610 0.3553528831
-0.2369019221 -0.0000000000 0.2369019221
-0.1184509610 0.1184509610 0.1184509610
0.0000000000 0.2369019221 0.0000000000
0.1184509610 0.3553528831 -0.1184509610
0.2369019221 0.4738038442 -0.2369019221
-0.3553528831 -0.3553528831 0.5922548052
-0.2369019221 -0.2369019221 0.4738038442
-0.1184509610 -0.1184509610 0.3553528831
0.0000000000 -0.0000000000 0.2369019221
0.1184509610 0.1184509610 0.1184509610
0.2369019221 0.2369019221 0.0000000000
0.3553528831 0.3553528831 -0.1184509610
-0.2369019221 -0.4738038442 0.7107057663
-0.1184509610 -0.3553528831 0.5922548052
0.0000000000 -0.2369019221 0.4738038442
0.1184509610 -0.1184509610 0.3553528831
0.2369019221 -0.0000000000 0.2369019221
0.3553528831 0.1184509610 0.1184509610
0.4738038442 0.2369019221 0.0000000000
-0.1184509610 -0.5922548052 0.8291567273
0.0000000000 -0.4738038442 0.7107057663
0.1184509610 -0.3553528831 0.5922548052
0.2369019221 -0.2369019221 0.4738038442
0.3553528831 -0.1184509610 0.3553528831
0.4738038442 -0.0000000000 0.2369019221
0.5922548052 0.1184509610 0.1184509610
-0.9476076883 0.2369019221 0.2369019221
-0.8291567273 0.3553528831 0.1184509610
-0.7107057663 0.4738038442 0.0000000000
-0.5922548052 0.5922548052 -0.1184509610
-0.4738038442 0.7107057663 -0.2369019221
-0.3553528831 0.8291567273 -0.3553528831
-0.2369019221 0.9476076883 -0.4738038442
-0.8291567273 0.1184509610 0.3553528831
-0.7107057663 0.2369019221 0.2369019221
-0.5922548052 0.3553528831 0.1184509610
-0.4738038442 0.4738038442 0.0000000000
-0.3553528831 0.5922548052 -0.1184509610
-0.2369019221 0.7107057663 -0.2369019221
-0.1184509610 0.8291567273 -0.3553528831
-0.7107057663 -0.0000000000 0.4738038442
-0.5922548052 0.1184509610 0.3553528831
-0.4738038442 0.2369019221 0.2369019221
-0.3553528831 0.3553528831 0.1184509610
-0.2369019221 0.4738038442 0.0000000000
-0.1184509610 0.5922548052 -0.1184509610
0.0000000000 0.7107057663 -0.2369019221
-0.5922548052 -0.1184509610 0.5922548052
-0.4738038442 -0.0000000000 0.4738038442
-0.3553528831 0.1184509610 0.3553528831
-0.2369019221 0.2369019221 0.2369019221
-0.1184509610 0.3553528831 0.1184509610
0.0000000000 0.4738038442 0.0000000000
0.1184509610 0.5922548052 -0.1184509610
-0.4738038442 -0.2369019221 0.7107057663
-0.3553528831 -0.1184509610 0.5922548052
-0.2369019221 -0.0000000000 0.4738038442
-0.1184509610 0.1184509610 0.3553528831
0.0000000000 0.2369019221 0.2369019221
0.1184509610 0.3553528831 0.1184509610
0.2369019221 0.4738038442 0.0000000000
-0.3553528831 -0.3553528831 0.8291567273
-0.2369019221 -0.2369019221 0.7107057663
-0.1184509610 -0.1184509610 0.5922548052
0.0000000000 -0.0000000000 0.4738038442
0.1184509610 0.1184509610 0.3553528831
0.2369019221 0.2369019221 0.2369019221
0.3553528831 0.3553528831 0.1184509610
-0.2369019221 -0.4738038442 0.9476076883
-0.1184509610 -0.3553528831 0.8291567273
0.0000000000 -0.2369019221 0.7107057663
0.1184509610 -0.1184509610 0.5922548052
0.2369019221 -0.0000000000 0.4738038442
0.3553528831 0.1184509610 0.3553528831
0.4738038442 0.2369019221 0.2369019221
-1.0660586494 0.3553528831 0.3553528831
-0.9476076883 0.4738038442 0.2369019221
-0.8291567273 0.5922548052 0.1184509610
-0.7107057663 0.7107057663 0.0000000000
-0.5922548052 0.8291567273 -0.1184509610
-0.4738038442 0.9476076883 -0.2369019221
-0.3553528831 1.0660586494 -0.3553528831
-0.9476076883 0.2369019221 0.4738038442
-0.8291567273 0.3553528831 0.3553528831
-0.7107057663 0.4738038442 0.2369019221
-0.5922548052 0.5922548052 0.1184509610
-0.4738038442 0.7107057663 0.0000000000
-0.3553528831 0.8291567273 -0.1184509610
-0.2369019221 0.9476076883 -0.2369019221
-0.8291567273 0.1184509610 0.5922548052
-0.7107057663 0.2369019221 0.4738038442
-0.5922548052 0.3553528831 0.3553528831
-0.4738038442 0.4738038442 0.2369019221
-0.3553528831 0.5922548052 0.1184509610
-0.2369019221 0.7107057663 0.0000000000
-0.1184509610 0.8291567273 -0.1184509610
-0.7107057663 -0.0000000000 0.7107057663
-0.5922548052 0.1184509610 0.5922548052
-0.4738038442 0.2369019221 0.4738038442
-0.3553528831 0.3553528831 0.3553528831
-0.2369019221 0.4738038442 0.2369019221
-0.1184509610 0.5922548052 0.1184509610
0.0000000000 0.7107057663 0.0000000000
-0.5922548052 -0.1184509610 0.8291567273
-0.4738038442 -0.0000000000 0.7107057663
-0.3553528831 0.1184509610 0.5922548052
-0.2369019221 0.2369019221 0.4738038442
-0.1184509610 0.3553528831 0.3553528831
0.0000000000 0.4738038442 0.2369019221
0.1184509610 0.5922548052 0.1184509610
-0.4738038442 -0.2369019221 0.9476076883
-0.3553528831 -0.1184509610 0.8291567273
-0.2369019221 -0.0000000000 0.7107057663
-0.1184509610 0.1184509610 0.5922548052
0.0000000000 0.2369019221 0.4738038442
0.1184509610 0.3553528831 0.3553528831
0.2369019221 0.4738038442 0.2369019221
-0.3553528831 -0.3553528831 1.0660586494
-0.2369019221 -0.2369019221 0.9476076883
-0.1184509610 -0.1184509610 0.8291567273
0.0000000000 -0.0000000000 0.7107057663
0.1184509610 0.1184509610 0.5922548052
0.2369019221 0.2369019221 0.4738038442
0.3553528831 0.3553528831 0.3553528831
 There are 6 alpha and 6 beta electrons
 Start computing overlap matrix
 Allocate 2903152 B from available memory: 104857467232 B
 Time for computing overlap matrix: 16.6360000000 s
 ====== Initialize compute kernels for all-electron RI-J (kpts) ====== 
 ========================================================== 
 Range-separated parameter omega        = 0.299999999999999989
 Threshold for 1e2c shellpair           = 0.000000000000010000
 Threshold for 2e2c SR integral         = 0.000000000000000001
 Threshold for 2e3c SR integral         = 0.000000000100000000
 Threshold for AFT G-space screening is = 0.000000000001000000
 The exponent cutoff for C/D classification (omega2 / 2) is  = 0.044999999999999998
 ========================================================== 
 === Post process the basis set for RI calculation (exp_cutoff = 0.044999999999999998 ) === 
nshells_b1 before uncontraction = 11
nshells_b1 after uncontraction = 11
nshells_baux before uncontraction = 28
nshells_baux after uncontraction = 28
===============================================
nbsf total   = 23
nbsf compact = 22
nbsf diffuse = 1
naux total   = 96
naux compact = 96
naux diffuse = 0
nshells_bnuc = 2

 Number of unique atoms is 2
 Unique atom #0 (li) has 4 shells.
 Unique atom #1 (f) has 6 shells.

Shell 0 to 3 belongs to atom li
Shell 4 to 9 belongs to atom f

 Number of unique atoms is 2
 Unique atom #0 (li) has 1 shells.
 Unique atom #1 (f) has 0 shells.

Shell 0 to 0 belongs to atom li

 Number of unique atom is 2
 Unique atom #0 (li) has 13 auxiliary shells.
 Unique atom #1 (f) has 15 auxiliary shells.

Auxiliary Shell 0 to 12 belongs to atom li
Auxiliary Shell 13 to 27 belongs to atom f

================= Automatically determine grid size for reciprocal space summation =================
 Range-separated parameter = 0.30000000000000 and G-space screening threshold = 0.00000000000100
The number of grid points along each axis dimension is (3, 3, 3)
Total number of grid points = 343

Use nonortho shellpair for diffuse density
======== Initializing relevant kernel for RIJ (DD type) ========
There are 1 shellpairs in the reference unit cell
There are 21427 images and we expect to have 21427 in total
There are 4729 shellpairs in the lattice sum after screening
======== Initializing relevant kernel for RIJ (CD type) ========
There are 10 shellpairs in the reference unit cell
There are 13667 images and we expect to have 136670 in total
There are 21864 shellpairs in the lattice sum after screening
****** AFT -> SR ******
Maximum bra distance cutoff is 41.000000000000
Maximum bra ket distance cutoff is 34.208128487920
Maximum bra ket screening distance is 31.593750000000
Number of auxiliary image is 4461
There are 10 shellpairs in the reference unit cell
There are 4461 images and we expect to have 44610 in total
There are 21864 shellpairs in the lattice sum after screening
Available memory per thread for 2e3c calculation is 3.276705128000Gb
Finish initializing 2e3c SR with the lattice sum!
=================================================
======== Initializing relevant kernel for RIJ (CC type) ========
There are 55 shellpairs in the reference unit cell
There are 6903 images and we expect to have 379665 in total
There are 11499 shellpairs in the lattice sum after screening
****** AFT -> SR ******
Maximum bra distance cutoff is 32.000000000000
Maximum bra ket distance cutoff is 36.894813320391
Maximum bra ket screening distance is 29.468750000000
Number of auxiliary image is 3451
There are 55 shellpairs in the reference unit cell
There are 2395 images and we expect to have 131725 in total
There are 11499 shellpairs in the lattice sum after screening
Available memory per thread for 2e3c calculation is 3.276705128000Gb
Finish initializing 2e3c SR with the lattice sum!
=================================================
======== Initializing the SR component for Vnuc (CD type) ========
Maximum bra distance cutoff is 41.000000000000
Maximum bra ket distance cutoff is 27.871801390530
Maximum bra ket screening distance is 25.217397847202
Number of auxiliary image is 4461
There are 10 shellpairs in the reference unit cell
There are 4461 images and we expect to have 44610 in total
There are 21864 shellpairs in the lattice sum after screening
Available memory per thread for 2e3c calculation is 3.276705128000Gb
Finish initializing 2e3c SR with the lattice sum!
=================================================
======== Initialize the SR component for Vnuc (CC type) ========
Maximum bra distance cutoff is 32.000000000000
Maximum bra ket distance cutoff is 30.447647261700
Maximum bra ket screening distance is 23.012543116583
Number of auxiliary image is 2395
There are 55 shellpairs in the reference unit cell
There are 2395 images and we expect to have 131725 in total
There are 11499 shellpairs in the lattice sum after screening
Available memory per thread for 2e3c calculation is 3.276705128000Gb
Finish initializing 2e3c SR with the lattice sum!
=================================================
 Aufbau occupation scheme, occupation determined by eigenvalue
 == 0-th k-point nmo = 22 (-0.35535,-0.35535,-0.35535) ==
 == 1-th k-point nmo = 22 (-0.23690,-0.23690,-0.47380) ==
 == 2-th k-point nmo = 22 (-0.11845,-0.11845,-0.59225) ==
 == 3-th k-point nmo = 22 (-0.00000,0.00000,-0.71071) ==
 == 4-th k-point nmo = 22 (0.11845,0.11845,-0.82916) ==
 == 5-th k-point nmo = 22 (0.23690,0.23690,-0.94761) ==
 == 6-th k-point nmo = 22 (0.35535,0.35535,-1.06606) ==
 == 7-th k-point nmo = 22 (-0.23690,-0.47380,-0.23690) ==
 == 8-th k-point nmo = 22 (-0.11845,-0.35535,-0.35535) ==
 == 9-th k-point nmo = 22 (-0.00000,-0.23690,-0.47380) ==
 == 10-th k-point nmo = 22 (0.11845,-0.11845,-0.59225) ==
 == 11-th k-point nmo = 22 (0.23690,0.00000,-0.71071) ==
 == 12-th k-point nmo = 22 (0.35535,0.11845,-0.82916) ==
 == 13-th k-point nmo = 22 (0.47380,0.23690,-0.94761) ==
 == 14-th k-point nmo = 22 (-0.11845,-0.59225,-0.11845) ==
 == 15-th k-point nmo = 22 (-0.00000,-0.47380,-0.23690) ==
 == 16-th k-point nmo = 22 (0.11845,-0.35535,-0.35535) ==
 == 17-th k-point nmo = 22 (0.23690,-0.23690,-0.47380) ==
 == 18-th k-point nmo = 22 (0.35535,-0.11845,-0.59225) ==
 == 19-th k-point nmo = 22 (0.47380,0.00000,-0.71071) ==
 == 20-th k-point nmo = 22 (0.59225,0.11845,-0.82916) ==
 == 21-th k-point nmo = 22 (-0.00000,-0.71071,-0.00000) ==
 == 22-th k-point nmo = 22 (0.11845,-0.59225,-0.11845) ==
 == 23-th k-point nmo = 22 (0.23690,-0.47380,-0.23690) ==
 == 24-th k-point nmo = 22 (0.35535,-0.35535,-0.35535) ==
 == 25-th k-point nmo = 22 (0.47380,-0.23690,-0.47380) ==
 == 26-th k-point nmo = 22 (0.59225,-0.11845,-0.59225) ==
 == 27-th k-point nmo = 22 (0.71071,0.00000,-0.71071) ==
 == 28-th k-point nmo = 22 (0.11845,-0.82916,0.11845) ==
 == 29-th k-point nmo = 22 (0.23690,-0.71071,-0.00000) ==
 == 30-th k-point nmo = 22 (0.35535,-0.59225,-0.11845) ==
 == 31-th k-point nmo = 22 (0.47380,-0.47380,-0.23690) ==
 == 32-th k-point nmo = 22 (0.59225,-0.35535,-0.35535) ==
 == 33-th k-point nmo = 22 (0.71071,-0.23690,-0.47380) ==
 == 34-th k-point nmo = 22 (0.82916,-0.11845,-0.59225) ==
 == 35-th k-point nmo = 22 (0.23690,-0.94761,0.23690) ==
 == 36-th k-point nmo = 22 (0.35535,-0.82916,0.11845) ==
 == 37-th k-point nmo = 22 (0.47380,-0.71071,-0.00000) ==
 == 38-th k-point nmo = 22 (0.59225,-0.59225,-0.11845) ==
 == 39-th k-point nmo = 22 (0.71071,-0.47380,-0.23690) ==
 == 40-th k-point nmo = 22 (0.82916,-0.35535,-0.35535) ==
 == 41-th k-point nmo = 22 (0.94761,-0.23690,-0.47380) ==
 == 42-th k-point nmo = 22 (0.35535,-1.06606,0.35535) ==
 == 43-th k-point nmo = 22 (0.47380,-0.94761,0.23690) ==
 == 44-th k-point nmo = 22 (0.59225,-0.82916,0.11845) ==
 == 45-th k-point nmo = 22 (0.71071,-0.71071,-0.00000) ==
 == 46-th k-point nmo = 22 (0.82916,-0.59225,-0.11845) ==
 == 47-th k-point nmo = 22 (0.94761,-0.47380,-0.23690) ==
 == 48-th k-point nmo = 22 (1.06606,-0.35535,-0.35535) ==
 == 49-th k-point nmo = 22 (-0.47380,-0.23690,-0.23690) ==
 == 50-th k-point nmo = 22 (-0.35535,-0.11845,-0.35535) ==
 == 51-th k-point nmo = 22 (-0.23690,0.00000,-0.47380) ==
 == 52-th k-point nmo = 22 (-0.11845,0.11845,-0.59225) ==
 == 53-th k-point nmo = 22 (-0.00000,0.23690,-0.71071) ==
 == 54-th k-point nmo = 22 (0.11845,0.35535,-0.82916) ==
 == 55-th k-point nmo = 22 (0.23690,0.47380,-0.94761) ==
 == 56-th k-point nmo = 22 (-0.35535,-0.35535,-0.11845) ==
 == 57-th k-point nmo = 22 (-0.23690,-0.23690,-0.23690) ==
 == 58-th k-point nmo = 22 (-0.11845,-0.11845,-0.35535) ==
 == 59-th k-point nmo = 22 (-0.00000,0.00000,-0.47380) ==
 == 60-th k-point nmo = 22 (0.11845,0.11845,-0.59225) ==
 == 61-th k-point nmo = 22 (0.23690,0.23690,-0.71071) ==
 == 62-th k-point nmo = 22 (0.35535,0.35535,-0.82916) ==
 == 63-th k-point nmo = 22 (-0.23690,-0.47380,-0.00000) ==
 == 64-th k-point nmo = 22 (-0.11845,-0.35535,-0.11845) ==
 == 65-th k-point nmo = 22 (-0.00000,-0.23690,-0.23690) ==
 == 66-th k-point nmo = 22 (0.11845,-0.11845,-0.35535) ==
 == 67-th k-point nmo = 22 (0.23690,0.00000,-0.47380) ==
 == 68-th k-point nmo = 22 (0.35535,0.11845,-0.59225) ==
 == 69-th k-point nmo = 22 (0.47380,0.23690,-0.71071) ==
 == 70-th k-point nmo = 22 (-0.11845,-0.59225,0.11845) ==
 == 71-th k-point nmo = 22 (-0.00000,-0.47380,-0.00000) ==
 == 72-th k-point nmo = 22 (0.11845,-0.35535,-0.11845) ==
 == 73-th k-point nmo = 22 (0.23690,-0.23690,-0.23690) ==
 == 74-th k-point nmo = 22 (0.35535,-0.11845,-0.35535) ==
 == 75-th k-point nmo = 22 (0.47380,0.00000,-0.47380) ==
 == 76-th k-point nmo = 22 (0.59225,0.11845,-0.59225) ==
 == 77-th k-point nmo = 22 (0.00000,-0.71071,0.23690) ==
 == 78-th k-point nmo = 22 (0.11845,-0.59225,0.11845) ==
 == 79-th k-point nmo = 22 (0.23690,-0.47380,-0.00000) ==
 == 80-th k-point nmo = 22 (0.35535,-0.35535,-0.11845) ==
 == 81-th k-point nmo = 22 (0.47380,-0.23690,-0.23690) ==
 == 82-th k-point nmo = 22 (0.59225,-0.11845,-0.35535) ==
 == 83-th k-point nmo = 22 (0.71071,0.00000,-0.47380) ==
 == 84-th k-point nmo = 22 (0.11845,-0.82916,0.35535) ==
 == 85-th k-point nmo = 22 (0.23690,-0.71071,0.23690) ==
 == 86-th k-point nmo = 22 (0.35535,-0.59225,0.11845) ==
 == 87-th k-point nmo = 22 (0.47380,-0.47380,-0.00000) ==
 == 88-th k-point nmo = 22 (0.59225,-0.35535,-0.11845) ==
 == 89-th k-point nmo = 22 (0.71071,-0.23690,-0.23690) ==
 == 90-th k-point nmo = 22 (0.82916,-0.11845,-0.35535) ==
 == 91-th k-point nmo = 22 (0.23690,-0.94761,0.47380) ==
 == 92-th k-point nmo = 22 (0.35535,-0.82916,0.35535) ==
 == 93-th k-point nmo = 22 (0.47380,-0.71071,0.23690) ==
 == 94-th k-point nmo = 22 (0.59225,-0.59225,0.11845) ==
 == 95-th k-point nmo = 22 (0.71071,-0.47380,-0.00000) ==
 == 96-th k-point nmo = 22 (0.82916,-0.35535,-0.11845) ==
 == 97-th k-point nmo = 22 (0.94761,-0.23690,-0.23690) ==
 == 98-th k-point nmo = 22 (-0.59225,-0.11845,-0.11845) ==
 == 99-th k-point nmo = 22 (-0.47380,0.00000,-0.23690) ==
 == 100-th k-point nmo = 22 (-0.35535,0.11845,-0.35535) ==
 == 101-th k-point nmo = 22 (-0.23690,0.23690,-0.47380) ==
 == 102-th k-point nmo = 22 (-0.11845,0.35535,-0.59225) ==
 == 103-th k-point nmo = 22 (-0.00000,0.47380,-0.71071) ==
 == 104-th k-point nmo = 22 (0.11845,0.59225,-0.82916) ==
 == 105-th k-point nmo = 22 (-0.47380,-0.23690,-0.00000) ==
 == 106-th k-point nmo = 22 (-0.35535,-0.11845,-0.11845) ==
 == 107-th k-point nmo = 22 (-0.23690,0.00000,-0.23690) ==
 == 108-th k-point nmo = 22 (-0.11845,0.11845,-0.35535) ==
 == 109-th k-point nmo = 22 (-0.00000,0.23690,-0.47380) ==
 == 110-th k-point nmo = 22 (0.11845,0.35535,-0.59225) ==
 == 111-th k-point nmo = 22 (0.23690,0.47380,-0.71071) ==
 == 112-th k-point nmo = 22 (-0.35535,-0.35535,0.11845) ==
 == 113-th k-point nmo = 22 (-0.23690,-0.23690,-0.00000) ==
 == 114-th k-point nmo = 22 (-0.11845,-0.11845,-0.11845) ==
 == 115-th k-point nmo = 22 (-0.00000,0.00000,-0.23690) ==
 == 116-th k-point nmo = 22 (0.11845,0.11845,-0.35535) ==
 == 117-th k-point nmo = 22 (0.23690,0.23690,-0.47380) ==
 == 118-th k-point nmo = 22 (0.35535,0.35535,-0.59225) ==
 == 119-th k-point nmo = 22 (-0.23690,-0.47380,0.23690) ==
 == 120-th k-point nmo = 22 (-0.11845,-0.35535,0.11845) ==
 == 121-th k-point nmo = 22 (-0.00000,-0.23690,-0.00000) ==
 == 122-th k-point nmo = 22 (0.11845,-0.11845,-0.11845) ==
 == 123-th k-point nmo = 22 (0.23690,0.00000,-0.23690) ==
 == 124-th k-point nmo = 22 (0.35535,0.11845,-0.35535) ==
 == 125-th k-point nmo = 22 (0.47380,0.23690,-0.47380) ==
 == 126-th k-point nmo = 22 (-0.11845,-0.59225,0.35535) ==
 == 127-th k-point nmo = 22 (0.00000,-0.47380,0.23690) ==
 == 128-th k-point nmo = 22 (0.11845,-0.35535,0.11845) ==
 == 129-th k-point nmo = 22 (0.23690,-0.23690,-0.00000) ==
 == 130-th k-point nmo = 22 (0.35535,-0.11845,-0.11845) ==
 == 131-th k-point nmo = 22 (0.47380,0.00000,-0.23690) ==
 == 132-th k-point nmo = 22 (0.59225,0.11845,-0.35535) ==
 == 133-th k-point nmo = 22 (0.00000,-0.71071,0.47380) ==
 == 134-th k-point nmo = 22 (0.11845,-0.59225,0.35535) ==
 == 135-th k-point nmo = 22 (0.23690,-0.47380,0.23690) ==
 == 136-th k-point nmo = 22 (0.35535,-0.35535,0.11845) ==
 == 137-th k-point nmo = 22 (0.47380,-0.23690,-0.00000) ==
 == 138-th k-point nmo = 22 (0.59225,-0.11845,-0.11845) ==
 == 139-th k-point nmo = 22 (0.71071,0.00000,-0.23690) ==
 == 140-th k-point nmo = 22 (0.11845,-0.82916,0.59225) ==
 == 141-th k-point nmo = 22 (0.23690,-0.71071,0.47380) ==
 == 142-th k-point nmo = 22 (0.35535,-0.59225,0.35535) ==
 == 143-th k-point nmo = 22 (0.47380,-0.47380,0.23690) ==
 == 144-th k-point nmo = 22 (0.59225,-0.35535,0.11845) ==
 == 145-th k-point nmo = 22 (0.71071,-0.23690,-0.00000) ==
 == 146-th k-point nmo = 22 (0.82916,-0.11845,-0.11845) ==
 == 147-th k-point nmo = 22 (-0.71071,0.00000,0.00000) ==
 == 148-th k-point nmo = 22 (-0.59225,0.11845,-0.11845) ==
 == 149-th k-point nmo = 22 (-0.47380,0.23690,-0.23690) ==
 == 150-th k-point nmo = 22 (-0.35535,0.35535,-0.35535) ==
 == 151-th k-point nmo = 22 (-0.23690,0.47380,-0.47380) ==
 == 152-th k-point nmo = 22 (-0.11845,0.59225,-0.59225) ==
 == 153-th k-point nmo = 22 (-0.00000,0.71071,-0.71071) ==
 == 154-th k-point nmo = 22 (-0.59225,-0.11845,0.11845) ==
 == 155-th k-point nmo = 22 (-0.47380,0.00000,0.00000) ==
 == 156-th k-point nmo = 22 (-0.35535,0.11845,-0.11845) ==
 == 157-th k-point nmo = 22 (-0.23690,0.23690,-0.23690) ==
 == 158-th k-point nmo = 22 (-0.11845,0.35535,-0.35535) ==
 == 159-th k-point nmo = 22 (-0.00000,0.47380,-0.47380) ==
 == 160-th k-point nmo = 22 (0.11845,0.59225,-0.59225) ==
 == 161-th k-point nmo = 22 (-0.47380,-0.23690,0.23690) ==
 == 162-th k-point nmo = 22 (-0.35535,-0.11845,0.11845) ==
 == 163-th k-point nmo = 22 (-0.23690,0.00000,0.00000) ==
 == 164-th k-point nmo = 22 (-0.11845,0.11845,-0.11845) ==
 == 165-th k-point nmo = 22 (-0.00000,0.23690,-0.23690) ==
 == 166-th k-point nmo = 22 (0.11845,0.35535,-0.35535) ==
 == 167-th k-point nmo = 22 (0.23690,0.47380,-0.47380) ==
 == 168-th k-point nmo = 22 (-0.35535,-0.35535,0.35535) ==
 == 169-th k-point nmo = 22 (-0.23690,-0.23690,0.23690) ==
 == 170-th k-point nmo = 22 (-0.11845,-0.11845,0.11845) ==
 == 171-th k-point nmo = 22 (0.00000,0.00000,0.00000) ==
 == 172-th k-point nmo = 22 (0.11845,0.11845,-0.11845) ==
 == 173-th k-point nmo = 22 (0.23690,0.23690,-0.23690) ==
 == 174-th k-point nmo = 22 (0.35535,0.35535,-0.35535) ==
 == 175-th k-point nmo = 22 (-0.23690,-0.47380,0.47380) ==
 == 176-th k-point nmo = 22 (-0.11845,-0.35535,0.35535) ==
 == 177-th k-point nmo = 22 (0.00000,-0.23690,0.23690) ==
 == 178-th k-point nmo = 22 (0.11845,-0.11845,0.11845) ==
 == 179-th k-point nmo = 22 (0.23690,-0.00000,0.00000) ==
 == 180-th k-point nmo = 22 (0.35535,0.11845,-0.11845) ==
 == 181-th k-point nmo = 22 (0.47380,0.23690,-0.23690) ==
 == 182-th k-point nmo = 22 (-0.11845,-0.59225,0.59225) ==
 == 183-th k-point nmo = 22 (0.00000,-0.47380,0.47380) ==
 == 184-th k-point nmo = 22 (0.11845,-0.35535,0.35535) ==
 == 185-th k-point nmo = 22 (0.23690,-0.23690,0.23690) ==
 == 186-th k-point nmo = 22 (0.35535,-0.11845,0.11845) ==
 == 187-th k-point nmo = 22 (0.47380,-0.00000,0.00000) ==
 == 188-th k-point nmo = 22 (0.59225,0.11845,-0.11845) ==
 == 189-th k-point nmo = 22 (0.00000,-0.71071,0.71071) ==
 == 190-th k-point nmo = 22 (0.11845,-0.59225,0.59225) ==
 == 191-th k-point nmo = 22 (0.23690,-0.47380,0.47380) ==
 == 192-th k-point nmo = 22 (0.35535,-0.35535,0.35535) ==
 == 193-th k-point nmo = 22 (0.47380,-0.23690,0.23690) ==
 == 194-th k-point nmo = 22 (0.59225,-0.11845,0.11845) ==
 == 195-th k-point nmo = 22 (0.71071,-0.00000,0.00000) ==
 == 196-th k-point nmo = 22 (-0.82916,0.11845,0.11845) ==
 == 197-th k-point nmo = 22 (-0.71071,0.23690,0.00000) ==
 == 198-th k-point nmo = 22 (-0.59225,0.35535,-0.11845) ==
 == 199-th k-point nmo = 22 (-0.47380,0.47380,-0.23690) ==
 == 200-th k-point nmo = 22 (-0.35535,0.59225,-0.35535) ==
 == 201-th k-point nmo = 22 (-0.23690,0.71071,-0.47380) ==
 == 202-th k-point nmo = 22 (-0.11845,0.82916,-0.59225) ==
 == 203-th k-point nmo = 22 (-0.71071,0.00000,0.23690) ==
 == 204-th k-point nmo = 22 (-0.59225,0.11845,0.11845) ==
 == 205-th k-point nmo = 22 (-0.47380,0.23690,0.00000) ==
 == 206-th k-point nmo = 22 (-0.35535,0.35535,-0.11845) ==
 == 207-th k-point nmo = 22 (-0.23690,0.47380,-0.23690) ==
 == 208-th k-point nmo = 22 (-0.11845,0.59225,-0.35535) ==
 == 209-th k-point nmo = 22 (-0.00000,0.71071,-0.47380) ==
 == 210-th k-point nmo = 22 (-0.59225,-0.11845,0.35535) ==
 == 211-th k-point nmo = 22 (-0.47380,-0.00000,0.23690) ==
 == 212-th k-point nmo = 22 (-0.35535,0.11845,0.11845) ==
 == 213-th k-point nmo = 22 (-0.23690,0.23690,0.00000) ==
 == 214-th k-point nmo = 22 (-0.11845,0.35535,-0.11845) ==
 == 215-th k-point nmo = 22 (-0.00000,0.47380,-0.23690) ==
 == 216-th k-point nmo = 22 (0.11845,0.59225,-0.35535) ==
 == 217-th k-point nmo = 22 (-0.47380,-0.23690,0.47380) ==
 == 218-th k-point nmo = 22 (-0.35535,-0.11845,0.35535) ==
 == 219-th k-point nmo = 22 (-0.23690,-0.00000,0.23690) ==
 == 220-th k-point nmo = 22 (-0.11845,0.11845,0.11845) ==
 == 221-th k-point nmo = 22 (0.00000,0.23690,0.00000) ==
 == 222-th k-point nmo = 22 (0.11845,0.35535,-0.11845) ==
 == 223-th k-point nmo = 22 (0.23690,0.47380,-0.23690) ==
 == 224-th k-point nmo = 22 (-0.35535,-0.35535,0.59225) ==
 == 225-th k-point nmo = 22 (-0.23690,-0.23690,0.47380) ==
 == 226-th k-point nmo = 22 (-0.11845,-0.11845,0.35535) ==
 == 227-th k-point nmo = 22 (0.00000,-0.00000,0.23690) ==
 == 228-th k-point nmo = 22 (0.11845,0.11845,0.11845) ==
 == 229-th k-point nmo = 22 (0.23690,0.23690,0.00000) ==
 == 230-th k-point nmo = 22 (0.35535,0.35535,-0.11845) ==
 == 231-th k-point nmo = 22 (-0.23690,-0.47380,0.71071) ==
 == 232-th k-point nmo = 22 (-0.11845,-0.35535,0.59225) ==
 == 233-th k-point nmo = 22 (0.00000,-0.23690,0.47380) ==
 == 234-th k-point nmo = 22 (0.11845,-0.11845,0.35535) ==
 == 235-th k-point nmo = 22 (0.23690,-0.00000,0.23690) ==
 == 236-th k-point nmo = 22 (0.35535,0.11845,0.11845) ==
 == 237-th k-point nmo = 22 (0.47380,0.23690,0.00000) ==
 == 238-th k-point nmo = 22 (-0.11845,-0.59225,0.82916) ==
 == 239-th k-point nmo = 22 (0.00000,-0.47380,0.71071) ==
 == 240-th k-point nmo = 22 (0.11845,-0.35535,0.59225) ==
 == 241-th k-point nmo = 22 (0.23690,-0.23690,0.47380) ==
 == 242-th k-point nmo = 22 (0.35535,-0.11845,0.35535) ==
 == 243-th k-point nmo = 22 (0.47380,-0.00000,0.23690) ==
 == 244-th k-point nmo = 22 (0.59225,0.11845,0.11845) ==
 == 245-th k-point nmo = 22 (-0.94761,0.23690,0.23690) ==
 == 246-th k-point nmo = 22 (-0.82916,0.35535,0.11845) ==
 == 247-th k-point nmo = 22 (-0.71071,0.47380,0.00000) ==
 == 248-th k-point nmo = 22 (-0.59225,0.59225,-0.11845) ==
 == 249-th k-point nmo = 22 (-0.47380,0.71071,-0.23690) ==
 == 250-th k-point nmo = 22 (-0.35535,0.82916,-0.35535) ==
 == 251-th k-point nmo = 22 (-0.23690,0.94761,-0.47380) ==
 == 252-th k-point nmo = 22 (-0.82916,0.11845,0.35535) ==
 == 253-th k-point nmo = 22 (-0.71071,0.23690,0.23690) ==
 == 254-th k-point nmo = 22 (-0.59225,0.35535,0.11845) ==
 == 255-th k-point nmo = 22 (-0.47380,0.47380,0.00000) ==
 == 256-th k-point nmo = 22 (-0.35535,0.59225,-0.11845) ==
 == 257-th k-point nmo = 22 (-0.23690,0.71071,-0.23690) ==
 == 258-th k-point nmo = 22 (-0.11845,0.82916,-0.35535) ==
 == 259-th k-point nmo = 22 (-0.71071,-0.00000,0.47380) ==
 == 260-th k-point nmo = 22 (-0.59225,0.11845,0.35535) ==
 == 261-th k-point nmo = 22 (-0.47380,0.23690,0.23690) ==
 == 262-th k-point nmo = 22 (-0.35535,0.35535,0.11845) ==
 == 263-th k-point nmo = 22 (-0.23690,0.47380,0.00000) ==
 == 264-th k-point nmo = 22 (-0.11845,0.59225,-0.11845) ==
 == 265-th k-point nmo = 22 (0.00000,0.71071,-0.23690) ==
 == 266-th k-point nmo = 22 (-0.59225,-0.11845,0.59225) ==
 == 267-th k-point nmo = 22 (-0.47380,-0.00000,0.47380) ==
 == 268-th k-point nmo = 22 (-0.35535,0.11845,0.35535) ==
 == 269-th k-point nmo = 22 (-0.23690,0.23690,0.23690) ==
 == 270-th k-point nmo = 22 (-0.11845,0.35535,0.11845) ==
 == 271-th k-point nmo = 22 (0.00000,0.47380,0.00000) ==
 == 272-th k-point nmo = 22 (0.11845,0.59225,-0.11845) ==
 == 273-th k-point nmo = 22 (-0.47380,-0.23690,0.71071) ==
 == 274-th k-point nmo = 22 (-0.35535,-0.11845,0.59225) ==
 == 275-th k-point nmo = 22 (-0.23690,-0.00000,0.47380) ==
 == 276-th k-point nmo = 22 (-0.11845,0.11845,0.35535) ==
 == 277-th k-point nmo = 22 (0.00000,0.23690,0.23690) ==
 == 278-th k-point nmo = 22 (0.11845,0.35535,0.11845) ==
 == 279-th k-point nmo = 22 (0.23690,0.47380,0.00000) ==
 == 280-th k-point nmo = 22 (-0.35535,-0.35535,0.82916) ==
 == 281-th k-point nmo = 22 (-0.23690,-0.23690,0.71071) ==
 == 282-th k-point nmo = 22 (-0.11845,-0.11845,0.59225) ==
 == 283-th k-point nmo = 22 (0.00000,-0.00000,0.47380) ==
 == 284-th k-point nmo = 22 (0.11845,0.11845,0.35535) ==
 == 285-th k-point nmo = 22 (0.23690,0.23690,0.23690) ==
 == 286-th k-point nmo = 22 (0.35535,0.35535,0.11845) ==
 == 287-th k-point nmo = 22 (-0.23690,-0.47380,0.94761) ==
 == 288-th k-point nmo = 22 (-0.11845,-0.35535,0.82916) ==
 == 289-th k-point nmo = 22 (0.00000,-0.23690,0.71071) ==
 == 290-th k-point nmo = 22 (0.11845,-0.11845,0.59225) ==
 == 291-th k-point nmo = 22 (0.23690,-0.00000,0.47380) ==
 == 292-th k-point nmo = 22 (0.35535,0.11845,0.35535) ==
 == 293-th k-point nmo = 22 (0.47380,0.23690,0.23690) ==
 == 294-th k-point nmo = 22 (-1.06606,0.35535,0.35535) ==
 == 295-th k-point nmo = 22 (-0.94761,0.47380,0.23690) ==
 == 296-th k-point nmo = 22 (-0.82916,0.59225,0.11845) ==
 == 297-th k-point nmo = 22 (-0.71071,0.71071,0.00000) ==
 == 298-th k-point nmo = 22 (-0.59225,0.82916,-0.11845) ==
 == 299-th k-point nmo = 22 (-0.47380,0.94761,-0.23690) ==
 == 300-th k-point nmo = 22 (-0.35535,1.06606,-0.35535) ==
 == 301-th k-point nmo = 22 (-0.94761,0.23690,0.47380) ==
 == 302-th k-point nmo = 22 (-0.82916,0.35535,0.35535) ==
 == 303-th k-point nmo = 22 (-0.71071,0.47380,0.23690) ==
 == 304-th k-point nmo = 22 (-0.59225,0.59225,0.11845) ==
 == 305-th k-point nmo = 22 (-0.47380,0.71071,0.00000) ==
 == 306-th k-point nmo = 22 (-0.35535,0.82916,-0.11845) ==
 == 307-th k-point nmo = 22 (-0.23690,0.94761,-0.23690) ==
 == 308-th k-point nmo = 22 (-0.82916,0.11845,0.59225) ==
 == 309-th k-point nmo = 22 (-0.71071,0.23690,0.47380) ==
 == 310-th k-point nmo = 22 (-0.59225,0.35535,0.35535) ==
 == 311-th k-point nmo = 22 (-0.47380,0.47380,0.23690) ==
 == 312-th k-point nmo = 22 (-0.35535,0.59225,0.11845) ==
 == 313-th k-point nmo = 22 (-0.23690,0.71071,0.00000) ==
 == 314-th k-point nmo = 22 (-0.11845,0.82916,-0.11845) ==
 == 315-th k-point nmo = 22 (-0.71071,-0.00000,0.71071) ==
 == 316-th k-point nmo = 22 (-0.59225,0.11845,0.59225) ==
 == 317-th k-point nmo = 22 (-0.47380,0.23690,0.47380) ==
 == 318-th k-point nmo = 22 (-0.35535,0.35535,0.35535) ==
 == 319-th k-point nmo = 22 (-0.23690,0.47380,0.23690) ==
 == 320-th k-point nmo = 22 (-0.11845,0.59225,0.11845) ==
 == 321-th k-point nmo = 22 (0.00000,0.71071,0.00000) ==
 == 322-th k-point nmo = 22 (-0.59225,-0.11845,0.82916) ==
 == 323-th k-point nmo = 22 (-0.47380,-0.00000,0.71071) ==
 == 324-th k-point nmo = 22 (-0.35535,0.11845,0.59225) ==
 == 325-th k-point nmo = 22 (-0.23690,0.23690,0.47380) ==
 == 326-th k-point nmo = 22 (-0.11845,0.35535,0.35535) ==
 == 327-th k-point nmo = 22 (0.00000,0.47380,0.23690) ==
 == 328-th k-point nmo = 22 (0.11845,0.59225,0.11845) ==
 == 329-th k-point nmo = 22 (-0.47380,-0.23690,0.94761) ==
 == 330-th k-point nmo = 22 (-0.35535,-0.11845,0.82916) ==
 == 331-th k-point nmo = 22 (-0.23690,-0.00000,0.71071) ==
 == 332-th k-point nmo = 22 (-0.11845,0.11845,0.59225) ==
 == 333-th k-point nmo = 22 (0.00000,0.23690,0.47380) ==
 == 334-th k-point nmo = 22 (0.11845,0.35535,0.35535) ==
 == 335-th k-point nmo = 22 (0.23690,0.47380,0.23690) ==
 == 336-th k-point nmo = 22 (-0.35535,-0.35535,1.06606) ==
 == 337-th k-point nmo = 22 (-0.23690,-0.23690,0.94761) ==
 == 338-th k-point nmo = 22 (-0.11845,-0.11845,0.82916) ==
 == 339-th k-point nmo = 22 (0.00000,-0.00000,0.71071) ==
 == 340-th k-point nmo = 22 (0.11845,0.11845,0.59225) ==
 == 341-th k-point nmo = 22 (0.23690,0.23690,0.47380) ==
 == 342-th k-point nmo = 22 (0.35535,0.35535,0.35535) ==

 Generate autoSAD guess
backing up fragment data
Atom # 0: li, charge: 0, multiplicity: 2.000000
Atom # 1: f, charge: 0, multiplicity: 2.000000
writing autosad to fragment context
Settings for isolated fragments: 
  frgm_gamma: TRUE
  frgm_center: FALSE

    Running SCF for isolated atom #0
    Fragment Input file: /n/netscratch/joonholee_lab/Lab/hieudinh//lif_solve_def2svp_omega_0.3_777.scratch20250909010612/autosad_frgmt_0/frgmt_input.in
    Fragment Output file: /n/netscratch/joonholee_lab/Lab/hieudinh//lif_solve_def2svp_omega_0.3_777.scratch20250909010612/autosad_frgmt_0/frgmt_job.out
    Fragment job begins at Tue Sep  9 01:06:32 2025

 Integrated density by DFT XC:
   Numerical integral  =     2.999999997939
   Relative error      =     0.0000000687 %
Final energy components:
 DFT Correlation            Energy =  -0.05129449360107
 DFT Exchange               Energy =  -1.75293492673808
 Kinetic (alpha)            Energy =   3.83698747219399
 Kinetic (beta)             Energy =   3.56502760489078
 Nuclear Attraction (alpha) Energy =  -9.10672143734249
 Nuclear Attraction (beta)  Energy =  -8.00006101932191
 Nuclear Repulsion          Energy =   0.00000000000000
 SEOQF                      Energy =  -0.00000000000000
 Total Coulomb              Energy =   4.05509638491418
----------------------------------------------
    SCF Energy: -7.4539004150
   Total fragment job time:  0.49 s.
    Running SCF for isolated atom #1
    Fragment Input file: /n/netscratch/joonholee_lab/Lab/hieudinh//lif_solve_def2svp_omega_0.3_777.scratch20250909010612/autosad_frgmt_1/frgmt_input.in
    Fragment Output file: /n/netscratch/joonholee_lab/Lab/hieudinh//lif_solve_def2svp_omega_0.3_777.scratch20250909010612/autosad_frgmt_1/frgmt_job.out
    Fragment job begins at Tue Sep  9 01:06:32 2025

 Integrated density by DFT XC:
   Numerical integral  =     8.999999994599
   Relative error      =     0.0000000600 %
Final energy components:
 DFT Correlation            Energy =  -0.29413872621805
 DFT Exchange               Energy =  -9.98852123056959
 Kinetic (alpha)            Energy =  51.41981583404743
 Kinetic (beta)             Energy =  47.72578494859710
 Nuclear Attraction (alpha) Energy = -125.16794293964003
 Nuclear Attraction (beta)  Energy = -113.10638093123885
 Nuclear Repulsion          Energy =   0.00000000000000
 SEOQF                      Energy =   0.00000000006159
 Total Coulomb              Energy =  49.87162446721348
----------------------------------------------
    SCF Energy: -99.5397585777
   Total fragment job time:  0.50 s.
restoring fragment data

 ------------------------------------------------------------------------
 Allocate 95611936 B from available memory: 104854564096 B
 Time for generating SCF guess: 1.03 s

 Allocate 397396 B from available memory: 104758952160 B
 Selected algorithms for each term:
  kpts_kinetic -> @0x146d2706c680
  kpts_nn -> @0x146d2706c800
  kpts_rij_bigmem -> @0x146d2706c3e0
  kpts_vnuc_df -> @0x146d2706c380
  kpts_xc -> @0x146d2706c2c0
 Time for computing kinetic matrix is 17.09 s
Start calculating Vnuc DD type!
Start calculating Vnuc CD type!
Start calculating Vnuc CC type!
 Time for computing nuclear attraction matrix is 34.27 s
Compute (P|Q) and use solve on the fly!
Maximum distance between P and Q is 37.07317869796985
Number of images for (P|Qn) is 3451
 Time for computing 2e2c SR integral is 0.15 s
Maximum dynamic memory per thread for 2e3c SR integrals: 0.004 GiB
Batch size for basis function pair is 22 out of 22
 === bvk cell = 0 has 100.000 % of the basis function pairs === 
 === bvk cell = 1 has 100.000 % of the basis function pairs === 
 === bvk cell = 2 has 100.000 % of the basis function pairs === 
 === bvk cell = 3 has 100.000 % of the basis function pairs === 
 === bvk cell = 4 has 100.000 % of the basis function pairs === 
 === bvk cell = 5 has 100.000 % of the basis function pairs === 
 === bvk cell = 6 has 100.000 % of the basis function pairs === 
 === bvk cell = 7 has 100.000 % of the basis function pairs === 
 === bvk cell = 8 has 100.000 % of the basis function pairs === 
 === bvk cell = 9 has 100.000 % of the basis function pairs === 
 === bvk cell = 10 has 100.000 % of the basis function pairs === 
 === bvk cell = 11 has 100.000 % of the basis function pairs === 
 === bvk cell = 12 has 100.000 % of the basis function pairs === 
 === bvk cell = 13 has 100.000 % of the basis function pairs === 
 === bvk cell = 14 has 100.000 % of the basis function pairs === 
 === bvk cell = 15 has 100.000 % of the basis function pairs === 
 === bvk cell = 16 has 100.000 % of the basis function pairs === 
 === bvk cell = 17 has 100.000 % of the basis function pairs === 
 === bvk cell = 18 has 100.000 % of the basis function pairs === 
 === bvk cell = 19 has 100.000 % of the basis function pairs === 
 === bvk cell = 20 has 100.000 % of the basis function pairs === 
 === bvk cell = 21 has 100.000 % of the basis function pairs === 
 === bvk cell = 22 has 100.000 % of the basis function pairs === 
 === bvk cell = 23 has 100.000 % of the basis function pairs === 
 === bvk cell = 24 has 100.000 % of the basis function pairs === 
 === bvk cell = 25 has 100.000 % of the basis function pairs === 
 === bvk cell = 26 has 100.000 % of the basis function pairs === 
 === bvk cell = 27 has 100.000 % of the basis function pairs === 
 === bvk cell = 28 has 100.000 % of the basis function pairs === 
 === bvk cell = 29 has 100.000 % of the basis function pairs === 
 === bvk cell = 30 has 100.000 % of the basis function pairs === 
 === bvk cell = 31 has 100.000 % of the basis function pairs === 
 === bvk cell = 32 has 100.000 % of the basis function pairs === 
 === bvk cell = 33 has 100.000 % of the basis function pairs === 
 === bvk cell = 34 has 100.000 % of the basis function pairs === 
 === bvk cell = 35 has 100.000 % of the basis function pairs === 
 === bvk cell = 36 has 100.000 % of the basis function pairs === 
 === bvk cell = 37 has 100.000 % of the basis function pairs === 
 === bvk cell = 38 has 100.000 % of the basis function pairs === 
 === bvk cell = 39 has 100.000 % of the basis function pairs === 
 === bvk cell = 40 has 100.000 % of the basis function pairs === 
 === bvk cell = 41 has 100.000 % of the basis function pairs === 
 === bvk cell = 42 has 100.000 % of the basis function pairs === 
 === bvk cell = 43 has 100.000 % of the basis function pairs === 
 === bvk cell = 44 has 100.000 % of the basis function pairs === 
 === bvk cell = 45 has 100.000 % of the basis function pairs === 
 === bvk cell = 46 has 100.000 % of the basis function pairs === 
 === bvk cell = 47 has 100.000 % of the basis function pairs === 
 === bvk cell = 48 has 100.000 % of the basis function pairs === 
 === bvk cell = 49 has 100.000 % of the basis function pairs === 
 === bvk cell = 50 has 100.000 % of the basis function pairs === 
 === bvk cell = 51 has 100.000 % of the basis function pairs === 
 === bvk cell = 52 has 100.000 % of the basis function pairs === 
 === bvk cell = 53 has 100.000 % of the basis function pairs === 
 === bvk cell = 54 has 100.000 % of the basis function pairs === 
 === bvk cell = 55 has 100.000 % of the basis function pairs === 
 === bvk cell = 56 has 100.000 % of the basis function pairs === 
 === bvk cell = 57 has 100.000 % of the basis function pairs === 
 === bvk cell = 58 has 100.000 % of the basis function pairs === 
 === bvk cell = 59 has 100.000 % of the basis function pairs === 
 === bvk cell = 60 has 100.000 % of the basis function pairs === 
 === bvk cell = 61 has 100.000 % of the basis function pairs === 
 === bvk cell = 62 has 100.000 % of the basis function pairs === 
 === bvk cell = 63 has 100.000 % of the basis function pairs === 
 === bvk cell = 64 has 100.000 % of the basis function pairs === 
 === bvk cell = 65 has 100.000 % of the basis function pairs === 
 === bvk cell = 66 has 100.000 % of the basis function pairs === 
 === bvk cell = 67 has 100.000 % of the basis function pairs === 
 === bvk cell = 68 has 100.000 % of the basis function pairs === 
 === bvk cell = 69 has 100.000 % of the basis function pairs === 
 === bvk cell = 70 has 100.000 % of the basis function pairs === 
 === bvk cell = 71 has 100.000 % of the basis function pairs === 
 === bvk cell = 72 has 100.000 % of the basis function pairs === 
 === bvk cell = 73 has 100.000 % of the basis function pairs === 
 === bvk cell = 74 has 100.000 % of the basis function pairs === 
 === bvk cell = 75 has 100.000 % of the basis function pairs === 
 === bvk cell = 76 has 100.000 % of the basis function pairs === 
 === bvk cell = 77 has 100.000 % of the basis function pairs === 
 === bvk cell = 78 has 100.000 % of the basis function pairs === 
 === bvk cell = 79 has 100.000 % of the basis function pairs === 
 === bvk cell = 80 has 100.000 % of the basis function pairs === 
 === bvk cell = 81 has 100.000 % of the basis function pairs === 
 === bvk cell = 82 has 100.000 % of the basis function pairs === 
 === bvk cell = 83 has 100.000 % of the basis function pairs === 
 === bvk cell = 84 has 100.000 % of the basis function pairs === 
 === bvk cell = 85 has 100.000 % of the basis function pairs === 
 === bvk cell = 86 has 100.000 % of the basis function pairs === 
 === bvk cell = 87 has 100.000 % of the basis function pairs === 
 === bvk cell = 88 has 100.000 % of the basis function pairs === 
 === bvk cell = 89 has 100.000 % of the basis function pairs === 
 === bvk cell = 90 has 100.000 % of the basis function pairs === 
 === bvk cell = 91 has 100.000 % of the basis function pairs === 
 === bvk cell = 92 has 100.000 % of the basis function pairs === 
 === bvk cell = 93 has 100.000 % of the basis function pairs === 
 === bvk cell = 94 has 100.000 % of the basis function pairs === 
 === bvk cell = 95 has 100.000 % of the basis function pairs === 
 === bvk cell = 96 has 100.000 % of the basis function pairs === 
 === bvk cell = 97 has 100.000 % of the basis function pairs === 
 === bvk cell = 98 has 100.000 % of the basis function pairs === 
 === bvk cell = 99 has 100.000 % of the basis function pairs === 
 === bvk cell = 100 has 100.000 % of the basis function pairs === 
 === bvk cell = 101 has 100.000 % of the basis function pairs === 
 === bvk cell = 102 has 100.000 % of the basis function pairs === 
 === bvk cell = 103 has 100.000 % of the basis function pairs === 
 === bvk cell = 104 has 100.000 % of the basis function pairs === 
 === bvk cell = 105 has 100.000 % of the basis function pairs === 
 === bvk cell = 106 has 100.000 % of the basis function pairs === 
 === bvk cell = 107 has 100.000 % of the basis function pairs === 
 === bvk cell = 108 has 100.000 % of the basis function pairs === 
 === bvk cell = 109 has 100.000 % of the basis function pairs === 
 === bvk cell = 110 has 100.000 % of the basis function pairs === 
 === bvk cell = 111 has 100.000 % of the basis function pairs === 
 === bvk cell = 112 has 100.000 % of the basis function pairs === 
 === bvk cell = 113 has 100.000 % of the basis function pairs === 
 === bvk cell = 114 has 100.000 % of the basis function pairs === 
 === bvk cell = 115 has 100.000 % of the basis function pairs === 
 === bvk cell = 116 has 100.000 % of the basis function pairs === 
 === bvk cell = 117 has 100.000 % of the basis function pairs === 
 === bvk cell = 118 has 100.000 % of the basis function pairs === 
 === bvk cell = 119 has 100.000 % of the basis function pairs === 
 === bvk cell = 120 has 100.000 % of the basis function pairs === 
 === bvk cell = 121 has 100.000 % of the basis function pairs === 
 === bvk cell = 122 has 100.000 % of the basis function pairs === 
 === bvk cell = 123 has 100.000 % of the basis function pairs === 
 === bvk cell = 124 has 100.000 % of the basis function pairs === 
 === bvk cell = 125 has 100.000 % of the basis function pairs === 
 === bvk cell = 126 has 100.000 % of the basis function pairs === 
 === bvk cell = 127 has 100.000 % of the basis function pairs === 
 === bvk cell = 128 has 100.000 % of the basis function pairs === 
 === bvk cell = 129 has 100.000 % of the basis function pairs === 
 === bvk cell = 130 has 100.000 % of the basis function pairs === 
 === bvk cell = 131 has 100.000 % of the basis function pairs === 
 === bvk cell = 132 has 100.000 % of the basis function pairs === 
 === bvk cell = 133 has 100.000 % of the basis function pairs === 
 === bvk cell = 134 has 100.000 % of the basis function pairs === 
 === bvk cell = 135 has 100.000 % of the basis function pairs === 
 === bvk cell = 136 has 100.000 % of the basis function pairs === 
 === bvk cell = 137 has 100.000 % of the basis function pairs === 
 === bvk cell = 138 has 100.000 % of the basis function pairs === 
 === bvk cell = 139 has 100.000 % of the basis function pairs === 
 === bvk cell = 140 has 100.000 % of the basis function pairs === 
 === bvk cell = 141 has 100.000 % of the basis function pairs === 
 === bvk cell = 142 has 100.000 % of the basis function pairs === 
 === bvk cell = 143 has 100.000 % of the basis function pairs === 
 === bvk cell = 144 has 100.000 % of the basis function pairs === 
 === bvk cell = 145 has 100.000 % of the basis function pairs === 
 === bvk cell = 146 has 100.000 % of the basis function pairs === 
 === bvk cell = 147 has 100.000 % of the basis function pairs === 
 === bvk cell = 148 has 100.000 % of the basis function pairs === 
 === bvk cell = 149 has 100.000 % of the basis function pairs === 
 === bvk cell = 150 has 100.000 % of the basis function pairs === 
 === bvk cell = 151 has 100.000 % of the basis function pairs === 
 === bvk cell = 152 has 100.000 % of the basis function pairs === 
 === bvk cell = 153 has 100.000 % of the basis function pairs === 
 === bvk cell = 154 has 100.000 % of the basis function pairs === 
 === bvk cell = 155 has 100.000 % of the basis function pairs === 
 === bvk cell = 156 has 100.000 % of the basis function pairs === 
 === bvk cell = 157 has 100.000 % of the basis function pairs === 
 === bvk cell = 158 has 100.000 % of the basis function pairs === 
 === bvk cell = 159 has 100.000 % of the basis function pairs === 
 === bvk cell = 160 has 100.000 % of the basis function pairs === 
 === bvk cell = 161 has 100.000 % of the basis function pairs === 
 === bvk cell = 162 has 100.000 % of the basis function pairs === 
 === bvk cell = 163 has 100.000 % of the basis function pairs === 
 === bvk cell = 164 has 100.000 % of the basis function pairs === 
 === bvk cell = 165 has 100.000 % of the basis function pairs === 
 === bvk cell = 166 has 100.000 % of the basis function pairs === 
 === bvk cell = 167 has 100.000 % of the basis function pairs === 
 === bvk cell = 168 has 100.000 % of the basis function pairs === 
 === bvk cell = 169 has 100.000 % of the basis function pairs === 
 === bvk cell = 170 has 100.000 % of the basis function pairs === 
 === bvk cell = 171 has 100.000 % of the basis function pairs === 
 === bvk cell = 172 has 100.000 % of the basis function pairs === 
 === bvk cell = 173 has 100.000 % of the basis function pairs === 
 === bvk cell = 174 has 100.000 % of the basis function pairs === 
 === bvk cell = 175 has 100.000 % of the basis function pairs === 
 === bvk cell = 176 has 100.000 % of the basis function pairs === 
 === bvk cell = 177 has 100.000 % of the basis function pairs === 
 === bvk cell = 178 has 100.000 % of the basis function pairs === 
 === bvk cell = 179 has 100.000 % of the basis function pairs === 
 === bvk cell = 180 has 100.000 % of the basis function pairs === 
 === bvk cell = 181 has 100.000 % of the basis function pairs === 
 === bvk cell = 182 has 100.000 % of the basis function pairs === 
 === bvk cell = 183 has 100.000 % of the basis function pairs === 
 === bvk cell = 184 has 100.000 % of the basis function pairs === 
 === bvk cell = 185 has 100.000 % of the basis function pairs === 
 === bvk cell = 186 has 100.000 % of the basis function pairs === 
 === bvk cell = 187 has 100.000 % of the basis function pairs === 
 === bvk cell = 188 has 100.000 % of the basis function pairs === 
 === bvk cell = 189 has 100.000 % of the basis function pairs === 
 === bvk cell = 190 has 100.000 % of the basis function pairs === 
 === bvk cell = 191 has 100.000 % of the basis function pairs === 
 === bvk cell = 192 has 100.000 % of the basis function pairs === 
 === bvk cell = 193 has 100.000 % of the basis function pairs === 
 === bvk cell = 194 has 100.000 % of the basis function pairs === 
 === bvk cell = 195 has 100.000 % of the basis function pairs === 
 === bvk cell = 196 has 100.000 % of the basis function pairs === 
 === bvk cell = 197 has 100.000 % of the basis function pairs === 
 === bvk cell = 198 has 100.000 % of the basis function pairs === 
 === bvk cell = 199 has 100.000 % of the basis function pairs === 
 === bvk cell = 200 has 100.000 % of the basis function pairs === 
 === bvk cell = 201 has 100.000 % of the basis function pairs === 
 === bvk cell = 202 has 100.000 % of the basis function pairs === 
 === bvk cell = 203 has 100.000 % of the basis function pairs === 
 === bvk cell = 204 has 100.000 % of the basis function pairs === 
 === bvk cell = 205 has 100.000 % of the basis function pairs === 
 === bvk cell = 206 has 100.000 % of the basis function pairs === 
 === bvk cell = 207 has 100.000 % of the basis function pairs === 
 === bvk cell = 208 has 100.000 % of the basis function pairs === 
 === bvk cell = 209 has 100.000 % of the basis function pairs === 
 === bvk cell = 210 has 100.000 % of the basis function pairs === 
 === bvk cell = 211 has 100.000 % of the basis function pairs === 
 === bvk cell = 212 has 100.000 % of the basis function pairs === 
 === bvk cell = 213 has 100.000 % of the basis function pairs === 
 === bvk cell = 214 has 100.000 % of the basis function pairs === 
 === bvk cell = 215 has 100.000 % of the basis function pairs === 
 === bvk cell = 216 has 100.000 % of the basis function pairs === 
 === bvk cell = 217 has 100.000 % of the basis function pairs === 
 === bvk cell = 218 has 100.000 % of the basis function pairs === 
 === bvk cell = 219 has 100.000 % of the basis function pairs === 
 === bvk cell = 220 has 100.000 % of the basis function pairs === 
 === bvk cell = 221 has 100.000 % of the basis function pairs === 
 === bvk cell = 222 has 100.000 % of the basis function pairs === 
 === bvk cell = 223 has 100.000 % of the basis function pairs === 
 === bvk cell = 224 has 100.000 % of the basis function pairs === 
 === bvk cell = 225 has 100.000 % of the basis function pairs === 
 === bvk cell = 226 has 100.000 % of the basis function pairs === 
 === bvk cell = 227 has 100.000 % of the basis function pairs === 
 === bvk cell = 228 has 100.000 % of the basis function pairs === 
 === bvk cell = 229 has 100.000 % of the basis function pairs === 
 === bvk cell = 230 has 100.000 % of the basis function pairs === 
 === bvk cell = 231 has 100.000 % of the basis function pairs === 
 === bvk cell = 232 has 100.000 % of the basis function pairs === 
 === bvk cell = 233 has 100.000 % of the basis function pairs === 
 === bvk cell = 234 has 100.000 % of the basis function pairs === 
 === bvk cell = 235 has 100.000 % of the basis function pairs === 
 === bvk cell = 236 has 100.000 % of the basis function pairs === 
 === bvk cell = 237 has 100.000 % of the basis function pairs === 
 === bvk cell = 238 has 100.000 % of the basis function pairs === 
 === bvk cell = 239 has 100.000 % of the basis function pairs === 
 === bvk cell = 240 has 100.000 % of the basis function pairs === 
 === bvk cell = 241 has 100.000 % of the basis function pairs === 
 === bvk cell = 242 has 100.000 % of the basis function pairs === 
 === bvk cell = 243 has 100.000 % of the basis function pairs === 
 === bvk cell = 244 has 100.000 % of the basis function pairs === 
 === bvk cell = 245 has 100.000 % of the basis function pairs === 
 === bvk cell = 246 has 100.000 % of the basis function pairs === 
 === bvk cell = 247 has 100.000 % of the basis function pairs === 
 === bvk cell = 248 has 100.000 % of the basis function pairs === 
 === bvk cell = 249 has 100.000 % of the basis function pairs === 
 === bvk cell = 250 has 100.000 % of the basis function pairs === 
 === bvk cell = 251 has 100.000 % of the basis function pairs === 
 === bvk cell = 252 has 100.000 % of the basis function pairs === 
 === bvk cell = 253 has 100.000 % of the basis function pairs === 
 === bvk cell = 254 has 100.000 % of the basis function pairs === 
 === bvk cell = 255 has 100.000 % of the basis function pairs === 
 === bvk cell = 256 has 100.000 % of the basis function pairs === 
 === bvk cell = 257 has 100.000 % of the basis function pairs === 
 === bvk cell = 258 has 100.000 % of the basis function pairs === 
 === bvk cell = 259 has 100.000 % of the basis function pairs === 
 === bvk cell = 260 has 100.000 % of the basis function pairs === 
 === bvk cell = 261 has 100.000 % of the basis function pairs === 
 === bvk cell = 262 has 100.000 % of the basis function pairs === 
 === bvk cell = 263 has 100.000 % of the basis function pairs === 
 === bvk cell = 264 has 100.000 % of the basis function pairs === 
 === bvk cell = 265 has 100.000 % of the basis function pairs === 
 === bvk cell = 266 has 100.000 % of the basis function pairs === 
 === bvk cell = 267 has 100.000 % of the basis function pairs === 
 === bvk cell = 268 has 100.000 % of the basis function pairs === 
 === bvk cell = 269 has 100.000 % of the basis function pairs === 
 === bvk cell = 270 has 100.000 % of the basis function pairs === 
 === bvk cell = 271 has 100.000 % of the basis function pairs === 
 === bvk cell = 272 has 100.000 % of the basis function pairs === 
 === bvk cell = 273 has 100.000 % of the basis function pairs === 
 === bvk cell = 274 has 100.000 % of the basis function pairs === 
 === bvk cell = 275 has 100.000 % of the basis function pairs === 
 === bvk cell = 276 has 100.000 % of the basis function pairs === 
 === bvk cell = 277 has 100.000 % of the basis function pairs === 
 === bvk cell = 278 has 100.000 % of the basis function pairs === 
 === bvk cell = 279 has 100.000 % of the basis function pairs === 
 === bvk cell = 280 has 100.000 % of the basis function pairs === 
 === bvk cell = 281 has 100.000 % of the basis function pairs === 
 === bvk cell = 282 has 100.000 % of the basis function pairs === 
 === bvk cell = 283 has 100.000 % of the basis function pairs === 
 === bvk cell = 284 has 100.000 % of the basis function pairs === 
 === bvk cell = 285 has 100.000 % of the basis function pairs === 
 === bvk cell = 286 has 100.000 % of the basis function pairs === 
 === bvk cell = 287 has 100.000 % of the basis function pairs === 
 === bvk cell = 288 has 100.000 % of the basis function pairs === 
 === bvk cell = 289 has 100.000 % of the basis function pairs === 
 === bvk cell = 290 has 100.000 % of the basis function pairs === 
 === bvk cell = 291 has 100.000 % of the basis function pairs === 
 === bvk cell = 292 has 100.000 % of the basis function pairs === 
 === bvk cell = 293 has 100.000 % of the basis function pairs === 
 === bvk cell = 294 has 100.000 % of the basis function pairs === 
 === bvk cell = 295 has 100.000 % of the basis function pairs === 
 === bvk cell = 296 has 100.000 % of the basis function pairs === 
 === bvk cell = 297 has 100.000 % of the basis function pairs === 
 === bvk cell = 298 has 100.000 % of the basis function pairs === 
 === bvk cell = 299 has 100.000 % of the basis function pairs === 
 === bvk cell = 300 has 100.000 % of the basis function pairs === 
 === bvk cell = 301 has 100.000 % of the basis function pairs === 
 === bvk cell = 302 has 100.000 % of the basis function pairs === 
 === bvk cell = 303 has 100.000 % of the basis function pairs === 
 === bvk cell = 304 has 100.000 % of the basis function pairs === 
 === bvk cell = 305 has 100.000 % of the basis function pairs === 
 === bvk cell = 306 has 100.000 % of the basis function pairs === 
 === bvk cell = 307 has 100.000 % of the basis function pairs === 
 === bvk cell = 308 has 100.000 % of the basis function pairs === 
 === bvk cell = 309 has 100.000 % of the basis function pairs === 
 === bvk cell = 310 has 100.000 % of the basis function pairs === 
 === bvk cell = 311 has 100.000 % of the basis function pairs === 
 === bvk cell = 312 has 100.000 % of the basis function pairs === 
 === bvk cell = 313 has 100.000 % of the basis function pairs === 
 === bvk cell = 314 has 100.000 % of the basis function pairs === 
 === bvk cell = 315 has 100.000 % of the basis function pairs === 
 === bvk cell = 316 has 100.000 % of the basis function pairs === 
 === bvk cell = 317 has 100.000 % of the basis function pairs === 
 === bvk cell = 318 has 100.000 % of the basis function pairs === 
 === bvk cell = 319 has 100.000 % of the basis function pairs === 
 === bvk cell = 320 has 100.000 % of the basis function pairs === 
 === bvk cell = 321 has 100.000 % of the basis function pairs === 
 === bvk cell = 322 has 100.000 % of the basis function pairs === 
 === bvk cell = 323 has 100.000 % of the basis function pairs === 
 === bvk cell = 324 has 100.000 % of the basis function pairs === 
 === bvk cell = 325 has 100.000 % of the basis function pairs === 
 === bvk cell = 326 has 100.000 % of the basis function pairs === 
 === bvk cell = 327 has 100.000 % of the basis function pairs === 
 === bvk cell = 328 has 100.000 % of the basis function pairs === 
 === bvk cell = 329 has 100.000 % of the basis function pairs === 
 === bvk cell = 330 has 100.000 % of the basis function pairs === 
 === bvk cell = 331 has 100.000 % of the basis function pairs === 
 === bvk cell = 332 has 100.000 % of the basis function pairs === 
 === bvk cell = 333 has 100.000 % of the basis function pairs === 
 === bvk cell = 334 has 100.000 % of the basis function pairs === 
 === bvk cell = 335 has 100.000 % of the basis function pairs === 
 === bvk cell = 336 has 100.000 % of the basis function pairs === 
 === bvk cell = 337 has 100.000 % of the basis function pairs === 
 === bvk cell = 338 has 100.000 % of the basis function pairs === 
 === bvk cell = 339 has 100.000 % of the basis function pairs === 
 === bvk cell = 340 has 100.000 % of the basis function pairs === 
 === bvk cell = 341 has 100.000 % of the basis function pairs === 
 === bvk cell = 342 has 100.000 % of the basis function pairs === 
Static memory requirement for 2e3c SR integrals: 0.005 GB
There are 1 munu batches for computing 2e3c SR integrals with latsum
There are 2 Q batches for computing 2e3c SR integrals with latsum
 Time for computing 2e3c SR integral (CD) is 1.30 s
Maximum dynamic memory per thread for 2e3c SR integrals: 0.016 GiB
Batch size for basis function pair is 275 out of 275
 === bvk cell = 0 has 100.000 % of the basis function pairs === 
 === bvk cell = 1 has 96.727 % of the basis function pairs === 
 === bvk cell = 2 has 64.364 % of the basis function pairs === 
 === bvk cell = 3 has 30.909 % of the basis function pairs === 
 === bvk cell = 4 has 32.000 % of the basis function pairs === 
 === bvk cell = 5 has 53.091 % of the basis function pairs === 
 === bvk cell = 6 has 93.091 % of the basis function pairs === 
 === bvk cell = 7 has 96.727 % of the basis function pairs === 
 === bvk cell = 8 has 72.727 % of the basis function pairs === 
 === bvk cell = 9 has 40.000 % of the basis function pairs === 
 === bvk cell = 10 has 30.909 % of the basis function pairs === 
 === bvk cell = 11 has 32.000 % of the basis function pairs === 
 === bvk cell = 12 has 66.909 % of the basis function pairs === 
 === bvk cell = 13 has 96.727 % of the basis function pairs === 
 === bvk cell = 14 has 64.364 % of the basis function pairs === 
 === bvk cell = 15 has 40.000 % of the basis function pairs === 
 === bvk cell = 16 has 27.636 % of the basis function pairs === 
 === bvk cell = 17 has 22.182 % of the basis function pairs === 
 === bvk cell = 18 has 32.000 % of the basis function pairs === 
 === bvk cell = 19 has 61.091 % of the basis function pairs === 
 === bvk cell = 20 has 70.182 % of the basis function pairs === 
 === bvk cell = 21 has 30.909 % of the basis function pairs === 
 === bvk cell = 22 has 30.909 % of the basis function pairs === 
 === bvk cell = 23 has 22.182 % of the basis function pairs === 
 === bvk cell = 24 has 22.182 % of the basis function pairs === 
 === bvk cell = 25 has 30.909 % of the basis function pairs === 
 === bvk cell = 26 has 30.909 % of the basis function pairs === 
 === bvk cell = 27 has 34.182 % of the basis function pairs === 
 === bvk cell = 28 has 32.000 % of the basis function pairs === 
 === bvk cell = 29 has 32.000 % of the basis function pairs === 
 === bvk cell = 30 has 32.000 % of the basis function pairs === 
 === bvk cell = 31 has 30.909 % of the basis function pairs === 
 === bvk cell = 32 has 28.727 % of the basis function pairs === 
 === bvk cell = 33 has 28.727 % of the basis function pairs === 
 === bvk cell = 34 has 30.909 % of the basis function pairs === 
 === bvk cell = 35 has 53.091 % of the basis function pairs === 
 === bvk cell = 36 has 66.909 % of the basis function pairs === 
 === bvk cell = 37 has 61.091 % of the basis function pairs === 
 === bvk cell = 38 has 30.909 % of the basis function pairs === 
 === bvk cell = 39 has 28.727 % of the basis function pairs === 
 === bvk cell = 40 has 18.909 % of the basis function pairs === 
 === bvk cell = 41 has 33.091 % of the basis function pairs === 
 === bvk cell = 42 has 93.091 % of the basis function pairs === 
 === bvk cell = 43 has 96.727 % of the basis function pairs === 
 === bvk cell = 44 has 70.182 % of the basis function pairs === 
 === bvk cell = 45 has 34.182 % of the basis function pairs === 
 === bvk cell = 46 has 30.909 % of the basis function pairs === 
 === bvk cell = 47 has 33.091 % of the basis function pairs === 
 === bvk cell = 48 has 61.091 % of the basis function pairs === 
 === bvk cell = 49 has 96.727 % of the basis function pairs === 
 === bvk cell = 50 has 70.182 % of the basis function pairs === 
 === bvk cell = 51 has 34.182 % of the basis function pairs === 
 === bvk cell = 52 has 30.909 % of the basis function pairs === 
 === bvk cell = 53 has 33.091 % of the basis function pairs === 
 === bvk cell = 54 has 61.091 % of the basis function pairs === 
 === bvk cell = 55 has 93.091 % of the basis function pairs === 
 === bvk cell = 56 has 70.182 % of the basis function pairs === 
 === bvk cell = 57 has 48.000 % of the basis function pairs === 
 === bvk cell = 58 has 28.727 % of the basis function pairs === 
 === bvk cell = 59 has 22.182 % of the basis function pairs === 
 === bvk cell = 60 has 41.091 % of the basis function pairs === 
 === bvk cell = 61 has 66.909 % of the basis function pairs === 
 === bvk cell = 62 has 72.000 % of the basis function pairs === 
 === bvk cell = 63 has 34.182 % of the basis function pairs === 
 === bvk cell = 64 has 28.727 % of the basis function pairs === 
 === bvk cell = 65 has 21.091 % of the basis function pairs === 
 === bvk cell = 66 has 27.636 % of the basis function pairs === 
 === bvk cell = 67 has 32.000 % of the basis function pairs === 
 === bvk cell = 68 has 43.273 % of the basis function pairs === 
 === bvk cell = 69 has 49.091 % of the basis function pairs === 
 === bvk cell = 70 has 30.909 % of the basis function pairs === 
 === bvk cell = 71 has 22.182 % of the basis function pairs === 
 === bvk cell = 72 has 27.636 % of the basis function pairs === 
 === bvk cell = 73 has 22.182 % of the basis function pairs === 
 === bvk cell = 74 has 30.909 % of the basis function pairs === 
 === bvk cell = 75 has 30.909 % of the basis function pairs === 
 === bvk cell = 76 has 30.909 % of the basis function pairs === 
 === bvk cell = 77 has 33.091 % of the basis function pairs === 
 === bvk cell = 78 has 41.091 % of the basis function pairs === 
 === bvk cell = 79 has 32.000 % of the basis function pairs === 
 === bvk cell = 80 has 30.909 % of the basis function pairs === 
 === bvk cell = 81 has 17.818 % of the basis function pairs === 
 === bvk cell = 82 has 26.545 % of the basis function pairs === 
 === bvk cell = 83 has 23.273 % of the basis function pairs === 
 === bvk cell = 84 has 61.091 % of the basis function pairs === 
 === bvk cell = 85 has 66.909 % of the basis function pairs === 
 === bvk cell = 86 has 43.273 % of the basis function pairs === 
 === bvk cell = 87 has 30.909 % of the basis function pairs === 
 === bvk cell = 88 has 26.545 % of the basis function pairs === 
 === bvk cell = 89 has 28.727 % of the basis function pairs === 
 === bvk cell = 90 has 42.182 % of the basis function pairs === 
 === bvk cell = 91 has 93.091 % of the basis function pairs === 
 === bvk cell = 92 has 72.000 % of the basis function pairs === 
[...]
 1.37139 1.46836 1.67403 1.75232 2.16542 2.37915 2.38140 3.33567 3.45287 3.49607
 3.50647 3.52876
 == 267-th k-point (-0.47380,-0.00000,0.47380) occupation: 6==
 -23.88053 -1.46609 -0.65575 -0.03469 -0.02699 0.02170 0.51633 0.60778 0.75626 0.77996
 1.29901 1.60105 1.63027 1.78808 2.14074 2.39200 2.45706 3.31595 3.46255 3.49371
 3.50870 3.60447
 == 268-th k-point (-0.35535,0.11845,0.35535) occupation: 6==
 -23.88064 -1.46673 -0.66220 -0.03492 0.00826 0.03011 0.46375 0.65320 0.76637 0.79080
 1.21871 1.57121 1.68117 1.82018 2.02652 2.16351 2.61457 3.34103 3.39962 3.51613
 3.53502 3.72003
 == 269-th k-point (-0.23690,0.23690,0.23690) occupation: 6==
 -23.88070 -1.46729 -0.66700 -0.02460 0.03055 0.03055 0.43549 0.71604 0.78727 0.78727
 1.36179 1.51965 1.51965 1.70578 1.70578 1.96111 2.73426 3.36306 3.36306 3.52556
 3.68804 3.68804
 == 270-th k-point (-0.11845,0.35535,0.11845) occupation: 6==
 -23.88072 -1.46735 -0.66682 -0.01529 0.02248 0.02342 0.44941 0.72473 0.80102 0.80867
 1.16799 1.43923 1.58763 1.90859 1.94190 1.97169 2.73447 3.33662 3.34773 3.50862
 3.53918 3.63099
 == 271-th k-point (0.00000,0.47380,0.00000) occupation: 6==
 -23.88063 -1.46686 -0.66180 -0.02982 0.01264 0.01264 0.48904 0.77614 0.79704 0.79704
 1.53744 1.56763 1.56763 1.92202 2.09014 2.09014 2.74472 3.31117 3.31587 3.49491
 3.58499 3.58499
 == 272-th k-point (0.11845,0.59225,-0.11845) occupation: 6==
 -23.88052 -1.46621 -0.65542 -0.05158 0.00018 0.00817 0.52791 0.68590 0.75427 0.78153
 1.19203 1.54617 1.69110 1.80858 2.05213 2.20405 2.61831 3.33500 3.36692 3.50032
 3.51680 3.53207
 == 273-th k-point (-0.47380,-0.23690,0.71071) occupation: 6==
 -23.88065 -1.46604 -0.65480 -0.04705 -0.01528 0.01635 0.51939 0.62065 0.74276 0.78121
 1.27471 1.41282 1.61209 1.75726 2.12680 2.41757 2.55237 3.33502 3.44436 3.49457
 3.50483 3.51642
 == 274-th k-point (-0.35535,-0.11845,0.59225) occupation: 6==
 -23.88065 -1.46604 -0.65480 -0.04705 -0.01528 0.01635 0.51939 0.62065 0.74276 0.78121
 1.27471 1.41282 1.61209 1.75726 2.12680 2.41757 2.55237 3.33502 3.44436 3.49457
 3.50483 3.51642
 == 275-th k-point (-0.23690,-0.00000,0.47380) occupation: 6==
 -23.88066 -1.46663 -0.66031 -0.03362 -0.00012 0.02137 0.48931 0.65956 0.76464 0.79517
 1.15811 1.44314 1.73570 1.81941 2.01958 2.24708 2.68631 3.31840 3.37631 3.50033
 3.52610 3.55074
 == 276-th k-point (-0.11845,0.11845,0.35535) occupation: 6==
 -23.88072 -1.46735 -0.66682 -0.01529 0.02248 0.02342 0.44941 0.72473 0.80102 0.80867
 1.16799 1.43923 1.58763 1.90859 1.94190 1.97169 2.73447 3.33662 3.34773 3.50862
 3.53918 3.63099
 == 277-th k-point (0.00000,0.23690,0.23690) occupation: 6==
 -23.88077 -1.46766 -0.66960 -0.00383 0.01947 0.03467 0.43194 0.71956 0.82130 0.82609
 1.12634 1.59558 1.62414 1.83024 1.95189 2.32276 2.71311 3.31590 3.35549 3.54411
 3.56075 3.77727
 == 278-th k-point (0.11845,0.35535,0.11845) occupation: 6==
 -23.88072 -1.46735 -0.66682 -0.01529 0.02248 0.02342 0.44941 0.72473 0.80102 0.80867
 1.16799 1.43923 1.58763 1.90859 1.94190 1.97169 2.73447 3.33662 3.34773 3.50862
 3.53918 3.63099
 == 279-th k-point (0.23690,0.47380,0.00000) occupation: 6==
 -23.88066 -1.46663 -0.66031 -0.03362 -0.00012 0.02137 0.48931 0.65956 0.76464 0.79517
 1.15811 1.44314 1.73570 1.81941 2.01958 2.24708 2.68631 3.31840 3.37631 3.50033
 3.52610 3.55074
 == 280-th k-point (-0.35535,-0.35535,0.82916) occupation: 6==
 -23.88053 -1.46609 -0.65575 -0.03469 -0.02699 0.02170 0.51633 0.60778 0.75626 0.77996
 1.29901 1.60105 1.63027 1.78808 2.14074 2.39200 2.45706 3.31595 3.46255 3.49371
 3.50870 3.60447
 == 281-th k-point (-0.23690,-0.23690,0.71071) occupation: 6==
 -23.88046 -1.46586 -0.65261 -0.05273 -0.01890 0.01206 0.54490 0.61516 0.75999 0.76349
 1.37139 1.46836 1.67403 1.75232 2.16542 2.37915 2.38140 3.33567 3.45287 3.49607
 3.50647 3.52876
 == 282-th k-point (-0.11845,-0.11845,0.59225) occupation: 6==
 -23.88052 -1.46621 -0.65542 -0.05158 0.00018 0.00817 0.52791 0.68590 0.75427 0.78153
 1.19203 1.54617 1.69110 1.80858 2.05213 2.20405 2.61831 3.33500 3.36692 3.50032
 3.51680 3.53207
 == 283-th k-point (0.00000,-0.00000,0.47380) occupation: 6==
 -23.88063 -1.46686 -0.66180 -0.02982 0.01264 0.01264 0.48904 0.77614 0.79704 0.79704
 1.53744 1.56763 1.56763 1.92202 2.09014 2.09014 2.74472 3.31117 3.31587 3.49491
 3.58499 3.58499
 == 284-th k-point (0.11845,0.11845,0.35535) occupation: 6==
 -23.88072 -1.46735 -0.66682 -0.01529 0.02248 0.02342 0.44941 0.72473 0.80102 0.80867
 1.16799 1.43923 1.58763 1.90859 1.94190 1.97169 2.73447 3.33662 3.34773 3.50862
 3.53918 3.63099
 == 285-th k-point (0.23690,0.23690,0.23690) occupation: 6==
 -23.88070 -1.46729 -0.66700 -0.02460 0.03055 0.03055 0.43549 0.71604 0.78727 0.78727
 1.36179 1.51965 1.51965 1.70578 1.70578 1.96111 2.73426 3.36306 3.36306 3.52556
 3.68804 3.68804
 == 286-th k-point (0.35535,0.35535,0.11845) occupation: 6==
 -23.88064 -1.46673 -0.66220 -0.03492 0.00826 0.03011 0.46375 0.65320 0.76637 0.79080
 1.21871 1.57121 1.68117 1.82018 2.02652 2.16351 2.61457 3.34103 3.39962 3.51613
 3.53502 3.72003
 == 287-th k-point (-0.23690,-0.47380,0.94761) occupation: 6==
 -23.88065 -1.46604 -0.65480 -0.04705 -0.01528 0.01635 0.51939 0.62065 0.74276 0.78121
 1.27471 1.41282 1.61209 1.75726 2.12680 2.41757 2.55237 3.33502 3.44436 3.49457
 3.50483 3.51642
 == 288-th k-point (-0.11845,-0.35535,0.82916) occupation: 6==
 -23.88072 -1.46573 -0.65084 -0.04698 -0.03343 0.00839 0.58301 0.59382 0.71470 0.78300
 1.28151 1.37919 1.52425 1.81995 2.21101 2.26237 2.74625 3.31629 3.42847 3.48232
 3.49728 3.50442
 == 289-th k-point (0.00000,-0.23690,0.71071) occupation: 6==
 -23.88067 -1.46581 -0.65114 -0.05965 -0.01522 0.00536 0.56788 0.63769 0.71352 0.78652
 1.13944 1.46341 1.59918 1.87364 2.09474 2.45734 2.68757 3.31724 3.38753 3.43868
 3.50270 3.51633
 == 290-th k-point (0.11845,-0.11845,0.59225) occupation: 6==
 -23.88052 -1.46621 -0.65542 -0.05158 0.00018 0.00817 0.52791 0.68590 0.75427 0.78153
 1.19203 1.54617 1.69110 1.80858 2.05213 2.20405 2.61831 3.33500 3.36692 3.50032
 3.51680 3.53207
 == 291-th k-point (0.23690,-0.00000,0.47380) occupation: 6==
 -23.88066 -1.46663 -0.66031 -0.03362 -0.00012 0.02137 0.48931 0.65956 0.76464 0.79517
 1.15811 1.44314 1.73570 1.81941 2.01958 2.24708 2.68631 3.31840 3.37631 3.50033
 3.52610 3.55074
 == 292-th k-point (0.35535,0.11845,0.35535) occupation: 6==
 -23.88064 -1.46673 -0.66220 -0.03492 0.00826 0.03011 0.46375 0.65320 0.76637 0.79080
 1.21871 1.57121 1.68117 1.82018 2.02652 2.16351 2.61457 3.34103 3.39962 3.51613
 3.53502 3.72003
 == 293-th k-point (0.47380,0.23690,0.23690) occupation: 6==
 -23.88057 -1.46650 -0.65983 -0.04603 0.01472 0.02046 0.47216 0.65802 0.76409 0.76995
 1.30240 1.55377 1.57647 1.77230 1.92244 2.06222 2.61482 3.36359 3.39076 3.51310
 3.52150 3.64071
 == 294-th k-point (-1.06606,0.35535,0.35535) occupation: 6==
 -23.88053 -1.46622 -0.65766 -0.05395 0.00762 0.02380 0.47447 0.64084 0.74777 0.76793
 1.37870 1.58848 1.61148 1.69513 2.08561 2.11627 2.53807 3.35883 3.41375 3.50873
 3.52156 3.67843
 == 295-th k-point (-0.94761,0.47380,0.23690) occupation: 6==
 -23.88065 -1.46604 -0.65480 -0.04705 -0.01528 0.01635 0.51939 0.62065 0.74276 0.78121
 1.27471 1.41282 1.61209 1.75726 2.12680 2.41757 2.55237 3.33502 3.44436 3.49457
 3.50483 3.51642
 == 296-th k-point (-0.82916,0.59225,0.11845) occupation: 6==
 -23.88067 -1.46581 -0.65114 -0.05965 -0.01522 0.00536 0.56788 0.63769 0.71352 0.78652
 1.13944 1.46341 1.59918 1.87364 2.09474 2.45734 2.68757 3.31724 3.38753 3.43868
 3.50270 3.51633
 == 297-th k-point (-0.71071,0.71071,0.00000) occupation: 6==
 -23.88039 -1.46569 -0.64945 -0.07009 -0.00982 0.00184 0.58472 0.66021 0.73633 0.77922
 1.19121 1.57773 1.77684 1.79419 2.09858 2.52079 2.56520 3.31599 3.38329 3.38354
 3.50015 3.51132
 == 298-th k-point (-0.59225,0.82916,-0.11845) occupation: 6==
 -23.88067 -1.46581 -0.65114 -0.05965 -0.01522 0.00536 0.56788 0.63769 0.71352 0.78652
 1.13944 1.46341 1.59918 1.87364 2.09474 2.45734 2.68757 3.31724 3.38753 3.43868
 3.50270 3.51633
 == 299-th k-point (-0.47380,0.94761,-0.23690) occupation: 6==
 -23.88065 -1.46604 -0.65480 -0.04705 -0.01528 0.01635 0.51939 0.62065 0.74276 0.78121
 1.27471 1.41282 1.61209 1.75726 2.12680 2.41757 2.55237 3.33502 3.44436 3.49457
 3.50483 3.51642
 == 300-th k-point (-0.35535,1.06606,-0.35535) occupation: 6==
 -23.88053 -1.46622 -0.65766 -0.05395 0.00762 0.02380 0.47447 0.64084 0.74777 0.76793
 1.37870 1.58848 1.61148 1.69513 2.08561 2.11627 2.53807 3.35883 3.41375 3.50873
 3.52156 3.67843
 == 301-th k-point (-0.94761,0.23690,0.47380) occupation: 6==
 -23.88065 -1.46604 -0.65480 -0.04705 -0.01528 0.01635 0.51939 0.62065 0.74276 0.78121
 1.27471 1.41282 1.61209 1.75726 2.12680 2.41757 2.55237 3.33502 3.44436 3.49457
 3.50483 3.51642
 == 302-th k-point (-0.82916,0.35535,0.35535) occupation: 6==
 -23.88053 -1.46609 -0.65575 -0.03469 -0.02699 0.02170 0.51633 0.60778 0.75626 0.77996
 1.29901 1.60105 1.63027 1.78808 2.14074 2.39200 2.45706 3.31595 3.46255 3.49371
 3.50870 3.60447
 == 303-th k-point (-0.71071,0.47380,0.23690) occupation: 6==
 -23.88065 -1.46604 -0.65480 -0.04705 -0.01528 0.01635 0.51939 0.62065 0.74276 0.78121
 1.27471 1.41282 1.61209 1.75726 2.12680 2.41757 2.55237 3.33502 3.44436 3.49457
 3.50483 3.51642
 == 304-th k-point (-0.59225,0.59225,0.11845) occupation: 6==
 -23.88046 -1.46586 -0.65261 -0.05273 -0.01890 0.01206 0.54490 0.61516 0.75999 0.76349
 1.37139 1.46836 1.67403 1.75232 2.16542 2.37915 2.38140 3.33567 3.45287 3.49607
 3.50647 3.52876
 == 305-th k-point (-0.47380,0.71071,0.00000) occupation: 6==
 -23.88072 -1.46573 -0.65084 -0.04698 -0.03343 0.00839 0.58301 0.59382 0.71470 0.78300
 1.28151 1.37919 1.52425 1.81995 2.21101 2.26237 2.74625 3.31629 3.42847 3.48232
 3.49728 3.50442
 == 306-th k-point (-0.35535,0.82916,-0.11845) occupation: 6==
 -23.88072 -1.46573 -0.65084 -0.04698 -0.03343 0.00839 0.58301 0.59382 0.71470 0.78300
 1.28151 1.37919 1.52425 1.81995 2.21101 2.26237 2.74625 3.31629 3.42847 3.48232
 3.49728 3.50442
 == 307-th k-point (-0.23690,0.94761,-0.23690) occupation: 6==
 -23.88046 -1.46586 -0.65261 -0.05273 -0.01890 0.01206 0.54490 0.61516 0.75999 0.76349
 1.37139 1.46836 1.67403 1.75232 2.16542 2.37915 2.38140 3.33567 3.45287 3.49607
 3.50647 3.52876
 == 308-th k-point (-0.82916,0.11845,0.59225) occupation: 6==
 -23.88067 -1.46581 -0.65114 -0.05965 -0.01522 0.00536 0.56788 0.63769 0.71352 0.78652
 1.13944 1.46341 1.59918 1.87364 2.09474 2.45734 2.68757 3.31724 3.38753 3.43868
 3.50270 3.51633
 == 309-th k-point (-0.71071,0.23690,0.47380) occupation: 6==
 -23.88065 -1.46604 -0.65480 -0.04705 -0.01528 0.01635 0.51939 0.62065 0.74276 0.78121
 1.27471 1.41282 1.61209 1.75726 2.12680 2.41757 2.55237 3.33502 3.44436 3.49457
 3.50483 3.51642
 == 310-th k-point (-0.59225,0.35535,0.35535) occupation: 6==
 -23.88053 -1.46622 -0.65766 -0.05395 0.00762 0.02380 0.47447 0.64084 0.74777 0.76793
 1.37870 1.58848 1.61148 1.69513 2.08561 2.11627 2.53807 3.35883 3.41375 3.50873
 3.52156 3.67843
 == 311-th k-point (-0.47380,0.47380,0.23690) occupation: 6==
 -23.88053 -1.46622 -0.65766 -0.05395 0.00762 0.02380 0.47447 0.64084 0.74777 0.76793
 1.37870 1.58848 1.61148 1.69513 2.08561 2.11627 2.53807 3.35883 3.41375 3.50873
 3.52156 3.67843
 == 312-th k-point (-0.35535,0.59225,0.11845) occupation: 6==
 -23.88065 -1.46604 -0.65480 -0.04705 -0.01528 0.01635 0.51939 0.62065 0.74276 0.78121
 1.27471 1.41282 1.61209 1.75726 2.12680 2.41757 2.55237 3.33502 3.44436 3.49457
 3.50483 3.51642
 == 313-th k-point (-0.23690,0.71071,0.00000) occupation: 6==
 -23.88067 -1.46581 -0.65114 -0.05965 -0.01522 0.00536 0.56788 0.63769 0.71352 0.78652
 1.13944 1.46341 1.59918 1.87364 2.09474 2.45734 2.68757 3.31724 3.38753 3.43868
 3.50270 3.51633
 == 314-th k-point (-0.11845,0.82916,-0.11845) occupation: 6==
 -23.88039 -1.46569 -0.64945 -0.07009 -0.00982 0.00184 0.58472 0.66021 0.73633 0.77922
 1.19121 1.57773 1.77684 1.79419 2.09858 2.52079 2.56520 3.31599 3.38329 3.38354
 3.50015 3.51132
 == 315-th k-point (-0.71071,-0.00000,0.71071) occupation: 6==
 -23.88039 -1.46569 -0.64945 -0.07009 -0.00982 0.00184 0.58472 0.66021 0.73633 0.77922
 1.19121 1.57773 1.77684 1.79419 2.09858 2.52079 2.56520 3.31599 3.38329 3.38354
 3.50015 3.51132
 == 316-th k-point (-0.59225,0.11845,0.59225) occupation: 6==
 -23.88046 -1.46586 -0.65261 -0.05273 -0.01890 0.01206 0.54490 0.61516 0.75999 0.76349
 1.37139 1.46836 1.67403 1.75232 2.16542 2.37915 2.38140 3.33567 3.45287 3.49607
 3.50647 3.52876
 == 317-th k-point (-0.47380,0.23690,0.47380) occupation: 6==
 -23.88053 -1.46622 -0.65766 -0.05395 0.00762 0.02380 0.47447 0.64084 0.74777 0.76793
 1.37870 1.58848 1.61148 1.69513 2.08561 2.11627 2.53807 3.35883 3.41375 3.50873
 3.52156 3.67843
 == 318-th k-point (-0.35535,0.35535,0.35535) occupation: 6==
 -23.88057 -1.46645 -0.66080 -0.05354 0.02782 0.02782 0.44444 0.68187 0.74403 0.74403
 1.56989 1.62728 1.62728 1.75274 1.75274 2.06365 2.67944 3.37088 3.37088 3.51393
 3.73003 3.73003
 == 319-th k-point (-0.23690,0.47380,0.23690) occupation: 6==
 -23.88057 -1.46650 -0.65983 -0.04603 0.01472 0.02046 0.47216 0.65802 0.76409 0.76995
 1.30240 1.55377 1.57647 1.77230 1.92244 2.06222 2.61482 3.36359 3.39076 3.51310
 3.52150 3.64071
 == 320-th k-point (-0.11845,0.59225,0.11845) occupation: 6==
 -23.88052 -1.46621 -0.65542 -0.05158 0.00018 0.00817 0.52791 0.68590 0.75427 0.78153
 1.19203 1.54617 1.69110 1.80858 2.05213 2.20405 2.61831 3.33500 3.36692 3.50032
 3.51680 3.53207
 == 321-th k-point (0.00000,0.71071,0.00000) occupation: 6==
 -23.88039 -1.46585 -0.65074 -0.07043 0.00020 0.00020 0.56809 0.72351 0.78689 0.78689
 1.59588 1.78454 1.80913 1.80913 2.49311 2.49311 2.66728 3.31119 3.31586 3.39666
 3.39666 3.50409
 == 322-th k-point (-0.59225,-0.11845,0.82916) occupation: 6==
 -23.88067 -1.46581 -0.65114 -0.05965 -0.01522 0.00536 0.56788 0.63769 0.71352 0.78652
 1.13944 1.46341 1.59918 1.87364 2.09474 2.45734 2.68757 3.31724 3.38753 3.43868
 3.50270 3.51633
 == 323-th k-point (-0.47380,-0.00000,0.71071) occupation: 6==
 -23.88072 -1.46573 -0.65084 -0.04698 -0.03343 0.00839 0.58301 0.59382 0.71470 0.78300
 1.28151 1.37919 1.52425 1.81995 2.21101 2.26237 2.74625 3.31629 3.42847 3.48232
 3.49728 3.50442
 == 324-th k-point (-0.35535,0.11845,0.59225) occupation: 6==
 -23.88065 -1.46604 -0.65480 -0.04705 -0.01528 0.01635 0.51939 0.62065 0.74276 0.78121
 1.27471 1.41282 1.61209 1.75726 2.12680 2.41757 2.55237 3.33502 3.44436 3.49457
 3.50483 3.51642
 == 325-th k-point (-0.23690,0.23690,0.47380) occupation: 6==
 -23.88057 -1.46650 -0.65983 -0.04603 0.01472 0.02046 0.47216 0.65802 0.76409 0.76995
 1.30240 1.55377 1.57647 1.77230 1.92244 2.06222 2.61482 3.36359 3.39076 3.51310
 3.52150 3.64071
 == 326-th k-point (-0.11845,0.35535,0.35535) occupation: 6==
 -23.88064 -1.46673 -0.66220 -0.03492 0.00826 0.03011 0.46375 0.65320 0.76637 0.79080
 1.21871 1.57121 1.68117 1.82018 2.02652 2.16351 2.61457 3.34103 3.39962 3.51613
 3.53502 3.72003
 == 327-th k-point (0.00000,0.47380,0.23690) occupation: 6==
 -23.88066 -1.46663 -0.66031 -0.03362 -0.00012 0.02137 0.48931 0.65956 0.76464 0.79517
 1.15811 1.44314 1.73570 1.81941 2.01958 2.24708 2.68631 3.31840 3.37631 3.50033
 3.52610 3.55074
 == 328-th k-point (0.11845,0.59225,0.11845) occupation: 6==
 -23.88052 -1.46621 -0.65542 -0.05158 0.00018 0.00817 0.52791 0.68590 0.75427 0.78153
 1.19203 1.54617 1.69110 1.80858 2.05213 2.20405 2.61831 3.33500 3.36692 3.50032
 3.51680 3.53207
 == 329-th k-point (-0.47380,-0.23690,0.94761) occupation: 6==
 -23.88065 -1.46604 -0.65480 -0.04705 -0.01528 0.01635 0.51939 0.62065 0.74276 0.78121
 1.27471 1.41282 1.61209 1.75726 2.12680 2.41757 2.55237 3.33502 3.44436 3.49457
 3.50483 3.51642
 == 330-th k-point (-0.35535,-0.11845,0.82916) occupation: 6==
 -23.88072 -1.46573 -0.65084 -0.04698 -0.03343 0.00839 0.58301 0.59382 0.71470 0.78300
 1.28151 1.37919 1.52425 1.81995 2.21101 2.26237 2.74625 3.31629 3.42847 3.48232
 3.49728 3.50442
 == 331-th k-point (-0.23690,-0.00000,0.71071) occupation: 6==
 -23.88067 -1.46581 -0.65114 -0.05965 -0.01522 0.00536 0.56788 0.63769 0.71352 0.78652
 1.13944 1.46341 1.59918 1.87364 2.09474 2.45734 2.68757 3.31724 3.38753 3.43868
 3.50270 3.51633
 == 332-th k-point (-0.11845,0.11845,0.59225) occupation: 6==
 -23.88052 -1.46621 -0.65542 -0.05158 0.00018 0.00817 0.52791 0.68590 0.75427 0.78153
 1.19203 1.54617 1.69110 1.80858 2.05213 2.20405 2.61831 3.33500 3.36692 3.50032
 3.51680 3.53207
 == 333-th k-point (0.00000,0.23690,0.47380) occupation: 6==
 -23.88066 -1.46663 -0.66031 -0.03362 -0.00012 0.02137 0.48931 0.65956 0.76464 0.79517
 1.15811 1.44314 1.73570 1.81941 2.01958 2.24708 2.68631 3.31840 3.37631 3.50033
 3.52610 3.55074
 == 334-th k-point (0.11845,0.35535,0.35535) occupation: 6==
 -23.88064 -1.46673 -0.66220 -0.03492 0.00826 0.03011 0.46375 0.65320 0.76637 0.79080
 1.21871 1.57121 1.68117 1.82018 2.02652 2.16351 2.61457 3.34103 3.39962 3.51613
 3.53502 3.72003
 == 335-th k-point (0.23690,0.47380,0.23690) occupation: 6==
 -23.88057 -1.46650 -0.65983 -0.04603 0.01472 0.02046 0.47216 0.65802 0.76409 0.76995
 1.30240 1.55377 1.57647 1.77230 1.92244 2.06222 2.61482 3.36359 3.39076 3.51310
 3.52150 3.64071
 == 336-th k-point (-0.35535,-0.35535,1.06606) occupation: 6==
 -23.88053 -1.46622 -0.65766 -0.05395 0.00762 0.02380 0.47447 0.64084 0.74777 0.76793
 1.37870 1.58848 1.61148 1.69513 2.08561 2.11627 2.53807 3.35883 3.41375 3.50873
 3.52156 3.67843
 == 337-th k-point (-0.23690,-0.23690,0.94761) occupation: 6==
 -23.88046 -1.46586 -0.65261 -0.05273 -0.01890 0.01206 0.54490 0.61516 0.75999 0.76349
 1.37139 1.46836 1.67403 1.75232 2.16542 2.37915 2.38140 3.33567 3.45287 3.49607
 3.50647 3.52876
 == 338-th k-point (-0.11845,-0.11845,0.82916) occupation: 6==
 -23.88039 -1.46569 -0.64945 -0.07009 -0.00982 0.00184 0.58472 0.66021 0.73633 0.77922
 1.19121 1.57773 1.77684 1.79419 2.09858 2.52079 2.56520 3.31599 3.38329 3.38354
 3.50015 3.51132
 == 339-th k-point (0.00000,-0.00000,0.71071) occupation: 6==
 -23.88039 -1.46585 -0.65074 -0.07043 0.00020 0.00020 0.56809 0.72351 0.78689 0.78689
 1.59588 1.78454 1.80913 1.80913 2.49311 2.49311 2.66728 3.31119 3.31586 3.39666
 3.39666 3.50409
 == 340-th k-point (0.11845,0.11845,0.59225) occupation: 6==
 -23.88052 -1.46621 -0.65542 -0.05158 0.00018 0.00817 0.52791 0.68590 0.75427 0.78153
 1.19203 1.54617 1.69110 1.80858 2.05213 2.20405 2.61831 3.33500 3.36692 3.50032
 3.51680 3.53207
 == 341-th k-point (0.23690,0.23690,0.47380) occupation: 6==
 -23.88057 -1.46650 -0.65983 -0.04603 0.01472 0.02046 0.47216 0.65802 0.76409 0.76995
 1.30240 1.55377 1.57647 1.77230 1.92244 2.06222 2.61482 3.36359 3.39076 3.51310
 3.52150 3.64071
 == 342-th k-point (0.35535,0.35535,0.35535) occupation: 6==
 -23.88057 -1.46645 -0.66080 -0.05354 0.02782 0.02782 0.44444 0.68187 0.74403 0.74403
 1.56989 1.62728 1.62728 1.75274 1.75274 2.06365 2.67944 3.37088 3.37088 3.51393
 3.73003 3.73003
 ---------------------------------------------------------------------------
 VBM is at 171-th k-point with 0.96832 eV
 CBM is at 171-th k-point with 10.57332 eV
 Band gap is 9.60500 eV


           Ground-State Mulliken Net Atomic Charges

      Atom                 Charge (a.u.)          Spin (a.u.)
   --------------------------------------------------------
      1 Li                (0.469040,0.000000)    (0.000000,0.000000)
      2  F              (-0.469040,-0.000000)    (0.000000,0.000000)
   --------------------------------------------------------
  Sum of atomic charges =     (-0.000000,-0.000000)
  Sum of spin   charges =       (0.000000,0.000000)



 Total job time:  125.69 s.
 Tue Sep  9 01:08:19 2025


        *************************************************************
        *                                                           *
        *  Thank you very much for using QCPBC. Have a nice day.    *
        *                                                           *
        *************************************************************

Running job 1 of 1
