                  Welcome to Q-Chem
           with Periodic Boundary Condition
     A Quantum Leap Into The Future Of Chemistry

 Adam Rettig, Xintian Feng, Meng-Fu Chen, Hieu Dinh, Stephen Quiton,
 Anton Ni, Paul J. Robinson, Jinghong Zhang, Joonho Lee

Contributors to earlier versions of Q-Chem not listed above:
 Evgeny Epifanovsky, Leo Cunha, Jerome F. Gonthier, Kuan-Yu Liu
 Input file: /n/netscratch/joonholee_lab/Lab/hieudinh//lif_solve_def2svp_omega_0.9_555.scratch20250909000922/lif_solve_def2svp_omega_0.9_555.0
 Scratch folder: /n/netscratch/joonholee_lab/Lab/hieudinh//lif_solve_def2svp_omega_0.9_555.scratch20250909000922
 Auxillary files located at: /n/holylabs/LABS/joonholee_lab/Lab/qchem_base/qcaux
 Q-Chem begins on Tue Sep  9 00:09:23 2025

 -------------------------------------------------------------
 User input:
 -------------------------------------------------------------
 $lattice
 3
 0.000000 2.005000 2.005000
 2.005000 0.000000 2.005000
 2.005000 2.005000 0.000000
 $end
 
 $unitcell
 ABSOLUTE
 0 1
 Li 0.000000 0.000000 0.000000
 F  2.005000 0.000000 0.000000
 $end
 
 $rem
 jobtype = sp
 method = pbe
 scf_convergence = 5
 scf_guess = autosad
 scf_algorithm = gdm
 basis = def2-svp
 aux_basis = gen
 input_bohr = false
 symmetry false
 is_basis_uctr true
 rsdf_print_level 1
 
 mp_mesh = [5,5,5]
 
 integral_direct true
 bvk_cgto true
 
 thresh 14
 mem_total 100000
 threads 32
 
 MAX_SCF_CYCLES 400
 madelung = false
 omega 0.9
 do_rij_bigmem true
 automate_g true
 print_level 10
 grid_type_xc 1
 
 thresh_1e2c_sp 1e-14
 thresh_2e3c_bra_ket_sep 1e-10
 thresh_g 1e-12
 $end
 
 $aux_basis
 Li     0
 S   7   1.00
     498.3689730              0.0207908
     162.9342738              0.0542177
      57.3246735              0.1776783
      21.6427314              0.4181150
       8.7345375              0.6535245
       3.7491039              0.5492618
       1.7006754              0.1701425
 S   1   1.00
       0.8090859             -0.0097548
 S   1   1.00
       0.4000933             -0.0050152
 S   1   1.00
       0.2035793              0.0232200
 !S   1   1.00
 !      0.1054201              0.0134535
 !S   1   1.00
 !      0.0549139              0.0006647
 P   2   1.00
      10.7024696              0.0072923
       3.6551543              0.0060940
 P   1   1.00
       1.2464013              0.0172529
 P   1   1.00
       0.4246282             -0.0160026
 P   1   1.00
       0.1446192             -0.0195111
 D   2   1.00
       1.1510647             -0.0014314
       0.6019112              0.0038969
 D   1   1.00
       0.3109573              0.0024683
 D   1   1.00
       0.1600032              0.0036451
 F   2   1.00
       0.5967918              0.0010494
       0.1790687              0.0006468
 G   1   1.00
       1.0460130             -0.0001971
 ****
 F     0
 S   7   1.00
    3514.9201549              0.1805835
    1231.2458815              0.3676084
     454.1367336              1.2707881
     175.8376258              2.8274164
      71.2081775              4.3588226
      30.0316883              2.7180994
      13.1259023             -0.0804726
 S   1   1.00
       5.9126861             -0.0023370
 S   1   1.00
       2.7284431              1.1236274
 S   1   1.00
       1.2813993              0.9999042
 S   1   1.00
       0.6082793              0.3119579
 S   1   1.00
       0.2897894              0.0312295
 P   2   1.00
      49.3740409             -0.0346332
      13.4874956             -0.0096069
 P   1   1.00
       3.9664900              0.0762067
 P   1   1.00
       1.2226629             -0.0103329
 P   1   1.00
       0.3830317              0.0018853
 D   2   1.00
      29.9719140             -0.0113316
       6.7860915             -0.0467639
 D   1   1.00
       1.8137313             -0.0167604
 D   1   1.00
       0.5157840             -0.0050777
 F   2   1.00
       2.8301877              1.0
       0.9155962              1.0
 G   1   1.00
       1.6097500             -0.0005411
 ****
 $end
 -------------------------------------------------------------
 Running PBC job

 Requested Exchange Correlation Functionals: 
  DFT Exchange:  1.00000 pbe_x
  DFT Correlation:  1.00000 pbe_c
 using 32 threads for computing.
 ---------------------------------------------------------------
      Coordinates of Atoms in Central Unit Cell (Angstroms)
    I     Atom         X            Y            Z
 ---------------------------------------------------------------
    1      Li      0.000000     0.000000     0.000000
    2       F      2.005000     0.000000     0.000000
 ---------------------------------------------------------------
 --------------------------------------------------
              Lattice Vectors (Angstroms)
              X            Y            Z
 --------------------------------------------------
   X       0.000000     2.005000     2.005000
   Y       2.005000     0.000000     2.005000
   Z       2.005000     2.005000     0.000000
 --------------------------------------------------
 --------------------------------------------------
       Reciprocal Lattice Vectors (Angstroms^-1)
              X            Y            Z
 --------------------------------------------------
   X      -1.566879     1.566879     1.566879
   Y       1.566879    -1.566879     1.566879
   Z       1.566879     1.566879    -1.566879
 --------------------------------------------------

 Single point calculation requested

 Hamiltonian contributions:
 List of terms in Hamiltonian: kpts_nn, kpts_kinetic, kpts_vnuc_df, kpts_xc, kpts_rij_bigmem

 K-Points calculation started.

 Basis set information about using solid harmonic (1) or Cartesian (0):
  li : 
  f : D(1) 

 Basis set information about using solid harmonic (1) or Cartesian (0):
  li : D(1) D(1) D(1) F(1) G(1) 
  f : D(1) D(1) D(1) F(1) G(1) 

 There are 23 basis functions in the central unit cell.
 Print atomic basis of atoms in the central unit cell:
 -------------------------------------------------------------
2 22 22 11

  0.00000000000000e+00  0.00000000000000e+00  0.00000000000000e+00
  3.78890087987467e+00  0.00000000000000e+00  0.00000000000000e+00

  2.66277855160000e+02
  4.00697834470000e+01
  9.05599443890000e+00
  2.45030090510000e+00
  7.22095718550000e-01
  5.28108847210000e-02
  2.09609487980000e-02
  1.45000000000000e+00
  3.00000000000000e-01
  8.20000000000000e-02
  2.89483259900000e+03
  4.35419391200000e+02
  9.88433288660000e+01
  2.74851980010000e+01
  8.54054981710000e+00
  1.06545780380000e+00
  3.32473467480000e-01
  2.26966339240000e+01
  4.98723392570000e+00
  1.34916139540000e+00
  3.48298819770000e-01
  1.40000000000000e+00

  2.98523259158809e-01
  5.30473944856059e-01
  7.38120784182850e-01
  6.64059438610974e-01
  2.38395787996007e-01
  7.85150071492147e-02
  3.92616272060942e-02
  5.10109427593945e-01
  2.75249408957986e-01
  6.25471323993550e-02
 -1.50461836060050e+00
 -2.71519138656203e+00
 -4.00842348425574e+00
 -4.00664898239610e+00
 -1.59245314394331e+00
  7.47415815228736e-01
  3.12052622570615e-01
 -4.57453810587525e+00
 -3.61576784341891e+00
 -1.52308270817964e+00
  3.81399475464114e-01
  2.96574303152418e+00

0 0 0 0 1 1 1
0 0 
5 0

0 1 1 5 1 1 1
5 0 
1 0

0 2 2 6 1 1 1
6 0 
1 0

0 3 3 7 1 3 3
7 1 
2 0

0 6 6 9 1 3 3
9 1 
1 0

1 9 9 10 1 1 1
10 0 
5 0

1 10 10 15 1 1 1
15 0 
1 0

1 11 11 16 1 1 1
16 0 
1 0

1 12 12 17 1 3 3
17 1 
3 0

1 15 15 20 1 3 3
20 1 
1 0

1 18 18 21 1 5 6
21 2 
1 1

 -------------------------------------------------------------
 Allocate 132768 B from available memory: 104857600000 B
 There are 12167 image cells after screening.
 There are 15858 image cells for CGTO evaluation after screening.
 Real-Space grid for FFT initialized based on kinetic energy cutoff (eV) = 500.0
 Real-Space grid for FFT: (8,8,8)
 There are 4913 real-space grid points.
 There are 27 batches of real-space grid points. 
 Size of each grid batch is around 128
 Grid for AFT initialized based on kinetic energy cutoff (eV) = 500.0
 Real-Space grid for AFT: (8,8,8)
 There are 4913 real-space grid points.

 There are 5740 atom-centered grid points.

 Spacegroup symmetry group: Fm-3m
 Reducing spacegroup symmetry to symmorphic group: F m -3 m
 Monkhorst-Pack mesh is [5,5,5]
 There are 125 k points.
kpoints in Bohr
-0.3316626909 -0.3316626909 -0.3316626909
-0.1658313455 -0.1658313455 -0.4974940364
-0.0000000000 0.0000000000 -0.6633253818
0.1658313455 0.1658313455 -0.8291567273
0.3316626909 0.3316626909 -0.9949880728
-0.1658313455 -0.4974940364 -0.1658313455
-0.0000000000 -0.3316626909 -0.3316626909
0.1658313455 -0.1658313455 -0.4974940364
0.3316626909 0.0000000000 -0.6633253818
0.4974940364 0.1658313455 -0.8291567273
-0.0000000000 -0.6633253818 -0.0000000000
0.1658313455 -0.4974940364 -0.1658313455
0.3316626909 -0.3316626909 -0.3316626909
0.4974940364 -0.1658313455 -0.4974940364
0.6633253818 0.0000000000 -0.6633253818
0.1658313455 -0.8291567273 0.1658313455
0.3316626909 -0.6633253818 -0.0000000000
0.4974940364 -0.4974940364 -0.1658313455
0.6633253818 -0.3316626909 -0.3316626909
0.8291567273 -0.1658313455 -0.4974940364
0.3316626909 -0.9949880728 0.3316626909
0.4974940364 -0.8291567273 0.1658313455
0.6633253818 -0.6633253818 -0.0000000000
0.8291567273 -0.4974940364 -0.1658313455
0.9949880728 -0.3316626909 -0.3316626909
-0.4974940364 -0.1658313455 -0.1658313455
-0.3316626909 0.0000000000 -0.3316626909
-0.1658313455 0.1658313455 -0.4974940364
-0.0000000000 0.3316626909 -0.6633253818
0.1658313455 0.4974940364 -0.8291567273
-0.3316626909 -0.3316626909 -0.0000000000
-0.1658313455 -0.1658313455 -0.1658313455
-0.0000000000 0.0000000000 -0.3316626909
0.1658313455 0.1658313455 -0.4974940364
0.3316626909 0.3316626909 -0.6633253818
-0.1658313455 -0.4974940364 0.1658313455
-0.0000000000 -0.3316626909 -0.0000000000
0.1658313455 -0.1658313455 -0.1658313455
0.3316626909 0.0000000000 -0.3316626909
0.4974940364 0.1658313455 -0.4974940364
0.0000000000 -0.6633253818 0.3316626909
0.1658313455 -0.4974940364 0.1658313455
0.3316626909 -0.3316626909 -0.0000000000
0.4974940364 -0.1658313455 -0.1658313455
0.6633253818 0.0000000000 -0.3316626909
0.1658313455 -0.8291567273 0.4974940364
0.3316626909 -0.6633253818 0.3316626909
0.4974940364 -0.4974940364 0.1658313455
0.6633253818 -0.3316626909 -0.0000000000
0.8291567273 -0.1658313455 -0.1658313455
-0.6633253818 0.0000000000 0.0000000000
-0.4974940364 0.1658313455 -0.1658313455
-0.3316626909 0.3316626909 -0.3316626909
-0.1658313455 0.4974940364 -0.4974940364
-0.0000000000 0.6633253818 -0.6633253818
-0.4974940364 -0.1658313455 0.1658313455
-0.3316626909 0.0000000000 0.0000000000
-0.1658313455 0.1658313455 -0.1658313455
-0.0000000000 0.3316626909 -0.3316626909
0.1658313455 0.4974940364 -0.4974940364
-0.3316626909 -0.3316626909 0.3316626909
-0.1658313455 -0.1658313455 0.1658313455
0.0000000000 0.0000000000 0.0000000000
0.1658313455 0.1658313455 -0.1658313455
0.3316626909 0.3316626909 -0.3316626909
-0.1658313455 -0.4974940364 0.4974940364
0.0000000000 -0.3316626909 0.3316626909
0.1658313455 -0.1658313455 0.1658313455
0.3316626909 -0.0000000000 0.0000000000
0.4974940364 0.1658313455 -0.1658313455
0.0000000000 -0.6633253818 0.6633253818
0.1658313455 -0.4974940364 0.4974940364
0.3316626909 -0.3316626909 0.3316626909
0.4974940364 -0.1658313455 0.1658313455
0.6633253818 -0.0000000000 0.0000000000
-0.8291567273 0.1658313455 0.1658313455
-0.6633253818 0.3316626909 0.0000000000
-0.4974940364 0.4974940364 -0.1658313455
-0.3316626909 0.6633253818 -0.3316626909
-0.1658313455 0.8291567273 -0.4974940364
-0.6633253818 -0.0000000000 0.3316626909
-0.4974940364 0.1658313455 0.1658313455
-0.3316626909 0.3316626909 0.0000000000
-0.1658313455 0.4974940364 -0.1658313455
-0.0000000000 0.6633253818 -0.3316626909
-0.4974940364 -0.1658313455 0.4974940364
-0.3316626909 -0.0000000000 0.3316626909
-0.1658313455 0.1658313455 0.1658313455
0.0000000000 0.3316626909 0.0000000000
0.1658313455 0.4974940364 -0.1658313455
-0.3316626909 -0.3316626909 0.6633253818
-0.1658313455 -0.1658313455 0.4974940364
0.0000000000 -0.0000000000 0.3316626909
0.1658313455 0.1658313455 0.1658313455
0.3316626909 0.3316626909 0.0000000000
-0.1658313455 -0.4974940364 0.8291567273
0.0000000000 -0.3316626909 0.6633253818
0.1658313455 -0.1658313455 0.4974940364
0.3316626909 -0.0000000000 0.3316626909
0.4974940364 0.1658313455 0.1658313455
-0.9949880728 0.3316626909 0.3316626909
-0.8291567273 0.4974940364 0.1658313455
-0.6633253818 0.6633253818 0.0000000000
-0.4974940364 0.8291567273 -0.1658313455
-0.3316626909 0.9949880728 -0.3316626909
-0.8291567273 0.1658313455 0.4974940364
-0.6633253818 0.3316626909 0.3316626909
-0.4974940364 0.4974940364 0.1658313455
-0.3316626909 0.6633253818 0.0000000000
-0.1658313455 0.8291567273 -0.1658313455
-0.6633253818 -0.0000000000 0.6633253818
-0.4974940364 0.1658313455 0.4974940364
-0.3316626909 0.3316626909 0.3316626909
-0.1658313455 0.4974940364 0.1658313455
0.0000000000 0.6633253818 0.0000000000
-0.4974940364 -0.1658313455 0.8291567273
-0.3316626909 -0.0000000000 0.6633253818
-0.1658313455 0.1658313455 0.4974940364
0.0000000000 0.3316626909 0.3316626909
0.1658313455 0.4974940364 0.1658313455
-0.3316626909 -0.3316626909 0.9949880728
-0.1658313455 -0.1658313455 0.8291567273
0.0000000000 -0.0000000000 0.6633253818
0.1658313455 0.1658313455 0.4974940364
0.3316626909 0.3316626909 0.3316626909
 There are 6 alpha and 6 beta electrons
 Start computing overlap matrix
 Allocate 1058000 B from available memory: 104857467232 B
 Time for computing overlap matrix: 16.4380000000 s
 ====== Initialize compute kernels for all-electron RI-J (kpts) ====== 
 ========================================================== 
 Range-separated parameter omega        = 0.900000000000000022
 Threshold for 1e2c shellpair           = 0.000000000000010000
 Threshold for 2e2c SR integral         = 0.000000000000000001
 Threshold for 2e3c SR integral         = 0.000000000100000000
 Threshold for AFT G-space screening is = 0.000000000001000000
 The exponent cutoff for C/D classification (omega2 / 2) is  = 0.405000000000000027
 ========================================================== 
 === Post process the basis set for RI calculation (exp_cutoff = 0.405000000000000027 ) === 
nshells_b1 before uncontraction = 11
nshells_b1 after uncontraction = 12
nshells_baux before uncontraction = 28
nshells_baux after uncontraction = 28
===============================================
nbsf total   = 26
nbsf compact = 14
nbsf diffuse = 12
naux total   = 96
naux compact = 96
naux diffuse = 0
nshells_bnuc = 2

 Number of unique atoms is 2
 Unique atom #0 (li) has 2 shells.
 Unique atom #1 (f) has 4 shells.

Shell 0 to 1 belongs to atom li
Shell 2 to 5 belongs to atom f

 Number of unique atoms is 2
 Unique atom #0 (li) has 4 shells.
 Unique atom #1 (f) has 2 shells.

Shell 0 to 3 belongs to atom li
Shell 4 to 5 belongs to atom f

 Number of unique atom is 2
 Unique atom #0 (li) has 13 auxiliary shells.
 Unique atom #1 (f) has 15 auxiliary shells.

Auxiliary Shell 0 to 12 belongs to atom li
Auxiliary Shell 13 to 27 belongs to atom f

================= Automatically determine grid size for reciprocal space summation =================
 Range-separated parameter = 0.90000000000000 and G-space screening threshold = 0.00000000000100
The number of grid points along each axis dimension is (7, 7, 7)
Total number of grid points = 3375

Use nonortho shellpair for diffuse density
======== Initializing relevant kernel for RIJ (DD type) ========
There are 21 shellpairs in the reference unit cell
There are 21037 images and we expect to have 441777 in total
There are 22367 shellpairs in the lattice sum after screening
======== Initializing relevant kernel for RIJ (CD type) ========
There are 36 shellpairs in the reference unit cell
There are 11345 images and we expect to have 408420 in total
There are 18422 shellpairs in the lattice sum after screening
****** AFT -> SR ******
Maximum bra distance cutoff is 38.000000000000
Maximum bra ket distance cutoff is 17.319928803145
Maximum bra ket screening distance is 16.812500000000
Number of auxiliary image is 3661
There are 36 shellpairs in the reference unit cell
There are 3661 images and we expect to have 131796 in total
There are 18422 shellpairs in the lattice sum after screening
Available memory per thread for 2e3c calculation is 3.276762789000Gb
Finish initializing 2e3c SR with the lattice sum!
=================================================
======== Initializing relevant kernel for RIJ (CC type) ========
There are 21 shellpairs in the reference unit cell
There are 527 images and we expect to have 11067 in total
There are 255 shellpairs in the lattice sum after screening
****** AFT -> SR ******
Maximum bra distance cutoff is 9.000000000000
Maximum bra ket distance cutoff is 18.479079330277
Maximum bra ket screening distance is 16.562500000000
Number of auxiliary image is 647
There are 21 shellpairs in the reference unit cell
There are 117 images and we expect to have 2457 in total
There are 255 shellpairs in the lattice sum after screening
Available memory per thread for 2e3c calculation is 3.276762789000Gb
Finish initializing 2e3c SR with the lattice sum!
=================================================
======== Initializing the SR component for Vnuc (CD type) ========
Maximum bra distance cutoff is 38.000000000000
Maximum bra ket distance cutoff is 8.157803433096
Maximum bra ket screening distance is 7.681203387974
Number of auxiliary image is 3661
There are 36 shellpairs in the reference unit cell
There are 3661 images and we expect to have 131796 in total
There are 18422 shellpairs in the lattice sum after screening
Available memory per thread for 2e3c calculation is 3.276762789000Gb
Finish initializing 2e3c SR with the lattice sum!
=================================================
======== Initialize the SR component for Vnuc (CC type) ========
Maximum bra distance cutoff is 9.000000000000
Maximum bra ket distance cutoff is 10.175490900892
Maximum bra ket screening distance is 6.800848225094
Number of auxiliary image is 213
There are 21 shellpairs in the reference unit cell
There are 117 images and we expect to have 2457 in total
There are 255 shellpairs in the lattice sum after screening
Available memory per thread for 2e3c calculation is 3.276762789000Gb
Finish initializing 2e3c SR with the lattice sum!
=================================================
 Aufbau occupation scheme, occupation determined by eigenvalue
 == 0-th k-point nmo = 22 (-0.33166,-0.33166,-0.33166) ==
 == 1-th k-point nmo = 22 (-0.16583,-0.16583,-0.49749) ==
 == 2-th k-point nmo = 22 (-0.00000,0.00000,-0.66333) ==
 == 3-th k-point nmo = 22 (0.16583,0.16583,-0.82916) ==
 == 4-th k-point nmo = 22 (0.33166,0.33166,-0.99499) ==
 == 5-th k-point nmo = 22 (-0.16583,-0.49749,-0.16583) ==
 == 6-th k-point nmo = 22 (-0.00000,-0.33166,-0.33166) ==
 == 7-th k-point nmo = 22 (0.16583,-0.16583,-0.49749) ==
 == 8-th k-point nmo = 22 (0.33166,0.00000,-0.66333) ==
 == 9-th k-point nmo = 22 (0.49749,0.16583,-0.82916) ==
 == 10-th k-point nmo = 22 (-0.00000,-0.66333,-0.00000) ==
 == 11-th k-point nmo = 22 (0.16583,-0.49749,-0.16583) ==
 == 12-th k-point nmo = 22 (0.33166,-0.33166,-0.33166) ==
 == 13-th k-point nmo = 22 (0.49749,-0.16583,-0.49749) ==
 == 14-th k-point nmo = 22 (0.66333,0.00000,-0.66333) ==
 == 15-th k-point nmo = 22 (0.16583,-0.82916,0.16583) ==
 == 16-th k-point nmo = 22 (0.33166,-0.66333,-0.00000) ==
 == 17-th k-point nmo = 22 (0.49749,-0.49749,-0.16583) ==
 == 18-th k-point nmo = 22 (0.66333,-0.33166,-0.33166) ==
 == 19-th k-point nmo = 22 (0.82916,-0.16583,-0.49749) ==
 == 20-th k-point nmo = 22 (0.33166,-0.99499,0.33166) ==
 == 21-th k-point nmo = 22 (0.49749,-0.82916,0.16583) ==
 == 22-th k-point nmo = 22 (0.66333,-0.66333,-0.00000) ==
 == 23-th k-point nmo = 22 (0.82916,-0.49749,-0.16583) ==
 == 24-th k-point nmo = 22 (0.99499,-0.33166,-0.33166) ==
 == 25-th k-point nmo = 22 (-0.49749,-0.16583,-0.16583) ==
 == 26-th k-point nmo = 22 (-0.33166,0.00000,-0.33166) ==
 == 27-th k-point nmo = 22 (-0.16583,0.16583,-0.49749) ==
 == 28-th k-point nmo = 22 (-0.00000,0.33166,-0.66333) ==
 == 29-th k-point nmo = 22 (0.16583,0.49749,-0.82916) ==
 == 30-th k-point nmo = 22 (-0.33166,-0.33166,-0.00000) ==
 == 31-th k-point nmo = 22 (-0.16583,-0.16583,-0.16583) ==
 == 32-th k-point nmo = 22 (-0.00000,0.00000,-0.33166) ==
 == 33-th k-point nmo = 22 (0.16583,0.16583,-0.49749) ==
 == 34-th k-point nmo = 22 (0.33166,0.33166,-0.66333) ==
 == 35-th k-point nmo = 22 (-0.16583,-0.49749,0.16583) ==
 == 36-th k-point nmo = 22 (-0.00000,-0.33166,-0.00000) ==
 == 37-th k-point nmo = 22 (0.16583,-0.16583,-0.16583) ==
 == 38-th k-point nmo = 22 (0.33166,0.00000,-0.33166) ==
 == 39-th k-point nmo = 22 (0.49749,0.16583,-0.49749) ==
 == 40-th k-point nmo = 22 (0.00000,-0.66333,0.33166) ==
 == 41-th k-point nmo = 22 (0.16583,-0.49749,0.16583) ==
 == 42-th k-point nmo = 22 (0.33166,-0.33166,-0.00000) ==
 == 43-th k-point nmo = 22 (0.49749,-0.16583,-0.16583) ==
 == 44-th k-point nmo = 22 (0.66333,0.00000,-0.33166) ==
 == 45-th k-point nmo = 22 (0.16583,-0.82916,0.49749) ==
 == 46-th k-point nmo = 22 (0.33166,-0.66333,0.33166) ==
 == 47-th k-point nmo = 22 (0.49749,-0.49749,0.16583) ==
 == 48-th k-point nmo = 22 (0.66333,-0.33166,-0.00000) ==
 == 49-th k-point nmo = 22 (0.82916,-0.16583,-0.16583) ==
 == 50-th k-point nmo = 22 (-0.66333,0.00000,0.00000) ==
 == 51-th k-point nmo = 22 (-0.49749,0.16583,-0.16583) ==
 == 52-th k-point nmo = 22 (-0.33166,0.33166,-0.33166) ==
 == 53-th k-point nmo = 22 (-0.16583,0.49749,-0.49749) ==
 == 54-th k-point nmo = 22 (-0.00000,0.66333,-0.66333) ==
 == 55-th k-point nmo = 22 (-0.49749,-0.16583,0.16583) ==
 == 56-th k-point nmo = 22 (-0.33166,0.00000,0.00000) ==
 == 57-th k-point nmo = 22 (-0.16583,0.16583,-0.16583) ==
 == 58-th k-point nmo = 22 (-0.00000,0.33166,-0.33166) ==
 == 59-th k-point nmo = 22 (0.16583,0.49749,-0.49749) ==
 == 60-th k-point nmo = 22 (-0.33166,-0.33166,0.33166) ==
 == 61-th k-point nmo = 22 (-0.16583,-0.16583,0.16583) ==
 == 62-th k-point nmo = 22 (0.00000,0.00000,0.00000) ==
 == 63-th k-point nmo = 22 (0.16583,0.16583,-0.16583) ==
 == 64-th k-point nmo = 22 (0.33166,0.33166,-0.33166) ==
 == 65-th k-point nmo = 22 (-0.16583,-0.49749,0.49749) ==
 == 66-th k-point nmo = 22 (0.00000,-0.33166,0.33166) ==
 == 67-th k-point nmo = 22 (0.16583,-0.16583,0.16583) ==
 == 68-th k-point nmo = 22 (0.33166,-0.00000,0.00000) ==
 == 69-th k-point nmo = 22 (0.49749,0.16583,-0.16583) ==
 == 70-th k-point nmo = 22 (0.00000,-0.66333,0.66333) ==
 == 71-th k-point nmo = 22 (0.16583,-0.49749,0.49749) ==
 == 72-th k-point nmo = 22 (0.33166,-0.33166,0.33166) ==
 == 73-th k-point nmo = 22 (0.49749,-0.16583,0.16583) ==
 == 74-th k-point nmo = 22 (0.66333,-0.00000,0.00000) ==
 == 75-th k-point nmo = 22 (-0.82916,0.16583,0.16583) ==
 == 76-th k-point nmo = 22 (-0.66333,0.33166,0.00000) ==
 == 77-th k-point nmo = 22 (-0.49749,0.49749,-0.16583) ==
 == 78-th k-point nmo = 22 (-0.33166,0.66333,-0.33166) ==
 == 79-th k-point nmo = 22 (-0.16583,0.82916,-0.49749) ==
 == 80-th k-point nmo = 22 (-0.66333,-0.00000,0.33166) ==
 == 81-th k-point nmo = 22 (-0.49749,0.16583,0.16583) ==
 == 82-th k-point nmo = 22 (-0.33166,0.33166,0.00000) ==
 == 83-th k-point nmo = 22 (-0.16583,0.49749,-0.16583) ==
 == 84-th k-point nmo = 22 (-0.00000,0.66333,-0.33166) ==
 == 85-th k-point nmo = 22 (-0.49749,-0.16583,0.49749) ==
 == 86-th k-point nmo = 22 (-0.33166,-0.00000,0.33166) ==
 == 87-th k-point nmo = 22 (-0.16583,0.16583,0.16583) ==
 == 88-th k-point nmo = 22 (0.00000,0.33166,0.00000) ==
 == 89-th k-point nmo = 22 (0.16583,0.49749,-0.16583) ==
 == 90-th k-point nmo = 22 (-0.33166,-0.33166,0.66333) ==
 == 91-th k-point nmo = 22 (-0.16583,-0.16583,0.49749) ==
 == 92-th k-point nmo = 22 (0.00000,-0.00000,0.33166) ==
 == 93-th k-point nmo = 22 (0.16583,0.16583,0.16583) ==
 == 94-th k-point nmo = 22 (0.33166,0.33166,0.00000) ==
 == 95-th k-point nmo = 22 (-0.16583,-0.49749,0.82916) ==
 == 96-th k-point nmo = 22 (0.00000,-0.33166,0.66333) ==
 == 97-th k-point nmo = 22 (0.16583,-0.16583,0.49749) ==
 == 98-th k-point nmo = 22 (0.33166,-0.00000,0.33166) ==
 == 99-th k-point nmo = 22 (0.49749,0.16583,0.16583) ==
 == 100-th k-point nmo = 22 (-0.99499,0.33166,0.33166) ==
 == 101-th k-point nmo = 22 (-0.82916,0.49749,0.16583) ==
 == 102-th k-point nmo = 22 (-0.66333,0.66333,0.00000) ==
 == 103-th k-point nmo = 22 (-0.49749,0.82916,-0.16583) ==
 == 104-th k-point nmo = 22 (-0.33166,0.99499,-0.33166) ==
 == 105-th k-point nmo = 22 (-0.82916,0.16583,0.49749) ==
 == 106-th k-point nmo = 22 (-0.66333,0.33166,0.33166) ==
 == 107-th k-point nmo = 22 (-0.49749,0.49749,0.16583) ==
 == 108-th k-point nmo = 22 (-0.33166,0.66333,0.00000) ==
 == 109-th k-point nmo = 22 (-0.16583,0.82916,-0.16583) ==
 == 110-th k-point nmo = 22 (-0.66333,-0.00000,0.66333) ==
 == 111-th k-point nmo = 22 (-0.49749,0.16583,0.49749) ==
 == 112-th k-point nmo = 22 (-0.33166,0.33166,0.33166) ==
 == 113-th k-point nmo = 22 (-0.16583,0.49749,0.16583) ==
 == 114-th k-point nmo = 22 (0.00000,0.66333,0.00000) ==
 == 115-th k-point nmo = 22 (-0.49749,-0.16583,0.82916) ==
 == 116-th k-point nmo = 22 (-0.33166,-0.00000,0.66333) ==
 == 117-th k-point nmo = 22 (-0.16583,0.16583,0.49749) ==
 == 118-th k-point nmo = 22 (0.00000,0.33166,0.33166) ==
 == 119-th k-point nmo = 22 (0.16583,0.49749,0.16583) ==
 == 120-th k-point nmo = 22 (-0.33166,-0.33166,0.99499) ==
 == 121-th k-point nmo = 22 (-0.16583,-0.16583,0.82916) ==
 == 122-th k-point nmo = 22 (0.00000,-0.00000,0.66333) ==
 == 123-th k-point nmo = 22 (0.16583,0.16583,0.49749) ==
 == 124-th k-point nmo = 22 (0.33166,0.33166,0.33166) ==

 Generate autoSAD guess
backing up fragment data
Atom # 0: li, charge: 0, multiplicity: 2.000000
Atom # 1: f, charge: 0, multiplicity: 2.000000
writing autosad to fragment context
Settings for isolated fragments: 
  frgm_gamma: TRUE
  frgm_center: FALSE

    Running SCF for isolated atom #0
    Fragment Input file: /n/netscratch/joonholee_lab/Lab/hieudinh//lif_solve_def2svp_omega_0.9_555.scratch20250909000922/autosad_frgmt_0/frgmt_input.in
    Fragment Output file: /n/netscratch/joonholee_lab/Lab/hieudinh//lif_solve_def2svp_omega_0.9_555.scratch20250909000922/autosad_frgmt_0/frgmt_job.out
    Fragment job begins at Tue Sep  9 00:09:41 2025

 Integrated density by DFT XC:
   Numerical integral  =     2.999999997939
   Relative error      =     0.0000000687 %
Final energy components:
 DFT Correlation            Energy =  -0.05129449360107
 DFT Exchange               Energy =  -1.75293492673808
 Kinetic (alpha)            Energy =   3.83698747219400
 Kinetic (beta)             Energy =   3.56502760489078
 Nuclear Attraction (alpha) Energy =  -9.10672143734250
 Nuclear Attraction (beta)  Energy =  -8.00006101932191
 Nuclear Repulsion          Energy =   0.00000000000000
 SEOQF                      Energy =  -0.00000000000000
 Total Coulomb              Energy =   4.05509638491419
----------------------------------------------
    SCF Energy: -7.4539004150
   Total fragment job time:  0.44 s.
    Running SCF for isolated atom #1
    Fragment Input file: /n/netscratch/joonholee_lab/Lab/hieudinh//lif_solve_def2svp_omega_0.9_555.scratch20250909000922/autosad_frgmt_1/frgmt_input.in
    Fragment Output file: /n/netscratch/joonholee_lab/Lab/hieudinh//lif_solve_def2svp_omega_0.9_555.scratch20250909000922/autosad_frgmt_1/frgmt_job.out
    Fragment job begins at Tue Sep  9 00:09:41 2025

 Integrated density by DFT XC:
   Numerical integral  =     8.999999994599
   Relative error      =     0.0000000600 %
Final energy components:
 DFT Correlation            Energy =  -0.29413872621805
 DFT Exchange               Energy =  -9.98852123056959
 Kinetic (alpha)            Energy =  51.41981583404754
 Kinetic (beta)             Energy =  47.72578494859710
 Nuclear Attraction (alpha) Energy = -125.16794293964031
 Nuclear Attraction (beta)  Energy = -113.10638093123883
 Nuclear Repulsion          Energy =   0.00000000000000
 SEOQF                      Energy =   0.00000000006159
 Total Coulomb              Energy =  49.87162446721352
----------------------------------------------
    SCF Energy: -99.5397585777
   Total fragment job time:  0.47 s.
restoring fragment data

 ------------------------------------------------------------------------
 Allocate 34844000 B from available memory: 104856409248 B
 Time for generating SCF guess: 0.93 s

 Allocate 397396 B from available memory: 104821565248 B
 Selected algorithms for each term:
  kpts_kinetic -> @0x150e5e08c680
  kpts_nn -> @0x150e5e08c800
  kpts_rij_bigmem -> @0x150e5e08c3e0
  kpts_vnuc_df -> @0x150e5e08c380
  kpts_xc -> @0x150e5e08c2c0
 Time for computing kinetic matrix is 16.57 s
Start calculating Vnuc DD type!
Start calculating Vnuc CD type!
Start calculating Vnuc CC type!
 Time for computing nuclear attraction matrix is 35.82 s
Compute (P|Q) and use solve on the fly!
Maximum distance between P and Q is 28.75642758820560
Number of images for (P|Qn) is 1873
 Time for computing 2e2c SR integral is 0.10 s
Maximum dynamic memory per thread for 2e3c SR integrals: 0.007 GiB
Batch size for basis function pair is 168 out of 168
 === bvk cell = 0 has 100.000 % of the basis function pairs === 
 === bvk cell = 1 has 100.000 % of the basis function pairs === 
 === bvk cell = 2 has 82.738 % of the basis function pairs === 
 === bvk cell = 3 has 74.405 % of the basis function pairs === 
 === bvk cell = 4 has 100.000 % of the basis function pairs === 
 === bvk cell = 5 has 100.000 % of the basis function pairs === 
 === bvk cell = 6 has 90.476 % of the basis function pairs === 
 === bvk cell = 7 has 52.381 % of the basis function pairs === 
 === bvk cell = 8 has 92.857 % of the basis function pairs === 
 === bvk cell = 9 has 100.000 % of the basis function pairs === 
 === bvk cell = 10 has 82.738 % of the basis function pairs === 
 === bvk cell = 11 has 52.381 % of the basis function pairs === 
 === bvk cell = 12 has 41.667 % of the basis function pairs === 
 === bvk cell = 13 has 76.190 % of the basis function pairs === 
 === bvk cell = 14 has 91.071 % of the basis function pairs === 
 === bvk cell = 15 has 74.405 % of the basis function pairs === 
 === bvk cell = 16 has 92.857 % of the basis function pairs === 
 === bvk cell = 17 has 76.190 % of the basis function pairs === 
 === bvk cell = 18 has 41.667 % of the basis function pairs === 
 === bvk cell = 19 has 42.262 % of the basis function pairs === 
 === bvk cell = 20 has 100.000 % of the basis function pairs === 
 === bvk cell = 21 has 100.000 % of the basis function pairs === 
 === bvk cell = 22 has 91.071 % of the basis function pairs === 
 === bvk cell = 23 has 42.262 % of the basis function pairs === 
 === bvk cell = 24 has 82.143 % of the basis function pairs === 
 === bvk cell = 25 has 100.000 % of the basis function pairs === 
 === bvk cell = 26 has 91.071 % of the basis function pairs === 
 === bvk cell = 27 has 42.262 % of the basis function pairs === 
 === bvk cell = 28 has 82.143 % of the basis function pairs === 
 === bvk cell = 29 has 100.000 % of the basis function pairs === 
 === bvk cell = 30 has 91.071 % of the basis function pairs === 
 === bvk cell = 31 has 52.381 % of the basis function pairs === 
 === bvk cell = 32 has 42.262 % of the basis function pairs === 
 === bvk cell = 33 has 92.857 % of the basis function pairs === 
 === bvk cell = 34 has 100.000 % of the basis function pairs === 
 === bvk cell = 35 has 42.262 % of the basis function pairs === 
 === bvk cell = 36 has 42.262 % of the basis function pairs === 
 === bvk cell = 37 has 41.667 % of the basis function pairs === 
 === bvk cell = 38 has 41.667 % of the basis function pairs === 
 === bvk cell = 39 has 52.381 % of the basis function pairs === 
 === bvk cell = 40 has 82.143 % of the basis function pairs === 
 === bvk cell = 41 has 92.857 % of the basis function pairs === 
 === bvk cell = 42 has 41.667 % of the basis function pairs === 
 === bvk cell = 43 has 41.667 % of the basis function pairs === 
 === bvk cell = 44 has 51.190 % of the basis function pairs === 
 === bvk cell = 45 has 100.000 % of the basis function pairs === 
 === bvk cell = 46 has 100.000 % of the basis function pairs === 
 === bvk cell = 47 has 52.381 % of the basis function pairs === 
 === bvk cell = 48 has 51.190 % of the basis function pairs === 
 === bvk cell = 49 has 92.857 % of the basis function pairs === 
 === bvk cell = 50 has 76.190 % of the basis function pairs === 
 === bvk cell = 51 has 41.667 % of the basis function pairs === 
 === bvk cell = 52 has 42.262 % of the basis function pairs === 
 === bvk cell = 53 has 74.405 % of the basis function pairs === 
 === bvk cell = 54 has 92.857 % of the basis function pairs === 
 === bvk cell = 55 has 41.667 % of the basis function pairs === 
 === bvk cell = 56 has 52.381 % of the basis function pairs === 
 === bvk cell = 57 has 52.381 % of the basis function pairs === 
 === bvk cell = 58 has 42.262 % of the basis function pairs === 
 === bvk cell = 59 has 41.667 % of the basis function pairs === 
 === bvk cell = 60 has 42.262 % of the basis function pairs === 
 === bvk cell = 61 has 52.381 % of the basis function pairs === 
 === bvk cell = 62 has 41.667 % of the basis function pairs === 
 === bvk cell = 63 has 41.667 % of the basis function pairs === 
 === bvk cell = 64 has 41.667 % of the basis function pairs === 
 === bvk cell = 65 has 74.405 % of the basis function pairs === 
 === bvk cell = 66 has 42.262 % of the basis function pairs === 
 === bvk cell = 67 has 41.667 % of the basis function pairs === 
 === bvk cell = 68 has 42.262 % of the basis function pairs === 
 === bvk cell = 69 has 51.190 % of the basis function pairs === 
 === bvk cell = 70 has 92.857 % of the basis function pairs === 
 === bvk cell = 71 has 41.667 % of the basis function pairs === 
 === bvk cell = 72 has 41.667 % of the basis function pairs === 
 === bvk cell = 73 has 51.190 % of the basis function pairs === 
 === bvk cell = 74 has 82.143 % of the basis function pairs === 
 === bvk cell = 75 has 76.190 % of the basis function pairs === 
 === bvk cell = 76 has 91.071 % of the basis function pairs === 
 === bvk cell = 77 has 82.738 % of the basis function pairs === 
 === bvk cell = 78 has 52.381 % of the basis function pairs === 
 === bvk cell = 79 has 41.667 % of the basis function pairs === 
 === bvk cell = 80 has 91.071 % of the basis function pairs === 
 === bvk cell = 81 has 90.476 % of the basis function pairs === 
 === bvk cell = 82 has 59.524 % of the basis function pairs === 
 === bvk cell = 83 has 41.667 % of the basis function pairs === 
 === bvk cell = 84 has 41.667 % of the basis function pairs === 
 === bvk cell = 85 has 82.738 % of the basis function pairs === 
 === bvk cell = 86 has 59.524 % of the basis function pairs === 
 === bvk cell = 87 has 52.381 % of the basis function pairs === 
 === bvk cell = 88 has 41.667 % of the basis function pairs === 
 === bvk cell = 89 has 52.381 % of the basis function pairs === 
 === bvk cell = 90 has 52.381 % of the basis function pairs === 
 === bvk cell = 91 has 41.667 % of the basis function pairs === 
 === bvk cell = 92 has 41.667 % of the basis function pairs === 
 === bvk cell = 93 has 41.667 % of the basis function pairs === 
 === bvk cell = 94 has 42.262 % of the basis function pairs === 
 === bvk cell = 95 has 41.667 % of the basis function pairs === 
 === bvk cell = 96 has 41.667 % of the basis function pairs === 
 === bvk cell = 97 has 52.381 % of the basis function pairs === 
 === bvk cell = 98 has 42.262 % of the basis function pairs === 
 === bvk cell = 99 has 42.262 % of the basis function pairs === 
 === bvk cell = 100 has 100.000 % of the basis function pairs === 
 === bvk cell = 101 has 100.000 % of the basis function pairs === 
 === bvk cell = 102 has 90.476 % of the basis function pairs === 
 === bvk cell = 103 has 52.381 % of the basis function pairs === 
 === bvk cell = 104 has 92.857 % of the basis function pairs === 
 === bvk cell = 105 has 100.000 % of the basis function pairs === 
 === bvk cell = 106 has 91.071 % of the basis function pairs === 
 === bvk cell = 107 has 59.524 % of the basis function pairs === 
 === bvk cell = 108 has 42.262 % of the basis function pairs === 
 === bvk cell = 109 has 100.000 % of the basis function pairs === 
 === bvk cell = 110 has 90.476 % of the basis function pairs === 
 === bvk cell = 111 has 59.524 % of the basis function pairs === 
 === bvk cell = 112 has 41.667 % of the basis function pairs === 
 === bvk cell = 113 has 41.667 % of the basis function pairs === 
 === bvk cell = 114 has 91.071 % of the basis function pairs === 
 === bvk cell = 115 has 52.381 % of the basis function pairs === 
 === bvk cell = 116 has 42.262 % of the basis function pairs === 
 === bvk cell = 117 has 41.667 % of the basis function pairs === 
 === bvk cell = 118 has 41.667 % of the basis function pairs === 
 === bvk cell = 119 has 52.381 % of the basis function pairs === 
 === bvk cell = 120 has 92.857 % of the basis function pairs === 
 === bvk cell = 121 has 100.000 % of the basis function pairs === 
 === bvk cell = 122 has 91.071 % of the basis function pairs === 
 === bvk cell = 123 has 52.381 % of the basis function pairs === 
 === bvk cell = 124 has 42.262 % of the basis function pairs === 
Static memory requirement for 2e3c SR integrals: 0.010 GB
There are 1 munu batches for computing 2e3c SR integrals with latsum
There are 2 Q batches for computing 2e3c SR integrals with latsum
 Time for computing 2e3c SR integral (CD) is 0.70 s
Maximum dynamic memory per thread for 2e3c SR integrals: 0.001 GiB
Batch size for basis function pair is 121 out of 121
 === bvk cell = 0 has 100.000 % of the basis function pairs === 
 === bvk cell = 1 has 87.603 % of the basis function pairs === 
 === bvk cell = 2 has 0.000 % of the basis function pairs === 
 === bvk cell = 3 has 0.000 % of the basis function pairs === 
 === bvk cell = 4 has 64.463 % of the basis function pairs === 
 === bvk cell = 5 has 87.603 % of the basis function pairs === 
 === bvk cell = 6 has 28.099 % of the basis function pairs === 
 === bvk cell = 7 has 0.000 % of the basis function pairs === 
 === bvk cell = 8 has 0.000 % of the basis function pairs === 
 === bvk cell = 9 has 90.083 % of the basis function pairs === 
 === bvk cell = 10 has 0.000 % of the basis function pairs === 
 === bvk cell = 11 has 0.000 % of the basis function pairs === 
 === bvk cell = 12 has 0.000 % of the basis function pairs === 
 === bvk cell = 13 has 0.000 % of the basis function pairs === 
 === bvk cell = 14 has 0.000 % of the basis function pairs === 
 === bvk cell = 15 has 0.000 % of the basis function pairs === 
 === bvk cell = 16 has 0.000 % of the basis function pairs === 
 === bvk cell = 17 has 0.000 % of the basis function pairs === 
 === bvk cell = 18 has 0.000 % of the basis function pairs === 
 === bvk cell = 19 has 0.000 % of the basis function pairs === 
 === bvk cell = 20 has 64.463 % of the basis function pairs === 
 === bvk cell = 21 has 90.083 % of the basis function pairs === 
 === bvk cell = 22 has 0.000 % of the basis function pairs === 
 === bvk cell = 23 has 0.000 % of the basis function pairs === 
 === bvk cell = 24 has 2.479 % of the basis function pairs === 
 === bvk cell = 25 has 90.083 % of the basis function pairs === 
 === bvk cell = 26 has 0.000 % of the basis function pairs === 
 === bvk cell = 27 has 0.000 % of the basis function pairs === 
 === bvk cell = 28 has 2.479 % of the basis function pairs === 
 === bvk cell = 29 has 64.463 % of the basis function pairs === 
 === bvk cell = 30 has 0.000 % of the basis function pairs === 
 === bvk cell = 31 has 0.000 % of the basis function pairs === 
 === bvk cell = 32 has 0.000 % of the basis function pairs === 
 === bvk cell = 33 has 0.000 % of the basis function pairs === 
 === bvk cell = 34 has 4.132 % of the basis function pairs === 
 === bvk cell = 35 has 0.000 % of the basis function pairs === 
 === bvk cell = 36 has 0.000 % of the basis function pairs === 
 === bvk cell = 37 has 0.000 % of the basis function pairs === 
 === bvk cell = 38 has 0.000 % of the basis function pairs === 
 === bvk cell = 39 has 0.000 % of the basis function pairs === 
 === bvk cell = 40 has 2.479 % of the basis function pairs === 
 === bvk cell = 41 has 0.000 % of the basis function pairs === 
 === bvk cell = 42 has 0.000 % of the basis function pairs === 
 === bvk cell = 43 has 0.000 % of the basis function pairs === 
 === bvk cell = 44 has 0.000 % of the basis function pairs === 
 === bvk cell = 45 has 64.463 % of the basis function pairs === 
 === bvk cell = 46 has 4.132 % of the basis function pairs === 
 === bvk cell = 47 has 0.000 % of the basis function pairs === 
 === bvk cell = 48 has 0.000 % of the basis function pairs === 
 === bvk cell = 49 has 9.091 % of the basis function pairs === 
 === bvk cell = 50 has 0.000 % of the basis function pairs === 
 === bvk cell = 51 has 0.000 % of the basis function pairs === 
 === bvk cell = 52 has 0.000 % of the basis function pairs === 
 === bvk cell = 53 has 0.000 % of the basis function pairs === 
 === bvk cell = 54 has 0.000 % of the basis function pairs === 
 === bvk cell = 55 has 0.000 % of the basis function pairs === 
 === bvk cell = 56 has 0.000 % of the basis function pairs === 
 === bvk cell = 57 has 0.000 % of the basis function pairs === 
 === bvk cell = 58 has 0.000 % of the basis function pairs === 
 === bvk cell = 59 has 0.000 % of the basis function pairs === 
 === bvk cell = 60 has 0.000 % of the basis function pairs === 
 === bvk cell = 61 has 0.000 % of the basis function pairs === 
 === bvk cell = 62 has 0.000 % of the basis function pairs === 
 === bvk cell = 63 has 0.000 % of the basis function pairs === 
 === bvk cell = 64 has 0.000 % of the basis function pairs === 
 === bvk cell = 65 has 0.000 % of the basis function pairs === 
 === bvk cell = 66 has 0.000 % of the basis function pairs === 
 === bvk cell = 67 has 0.000 % of the basis function pairs === 
 === bvk cell = 68 has 0.000 % of the basis function pairs === 
 === bvk cell = 69 has 0.000 % of the basis function pairs === 
 === bvk cell = 70 has 0.000 % of the basis function pairs === 
 === bvk cell = 71 has 0.000 % of the basis function pairs === 
 === bvk cell = 72 has 0.000 % of the basis function pairs === 
 === bvk cell = 73 has 0.000 % of the basis function pairs === 
 === bvk cell = 74 has 2.479 % of the basis function pairs === 
 === bvk cell = 75 has 0.000 % of the basis function pairs === 
 === bvk cell = 76 has 0.000 % of the basis function pairs === 
 === bvk cell = 77 has 0.000 % of the basis function pairs === 
 === bvk cell = 78 has 0.000 % of the basis function pairs === 
 === bvk cell = 79 has 0.000 % of the basis function pairs === 
 === bvk cell = 80 has 0.000 % of the basis function pairs === 
 === bvk cell = 81 has 28.099 % of the basis function pairs === 
 === bvk cell = 82 has 0.000 % of the basis function pairs === 
 === bvk cell = 83 has 0.000 % of the basis function pairs === 
 === bvk cell = 84 has 0.000 % of the basis function pairs === 
 === bvk cell = 85 has 0.000 % of the basis function pairs === 
 === bvk cell = 86 has 0.000 % of the basis function pairs === 
 === bvk cell = 87 has 0.000 % of the basis function pairs === 
 === bvk cell = 88 has 0.000 % of the basis function pairs === 
 === bvk cell = 89 has 0.000 % of the basis function pairs === 
 === bvk cell = 90 has 0.000 % of the basis function pairs === 
 === bvk cell = 91 has 0.000 % of the basis function pairs === 
 === bvk cell = 92 has 0.000 % of the basis function pairs === 
 === bvk cell = 93 has 0.000 % of the basis function pairs === 
 === bvk cell = 94 has 0.000 % of the basis function pairs === 
 === bvk cell = 95 has 0.000 % of the basis function pairs === 
 === bvk cell = 96 has 0.000 % of the basis function pairs === 
 === bvk cell = 97 has 0.000 % of the basis function pairs === 
 === bvk cell = 98 has 0.000 % of the basis function pairs === 
 === bvk cell = 99 has 0.000 % of the basis function pairs === 
 === bvk cell = 100 has 90.083 % of the basis function pairs === 
 === bvk cell = 101 has 87.603 % of the basis function pairs === 
 === bvk cell = 102 has 28.099 % of the basis function pairs === 
 === bvk cell = 103 has 0.000 % of the basis function pairs === 
 === bvk cell = 104 has 0.000 % of the basis function pairs === 
 === bvk cell = 105 has 87.603 % of the basis function pairs === 
 === bvk cell = 106 has 32.231 % of the basis function pairs === 
 === bvk cell = 107 has 0.000 % of the basis function pairs === 
 === bvk cell = 108 has 0.000 % of the basis function pairs === 
 === bvk cell = 109 has 4.132 % of the basis function pairs === 
 === bvk cell = 110 has 28.099 % of the basis function pairs === 
 === bvk cell = 111 has 0.000 % of the basis function pairs === 
 === bvk cell = 112 has 0.000 % of the basis function pairs === 
 === bvk cell = 113 has 0.000 % of the basis function pairs === 
 === bvk cell = 114 has 0.000 % of the basis function pairs === 
 === bvk cell = 115 has 0.000 % of the basis function pairs === 
 === bvk cell = 116 has 0.000 % of the basis function pairs === 
 === bvk cell = 117 has 0.000 % of the basis function pairs === 
 === bvk cell = 118 has 0.000 % of the basis function pairs === 
 === bvk cell = 119 has 0.000 % of the basis function pairs === 
 === bvk cell = 120 has 0.000 % of the basis function pairs === 
 === bvk cell = 121 has 4.132 % of the basis function pairs === 
 === bvk cell = 122 has 0.000 % of the basis function pairs === 
 === bvk cell = 123 has 0.000 % of the basis function pairs === 
 === bvk cell = 124 has 0.000 % of the basis function pairs === 
Static memory requirement for 2e3c SR integrals: 0.001 GB
There are 1 munu batches for computing 2e3c SR integrals with latsum
There are 2 Q batches for computing 2e3c SR integrals with latsum
 Time for computing 2e3c SR integral (CC) is 0.05 s
 Time for RI-J this SCF iteration is 4.60 s
 Time for RI-J this SCF iteration is 3.74 s
 ----------------------------------------------
 Guess energy: -107.3133670966
 ----------------------------------------------
 Guess energy components:
 DFT Correlation    Energy =  -0.39454789577556
 DFT Exchange       Energy = -12.07957837924022
 Kinetic            Energy = 107.66464880598868
 Nuclear Attraction Energy = -200.14629855203358
 Nuclear Repulsion  Energy = -31.10949437582012
 Total Coulomb      Energy =  28.75190330032250
 ----------------------------------------------
  Cycle       Energy        RMS Gradient
 ----------------------------------------------
 Time for RI-J this SCF iteration is 3.77 s
    1    -107.3242290229      1.33e-01   Descent step
 Energy components after cycle 1:
 DFT Correlation    Energy =  -0.39434721726186
 DFT Exchange       Energy = -12.02384928389225
 Kinetic            Energy = 107.23681860285451
 Nuclear Attraction Energy = -199.39415055956451
 Nuclear Repulsion  Energy = -31.10949437582012
 Total Coulomb      Energy =  28.36079381075234
 Time for RI-J this SCF iteration is 3.74 s
    2    -107.3302474120      8.44e-02   Descent step
 Energy components after cycle 2:
 DFT Correlation    Energy =  -0.39422204234522
 DFT Exchange       Energy = -11.96907521450181
 Kinetic            Energy = 106.81529663108650
 Nuclear Attraction Energy = -198.64786102473238
 Nuclear Repulsion  Energy = -31.10949437582012
 Total Coulomb      Energy =  27.97510861428664
 Time for RI-J this SCF iteration is 3.84 s
    3    -107.3316563362      3.60e-02   Normal BFGS step
 Energy components after cycle 3:
 DFT Correlation    Energy =  -0.39413681260805
 DFT Exchange       Energy = -11.93138679730806
 Kinetic            Energy = 106.52592505368058
 Nuclear Attraction Energy = -198.11521440371070
 Nuclear Repulsion  Energy = -31.10949437582012
 Total Coulomb      Energy =  27.69265099953128
 Time for RI-J this SCF iteration is 3.73 s
    4    -107.3316578631      8.11e-04   Normal BFGS step
 Energy components after cycle 4:
 DFT Correlation    Energy =  -0.39413552564739
 DFT Exchange       Energy = -11.93131030415846
 Kinetic            Energy = 106.52251406715054
 Nuclear Attraction Energy = -198.11344382274825
 Nuclear Repulsion  Energy = -31.10949437582012
 Total Coulomb      Energy =  27.69421209816441
 Time for RI-J this SCF iteration is 3.73 s
    5    -107.3316578822      1.26e-04   Normal BFGS step
 Energy components after cycle 5:
 DFT Correlation    Energy =  -0.39413515674990
 DFT Exchange       Energy = -11.93141446876952
 Kinetic            Energy = 106.52341791338448
 Nuclear Attraction Energy = -198.11463290042278
 Nuclear Repulsion  Energy = -31.10949437582012
 Total Coulomb      Energy =  27.69460110617838
 Time for RI-J this SCF iteration is 3.77 s
    6    -107.3316578822      4.33e-06   Normal BFGS step
 Energy components after cycle 6:
 DFT Correlation    Energy =  -0.39413516402580
 DFT Exchange       Energy = -11.93140770874159
 Kinetic            Energy = 106.52337473581279
 Nuclear Attraction Energy = -198.11456055539057
 Nuclear Repulsion  Energy = -31.10949437582012
 Total Coulomb      Energy =  27.69456518592757
    6    -107.3316578822      4.33e-06  Convergence criterion met
 ----------------------------------------------
 Final energy components:
 DFT Correlation    Energy =  -0.39413516402580
 DFT Exchange       Energy = -11.93140770874159
 Kinetic            Energy = 106.52337473581279
 Nuclear Attraction Energy = -198.11456055539057
 Nuclear Repulsion  Energy = -31.10949437582012
 Total Coulomb      Energy =  27.69456518592757
 ----------------------------------------------
 Final energy is -107.3316578822

 SCF time:   CPU 2687.61s  wall 114.00s 
 Total wall time for computing Kinetic: 0.00 s (8)
 Total wall time for computing RIJ-BIGMEM: 30.94 s (8)
 Total wall time for computing RSDF Vnuc: 0.00 s (8)
 Total wall time for computing DFT XC: 11.60 s (8)
 ---------------------------------------------------------------------------
                        Orbital Energies (a.u.)
 ---------------------------------------------------------------------------
 == 0-th k-point (-0.33166,-0.33166,-0.33166) occupation: 6==
 -23.88043 -1.46644 -0.66158 -0.04967 0.02826 0.02826 0.44411 0.68473 0.74943 0.74943
 1.53373 1.63308 1.63308 1.71720 1.71720 2.04442 2.69044 3.37049 3.37049 3.51537
 3.72235 3.72235
 == 1-th k-point (-0.16583,-0.16583,-0.49749) occupation: 6==
 -23.88042 -1.46642 -0.65947 -0.04052 0.00887 0.01566 0.48998 0.67232 0.77099 0.77782
 1.21425 1.54449 1.59438 1.82164 2.00739 2.03897 2.63181 3.34971 3.37906 3.50124
 3.52008 3.60120
 == 2-th k-point (-0.00000,0.00000,-0.66333) occupation: 6==
 -23.88028 -1.46586 -0.65229 -0.06469 0.00195 0.00195 0.55530 0.73104 0.78769 0.78769
 1.57366 1.77826 1.77826 1.80812 2.39859 2.39859 2.68156 3.31124 3.31597 3.44647
 3.44647 3.50340
 == 3-th k-point (0.16583,0.16583,-0.82916) occupation: 6==
 -23.88024 -1.46557 -0.64994 -0.06402 -0.01616 0.00501 0.58631 0.62176 0.74380 0.77347
 1.24867 1.52839 1.75498 1.77705 2.12810 2.43474 2.53120 3.31609 3.42157 3.43031
 3.49802 3.51175
 == 4-th k-point (0.33166,0.33166,-0.99499) occupation: 6==
 -23.88035 -1.46596 -0.65588 -0.05018 -0.00693 0.02104 0.49863 0.62488 0.75263 0.77199
 1.35235 1.58853 1.60232 1.72410 2.14358 2.25375 2.44731 3.34618 3.44270 3.50146
 3.50918 3.62949
 == 5-th k-point (-0.16583,-0.49749,-0.16583) occupation: 6==
 -23.88042 -1.46642 -0.65947 -0.04052 0.00887 0.01566 0.48998 0.67232 0.77099 0.77782
 1.21425 1.54449 1.59438 1.82164 2.00739 2.03897 2.63181 3.34971 3.37906 3.50124
 3.52008 3.60120
 == 6-th k-point (-0.00000,-0.33166,-0.33166) occupation: 6==
 -23.88052 -1.46681 -0.66372 -0.02323 0.00364 0.03164 0.46249 0.65833 0.77922 0.80179
 1.17331 1.55933 1.69957 1.84549 2.00606 2.37352 2.61906 3.31602 3.39602 3.52049
 3.52898 3.72756
 == 7-th k-point (0.16583,-0.16583,-0.49749) occupation: 6==
 -23.88042 -1.46642 -0.65947 -0.04052 0.00887 0.01566 0.48998 0.67232 0.77099 0.77782
 1.21425 1.54449 1.59438 1.82164 2.00739 2.03897 2.63181 3.34971 3.37906 3.50124
 3.52008 3.60120
 == 8-th k-point (0.33166,0.00000,-0.66333) occupation: 6==
 -23.88055 -1.46573 -0.65225 -0.04783 -0.02513 0.01033 0.55525 0.61421 0.72168 0.78520
 1.22296 1.40201 1.57686 1.81368 2.13129 2.37833 2.70316 3.31744 3.42430 3.46565
 3.50139 3.51168
 == 9-th k-point (0.49749,0.16583,-0.82916) occupation: 6==
 -23.88055 -1.46573 -0.65225 -0.04783 -0.02513 0.01033 0.55525 0.61421 0.72168 0.78520
 1.22296 1.40201 1.57686 1.81368 2.13129 2.37833 2.70316 3.31744 3.42430 3.46565
 3.50139 3.51168
 == 10-th k-point (-0.00000,-0.66333,-0.00000) occupation: 6==
 -23.88028 -1.46586 -0.65229 -0.06469 0.00195 0.00195 0.55530 0.73104 0.78769 0.78769
 1.57366 1.77826 1.77826 1.80812 2.39859 2.39859 2.68156 3.31124 3.31597 3.44647
 3.44647 3.50340
 == 11-th k-point (0.16583,-0.49749,-0.16583) occupation: 6==
 -23.88042 -1.46642 -0.65947 -0.04052 0.00887 0.01566 0.48998 0.67232 0.77099 0.77782
 1.21425 1.54449 1.59438 1.82164 2.00739 2.03897 2.63181 3.34971 3.37906 3.50124
 3.52008 3.60120
 == 12-th k-point (0.33166,-0.33166,-0.33166) occupation: 6==
 -23.88043 -1.46644 -0.66158 -0.04967 0.02826 0.02826 0.44411 0.68473 0.74943 0.74943
 1.53373 1.63308 1.63308 1.71720 1.71720 2.04441 2.69044 3.37049 3.37049 3.51537
 3.72235 3.72235
 == 13-th k-point (0.49749,-0.16583,-0.49749) occupation: 6==
 -23.88035 -1.46596 -0.65588 -0.05018 -0.00693 0.02104 0.49863 0.62488 0.75263 0.77199
 1.35235 1.58853 1.60232 1.72410 2.14358 2.25376 2.44731 3.34618 3.44270 3.50146
 3.50918 3.62949
 == 14-th k-point (0.66333,0.00000,-0.66333) occupation: 6==
 -23.88024 -1.46557 -0.64994 -0.06402 -0.01616 0.00501 0.58631 0.62176 0.74380 0.77347
 1.24867 1.52839 1.75498 1.77705 2.12810 2.43474 2.53120 3.31609 3.42157 3.43031
 3.49802 3.51175
 == 15-th k-point (0.16583,-0.82916,0.16583) occupation: 6==
 -23.88024 -1.46557 -0.64994 -0.06402 -0.01616 0.00501 0.58631 0.62176 0.74380 0.77347
 1.24867 1.52839 1.75498 1.77705 2.12810 2.43474 2.53120 3.31609 3.42157 3.43031
 3.49802 3.51175
 == 16-th k-point (0.33166,-0.66333,-0.00000) occupation: 6==
 -23.88055 -1.46573 -0.65225 -0.04783 -0.02513 0.01033 0.55525 0.61421 0.72168 0.78520
 1.22296 1.40201 1.57686 1.81368 2.13129 2.37833 2.70316 3.31744 3.42430 3.46565
 3.50139 3.51168
 == 17-th k-point (0.49749,-0.49749,-0.16583) occupation: 6==
 -23.88035 -1.46596 -0.65588 -0.05018 -0.00693 0.02104 0.49863 0.62488 0.75263 0.77199
 1.35235 1.58853 1.60232 1.72410 2.14358 2.25376 2.44731 3.34618 3.44270 3.50146
 3.50918 3.62949
 == 18-th k-point (0.66333,-0.33166,-0.33166) occupation: 6==
 -23.88035 -1.46596 -0.65588 -0.05018 -0.00693 0.02104 0.49863 0.62488 0.75263 0.77199
 1.35235 1.58853 1.60232 1.72410 2.14358 2.25375 2.44731 3.34618 3.44270 3.50146
 3.50918 3.62949
 == 19-th k-point (0.82916,-0.16583,-0.49749) occupation: 6==
 -23.88055 -1.46573 -0.65225 -0.04783 -0.02513 0.01033 0.55525 0.61421 0.72168 0.78520
 1.22296 1.40201 1.57686 1.81368 2.13129 2.37833 2.70316 3.31744 3.42430 3.46565
 3.50139 3.51168
 == 20-th k-point (0.33166,-0.99499,0.33166) occupation: 6==
 -23.88035 -1.46596 -0.65588 -0.05018 -0.00693 0.02104 0.49863 0.62488 0.75263 0.77199
 1.35235 1.58853 1.60232 1.72410 2.14358 2.25375 2.44731 3.34618 3.44270 3.50146
 3.50918 3.62949
 == 21-th k-point (0.49749,-0.82916,0.16583) occupation: 6==
 -23.88055 -1.46573 -0.65225 -0.04783 -0.02513 0.01033 0.55525 0.61421 0.72168 0.78520
 1.22296 1.40201 1.57686 1.81368 2.13129 2.37833 2.70316 3.31744 3.42430 3.46565
 3.50139 3.51168
 == 22-th k-point (0.66333,-0.66333,-0.00000) occupation: 6==
 -23.88024 -1.46557 -0.64994 -0.06402 -0.01616 0.00501 0.58631 0.62176 0.74380 0.77347
 1.24867 1.52839 1.75498 1.77705 2.12810 2.43474 2.53120 3.31609 3.42157 3.43031
 3.49802 3.51175
 == 23-th k-point (0.82916,-0.49749,-0.16583) occupation: 6==
 -23.88055 -1.46573 -0.65225 -0.04783 -0.02513 0.01033 0.55525 0.61421 0.72168 0.78520
 1.22296 1.40201 1.57686 1.81368 2.13129 2.37833 2.70316 3.31744 3.42430 3.46565
 3.50139 3.51168
 == 24-th k-point (0.99499,-0.33166,-0.33166) occupation: 6==
 -23.88035 -1.46596 -0.65588 -0.05018 -0.00693 0.02104 0.49863 0.62488 0.75263 0.77199
 1.35235 1.58853 1.60232 1.72410 2.14358 2.25375 2.44731 3.34618 3.44270 3.50146
 3.50918 3.62949
 == 25-th k-point (-0.49749,-0.16583,-0.16583) occupation: 6==
 -23.88042 -1.46642 -0.65947 -0.04052 0.00887 0.01566 0.48998 0.67232 0.77099 0.77782
 1.21425 1.54449 1.59438 1.82164 2.00739 2.03897 2.63181 3.34971 3.37906 3.50124
 3.52008 3.60120
 == 26-th k-point (-0.33166,0.00000,-0.33166) occupation: 6==
 -23.88052 -1.46681 -0.66372 -0.02323 0.00364 0.03164 0.46249 0.65833 0.77922 0.80179
 1.17331 1.55933 1.69957 1.84549 2.00606 2.37352 2.61906 3.31602 3.39602 3.52049
 3.52898 3.72756
 == 27-th k-point (-0.16583,0.16583,-0.49749) occupation: 6==
 -23.88042 -1.46642 -0.65947 -0.04052 0.00887 0.01566 0.48998 0.67232 0.77099 0.77782
 1.21425 1.54449 1.59438 1.82164 2.00739 2.03897 2.63181 3.34971 3.37906 3.50124
 3.52008 3.60120
 == 28-th k-point (-0.00000,0.33166,-0.66333) occupation: 6==
 -23.88055 -1.46573 -0.65225 -0.04783 -0.02513 0.01033 0.55525 0.61421 0.72168 0.78520
 1.22296 1.40201 1.57686 1.81368 2.13129 2.37833 2.70316 3.31744 3.42430 3.46565
 3.50139 3.51168
 == 29-th k-point (0.16583,0.49749,-0.82916) occupation: 6==
 -23.88055 -1.46573 -0.65225 -0.04783 -0.02513 0.01033 0.55525 0.61421 0.72168 0.78520
 1.22296 1.40201 1.57686 1.81368 2.13129 2.37833 2.70316 3.31744 3.42430 3.46565
 3.50139 3.51168
 == 30-th k-point (-0.33166,-0.33166,-0.00000) occupation: 6==
 -23.88052 -1.46681 -0.66372 -0.02323 0.00364 0.03164 0.46249 0.65833 0.77922 0.80179
 1.17331 1.55933 1.69957 1.84549 2.00606 2.37352 2.61906 3.31602 3.39602 3.52049
 3.52898 3.72756
 == 31-th k-point (-0.16583,-0.16583,-0.16583) occupation: 6==
 -23.88062 -1.46779 -0.67154 -0.00000 0.03281 0.03281 0.41920 0.77113 0.83057 0.83057
 1.26795 1.42974 1.42974 1.77625 1.77625 1.92288 2.74958 3.34832 3.34832 3.54204
 3.66906 3.66906
 == 32-th k-point (-0.00000,0.00000,-0.33166) occupation: 6==
 -23.88060 -1.46753 -0.66910 0.00001 0.02262 0.02262 0.44060 0.81715 0.81715 0.82868
 1.39002 1.39002 1.58403 1.97712 1.97712 2.02136 2.77970 3.31121 3.31598 3.48593
 3.62528 3.62528
 == 33-th k-point (0.16583,0.16583,-0.49749) occupation: 6==
 -23.88042 -1.46642 -0.65947 -0.04052 0.00887 0.01566 0.48998 0.67232 0.77099 0.77782
 1.21425 1.54449 1.59438 1.82164 2.00739 2.03897 2.63181 3.34971 3.37906 3.50124
 3.52008 3.60120
 == 34-th k-point (0.33166,0.33166,-0.66333) occupation: 6==
 -23.88035 -1.46596 -0.65588 -0.05018 -0.00693 0.02104 0.49863 0.62488 0.75263 0.77199
 1.35235 1.58853 1.60232 1.72410 2.14358 2.25375 2.44731 3.34618 3.44270 3.50146
 3.50918 3.62949
 == 35-th k-point (-0.16583,-0.49749,0.16583) occupation: 6==
 -23.88042 -1.46642 -0.65947 -0.04052 0.00887 0.01566 0.48998 0.67232 0.77099 0.77782
 1.21425 1.54449 1.59438 1.82164 2.00739 2.03897 2.63181 3.34971 3.37906 3.50124
 3.52008 3.60120
 == 36-th k-point (-0.00000,-0.33166,-0.00000) occupation: 6==
 -23.88060 -1.46753 -0.66910 0.00001 0.02262 0.02262 0.44060 0.81715 0.81715 0.82868
 1.39002 1.39002 1.58403 1.97712 1.97712 2.02136 2.77970 3.31121 3.31598 3.48593
 3.62528 3.62528
 == 37-th k-point (0.16583,-0.16583,-0.16583) occupation: 6==
 -23.88062 -1.46779 -0.67154 -0.00000 0.03281 0.03281 0.41920 0.77113 0.83057 0.83057
 1.26795 1.42974 1.42974 1.77625 1.77625 1.92288 2.74958 3.34832 3.34832 3.54204
 3.66906 3.66906
 == 38-th k-point (0.33166,0.00000,-0.33166) occupation: 6==
 -23.88052 -1.46681 -0.66372 -0.02323 0.00364 0.03164 0.46249 0.65833 0.77922 0.80179
 1.17331 1.55933 1.69957 1.84549 2.00606 2.37352 2.61906 3.31602 3.39602 3.52049
 3.52898 3.72756
 == 39-th k-point (0.49749,0.16583,-0.49749) occupation: 6==
 -23.88035 -1.46596 -0.65588 -0.05018 -0.00693 0.02104 0.49863 0.62488 0.75263 0.77199
 1.35235 1.58853 1.60232 1.72410 2.14358 2.25376 2.44731 3.34618 3.44270 3.50146
 3.50918 3.62949
 == 40-th k-point (0.00000,-0.66333,0.33166) occupation: 6==
 -23.88055 -1.46573 -0.65225 -0.04783 -0.02513 0.01033 0.55525 0.61421 0.72168 0.78520
 1.22296 1.40201 1.57686 1.81368 2.13129 2.37833 2.70316 3.31744 3.42430 3.46565
 3.50139 3.51168
 == 41-th k-point (0.16583,-0.49749,0.16583) occupation: 6==
 -23.88042 -1.46642 -0.65947 -0.04052 0.00887 0.01566 0.48998 0.67232 0.77099 0.77782
 1.21425 1.54449 1.59438 1.82164 2.00739 2.03897 2.63181 3.34971 3.37906 3.50124
 3.52008 3.60120
 == 42-th k-point (0.33166,-0.33166,-0.00000) occupation: 6==
 -23.88052 -1.46681 -0.66372 -0.02323 0.00364 0.03164 0.46249 0.65833 0.77922 0.80179
 1.17331 1.55933 1.69957 1.84549 2.00606 2.37352 2.61906 3.31602 3.39602 3.52049
 3.52898 3.72756
 == 43-th k-point (0.49749,-0.16583,-0.16583) occupation: 6==
 -23.88042 -1.46642 -0.65947 -0.04052 0.00887 0.01566 0.48998 0.67232 0.77099 0.77782
 1.21425 1.54449 1.59438 1.82164 2.00739 2.03897 2.63181 3.34971 3.37906 3.50124
 3.52008 3.60120
 == 44-th k-point (0.66333,0.00000,-0.33166) occupation: 6==
 -23.88055 -1.46573 -0.65225 -0.04783 -0.02513 0.01033 0.55525 0.61421 0.72168 0.78520
 1.22296 1.40201 1.57686 1.81368 2.13129 2.37833 2.70316 3.31744 3.42430 3.46565
 3.50139 3.51168
 == 45-th k-point (0.16583,-0.82916,0.49749) occupation: 6==
 -23.88055 -1.46573 -0.65225 -0.04783 -0.02513 0.01033 0.55525 0.61421 0.72168 0.78520
 1.22296 1.40201 1.57686 1.81368 2.13129 2.37833 2.70316 3.31744 3.42430 3.46565
 3.50139 3.51168
 == 46-th k-point (0.33166,-0.66333,0.33166) occupation: 6==
 -23.88035 -1.46596 -0.65588 -0.05018 -0.00693 0.02104 0.49863 0.62488 0.75263 0.77199
 1.35235 1.58853 1.60232 1.72410 2.14358 2.25375 2.44731 3.34618 3.44270 3.50146
 3.50918 3.62949
 == 47-th k-point (0.49749,-0.49749,0.16583) occupation: 6==
 -23.88035 -1.46596 -0.65588 -0.05018 -0.00693 0.02104 0.49863 0.62488 0.75263 0.77199
 1.35235 1.58853 1.60232 1.72410 2.14358 2.25376 2.44731 3.34618 3.44270 3.50146
 3.50918 3.62949
 == 48-th k-point (0.66333,-0.33166,-0.00000) occupation: 6==
 -23.88055 -1.46573 -0.65225 -0.04783 -0.02513 0.01033 0.55525 0.61421 0.72168 0.78520
 1.22296 1.40201 1.57686 1.81368 2.13129 2.37833 2.70316 3.31744 3.42430 3.46565
 3.50139 3.51168
 == 49-th k-point (0.82916,-0.16583,-0.16583) occupation: 6==
 -23.88024 -1.46557 -0.64994 -0.06402 -0.01616 0.00501 0.58631 0.62176 0.74380 0.77347
 1.24867 1.52839 1.75498 1.77705 2.12810 2.43474 2.53120 3.31609 3.42157 3.43031
 3.49802 3.51175
 == 50-th k-point (-0.66333,0.00000,0.00000) occupation: 6==
 -23.88028 -1.46586 -0.65229 -0.06469 0.00195 0.00195 0.55530 0.73104 0.78769 0.78769
 1.57366 1.77826 1.77826 1.80812 2.39859 2.39859 2.68156 3.31124 3.31597 3.44647
 3.44647 3.50340
 == 51-th k-point (-0.49749,0.16583,-0.16583) occupation: 6==
 -23.88042 -1.46642 -0.65947 -0.04052 0.00887 0.01566 0.48998 0.67232 0.77099 0.77782
 1.21425 1.54449 1.59438 1.82164 2.00739 2.03897 2.63181 3.34971 3.37906 3.50124
 3.52008 3.60120
 == 52-th k-point (-0.33166,0.33166,-0.33166) occupation: 6==
 -23.88043 -1.46644 -0.66158 -0.04967 0.02826 0.02826 0.44411 0.68473 0.74943 0.74943
 1.53373 1.63308 1.63308 1.71720 1.71720 2.04441 2.69044 3.37049 3.37049 3.51537
 3.72235 3.72235
 == 53-th k-point (-0.16583,0.49749,-0.49749) occupation: 6==
 -23.88035 -1.46596 -0.65588 -0.05018 -0.00693 0.02104 0.49863 0.62488 0.75263 0.77199
 1.35235 1.58853 1.60232 1.72410 2.14358 2.25376 2.44731 3.34618 3.44270 3.50146
 3.50918 3.62949
 == 54-th k-point (-0.00000,0.66333,-0.66333) occupation: 6==
 -23.88024 -1.46557 -0.64994 -0.06402 -0.01616 0.00501 0.58631 0.62176 0.74380 0.77347
 1.24867 1.52839 1.75498 1.77705 2.12810 2.43474 2.53120 3.31609 3.42157 3.43031
 3.49802 3.51175
 == 55-th k-point (-0.49749,-0.16583,0.16583) occupation: 6==
 -23.88042 -1.46642 -0.65947 -0.04052 0.00887 0.01566 0.48998 0.67232 0.77099 0.77782
 1.21425 1.54449 1.59438 1.82164 2.00739 2.03897 2.63181 3.34971 3.37906 3.50124
 3.52008 3.60120
 == 56-th k-point (-0.33166,0.00000,0.00000) occupation: 6==
 -23.88060 -1.46753 -0.66910 0.00001 0.02262 0.02262 0.44060 0.81715 0.81715 0.82868
 1.39002 1.39002 1.58403 1.97712 1.97712 2.02136 2.77970 3.31121 3.31598 3.48593
 3.62528 3.62528
 == 57-th k-point (-0.16583,0.16583,-0.16583) occupation: 6==
 -23.88062 -1.46779 -0.67154 -0.00000 0.03281 0.03281 0.41920 0.77113 0.83057 0.83057
 1.26795 1.42974 1.42974 1.77625 1.77625 1.92288 2.74958 3.34832 3.34832 3.54204
 3.66906 3.66906
 == 58-th k-point (-0.00000,0.33166,-0.33166) occupation: 6==
 -23.88052 -1.46681 -0.66372 -0.02323 0.00364 0.03164 0.46249 0.65833 0.77922 0.80179
 1.17331 1.55933 1.69957 1.84549 2.00606 2.37352 2.61906 3.31602 3.39602 3.52049
 3.52898 3.72756
 == 59-th k-point (0.16583,0.49749,-0.49749) occupation: 6==
 -23.88035 -1.46596 -0.65588 -0.05018 -0.00693 0.02104 0.49863 0.62488 0.75263 0.77199
 1.35235 1.58853 1.60232 1.72410 2.14358 2.25376 2.44731 3.34618 3.44270 3.50146
 3.50918 3.62949
 == 60-th k-point (-0.33166,-0.33166,0.33166) occupation: 6==
 -23.88043 -1.46644 -0.66158 -0.04967 0.02826 0.02826 0.44411 0.68473 0.74943 0.74943
 1.53373 1.63308 1.63308 1.71720 1.71720 2.04441 2.69044 3.37049 3.37049 3.51537
 3.72235 3.72235
 == 61-th k-point (-0.16583,-0.16583,0.16583) occupation: 6==
 -23.88062 -1.46779 -0.67154 -0.00000 0.03281 0.03281 0.41920 0.77113 0.83057 0.83057
 1.26795 1.42974 1.42974 1.77625 1.77625 1.92288 2.74958 3.34832 3.34832 3.54204
 3.66906 3.66906
 == 62-th k-point (0.00000,0.00000,0.00000) occupation: 6==
 -23.88070 -1.46861 -0.67726 0.03566 0.03566 0.03566 0.38862 0.92691 0.92691 0.92691
 1.89918 1.89918 1.89918 2.74642 3.22139 3.22139 3.22149 3.31119 3.31119 3.31598
 3.31598 3.31598
 == 63-th k-point (0.16583,0.16583,-0.16583) occupation: 6==
 -23.88062 -1.46779 -0.67154 -0.00000 0.03281 0.03281 0.41920 0.77113 0.83057 0.83057
 1.26795 1.42974 1.42974 1.77625 1.77625 1.92288 2.74958 3.34832 3.34832 3.54204
 3.66906 3.66906
 == 64-th k-point (0.33166,0.33166,-0.33166) occupation: 6==
 -23.88043 -1.46644 -0.66158 -0.04967 0.02826 0.02826 0.44411 0.68473 0.74943 0.74943
 1.53373 1.63308 1.63308 1.71720 1.71720 2.04441 2.69044 3.37049 3.37049 3.51537
 3.72235 3.72235
 == 65-th k-point (-0.16583,-0.49749,0.49749) occupation: 6==
 -23.88035 -1.46596 -0.65588 -0.05018 -0.00693 0.02104 0.49863 0.62488 0.75263 0.77199
 1.35235 1.58853 1.60232 1.72410 2.14358 2.25376 2.44731 3.34618 3.44270 3.50146
 3.50918 3.62949
 == 66-th k-point (0.00000,-0.33166,0.33166) occupation: 6==
 -23.88052 -1.46681 -0.66372 -0.02323 0.00364 0.03164 0.46249 0.65833 0.77922 0.80179
 1.17331 1.55933 1.69957 1.84549 2.00606 2.37352 2.61906 3.31602 3.39602 3.52049
 3.52898 3.72756
 == 67-th k-point (0.16583,-0.16583,0.16583) occupation: 6==
 -23.88062 -1.46779 -0.67154 -0.00000 0.03281 0.03281 0.41920 0.77113 0.83057 0.83057
 1.26795 1.42974 1.42974 1.77625 1.77625 1.92288 2.74958 3.34832 3.34832 3.54204
 3.66906 3.66906
 == 68-th k-point (0.33166,-0.00000,0.00000) occupation: 6==
 -23.88060 -1.46753 -0.66910 0.00001 0.02262 0.02262 0.44060 0.81715 0.81715 0.82868
 1.39002 1.39002 1.58403 1.97712 1.97712 2.02136 2.77970 3.31121 3.31598 3.48593
 3.62528 3.62528
 == 69-th k-point (0.49749,0.16583,-0.16583) occupation: 6==
 -23.88042 -1.46642 -0.65947 -0.04052 0.00887 0.01566 0.48998 0.67232 0.77099 0.77782
 1.21425 1.54449 1.59438 1.82164 2.00739 2.03897 2.63181 3.34971 3.37906 3.50124
 3.52008 3.60120
 == 70-th k-point (0.00000,-0.66333,0.66333) occupation: 6==
 -23.88024 -1.46557 -0.64994 -0.06402 -0.01616 0.00501 0.58631 0.62176 0.74380 0.77347
 1.24867 1.52839 1.75498 1.77705 2.12810 2.43474 2.53120 3.31609 3.42157 3.43031
 3.49802 3.51175
 == 71-th k-point (0.16583,-0.49749,0.49749) occupation: 6==
 -23.88035 -1.46596 -0.65588 -0.05018 -0.00693 0.02104 0.49863 0.62488 0.75263 0.77199
 1.35235 1.58853 1.60232 1.72410 2.14358 2.25376 2.44731 3.34618 3.44270 3.50146
 3.50918 3.62949
 == 72-th k-point (0.33166,-0.33166,0.33166) occupation: 6==
 -23.88043 -1.46644 -0.66158 -0.04967 0.02826 0.02826 0.44411 0.68473 0.74943 0.74943
 1.53373 1.63308 1.63308 1.71720 1.71720 2.04441 2.69044 3.37049 3.37049 3.51537
 3.72235 3.72235
 == 73-th k-point (0.49749,-0.16583,0.16583) occupation: 6==
 -23.88042 -1.46642 -0.65947 -0.04052 0.00887 0.01566 0.48998 0.67232 0.77099 0.77782
 1.21425 1.54449 1.59438 1.82164 2.00739 2.03897 2.63181 3.34971 3.37906 3.50124
 3.52008 3.60120
 == 74-th k-point (0.66333,-0.00000,0.00000) occupation: 6==
 -23.88028 -1.46586 -0.65229 -0.06469 0.00195 0.00195 0.55530 0.73104 0.78769 0.78769
 1.57366 1.77826 1.77826 1.80812 2.39859 2.39859 2.68156 3.31124 3.31597 3.44647
 3.44647 3.50340
 == 75-th k-point (-0.82916,0.16583,0.16583) occupation: 6==
 -23.88024 -1.46557 -0.64994 -0.06402 -0.01616 0.00501 0.58631 0.62176 0.74380 0.77347
 1.24867 1.52839 1.75498 1.77705 2.12810 2.43474 2.53120 3.31609 3.42157 3.43031
 3.49802 3.51175
 == 76-th k-point (-0.66333,0.33166,0.00000) occupation: 6==
 -23.88055 -1.46573 -0.65225 -0.04783 -0.02513 0.01033 0.55525 0.61421 0.72168 0.78520
 1.22296 1.40201 1.57686 1.81368 2.13129 2.37833 2.70316 3.31744 3.42430 3.46565
 3.50139 3.51168
 == 77-th k-point (-0.49749,0.49749,-0.16583) occupation: 6==
 -23.88035 -1.46596 -0.65588 -0.05018 -0.00693 0.02104 0.49863 0.62488 0.75263 0.77199
 1.35235 1.58853 1.60232 1.72410 2.14358 2.25376 2.44731 3.34618 3.44270 3.50146
 3.50918 3.62949
 == 78-th k-point (-0.33166,0.66333,-0.33166) occupation: 6==
 -23.88035 -1.46596 -0.65588 -0.05018 -0.00693 0.02104 0.49863 0.62488 0.75263 0.77199
 1.35235 1.58853 1.60232 1.72410 2.14358 2.25375 2.44731 3.34618 3.44270 3.50146
 3.50918 3.62949
 == 79-th k-point (-0.16583,0.82916,-0.49749) occupation: 6==
 -23.88055 -1.46573 -0.65225 -0.04783 -0.02513 0.01033 0.55525 0.61421 0.72168 0.78520
 1.22296 1.40201 1.57686 1.81368 2.13129 2.37833 2.70316 3.31744 3.42430 3.46565
 3.50139 3.51168
 == 80-th k-point (-0.66333,-0.00000,0.33166) occupation: 6==
 -23.88055 -1.46573 -0.65225 -0.04783 -0.02513 0.01033 0.55525 0.61421 0.72168 0.78520
 1.22296 1.40201 1.57686 1.81368 2.13129 2.37833 2.70316 3.31744 3.42430 3.46565
 3.50139 3.51168
 == 81-th k-point (-0.49749,0.16583,0.16583) occupation: 6==
 -23.88042 -1.46642 -0.65947 -0.04052 0.00887 0.01566 0.48998 0.67232 0.77099 0.77782
 1.21425 1.54449 1.59438 1.82164 2.00739 2.03897 2.63181 3.34971 3.37906 3.50124
 3.52008 3.60120
 == 82-th k-point (-0.33166,0.33166,0.00000) occupation: 6==
 -23.88052 -1.46681 -0.66372 -0.02323 0.00364 0.03164 0.46249 0.65833 0.77922 0.80179
 1.17331 1.55933 1.69957 1.84549 2.00606 2.37352 2.61906 3.31602 3.39602 3.52049
 3.52898 3.72756
 == 83-th k-point (-0.16583,0.49749,-0.16583) occupation: 6==
 -23.88042 -1.46642 -0.65947 -0.04052 0.00887 0.01566 0.48998 0.67232 0.77099 0.77782
 1.21425 1.54449 1.59438 1.82164 2.00739 2.03897 2.63181 3.34971 3.37906 3.50124
 3.52008 3.60120
 == 84-th k-point (-0.00000,0.66333,-0.33166) occupation: 6==
 -23.88055 -1.46573 -0.65225 -0.04783 -0.02513 0.01033 0.55525 0.61421 0.72168 0.78520
 1.22296 1.40201 1.57686 1.81368 2.13129 2.37833 2.70316 3.31744 3.42430 3.46565
 3.50139 3.51168
 == 85-th k-point (-0.49749,-0.16583,0.49749) occupation: 6==
 -23.88035 -1.46596 -0.65588 -0.05018 -0.00693 0.02104 0.49863 0.62488 0.75263 0.77199
 1.35235 1.58853 1.60232 1.72410 2.14358 2.25376 2.44731 3.34618 3.44270 3.50146
 3.50918 3.62949
 == 86-th k-point (-0.33166,-0.00000,0.33166) occupation: 6==
 -23.88052 -1.46681 -0.66372 -0.02323 0.00364 0.03164 0.46249 0.65833 0.77922 0.80179
 1.17331 1.55933 1.69957 1.84549 2.00606 2.37352 2.61906 3.31602 3.39602 3.52049
 3.52898 3.72756
 == 87-th k-point (-0.16583,0.16583,0.16583) occupation: 6==
 -23.88062 -1.46779 -0.67154 -0.00000 0.03281 0.03281 0.41920 0.77113 0.83057 0.83057
 1.26795 1.42974 1.42974 1.77625 1.77625 1.92288 2.74958 3.34832 3.34832 3.54204
 3.66906 3.66906
 == 88-th k-point (0.00000,0.33166,0.00000) occupation: 6==
 -23.88060 -1.46753 -0.66910 0.00001 0.02262 0.02262 0.44060 0.81715 0.81715 0.82868
 1.39002 1.39002 1.58403 1.97712 1.97712 2.02136 2.77970 3.31121 3.31598 3.48593
 3.62528 3.62528
 == 89-th k-point (0.16583,0.49749,-0.16583) occupation: 6==
 -23.88042 -1.46642 -0.65947 -0.04052 0.00887 0.01566 0.48998 0.67232 0.77099 0.77782
 1.21425 1.54449 1.59438 1.82164 2.00739 2.03897 2.63181 3.34971 3.37906 3.50124
 3.52008 3.60120
 == 90-th k-point (-0.33166,-0.33166,0.66333) occupation: 6==
 -23.88035 -1.46596 -0.65588 -0.05018 -0.00693 0.02104 0.49863 0.62488 0.75263 0.77199
 1.35235 1.58853 1.60232 1.72410 2.14358 2.25375 2.44731 3.34618 3.44270 3.50146
 3.50918 3.62949
 == 91-th k-point (-0.16583,-0.16583,0.49749) occupation: 6==
 -23.88042 -1.46642 -0.65947 -0.04052 0.00887 0.01566 0.48998 0.67232 0.77099 0.77782
 1.21425 1.54449 1.59438 1.82164 2.00739 2.03897 2.63181 3.34971 3.37906 3.50124
 3.52008 3.60120
 == 92-th k-point (0.00000,-0.00000,0.33166) occupation: 6==
 -23.88060 -1.46753 -0.66910 0.00001 0.02262 0.02262 0.44060 0.81715 0.81715 0.82868
 1.39002 1.39002 1.58403 1.97712 1.97712 2.02136 2.77970 3.31121 3.31598 3.48593
 3.62528 3.62528
 == 93-th k-point (0.16583,0.16583,0.16583) occupation: 6==
 -23.88062 -1.46779 -0.67154 -0.00000 0.03281 0.03281 0.41920 0.77113 0.83057 0.83057
 1.26795 1.42974 1.42974 1.77625 1.77625 1.92288 2.74958 3.34832 3.34832 3.54204
 3.66906 3.66906
 == 94-th k-point (0.33166,0.33166,0.00000) occupation: 6==
 -23.88052 -1.46681 -0.66372 -0.02323 0.00364 0.03164 0.46249 0.65833 0.77922 0.80179
 1.17331 1.55933 1.69957 1.84549 2.00606 2.37352 2.61906 3.31602 3.39602 3.52049
 3.52898 3.72756
 == 95-th k-point (-0.16583,-0.49749,0.82916) occupation: 6==
 -23.88055 -1.46573 -0.65225 -0.04783 -0.02513 0.01033 0.55525 0.61421 0.72168 0.78520
 1.22296 1.40201 1.57686 1.81368 2.13129 2.37833 2.70316 3.31744 3.42430 3.46565
 3.50139 3.51168
 == 96-th k-point (0.00000,-0.33166,0.66333) occupation: 6==
 -23.88055 -1.46573 -0.65225 -0.04783 -0.02513 0.01033 0.55525 0.61421 0.72168 0.78520
 1.22296 1.40201 1.57686 1.81368 2.13129 2.37833 2.70316 3.31744 3.42430 3.46565
 3.50139 3.51168
 == 97-th k-point (0.16583,-0.16583,0.49749) occupation: 6==
 -23.88042 -1.46642 -0.65947 -0.04052 0.00887 0.01566 0.48998 0.67232 0.77099 0.77782
 1.21425 1.54449 1.59438 1.82164 2.00739 2.03897 2.63181 3.34971 3.37906 3.50124
 3.52008 3.60120
 == 98-th k-point (0.33166,-0.00000,0.33166) occupation: 6==
 -23.88052 -1.46681 -0.66372 -0.02323 0.00364 0.03164 0.46249 0.65833 0.77922 0.80179
 1.17331 1.55933 1.69957 1.84549 2.00606 2.37352 2.61906 3.31602 3.39602 3.52049
 3.52898 3.72756
 == 99-th k-point (0.49749,0.16583,0.16583) occupation: 6==
 -23.88042 -1.46642 -0.65947 -0.04052 0.00887 0.01566 0.48998 0.67232 0.77099 0.77782
 1.21425 1.54449 1.59438 1.82164 2.00739 2.03897 2.63181 3.34971 3.37906 3.50124
 3.52008 3.60120
 == 100-th k-point (-0.99499,0.33166,0.33166) occupation: 6==
 -23.88035 -1.46596 -0.65588 -0.05018 -0.00693 0.02104 0.49863 0.62488 0.75263 0.77199
 1.35235 1.58853 1.60232 1.72410 2.14358 2.25375 2.44731 3.34618 3.44270 3.50146
 3.50918 3.62949
 == 101-th k-point (-0.82916,0.49749,0.16583) occupation: 6==
 -23.88055 -1.46573 -0.65225 -0.04783 -0.02513 0.01033 0.55525 0.61421 0.72168 0.78520
 1.22296 1.40201 1.57686 1.81368 2.13129 2.37833 2.70316 3.31744 3.42430 3.46565
 3.50139 3.51168
 == 102-th k-point (-0.66333,0.66333,0.00000) occupation: 6==
 -23.88024 -1.46557 -0.64994 -0.06402 -0.01616 0.00501 0.58631 0.62176 0.74380 0.77347
 1.24867 1.52839 1.75498 1.77705 2.12810 2.43474 2.53120 3.31609 3.42157 3.43031
 3.49802 3.51175
 == 103-th k-point (-0.49749,0.82916,-0.16583) occupation: 6==
 -23.88055 -1.46573 -0.65225 -0.04783 -0.02513 0.01033 0.55525 0.61421 0.72168 0.78520
 1.22296 1.40201 1.57686 1.81368 2.13129 2.37833 2.70316 3.31744 3.42430 3.46565
 3.50139 3.51168
 == 104-th k-point (-0.33166,0.99499,-0.33166) occupation: 6==
 -23.88035 -1.46596 -0.65588 -0.05018 -0.00693 0.02104 0.49863 0.62488 0.75263 0.77199
 1.35235 1.58853 1.60232 1.72410 2.14358 2.25375 2.44731 3.34618 3.44270 3.50146
 3.50918 3.62949
 == 105-th k-point (-0.82916,0.16583,0.49749) occupation: 6==
 -23.88055 -1.46573 -0.65225 -0.04783 -0.02513 0.01033 0.55525 0.61421 0.72168 0.78520
 1.22296 1.40201 1.57686 1.81368 2.13129 2.37833 2.70316 3.31744 3.42430 3.46565
 3.50139 3.51168
 == 106-th k-point (-0.66333,0.33166,0.33166) occupation: 6==
 -23.88035 -1.46596 -0.65588 -0.05018 -0.00693 0.02104 0.49863 0.62488 0.75263 0.77199
 1.35235 1.58853 1.60232 1.72410 2.14358 2.25375 2.44731 3.34618 3.44270 3.50146
 3.50918 3.62949
 == 107-th k-point (-0.49749,0.49749,0.16583) occupation: 6==
 -23.88035 -1.46596 -0.65588 -0.05018 -0.00693 0.02104 0.49863 0.62488 0.75263 0.77199
 1.35235 1.58853 1.60232 1.72410 2.14358 2.25376 2.44731 3.34618 3.44270 3.50146
 3.50918 3.62949
 == 108-th k-point (-0.33166,0.66333,0.00000) occupation: 6==
 -23.88055 -1.46573 -0.65225 -0.04783 -0.02513 0.01033 0.55525 0.61421 0.72168 0.78520
 1.22296 1.40201 1.57686 1.81368 2.13129 2.37833 2.70316 3.31744 3.42430 3.46565
 3.50139 3.51168
 == 109-th k-point (-0.16583,0.82916,-0.16583) occupation: 6==
 -23.88024 -1.46557 -0.64994 -0.06402 -0.01616 0.00501 0.58631 0.62176 0.74380 0.77347
 1.24867 1.52839 1.75498 1.77705 2.12810 2.43474 2.53120 3.31609 3.42157 3.43031
 3.49802 3.51175
 == 110-th k-point (-0.66333,-0.00000,0.66333) occupation: 6==
 -23.88024 -1.46557 -0.64994 -0.06402 -0.01616 0.00501 0.58631 0.62176 0.74380 0.77347
 1.24867 1.52839 1.75498 1.77705 2.12810 2.43474 2.53120 3.31609 3.42157 3.43031
 3.49802 3.51175
 == 111-th k-point (-0.49749,0.16583,0.49749) occupation: 6==
 -23.88035 -1.46596 -0.65588 -0.05018 -0.00693 0.02104 0.49863 0.62488 0.75263 0.77199
 1.35235 1.58853 1.60232 1.72410 2.14358 2.25376 2.44731 3.34618 3.44270 3.50146
 3.50918 3.62949
 == 112-th k-point (-0.33166,0.33166,0.33166) occupation: 6==
 -23.88043 -1.46644 -0.66158 -0.04967 0.02826 0.02826 0.44411 0.68473 0.74943 0.74943
 1.53373 1.63308 1.63308 1.71720 1.71720 2.04441 2.69044 3.37049 3.37049 3.51537
 3.72235 3.72235
 == 113-th k-point (-0.16583,0.49749,0.16583) occupation: 6==
 -23.88042 -1.46642 -0.65947 -0.04052 0.00887 0.01566 0.48998 0.67232 0.77099 0.77782
 1.21425 1.54449 1.59438 1.82164 2.00739 2.03897 2.63181 3.34971 3.37906 3.50124
 3.52008 3.60120
 == 114-th k-point (0.00000,0.66333,0.00000) occupation: 6==
 -23.88028 -1.46586 -0.65229 -0.06469 0.00195 0.00195 0.55530 0.73104 0.78769 0.78769
 1.57366 1.77826 1.77826 1.80812 2.39859 2.39859 2.68156 3.31124 3.31597 3.44647
 3.44647 3.50340
 == 115-th k-point (-0.49749,-0.16583,0.82916) occupation: 6==
 -23.88055 -1.46573 -0.65225 -0.04783 -0.02513 0.01033 0.55525 0.61421 0.72168 0.78520
 1.22296 1.40201 1.57686 1.81368 2.13129 2.37833 2.70316 3.31744 3.42430 3.46565
 3.50139 3.51168
 == 116-th k-point (-0.33166,-0.00000,0.66333) occupation: 6==
 -23.88055 -1.46573 -0.65225 -0.04783 -0.02513 0.01033 0.55525 0.61421 0.72168 0.78520
 1.22296 1.40201 1.57686 1.81368 2.13129 2.37833 2.70316 3.31744 3.42430 3.46565
 3.50139 3.51168
 == 117-th k-point (-0.16583,0.16583,0.49749) occupation: 6==
 -23.88042 -1.46642 -0.65947 -0.04052 0.00887 0.01566 0.48998 0.67232 0.77099 0.77782
 1.21425 1.54449 1.59438 1.82164 2.00739 2.03897 2.63181 3.34971 3.37906 3.50124
 3.52008 3.60120
 == 118-th k-point (0.00000,0.33166,0.33166) occupation: 6==
 -23.88052 -1.46681 -0.66372 -0.02323 0.00364 0.03164 0.46249 0.65833 0.77922 0.80179
 1.17331 1.55933 1.69957 1.84549 2.00606 2.37352 2.61906 3.31602 3.39602 3.52049
 3.52898 3.72756
 == 119-th k-point (0.16583,0.49749,0.16583) occupation: 6==
 -23.88042 -1.46642 -0.65947 -0.04052 0.00887 0.01566 0.48998 0.67232 0.77099 0.77782
 1.21425 1.54449 1.59438 1.82164 2.00739 2.03897 2.63181 3.34971 3.37906 3.50124
 3.52008 3.60120
 == 120-th k-point (-0.33166,-0.33166,0.99499) occupation: 6==
 -23.88035 -1.46596 -0.65588 -0.05018 -0.00693 0.02104 0.49863 0.62488 0.75263 0.77199
 1.35235 1.58853 1.60232 1.72410 2.14358 2.25375 2.44731 3.34618 3.44270 3.50146
 3.50918 3.62949
 == 121-th k-point (-0.16583,-0.16583,0.82916) occupation: 6==
 -23.88024 -1.46557 -0.64994 -0.06402 -0.01616 0.00501 0.58631 0.62176 0.74380 0.77347
 1.24867 1.52839 1.75498 1.77705 2.12810 2.43474 2.53120 3.31609 3.42157 3.43031
 3.49802 3.51175
 == 122-th k-point (0.00000,-0.00000,0.66333) occupation: 6==
 -23.88028 -1.46586 -0.65229 -0.06469 0.00195 0.00195 0.55530 0.73104 0.78769 0.78769
 1.57366 1.77826 1.77826 1.80812 2.39859 2.39859 2.68156 3.31124 3.31597 3.44647
 3.44647 3.50340
 == 123-th k-point (0.16583,0.16583,0.49749) occupation: 6==
 -23.88042 -1.46642 -0.65947 -0.04052 0.00887 0.01566 0.48998 0.67232 0.77099 0.77782
 1.21425 1.54449 1.59438 1.82164 2.00739 2.03897 2.63181 3.34971 3.37906 3.50124
 3.52008 3.60120
 == 124-th k-point (0.33166,0.33166,0.33166) occupation: 6==
 -23.88043 -1.46644 -0.66158 -0.04967 0.02826 0.02826 0.44411 0.68473 0.74943 0.74943
 1.53373 1.63308 1.63308 1.71720 1.71720 2.04442 2.69044 3.37049 3.37049 3.51537
 3.72235 3.72235
 ---------------------------------------------------------------------------
 VBM is at 62-th k-point with 0.97048 eV
 CBM is at 62-th k-point with 10.57501 eV
 Band gap is 9.60453 eV


           Ground-State Mulliken Net Atomic Charges

      Atom                 Charge (a.u.)          Spin (a.u.)
   --------------------------------------------------------
      1 Li               (0.471467,-0.000000)    (0.000000,0.000000)
      2  F               (-0.471467,0.000000)    (0.000000,0.000000)
   --------------------------------------------------------
  Sum of atomic charges =      (-0.000000,0.000000)
  Sum of spin   charges =       (0.000000,0.000000)



 Total job time:  114.99 s.
 Tue Sep  9 00:11:18 2025


        *************************************************************
        *                                                           *
        *  Thank you very much for using QCPBC. Have a nice day.    *
        *                                                           *
        *************************************************************

Running job 1 of 1
