                  Welcome to Q-Chem
           with Periodic Boundary Condition
     A Quantum Leap Into The Future Of Chemistry

 Adam Rettig, Xintian Feng, Meng-Fu Chen, Hieu Dinh, Stephen Quiton,
 Anton Ni, Paul J. Robinson, Jinghong Zhang, Joonho Lee

Contributors to earlier versions of Q-Chem not listed above:
 Evgeny Epifanovsky, Leo Cunha, Jerome F. Gonthier, Kuan-Yu Liu
 Input file: /n/netscratch/joonholee_lab/Lab/hieudinh//lif_solve_def2svp_omega_0.6_666.scratch20250909003143/lif_solve_def2svp_omega_0.6_666.0
 Scratch folder: /n/netscratch/joonholee_lab/Lab/hieudinh//lif_solve_def2svp_omega_0.6_666.scratch20250909003143
 Auxillary files located at: /n/holylabs/LABS/joonholee_lab/Lab/qchem_base/qcaux
 Q-Chem begins on Tue Sep  9 00:31:44 2025

 -------------------------------------------------------------
 User input:
 -------------------------------------------------------------
 $lattice
 3
 0.000000 2.005000 2.005000
 2.005000 0.000000 2.005000
 2.005000 2.005000 0.000000
 $end
 
 $unitcell
 ABSOLUTE
 0 1
 Li 0.000000 0.000000 0.000000
 F  2.005000 0.000000 0.000000
 $end
 
 $rem
 jobtype = sp
 method = pbe
 scf_convergence = 5
 scf_guess = autosad
 scf_algorithm = gdm
 basis = def2-svp
 aux_basis = gen
 input_bohr = false
 symmetry false
 is_basis_uctr true
 rsdf_print_level 1
 
 mp_mesh = [6,6,6]
 
 integral_direct true
 bvk_cgto true
 
 thresh 14
 mem_total 100000
 threads 32
 
 MAX_SCF_CYCLES 400
 madelung = false
 omega 0.6
 do_rij_bigmem true
 automate_g true
 print_level 10
 grid_type_xc 1
 
 thresh_1e2c_sp 1e-14
 thresh_2e3c_bra_ket_sep 1e-10
 thresh_g 1e-12
 $end
 
 $aux_basis
 Li     0
 S   7   1.00
     498.3689730              0.0207908
     162.9342738              0.0542177
      57.3246735              0.1776783
      21.6427314              0.4181150
       8.7345375              0.6535245
       3.7491039              0.5492618
       1.7006754              0.1701425
 S   1   1.00
       0.8090859             -0.0097548
 S   1   1.00
       0.4000933             -0.0050152
 S   1   1.00
       0.2035793              0.0232200
 !S   1   1.00
 !      0.1054201              0.0134535
 !S   1   1.00
 !      0.0549139              0.0006647
 P   2   1.00
      10.7024696              0.0072923
       3.6551543              0.0060940
 P   1   1.00
       1.2464013              0.0172529
 P   1   1.00
       0.4246282             -0.0160026
 P   1   1.00
       0.1446192             -0.0195111
 D   2   1.00
       1.1510647             -0.0014314
       0.6019112              0.0038969
 D   1   1.00
       0.3109573              0.0024683
 D   1   1.00
       0.1600032              0.0036451
 F   2   1.00
       0.5967918              0.0010494
       0.1790687              0.0006468
 G   1   1.00
       1.0460130             -0.0001971
 ****
 F     0
 S   7   1.00
    3514.9201549              0.1805835
    1231.2458815              0.3676084
     454.1367336              1.2707881
     175.8376258              2.8274164
      71.2081775              4.3588226
      30.0316883              2.7180994
      13.1259023             -0.0804726
 S   1   1.00
       5.9126861             -0.0023370
 S   1   1.00
       2.7284431              1.1236274
 S   1   1.00
       1.2813993              0.9999042
 S   1   1.00
       0.6082793              0.3119579
 S   1   1.00
       0.2897894              0.0312295
 P   2   1.00
      49.3740409             -0.0346332
      13.4874956             -0.0096069
 P   1   1.00
       3.9664900              0.0762067
 P   1   1.00
       1.2226629             -0.0103329
 P   1   1.00
       0.3830317              0.0018853
 D   2   1.00
      29.9719140             -0.0113316
       6.7860915             -0.0467639
 D   1   1.00
       1.8137313             -0.0167604
 D   1   1.00
       0.5157840             -0.0050777
 F   2   1.00
       2.8301877              1.0
       0.9155962              1.0
 G   1   1.00
       1.6097500             -0.0005411
 ****
 $end
 -------------------------------------------------------------
 Running PBC job

 Requested Exchange Correlation Functionals: 
  DFT Exchange:  1.00000 pbe_x
  DFT Correlation:  1.00000 pbe_c
 using 32 threads for computing.
 ---------------------------------------------------------------
      Coordinates of Atoms in Central Unit Cell (Angstroms)
    I     Atom         X            Y            Z
 ---------------------------------------------------------------
    1      Li      0.000000     0.000000     0.000000
    2       F      2.005000     0.000000     0.000000
 ---------------------------------------------------------------
 --------------------------------------------------
              Lattice Vectors (Angstroms)
              X            Y            Z
 --------------------------------------------------
   X       0.000000     2.005000     2.005000
   Y       2.005000     0.000000     2.005000
   Z       2.005000     2.005000     0.000000
 --------------------------------------------------
 --------------------------------------------------
       Reciprocal Lattice Vectors (Angstroms^-1)
              X            Y            Z
 --------------------------------------------------
   X      -1.566879     1.566879     1.566879
   Y       1.566879    -1.566879     1.566879
   Z       1.566879     1.566879    -1.566879
 --------------------------------------------------

 Single point calculation requested

 Hamiltonian contributions:
 List of terms in Hamiltonian: kpts_nn, kpts_kinetic, kpts_vnuc_df, kpts_xc, kpts_rij_bigmem

 K-Points calculation started.

 Basis set information about using solid harmonic (1) or Cartesian (0):
  li : 
  f : D(1) 

 Basis set information about using solid harmonic (1) or Cartesian (0):
  li : D(1) D(1) D(1) F(1) G(1) 
  f : D(1) D(1) D(1) F(1) G(1) 

 There are 23 basis functions in the central unit cell.
 Print atomic basis of atoms in the central unit cell:
 -------------------------------------------------------------
2 22 22 11

  0.00000000000000e+00  0.00000000000000e+00  0.00000000000000e+00
  3.78890087987467e+00  0.00000000000000e+00  0.00000000000000e+00

  2.66277855160000e+02
  4.00697834470000e+01
  9.05599443890000e+00
  2.45030090510000e+00
  7.22095718550000e-01
  5.28108847210000e-02
  2.09609487980000e-02
  1.45000000000000e+00
  3.00000000000000e-01
  8.20000000000000e-02
  2.89483259900000e+03
  4.35419391200000e+02
  9.88433288660000e+01
  2.74851980010000e+01
  8.54054981710000e+00
  1.06545780380000e+00
  3.32473467480000e-01
  2.26966339240000e+01
  4.98723392570000e+00
  1.34916139540000e+00
  3.48298819770000e-01
  1.40000000000000e+00

  2.98523259158809e-01
  5.30473944856059e-01
  7.38120784182850e-01
  6.64059438610974e-01
  2.38395787996007e-01
  7.85150071492147e-02
  3.92616272060942e-02
  5.10109427593945e-01
  2.75249408957986e-01
  6.25471323993550e-02
 -1.50461836060050e+00
 -2.71519138656203e+00
 -4.00842348425574e+00
 -4.00664898239610e+00
 -1.59245314394331e+00
  7.47415815228736e-01
  3.12052622570615e-01
 -4.57453810587525e+00
 -3.61576784341891e+00
 -1.52308270817964e+00
  3.81399475464114e-01
  2.96574303152418e+00

0 0 0 0 1 1 1
0 0 
5 0

0 1 1 5 1 1 1
5 0 
1 0

0 2 2 6 1 1 1
6 0 
1 0

0 3 3 7 1 3 3
7 1 
2 0

0 6 6 9 1 3 3
9 1 
1 0

1 9 9 10 1 1 1
10 0 
5 0

1 10 10 15 1 1 1
15 0 
1 0

1 11 11 16 1 1 1
16 0 
1 0

1 12 12 17 1 3 3
17 1 
3 0

1 15 15 20 1 3 3
20 1 
1 0

1 18 18 21 1 5 6
21 2 
1 1

 -------------------------------------------------------------
 Allocate 132768 B from available memory: 104857600000 B
 There are 12167 image cells after screening.
 There are 15858 image cells for CGTO evaluation after screening.
 Real-Space grid for FFT initialized based on kinetic energy cutoff (eV) = 500.0
 Real-Space grid for FFT: (8,8,8)
 There are 4913 real-space grid points.
 There are 27 batches of real-space grid points. 
 Size of each grid batch is around 128
 Grid for AFT initialized based on kinetic energy cutoff (eV) = 500.0
 Real-Space grid for AFT: (8,8,8)
 There are 4913 real-space grid points.

 There are 5740 atom-centered grid points.

 Spacegroup symmetry group: Fm-3m
 Reducing spacegroup symmetry to symmorphic group: F m -3 m
 Monkhorst-Pack mesh is [6,6,6]
 There are 216 k points.
kpoints in Bohr
-0.2763855758 -0.2763855758 -0.2763855758
-0.1381927879 -0.1381927879 -0.4145783636
-0.0000000000 0.0000000000 -0.5527711515
0.1381927879 0.1381927879 -0.6909639394
0.2763855758 0.2763855758 -0.8291567273
0.4145783636 0.4145783636 -0.9673495152
-0.1381927879 -0.4145783636 -0.1381927879
-0.0000000000 -0.2763855758 -0.2763855758
0.1381927879 -0.1381927879 -0.4145783636
0.2763855758 0.0000000000 -0.5527711515
0.4145783636 0.1381927879 -0.6909639394
0.5527711515 0.2763855758 -0.8291567273
-0.0000000000 -0.5527711515 -0.0000000000
0.1381927879 -0.4145783636 -0.1381927879
0.2763855758 -0.2763855758 -0.2763855758
0.4145783636 -0.1381927879 -0.4145783636
0.5527711515 0.0000000000 -0.5527711515
0.6909639394 0.1381927879 -0.6909639394
0.1381927879 -0.6909639394 0.1381927879
0.2763855758 -0.5527711515 -0.0000000000
0.4145783636 -0.4145783636 -0.1381927879
0.5527711515 -0.2763855758 -0.2763855758
0.6909639394 -0.1381927879 -0.4145783636
0.8291567273 0.0000000000 -0.5527711515
0.2763855758 -0.8291567273 0.2763855758
0.4145783636 -0.6909639394 0.1381927879
0.5527711515 -0.5527711515 -0.0000000000
0.6909639394 -0.4145783636 -0.1381927879
0.8291567273 -0.2763855758 -0.2763855758
0.9673495152 -0.1381927879 -0.4145783636
0.4145783636 -0.9673495152 0.4145783636
0.5527711515 -0.8291567273 0.2763855758
0.6909639394 -0.6909639394 0.1381927879
0.8291567273 -0.5527711515 -0.0000000000
0.9673495152 -0.4145783636 -0.1381927879
1.1055423031 -0.2763855758 -0.2763855758
-0.4145783636 -0.1381927879 -0.1381927879
-0.2763855758 0.0000000000 -0.2763855758
-0.1381927879 0.1381927879 -0.4145783636
-0.0000000000 0.2763855758 -0.5527711515
0.1381927879 0.4145783636 -0.6909639394
0.2763855758 0.5527711515 -0.8291567273
-0.2763855758 -0.2763855758 -0.0000000000
-0.1381927879 -0.1381927879 -0.1381927879
-0.0000000000 0.0000000000 -0.2763855758
0.1381927879 0.1381927879 -0.4145783636
0.2763855758 0.2763855758 -0.5527711515
0.4145783636 0.4145783636 -0.6909639394
-0.1381927879 -0.4145783636 0.1381927879
-0.0000000000 -0.2763855758 -0.0000000000
0.1381927879 -0.1381927879 -0.1381927879
0.2763855758 0.0000000000 -0.2763855758
0.4145783636 0.1381927879 -0.4145783636
0.5527711515 0.2763855758 -0.5527711515
0.0000000000 -0.5527711515 0.2763855758
0.1381927879 -0.4145783636 0.1381927879
0.2763855758 -0.2763855758 -0.0000000000
0.4145783636 -0.1381927879 -0.1381927879
0.5527711515 0.0000000000 -0.2763855758
0.6909639394 0.1381927879 -0.4145783636
0.1381927879 -0.6909639394 0.4145783636
0.2763855758 -0.5527711515 0.2763855758
0.4145783636 -0.4145783636 0.1381927879
0.5527711515 -0.2763855758 -0.0000000000
0.6909639394 -0.1381927879 -0.1381927879
0.8291567273 0.0000000000 -0.2763855758
0.2763855758 -0.8291567273 0.5527711515
0.4145783636 -0.6909639394 0.4145783636
0.5527711515 -0.5527711515 0.2763855758
0.6909639394 -0.4145783636 0.1381927879
0.8291567273 -0.2763855758 -0.0000000000
0.9673495152 -0.1381927879 -0.1381927879
-0.5527711515 0.0000000000 0.0000000000
-0.4145783636 0.1381927879 -0.1381927879
-0.2763855758 0.2763855758 -0.2763855758
-0.1381927879 0.4145783636 -0.4145783636
-0.0000000000 0.5527711515 -0.5527711515
0.1381927879 0.6909639394 -0.6909639394
-0.4145783636 -0.1381927879 0.1381927879
-0.2763855758 0.0000000000 0.0000000000
-0.1381927879 0.1381927879 -0.1381927879
-0.0000000000 0.2763855758 -0.2763855758
0.1381927879 0.4145783636 -0.4145783636
0.2763855758 0.5527711515 -0.5527711515
-0.2763855758 -0.2763855758 0.2763855758
-0.1381927879 -0.1381927879 0.1381927879
0.0000000000 0.0000000000 0.0000000000
0.1381927879 0.1381927879 -0.1381927879
0.2763855758 0.2763855758 -0.2763855758
0.4145783636 0.4145783636 -0.4145783636
-0.1381927879 -0.4145783636 0.4145783636
0.0000000000 -0.2763855758 0.2763855758
0.1381927879 -0.1381927879 0.1381927879
0.2763855758 -0.0000000000 0.0000000000
0.4145783636 0.1381927879 -0.1381927879
0.5527711515 0.2763855758 -0.2763855758
0.0000000000 -0.5527711515 0.5527711515
0.1381927879 -0.4145783636 0.4145783636
0.2763855758 -0.2763855758 0.2763855758
0.4145783636 -0.1381927879 0.1381927879
0.5527711515 -0.0000000000 0.0000000000
0.6909639394 0.1381927879 -0.1381927879
0.1381927879 -0.6909639394 0.6909639394
0.2763855758 -0.5527711515 0.5527711515
0.4145783636 -0.4145783636 0.4145783636
0.5527711515 -0.2763855758 0.2763855758
0.6909639394 -0.1381927879 0.1381927879
0.8291567273 -0.0000000000 0.0000000000
-0.6909639394 0.1381927879 0.1381927879
-0.5527711515 0.2763855758 0.0000000000
-0.4145783636 0.4145783636 -0.1381927879
-0.2763855758 0.5527711515 -0.2763855758
-0.1381927879 0.6909639394 -0.4145783636
-0.0000000000 0.8291567273 -0.5527711515
-0.5527711515 -0.0000000000 0.2763855758
-0.4145783636 0.1381927879 0.1381927879
-0.2763855758 0.2763855758 0.0000000000
-0.1381927879 0.4145783636 -0.1381927879
-0.0000000000 0.5527711515 -0.2763855758
0.1381927879 0.6909639394 -0.4145783636
-0.4145783636 -0.1381927879 0.4145783636
-0.2763855758 -0.0000000000 0.2763855758
-0.1381927879 0.1381927879 0.1381927879
0.0000000000 0.2763855758 0.0000000000
0.1381927879 0.4145783636 -0.1381927879
0.2763855758 0.5527711515 -0.2763855758
-0.2763855758 -0.2763855758 0.5527711515
-0.1381927879 -0.1381927879 0.4145783636
0.0000000000 -0.0000000000 0.2763855758
0.1381927879 0.1381927879 0.1381927879
0.2763855758 0.2763855758 0.0000000000
0.4145783636 0.4145783636 -0.1381927879
-0.1381927879 -0.4145783636 0.6909639394
0.0000000000 -0.2763855758 0.5527711515
0.1381927879 -0.1381927879 0.4145783636
0.2763855758 -0.0000000000 0.2763855758
0.4145783636 0.1381927879 0.1381927879
0.5527711515 0.2763855758 0.0000000000
0.0000000000 -0.5527711515 0.8291567273
0.1381927879 -0.4145783636 0.6909639394
0.2763855758 -0.2763855758 0.5527711515
0.4145783636 -0.1381927879 0.4145783636
0.5527711515 -0.0000000000 0.2763855758
0.6909639394 0.1381927879 0.1381927879
-0.8291567273 0.2763855758 0.2763855758
-0.6909639394 0.4145783636 0.1381927879
-0.5527711515 0.5527711515 0.0000000000
-0.4145783636 0.6909639394 -0.1381927879
-0.2763855758 0.8291567273 -0.2763855758
-0.1381927879 0.9673495152 -0.4145783636
-0.6909639394 0.1381927879 0.4145783636
-0.5527711515 0.2763855758 0.2763855758
-0.4145783636 0.4145783636 0.1381927879
-0.2763855758 0.5527711515 0.0000000000
-0.1381927879 0.6909639394 -0.1381927879
0.0000000000 0.8291567273 -0.2763855758
-0.5527711515 -0.0000000000 0.5527711515
-0.4145783636 0.1381927879 0.4145783636
-0.2763855758 0.2763855758 0.2763855758
-0.1381927879 0.4145783636 0.1381927879
0.0000000000 0.5527711515 0.0000000000
0.1381927879 0.6909639394 -0.1381927879
-0.4145783636 -0.1381927879 0.6909639394
-0.2763855758 -0.0000000000 0.5527711515
-0.1381927879 0.1381927879 0.4145783636
0.0000000000 0.2763855758 0.2763855758
0.1381927879 0.4145783636 0.1381927879
0.2763855758 0.5527711515 0.0000000000
-0.2763855758 -0.2763855758 0.8291567273
-0.1381927879 -0.1381927879 0.6909639394
0.0000000000 -0.0000000000 0.5527711515
0.1381927879 0.1381927879 0.4145783636
0.2763855758 0.2763855758 0.2763855758
0.4145783636 0.4145783636 0.1381927879
-0.1381927879 -0.4145783636 0.9673495152
0.0000000000 -0.2763855758 0.8291567273
0.1381927879 -0.1381927879 0.6909639394
0.2763855758 -0.0000000000 0.5527711515
0.4145783636 0.1381927879 0.4145783636
0.5527711515 0.2763855758 0.2763855758
-0.9673495152 0.4145783636 0.4145783636
-0.8291567273 0.5527711515 0.2763855758
-0.6909639394 0.6909639394 0.1381927879
-0.5527711515 0.8291567273 0.0000000000
-0.4145783636 0.9673495152 -0.1381927879
-0.2763855758 1.1055423031 -0.2763855758
-0.8291567273 0.2763855758 0.5527711515
-0.6909639394 0.4145783636 0.4145783636
-0.5527711515 0.5527711515 0.2763855758
-0.4145783636 0.6909639394 0.1381927879
-0.2763855758 0.8291567273 0.0000000000
-0.1381927879 0.9673495152 -0.1381927879
-0.6909639394 0.1381927879 0.6909639394
-0.5527711515 0.2763855758 0.5527711515
-0.4145783636 0.4145783636 0.4145783636
-0.2763855758 0.5527711515 0.2763855758
-0.1381927879 0.6909639394 0.1381927879
0.0000000000 0.8291567273 0.0000000000
-0.5527711515 -0.0000000000 0.8291567273
-0.4145783636 0.1381927879 0.6909639394
-0.2763855758 0.2763855758 0.5527711515
-0.1381927879 0.4145783636 0.4145783636
0.0000000000 0.5527711515 0.2763855758
0.1381927879 0.6909639394 0.1381927879
-0.4145783636 -0.1381927879 0.9673495152
-0.2763855758 -0.0000000000 0.8291567273
-0.1381927879 0.1381927879 0.6909639394
0.0000000000 0.2763855758 0.5527711515
0.1381927879 0.4145783636 0.4145783636
0.2763855758 0.5527711515 0.2763855758
-0.2763855758 -0.2763855758 1.1055423031
-0.1381927879 -0.1381927879 0.9673495152
0.0000000000 -0.0000000000 0.8291567273
0.1381927879 0.1381927879 0.6909639394
0.2763855758 0.2763855758 0.5527711515
0.4145783636 0.4145783636 0.4145783636
 There are 6 alpha and 6 beta electrons
 Start computing overlap matrix
 Allocate 1828224 B from available memory: 104857467232 B
 Time for computing overlap matrix: 15.8990000000 s
 ====== Initialize compute kernels for all-electron RI-J (kpts) ====== 
 ========================================================== 
 Range-separated parameter omega        = 0.599999999999999978
 Threshold for 1e2c shellpair           = 0.000000000000010000
 Threshold for 2e2c SR integral         = 0.000000000000000001
 Threshold for 2e3c SR integral         = 0.000000000100000000
 Threshold for AFT G-space screening is = 0.000000000001000000
 The exponent cutoff for C/D classification (omega2 / 2) is  = 0.179999999999999993
 ========================================================== 
 === Post process the basis set for RI calculation (exp_cutoff = 0.179999999999999993 ) === 
nshells_b1 before uncontraction = 11
nshells_b1 after uncontraction = 11
nshells_baux before uncontraction = 28
nshells_baux after uncontraction = 28
===============================================
nbsf total   = 23
nbsf compact = 18
nbsf diffuse = 5
naux total   = 96
naux compact = 96
naux diffuse = 0
nshells_bnuc = 2

 Number of unique atoms is 2
 Unique atom #0 (li) has 2 shells.
 Unique atom #1 (f) has 6 shells.

Shell 0 to 1 belongs to atom li
Shell 2 to 7 belongs to atom f

 Number of unique atoms is 2
 Unique atom #0 (li) has 3 shells.
 Unique atom #1 (f) has 0 shells.

Shell 0 to 2 belongs to atom li

 Number of unique atom is 2
 Unique atom #0 (li) has 13 auxiliary shells.
 Unique atom #1 (f) has 15 auxiliary shells.

Auxiliary Shell 0 to 12 belongs to atom li
Auxiliary Shell 13 to 27 belongs to atom f

================= Automatically determine grid size for reciprocal space summation =================
 Range-separated parameter = 0.60000000000000 and G-space screening threshold = 0.00000000000100
The number of grid points along each axis dimension is (5, 5, 5)
Total number of grid points = 1331

Use nonortho shellpair for diffuse density
======== Initializing relevant kernel for RIJ (DD type) ========
There are 6 shellpairs in the reference unit cell
There are 21037 images and we expect to have 126222 in total
There are 12814 shellpairs in the lattice sum after screening
======== Initializing relevant kernel for RIJ (CD type) ========
There are 24 shellpairs in the reference unit cell
There are 11345 images and we expect to have 272280 in total
There are 23770 shellpairs in the lattice sum after screening
****** AFT -> SR ******
Maximum bra distance cutoff is 38.000000000000
Maximum bra ket distance cutoff is 21.002617801047
Maximum bra ket screening distance is 19.937500000000
Number of auxiliary image is 3661
There are 24 shellpairs in the reference unit cell
There are 3661 images and we expect to have 87864 in total
There are 23770 shellpairs in the lattice sum after screening
Available memory per thread for 2e3c calculation is 3.276738719000Gb
Finish initializing 2e3c SR with the lattice sum!
=================================================
======== Initializing relevant kernel for RIJ (CC type) ========
There are 36 shellpairs in the reference unit cell
There are 1313 images and we expect to have 47268 in total
There are 1508 shellpairs in the lattice sum after screening
****** AFT -> SR ******
Maximum bra distance cutoff is 14.000000000000
Maximum bra ket distance cutoff is 23.644642857143
Maximum bra ket screening distance is 19.250000000000
Number of auxiliary image is 1217
There are 36 shellpairs in the reference unit cell
There are 341 images and we expect to have 12276 in total
There are 1508 shellpairs in the lattice sum after screening
Available memory per thread for 2e3c calculation is 3.276738719000Gb
Finish initializing 2e3c SR with the lattice sum!
=================================================
======== Initializing the SR component for Vnuc (CD type) ========
Maximum bra distance cutoff is 38.000000000000
Maximum bra ket distance cutoff is 13.200952122583
Maximum bra ket screening distance is 12.112492172425
Number of auxiliary image is 3661
There are 24 shellpairs in the reference unit cell
There are 3661 images and we expect to have 87864 in total
There are 23770 shellpairs in the lattice sum after screening
Available memory per thread for 2e3c calculation is 3.276738719000Gb
Finish initializing 2e3c SR with the lattice sum!
=================================================
======== Initialize the SR component for Vnuc (CC type) ========
Maximum bra distance cutoff is 14.000000000000
Maximum bra ket distance cutoff is 16.315206593886
Maximum bra ket screening distance is 10.949307692962
Number of auxiliary image is 527
There are 36 shellpairs in the reference unit cell
There are 341 images and we expect to have 12276 in total
There are 1508 shellpairs in the lattice sum after screening
Available memory per thread for 2e3c calculation is 3.276738719000Gb
Finish initializing 2e3c SR with the lattice sum!
=================================================
 Aufbau occupation scheme, occupation determined by eigenvalue
 == 0-th k-point nmo = 22 (-0.27639,-0.27639,-0.27639) ==
 == 1-th k-point nmo = 22 (-0.13819,-0.13819,-0.41458) ==
 == 2-th k-point nmo = 22 (-0.00000,0.00000,-0.55277) ==
 == 3-th k-point nmo = 22 (0.13819,0.13819,-0.69096) ==
 == 4-th k-point nmo = 22 (0.27639,0.27639,-0.82916) ==
 == 5-th k-point nmo = 22 (0.41458,0.41458,-0.96735) ==
 == 6-th k-point nmo = 22 (-0.13819,-0.41458,-0.13819) ==
 == 7-th k-point nmo = 22 (-0.00000,-0.27639,-0.27639) ==
 == 8-th k-point nmo = 22 (0.13819,-0.13819,-0.41458) ==
 == 9-th k-point nmo = 22 (0.27639,0.00000,-0.55277) ==
 == 10-th k-point nmo = 22 (0.41458,0.13819,-0.69096) ==
 == 11-th k-point nmo = 22 (0.55277,0.27639,-0.82916) ==
 == 12-th k-point nmo = 22 (-0.00000,-0.55277,-0.00000) ==
 == 13-th k-point nmo = 22 (0.13819,-0.41458,-0.13819) ==
 == 14-th k-point nmo = 22 (0.27639,-0.27639,-0.27639) ==
 == 15-th k-point nmo = 22 (0.41458,-0.13819,-0.41458) ==
 == 16-th k-point nmo = 22 (0.55277,0.00000,-0.55277) ==
 == 17-th k-point nmo = 22 (0.69096,0.13819,-0.69096) ==
 == 18-th k-point nmo = 22 (0.13819,-0.69096,0.13819) ==
 == 19-th k-point nmo = 22 (0.27639,-0.55277,-0.00000) ==
 == 20-th k-point nmo = 22 (0.41458,-0.41458,-0.13819) ==
 == 21-th k-point nmo = 22 (0.55277,-0.27639,-0.27639) ==
 == 22-th k-point nmo = 22 (0.69096,-0.13819,-0.41458) ==
 == 23-th k-point nmo = 22 (0.82916,0.00000,-0.55277) ==
 == 24-th k-point nmo = 22 (0.27639,-0.82916,0.27639) ==
 == 25-th k-point nmo = 22 (0.41458,-0.69096,0.13819) ==
 == 26-th k-point nmo = 22 (0.55277,-0.55277,-0.00000) ==
 == 27-th k-point nmo = 22 (0.69096,-0.41458,-0.13819) ==
 == 28-th k-point nmo = 22 (0.82916,-0.27639,-0.27639) ==
 == 29-th k-point nmo = 22 (0.96735,-0.13819,-0.41458) ==
 == 30-th k-point nmo = 22 (0.41458,-0.96735,0.41458) ==
 == 31-th k-point nmo = 22 (0.55277,-0.82916,0.27639) ==
 == 32-th k-point nmo = 22 (0.69096,-0.69096,0.13819) ==
 == 33-th k-point nmo = 22 (0.82916,-0.55277,-0.00000) ==
 == 34-th k-point nmo = 22 (0.96735,-0.41458,-0.13819) ==
 == 35-th k-point nmo = 22 (1.10554,-0.27639,-0.27639) ==
 == 36-th k-point nmo = 22 (-0.41458,-0.13819,-0.13819) ==
 == 37-th k-point nmo = 22 (-0.27639,0.00000,-0.27639) ==
 == 38-th k-point nmo = 22 (-0.13819,0.13819,-0.41458) ==
 == 39-th k-point nmo = 22 (-0.00000,0.27639,-0.55277) ==
 == 40-th k-point nmo = 22 (0.13819,0.41458,-0.69096) ==
 == 41-th k-point nmo = 22 (0.27639,0.55277,-0.82916) ==
 == 42-th k-point nmo = 22 (-0.27639,-0.27639,-0.00000) ==
 == 43-th k-point nmo = 22 (-0.13819,-0.13819,-0.13819) ==
 == 44-th k-point nmo = 22 (-0.00000,0.00000,-0.27639) ==
 == 45-th k-point nmo = 22 (0.13819,0.13819,-0.41458) ==
 == 46-th k-point nmo = 22 (0.27639,0.27639,-0.55277) ==
 == 47-th k-point nmo = 22 (0.41458,0.41458,-0.69096) ==
 == 48-th k-point nmo = 22 (-0.13819,-0.41458,0.13819) ==
 == 49-th k-point nmo = 22 (-0.00000,-0.27639,-0.00000) ==
 == 50-th k-point nmo = 22 (0.13819,-0.13819,-0.13819) ==
 == 51-th k-point nmo = 22 (0.27639,0.00000,-0.27639) ==
 == 52-th k-point nmo = 22 (0.41458,0.13819,-0.41458) ==
 == 53-th k-point nmo = 22 (0.55277,0.27639,-0.55277) ==
 == 54-th k-point nmo = 22 (0.00000,-0.55277,0.27639) ==
 == 55-th k-point nmo = 22 (0.13819,-0.41458,0.13819) ==
 == 56-th k-point nmo = 22 (0.27639,-0.27639,-0.00000) ==
 == 57-th k-point nmo = 22 (0.41458,-0.13819,-0.13819) ==
 == 58-th k-point nmo = 22 (0.55277,0.00000,-0.27639) ==
 == 59-th k-point nmo = 22 (0.69096,0.13819,-0.41458) ==
 == 60-th k-point nmo = 22 (0.13819,-0.69096,0.41458) ==
 == 61-th k-point nmo = 22 (0.27639,-0.55277,0.27639) ==
 == 62-th k-point nmo = 22 (0.41458,-0.41458,0.13819) ==
 == 63-th k-point nmo = 22 (0.55277,-0.27639,-0.00000) ==
 == 64-th k-point nmo = 22 (0.69096,-0.13819,-0.13819) ==
 == 65-th k-point nmo = 22 (0.82916,0.00000,-0.27639) ==
 == 66-th k-point nmo = 22 (0.27639,-0.82916,0.55277) ==
 == 67-th k-point nmo = 22 (0.41458,-0.69096,0.41458) ==
 == 68-th k-point nmo = 22 (0.55277,-0.55277,0.27639) ==
 == 69-th k-point nmo = 22 (0.69096,-0.41458,0.13819) ==
 == 70-th k-point nmo = 22 (0.82916,-0.27639,-0.00000) ==
 == 71-th k-point nmo = 22 (0.96735,-0.13819,-0.13819) ==
 == 72-th k-point nmo = 22 (-0.55277,0.00000,0.00000) ==
 == 73-th k-point nmo = 22 (-0.41458,0.13819,-0.13819) ==
 == 74-th k-point nmo = 22 (-0.27639,0.27639,-0.27639) ==
 == 75-th k-point nmo = 22 (-0.13819,0.41458,-0.41458) ==
 == 76-th k-point nmo = 22 (-0.00000,0.55277,-0.55277) ==
 == 77-th k-point nmo = 22 (0.13819,0.69096,-0.69096) ==
 == 78-th k-point nmo = 22 (-0.41458,-0.13819,0.13819) ==
 == 79-th k-point nmo = 22 (-0.27639,0.00000,0.00000) ==
 == 80-th k-point nmo = 22 (-0.13819,0.13819,-0.13819) ==
 == 81-th k-point nmo = 22 (-0.00000,0.27639,-0.27639) ==
 == 82-th k-point nmo = 22 (0.13819,0.41458,-0.41458) ==
 == 83-th k-point nmo = 22 (0.27639,0.55277,-0.55277) ==
 == 84-th k-point nmo = 22 (-0.27639,-0.27639,0.27639) ==
 == 85-th k-point nmo = 22 (-0.13819,-0.13819,0.13819) ==
 == 86-th k-point nmo = 22 (0.00000,0.00000,0.00000) ==
 == 87-th k-point nmo = 22 (0.13819,0.13819,-0.13819) ==
 == 88-th k-point nmo = 22 (0.27639,0.27639,-0.27639) ==
 == 89-th k-point nmo = 22 (0.41458,0.41458,-0.41458) ==
 == 90-th k-point nmo = 22 (-0.13819,-0.41458,0.41458) ==
 == 91-th k-point nmo = 22 (0.00000,-0.27639,0.27639) ==
 == 92-th k-point nmo = 22 (0.13819,-0.13819,0.13819) ==
 == 93-th k-point nmo = 22 (0.27639,-0.00000,0.00000) ==
 == 94-th k-point nmo = 22 (0.41458,0.13819,-0.13819) ==
 == 95-th k-point nmo = 22 (0.55277,0.27639,-0.27639) ==
 == 96-th k-point nmo = 22 (0.00000,-0.55277,0.55277) ==
 == 97-th k-point nmo = 22 (0.13819,-0.41458,0.41458) ==
 == 98-th k-point nmo = 22 (0.27639,-0.27639,0.27639) ==
 == 99-th k-point nmo = 22 (0.41458,-0.13819,0.13819) ==
 == 100-th k-point nmo = 22 (0.55277,-0.00000,0.00000) ==
 == 101-th k-point nmo = 22 (0.69096,0.13819,-0.13819) ==
 == 102-th k-point nmo = 22 (0.13819,-0.69096,0.69096) ==
 == 103-th k-point nmo = 22 (0.27639,-0.55277,0.55277) ==
 == 104-th k-point nmo = 22 (0.41458,-0.41458,0.41458) ==
 == 105-th k-point nmo = 22 (0.55277,-0.27639,0.27639) ==
 == 106-th k-point nmo = 22 (0.69096,-0.13819,0.13819) ==
 == 107-th k-point nmo = 22 (0.82916,-0.00000,0.00000) ==
 == 108-th k-point nmo = 22 (-0.69096,0.13819,0.13819) ==
 == 109-th k-point nmo = 22 (-0.55277,0.27639,0.00000) ==
 == 110-th k-point nmo = 22 (-0.41458,0.41458,-0.13819) ==
 == 111-th k-point nmo = 22 (-0.27639,0.55277,-0.27639) ==
 == 112-th k-point nmo = 22 (-0.13819,0.69096,-0.41458) ==
 == 113-th k-point nmo = 22 (-0.00000,0.82916,-0.55277) ==
 == 114-th k-point nmo = 22 (-0.55277,-0.00000,0.27639) ==
 == 115-th k-point nmo = 22 (-0.41458,0.13819,0.13819) ==
 == 116-th k-point nmo = 22 (-0.27639,0.27639,0.00000) ==
 == 117-th k-point nmo = 22 (-0.13819,0.41458,-0.13819) ==
 == 118-th k-point nmo = 22 (-0.00000,0.55277,-0.27639) ==
 == 119-th k-point nmo = 22 (0.13819,0.69096,-0.41458) ==
 == 120-th k-point nmo = 22 (-0.41458,-0.13819,0.41458) ==
 == 121-th k-point nmo = 22 (-0.27639,-0.00000,0.27639) ==
 == 122-th k-point nmo = 22 (-0.13819,0.13819,0.13819) ==
 == 123-th k-point nmo = 22 (0.00000,0.27639,0.00000) ==
 == 124-th k-point nmo = 22 (0.13819,0.41458,-0.13819) ==
 == 125-th k-point nmo = 22 (0.27639,0.55277,-0.27639) ==
 == 126-th k-point nmo = 22 (-0.27639,-0.27639,0.55277) ==
 == 127-th k-point nmo = 22 (-0.13819,-0.13819,0.41458) ==
 == 128-th k-point nmo = 22 (0.00000,-0.00000,0.27639) ==
 == 129-th k-point nmo = 22 (0.13819,0.13819,0.13819) ==
 == 130-th k-point nmo = 22 (0.27639,0.27639,0.00000) ==
 == 131-th k-point nmo = 22 (0.41458,0.41458,-0.13819) ==
 == 132-th k-point nmo = 22 (-0.13819,-0.41458,0.69096) ==
 == 133-th k-point nmo = 22 (0.00000,-0.27639,0.55277) ==
 == 134-th k-point nmo = 22 (0.13819,-0.13819,0.41458) ==
 == 135-th k-point nmo = 22 (0.27639,-0.00000,0.27639) ==
 == 136-th k-point nmo = 22 (0.41458,0.13819,0.13819) ==
 == 137-th k-point nmo = 22 (0.55277,0.27639,0.00000) ==
 == 138-th k-point nmo = 22 (0.00000,-0.55277,0.82916) ==
 == 139-th k-point nmo = 22 (0.13819,-0.41458,0.69096) ==
 == 140-th k-point nmo = 22 (0.27639,-0.27639,0.55277) ==
 == 141-th k-point nmo = 22 (0.41458,-0.13819,0.41458) ==
 == 142-th k-point nmo = 22 (0.55277,-0.00000,0.27639) ==
 == 143-th k-point nmo = 22 (0.69096,0.13819,0.13819) ==
 == 144-th k-point nmo = 22 (-0.82916,0.27639,0.27639) ==
 == 145-th k-point nmo = 22 (-0.69096,0.41458,0.13819) ==
 == 146-th k-point nmo = 22 (-0.55277,0.55277,0.00000) ==
 == 147-th k-point nmo = 22 (-0.41458,0.69096,-0.13819) ==
 == 148-th k-point nmo = 22 (-0.27639,0.82916,-0.27639) ==
 == 149-th k-point nmo = 22 (-0.13819,0.96735,-0.41458) ==
 == 150-th k-point nmo = 22 (-0.69096,0.13819,0.41458) ==
 == 151-th k-point nmo = 22 (-0.55277,0.27639,0.27639) ==
 == 152-th k-point nmo = 22 (-0.41458,0.41458,0.13819) ==
 == 153-th k-point nmo = 22 (-0.27639,0.55277,0.00000) ==
 == 154-th k-point nmo = 22 (-0.13819,0.69096,-0.13819) ==
 == 155-th k-point nmo = 22 (0.00000,0.82916,-0.27639) ==
 == 156-th k-point nmo = 22 (-0.55277,-0.00000,0.55277) ==
 == 157-th k-point nmo = 22 (-0.41458,0.13819,0.41458) ==
 == 158-th k-point nmo = 22 (-0.27639,0.27639,0.27639) ==
 == 159-th k-point nmo = 22 (-0.13819,0.41458,0.13819) ==
 == 160-th k-point nmo = 22 (0.00000,0.55277,0.00000) ==
 == 161-th k-point nmo = 22 (0.13819,0.69096,-0.13819) ==
 == 162-th k-point nmo = 22 (-0.41458,-0.13819,0.69096) ==
 == 163-th k-point nmo = 22 (-0.27639,-0.00000,0.55277) ==
 == 164-th k-point nmo = 22 (-0.13819,0.13819,0.41458) ==
 == 165-th k-point nmo = 22 (0.00000,0.27639,0.27639) ==
 == 166-th k-point nmo = 22 (0.13819,0.41458,0.13819) ==
 == 167-th k-point nmo = 22 (0.27639,0.55277,0.00000) ==
 == 168-th k-point nmo = 22 (-0.27639,-0.27639,0.82916) ==
 == 169-th k-point nmo = 22 (-0.13819,-0.13819,0.69096) ==
 == 170-th k-point nmo = 22 (0.00000,-0.00000,0.55277) ==
 == 171-th k-point nmo = 22 (0.13819,0.13819,0.41458) ==
 == 172-th k-point nmo = 22 (0.27639,0.27639,0.27639) ==
 == 173-th k-point nmo = 22 (0.41458,0.41458,0.13819) ==
 == 174-th k-point nmo = 22 (-0.13819,-0.41458,0.96735) ==
 == 175-th k-point nmo = 22 (0.00000,-0.27639,0.82916) ==
 == 176-th k-point nmo = 22 (0.13819,-0.13819,0.69096) ==
 == 177-th k-point nmo = 22 (0.27639,-0.00000,0.55277) ==
 == 178-th k-point nmo = 22 (0.41458,0.13819,0.41458) ==
 == 179-th k-point nmo = 22 (0.55277,0.27639,0.27639) ==
 == 180-th k-point nmo = 22 (-0.96735,0.41458,0.41458) ==
 == 181-th k-point nmo = 22 (-0.82916,0.55277,0.27639) ==
 == 182-th k-point nmo = 22 (-0.69096,0.69096,0.13819) ==
 == 183-th k-point nmo = 22 (-0.55277,0.82916,0.00000) ==
 == 184-th k-point nmo = 22 (-0.41458,0.96735,-0.13819) ==
 == 185-th k-point nmo = 22 (-0.27639,1.10554,-0.27639) ==
 == 186-th k-point nmo = 22 (-0.82916,0.27639,0.55277) ==
 == 187-th k-point nmo = 22 (-0.69096,0.41458,0.41458) ==
 == 188-th k-point nmo = 22 (-0.55277,0.55277,0.27639) ==
 == 189-th k-point nmo = 22 (-0.41458,0.69096,0.13819) ==
 == 190-th k-point nmo = 22 (-0.27639,0.82916,0.00000) ==
 == 191-th k-point nmo = 22 (-0.13819,0.96735,-0.13819) ==
 == 192-th k-point nmo = 22 (-0.69096,0.13819,0.69096) ==
 == 193-th k-point nmo = 22 (-0.55277,0.27639,0.55277) ==
 == 194-th k-point nmo = 22 (-0.41458,0.41458,0.41458) ==
 == 195-th k-point nmo = 22 (-0.27639,0.55277,0.27639) ==
 == 196-th k-point nmo = 22 (-0.13819,0.69096,0.13819) ==
 == 197-th k-point nmo = 22 (0.00000,0.82916,0.00000) ==
 == 198-th k-point nmo = 22 (-0.55277,-0.00000,0.82916) ==
 == 199-th k-point nmo = 22 (-0.41458,0.13819,0.69096) ==
 == 200-th k-point nmo = 22 (-0.27639,0.27639,0.55277) ==
 == 201-th k-point nmo = 22 (-0.13819,0.41458,0.41458) ==
 == 202-th k-point nmo = 22 (0.00000,0.55277,0.27639) ==
 == 203-th k-point nmo = 22 (0.13819,0.69096,0.13819) ==
 == 204-th k-point nmo = 22 (-0.41458,-0.13819,0.96735) ==
 == 205-th k-point nmo = 22 (-0.27639,-0.00000,0.82916) ==
 == 206-th k-point nmo = 22 (-0.13819,0.13819,0.69096) ==
 == 207-th k-point nmo = 22 (0.00000,0.27639,0.55277) ==
 == 208-th k-point nmo = 22 (0.13819,0.41458,0.41458) ==
 == 209-th k-point nmo = 22 (0.27639,0.55277,0.27639) ==
 == 210-th k-point nmo = 22 (-0.27639,-0.27639,1.10554) ==
 == 211-th k-point nmo = 22 (-0.13819,-0.13819,0.96735) ==
 == 212-th k-point nmo = 22 (0.00000,-0.00000,0.82916) ==
 == 213-th k-point nmo = 22 (0.13819,0.13819,0.69096) ==
 == 214-th k-point nmo = 22 (0.27639,0.27639,0.55277) ==
 == 215-th k-point nmo = 22 (0.41458,0.41458,0.41458) ==

 Generate autoSAD guess
backing up fragment data
Atom # 0: li, charge: 0, multiplicity: 2.000000
Atom # 1: f, charge: 0, multiplicity: 2.000000
writing autosad to fragment context
Settings for isolated fragments: 
  frgm_gamma: TRUE
  frgm_center: FALSE

    Running SCF for isolated atom #0
    Fragment Input file: /n/netscratch/joonholee_lab/Lab/hieudinh//lif_solve_def2svp_omega_0.6_666.scratch20250909003143/autosad_frgmt_0/frgmt_input.in
    Fragment Output file: /n/netscratch/joonholee_lab/Lab/hieudinh//lif_solve_def2svp_omega_0.6_666.scratch20250909003143/autosad_frgmt_0/frgmt_job.out
    Fragment job begins at Tue Sep  9 00:32:02 2025

 Integrated density by DFT XC:
   Numerical integral  =     2.999999997939
   Relative error      =     0.0000000687 %
Final energy components:
 DFT Correlation            Energy =  -0.05129449360107
 DFT Exchange               Energy =  -1.75293492673808
 Kinetic (alpha)            Energy =   3.83698747219399
 Kinetic (beta)             Energy =   3.56502760489078
 Nuclear Attraction (alpha) Energy =  -9.10672143734249
 Nuclear Attraction (beta)  Energy =  -8.00006101932192
 Nuclear Repulsion          Energy =   0.00000000000000
 SEOQF                      Energy =  -0.00000000000000
 Total Coulomb              Energy =   4.05509638491418
----------------------------------------------
    SCF Energy: -7.4539004150
   Total fragment job time:  0.45 s.
    Running SCF for isolated atom #1
    Fragment Input file: /n/netscratch/joonholee_lab/Lab/hieudinh//lif_solve_def2svp_omega_0.6_666.scratch20250909003143/autosad_frgmt_1/frgmt_input.in
    Fragment Output file: /n/netscratch/joonholee_lab/Lab/hieudinh//lif_solve_def2svp_omega_0.6_666.scratch20250909003143/autosad_frgmt_1/frgmt_job.out
    Fragment job begins at Tue Sep  9 00:32:02 2025

 Integrated density by DFT XC:
   Numerical integral  =     8.999999994599
   Relative error      =     0.0000000600 %
Final energy components:
 DFT Correlation            Energy =  -0.29413872621796
 DFT Exchange               Energy =  -9.98852123057013
 Kinetic (alpha)            Energy =  51.41981583412030
 Kinetic (beta)             Energy =  47.72578494851787
 Nuclear Attraction (alpha) Energy = -125.16794293976491
 Nuclear Attraction (beta)  Energy = -113.10638093110444
 Nuclear Repulsion          Energy =   0.00000000000000
 SEOQF                      Energy =   0.00000000006159
 Total Coulomb              Energy =  49.87162446721072
----------------------------------------------
    SCF Energy: -99.5397585777
   Total fragment job time:  0.67 s.
restoring fragment data

 ------------------------------------------------------------------------
 Allocate 60210432 B from available memory: 104855639008 B
 Time for generating SCF guess: 1.15 s

 Allocate 397396 B from available memory: 104795428576 B
 Selected algorithms for each term:
  kpts_kinetic -> @0x14fe560a1680
  kpts_nn -> @0x14fe560a1800
  kpts_rij_bigmem -> @0x14fe560a13e0
  kpts_vnuc_df -> @0x14fe560a1380
  kpts_xc -> @0x14fe560a12c0
 Time for computing kinetic matrix is 16.73 s
Start calculating Vnuc DD type!
Start calculating Vnuc CD type!
Start calculating Vnuc CC type!
 Time for computing nuclear attraction matrix is 34.50 s
Compute (P|Q) and use solve on the fly!
Maximum distance between P and Q is 30.17566373239437
Number of images for (P|Qn) is 2041
 Time for computing 2e2c SR integral is 0.11 s
Maximum dynamic memory per thread for 2e3c SR integrals: 0.009 GiB
Batch size for basis function pair is 90 out of 90
 === bvk cell = 0 has 100.000 % of the basis function pairs === 
 === bvk cell = 1 has 100.000 % of the basis function pairs === 
 === bvk cell = 2 has 100.000 % of the basis function pairs === 
 === bvk cell = 3 has 100.000 % of the basis function pairs === 
 === bvk cell = 4 has 100.000 % of the basis function pairs === 
 === bvk cell = 5 has 100.000 % of the basis function pairs === 
 === bvk cell = 6 has 100.000 % of the basis function pairs === 
 === bvk cell = 7 has 100.000 % of the basis function pairs === 
 === bvk cell = 8 has 100.000 % of the basis function pairs === 
 === bvk cell = 9 has 100.000 % of the basis function pairs === 
 === bvk cell = 10 has 100.000 % of the basis function pairs === 
 === bvk cell = 11 has 100.000 % of the basis function pairs === 
 === bvk cell = 12 has 100.000 % of the basis function pairs === 
 === bvk cell = 13 has 100.000 % of the basis function pairs === 
 === bvk cell = 14 has 100.000 % of the basis function pairs === 
 === bvk cell = 15 has 100.000 % of the basis function pairs === 
 === bvk cell = 16 has 100.000 % of the basis function pairs === 
 === bvk cell = 17 has 100.000 % of the basis function pairs === 
 === bvk cell = 18 has 100.000 % of the basis function pairs === 
 === bvk cell = 19 has 100.000 % of the basis function pairs === 
 === bvk cell = 20 has 100.000 % of the basis function pairs === 
 === bvk cell = 21 has 100.000 % of the basis function pairs === 
 === bvk cell = 22 has 100.000 % of the basis function pairs === 
 === bvk cell = 23 has 100.000 % of the basis function pairs === 
 === bvk cell = 24 has 100.000 % of the basis function pairs === 
 === bvk cell = 25 has 100.000 % of the basis function pairs === 
 === bvk cell = 26 has 100.000 % of the basis function pairs === 
 === bvk cell = 27 has 100.000 % of the basis function pairs === 
 === bvk cell = 28 has 100.000 % of the basis function pairs === 
 === bvk cell = 29 has 100.000 % of the basis function pairs === 
 === bvk cell = 30 has 100.000 % of the basis function pairs === 
 === bvk cell = 31 has 100.000 % of the basis function pairs === 
 === bvk cell = 32 has 100.000 % of the basis function pairs === 
 === bvk cell = 33 has 100.000 % of the basis function pairs === 
 === bvk cell = 34 has 100.000 % of the basis function pairs === 
 === bvk cell = 35 has 100.000 % of the basis function pairs === 
 === bvk cell = 36 has 100.000 % of the basis function pairs === 
 === bvk cell = 37 has 100.000 % of the basis function pairs === 
 === bvk cell = 38 has 100.000 % of the basis function pairs === 
 === bvk cell = 39 has 100.000 % of the basis function pairs === 
 === bvk cell = 40 has 100.000 % of the basis function pairs === 
 === bvk cell = 41 has 100.000 % of the basis function pairs === 
 === bvk cell = 42 has 100.000 % of the basis function pairs === 
 === bvk cell = 43 has 100.000 % of the basis function pairs === 
 === bvk cell = 44 has 100.000 % of the basis function pairs === 
 === bvk cell = 45 has 100.000 % of the basis function pairs === 
 === bvk cell = 46 has 100.000 % of the basis function pairs === 
 === bvk cell = 47 has 100.000 % of the basis function pairs === 
 === bvk cell = 48 has 100.000 % of the basis function pairs === 
 === bvk cell = 49 has 100.000 % of the basis function pairs === 
 === bvk cell = 50 has 83.333 % of the basis function pairs === 
 === bvk cell = 51 has 100.000 % of the basis function pairs === 
 === bvk cell = 52 has 100.000 % of the basis function pairs === 
 === bvk cell = 53 has 100.000 % of the basis function pairs === 
 === bvk cell = 54 has 100.000 % of the basis function pairs === 
 === bvk cell = 55 has 100.000 % of the basis function pairs === 
 === bvk cell = 56 has 100.000 % of the basis function pairs === 
 === bvk cell = 57 has 100.000 % of the basis function pairs === 
 === bvk cell = 58 has 100.000 % of the basis function pairs === 
 === bvk cell = 59 has 100.000 % of the basis function pairs === 
 === bvk cell = 60 has 100.000 % of the basis function pairs === 
 === bvk cell = 61 has 100.000 % of the basis function pairs === 
 === bvk cell = 62 has 100.000 % of the basis function pairs === 
 === bvk cell = 63 has 100.000 % of the basis function pairs === 
 === bvk cell = 64 has 83.333 % of the basis function pairs === 
 === bvk cell = 65 has 100.000 % of the basis function pairs === 
 === bvk cell = 66 has 100.000 % of the basis function pairs === 
 === bvk cell = 67 has 100.000 % of the basis function pairs === 
 === bvk cell = 68 has 100.000 % of the basis function pairs === 
 === bvk cell = 69 has 100.000 % of the basis function pairs === 
 === bvk cell = 70 has 100.000 % of the basis function pairs === 
 === bvk cell = 71 has 100.000 % of the basis function pairs === 
 === bvk cell = 72 has 100.000 % of the basis function pairs === 
 === bvk cell = 73 has 100.000 % of the basis function pairs === 
 === bvk cell = 74 has 100.000 % of the basis function pairs === 
 === bvk cell = 75 has 100.000 % of the basis function pairs === 
 === bvk cell = 76 has 100.000 % of the basis function pairs === 
 === bvk cell = 77 has 100.000 % of the basis function pairs === 
 === bvk cell = 78 has 100.000 % of the basis function pairs === 
 === bvk cell = 79 has 100.000 % of the basis function pairs === 
 === bvk cell = 80 has 100.000 % of the basis function pairs === 
 === bvk cell = 81 has 100.000 % of the basis function pairs === 
 === bvk cell = 82 has 100.000 % of the basis function pairs === 
 === bvk cell = 83 has 100.000 % of the basis function pairs === 
 === bvk cell = 84 has 100.000 % of the basis function pairs === 
 === bvk cell = 85 has 100.000 % of the basis function pairs === 
 === bvk cell = 86 has 100.000 % of the basis function pairs === 
 === bvk cell = 87 has 100.000 % of the basis function pairs === 
 === bvk cell = 88 has 100.000 % of the basis function pairs === 
 === bvk cell = 89 has 100.000 % of the basis function pairs === 
 === bvk cell = 90 has 100.000 % of the basis function pairs === 
 === bvk cell = 91 has 100.000 % of the basis function pairs === 
 === bvk cell = 92 has 100.000 % of the basis function pairs === 
 === bvk cell = 93 has 83.333 % of the basis function pairs === 
 === bvk cell = 94 has 100.000 % of the basis function pairs === 
 === bvk cell = 95 has 83.333 % of the basis function pairs === 
 === bvk cell = 96 has 100.000 % of the basis function pairs === 
 === bvk cell = 97 has 100.000 % of the basis function pairs === 
 === bvk cell = 98 has 100.000 % of the basis function pairs === 
 === bvk cell = 99 has 100.000 % of the basis function pairs === 
 === bvk cell = 100 has 100.000 % of the basis function pairs === 
 === bvk cell = 101 has 100.000 % of the basis function pairs === 
 === bvk cell = 102 has 100.000 % of the basis function pairs === 
 === bvk cell = 103 has 100.000 % of the basis function pairs === 
 === bvk cell = 104 has 100.000 % of the basis function pairs === 
 === bvk cell = 105 has 83.333 % of the basis function pairs === 
 === bvk cell = 106 has 100.000 % of the basis function pairs === 
 === bvk cell = 107 has 100.000 % of the basis function pairs === 
 === bvk cell = 108 has 100.000 % of the basis function pairs === 
 === bvk cell = 109 has 100.000 % of the basis function pairs === 
 === bvk cell = 110 has 100.000 % of the basis function pairs === 
 === bvk cell = 111 has 100.000 % of the basis function pairs === 
 === bvk cell = 112 has 100.000 % of the basis function pairs === 
 === bvk cell = 113 has 100.000 % of the basis function pairs === 
 === bvk cell = 114 has 100.000 % of the basis function pairs === 
 === bvk cell = 115 has 100.000 % of the basis function pairs === 
 === bvk cell = 116 has 100.000 % of the basis function pairs === 
 === bvk cell = 117 has 100.000 % of the basis function pairs === 
 === bvk cell = 118 has 100.000 % of the basis function pairs === 
 === bvk cell = 119 has 100.000 % of the basis function pairs === 
 === bvk cell = 120 has 100.000 % of the basis function pairs === 
 === bvk cell = 121 has 100.000 % of the basis function pairs === 
 === bvk cell = 122 has 100.000 % of the basis function pairs === 
 === bvk cell = 123 has 100.000 % of the basis function pairs === 
 === bvk cell = 124 has 83.333 % of the basis function pairs === 
 === bvk cell = 125 has 100.000 % of the basis function pairs === 
 === bvk cell = 126 has 100.000 % of the basis function pairs === 
 === bvk cell = 127 has 100.000 % of the basis function pairs === 
 === bvk cell = 128 has 100.000 % of the basis function pairs === 
 === bvk cell = 129 has 86.667 % of the basis function pairs === 
 === bvk cell = 130 has 100.000 % of the basis function pairs === 
 === bvk cell = 131 has 100.000 % of the basis function pairs === 
 === bvk cell = 132 has 100.000 % of the basis function pairs === 
 === bvk cell = 133 has 100.000 % of the basis function pairs === 
 === bvk cell = 134 has 83.333 % of the basis function pairs === 
 === bvk cell = 135 has 100.000 % of the basis function pairs === 
 === bvk cell = 136 has 83.333 % of the basis function pairs === 
 === bvk cell = 137 has 100.000 % of the basis function pairs === 
 === bvk cell = 138 has 100.000 % of the basis function pairs === 
 === bvk cell = 139 has 100.000 % of the basis function pairs === 
 === bvk cell = 140 has 100.000 % of the basis function pairs === 
 === bvk cell = 141 has 100.000 % of the basis function pairs === 
 === bvk cell = 142 has 100.000 % of the basis function pairs === 
 === bvk cell = 143 has 100.000 % of the basis function pairs === 
 === bvk cell = 144 has 100.000 % of the basis function pairs === 
 === bvk cell = 145 has 100.000 % of the basis function pairs === 
 === bvk cell = 146 has 100.000 % of the basis function pairs === 
 === bvk cell = 147 has 100.000 % of the basis function pairs === 
 === bvk cell = 148 has 100.000 % of the basis function pairs === 
 === bvk cell = 149 has 100.000 % of the basis function pairs === 
 === bvk cell = 150 has 100.000 % of the basis function pairs === 
 === bvk cell = 151 has 100.000 % of the basis function pairs === 
 === bvk cell = 152 has 100.000 % of the basis function pairs === 
 === bvk cell = 153 has 100.000 % of the basis function pairs === 
 === bvk cell = 154 has 100.000 % of the basis function pairs === 
 === bvk cell = 155 has 100.000 % of the basis function pairs === 
 === bvk cell = 156 has 100.000 % of the basis function pairs === 
 === bvk cell = 157 has 100.000 % of the basis function pairs === 
 === bvk cell = 158 has 100.000 % of the basis function pairs === 
 === bvk cell = 159 has 100.000 % of the basis function pairs === 
 === bvk cell = 160 has 100.000 % of the basis function pairs === 
 === bvk cell = 161 has 100.000 % of the basis function pairs === 
 === bvk cell = 162 has 100.000 % of the basis function pairs === 
 === bvk cell = 163 has 100.000 % of the basis function pairs === 
 === bvk cell = 164 has 100.000 % of the basis function pairs === 
 === bvk cell = 165 has 83.333 % of the basis function pairs === 
 === bvk cell = 166 has 100.000 % of the basis function pairs === 
 === bvk cell = 167 has 100.000 % of the basis function pairs === 
 === bvk cell = 168 has 100.000 % of the basis function pairs === 
 === bvk cell = 169 has 100.000 % of the basis function pairs === 
 === bvk cell = 170 has 100.000 % of the basis function pairs === 
 === bvk cell = 171 has 100.000 % of the basis function pairs === 
 === bvk cell = 172 has 100.000 % of the basis function pairs === 
 === bvk cell = 173 has 100.000 % of the basis function pairs === 
 === bvk cell = 174 has 100.000 % of the basis function pairs === 
 === bvk cell = 175 has 100.000 % of the basis function pairs === 
 === bvk cell = 176 has 100.000 % of the basis function pairs === 
 === bvk cell = 177 has 100.000 % of the basis function pairs === 
 === bvk cell = 178 has 100.000 % of the basis function pairs === 
 === bvk cell = 179 has 83.333 % of the basis function pairs === 
 === bvk cell = 180 has 100.000 % of the basis function pairs === 
 === bvk cell = 181 has 100.000 % of the basis function pairs === 
 === bvk cell = 182 has 100.000 % of the basis function pairs === 
 === bvk cell = 183 has 100.000 % of the basis function pairs === 
 === bvk cell = 184 has 100.000 % of the basis function pairs === 
 === bvk cell = 185 has 100.000 % of the basis function pairs === 
 === bvk cell = 186 has 100.000 % of the basis function pairs === 
 === bvk cell = 187 has 100.000 % of the basis function pairs === 
 === bvk cell = 188 has 100.000 % of the basis function pairs === 
 === bvk cell = 189 has 100.000 % of the basis function pairs === 
 === bvk cell = 190 has 100.000 % of the basis function pairs === 
 === bvk cell = 191 has 100.000 % of the basis function pairs === 
 === bvk cell = 192 has 100.000 % of the basis function pairs === 
 === bvk cell = 193 has 100.000 % of the basis function pairs === 
 === bvk cell = 194 has 100.000 % of the basis function pairs === 
 === bvk cell = 195 has 100.000 % of the basis function pairs === 
 === bvk cell = 196 has 100.000 % of the basis function pairs === 
 === bvk cell = 197 has 100.000 % of the basis function pairs === 
 === bvk cell = 198 has 100.000 % of the basis function pairs === 
 === bvk cell = 199 has 100.000 % of the basis function pairs === 
 === bvk cell = 200 has 100.000 % of the basis function pairs === 
 === bvk cell = 201 has 100.000 % of the basis function pairs === 
 === bvk cell = 202 has 100.000 % of the basis function pairs === 
 === bvk cell = 203 has 100.000 % of the basis function pairs === 
 === bvk cell = 204 has 100.000 % of the basis function pairs === 
 === bvk cell = 205 has 100.000 % of the basis function pairs === 
 === bvk cell = 206 has 100.000 % of the basis function pairs === 
 === bvk cell = 207 has 100.000 % of the basis function pairs === 
 === bvk cell = 208 has 100.000 % of the basis function pairs === 
 === bvk cell = 209 has 100.000 % of the basis function pairs === 
 === bvk cell = 210 has 100.000 % of the basis function pairs === 
 === bvk cell = 211 has 100.000 % of the basis function pairs === 
 === bvk cell = 212 has 100.000 % of the basis function pairs === 
 === bvk cell = 213 has 100.000 % of the basis function pairs === 
 === bvk cell = 214 has 100.000 % of the basis function pairs === 
 === bvk cell = 215 has 100.000 % of the basis function pairs === 
Static memory requirement for 2e3c SR integrals: 0.014 GB
There are 1 munu batches for computing 2e3c SR integrals with latsum
There are 2 Q batches for computing 2e3c SR integrals with latsum
 Time for computing 2e3c SR integral (CD) is 1.10 s
Maximum dynamic memory per thread for 2e3c SR integrals: 0.004 GiB
Batch size for basis function pair is 190 out of 190
 === bvk cell = 0 has 100.000 % of the basis function pairs === 
 === bvk cell = 1 has 95.263 % of the basis function pairs === 
 === bvk cell = 2 has 48.421 % of the basis function pairs === 
 === bvk cell = 3 has 1.579 % of the basis function pairs === 
 === bvk cell = 4 has 32.105 % of the basis function pairs === 
 === bvk cell = 5 has 90.000 % of the basis function pairs === 
 === bvk cell = 6 has 95.263 % of the basis function pairs === 
 === bvk cell = 7 has 60.526 % of the basis function pairs === 
 === bvk cell = 8 has 13.158 % of the basis function pairs === 
 === bvk cell = 9 has 1.579 % of the basis function pairs === 
 === bvk cell = 10 has 52.105 % of the basis function pairs === 
 === bvk cell = 11 has 95.263 % of the basis function pairs === 
 === bvk cell = 12 has 48.421 % of the basis function pairs === 
 === bvk cell = 13 has 13.158 % of the basis function pairs === 
 === bvk cell = 14 has 0.000 % of the basis function pairs === 
 === bvk cell = 15 has 1.579 % of the basis function pairs === 
 === bvk cell = 16 has 43.684 % of the basis function pairs === 
 === bvk cell = 17 has 56.842 % of the basis function pairs === 
 === bvk cell = 18 has 1.579 % of the basis function pairs === 
 === bvk cell = 19 has 1.579 % of the basis function pairs === 
 === bvk cell = 20 has 1.579 % of the basis function pairs === 
 === bvk cell = 21 has 0.000 % of the basis function pairs === 
 === bvk cell = 22 has 0.000 % of the basis function pairs === 
 === bvk cell = 23 has 4.737 % of the basis function pairs === 
 === bvk cell = 24 has 32.105 % of the basis function pairs === 
 === bvk cell = 25 has 52.105 % of the basis function pairs === 
 === bvk cell = 26 has 43.684 % of the basis function pairs === 
 === bvk cell = 27 has 0.000 % of the basis function pairs === 
 === bvk cell = 28 has 0.000 % of the basis function pairs === 
 === bvk cell = 29 has 3.158 % of the basis function pairs === 
 === bvk cell = 30 has 90.000 % of the basis function pairs === 
 === bvk cell = 31 has 95.263 % of the basis function pairs === 
 === bvk cell = 32 has 56.842 % of the basis function pairs === 
 === bvk cell = 33 has 4.737 % of the basis function pairs === 
 === bvk cell = 34 has 3.158 % of the basis function pairs === 
 === bvk cell = 35 has 43.684 % of the basis function pairs === 
 === bvk cell = 36 has 95.263 % of the basis function pairs === 
 === bvk cell = 37 has 56.842 % of the basis function pairs === 
 === bvk cell = 38 has 4.737 % of the basis function pairs === 
 === bvk cell = 39 has 3.158 % of the basis function pairs === 
 === bvk cell = 40 has 43.684 % of the basis function pairs === 
 === bvk cell = 41 has 90.000 % of the basis function pairs === 
 === bvk cell = 42 has 56.842 % of the basis function pairs === 
 === bvk cell = 43 has 24.737 % of the basis function pairs === 
 === bvk cell = 44 has 0.000 % of the basis function pairs === 
 === bvk cell = 45 has 14.737 % of the basis function pairs === 
 === bvk cell = 46 has 52.105 % of the basis function pairs === 
 === bvk cell = 47 has 59.474 % of the basis function pairs === 
 === bvk cell = 48 has 4.737 % of the basis function pairs === 
 === bvk cell = 49 has 0.000 % of the basis function pairs === 
 === bvk cell = 50 has 0.000 % of the basis function pairs === 
 === bvk cell = 51 has 1.579 % of the basis function pairs === 
 === bvk cell = 52 has 17.895 % of the basis function pairs === 
 === bvk cell = 53 has 26.316 % of the basis function pairs === 
 === bvk cell = 54 has 3.158 % of the basis function pairs === 
 === bvk cell = 55 has 14.737 % of the basis function pairs === 
 === bvk cell = 56 has 1.579 % of the basis function pairs === 
 === bvk cell = 57 has 0.000 % of the basis function pairs === 
 === bvk cell = 58 has 0.000 % of the basis function pairs === 
 === bvk cell = 59 has 1.579 % of the basis function pairs === 
 === bvk cell = 60 has 43.684 % of the basis function pairs === 
 === bvk cell = 61 has 52.105 % of the basis function pairs === 
 === bvk cell = 62 has 17.895 % of the basis function pairs === 
 === bvk cell = 63 has 0.000 % of the basis function pairs === 
 === bvk cell = 64 has 1.579 % of the basis function pairs === 
 === bvk cell = 65 has 16.316 % of the basis function pairs === 
 === bvk cell = 66 has 90.000 % of the basis function pairs === 
 === bvk cell = 67 has 59.474 % of the basis function pairs === 
 === bvk cell = 68 has 26.316 % of the basis function pairs === 
 === bvk cell = 69 has 1.579 % of the basis function pairs === 
 === bvk cell = 70 has 16.316 % of the basis function pairs === 
 === bvk cell = 71 has 53.158 % of the basis function pairs === 
 === bvk cell = 72 has 43.684 % of the basis function pairs === 
 === bvk cell = 73 has 0.000 % of the basis function pairs === 
 === bvk cell = 74 has 0.000 % of the basis function pairs === 
 === bvk cell = 75 has 3.158 % of the basis function pairs === 
 === bvk cell = 76 has 32.105 % of the basis function pairs === 
 === bvk cell = 77 has 52.105 % of the basis function pairs === 
 === bvk cell = 78 has 0.000 % of the basis function pairs === 
 === bvk cell = 79 has 0.000 % of the basis function pairs === 
 === bvk cell = 80 has 0.000 % of the basis function pairs === 
 === bvk cell = 81 has 1.579 % of the basis function pairs === 
 === bvk cell = 82 has 14.737 % of the basis function pairs === 
 === bvk cell = 83 has 17.895 % of the basis function pairs === 
 === bvk cell = 84 has 0.000 % of the basis function pairs === 
 === bvk cell = 85 has 0.000 % of the basis function pairs === 
 === bvk cell = 86 has 0.000 % of the basis function pairs === 
 === bvk cell = 87 has 0.000 % of the basis function pairs === 
 === bvk cell = 88 has 0.000 % of the basis function pairs === 
 === bvk cell = 89 has 0.000 % of the basis function pairs === 
 === bvk cell = 90 has 3.158 % of the basis function pairs === 
 === bvk cell = 91 has 1.579 % of the basis function pairs === 
 === bvk cell = 92 has 0.000 % of the basis function pairs === 
 === bvk cell = 93 has 0.000 % of the basis function pairs === 
 === bvk cell = 94 has 0.000 % of the basis function pairs === 
 === bvk cell = 95 has 1.579 % of the basis function pairs === 
 === bvk cell = 96 has 32.105 % of the basis function pairs === 
 === bvk cell = 97 has 14.737 % of the basis function pairs === 
 === bvk cell = 98 has 0.000 % of the basis function pairs === 
 === bvk cell = 99 has 0.000 % of the basis function pairs === 
 === bvk cell = 100 has 3.158 % of the basis function pairs === 
 === bvk cell = 101 has 16.316 % of the basis function pairs === 
 === bvk cell = 102 has 52.105 % of the basis function pairs === 
 === bvk cell = 103 has 17.895 % of the basis function pairs === 
 === bvk cell = 104 has 0.000 % of the basis function pairs === 
 === bvk cell = 105 has 1.579 % of the basis function pairs === 
 === bvk cell = 106 has 16.316 % of the basis function pairs === 
 === bvk cell = 107 has 43.684 % of the basis function pairs === 
 === bvk cell = 108 has 0.000 % of the basis function pairs === 
 === bvk cell = 109 has 0.000 % of the basis function pairs === 
 === bvk cell = 110 has 4.737 % of the basis function pairs === 
 === bvk cell = 111 has 1.579 % of the basis function pairs === 
 === bvk cell = 112 has 1.579 % of the basis function pairs === 
 === bvk cell = 113 has 1.579 % of the basis function pairs === 
 === bvk cell = 114 has 0.000 % of the basis function pairs === 
 === bvk cell = 115 has 24.737 % of the basis function pairs === 
 === bvk cell = 116 has 13.158 % of the basis function pairs === 
 === bvk cell = 117 has 0.000 % of the basis function pairs === 
 === bvk cell = 118 has 0.000 % of the basis function pairs === 
 === bvk cell = 119 has 0.000 % of the basis function pairs === 
 === bvk cell = 120 has 4.737 % of the basis function pairs === 
 === bvk cell = 121 has 13.158 % of the basis function pairs === 
 === bvk cell = 122 has 4.737 % of the basis function pairs === 
 === bvk cell = 123 has 0.000 % of the basis function pairs === 
 === bvk cell = 124 has 0.000 % of the basis function pairs === 
 === bvk cell = 125 has 0.000 % of the basis function pairs === 
 === bvk cell = 126 has 1.579 % of the basis function pairs === 
 === bvk cell = 127 has 0.000 % of the basis function pairs === 
 === bvk cell = 128 has 0.000 % of the basis function pairs === 
 === bvk cell = 129 has 0.000 % of the basis function pairs === 
 === bvk cell = 130 has 0.000 % of the basis function pairs === 
 === bvk cell = 131 has 1.579 % of the basis function pairs === 
 === bvk cell = 132 has 1.579 % of the basis function pairs === 
 === bvk cell = 133 has 0.000 % of the basis function pairs === 
 === bvk cell = 134 has 0.000 % of the basis function pairs === 
 === bvk cell = 135 has 0.000 % of the basis function pairs === 
 === bvk cell = 136 has 1.579 % of the basis function pairs === 
 === bvk cell = 137 has 3.158 % of the basis function pairs === 
 === bvk cell = 138 has 1.579 % of the basis function pairs === 
 === bvk cell = 139 has 0.000 % of the basis function pairs === 
 === bvk cell = 140 has 0.000 % of the basis function pairs === 
 === bvk cell = 141 has 1.579 % of the basis function pairs === 
 === bvk cell = 142 has 3.158 % of the basis function pairs === 
 === bvk cell = 143 has 14.737 % of the basis function pairs === 
 === bvk cell = 144 has 43.684 % of the basis function pairs === 
 === bvk cell = 145 has 56.842 % of the basis function pairs === 
 === bvk cell = 146 has 48.421 % of the basis function pairs === 
 === bvk cell = 147 has 13.158 % of the basis function pairs === 
 === bvk cell = 148 has 0.000 % of the basis function pairs === 
 === bvk cell = 149 has 1.579 % of the basis function pairs === 
 === bvk cell = 150 has 56.842 % of the basis function pairs === 
 === bvk cell = 151 has 60.526 % of the basis function pairs === 
 === bvk cell = 152 has 31.053 % of the basis function pairs === 
 === bvk cell = 153 has 4.737 % of the basis function pairs === 
 === bvk cell = 154 has 0.000 % of the basis function pairs === 
 === bvk cell = 155 has 17.895 % of the basis function pairs === 
 === bvk cell = 156 has 48.421 % of the basis function pairs === 
 === bvk cell = 157 has 31.053 % of the basis function pairs === 
 === bvk cell = 158 has 13.158 % of the basis function pairs === 
 === bvk cell = 159 has 0.000 % of the basis function pairs === 
 === bvk cell = 160 has 0.000 % of the basis function pairs === 
 === bvk cell = 161 has 26.316 % of the basis function pairs === 
 === bvk cell = 162 has 13.158 % of the basis function pairs === 
 === bvk cell = 163 has 4.737 % of the basis function pairs === 
 === bvk cell = 164 has 0.000 % of the basis function pairs === 
 === bvk cell = 165 has 0.000 % of the basis function pairs === 
 === bvk cell = 166 has 0.000 % of the basis function pairs === 
 === bvk cell = 167 has 4.737 % of the basis function pairs === 
 === bvk cell = 168 has 0.000 % of the basis function pairs === 
 === bvk cell = 169 has 0.000 % of the basis function pairs === 
 === bvk cell = 170 has 0.000 % of the basis function pairs === 
 === bvk cell = 171 has 0.000 % of the basis function pairs === 
 === bvk cell = 172 has 0.000 % of the basis function pairs === 
 === bvk cell = 173 has 0.000 % of the basis function pairs === 
 === bvk cell = 174 has 1.579 % of the basis function pairs === 
 === bvk cell = 175 has 17.895 % of the basis function pairs === 
 === bvk cell = 176 has 26.316 % of the basis function pairs === 
 === bvk cell = 177 has 4.737 % of the basis function pairs === 
 === bvk cell = 178 has 0.000 % of the basis function pairs === 
 === bvk cell = 179 has 0.000 % of the basis function pairs === 
 === bvk cell = 180 has 95.263 % of the basis function pairs === 
 === bvk cell = 181 has 95.263 % of the basis function pairs === 
 === bvk cell = 182 has 60.526 % of the basis function pairs === 
 === bvk cell = 183 has 13.158 % of the basis function pairs === 
 === bvk cell = 184 has 1.579 % of the basis function pairs === 
 === bvk cell = 185 has 52.105 % of the basis function pairs === 
 === bvk cell = 186 has 95.263 % of the basis function pairs === 
 === bvk cell = 187 has 63.158 % of the basis function pairs === 
 === bvk cell = 188 has 31.053 % of the basis function pairs === 
 === bvk cell = 189 has 0.000 % of the basis function pairs === 
 === bvk cell = 190 has 14.737 % of the basis function pairs === 
 === bvk cell = 191 has 59.474 % of the basis function pairs === 
 === bvk cell = 192 has 60.526 % of the basis function pairs === 
 === bvk cell = 193 has 31.053 % of the basis function pairs === 
 === bvk cell = 194 has 4.737 % of the basis function pairs === 
 === bvk cell = 195 has 0.000 % of the basis function pairs === 
 === bvk cell = 196 has 17.895 % of the basis function pairs === 
 === bvk cell = 197 has 56.842 % of the basis function pairs === 
 === bvk cell = 198 has 13.158 % of the basis function pairs === 
 === bvk cell = 199 has 0.000 % of the basis function pairs === 
 === bvk cell = 200 has 0.000 % of the basis function pairs === 
 === bvk cell = 201 has 0.000 % of the basis function pairs === 
 === bvk cell = 202 has 0.000 % of the basis function pairs === 
 === bvk cell = 203 has 24.737 % of the basis function pairs === 
 === bvk cell = 204 has 1.579 % of the basis function pairs === 
 === bvk cell = 205 has 14.737 % of the basis function pairs === 
 === bvk cell = 206 has 17.895 % of the basis function pairs === 
 === bvk cell = 207 has 0.000 % of the basis function pairs === 
 === bvk cell = 208 has 0.000 % of the basis function pairs === 
 === bvk cell = 209 has 0.000 % of the basis function pairs === 
 === bvk cell = 210 has 52.105 % of the basis function pairs === 
 === bvk cell = 211 has 59.474 % of the basis function pairs === 
 === bvk cell = 212 has 56.842 % of the basis function pairs === 
 === bvk cell = 213 has 24.737 % of the basis function pairs === 
 === bvk cell = 214 has 0.000 % of the basis function pairs === 
 === bvk cell = 215 has 14.737 % of the basis function pairs === 
Static memory requirement for 2e3c SR integrals: 0.006 GB
There are 1 munu batches for computing 2e3c SR integrals with latsum
There are 2 Q batches for computing 2e3c SR integrals with latsum
 Time for computing 2e3c SR integral (CC) is 0.15 s
 Time for RI-J this SCF iteration is 2.93 s
 Time for RI-J this SCF iteration is 1.56 s
 ----------------------------------------------
 Guess energy: -107.2834694044
 ----------------------------------------------
 Guess energy components:
 DFT Correlation    Energy =  -0.39502114380088
 DFT Exchange       Energy = -12.18161151199493
 Kinetic            Energy = 108.40114340534792
 Nuclear Attraction Energy = -201.43722244736804
 Nuclear Repulsion  Energy = -31.10949437582012
 Total Coulomb      Energy =  29.43873666922431
 ----------------------------------------------
  Cycle       Energy        RMS Gradient
 ----------------------------------------------
 Time for RI-J this SCF iteration is 1.53 s
    1    -107.2986117850      2.33e-01   Descent step
 Energy components after cycle 1:
 DFT Correlation    Energy =  -0.39473938044917
 DFT Exchange       Energy = -12.13789867393490
 Kinetic            Energy = 108.06940263488316
 Nuclear Attraction Energy = -200.86032098781547
 Nuclear Repulsion  Energy = -31.10949437582012
 Total Coulomb      Energy =  29.13443899815858
 Time for RI-J this SCF iteration is 1.52 s
    2    -107.3108479494      1.93e-01   Descent step
 Energy components after cycle 2:
 DFT Correlation    Energy =  -0.39451116188878
 DFT Exchange       Energy = -12.09456785055273
 Kinetic            Energy = 107.74034692300268
 Nuclear Attraction Energy = -200.28556424801309
 Nuclear Repulsion  Energy = -31.10949437582012
 Total Coulomb      Energy =  28.83294276389877
 Time for RI-J this SCF iteration is 1.52 s
    3    -107.3202306110      1.54e-01   Descent step
 Energy components after cycle 3:
 DFT Correlation    Energy =  -0.39433473425617
 DFT Exchange       Energy = -12.05161130529727
 Kinetic            Energy = 107.41411700622741
 Nuclear Attraction Energy = -199.71306275603803
 Nuclear Repulsion  Energy = -31.10949437582012
 Total Coulomb      Energy =  28.53415555416708
 Time for RI-J this SCF iteration is 1.52 s
    4    -107.3268023463      1.15e-01   Descent step
 Energy components after cycle 4:
 DFT Correlation    Energy =  -0.39420893526663
 DFT Exchange       Energy = -12.00903949076220
 Kinetic            Energy = 107.09113191681411
 Nuclear Attraction Energy = -199.14327865055714
 Nuclear Repulsion  Energy = -31.10949437582012
 Total Coulomb      Energy =  28.23808718932501
 Time for RI-J this SCF iteration is 1.54 s
    5    -107.3305996944      7.65e-02   Descent step
 Energy components after cycle 5:
 DFT Correlation    Energy =  -0.39413363274274
 DFT Exchange       Energy = -11.96691753575302
 Kinetic            Energy = 106.77264315966841
 Nuclear Attraction Energy = -198.57775261875668
 Nuclear Repulsion  Energy = -31.10949437582012
 Total Coulomb      Energy =  27.94505530895861
 Time for RI-J this SCF iteration is 1.52 s
    6    -107.3317162831      3.79e-02   Normal BFGS step
 Energy components after cycle 6:
 DFT Correlation    Energy =  -0.39413975191923
 DFT Exchange       Energy = -11.93085772845685
 Kinetic            Energy = 106.52096128767546
 Nuclear Attraction Energy = -198.10929483318873
 Nuclear Repulsion  Energy = -31.10949437582012
 Total Coulomb      Energy =  27.69110911862406
 Time for RI-J this SCF iteration is 1.52 s
    7    -107.3317169237      5.50e-04   Normal BFGS step
 Energy components after cycle 7:
 DFT Correlation    Energy =  -0.39413911637063
 DFT Exchange       Energy = -11.93112471405102
 Kinetic            Energy = 106.52099908626796
 Nuclear Attraction Energy = -198.11155934954829
 Nuclear Repulsion  Energy = -31.10949437582012
 Total Coulomb      Energy =  27.69360154585298
 Time for RI-J this SCF iteration is 1.55 s
    8    -107.3317169277      5.45e-05   Normal BFGS step
 Energy components after cycle 8:
 DFT Correlation    Energy =  -0.39413897885730
 DFT Exchange       Energy = -11.93116048852920
 Kinetic            Energy = 106.52134171345179
 Nuclear Attraction Energy = -198.11196983693870
 Nuclear Repulsion  Energy = -31.10949437582012
 Total Coulomb      Energy =  27.69370503901085
 Time for RI-J this SCF iteration is 1.54 s
    9    -107.3317169277      4.38e-06   Normal BFGS step
 Energy components after cycle 9:
 DFT Correlation    Energy =  -0.39413899019809
 DFT Exchange       Energy = -11.93115575573765
 Kinetic            Energy = 106.52131096429093
 Nuclear Attraction Energy = -198.11192187421912
 Nuclear Repulsion  Energy = -31.10949437582012
 Total Coulomb      Energy =  27.69368310394633
    9    -107.3317169277      4.38e-06  Convergence criterion met
 ----------------------------------------------
 Final energy components:
 DFT Correlation    Energy =  -0.39413899019809
 DFT Exchange       Energy = -11.93115575573765
 Kinetic            Energy = 106.52131096429093
 Nuclear Attraction Energy = -198.11192187421912
 Nuclear Repulsion  Energy = -31.10949437582012
 Total Coulomb      Energy =  27.69368310394633
 ----------------------------------------------
 Final energy is -107.3317169277

 SCF time:   CPU 2532.26s  wall 117.00s 
 Total wall time for computing Kinetic: 0.00 s (11)
 Total wall time for computing RIJ-BIGMEM: 18.26 s (11)
 Total wall time for computing RSDF Vnuc: 0.00 s (11)
 Total wall time for computing DFT XC: 26.55 s (11)
 ---------------------------------------------------------------------------
                        Orbital Energies (a.u.)
 ---------------------------------------------------------------------------
 == 0-th k-point (-0.27639,-0.27639,-0.27639) occupation: 6==
 -23.88061 -1.46691 -0.66448 -0.03668 0.02945 0.02945 0.44088 0.69808 0.76848 0.76848
 1.43233 1.59273 1.59273 1.67865 1.67865 1.99346 2.71812 3.36757 3.36757 3.52020
 3.70166 3.70166
 == 1-th k-point (-0.13819,-0.13819,-0.41458) occupation: 6==
 -23.88062 -1.46695 -0.66373 -0.02684 0.01804 0.01937 0.46631 0.69984 0.78950 0.78964
 1.18010 1.50839 1.56617 1.89735 1.93375 1.99537 2.70028 3.34279 3.35830 3.50371
 3.52930 3.62158
 == 2-th k-point (-0.00000,0.00000,-0.55277) occupation: 6==
 -23.88051 -1.46641 -0.65750 -0.04606 0.00755 0.00755 0.51795 0.75424 0.79149 0.79149
 1.53974 1.66841 1.66841 1.87062 2.19480 2.19480 2.71904 3.31120 3.31589 3.49947
 3.54138 3.54138
 == 3-th k-point (0.13819,0.13819,-0.69096) occupation: 6==
 -23.88040 -1.46583 -0.65175 -0.06164 -0.00842 0.00523 0.55890 0.65793 0.74478 0.77732
 1.20708 1.54927 1.74567 1.77581 2.08904 2.38751 2.53147 3.33431 3.39173 3.46491
 3.50046 3.51302
 == 4-th k-point (0.27639,0.27639,-0.82916) occupation: 6==
 -23.88042 -1.46579 -0.65256 -0.04421 -0.03032 0.01447 0.55396 0.59462 0.75980 0.76672
 1.39174 1.48375 1.65592 1.77512 2.24742 2.26064 2.48281 3.31599 3.48511 3.48802
 3.49743 3.53372
 == 5-th k-point (0.41458,0.41458,-0.96735) occupation: 6==
 -23.88054 -1.46634 -0.65906 -0.04373 0.00094 0.02676 0.47846 0.63568 0.75518 0.78164
 1.27113 1.57765 1.66743 1.78504 2.07833 2.22629 2.53991 3.34212 3.42085 3.50688
 3.52144 3.68759
 == 6-th k-point (-0.13819,-0.41458,-0.13819) occupation: 6==
 -23.88062 -1.46695 -0.66373 -0.02684 0.01804 0.01937 0.46631 0.69984 0.78950 0.78964
 1.18010 1.50839 1.56617 1.89735 1.93375 1.99537 2.70028 3.34279 3.35830 3.50371
 3.52930 3.62158
 == 7-th k-point (-0.00000,-0.27639,-0.27639) occupation: 6==
 -23.88069 -1.46732 -0.66722 -0.01270 0.01348 0.03372 0.44427 0.69080 0.80113 0.81435
 1.14167 1.57096 1.67460 1.83137 1.97139 2.33776 2.68181 3.31593 3.37122 3.53645
 3.54352 3.76232
 == 8-th k-point (0.13819,-0.13819,-0.41458) occupation: 6==
 -23.88062 -1.46695 -0.66373 -0.02684 0.01804 0.01937 0.46631 0.69984 0.78950 0.78964
 1.18010 1.50839 1.56617 1.89735 1.93375 1.99537 2.70028 3.34279 3.35830 3.50371
 3.52930 3.62158
 == 9-th k-point (0.27639,0.00000,-0.55277) occupation: 6==
 -23.88062 -1.46620 -0.65641 -0.04256 -0.01076 0.01643 0.51632 0.63600 0.74645 0.78910
 1.17909 1.42752 1.69152 1.79592 2.06320 2.41138 2.62319 3.31845 3.40021 3.49643
 3.50331 3.52007
 == 10-th k-point (0.41458,0.13819,-0.69096) occupation: 6==
 -23.88065 -1.46581 -0.65257 -0.04663 -0.02619 0.01236 0.54455 0.60978 0.72981 0.78129
 1.33587 1.33874 1.55469 1.77862 2.18360 2.32211 2.67196 3.32783 3.45688 3.47327
 3.50267 3.50272
 == 11-th k-point (0.55277,0.27639,-0.82916) occupation: 6==
 -23.88062 -1.46620 -0.65641 -0.04256 -0.01076 0.01643 0.51632 0.63600 0.74645 0.78910
 1.17909 1.42752 1.69152 1.79592 2.06320 2.41138 2.62319 3.31845 3.40021 3.49643
 3.50331 3.52007
 == 12-th k-point (-0.00000,-0.55277,-0.00000) occupation: 6==
 -23.88051 -1.46641 -0.65750 -0.04606 0.00755 0.00755 0.51795 0.75424 0.79149 0.79149
 1.53974 1.66841 1.66841 1.87062 2.19480 2.19480 2.71904 3.31120 3.31589 3.49947
 3.54138 3.54138
 == 13-th k-point (0.13819,-0.41458,-0.13819) occupation: 6==
 -23.88062 -1.46695 -0.66373 -0.02684 0.01804 0.01937 0.46631 0.69984 0.78950 0.78964
 1.18010 1.50839 1.56617 1.89735 1.93375 1.99537 2.70028 3.34279 3.35830 3.50371
 3.52930 3.62158
 == 14-th k-point (0.27639,-0.27639,-0.27639) occupation: 6==
 -23.88061 -1.46691 -0.66448 -0.03668 0.02945 0.02945 0.44088 0.69808 0.76848 0.76848
 1.43233 1.59273 1.59273 1.67865 1.67865 1.99346 2.71812 3.36757 3.36757 3.52020
 3.70166 3.70166
 == 15-th k-point (0.41458,-0.13819,-0.41458) occupation: 6==
 -23.88054 -1.46634 -0.65906 -0.04373 0.00094 0.02676 0.47846 0.63568 0.75518 0.78164
 1.27113 1.57765 1.66743 1.78504 2.07833 2.22629 2.53991 3.34212 3.42085 3.50688
 3.52144 3.68759
 == 16-th k-point (0.55277,0.00000,-0.55277) occupation: 6==
 -23.88042 -1.46579 -0.65256 -0.04421 -0.03032 0.01447 0.55396 0.59462 0.75980 0.76672
 1.39174 1.48375 1.65592 1.77512 2.24742 2.26064 2.48281 3.31599 3.48511 3.48802
 3.49743 3.53372
 == 17-th k-point (0.69096,0.13819,-0.69096) occupation: 6==
 -23.88040 -1.46583 -0.65175 -0.06164 -0.00842 0.00523 0.55890 0.65793 0.74478 0.77732
 1.20708 1.54927 1.74567 1.77581 2.08904 2.38751 2.53147 3.33431 3.39173 3.46491
 3.50046 3.51302
 == 18-th k-point (0.13819,-0.69096,0.13819) occupation: 6==
 -23.88040 -1.46583 -0.65175 -0.06164 -0.00842 0.00523 0.55890 0.65793 0.74478 0.77732
 1.20708 1.54927 1.74567 1.77581 2.08904 2.38751 2.53147 3.33431 3.39173 3.46491
 3.50046 3.51302
 == 19-th k-point (0.27639,-0.55277,-0.00000) occupation: 6==
 -23.88062 -1.46620 -0.65641 -0.04256 -0.01076 0.01643 0.51632 0.63600 0.74645 0.78910
 1.17909 1.42752 1.69152 1.79592 2.06320 2.41138 2.62319 3.31845 3.40021 3.49643
 3.50331 3.52007
 == 20-th k-point (0.41458,-0.41458,-0.13819) occupation: 6==
 -23.88054 -1.46634 -0.65906 -0.04373 0.00094 0.02676 0.47846 0.63568 0.75518 0.78164
 1.27113 1.57765 1.66743 1.78504 2.07833 2.22629 2.53991 3.34212 3.42085 3.50688
 3.52144 3.68759
 == 21-th k-point (0.55277,-0.27639,-0.27639) occupation: 6==
 -23.88048 -1.46618 -0.65720 -0.05247 0.00582 0.01967 0.48461 0.64259 0.75575 0.76563
 1.37722 1.52770 1.60108 1.71312 2.04964 2.11187 2.53425 3.36179 3.41377 3.50993
 3.51150 3.63539
 == 22-th k-point (0.69096,-0.13819,-0.41458) occupation: 6==
 -23.88065 -1.46581 -0.65257 -0.04663 -0.02619 0.01236 0.54455 0.60978 0.72981 0.78129
 1.33587 1.33874 1.55469 1.77862 2.18360 2.32211 2.67196 3.32783 3.45688 3.47327
 3.50267 3.50272
 == 23-th k-point (0.82916,0.00000,-0.55277) occupation: 6==
 -23.88067 -1.46564 -0.64978 -0.05963 -0.02234 0.00417 0.58796 0.62280 0.69684 0.78591
 1.16494 1.47733 1.51590 1.87679 2.12689 2.37598 2.75661 3.31602 3.40017 3.44519
 3.50272 3.51353
 == 24-th k-point (0.27639,-0.82916,0.27639) occupation: 6==
 -23.88042 -1.46579 -0.65256 -0.04421 -0.03032 0.01447 0.55396 0.59462 0.75980 0.76672
 1.39174 1.48375 1.65592 1.77512 2.24742 2.26064 2.48281 3.31599 3.48511 3.48802
 3.49743 3.53372
 == 25-th k-point (0.41458,-0.69096,0.13819) occupation: 6==
 -23.88065 -1.46581 -0.65257 -0.04663 -0.02619 0.01236 0.54455 0.60978 0.72981 0.78129
 1.33587 1.33874 1.55469 1.77862 2.18360 2.32211 2.67196 3.32783 3.45688 3.47327
 3.50267 3.50272
 == 26-th k-point (0.55277,-0.55277,-0.00000) occupation: 6==
 -23.88042 -1.46579 -0.65256 -0.04421 -0.03032 0.01447 0.55396 0.59462 0.75980 0.76672
 1.39174 1.48375 1.65592 1.77512 2.24742 2.26064 2.48281 3.31599 3.48511 3.48802
 3.49743 3.53372
 == 27-th k-point (0.69096,-0.41458,-0.13819) occupation: 6==
 -23.88065 -1.46581 -0.65257 -0.04663 -0.02619 0.01236 0.54455 0.60978 0.72981 0.78129
 1.33587 1.33874 1.55469 1.77862 2.18360 2.32211 2.67196 3.32783 3.45688 3.47327
 3.50267 3.50272
 == 28-th k-point (0.82916,-0.27639,-0.27639) occupation: 6==
 -23.88042 -1.46579 -0.65256 -0.04421 -0.03032 0.01447 0.55396 0.59462 0.75980 0.76672
 1.39174 1.48375 1.65592 1.77512 2.24742 2.26064 2.48281 3.31599 3.48511 3.48802
 3.49743 3.53372
 == 29-th k-point (0.96735,-0.13819,-0.41458) occupation: 6==
 -23.88065 -1.46581 -0.65257 -0.04663 -0.02619 0.01236 0.54455 0.60978 0.72981 0.78129
 1.33587 1.33874 1.55469 1.77862 2.18360 2.32211 2.67196 3.32783 3.45688 3.47327
 3.50267 3.50272
 == 30-th k-point (0.41458,-0.96735,0.41458) occupation: 6==
[...]
 1.33587 1.33874 1.55469 1.77862 2.18360 2.32211 2.67196 3.32783 3.45688 3.47327
 3.50267 3.50272
 == 140-th k-point (0.27639,-0.27639,0.55277) occupation: 6==
 -23.88048 -1.46618 -0.65720 -0.05247 0.00582 0.01967 0.48461 0.64259 0.75575 0.76563
 1.37722 1.52770 1.60108 1.71312 2.04964 2.11187 2.53425 3.36179 3.41377 3.50993
 3.51150 3.63539
 == 141-th k-point (0.41458,-0.13819,0.41458) occupation: 6==
 -23.88054 -1.46634 -0.65906 -0.04373 0.00094 0.02676 0.47846 0.63568 0.75518 0.78164
 1.27113 1.57765 1.66743 1.78504 2.07833 2.22629 2.53991 3.34212 3.42085 3.50688
 3.52144 3.68759
 == 142-th k-point (0.55277,-0.00000,0.27639) occupation: 6==
 -23.88062 -1.46620 -0.65641 -0.04256 -0.01076 0.01643 0.51632 0.63600 0.74645 0.78910
 1.17909 1.42752 1.69152 1.79592 2.06320 2.41138 2.62319 3.31845 3.40021 3.49643
 3.50331 3.52007
 == 143-th k-point (0.69096,0.13819,0.13819) occupation: 6==
 -23.88040 -1.46583 -0.65175 -0.06164 -0.00842 0.00523 0.55890 0.65793 0.74478 0.77732
 1.20708 1.54927 1.74567 1.77581 2.08904 2.38751 2.53147 3.33431 3.39173 3.46491
 3.50046 3.51302
 == 144-th k-point (-0.82916,0.27639,0.27639) occupation: 6==
 -23.88042 -1.46579 -0.65256 -0.04421 -0.03032 0.01447 0.55396 0.59462 0.75980 0.76672
 1.39174 1.48375 1.65592 1.77512 2.24742 2.26064 2.48281 3.31599 3.48511 3.48802
 3.49743 3.53372
 == 145-th k-point (-0.69096,0.41458,0.13819) occupation: 6==
 -23.88065 -1.46581 -0.65257 -0.04663 -0.02619 0.01236 0.54455 0.60978 0.72981 0.78129
 1.33587 1.33874 1.55469 1.77862 2.18360 2.32211 2.67196 3.32783 3.45688 3.47327
 3.50267 3.50272
 == 146-th k-point (-0.55277,0.55277,0.00000) occupation: 6==
 -23.88042 -1.46579 -0.65256 -0.04421 -0.03032 0.01447 0.55396 0.59462 0.75980 0.76672
 1.39174 1.48375 1.65592 1.77512 2.24742 2.26064 2.48281 3.31599 3.48511 3.48802
 3.49743 3.53372
 == 147-th k-point (-0.41458,0.69096,-0.13819) occupation: 6==
 -23.88065 -1.46581 -0.65257 -0.04663 -0.02619 0.01236 0.54455 0.60978 0.72981 0.78129
 1.33587 1.33874 1.55469 1.77862 2.18360 2.32211 2.67196 3.32783 3.45688 3.47327
 3.50267 3.50272
 == 148-th k-point (-0.27639,0.82916,-0.27639) occupation: 6==
 -23.88042 -1.46579 -0.65256 -0.04421 -0.03032 0.01447 0.55396 0.59462 0.75980 0.76672
 1.39174 1.48375 1.65592 1.77512 2.24742 2.26064 2.48281 3.31599 3.48511 3.48802
 3.49743 3.53372
 == 149-th k-point (-0.13819,0.96735,-0.41458) occupation: 6==
 -23.88065 -1.46581 -0.65257 -0.04663 -0.02619 0.01236 0.54455 0.60978 0.72981 0.78129
 1.33587 1.33874 1.55469 1.77862 2.18360 2.32211 2.67196 3.32783 3.45688 3.47327
 3.50267 3.50272
 == 150-th k-point (-0.69096,0.13819,0.41458) occupation: 6==
 -23.88065 -1.46581 -0.65257 -0.04663 -0.02619 0.01236 0.54455 0.60978 0.72981 0.78129
 1.33587 1.33874 1.55469 1.77862 2.18360 2.32211 2.67196 3.32783 3.45688 3.47327
 3.50267 3.50272
 == 151-th k-point (-0.55277,0.27639,0.27639) occupation: 6==
 -23.88048 -1.46618 -0.65720 -0.05247 0.00582 0.01967 0.48461 0.64259 0.75575 0.76563
 1.37722 1.52770 1.60108 1.71312 2.04964 2.11187 2.53425 3.36179 3.41377 3.50993
 3.51150 3.63539
 == 152-th k-point (-0.41458,0.41458,0.13819) occupation: 6==
 -23.88054 -1.46634 -0.65906 -0.04373 0.00094 0.02676 0.47846 0.63568 0.75518 0.78164
 1.27113 1.57765 1.66743 1.78504 2.07833 2.22629 2.53991 3.34212 3.42085 3.50688
 3.52144 3.68759
 == 153-th k-point (-0.27639,0.55277,0.00000) occupation: 6==
 -23.88062 -1.46620 -0.65641 -0.04256 -0.01076 0.01643 0.51632 0.63600 0.74645 0.78910
 1.17909 1.42752 1.69152 1.79592 2.06320 2.41138 2.62319 3.31845 3.40021 3.49643
 3.50331 3.52007
 == 154-th k-point (-0.13819,0.69096,-0.13819) occupation: 6==
 -23.88040 -1.46583 -0.65175 -0.06164 -0.00842 0.00523 0.55890 0.65793 0.74478 0.77732
 1.20708 1.54927 1.74567 1.77581 2.08904 2.38751 2.53147 3.33431 3.39173 3.46491
 3.50046 3.51302
 == 155-th k-point (0.00000,0.82916,-0.27639) occupation: 6==
 -23.88067 -1.46564 -0.64978 -0.05963 -0.02234 0.00417 0.58796 0.62280 0.69684 0.78591
 1.16494 1.47733 1.51590 1.87679 2.12689 2.37598 2.75661 3.31602 3.40017 3.44519
 3.50272 3.51353
 == 156-th k-point (-0.55277,-0.00000,0.55277) occupation: 6==
 -23.88042 -1.46579 -0.65256 -0.04421 -0.03032 0.01447 0.55396 0.59462 0.75980 0.76672
 1.39174 1.48375 1.65592 1.77512 2.24742 2.26064 2.48281 3.31599 3.48511 3.48802
 3.49743 3.53372
 == 157-th k-point (-0.41458,0.13819,0.41458) occupation: 6==
 -23.88054 -1.46634 -0.65906 -0.04373 0.00094 0.02676 0.47846 0.63568 0.75518 0.78164
 1.27113 1.57765 1.66743 1.78504 2.07833 2.22629 2.53991 3.34212 3.42085 3.50688
 3.52144 3.68759
 == 158-th k-point (-0.27639,0.27639,0.27639) occupation: 6==
 -23.88061 -1.46691 -0.66448 -0.03668 0.02945 0.02945 0.44088 0.69808 0.76848 0.76848
 1.43233 1.59273 1.59273 1.67865 1.67865 1.99346 2.71812 3.36757 3.36757 3.52020
 3.70166 3.70166
 == 159-th k-point (-0.13819,0.41458,0.13819) occupation: 6==
 -23.88062 -1.46695 -0.66373 -0.02684 0.01804 0.01937 0.46631 0.69984 0.78950 0.78964
 1.18010 1.50839 1.56617 1.89735 1.93375 1.99537 2.70028 3.34279 3.35830 3.50371
 3.52930 3.62158
 == 160-th k-point (0.00000,0.55277,0.00000) occupation: 6==
 -23.88051 -1.46641 -0.65750 -0.04606 0.00755 0.00755 0.51795 0.75424 0.79149 0.79149
 1.53974 1.66841 1.66841 1.87062 2.19480 2.19480 2.71904 3.31120 3.31589 3.49947
 3.54138 3.54138
 == 161-th k-point (0.13819,0.69096,-0.13819) occupation: 6==
 -23.88040 -1.46583 -0.65175 -0.06164 -0.00842 0.00523 0.55890 0.65793 0.74478 0.77732
 1.20708 1.54927 1.74567 1.77581 2.08904 2.38751 2.53147 3.33431 3.39173 3.46491
 3.50046 3.51302
 == 162-th k-point (-0.41458,-0.13819,0.69096) occupation: 6==
 -23.88065 -1.46581 -0.65257 -0.04663 -0.02619 0.01236 0.54455 0.60978 0.72981 0.78129
 1.33587 1.33874 1.55469 1.77862 2.18360 2.32211 2.67196 3.32783 3.45688 3.47327
 3.50267 3.50272
 == 163-th k-point (-0.27639,-0.00000,0.55277) occupation: 6==
 -23.88062 -1.46620 -0.65641 -0.04256 -0.01076 0.01643 0.51632 0.63600 0.74645 0.78910
 1.17909 1.42752 1.69152 1.79592 2.06320 2.41138 2.62319 3.31845 3.40021 3.49643
 3.50331 3.52007
 == 164-th k-point (-0.13819,0.13819,0.41458) occupation: 6==
 -23.88062 -1.46695 -0.66373 -0.02684 0.01804 0.01937 0.46631 0.69984 0.78950 0.78964
 1.18010 1.50839 1.56617 1.89735 1.93375 1.99537 2.70028 3.34279 3.35830 3.50371
 3.52930 3.62158
 == 165-th k-point (0.00000,0.27639,0.27639) occupation: 6==
 -23.88069 -1.46732 -0.66722 -0.01270 0.01348 0.03372 0.44427 0.69080 0.80113 0.81435
 1.14167 1.57096 1.67460 1.83137 1.97139 2.33776 2.68181 3.31593 3.37122 3.53645
 3.54352 3.76232
 == 166-th k-point (0.13819,0.41458,0.13819) occupation: 6==
 -23.88062 -1.46695 -0.66373 -0.02684 0.01804 0.01937 0.46631 0.69984 0.78950 0.78964
 1.18010 1.50839 1.56617 1.89735 1.93375 1.99537 2.70028 3.34279 3.35830 3.50371
 3.52930 3.62158
 == 167-th k-point (0.27639,0.55277,0.00000) occupation: 6==
 -23.88062 -1.46620 -0.65641 -0.04256 -0.01076 0.01643 0.51632 0.63600 0.74645 0.78910
 1.17909 1.42752 1.69152 1.79592 2.06320 2.41138 2.62319 3.31845 3.40021 3.49643
 3.50331 3.52007
 == 168-th k-point (-0.27639,-0.27639,0.82916) occupation: 6==
 -23.88042 -1.46579 -0.65256 -0.04421 -0.03032 0.01447 0.55396 0.59462 0.75980 0.76672
 1.39174 1.48375 1.65592 1.77512 2.24742 2.26064 2.48281 3.31599 3.48511 3.48802
 3.49743 3.53372
 == 169-th k-point (-0.13819,-0.13819,0.69096) occupation: 6==
 -23.88040 -1.46583 -0.65175 -0.06164 -0.00842 0.00523 0.55890 0.65793 0.74478 0.77732
 1.20708 1.54927 1.74567 1.77581 2.08904 2.38751 2.53147 3.33431 3.39173 3.46491
 3.50046 3.51302
 == 170-th k-point (0.00000,-0.00000,0.55277) occupation: 6==
 -23.88051 -1.46641 -0.65750 -0.04606 0.00755 0.00755 0.51795 0.75424 0.79149 0.79149
 1.53974 1.66841 1.66841 1.87062 2.19480 2.19480 2.71904 3.31120 3.31589 3.49947
 3.54138 3.54138
 == 171-th k-point (0.13819,0.13819,0.41458) occupation: 6==
 -23.88062 -1.46695 -0.66373 -0.02684 0.01804 0.01937 0.46631 0.69984 0.78950 0.78964
 1.18010 1.50839 1.56617 1.89735 1.93375 1.99537 2.70028 3.34279 3.35830 3.50371
 3.52930 3.62158
 == 172-th k-point (0.27639,0.27639,0.27639) occupation: 6==
 -23.88061 -1.46691 -0.66448 -0.03668 0.02945 0.02945 0.44088 0.69808 0.76848 0.76848
 1.43233 1.59273 1.59273 1.67865 1.67865 1.99346 2.71812 3.36757 3.36757 3.52020
 3.70166 3.70166
 == 173-th k-point (0.41458,0.41458,0.13819) occupation: 6==
 -23.88054 -1.46634 -0.65906 -0.04373 0.00094 0.02676 0.47846 0.63568 0.75518 0.78164
 1.27113 1.57765 1.66743 1.78504 2.07833 2.22629 2.53991 3.34212 3.42085 3.50688
 3.52144 3.68759
 == 174-th k-point (-0.13819,-0.41458,0.96735) occupation: 6==
 -23.88065 -1.46581 -0.65257 -0.04663 -0.02619 0.01236 0.54455 0.60978 0.72981 0.78129
 1.33587 1.33874 1.55469 1.77862 2.18360 2.32211 2.67196 3.32783 3.45688 3.47327
 3.50267 3.50272
 == 175-th k-point (0.00000,-0.27639,0.82916) occupation: 6==
 -23.88067 -1.46564 -0.64978 -0.05963 -0.02234 0.00417 0.58796 0.62280 0.69684 0.78591
 1.16494 1.47733 1.51590 1.87679 2.12689 2.37598 2.75661 3.31602 3.40017 3.44519
 3.50272 3.51353
 == 176-th k-point (0.13819,-0.13819,0.69096) occupation: 6==
 -23.88040 -1.46583 -0.65175 -0.06164 -0.00842 0.00523 0.55890 0.65793 0.74478 0.77732
 1.20708 1.54927 1.74567 1.77581 2.08904 2.38751 2.53147 3.33431 3.39173 3.46491
 3.50046 3.51302
 == 177-th k-point (0.27639,-0.00000,0.55277) occupation: 6==
 -23.88062 -1.46620 -0.65641 -0.04256 -0.01076 0.01643 0.51632 0.63600 0.74645 0.78910
 1.17909 1.42752 1.69152 1.79592 2.06320 2.41138 2.62319 3.31845 3.40021 3.49643
 3.50331 3.52007
 == 178-th k-point (0.41458,0.13819,0.41458) occupation: 6==
 -23.88054 -1.46634 -0.65906 -0.04373 0.00094 0.02676 0.47846 0.63568 0.75518 0.78164
 1.27113 1.57765 1.66743 1.78504 2.07833 2.22629 2.53991 3.34212 3.42085 3.50688
 3.52144 3.68759
 == 179-th k-point (0.55277,0.27639,0.27639) occupation: 6==
 -23.88048 -1.46618 -0.65720 -0.05247 0.00582 0.01967 0.48461 0.64259 0.75575 0.76563
 1.37722 1.52770 1.60108 1.71312 2.04964 2.11187 2.53425 3.36179 3.41377 3.50993
 3.51150 3.63539
 == 180-th k-point (-0.96735,0.41458,0.41458) occupation: 6==
 -23.88054 -1.46634 -0.65906 -0.04373 0.00094 0.02676 0.47846 0.63568 0.75518 0.78164
 1.27113 1.57765 1.66743 1.78504 2.07833 2.22629 2.53991 3.34212 3.42085 3.50688
 3.52144 3.68759
 == 181-th k-point (-0.82916,0.55277,0.27639) occupation: 6==
 -23.88062 -1.46620 -0.65641 -0.04256 -0.01076 0.01643 0.51632 0.63600 0.74645 0.78910
 1.17909 1.42752 1.69152 1.79592 2.06320 2.41138 2.62319 3.31845 3.40021 3.49643
 3.50331 3.52007
 == 182-th k-point (-0.69096,0.69096,0.13819) occupation: 6==
 -23.88040 -1.46583 -0.65175 -0.06164 -0.00842 0.00523 0.55890 0.65793 0.74478 0.77732
 1.20708 1.54927 1.74567 1.77581 2.08904 2.38751 2.53147 3.33431 3.39173 3.46491
 3.50046 3.51302
 == 183-th k-point (-0.55277,0.82916,0.00000) occupation: 6==
 -23.88067 -1.46564 -0.64978 -0.05963 -0.02234 0.00417 0.58796 0.62280 0.69684 0.78591
 1.16494 1.47733 1.51590 1.87679 2.12689 2.37598 2.75661 3.31602 3.40017 3.44519
 3.50272 3.51353
 == 184-th k-point (-0.41458,0.96735,-0.13819) occupation: 6==
 -23.88065 -1.46581 -0.65257 -0.04663 -0.02619 0.01236 0.54455 0.60978 0.72981 0.78129
 1.33587 1.33874 1.55469 1.77862 2.18360 2.32211 2.67196 3.32783 3.45688 3.47327
 3.50267 3.50272
 == 185-th k-point (-0.27639,1.10554,-0.27639) occupation: 6==
 -23.88048 -1.46618 -0.65720 -0.05247 0.00582 0.01967 0.48461 0.64259 0.75575 0.76563
 1.37722 1.52770 1.60108 1.71312 2.04964 2.11187 2.53425 3.36179 3.41377 3.50993
 3.51150 3.63539
 == 186-th k-point (-0.82916,0.27639,0.55277) occupation: 6==
 -23.88062 -1.46620 -0.65641 -0.04256 -0.01076 0.01643 0.51632 0.63600 0.74645 0.78910
 1.17909 1.42752 1.69152 1.79592 2.06320 2.41138 2.62319 3.31845 3.40021 3.49643
 3.50331 3.52007
 == 187-th k-point (-0.69096,0.41458,0.41458) occupation: 6==
 -23.88054 -1.46634 -0.65906 -0.04373 0.00094 0.02676 0.47846 0.63568 0.75518 0.78164
 1.27113 1.57765 1.66743 1.78504 2.07833 2.22629 2.53991 3.34212 3.42085 3.50688
 3.52144 3.68759
 == 188-th k-point (-0.55277,0.55277,0.27639) occupation: 6==
 -23.88048 -1.46618 -0.65720 -0.05247 0.00582 0.01967 0.48461 0.64259 0.75575 0.76563
 1.37722 1.52770 1.60108 1.71312 2.04964 2.11187 2.53425 3.36179 3.41377 3.50993
 3.51150 3.63539
 == 189-th k-point (-0.41458,0.69096,0.13819) occupation: 6==
 -23.88065 -1.46581 -0.65257 -0.04663 -0.02619 0.01236 0.54455 0.60978 0.72981 0.78129
 1.33587 1.33874 1.55469 1.77862 2.18360 2.32211 2.67196 3.32783 3.45688 3.47327
 3.50267 3.50272
 == 190-th k-point (-0.27639,0.82916,0.00000) occupation: 6==
 -23.88067 -1.46564 -0.64978 -0.05963 -0.02234 0.00417 0.58796 0.62280 0.69684 0.78591
 1.16494 1.47733 1.51590 1.87679 2.12689 2.37598 2.75661 3.31602 3.40017 3.44519
 3.50272 3.51353
 == 191-th k-point (-0.13819,0.96735,-0.13819) occupation: 6==
 -23.88040 -1.46583 -0.65175 -0.06164 -0.00842 0.00523 0.55890 0.65793 0.74478 0.77732
 1.20708 1.54927 1.74567 1.77581 2.08904 2.38751 2.53147 3.33431 3.39173 3.46491
 3.50046 3.51302
 == 192-th k-point (-0.69096,0.13819,0.69096) occupation: 6==
 -23.88040 -1.46583 -0.65175 -0.06164 -0.00842 0.00523 0.55890 0.65793 0.74478 0.77732
 1.20708 1.54927 1.74567 1.77581 2.08904 2.38751 2.53147 3.33431 3.39173 3.46491
 3.50046 3.51302
 == 193-th k-point (-0.55277,0.27639,0.55277) occupation: 6==
 -23.88048 -1.46618 -0.65720 -0.05247 0.00582 0.01967 0.48461 0.64259 0.75575 0.76563
 1.37722 1.52770 1.60108 1.71312 2.04964 2.11187 2.53425 3.36179 3.41377 3.50993
 3.51150 3.63539
 == 194-th k-point (-0.41458,0.41458,0.41458) occupation: 6==
 -23.88051 -1.46629 -0.65984 -0.05757 0.02744 0.02744 0.44459 0.67944 0.73839 0.73839
 1.61284 1.61993 1.61993 1.79596 1.79597 2.08718 2.66573 3.37123 3.37123 3.51258
 3.73956 3.73956
 == 195-th k-point (-0.27639,0.55277,0.27639) occupation: 6==
 -23.88048 -1.46618 -0.65720 -0.05247 0.00582 0.01967 0.48461 0.64259 0.75575 0.76563
 1.37722 1.52770 1.60108 1.71312 2.04964 2.11187 2.53425 3.36179 3.41377 3.50993
 3.51150 3.63539
 == 196-th k-point (-0.13819,0.69096,0.13819) occupation: 6==
 -23.88040 -1.46583 -0.65175 -0.06164 -0.00842 0.00523 0.55890 0.65793 0.74478 0.77732
 1.20708 1.54927 1.74567 1.77581 2.08904 2.38751 2.53147 3.33431 3.39173 3.46491
 3.50046 3.51302
 == 197-th k-point (0.00000,0.82916,0.00000) occupation: 6==
 -23.88030 -1.46565 -0.64893 -0.07658 -0.00159 -0.00159 0.58351 0.71443 0.78624 0.78624
 1.63606 1.74811 1.84125 1.84125 2.63036 2.63037 2.64953 3.31122 3.31589 3.31602
 3.31602 3.50462
 == 198-th k-point (-0.55277,-0.00000,0.82916) occupation: 6==
 -23.88067 -1.46564 -0.64978 -0.05963 -0.02234 0.00417 0.58796 0.62280 0.69684 0.78591
 1.16494 1.47733 1.51590 1.87679 2.12689 2.37598 2.75661 3.31602 3.40017 3.44519
 3.50272 3.51353
 == 199-th k-point (-0.41458,0.13819,0.69096) occupation: 6==
 -23.88065 -1.46581 -0.65257 -0.04663 -0.02619 0.01236 0.54455 0.60978 0.72981 0.78129
 1.33587 1.33874 1.55469 1.77862 2.18360 2.32211 2.67196 3.32783 3.45688 3.47327
 3.50267 3.50272
 == 200-th k-point (-0.27639,0.27639,0.55277) occupation: 6==
 -23.88048 -1.46618 -0.65720 -0.05247 0.00582 0.01967 0.48461 0.64259 0.75575 0.76563
 1.37722 1.52770 1.60108 1.71312 2.04964 2.11187 2.53425 3.36179 3.41377 3.50993
 3.51150 3.63539
 == 201-th k-point (-0.13819,0.41458,0.41458) occupation: 6==
 -23.88054 -1.46634 -0.65906 -0.04373 0.00094 0.02676 0.47846 0.63568 0.75518 0.78164
 1.27113 1.57765 1.66743 1.78504 2.07833 2.22629 2.53991 3.34212 3.42085 3.50688
 3.52144 3.68759
 == 202-th k-point (0.00000,0.55277,0.27639) occupation: 6==
 -23.88062 -1.46620 -0.65641 -0.04256 -0.01076 0.01643 0.51632 0.63600 0.74645 0.78910
 1.17909 1.42752 1.69152 1.79592 2.06320 2.41138 2.62319 3.31845 3.40021 3.49643
 3.50331 3.52007
 == 203-th k-point (0.13819,0.69096,0.13819) occupation: 6==
 -23.88040 -1.46583 -0.65175 -0.06164 -0.00842 0.00523 0.55890 0.65793 0.74478 0.77732
 1.20708 1.54927 1.74567 1.77581 2.08904 2.38751 2.53147 3.33431 3.39173 3.46491
 3.50046 3.51302
 == 204-th k-point (-0.41458,-0.13819,0.96735) occupation: 6==
 -23.88065 -1.46581 -0.65257 -0.04663 -0.02619 0.01236 0.54455 0.60978 0.72981 0.78129
 1.33587 1.33874 1.55469 1.77862 2.18360 2.32211 2.67196 3.32783 3.45688 3.47327
 3.50267 3.50272
 == 205-th k-point (-0.27639,-0.00000,0.82916) occupation: 6==
 -23.88067 -1.46564 -0.64978 -0.05963 -0.02234 0.00417 0.58796 0.62280 0.69684 0.78591
 1.16494 1.47733 1.51590 1.87679 2.12689 2.37598 2.75661 3.31602 3.40017 3.44519
 3.50272 3.51353
 == 206-th k-point (-0.13819,0.13819,0.69096) occupation: 6==
 -23.88040 -1.46583 -0.65175 -0.06164 -0.00842 0.00523 0.55890 0.65793 0.74478 0.77732
 1.20708 1.54927 1.74567 1.77581 2.08904 2.38751 2.53147 3.33431 3.39173 3.46491
 3.50046 3.51302
 == 207-th k-point (0.00000,0.27639,0.55277) occupation: 6==
 -23.88062 -1.46620 -0.65641 -0.04256 -0.01076 0.01643 0.51632 0.63600 0.74645 0.78910
 1.17909 1.42752 1.69152 1.79592 2.06320 2.41138 2.62319 3.31845 3.40021 3.49643
 3.50331 3.52007
 == 208-th k-point (0.13819,0.41458,0.41458) occupation: 6==
 -23.88054 -1.46634 -0.65906 -0.04373 0.00094 0.02676 0.47846 0.63568 0.75518 0.78164
 1.27113 1.57765 1.66743 1.78504 2.07833 2.22629 2.53991 3.34212 3.42085 3.50688
 3.52144 3.68759
 == 209-th k-point (0.27639,0.55277,0.27639) occupation: 6==
 -23.88048 -1.46618 -0.65720 -0.05247 0.00582 0.01967 0.48461 0.64259 0.75575 0.76563
 1.37722 1.52770 1.60108 1.71312 2.04964 2.11187 2.53425 3.36179 3.41377 3.50993
 3.51150 3.63539
 == 210-th k-point (-0.27639,-0.27639,1.10554) occupation: 6==
 -23.88048 -1.46618 -0.65720 -0.05247 0.00582 0.01967 0.48461 0.64259 0.75575 0.76563
 1.37722 1.52770 1.60108 1.71312 2.04964 2.11187 2.53425 3.36179 3.41377 3.50993
 3.51150 3.63539
 == 211-th k-point (-0.13819,-0.13819,0.96735) occupation: 6==
 -23.88040 -1.46583 -0.65175 -0.06164 -0.00842 0.00523 0.55890 0.65793 0.74478 0.77732
 1.20708 1.54927 1.74567 1.77581 2.08904 2.38751 2.53147 3.33431 3.39173 3.46491
 3.50046 3.51302
 == 212-th k-point (0.00000,-0.00000,0.82916) occupation: 6==
 -23.88030 -1.46565 -0.64893 -0.07658 -0.00159 -0.00159 0.58351 0.71443 0.78624 0.78624
 1.63606 1.74811 1.84125 1.84125 2.63036 2.63037 2.64953 3.31122 3.31589 3.31602
 3.31602 3.50462
 == 213-th k-point (0.13819,0.13819,0.69096) occupation: 6==
 -23.88040 -1.46583 -0.65175 -0.06164 -0.00842 0.00523 0.55890 0.65793 0.74478 0.77732
 1.20708 1.54927 1.74567 1.77581 2.08904 2.38751 2.53147 3.33431 3.39173 3.46491
 3.50046 3.51302
 == 214-th k-point (0.27639,0.27639,0.55277) occupation: 6==
 -23.88048 -1.46618 -0.65720 -0.05247 0.00582 0.01967 0.48461 0.64259 0.75575 0.76563
 1.37722 1.52770 1.60108 1.71312 2.04964 2.11187 2.53425 3.36179 3.41377 3.50993
 3.51150 3.63539
 == 215-th k-point (0.41458,0.41458,0.41458) occupation: 6==
 -23.88051 -1.46629 -0.65984 -0.05757 0.02744 0.02744 0.44459 0.67944 0.73839 0.73839
 1.61284 1.61993 1.61993 1.79597 1.79597 2.08718 2.66573 3.37123 3.37123 3.51258
 3.73956 3.73956
 ---------------------------------------------------------------------------
 VBM is at 86-th k-point with 0.96895 eV
 CBM is at 86-th k-point with 10.57392 eV
 Band gap is 9.60497 eV


           Ground-State Mulliken Net Atomic Charges

      Atom                 Charge (a.u.)          Spin (a.u.)
   --------------------------------------------------------
      1 Li               (0.469861,-0.000000)    (0.000000,0.000000)
      2  F               (-0.469861,0.000000)    (0.000000,0.000000)
   --------------------------------------------------------
  Sum of atomic charges =       (0.000000,0.000000)
  Sum of spin   charges =       (0.000000,0.000000)



 Total job time:  116.69 s.
 Tue Sep  9 00:33:41 2025


        *************************************************************
        *                                                           *
        *  Thank you very much for using QCPBC. Have a nice day.    *
        *                                                           *
        *************************************************************

Running job 1 of 1
