                  Welcome to Q-Chem
           with Periodic Boundary Condition
     A Quantum Leap Into The Future Of Chemistry

 Adam Rettig, Xintian Feng, Meng-Fu Chen, Hieu Dinh, Stephen Quiton,
 Anton Ni, Paul J. Robinson, Jinghong Zhang, Joonho Lee

Contributors to earlier versions of Q-Chem not listed above:
 Evgeny Epifanovsky, Leo Cunha, Jerome F. Gonthier, Kuan-Yu Liu
 Input file: /n/netscratch/joonholee_lab/Lab/hieudinh//si_2_ccpvtz_omega_0.9_111111.scratch20250909102635/si_2_ccpvtz_omega_0.9_111111.0
 Scratch folder: /n/netscratch/joonholee_lab/Lab/hieudinh//si_2_ccpvtz_omega_0.9_111111.scratch20250909102635
 Auxillary files located at: /n/holylabs/LABS/joonholee_lab/Lab/qchem_base/qcaux
 Q-Chem begins on Tue Sep  9 10:26:36 2025

 -------------------------------------------------------------
 User input:
 -------------------------------------------------------------
 $lattice
 3
 0.000000 5.130600 5.130600
 5.130600 0.000000 5.130600
 5.130600 5.130600 0.000000
 $end
 
 $unitcell
 ABSOLUTE
 0 1
 Si 0.000000 0.000000 0.000000
 Si 2.565300 2.565300 2.565300
 $end
 
 $rem
 jobtype = sp
 method = pbe
 scf_convergence = 5
 scf_guess = autosad
 scf_algorithm = diis_gdm
 basis = cc-pvtz
 aux_basis = cc-pvtz-jk
 input_bohr = true
 symmetry = false
 rsdf_print_level 1
 is_basis_uctr true
 
 mp_mesh = [11,11,11]
 
 integral_direct true
 bvk_cgto true
 
 thresh 14
 mem_total 1000000
 threads 32
 
 MAX_SCF_CYCLES 500
 madelung = false
 omega 0.9
 do_rij_bigmem true
 automate_g true
 print_level 10
 grid_type_xc 1
 
 thresh_1e2c_sp 1e-14
 thresh_2e3c_bra_ket_sep 1e-10
 thresh_g 1e-12
 $end
 
 -------------------------------------------------------------
 Running PBC job

 Requested Exchange Correlation Functionals: 
  DFT Exchange:  1.00000 pbe_x
  DFT Correlation:  1.00000 pbe_c
 using 32 threads for computing.
 ---------------------------------------------------------------
      Coordinates of Atoms in Central Unit Cell (Angstroms)
    I     Atom         X            Y            Z
 ---------------------------------------------------------------
    1      Si      0.000000     0.000000     0.000000
    2      Si      1.357498     1.357498     1.357498
 ---------------------------------------------------------------
 --------------------------------------------------
              Lattice Vectors (Angstroms)
              X            Y            Z
 --------------------------------------------------
   X       0.000000     2.714997     2.714997
   Y       2.714997     0.000000     2.714997
   Z       2.714997     2.714997     0.000000
 --------------------------------------------------
 --------------------------------------------------
       Reciprocal Lattice Vectors (Angstroms^-1)
              X            Y            Z
 --------------------------------------------------
   X      -1.157126     1.157126     1.157126
   Y       1.157126    -1.157126     1.157126
   Z       1.157126     1.157126    -1.157126
 --------------------------------------------------

 Single point calculation requested

 Hamiltonian contributions:
 List of terms in Hamiltonian: kpts_nn, kpts_kinetic, kpts_vnuc_df, kpts_xc, kpts_rij_bigmem

 K-Points calculation started.

 Basis set information about using solid harmonic (1) or Cartesian (0):
  si : D(1) D(1) F(1) 

 Basis set information about using solid harmonic (1) or Cartesian (0):
  si : D(1) D(1) D(1) D(1) D(1) D(1) D(1) D(1) D(1) F(1) F(1) F(1) G(1) 

 There are 68 basis functions in the central unit cell.
 Print atomic basis of atoms in the central unit cell:
 -------------------------------------------------------------
2 104 104 24

  0.00000000000000e+00  0.00000000000000e+00  0.00000000000000e+00
  2.56530000000000e+00  2.56530000000000e+00  2.56530000000000e+00

  2.54900000000000e+05
  3.81900000000000e+04
  8.69000000000000e+03
  2.46200000000000e+03
  8.04800000000000e+02
  2.91300000000000e+02
  1.13600000000000e+02
  4.67500000000000e+01
  1.98200000000000e+01
  7.70800000000000e+00
  3.34000000000000e+00
  2.54900000000000e+05
  3.81900000000000e+04
  8.69000000000000e+03
  8.04800000000000e+02
  2.91300000000000e+02
  1.13600000000000e+02
  4.67500000000000e+01
  1.98200000000000e+01
  7.70800000000000e+00
  3.34000000000000e+00
  1.40200000000000e+00
  2.54900000000000e+05
  3.81900000000000e+04
  8.69000000000000e+03
  2.91300000000000e+02
  1.13600000000000e+02
  4.67500000000000e+01
  1.98200000000000e+01
  7.70800000000000e+00
  3.34000000000000e+00
  1.40200000000000e+00
  2.07000000000000e-01
  4.38700000000000e-01
  7.94400000000000e-02
  4.81500000000000e+02
  1.13900000000000e+02
  3.62300000000000e+01
  1.33400000000000e+01
  5.25200000000000e+00
  2.12000000000000e+00
  1.13900000000000e+02
  3.62300000000000e+01
  1.33400000000000e+01
  5.25200000000000e+00
  2.12000000000000e+00
  2.52800000000000e-01
  8.56100000000000e-01
  7.88900000000000e-02
  4.81000000000000e-01
  1.59000000000000e-01
  3.36000000000000e-01
  2.54900000000000e+05
  3.81900000000000e+04
  8.69000000000000e+03
  2.46200000000000e+03
  8.04800000000000e+02
  2.91300000000000e+02
  1.13600000000000e+02
  4.67500000000000e+01
  1.98200000000000e+01
  7.70800000000000e+00
  3.34000000000000e+00
  2.54900000000000e+05
  3.81900000000000e+04
  8.69000000000000e+03
  8.04800000000000e+02
  2.91300000000000e+02
  1.13600000000000e+02
  4.67500000000000e+01
  1.98200000000000e+01
  7.70800000000000e+00
  3.34000000000000e+00
  1.40200000000000e+00
  2.54900000000000e+05
  3.81900000000000e+04
  8.69000000000000e+03
  2.91300000000000e+02
  1.13600000000000e+02
  4.67500000000000e+01
  1.98200000000000e+01
  7.70800000000000e+00
  3.34000000000000e+00
  1.40200000000000e+00
  2.07000000000000e-01
  4.38700000000000e-01
  7.94400000000000e-02
  4.81500000000000e+02
  1.13900000000000e+02
  3.62300000000000e+01
  1.33400000000000e+01
  5.25200000000000e+00
  2.12000000000000e+00
  1.13900000000000e+02
  3.62300000000000e+01
  1.33400000000000e+01
  5.25200000000000e+00
  2.12000000000000e+00
  2.52800000000000e-01
  8.56100000000000e-01
  7.88900000000000e-02
  4.81000000000000e-01
  1.59000000000000e-01
  3.36000000000000e-01

  5.06121931014315e-01
  9.46667895564849e-01
  1.63484840115776e+00
  2.64073594005923e+00
  3.97699155153283e+00
  5.40905960736848e+00
  6.15868961670172e+00
  4.99170532032548e+00
  2.02857976424901e+00
  1.82839763527352e-01
 -1.25640690342342e-02
  1.10808750449959e-03
  1.94415577975663e-03
  2.70023730632789e-03
 -1.69098200112149e-02
 -8.66890848691569e-02
 -2.76125946359713e-01
 -6.25588788447604e-01
 -6.61701688370681e-01
  3.11114524237060e-01
  9.56658906468163e-01
  4.36891217824705e-01
  1.05873342256663e-04
  1.52975802748887e-04
  4.28394863673135e-04
 -4.94070443505333e-03
 -1.17298035021286e-02
 -2.95023896611804e-02
 -1.71455066569284e-02
  3.00007138114875e-03
 -6.19326651465540e-02
 -2.59989143457351e-01
  2.47187614608056e-01
  3.84180942836044e-01
  1.06644759418552e-01
  6.70509611941243e+00
  8.84487660481054e+00
  9.82415782069442e+00
  8.40902910540583e+00
  4.80448757555754e+00
  1.55989499299286e+00
 -1.15889775037608e-01
 -5.13312293701512e-02
 -2.64771097977823e-01
 -6.52512718105956e-02
 -1.94608613796415e-01
  2.59380435893970e-01
  1.17380433533106e+00
  5.95960578383022e-02
  4.57260134599596e-01
  6.58952976069849e-02
  1.26537084505476e-01
  5.06121931014315e-01
  9.46667895564849e-01
  1.63484840115776e+00
  2.64073594005923e+00
  3.97699155153283e+00
  5.40905960736848e+00
  6.15868961670172e+00
  4.99170532032548e+00
  2.02857976424901e+00
  1.82839763527352e-01
 -1.25640690342342e-02
  1.10808750449959e-03
  1.94415577975663e-03
  2.70023730632789e-03
 -1.69098200112149e-02
 -8.66890848691569e-02
 -2.76125946359713e-01
 -6.25588788447604e-01
 -6.61701688370681e-01
  3.11114524237060e-01
  9.56658906468163e-01
  4.36891217824705e-01
  1.05873342256663e-04
  1.52975802748887e-04
  4.28394863673135e-04
 -4.94070443505333e-03
 -1.17298035021286e-02
 -2.95023896611804e-02
 -1.71455066569284e-02
  3.00007138114875e-03
 -6.19326651465540e-02
 -2.59989143457351e-01
  2.47187614608056e-01
  3.84180942836044e-01
  1.06644759418552e-01
  6.70509611941243e+00
  8.84487660481054e+00
  9.82415782069442e+00
  8.40902910540583e+00
  4.80448757555754e+00
  1.55989499299286e+00
 -1.15889775037608e-01
 -5.13312293701512e-02
 -2.64771097977823e-01
 -6.52512718105956e-02
 -1.94608613796415e-01
  2.59380435893970e-01
  1.17380433533106e+00
  5.95960578383022e-02
  4.57260134599596e-01
  6.58952976069849e-02
  1.26537084505476e-01

0 0 0 0 1 1 1
0 0 
11 0

0 1 1 11 1 1 1
11 0 
11 0

0 2 2 22 1 1 1
22 0 
11 0

0 3 3 33 1 1 1
33 0 
1 0

0 4 4 34 1 1 1
34 0 
1 0

0 5 5 35 1 3 3
35 1 
6 0

0 8 8 41 1 3 3
41 1 
6 0

0 11 11 47 1 3 3
47 1 
1 0

0 14 14 48 1 3 3
48 1 
1 0

0 17 17 49 1 5 6
49 2 
1 1

0 22 22 50 1 5 6
50 2 
1 1

0 27 27 51 1 7 10
51 3 
1 1

1 34 34 52 1 1 1
52 0 
11 0

1 35 35 63 1 1 1
63 0 
11 0

1 36 36 74 1 1 1
74 0 
11 0

1 37 37 85 1 1 1
85 0 
1 0

1 38 38 86 1 1 1
86 0 
1 0

1 39 39 87 1 3 3
87 1 
6 0

1 42 42 93 1 3 3
93 1 
6 0

1 45 45 99 1 3 3
99 1 
1 0

1 48 48 100 1 3 3
100 1 
1 0

1 51 51 101 1 5 6
101 2 
1 1

1 56 56 102 1 5 6
102 2 
1 1

1 61 61 103 1 7 10
103 3 
1 1

 -------------------------------------------------------------
 Allocate 263208 B from available memory: 1048576000000 B
 There are 1331 image cells after screening.
 There are 1353 image cells for CGTO evaluation after screening.
 Real-Space grid for FFT initialized based on kinetic energy cutoff (eV) = 500.0
 Real-Space grid for FFT: (10,10,10)
 There are 9261 real-space grid points.
 There are 64 batches of real-space grid points. 
 Size of each grid batch is around 128
 Grid for AFT initialized based on kinetic energy cutoff (eV) = 500.0
 Real-Space grid for AFT: (10,10,10)
 There are 9261 real-space grid points.

 There are 5456 atom-centered grid points.

 Spacegroup symmetry group: Fd-3m
 Reducing spacegroup symmetry to symmorphic group: F -4 3 m
 Monkhorst-Pack mesh is [11,11,11]
 There are 1331 k points.
kpoints in Bohr
-0.2783293690 -0.2783293690 -0.2783293690
-0.2226634952 -0.2226634952 -0.3339952428
-0.1669976214 -0.1669976214 -0.3896611166
-0.1113317476 -0.1113317476 -0.4453269904
-0.0556658738 -0.0556658738 -0.5009928642
-0.0000000000 -0.0000000000 -0.5566587381
0.0556658738 0.0556658738 -0.6123246119
0.1113317476 0.1113317476 -0.6679904857
0.1669976214 0.1669976214 -0.7236563595
0.2226634952 0.2226634952 -0.7793222333
0.2783293690 0.2783293690 -0.8349881071
-0.2226634952 -0.3339952428 -0.2226634952
-0.1669976214 -0.2783293690 -0.2783293690
-0.1113317476 -0.2226634952 -0.3339952428
-0.0556658738 -0.1669976214 -0.3896611166
-0.0000000000 -0.1113317476 -0.4453269904
0.0556658738 -0.0556658738 -0.5009928642
0.1113317476 -0.0000000000 -0.5566587381
0.1669976214 0.0556658738 -0.6123246119
0.2226634952 0.1113317476 -0.6679904857
0.2783293690 0.1669976214 -0.7236563595
0.3339952428 0.2226634952 -0.7793222333
-0.1669976214 -0.3896611166 -0.1669976214
-0.1113317476 -0.3339952428 -0.2226634952
-0.0556658738 -0.2783293690 -0.2783293690
-0.0000000000 -0.2226634952 -0.3339952428
0.0556658738 -0.1669976214 -0.3896611166
0.1113317476 -0.1113317476 -0.4453269904
0.1669976214 -0.0556658738 -0.5009928642
0.2226634952 -0.0000000000 -0.5566587381
0.2783293690 0.0556658738 -0.6123246119
0.3339952428 0.1113317476 -0.6679904857
0.3896611166 0.1669976214 -0.7236563595
-0.1113317476 -0.4453269904 -0.1113317476
-0.0556658738 -0.3896611166 -0.1669976214
-0.0000000000 -0.3339952428 -0.2226634952
0.0556658738 -0.2783293690 -0.2783293690
0.1113317476 -0.2226634952 -0.3339952428
0.1669976214 -0.1669976214 -0.3896611166
0.2226634952 -0.1113317476 -0.4453269904
0.2783293690 -0.0556658738 -0.5009928642
0.3339952428 0.0000000000 -0.5566587381
0.3896611166 0.0556658738 -0.6123246119
0.4453269904 0.1113317476 -0.6679904857
-0.0556658738 -0.5009928642 -0.0556658738
-0.0000000000 -0.4453269904 -0.1113317476
0.0556658738 -0.3896611166 -0.1669976214
0.1113317476 -0.3339952428 -0.2226634952
0.1669976214 -0.2783293690 -0.2783293690
0.2226634952 -0.2226634952 -0.3339952428
0.2783293690 -0.1669976214 -0.3896611166
0.3339952428 -0.1113317476 -0.4453269904
0.3896611166 -0.0556658738 -0.5009928642
0.4453269904 0.0000000000 -0.5566587381
0.5009928642 0.0556658738 -0.6123246119
-0.0000000000 -0.5566587381 0.0000000000
0.0556658738 -0.5009928642 -0.0556658738
0.1113317476 -0.4453269904 -0.1113317476
0.1669976214 -0.3896611166 -0.1669976214
0.2226634952 -0.3339952428 -0.2226634952
0.2783293690 -0.2783293690 -0.2783293690
0.3339952428 -0.2226634952 -0.3339952428
0.3896611166 -0.1669976214 -0.3896611166
0.4453269904 -0.1113317476 -0.4453269904
0.5009928642 -0.0556658738 -0.5009928642
0.5566587381 0.0000000000 -0.5566587381
0.0556658738 -0.6123246119 0.0556658738
0.1113317476 -0.5566587381 0.0000000000
0.1669976214 -0.5009928642 -0.0556658738
0.2226634952 -0.4453269904 -0.1113317476
0.2783293690 -0.3896611166 -0.1669976214
0.3339952428 -0.3339952428 -0.2226634952
0.3896611166 -0.2783293690 -0.2783293690
0.4453269904 -0.2226634952 -0.3339952428
0.5009928642 -0.1669976214 -0.3896611166
0.5566587381 -0.1113317476 -0.4453269904
0.6123246119 -0.0556658738 -0.5009928642
0.1113317476 -0.6679904857 0.1113317476
0.1669976214 -0.6123246119 0.0556658738
0.2226634952 -0.5566587381 0.0000000000
0.2783293690 -0.5009928642 -0.0556658738
0.3339952428 -0.4453269904 -0.1113317476
0.3896611166 -0.3896611166 -0.1669976214
0.4453269904 -0.3339952428 -0.2226634952
0.5009928642 -0.2783293690 -0.2783293690
0.5566587381 -0.2226634952 -0.3339952428
0.6123246119 -0.1669976214 -0.3896611166
0.6679904857 -0.1113317476 -0.4453269904
0.1669976214 -0.7236563595 0.1669976214
0.2226634952 -0.6679904857 0.1113317476
0.2783293690 -0.6123246119 0.0556658738
0.3339952428 -0.5566587381 0.0000000000
0.3896611166 -0.5009928642 -0.0556658738
0.4453269904 -0.4453269904 -0.1113317476
0.5009928642 -0.3896611166 -0.1669976214
0.5566587381 -0.3339952428 -0.2226634952
0.6123246119 -0.2783293690 -0.2783293690
0.6679904857 -0.2226634952 -0.3339952428
0.7236563595 -0.1669976214 -0.3896611166
0.2226634952 -0.7793222333 0.2226634952
0.2783293690 -0.7236563595 0.1669976214
0.3339952428 -0.6679904857 0.1113317476
0.3896611166 -0.6123246119 0.0556658738
0.4453269904 -0.5566587381 0.0000000000
0.5009928642 -0.5009928642 -0.0556658738
0.5566587381 -0.4453269904 -0.1113317476
0.6123246119 -0.3896611166 -0.1669976214
0.6679904857 -0.3339952428 -0.2226634952
0.7236563595 -0.2783293690 -0.2783293690
0.7793222333 -0.2226634952 -0.3339952428
0.2783293690 -0.8349881071 0.2783293690
0.3339952428 -0.7793222333 0.2226634952
0.3896611166 -0.7236563595 0.1669976214
0.4453269904 -0.6679904857 0.1113317476
0.5009928642 -0.6123246119 0.0556658738
0.5566587381 -0.5566587381 0.0000000000
0.6123246119 -0.5009928642 -0.0556658738
0.6679904857 -0.4453269904 -0.1113317476
0.7236563595 -0.3896611166 -0.1669976214
0.7793222333 -0.3339952428 -0.2226634952
0.8349881071 -0.2783293690 -0.2783293690
-0.3339952428 -0.2226634952 -0.2226634952
-0.2783293690 -0.1669976214 -0.2783293690
-0.2226634952 -0.1113317476 -0.3339952428
-0.1669976214 -0.0556658738 -0.3896611166
-0.1113317476 -0.0000000000 -0.4453269904
-0.0556658738 0.0556658738 -0.5009928642
-0.0000000000 0.1113317476 -0.5566587381
0.0556658738 0.1669976214 -0.6123246119
0.1113317476 0.2226634952 -0.6679904857
0.1669976214 0.2783293690 -0.7236563595
0.2226634952 0.3339952428 -0.7793222333
-0.2783293690 -0.2783293690 -0.1669976214
-0.2226634952 -0.2226634952 -0.2226634952
-0.1669976214 -0.1669976214 -0.2783293690
-0.1113317476 -0.1113317476 -0.3339952428
-0.0556658738 -0.0556658738 -0.3896611166
-0.0000000000 -0.0000000000 -0.4453269904
0.0556658738 0.0556658738 -0.5009928642
0.1113317476 0.1113317476 -0.5566587381
0.1669976214 0.1669976214 -0.6123246119
0.2226634952 0.2226634952 -0.6679904857
0.2783293690 0.2783293690 -0.7236563595
-0.2226634952 -0.3339952428 -0.1113317476
-0.1669976214 -0.2783293690 -0.1669976214
-0.1113317476 -0.2226634952 -0.2226634952
-0.0556658738 -0.1669976214 -0.2783293690
-0.0000000000 -0.1113317476 -0.3339952428
0.0556658738 -0.0556658738 -0.3896611166
0.1113317476 -0.0000000000 -0.4453269904
0.1669976214 0.0556658738 -0.5009928642
0.2226634952 0.1113317476 -0.5566587381
0.2783293690 0.1669976214 -0.6123246119
0.3339952428 0.2226634952 -0.6679904857
-0.1669976214 -0.3896611166 -0.0556658738
-0.1113317476 -0.3339952428 -0.1113317476
-0.0556658738 -0.2783293690 -0.1669976214
-0.0000000000 -0.2226634952 -0.2226634952
0.0556658738 -0.1669976214 -0.2783293690
0.1113317476 -0.1113317476 -0.3339952428
0.1669976214 -0.0556658738 -0.3896611166
0.2226634952 -0.0000000000 -0.4453269904
0.2783293690 0.0556658738 -0.5009928642
0.3339952428 0.1113317476 -0.5566587381
0.3896611166 0.1669976214 -0.6123246119
-0.1113317476 -0.4453269904 0.0000000000
-0.0556658738 -0.3896611166 -0.0556658738
-0.0000000000 -0.3339952428 -0.1113317476
0.0556658738 -0.2783293690 -0.1669976214
0.1113317476 -0.2226634952 -0.2226634952
0.1669976214 -0.1669976214 -0.2783293690
0.2226634952 -0.1113317476 -0.3339952428
0.2783293690 -0.0556658738 -0.3896611166
0.3339952428 -0.0000000000 -0.4453269904
0.3896611166 0.0556658738 -0.5009928642
0.4453269904 0.1113317476 -0.5566587381
-0.0556658738 -0.5009928642 0.0556658738
-0.0000000000 -0.4453269904 0.0000000000
0.0556658738 -0.3896611166 -0.0556658738
0.1113317476 -0.3339952428 -0.1113317476
0.1669976214 -0.2783293690 -0.1669976214
0.2226634952 -0.2226634952 -0.2226634952
0.2783293690 -0.1669976214 -0.2783293690
0.3339952428 -0.1113317476 -0.3339952428
0.3896611166 -0.0556658738 -0.3896611166
0.4453269904 0.0000000000 -0.4453269904
0.5009928642 0.0556658738 -0.5009928642
-0.0000000000 -0.5566587381 0.1113317476
0.0556658738 -0.5009928642 0.0556658738
0.1113317476 -0.4453269904 -0.0000000000
0.1669976214 -0.3896611166 -0.0556658738
0.2226634952 -0.3339952428 -0.1113317476
0.2783293690 -0.2783293690 -0.1669976214
0.3339952428 -0.2226634952 -0.2226634952
0.3896611166 -0.1669976214 -0.2783293690
0.4453269904 -0.1113317476 -0.3339952428
0.5009928642 -0.0556658738 -0.3896611166
0.5566587381 0.0000000000 -0.4453269904
0.0556658738 -0.6123246119 0.1669976214
0.1113317476 -0.5566587381 0.1113317476
0.1669976214 -0.5009928642 0.0556658738
0.2226634952 -0.4453269904 0.0000000000
0.2783293690 -0.3896611166 -0.0556658738
0.3339952428 -0.3339952428 -0.1113317476
0.3896611166 -0.2783293690 -0.1669976214
0.4453269904 -0.2226634952 -0.2226634952
0.5009928642 -0.1669976214 -0.2783293690
0.5566587381 -0.1113317476 -0.3339952428
0.6123246119 -0.0556658738 -0.3896611166
0.1113317476 -0.6679904857 0.2226634952
0.1669976214 -0.6123246119 0.1669976214
0.2226634952 -0.5566587381 0.1113317476
0.2783293690 -0.5009928642 0.0556658738
0.3339952428 -0.4453269904 0.0000000000
0.3896611166 -0.3896611166 -0.0556658738
0.4453269904 -0.3339952428 -0.1113317476
0.5009928642 -0.2783293690 -0.1669976214
0.5566587381 -0.2226634952 -0.2226634952
0.6123246119 -0.1669976214 -0.2783293690
0.6679904857 -0.1113317476 -0.3339952428
0.1669976214 -0.7236563595 0.2783293690
0.2226634952 -0.6679904857 0.2226634952
0.2783293690 -0.6123246119 0.1669976214
0.3339952428 -0.5566587381 0.1113317476
0.3896611166 -0.5009928642 0.0556658738
0.4453269904 -0.4453269904 0.0000000000
0.5009928642 -0.3896611166 -0.0556658738
0.5566587381 -0.3339952428 -0.1113317476
0.6123246119 -0.2783293690 -0.1669976214
0.6679904857 -0.2226634952 -0.2226634952
0.7236563595 -0.1669976214 -0.2783293690
0.2226634952 -0.7793222333 0.3339952428
0.2783293690 -0.7236563595 0.2783293690
0.3339952428 -0.6679904857 0.2226634952
0.3896611166 -0.6123246119 0.1669976214
0.4453269904 -0.5566587381 0.1113317476
0.5009928642 -0.5009928642 0.0556658738
0.5566587381 -0.4453269904 -0.0000000000
0.6123246119 -0.3896611166 -0.0556658738
0.6679904857 -0.3339952428 -0.1113317476
0.7236563595 -0.2783293690 -0.1669976214
0.7793222333 -0.2226634952 -0.2226634952
-0.3896611166 -0.1669976214 -0.1669976214
-0.3339952428 -0.1113317476 -0.2226634952
-0.2783293690 -0.0556658738 -0.2783293690
-0.2226634952 -0.0000000000 -0.3339952428
-0.1669976214 0.0556658738 -0.3896611166
-0.1113317476 0.1113317476 -0.4453269904
-0.0556658738 0.1669976214 -0.5009928642
-0.0000000000 0.2226634952 -0.5566587381
0.0556658738 0.2783293690 -0.6123246119
0.1113317476 0.3339952428 -0.6679904857
0.1669976214 0.3896611166 -0.7236563595
-0.3339952428 -0.2226634952 -0.1113317476
-0.2783293690 -0.1669976214 -0.1669976214
-0.2226634952 -0.1113317476 -0.2226634952
-0.1669976214 -0.0556658738 -0.2783293690
-0.1113317476 -0.0000000000 -0.3339952428
-0.0556658738 0.0556658738 -0.3896611166
-0.0000000000 0.1113317476 -0.4453269904
0.0556658738 0.1669976214 -0.5009928642
0.1113317476 0.2226634952 -0.5566587381
0.1669976214 0.2783293690 -0.6123246119
0.2226634952 0.3339952428 -0.6679904857
-0.2783293690 -0.2783293690 -0.0556658738
-0.2226634952 -0.2226634952 -0.1113317476
-0.1669976214 -0.1669976214 -0.1669976214
-0.1113317476 -0.1113317476 -0.2226634952
-0.0556658738 -0.0556658738 -0.2783293690
-0.0000000000 -0.0000000000 -0.3339952428
0.0556658738 0.0556658738 -0.3896611166
0.1113317476 0.1113317476 -0.4453269904
0.1669976214 0.1669976214 -0.5009928642
0.2226634952 0.2226634952 -0.5566587381
0.2783293690 0.2783293690 -0.6123246119
-0.2226634952 -0.3339952428 0.0000000000
-0.1669976214 -0.2783293690 -0.0556658738
-0.1113317476 -0.2226634952 -0.1113317476
-0.0556658738 -0.1669976214 -0.1669976214
-0.0000000000 -0.1113317476 -0.2226634952
0.0556658738 -0.0556658738 -0.2783293690
0.1113317476 -0.0000000000 -0.3339952428
0.1669976214 0.0556658738 -0.3896611166
0.2226634952 0.1113317476 -0.4453269904
0.2783293690 0.1669976214 -0.5009928642
0.3339952428 0.2226634952 -0.5566587381
-0.1669976214 -0.3896611166 0.0556658738
-0.1113317476 -0.3339952428 0.0000000000
-0.0556658738 -0.2783293690 -0.0556658738
-0.0000000000 -0.2226634952 -0.1113317476
0.0556658738 -0.1669976214 -0.1669976214
0.1113317476 -0.1113317476 -0.2226634952
0.1669976214 -0.0556658738 -0.2783293690
0.2226634952 0.0000000000 -0.3339952428
0.2783293690 0.0556658738 -0.3896611166
0.3339952428 0.1113317476 -0.4453269904
0.3896611166 0.1669976214 -0.5009928642
-0.1113317476 -0.4453269904 0.1113317476
-0.0556658738 -0.3896611166 0.0556658738
-0.0000000000 -0.3339952428 0.0000000000
0.0556658738 -0.2783293690 -0.0556658738
0.1113317476 -0.2226634952 -0.1113317476
0.1669976214 -0.1669976214 -0.1669976214
0.2226634952 -0.1113317476 -0.2226634952
0.2783293690 -0.0556658738 -0.2783293690
0.3339952428 0.0000000000 -0.3339952428
0.3896611166 0.0556658738 -0.3896611166
0.4453269904 0.1113317476 -0.4453269904
-0.0556658738 -0.5009928642 0.1669976214
-0.0000000000 -0.4453269904 0.1113317476
0.0556658738 -0.3896611166 0.0556658738
0.1113317476 -0.3339952428 0.0000000000
0.1669976214 -0.2783293690 -0.0556658738
0.2226634952 -0.2226634952 -0.1113317476
0.2783293690 -0.1669976214 -0.1669976214
0.3339952428 -0.1113317476 -0.2226634952
0.3896611166 -0.0556658738 -0.2783293690
0.4453269904 0.0000000000 -0.3339952428
0.5009928642 0.0556658738 -0.3896611166
-0.0000000000 -0.5566587381 0.2226634952
0.0556658738 -0.5009928642 0.1669976214
0.1113317476 -0.4453269904 0.1113317476
0.1669976214 -0.3896611166 0.0556658738
0.2226634952 -0.3339952428 0.0000000000
0.2783293690 -0.2783293690 -0.0556658738
0.3339952428 -0.2226634952 -0.1113317476
0.3896611166 -0.1669976214 -0.1669976214
0.4453269904 -0.1113317476 -0.2226634952
0.5009928642 -0.0556658738 -0.2783293690
0.5566587381 0.0000000000 -0.3339952428
0.0556658738 -0.6123246119 0.2783293690
0.1113317476 -0.5566587381 0.2226634952
0.1669976214 -0.5009928642 0.1669976214
0.2226634952 -0.4453269904 0.1113317476
0.2783293690 -0.3896611166 0.0556658738
0.3339952428 -0.3339952428 0.0000000000
0.3896611166 -0.2783293690 -0.0556658738
0.4453269904 -0.2226634952 -0.1113317476
0.5009928642 -0.1669976214 -0.1669976214
0.5566587381 -0.1113317476 -0.2226634952
0.6123246119 -0.0556658738 -0.2783293690
0.1113317476 -0.6679904857 0.3339952428
0.1669976214 -0.6123246119 0.2783293690
0.2226634952 -0.5566587381 0.2226634952
0.2783293690 -0.5009928642 0.1669976214
0.3339952428 -0.4453269904 0.1113317476
0.3896611166 -0.3896611166 0.0556658738
0.4453269904 -0.3339952428 0.0000000000
0.5009928642 -0.2783293690 -0.0556658738
0.5566587381 -0.2226634952 -0.1113317476
0.6123246119 -0.1669976214 -0.1669976214
0.6679904857 -0.1113317476 -0.2226634952
0.1669976214 -0.7236563595 0.3896611166
0.2226634952 -0.6679904857 0.3339952428
0.2783293690 -0.6123246119 0.2783293690
0.3339952428 -0.5566587381 0.2226634952
0.3896611166 -0.5009928642 0.1669976214
0.4453269904 -0.4453269904 0.1113317476
0.5009928642 -0.3896611166 0.0556658738
0.5566587381 -0.3339952428 0.0000000000
0.6123246119 -0.2783293690 -0.0556658738
0.6679904857 -0.2226634952 -0.1113317476
0.7236563595 -0.1669976214 -0.1669976214
-0.4453269904 -0.1113317476 -0.1113317476
-0.3896611166 -0.0556658738 -0.1669976214
-0.3339952428 -0.0000000000 -0.2226634952
-0.2783293690 0.0556658738 -0.2783293690
-0.2226634952 0.1113317476 -0.3339952428
-0.1669976214 0.1669976214 -0.3896611166
-0.1113317476 0.2226634952 -0.4453269904
-0.0556658738 0.2783293690 -0.5009928642
-0.0000000000 0.3339952428 -0.5566587381
0.0556658738 0.3896611166 -0.6123246119
0.1113317476 0.4453269904 -0.6679904857
-0.3896611166 -0.1669976214 -0.0556658738
-0.3339952428 -0.1113317476 -0.1113317476
-0.2783293690 -0.0556658738 -0.1669976214
-0.2226634952 -0.0000000000 -0.2226634952
-0.1669976214 0.0556658738 -0.2783293690
-0.1113317476 0.1113317476 -0.3339952428
-0.0556658738 0.1669976214 -0.3896611166
-0.0000000000 0.2226634952 -0.4453269904
0.0556658738 0.2783293690 -0.5009928642
0.1113317476 0.3339952428 -0.5566587381
0.1669976214 0.3896611166 -0.6123246119
-0.3339952428 -0.2226634952 0.0000000000
-0.2783293690 -0.1669976214 -0.0556658738
-0.2226634952 -0.1113317476 -0.1113317476
-0.1669976214 -0.0556658738 -0.1669976214
-0.1113317476 -0.0000000000 -0.2226634952
-0.0556658738 0.0556658738 -0.2783293690
-0.0000000000 0.1113317476 -0.3339952428
0.0556658738 0.1669976214 -0.3896611166
0.1113317476 0.2226634952 -0.4453269904
0.1669976214 0.2783293690 -0.5009928642
0.2226634952 0.3339952428 -0.5566587381
-0.2783293690 -0.2783293690 0.0556658738
-0.2226634952 -0.2226634952 -0.0000000000
-0.1669976214 -0.1669976214 -0.0556658738
-0.1113317476 -0.1113317476 -0.1113317476
-0.0556658738 -0.0556658738 -0.1669976214
-0.0000000000 -0.0000000000 -0.2226634952
0.0556658738 0.0556658738 -0.2783293690
0.1113317476 0.1113317476 -0.3339952428
0.1669976214 0.1669976214 -0.3896611166
0.2226634952 0.2226634952 -0.4453269904
0.2783293690 0.2783293690 -0.5009928642
-0.2226634952 -0.3339952428 0.1113317476
-0.1669976214 -0.2783293690 0.0556658738
-0.1113317476 -0.2226634952 -0.0000000000
-0.0556658738 -0.1669976214 -0.0556658738
-0.0000000000 -0.1113317476 -0.1113317476
0.0556658738 -0.0556658738 -0.1669976214
0.1113317476 -0.0000000000 -0.2226634952
0.1669976214 0.0556658738 -0.2783293690
0.2226634952 0.1113317476 -0.3339952428
0.2783293690 0.1669976214 -0.3896611166
0.3339952428 0.2226634952 -0.4453269904
-0.1669976214 -0.3896611166 0.1669976214
-0.1113317476 -0.3339952428 0.1113317476
-0.0556658738 -0.2783293690 0.0556658738
-0.0000000000 -0.2226634952 0.0000000000
0.0556658738 -0.1669976214 -0.0556658738
0.1113317476 -0.1113317476 -0.1113317476
0.1669976214 -0.0556658738 -0.1669976214
0.2226634952 0.0000000000 -0.2226634952
0.2783293690 0.0556658738 -0.2783293690
0.3339952428 0.1113317476 -0.3339952428
0.3896611166 0.1669976214 -0.3896611166
-0.1113317476 -0.4453269904 0.2226634952
-0.0556658738 -0.3896611166 0.1669976214
-0.0000000000 -0.3339952428 0.1113317476
0.0556658738 -0.2783293690 0.0556658738
0.1113317476 -0.2226634952 0.0000000000
0.1669976214 -0.1669976214 -0.0556658738
0.2226634952 -0.1113317476 -0.1113317476
0.2783293690 -0.0556658738 -0.1669976214
0.3339952428 0.0000000000 -0.2226634952
0.3896611166 0.0556658738 -0.2783293690
0.4453269904 0.1113317476 -0.3339952428
-0.0556658738 -0.5009928642 0.2783293690
-0.0000000000 -0.4453269904 0.2226634952
0.0556658738 -0.3896611166 0.1669976214
0.1113317476 -0.3339952428 0.1113317476
0.1669976214 -0.2783293690 0.0556658738
0.2226634952 -0.2226634952 0.0000000000
0.2783293690 -0.1669976214 -0.0556658738
0.3339952428 -0.1113317476 -0.1113317476
0.3896611166 -0.0556658738 -0.1669976214
0.4453269904 0.0000000000 -0.2226634952
0.5009928642 0.0556658738 -0.2783293690
-0.0000000000 -0.5566587381 0.3339952428
0.0556658738 -0.5009928642 0.2783293690
0.1113317476 -0.4453269904 0.2226634952
0.1669976214 -0.3896611166 0.1669976214
0.2226634952 -0.3339952428 0.1113317476
0.2783293690 -0.2783293690 0.0556658738
0.3339952428 -0.2226634952 0.0000000000
0.3896611166 -0.1669976214 -0.0556658738
0.4453269904 -0.1113317476 -0.1113317476
0.5009928642 -0.0556658738 -0.1669976214
0.5566587381 0.0000000000 -0.2226634952
0.0556658738 -0.6123246119 0.3896611166
0.1113317476 -0.5566587381 0.3339952428
0.1669976214 -0.5009928642 0.2783293690
0.2226634952 -0.4453269904 0.2226634952
0.2783293690 -0.3896611166 0.1669976214
0.3339952428 -0.3339952428 0.1113317476
0.3896611166 -0.2783293690 0.0556658738
0.4453269904 -0.2226634952 0.0000000000
0.5009928642 -0.1669976214 -0.0556658738
0.5566587381 -0.1113317476 -0.1113317476
0.6123246119 -0.0556658738 -0.1669976214
0.1113317476 -0.6679904857 0.4453269904
0.1669976214 -0.6123246119 0.3896611166
0.2226634952 -0.5566587381 0.3339952428
0.2783293690 -0.5009928642 0.2783293690
0.3339952428 -0.4453269904 0.2226634952
0.3896611166 -0.3896611166 0.1669976214
0.4453269904 -0.3339952428 0.1113317476
0.5009928642 -0.2783293690 0.0556658738
0.5566587381 -0.2226634952 0.0000000000
0.6123246119 -0.1669976214 -0.0556658738
0.6679904857 -0.1113317476 -0.1113317476
-0.5009928642 -0.0556658738 -0.0556658738
-0.4453269904 -0.0000000000 -0.1113317476
-0.3896611166 0.0556658738 -0.1669976214
-0.3339952428 0.1113317476 -0.2226634952
-0.2783293690 0.1669976214 -0.2783293690
-0.2226634952 0.2226634952 -0.3339952428
-0.1669976214 0.2783293690 -0.3896611166
-0.1113317476 0.3339952428 -0.4453269904
-0.0556658738 0.3896611166 -0.5009928642
0.0000000000 0.4453269904 -0.5566587381
0.0556658738 0.5009928642 -0.6123246119
-0.4453269904 -0.1113317476 -0.0000000000
-0.3896611166 -0.0556658738 -0.0556658738
-0.3339952428 -0.0000000000 -0.1113317476
-0.2783293690 0.0556658738 -0.1669976214
-0.2226634952 0.1113317476 -0.2226634952
-0.1669976214 0.1669976214 -0.2783293690
-0.1113317476 0.2226634952 -0.3339952428
-0.0556658738 0.2783293690 -0.3896611166
0.0000000000 0.3339952428 -0.4453269904
0.0556658738 0.3896611166 -0.5009928642
0.1113317476 0.4453269904 -0.5566587381
-0.3896611166 -0.1669976214 0.0556658738
-0.3339952428 -0.1113317476 0.0000000000
-0.2783293690 -0.0556658738 -0.0556658738
-0.2226634952 -0.0000000000 -0.1113317476
-0.1669976214 0.0556658738 -0.1669976214
-0.1113317476 0.1113317476 -0.2226634952
-0.0556658738 0.1669976214 -0.2783293690
0.0000000000 0.2226634952 -0.3339952428
0.0556658738 0.2783293690 -0.3896611166
0.1113317476 0.3339952428 -0.4453269904
0.1669976214 0.3896611166 -0.5009928642
-0.3339952428 -0.2226634952 0.1113317476
-0.2783293690 -0.1669976214 0.0556658738
-0.2226634952 -0.1113317476 -0.0000000000
-0.1669976214 -0.0556658738 -0.0556658738
-0.1113317476 -0.0000000000 -0.1113317476
-0.0556658738 0.0556658738 -0.1669976214
-0.0000000000 0.1113317476 -0.2226634952
0.0556658738 0.1669976214 -0.2783293690
0.1113317476 0.2226634952 -0.3339952428
0.1669976214 0.2783293690 -0.3896611166
0.2226634952 0.3339952428 -0.4453269904
-0.2783293690 -0.2783293690 0.1669976214
-0.2226634952 -0.2226634952 0.1113317476
-0.1669976214 -0.1669976214 0.0556658738
-0.1113317476 -0.1113317476 -0.0000000000
-0.0556658738 -0.0556658738 -0.0556658738
-0.0000000000 -0.0000000000 -0.1113317476
0.0556658738 0.0556658738 -0.1669976214
0.1113317476 0.1113317476 -0.2226634952
0.1669976214 0.1669976214 -0.2783293690
0.2226634952 0.2226634952 -0.3339952428
0.2783293690 0.2783293690 -0.3896611166
-0.2226634952 -0.3339952428 0.2226634952
-0.1669976214 -0.2783293690 0.1669976214
-0.1113317476 -0.2226634952 0.1113317476
-0.0556658738 -0.1669976214 0.0556658738
-0.0000000000 -0.1113317476 0.0000000000
0.0556658738 -0.0556658738 -0.0556658738
0.1113317476 0.0000000000 -0.1113317476
0.1669976214 0.0556658738 -0.1669976214
0.2226634952 0.1113317476 -0.2226634952
0.2783293690 0.1669976214 -0.2783293690
0.3339952428 0.2226634952 -0.3339952428
-0.1669976214 -0.3896611166 0.2783293690
-0.1113317476 -0.3339952428 0.2226634952
-0.0556658738 -0.2783293690 0.1669976214
-0.0000000000 -0.2226634952 0.1113317476
0.0556658738 -0.1669976214 0.0556658738
0.1113317476 -0.1113317476 0.0000000000
0.1669976214 -0.0556658738 -0.0556658738
0.2226634952 0.0000000000 -0.1113317476
0.2783293690 0.0556658738 -0.1669976214
0.3339952428 0.1113317476 -0.2226634952
0.3896611166 0.1669976214 -0.2783293690
-0.1113317476 -0.4453269904 0.3339952428
-0.0556658738 -0.3896611166 0.2783293690
-0.0000000000 -0.3339952428 0.2226634952
0.0556658738 -0.2783293690 0.1669976214
0.1113317476 -0.2226634952 0.1113317476
0.1669976214 -0.1669976214 0.0556658738
0.2226634952 -0.1113317476 0.0000000000
0.2783293690 -0.0556658738 -0.0556658738
0.3339952428 0.0000000000 -0.1113317476
0.3896611166 0.0556658738 -0.1669976214
0.4453269904 0.1113317476 -0.2226634952
-0.0556658738 -0.5009928642 0.3896611166
-0.0000000000 -0.4453269904 0.3339952428
0.0556658738 -0.3896611166 0.2783293690
0.1113317476 -0.3339952428 0.2226634952
0.1669976214 -0.2783293690 0.1669976214
0.2226634952 -0.2226634952 0.1113317476
0.2783293690 -0.1669976214 0.0556658738
0.3339952428 -0.1113317476 0.0000000000
0.3896611166 -0.0556658738 -0.0556658738
0.4453269904 0.0000000000 -0.1113317476
0.5009928642 0.0556658738 -0.1669976214
0.0000000000 -0.5566587381 0.4453269904
0.0556658738 -0.5009928642 0.3896611166
0.1113317476 -0.4453269904 0.3339952428
0.1669976214 -0.3896611166 0.2783293690
0.2226634952 -0.3339952428 0.2226634952
0.2783293690 -0.2783293690 0.1669976214
0.3339952428 -0.2226634952 0.1113317476
0.3896611166 -0.1669976214 0.0556658738
0.4453269904 -0.1113317476 0.0000000000
0.5009928642 -0.0556658738 -0.0556658738
0.5566587381 0.0000000000 -0.1113317476
0.0556658738 -0.6123246119 0.5009928642
0.1113317476 -0.5566587381 0.4453269904
0.1669976214 -0.5009928642 0.3896611166
0.2226634952 -0.4453269904 0.3339952428
0.2783293690 -0.3896611166 0.2783293690
0.3339952428 -0.3339952428 0.2226634952
0.3896611166 -0.2783293690 0.1669976214
0.4453269904 -0.2226634952 0.1113317476
0.5009928642 -0.1669976214 0.0556658738
0.5566587381 -0.1113317476 0.0000000000
0.6123246119 -0.0556658738 -0.0556658738
-0.5566587381 -0.0000000000 0.0000000000
-0.5009928642 0.0556658738 -0.0556658738
-0.4453269904 0.1113317476 -0.1113317476
-0.3896611166 0.1669976214 -0.1669976214
-0.3339952428 0.2226634952 -0.2226634952
-0.2783293690 0.2783293690 -0.2783293690
-0.2226634952 0.3339952428 -0.3339952428
-0.1669976214 0.3896611166 -0.3896611166
-0.1113317476 0.4453269904 -0.4453269904
-0.0556658738 0.5009928642 -0.5009928642
0.0000000000 0.5566587381 -0.5566587381
-0.5009928642 -0.0556658738 0.0556658738
-0.4453269904 -0.0000000000 -0.0000000000
-0.3896611166 0.0556658738 -0.0556658738
-0.3339952428 0.1113317476 -0.1113317476
-0.2783293690 0.1669976214 -0.1669976214
-0.2226634952 0.2226634952 -0.2226634952
-0.1669976214 0.2783293690 -0.2783293690
-0.1113317476 0.3339952428 -0.3339952428
-0.0556658738 0.3896611166 -0.3896611166
0.0000000000 0.4453269904 -0.4453269904
0.0556658738 0.5009928642 -0.5009928642
-0.4453269904 -0.1113317476 0.1113317476
-0.3896611166 -0.0556658738 0.0556658738
-0.3339952428 -0.0000000000 -0.0000000000
-0.2783293690 0.0556658738 -0.0556658738
-0.2226634952 0.1113317476 -0.1113317476
-0.1669976214 0.1669976214 -0.1669976214
-0.1113317476 0.2226634952 -0.2226634952
-0.0556658738 0.2783293690 -0.2783293690
0.0000000000 0.3339952428 -0.3339952428
0.0556658738 0.3896611166 -0.3896611166
0.1113317476 0.4453269904 -0.4453269904
-0.3896611166 -0.1669976214 0.1669976214
-0.3339952428 -0.1113317476 0.1113317476
-0.2783293690 -0.0556658738 0.0556658738
-0.2226634952 -0.0000000000 -0.0000000000
-0.1669976214 0.0556658738 -0.0556658738
-0.1113317476 0.1113317476 -0.1113317476
-0.0556658738 0.1669976214 -0.1669976214
0.0000000000 0.2226634952 -0.2226634952
0.0556658738 0.2783293690 -0.2783293690
0.1113317476 0.3339952428 -0.3339952428
0.1669976214 0.3896611166 -0.3896611166
-0.3339952428 -0.2226634952 0.2226634952
-0.2783293690 -0.1669976214 0.1669976214
-0.2226634952 -0.1113317476 0.1113317476
-0.1669976214 -0.0556658738 0.0556658738
-0.1113317476 -0.0000000000 -0.0000000000
-0.0556658738 0.0556658738 -0.0556658738
0.0000000000 0.1113317476 -0.1113317476
0.0556658738 0.1669976214 -0.1669976214
0.1113317476 0.2226634952 -0.2226634952
0.1669976214 0.2783293690 -0.2783293690
0.2226634952 0.3339952428 -0.3339952428
-0.2783293690 -0.2783293690 0.2783293690
-0.2226634952 -0.2226634952 0.2226634952
-0.1669976214 -0.1669976214 0.1669976214
-0.1113317476 -0.1113317476 0.1113317476
-0.0556658738 -0.0556658738 0.0556658738
0.0000000000 0.0000000000 0.0000000000
0.0556658738 0.0556658738 -0.0556658738
0.1113317476 0.1113317476 -0.1113317476
0.1669976214 0.1669976214 -0.1669976214
0.2226634952 0.2226634952 -0.2226634952
0.2783293690 0.2783293690 -0.2783293690
-0.2226634952 -0.3339952428 0.3339952428
-0.1669976214 -0.2783293690 0.2783293690
-0.1113317476 -0.2226634952 0.2226634952
-0.0556658738 -0.1669976214 0.1669976214
-0.0000000000 -0.1113317476 0.1113317476
0.0556658738 -0.0556658738 0.0556658738
0.1113317476 0.0000000000 0.0000000000
0.1669976214 0.0556658738 -0.0556658738
0.2226634952 0.1113317476 -0.1113317476
0.2783293690 0.1669976214 -0.1669976214
0.3339952428 0.2226634952 -0.2226634952
-0.1669976214 -0.3896611166 0.3896611166
-0.1113317476 -0.3339952428 0.3339952428
-0.0556658738 -0.2783293690 0.2783293690
-0.0000000000 -0.2226634952 0.2226634952
0.0556658738 -0.1669976214 0.1669976214
0.1113317476 -0.1113317476 0.1113317476
0.1669976214 -0.0556658738 0.0556658738
0.2226634952 0.0000000000 0.0000000000
0.2783293690 0.0556658738 -0.0556658738
0.3339952428 0.1113317476 -0.1113317476
0.3896611166 0.1669976214 -0.1669976214
-0.1113317476 -0.4453269904 0.4453269904
-0.0556658738 -0.3896611166 0.3896611166
-0.0000000000 -0.3339952428 0.3339952428
0.0556658738 -0.2783293690 0.2783293690
0.1113317476 -0.2226634952 0.2226634952
0.1669976214 -0.1669976214 0.1669976214
0.2226634952 -0.1113317476 0.1113317476
0.2783293690 -0.0556658738 0.0556658738
0.3339952428 0.0000000000 0.0000000000
0.3896611166 0.0556658738 -0.0556658738
0.4453269904 0.1113317476 -0.1113317476
-0.0556658738 -0.5009928642 0.5009928642
-0.0000000000 -0.4453269904 0.4453269904
0.0556658738 -0.3896611166 0.3896611166
0.1113317476 -0.3339952428 0.3339952428
0.1669976214 -0.2783293690 0.2783293690
0.2226634952 -0.2226634952 0.2226634952
0.2783293690 -0.1669976214 0.1669976214
0.3339952428 -0.1113317476 0.1113317476
0.3896611166 -0.0556658738 0.0556658738
0.4453269904 0.0000000000 0.0000000000
0.5009928642 0.0556658738 -0.0556658738
0.0000000000 -0.5566587381 0.5566587381
0.0556658738 -0.5009928642 0.5009928642
0.1113317476 -0.4453269904 0.4453269904
0.1669976214 -0.3896611166 0.3896611166
0.2226634952 -0.3339952428 0.3339952428
0.2783293690 -0.2783293690 0.2783293690
0.3339952428 -0.2226634952 0.2226634952
0.3896611166 -0.1669976214 0.1669976214
0.4453269904 -0.1113317476 0.1113317476
0.5009928642 -0.0556658738 0.0556658738
0.5566587381 0.0000000000 0.0000000000
-0.6123246119 0.0556658738 0.0556658738
-0.5566587381 0.1113317476 0.0000000000
-0.5009928642 0.1669976214 -0.0556658738
-0.4453269904 0.2226634952 -0.1113317476
-0.3896611166 0.2783293690 -0.1669976214
-0.3339952428 0.3339952428 -0.2226634952
-0.2783293690 0.3896611166 -0.2783293690
-0.2226634952 0.4453269904 -0.3339952428
-0.1669976214 0.5009928642 -0.3896611166
-0.1113317476 0.5566587381 -0.4453269904
-0.0556658738 0.6123246119 -0.5009928642
-0.5566587381 -0.0000000000 0.1113317476
-0.5009928642 0.0556658738 0.0556658738
-0.4453269904 0.1113317476 -0.0000000000
-0.3896611166 0.1669976214 -0.0556658738
-0.3339952428 0.2226634952 -0.1113317476
-0.2783293690 0.2783293690 -0.1669976214
-0.2226634952 0.3339952428 -0.2226634952
-0.1669976214 0.3896611166 -0.2783293690
-0.1113317476 0.4453269904 -0.3339952428
-0.0556658738 0.5009928642 -0.3896611166
0.0000000000 0.5566587381 -0.4453269904
-0.5009928642 -0.0556658738 0.1669976214
-0.4453269904 -0.0000000000 0.1113317476
-0.3896611166 0.0556658738 0.0556658738
-0.3339952428 0.1113317476 -0.0000000000
-0.2783293690 0.1669976214 -0.0556658738
-0.2226634952 0.2226634952 -0.1113317476
-0.1669976214 0.2783293690 -0.1669976214
-0.1113317476 0.3339952428 -0.2226634952
-0.0556658738 0.3896611166 -0.2783293690
0.0000000000 0.4453269904 -0.3339952428
0.0556658738 0.5009928642 -0.3896611166
-0.4453269904 -0.1113317476 0.2226634952
-0.3896611166 -0.0556658738 0.1669976214
-0.3339952428 -0.0000000000 0.1113317476
-0.2783293690 0.0556658738 0.0556658738
-0.2226634952 0.1113317476 -0.0000000000
-0.1669976214 0.1669976214 -0.0556658738
-0.1113317476 0.2226634952 -0.1113317476
-0.0556658738 0.2783293690 -0.1669976214
0.0000000000 0.3339952428 -0.2226634952
0.0556658738 0.3896611166 -0.2783293690
0.1113317476 0.4453269904 -0.3339952428
-0.3896611166 -0.1669976214 0.2783293690
-0.3339952428 -0.1113317476 0.2226634952
-0.2783293690 -0.0556658738 0.1669976214
-0.2226634952 -0.0000000000 0.1113317476
-0.1669976214 0.0556658738 0.0556658738
-0.1113317476 0.1113317476 -0.0000000000
-0.0556658738 0.1669976214 -0.0556658738
0.0000000000 0.2226634952 -0.1113317476
0.0556658738 0.2783293690 -0.1669976214
0.1113317476 0.3339952428 -0.2226634952
0.1669976214 0.3896611166 -0.2783293690
-0.3339952428 -0.2226634952 0.3339952428
-0.2783293690 -0.1669976214 0.2783293690
-0.2226634952 -0.1113317476 0.2226634952
-0.1669976214 -0.0556658738 0.1669976214
-0.1113317476 0.0000000000 0.1113317476
-0.0556658738 0.0556658738 0.0556658738
0.0000000000 0.1113317476 0.0000000000
0.0556658738 0.1669976214 -0.0556658738
0.1113317476 0.2226634952 -0.1113317476
0.1669976214 0.2783293690 -0.1669976214
0.2226634952 0.3339952428 -0.2226634952
-0.2783293690 -0.2783293690 0.3896611166
-0.2226634952 -0.2226634952 0.3339952428
-0.1669976214 -0.1669976214 0.2783293690
-0.1113317476 -0.1113317476 0.2226634952
-0.0556658738 -0.0556658738 0.1669976214
0.0000000000 0.0000000000 0.1113317476
0.0556658738 0.0556658738 0.0556658738
0.1113317476 0.1113317476 0.0000000000
0.1669976214 0.1669976214 -0.0556658738
0.2226634952 0.2226634952 -0.1113317476
0.2783293690 0.2783293690 -0.1669976214
-0.2226634952 -0.3339952428 0.4453269904
-0.1669976214 -0.2783293690 0.3896611166
-0.1113317476 -0.2226634952 0.3339952428
-0.0556658738 -0.1669976214 0.2783293690
0.0000000000 -0.1113317476 0.2226634952
0.0556658738 -0.0556658738 0.1669976214
0.1113317476 0.0000000000 0.1113317476
0.1669976214 0.0556658738 0.0556658738
0.2226634952 0.1113317476 0.0000000000
0.2783293690 0.1669976214 -0.0556658738
0.3339952428 0.2226634952 -0.1113317476
-0.1669976214 -0.3896611166 0.5009928642
-0.1113317476 -0.3339952428 0.4453269904
-0.0556658738 -0.2783293690 0.3896611166
-0.0000000000 -0.2226634952 0.3339952428
0.0556658738 -0.1669976214 0.2783293690
0.1113317476 -0.1113317476 0.2226634952
0.1669976214 -0.0556658738 0.1669976214
0.2226634952 0.0000000000 0.1113317476
0.2783293690 0.0556658738 0.0556658738
0.3339952428 0.1113317476 0.0000000000
0.3896611166 0.1669976214 -0.0556658738
-0.1113317476 -0.4453269904 0.5566587381
-0.0556658738 -0.3896611166 0.5009928642
0.0000000000 -0.3339952428 0.4453269904
0.0556658738 -0.2783293690 0.3896611166
0.1113317476 -0.2226634952 0.3339952428
0.1669976214 -0.1669976214 0.2783293690
0.2226634952 -0.1113317476 0.2226634952
0.2783293690 -0.0556658738 0.1669976214
0.3339952428 0.0000000000 0.1113317476
0.3896611166 0.0556658738 0.0556658738
0.4453269904 0.1113317476 0.0000000000
-0.0556658738 -0.5009928642 0.6123246119
0.0000000000 -0.4453269904 0.5566587381
0.0556658738 -0.3896611166 0.5009928642
0.1113317476 -0.3339952428 0.4453269904
0.1669976214 -0.2783293690 0.3896611166
0.2226634952 -0.2226634952 0.3339952428
0.2783293690 -0.1669976214 0.2783293690
0.3339952428 -0.1113317476 0.2226634952
0.3896611166 -0.0556658738 0.1669976214
0.4453269904 0.0000000000 0.1113317476
0.5009928642 0.0556658738 0.0556658738
-0.6679904857 0.1113317476 0.1113317476
-0.6123246119 0.1669976214 0.0556658738
-0.5566587381 0.2226634952 -0.0000000000
-0.5009928642 0.2783293690 -0.0556658738
-0.4453269904 0.3339952428 -0.1113317476
-0.3896611166 0.3896611166 -0.1669976214
-0.3339952428 0.4453269904 -0.2226634952
-0.2783293690 0.5009928642 -0.2783293690
-0.2226634952 0.5566587381 -0.3339952428
-0.1669976214 0.6123246119 -0.3896611166
-0.1113317476 0.6679904857 -0.4453269904
-0.6123246119 0.0556658738 0.1669976214
-0.5566587381 0.1113317476 0.1113317476
-0.5009928642 0.1669976214 0.0556658738
-0.4453269904 0.2226634952 -0.0000000000
-0.3896611166 0.2783293690 -0.0556658738
-0.3339952428 0.3339952428 -0.1113317476
-0.2783293690 0.3896611166 -0.1669976214
-0.2226634952 0.4453269904 -0.2226634952
-0.1669976214 0.5009928642 -0.2783293690
-0.1113317476 0.5566587381 -0.3339952428
-0.0556658738 0.6123246119 -0.3896611166
-0.5566587381 -0.0000000000 0.2226634952
-0.5009928642 0.0556658738 0.1669976214
-0.4453269904 0.1113317476 0.1113317476
-0.3896611166 0.1669976214 0.0556658738
-0.3339952428 0.2226634952 -0.0000000000
-0.2783293690 0.2783293690 -0.0556658738
-0.2226634952 0.3339952428 -0.1113317476
-0.1669976214 0.3896611166 -0.1669976214
-0.1113317476 0.4453269904 -0.2226634952
-0.0556658738 0.5009928642 -0.2783293690
0.0000000000 0.5566587381 -0.3339952428
-0.5009928642 -0.0556658738 0.2783293690
-0.4453269904 -0.0000000000 0.2226634952
-0.3896611166 0.0556658738 0.1669976214
-0.3339952428 0.1113317476 0.1113317476
-0.2783293690 0.1669976214 0.0556658738
-0.2226634952 0.2226634952 -0.0000000000
-0.1669976214 0.2783293690 -0.0556658738
-0.1113317476 0.3339952428 -0.1113317476
-0.0556658738 0.3896611166 -0.1669976214
0.0000000000 0.4453269904 -0.2226634952
0.0556658738 0.5009928642 -0.2783293690
-0.4453269904 -0.1113317476 0.3339952428
-0.3896611166 -0.0556658738 0.2783293690
-0.3339952428 0.0000000000 0.2226634952
-0.2783293690 0.0556658738 0.1669976214
-0.2226634952 0.1113317476 0.1113317476
-0.1669976214 0.1669976214 0.0556658738
-0.1113317476 0.2226634952 -0.0000000000
-0.0556658738 0.2783293690 -0.0556658738
0.0000000000 0.3339952428 -0.1113317476
0.0556658738 0.3896611166 -0.1669976214
0.1113317476 0.4453269904 -0.2226634952
-0.3896611166 -0.1669976214 0.3896611166
-0.3339952428 -0.1113317476 0.3339952428
-0.2783293690 -0.0556658738 0.2783293690
-0.2226634952 0.0000000000 0.2226634952
-0.1669976214 0.0556658738 0.1669976214
-0.1113317476 0.1113317476 0.1113317476
-0.0556658738 0.1669976214 0.0556658738
0.0000000000 0.2226634952 0.0000000000
0.0556658738 0.2783293690 -0.0556658738
0.1113317476 0.3339952428 -0.1113317476
0.1669976214 0.3896611166 -0.1669976214
-0.3339952428 -0.2226634952 0.4453269904
-0.2783293690 -0.1669976214 0.3896611166
-0.2226634952 -0.1113317476 0.3339952428
-0.1669976214 -0.0556658738 0.2783293690
-0.1113317476 0.0000000000 0.2226634952
-0.0556658738 0.0556658738 0.1669976214
0.0000000000 0.1113317476 0.1113317476
0.0556658738 0.1669976214 0.0556658738
0.1113317476 0.2226634952 0.0000000000
0.1669976214 0.2783293690 -0.0556658738
0.2226634952 0.3339952428 -0.1113317476
-0.2783293690 -0.2783293690 0.5009928642
-0.2226634952 -0.2226634952 0.4453269904
-0.1669976214 -0.1669976214 0.3896611166
-0.1113317476 -0.1113317476 0.3339952428
-0.0556658738 -0.0556658738 0.2783293690
0.0000000000 0.0000000000 0.2226634952
0.0556658738 0.0556658738 0.1669976214
0.1113317476 0.1113317476 0.1113317476
0.1669976214 0.1669976214 0.0556658738
0.2226634952 0.2226634952 0.0000000000
0.2783293690 0.2783293690 -0.0556658738
-0.2226634952 -0.3339952428 0.5566587381
-0.1669976214 -0.2783293690 0.5009928642
-0.1113317476 -0.2226634952 0.4453269904
-0.0556658738 -0.1669976214 0.3896611166
0.0000000000 -0.1113317476 0.3339952428
0.0556658738 -0.0556658738 0.2783293690
0.1113317476 0.0000000000 0.2226634952
0.1669976214 0.0556658738 0.1669976214
0.2226634952 0.1113317476 0.1113317476
0.2783293690 0.1669976214 0.0556658738
0.3339952428 0.2226634952 0.0000000000
-0.1669976214 -0.3896611166 0.6123246119
-0.1113317476 -0.3339952428 0.5566587381
-0.0556658738 -0.2783293690 0.5009928642
0.0000000000 -0.2226634952 0.4453269904
0.0556658738 -0.1669976214 0.3896611166
0.1113317476 -0.1113317476 0.3339952428
0.1669976214 -0.0556658738 0.2783293690
0.2226634952 0.0000000000 0.2226634952
0.2783293690 0.0556658738 0.1669976214
0.3339952428 0.1113317476 0.1113317476
0.3896611166 0.1669976214 0.0556658738
-0.1113317476 -0.4453269904 0.6679904857
-0.0556658738 -0.3896611166 0.6123246119
0.0000000000 -0.3339952428 0.5566587381
0.0556658738 -0.2783293690 0.5009928642
0.1113317476 -0.2226634952 0.4453269904
0.1669976214 -0.1669976214 0.3896611166
0.2226634952 -0.1113317476 0.3339952428
0.2783293690 -0.0556658738 0.2783293690
0.3339952428 0.0000000000 0.2226634952
0.3896611166 0.0556658738 0.1669976214
0.4453269904 0.1113317476 0.1113317476
-0.7236563595 0.1669976214 0.1669976214
-0.6679904857 0.2226634952 0.1113317476
-0.6123246119 0.2783293690 0.0556658738
-0.5566587381 0.3339952428 -0.0000000000
-0.5009928642 0.3896611166 -0.0556658738
-0.4453269904 0.4453269904 -0.1113317476
-0.3896611166 0.5009928642 -0.1669976214
-0.3339952428 0.5566587381 -0.2226634952
-0.2783293690 0.6123246119 -0.2783293690
-0.2226634952 0.6679904857 -0.3339952428
-0.1669976214 0.7236563595 -0.3896611166
-0.6679904857 0.1113317476 0.2226634952
-0.6123246119 0.1669976214 0.1669976214
-0.5566587381 0.2226634952 0.1113317476
-0.5009928642 0.2783293690 0.0556658738
-0.4453269904 0.3339952428 -0.0000000000
-0.3896611166 0.3896611166 -0.0556658738
-0.3339952428 0.4453269904 -0.1113317476
-0.2783293690 0.5009928642 -0.1669976214
-0.2226634952 0.5566587381 -0.2226634952
-0.1669976214 0.6123246119 -0.2783293690
-0.1113317476 0.6679904857 -0.3339952428
-0.6123246119 0.0556658738 0.2783293690
-0.5566587381 0.1113317476 0.2226634952
-0.5009928642 0.1669976214 0.1669976214
-0.4453269904 0.2226634952 0.1113317476
-0.3896611166 0.2783293690 0.0556658738
-0.3339952428 0.3339952428 -0.0000000000
-0.2783293690 0.3896611166 -0.0556658738
-0.2226634952 0.4453269904 -0.1113317476
-0.1669976214 0.5009928642 -0.1669976214
-0.1113317476 0.5566587381 -0.2226634952
-0.0556658738 0.6123246119 -0.2783293690
-0.5566587381 0.0000000000 0.3339952428
-0.5009928642 0.0556658738 0.2783293690
-0.4453269904 0.1113317476 0.2226634952
-0.3896611166 0.1669976214 0.1669976214
-0.3339952428 0.2226634952 0.1113317476
-0.2783293690 0.2783293690 0.0556658738
-0.2226634952 0.3339952428 -0.0000000000
-0.1669976214 0.3896611166 -0.0556658738
-0.1113317476 0.4453269904 -0.1113317476
-0.0556658738 0.5009928642 -0.1669976214
0.0000000000 0.5566587381 -0.2226634952
-0.5009928642 -0.0556658738 0.3896611166
-0.4453269904 -0.0000000000 0.3339952428
-0.3896611166 0.0556658738 0.2783293690
-0.3339952428 0.1113317476 0.2226634952
-0.2783293690 0.1669976214 0.1669976214
-0.2226634952 0.2226634952 0.1113317476
-0.1669976214 0.2783293690 0.0556658738
-0.1113317476 0.3339952428 -0.0000000000
-0.0556658738 0.3896611166 -0.0556658738
0.0000000000 0.4453269904 -0.1113317476
0.0556658738 0.5009928642 -0.1669976214
-0.4453269904 -0.1113317476 0.4453269904
-0.3896611166 -0.0556658738 0.3896611166
-0.3339952428 0.0000000000 0.3339952428
-0.2783293690 0.0556658738 0.2783293690
-0.2226634952 0.1113317476 0.2226634952
-0.1669976214 0.1669976214 0.1669976214
-0.1113317476 0.2226634952 0.1113317476
-0.0556658738 0.2783293690 0.0556658738
0.0000000000 0.3339952428 0.0000000000
0.0556658738 0.3896611166 -0.0556658738
0.1113317476 0.4453269904 -0.1113317476
-0.3896611166 -0.1669976214 0.5009928642
-0.3339952428 -0.1113317476 0.4453269904
-0.2783293690 -0.0556658738 0.3896611166
-0.2226634952 0.0000000000 0.3339952428
-0.1669976214 0.0556658738 0.2783293690
-0.1113317476 0.1113317476 0.2226634952
-0.0556658738 0.1669976214 0.1669976214
0.0000000000 0.2226634952 0.1113317476
0.0556658738 0.2783293690 0.0556658738
0.1113317476 0.3339952428 -0.0000000000
0.1669976214 0.3896611166 -0.0556658738
-0.3339952428 -0.2226634952 0.5566587381
-0.2783293690 -0.1669976214 0.5009928642
-0.2226634952 -0.1113317476 0.4453269904
-0.1669976214 -0.0556658738 0.3896611166
-0.1113317476 0.0000000000 0.3339952428
-0.0556658738 0.0556658738 0.2783293690
0.0000000000 0.1113317476 0.2226634952
0.0556658738 0.1669976214 0.1669976214
0.1113317476 0.2226634952 0.1113317476
0.1669976214 0.2783293690 0.0556658738
0.2226634952 0.3339952428 0.0000000000
-0.2783293690 -0.2783293690 0.6123246119
-0.2226634952 -0.2226634952 0.5566587381
-0.1669976214 -0.1669976214 0.5009928642
-0.1113317476 -0.1113317476 0.4453269904
-0.0556658738 -0.0556658738 0.3896611166
0.0000000000 0.0000000000 0.3339952428
0.0556658738 0.0556658738 0.2783293690
0.1113317476 0.1113317476 0.2226634952
0.1669976214 0.1669976214 0.1669976214
0.2226634952 0.2226634952 0.1113317476
0.2783293690 0.2783293690 0.0556658738
-0.2226634952 -0.3339952428 0.6679904857
-0.1669976214 -0.2783293690 0.6123246119
-0.1113317476 -0.2226634952 0.5566587381
-0.0556658738 -0.1669976214 0.5009928642
0.0000000000 -0.1113317476 0.4453269904
0.0556658738 -0.0556658738 0.3896611166
0.1113317476 0.0000000000 0.3339952428
0.1669976214 0.0556658738 0.2783293690
0.2226634952 0.1113317476 0.2226634952
0.2783293690 0.1669976214 0.1669976214
0.3339952428 0.2226634952 0.1113317476
-0.1669976214 -0.3896611166 0.7236563595
-0.1113317476 -0.3339952428 0.6679904857
-0.0556658738 -0.2783293690 0.6123246119
0.0000000000 -0.2226634952 0.5566587381
0.0556658738 -0.1669976214 0.5009928642
0.1113317476 -0.1113317476 0.4453269904
0.1669976214 -0.0556658738 0.3896611166
0.2226634952 0.0000000000 0.3339952428
0.2783293690 0.0556658738 0.2783293690
0.3339952428 0.1113317476 0.2226634952
0.3896611166 0.1669976214 0.1669976214
-0.7793222333 0.2226634952 0.2226634952
-0.7236563595 0.2783293690 0.1669976214
-0.6679904857 0.3339952428 0.1113317476
-0.6123246119 0.3896611166 0.0556658738
-0.5566587381 0.4453269904 0.0000000000
-0.5009928642 0.5009928642 -0.0556658738
-0.4453269904 0.5566587381 -0.1113317476
-0.3896611166 0.6123246119 -0.1669976214
-0.3339952428 0.6679904857 -0.2226634952
-0.2783293690 0.7236563595 -0.2783293690
-0.2226634952 0.7793222333 -0.3339952428
-0.7236563595 0.1669976214 0.2783293690
-0.6679904857 0.2226634952 0.2226634952
-0.6123246119 0.2783293690 0.1669976214
-0.5566587381 0.3339952428 0.1113317476
-0.5009928642 0.3896611166 0.0556658738
-0.4453269904 0.4453269904 -0.0000000000
-0.3896611166 0.5009928642 -0.0556658738
-0.3339952428 0.5566587381 -0.1113317476
-0.2783293690 0.6123246119 -0.1669976214
-0.2226634952 0.6679904857 -0.2226634952
-0.1669976214 0.7236563595 -0.2783293690
-0.6679904857 0.1113317476 0.3339952428
-0.6123246119 0.1669976214 0.2783293690
-0.5566587381 0.2226634952 0.2226634952
-0.5009928642 0.2783293690 0.1669976214
-0.4453269904 0.3339952428 0.1113317476
-0.3896611166 0.3896611166 0.0556658738
-0.3339952428 0.4453269904 -0.0000000000
-0.2783293690 0.5009928642 -0.0556658738
-0.2226634952 0.5566587381 -0.1113317476
-0.1669976214 0.6123246119 -0.1669976214
-0.1113317476 0.6679904857 -0.2226634952
-0.6123246119 0.0556658738 0.3896611166
-0.5566587381 0.1113317476 0.3339952428
-0.5009928642 0.1669976214 0.2783293690
-0.4453269904 0.2226634952 0.2226634952
-0.3896611166 0.2783293690 0.1669976214
-0.3339952428 0.3339952428 0.1113317476
-0.2783293690 0.3896611166 0.0556658738
-0.2226634952 0.4453269904 -0.0000000000
-0.1669976214 0.5009928642 -0.0556658738
-0.1113317476 0.5566587381 -0.1113317476
-0.0556658738 0.6123246119 -0.1669976214
-0.5566587381 0.0000000000 0.4453269904
-0.5009928642 0.0556658738 0.3896611166
-0.4453269904 0.1113317476 0.3339952428
-0.3896611166 0.1669976214 0.2783293690
-0.3339952428 0.2226634952 0.2226634952
-0.2783293690 0.2783293690 0.1669976214
-0.2226634952 0.3339952428 0.1113317476
-0.1669976214 0.3896611166 0.0556658738
-0.1113317476 0.4453269904 0.0000000000
-0.0556658738 0.5009928642 -0.0556658738
0.0000000000 0.5566587381 -0.1113317476
-0.5009928642 -0.0556658738 0.5009928642
-0.4453269904 0.0000000000 0.4453269904
-0.3896611166 0.0556658738 0.3896611166
-0.3339952428 0.1113317476 0.3339952428
-0.2783293690 0.1669976214 0.2783293690
-0.2226634952 0.2226634952 0.2226634952
-0.1669976214 0.2783293690 0.1669976214
-0.1113317476 0.3339952428 0.1113317476
-0.0556658738 0.3896611166 0.0556658738
0.0000000000 0.4453269904 0.0000000000
0.0556658738 0.5009928642 -0.0556658738
-0.4453269904 -0.1113317476 0.5566587381
-0.3896611166 -0.0556658738 0.5009928642
-0.3339952428 0.0000000000 0.4453269904
-0.2783293690 0.0556658738 0.3896611166
-0.2226634952 0.1113317476 0.3339952428
-0.1669976214 0.1669976214 0.2783293690
-0.1113317476 0.2226634952 0.2226634952
-0.0556658738 0.2783293690 0.1669976214
0.0000000000 0.3339952428 0.1113317476
0.0556658738 0.3896611166 0.0556658738
0.1113317476 0.4453269904 0.0000000000
-0.3896611166 -0.1669976214 0.6123246119
-0.3339952428 -0.1113317476 0.5566587381
-0.2783293690 -0.0556658738 0.5009928642
-0.2226634952 0.0000000000 0.4453269904
-0.1669976214 0.0556658738 0.3896611166
-0.1113317476 0.1113317476 0.3339952428
-0.0556658738 0.1669976214 0.2783293690
0.0000000000 0.2226634952 0.2226634952
0.0556658738 0.2783293690 0.1669976214
0.1113317476 0.3339952428 0.1113317476
0.1669976214 0.3896611166 0.0556658738
-0.3339952428 -0.2226634952 0.6679904857
-0.2783293690 -0.1669976214 0.6123246119
-0.2226634952 -0.1113317476 0.5566587381
-0.1669976214 -0.0556658738 0.5009928642
-0.1113317476 0.0000000000 0.4453269904
-0.0556658738 0.0556658738 0.3896611166
0.0000000000 0.1113317476 0.3339952428
0.0556658738 0.1669976214 0.2783293690
0.1113317476 0.2226634952 0.2226634952
0.1669976214 0.2783293690 0.1669976214
0.2226634952 0.3339952428 0.1113317476
-0.2783293690 -0.2783293690 0.7236563595
-0.2226634952 -0.2226634952 0.6679904857
-0.1669976214 -0.1669976214 0.6123246119
-0.1113317476 -0.1113317476 0.5566587381
-0.0556658738 -0.0556658738 0.5009928642
0.0000000000 0.0000000000 0.4453269904
0.0556658738 0.0556658738 0.3896611166
0.1113317476 0.1113317476 0.3339952428
0.1669976214 0.1669976214 0.2783293690
0.2226634952 0.2226634952 0.2226634952
0.2783293690 0.2783293690 0.1669976214
-0.2226634952 -0.3339952428 0.7793222333
-0.1669976214 -0.2783293690 0.7236563595
-0.1113317476 -0.2226634952 0.6679904857
-0.0556658738 -0.1669976214 0.6123246119
0.0000000000 -0.1113317476 0.5566587381
0.0556658738 -0.0556658738 0.5009928642
0.1113317476 0.0000000000 0.4453269904
0.1669976214 0.0556658738 0.3896611166
0.2226634952 0.1113317476 0.3339952428
0.2783293690 0.1669976214 0.2783293690
0.3339952428 0.2226634952 0.2226634952
-0.8349881071 0.2783293690 0.2783293690
-0.7793222333 0.3339952428 0.2226634952
-0.7236563595 0.3896611166 0.1669976214
-0.6679904857 0.4453269904 0.1113317476
-0.6123246119 0.5009928642 0.0556658738
-0.5566587381 0.5566587381 0.0000000000
-0.5009928642 0.6123246119 -0.0556658738
-0.4453269904 0.6679904857 -0.1113317476
-0.3896611166 0.7236563595 -0.1669976214
-0.3339952428 0.7793222333 -0.2226634952
-0.2783293690 0.8349881071 -0.2783293690
-0.7793222333 0.2226634952 0.3339952428
-0.7236563595 0.2783293690 0.2783293690
-0.6679904857 0.3339952428 0.2226634952
-0.6123246119 0.3896611166 0.1669976214
-0.5566587381 0.4453269904 0.1113317476
-0.5009928642 0.5009928642 0.0556658738
-0.4453269904 0.5566587381 -0.0000000000
-0.3896611166 0.6123246119 -0.0556658738
-0.3339952428 0.6679904857 -0.1113317476
-0.2783293690 0.7236563595 -0.1669976214
-0.2226634952 0.7793222333 -0.2226634952
-0.7236563595 0.1669976214 0.3896611166
-0.6679904857 0.2226634952 0.3339952428
-0.6123246119 0.2783293690 0.2783293690
-0.5566587381 0.3339952428 0.2226634952
-0.5009928642 0.3896611166 0.1669976214
-0.4453269904 0.4453269904 0.1113317476
-0.3896611166 0.5009928642 0.0556658738
-0.3339952428 0.5566587381 -0.0000000000
-0.2783293690 0.6123246119 -0.0556658738
-0.2226634952 0.6679904857 -0.1113317476
-0.1669976214 0.7236563595 -0.1669976214
-0.6679904857 0.1113317476 0.4453269904
-0.6123246119 0.1669976214 0.3896611166
-0.5566587381 0.2226634952 0.3339952428
-0.5009928642 0.2783293690 0.2783293690
-0.4453269904 0.3339952428 0.2226634952
-0.3896611166 0.3896611166 0.1669976214
-0.3339952428 0.4453269904 0.1113317476
-0.2783293690 0.5009928642 0.0556658738
-0.2226634952 0.5566587381 0.0000000000
-0.1669976214 0.6123246119 -0.0556658738
-0.1113317476 0.6679904857 -0.1113317476
-0.6123246119 0.0556658738 0.5009928642
-0.5566587381 0.1113317476 0.4453269904
-0.5009928642 0.1669976214 0.3896611166
-0.4453269904 0.2226634952 0.3339952428
-0.3896611166 0.2783293690 0.2783293690
-0.3339952428 0.3339952428 0.2226634952
-0.2783293690 0.3896611166 0.1669976214
-0.2226634952 0.4453269904 0.1113317476
-0.1669976214 0.5009928642 0.0556658738
-0.1113317476 0.5566587381 -0.0000000000
-0.0556658738 0.6123246119 -0.0556658738
-0.5566587381 0.0000000000 0.5566587381
-0.5009928642 0.0556658738 0.5009928642
-0.4453269904 0.1113317476 0.4453269904
-0.3896611166 0.1669976214 0.3896611166
-0.3339952428 0.2226634952 0.3339952428
-0.2783293690 0.2783293690 0.2783293690
-0.2226634952 0.3339952428 0.2226634952
-0.1669976214 0.3896611166 0.1669976214
-0.1113317476 0.4453269904 0.1113317476
-0.0556658738 0.5009928642 0.0556658738
0.0000000000 0.5566587381 0.0000000000
-0.5009928642 -0.0556658738 0.6123246119
-0.4453269904 -0.0000000000 0.5566587381
-0.3896611166 0.0556658738 0.5009928642
-0.3339952428 0.1113317476 0.4453269904
-0.2783293690 0.1669976214 0.3896611166
-0.2226634952 0.2226634952 0.3339952428
-0.1669976214 0.2783293690 0.2783293690
-0.1113317476 0.3339952428 0.2226634952
-0.0556658738 0.3896611166 0.1669976214
0.0000000000 0.4453269904 0.1113317476
0.0556658738 0.5009928642 0.0556658738
-0.4453269904 -0.1113317476 0.6679904857
-0.3896611166 -0.0556658738 0.6123246119
-0.3339952428 0.0000000000 0.5566587381
-0.2783293690 0.0556658738 0.5009928642
-0.2226634952 0.1113317476 0.4453269904
-0.1669976214 0.1669976214 0.3896611166
-0.1113317476 0.2226634952 0.3339952428
-0.0556658738 0.2783293690 0.2783293690
0.0000000000 0.3339952428 0.2226634952
0.0556658738 0.3896611166 0.1669976214
0.1113317476 0.4453269904 0.1113317476
-0.3896611166 -0.1669976214 0.7236563595
-0.3339952428 -0.1113317476 0.6679904857
-0.2783293690 -0.0556658738 0.6123246119
-0.2226634952 0.0000000000 0.5566587381
-0.1669976214 0.0556658738 0.5009928642
-0.1113317476 0.1113317476 0.4453269904
-0.0556658738 0.1669976214 0.3896611166
0.0000000000 0.2226634952 0.3339952428
0.0556658738 0.2783293690 0.2783293690
0.1113317476 0.3339952428 0.2226634952
0.1669976214 0.3896611166 0.1669976214
-0.3339952428 -0.2226634952 0.7793222333
-0.2783293690 -0.1669976214 0.7236563595
-0.2226634952 -0.1113317476 0.6679904857
-0.1669976214 -0.0556658738 0.6123246119
-0.1113317476 0.0000000000 0.5566587381
-0.0556658738 0.0556658738 0.5009928642
0.0000000000 0.1113317476 0.4453269904
0.0556658738 0.1669976214 0.3896611166
0.1113317476 0.2226634952 0.3339952428
0.1669976214 0.2783293690 0.2783293690
0.2226634952 0.3339952428 0.2226634952
-0.2783293690 -0.2783293690 0.8349881071
-0.2226634952 -0.2226634952 0.7793222333
-0.1669976214 -0.1669976214 0.7236563595
-0.1113317476 -0.1113317476 0.6679904857
-0.0556658738 -0.0556658738 0.6123246119
0.0000000000 0.0000000000 0.5566587381
0.0556658738 0.0556658738 0.5009928642
0.1113317476 0.1113317476 0.4453269904
0.1669976214 0.1669976214 0.3896611166
0.2226634952 0.2226634952 0.3339952428
0.2783293690 0.2783293690 0.2783293690
 There are 14 alpha and 14 beta electrons
 Start computing overlap matrix
 Allocate 98472704 B from available memory: 1048575736800 B
 Time for computing overlap matrix: 1.9320000000 s
 ====== Initialize compute kernels for all-electron RI-J (kpts) ====== 
 ========================================================== 
 Range-separated parameter omega        = 0.900000000000000022
 Threshold for 1e2c shellpair           = 0.000000000000010000
 Threshold for 2e2c SR integral         = 0.000000000000000001
 Threshold for 2e3c SR integral         = 0.000000000100000000
 Threshold for AFT G-space screening is = 0.000000000001000000
 The exponent cutoff for C/D classification (omega2 / 2) is  = 0.405000000000000027
 ========================================================== 
 === Post process the basis set for RI calculation (exp_cutoff = 0.405000000000000027 ) === 
nshells_b1 before uncontraction = 24
nshells_b1 after uncontraction = 28
nshells_baux before uncontraction = 74
nshells_baux after uncontraction = 74
===============================================
nbsf total   = 76
nbsf compact = 36
nbsf diffuse = 40
naux total   = 242
naux compact = 242
naux diffuse = 0
nshells_bnuc = 2

 Number of unique atoms is 1
 Unique atom #0 (si) has 8 shells.

Shell 0 to 7 belongs to atom si
Shell 8 to 15 belongs to atom si

 Number of unique atoms is 1
 Unique atom #0 (si) has 6 shells.

Shell 0 to 5 belongs to atom si
Shell 6 to 11 belongs to atom si

 Number of unique atom is 1
 Unique atom #0 (si) has 37 auxiliary shells.

Auxiliary Shell 0 to 36 belongs to atom si
Auxiliary Shell 37 to 73 belongs to atom si

================= Automatically determine grid size for reciprocal space summation =================
 Range-separated parameter = 0.90000000000000 and G-space screening threshold = 0.00000000000100
The number of grid points along each axis dimension is (10, 10, 10)
Total number of grid points = 9261

Use nonortho shellpair for diffuse density
======== Initializing relevant kernel for RIJ (DD type) ========
There are 78 shellpairs in the reference unit cell
There are 2659 images and we expect to have 207402 in total
There are 10362 shellpairs in the lattice sum after screening
======== Initializing relevant kernel for RIJ (CD type) ========
There are 192 shellpairs in the reference unit cell
There are 1657 images and we expect to have 318144 in total
There are 12656 shellpairs in the lattice sum after screening
****** AFT -> SR ******
Maximum bra distance cutoff is 20.000000000000
Maximum bra ket distance cutoff is 19.686314259486
Maximum bra ket screening distance is 18.000000000000
Number of auxiliary image is 437
There are 192 shellpairs in the reference unit cell
There are 437 images and we expect to have 83904 in total
There are 12656 shellpairs in the lattice sum after screening
Available memory per thread for 2e3c calculation is 32.764914503000Gb
Finish initializing 2e3c SR with the lattice sum!
=================================================
======== Initializing relevant kernel for RIJ (CC type) ========
There are 135 shellpairs in the reference unit cell
There are 551 images and we expect to have 74385 in total
There are 1200 shellpairs in the lattice sum after screening
****** AFT -> SR ******
Maximum bra distance cutoff is 11.000000000000
Maximum bra ket distance cutoff is 19.281250000000
Maximum bra ket screening distance is 17.500000000000
Number of auxiliary image is 437
There are 135 shellpairs in the reference unit cell
There are 117 images and we expect to have 15795 in total
There are 1200 shellpairs in the lattice sum after screening
Available memory per thread for 2e3c calculation is 32.764914503000Gb
Finish initializing 2e3c SR with the lattice sum!
=================================================
======== Initializing the SR component for Vnuc (CD type) ========
Maximum bra distance cutoff is 20.000000000000
Maximum bra ket distance cutoff is 11.052556209192
Maximum bra ket screening distance is 9.170821735065
Number of auxiliary image is 437
There are 192 shellpairs in the reference unit cell
There are 437 images and we expect to have 83904 in total
There are 12656 shellpairs in the lattice sum after screening
Available memory per thread for 2e3c calculation is 32.764914503000Gb
Finish initializing 2e3c SR with the lattice sum!
=================================================
======== Initialize the SR component for Vnuc (CC type) ========
Maximum bra distance cutoff is 11.000000000000
Maximum bra ket distance cutoff is 11.232824570356
Maximum bra ket screening distance is 8.201723935674
Number of auxiliary image is 117
There are 135 shellpairs in the reference unit cell
There are 117 images and we expect to have 15795 in total
There are 1200 shellpairs in the lattice sum after screening
Available memory per thread for 2e3c calculation is 32.764914503000Gb
Finish initializing 2e3c SR with the lattice sum!
=================================================
 Aufbau occupation scheme, occupation determined by eigenvalue
 == 0-th k-point nmo = 68 (-0.27833,-0.27833,-0.27833) ==
 == 1-th k-point nmo = 68 (-0.22266,-0.22266,-0.33400) ==
 == 2-th k-point nmo = 68 (-0.16700,-0.16700,-0.38966) ==
 == 3-th k-point nmo = 68 (-0.11133,-0.11133,-0.44533) ==
 == 4-th k-point nmo = 68 (-0.05567,-0.05567,-0.50099) ==
 == 5-th k-point nmo = 68 (-0.00000,-0.00000,-0.55666) ==
 == 6-th k-point nmo = 68 (0.05567,0.05567,-0.61232) ==
 == 7-th k-point nmo = 68 (0.11133,0.11133,-0.66799) ==
 == 8-th k-point nmo = 68 (0.16700,0.16700,-0.72366) ==
 == 9-th k-point nmo = 68 (0.22266,0.22266,-0.77932) ==
 == 10-th k-point nmo = 68 (0.27833,0.27833,-0.83499) ==
 == 11-th k-point nmo = 68 (-0.22266,-0.33400,-0.22266) ==
 == 12-th k-point nmo = 68 (-0.16700,-0.27833,-0.27833) ==
 == 13-th k-point nmo = 68 (-0.11133,-0.22266,-0.33400) ==
 == 14-th k-point nmo = 68 (-0.05567,-0.16700,-0.38966) ==
 == 15-th k-point nmo = 68 (-0.00000,-0.11133,-0.44533) ==
 == 16-th k-point nmo = 68 (0.05567,-0.05567,-0.50099) ==
 == 17-th k-point nmo = 68 (0.11133,-0.00000,-0.55666) ==
 == 18-th k-point nmo = 68 (0.16700,0.05567,-0.61232) ==
 == 19-th k-point nmo = 68 (0.22266,0.11133,-0.66799) ==
 == 20-th k-point nmo = 68 (0.27833,0.16700,-0.72366) ==
 == 21-th k-point nmo = 68 (0.33400,0.22266,-0.77932) ==
 == 22-th k-point nmo = 68 (-0.16700,-0.38966,-0.16700) ==
 == 23-th k-point nmo = 68 (-0.11133,-0.33400,-0.22266) ==
 == 24-th k-point nmo = 68 (-0.05567,-0.27833,-0.27833) ==
 == 25-th k-point nmo = 68 (-0.00000,-0.22266,-0.33400) ==
 == 26-th k-point nmo = 68 (0.05567,-0.16700,-0.38966) ==
 == 27-th k-point nmo = 68 (0.11133,-0.11133,-0.44533) ==
 == 28-th k-point nmo = 68 (0.16700,-0.05567,-0.50099) ==
 == 29-th k-point nmo = 68 (0.22266,-0.00000,-0.55666) ==
 == 30-th k-point nmo = 68 (0.27833,0.05567,-0.61232) ==
 == 31-th k-point nmo = 68 (0.33400,0.11133,-0.66799) ==
 == 32-th k-point nmo = 68 (0.38966,0.16700,-0.72366) ==
 == 33-th k-point nmo = 68 (-0.11133,-0.44533,-0.11133) ==
 == 34-th k-point nmo = 68 (-0.05567,-0.38966,-0.16700) ==
 == 35-th k-point nmo = 68 (-0.00000,-0.33400,-0.22266) ==
 == 36-th k-point nmo = 68 (0.05567,-0.27833,-0.27833) ==
 == 37-th k-point nmo = 68 (0.11133,-0.22266,-0.33400) ==
 == 38-th k-point nmo = 68 (0.16700,-0.16700,-0.38966) ==
 == 39-th k-point nmo = 68 (0.22266,-0.11133,-0.44533) ==
 == 40-th k-point nmo = 68 (0.27833,-0.05567,-0.50099) ==
 == 41-th k-point nmo = 68 (0.33400,0.00000,-0.55666) ==
 == 42-th k-point nmo = 68 (0.38966,0.05567,-0.61232) ==
 == 43-th k-point nmo = 68 (0.44533,0.11133,-0.66799) ==
 == 44-th k-point nmo = 68 (-0.05567,-0.50099,-0.05567) ==
 == 45-th k-point nmo = 68 (-0.00000,-0.44533,-0.11133) ==
 == 46-th k-point nmo = 68 (0.05567,-0.38966,-0.16700) ==
 == 47-th k-point nmo = 68 (0.11133,-0.33400,-0.22266) ==
 == 48-th k-point nmo = 68 (0.16700,-0.27833,-0.27833) ==
 == 49-th k-point nmo = 68 (0.22266,-0.22266,-0.33400) ==
 == 50-th k-point nmo = 68 (0.27833,-0.16700,-0.38966) ==
 == 51-th k-point nmo = 68 (0.33400,-0.11133,-0.44533) ==
 == 52-th k-point nmo = 68 (0.38966,-0.05567,-0.50099) ==
 == 53-th k-point nmo = 68 (0.44533,0.00000,-0.55666) ==
 == 54-th k-point nmo = 68 (0.50099,0.05567,-0.61232) ==
 == 55-th k-point nmo = 68 (-0.00000,-0.55666,0.00000) ==
 == 56-th k-point nmo = 68 (0.05567,-0.50099,-0.05567) ==
 == 57-th k-point nmo = 68 (0.11133,-0.44533,-0.11133) ==
 == 58-th k-point nmo = 68 (0.16700,-0.38966,-0.16700) ==
 == 59-th k-point nmo = 68 (0.22266,-0.33400,-0.22266) ==
 == 60-th k-point nmo = 68 (0.27833,-0.27833,-0.27833) ==
 == 61-th k-point nmo = 68 (0.33400,-0.22266,-0.33400) ==
 == 62-th k-point nmo = 68 (0.38966,-0.16700,-0.38966) ==
 == 63-th k-point nmo = 68 (0.44533,-0.11133,-0.44533) ==
 == 64-th k-point nmo = 68 (0.50099,-0.05567,-0.50099) ==
 == 65-th k-point nmo = 68 (0.55666,0.00000,-0.55666) ==
 == 66-th k-point nmo = 68 (0.05567,-0.61232,0.05567) ==
 == 67-th k-point nmo = 68 (0.11133,-0.55666,0.00000) ==
 == 68-th k-point nmo = 68 (0.16700,-0.50099,-0.05567) ==
 == 69-th k-point nmo = 68 (0.22266,-0.44533,-0.11133) ==
 == 70-th k-point nmo = 68 (0.27833,-0.38966,-0.16700) ==
 == 71-th k-point nmo = 68 (0.33400,-0.33400,-0.22266) ==
 == 72-th k-point nmo = 68 (0.38966,-0.27833,-0.27833) ==
 == 73-th k-point nmo = 68 (0.44533,-0.22266,-0.33400) ==
 == 74-th k-point nmo = 68 (0.50099,-0.16700,-0.38966) ==
 == 75-th k-point nmo = 68 (0.55666,-0.11133,-0.44533) ==
 == 76-th k-point nmo = 68 (0.61232,-0.05567,-0.50099) ==
 == 77-th k-point nmo = 68 (0.11133,-0.66799,0.11133) ==
 == 78-th k-point nmo = 68 (0.16700,-0.61232,0.05567) ==
 == 79-th k-point nmo = 68 (0.22266,-0.55666,0.00000) ==
 == 80-th k-point nmo = 68 (0.27833,-0.50099,-0.05567) ==
 == 81-th k-point nmo = 68 (0.33400,-0.44533,-0.11133) ==
 == 82-th k-point nmo = 68 (0.38966,-0.38966,-0.16700) ==
 == 83-th k-point nmo = 68 (0.44533,-0.33400,-0.22266) ==
 == 84-th k-point nmo = 68 (0.50099,-0.27833,-0.27833) ==
 == 85-th k-point nmo = 68 (0.55666,-0.22266,-0.33400) ==
 == 86-th k-point nmo = 68 (0.61232,-0.16700,-0.38966) ==
 == 87-th k-point nmo = 68 (0.66799,-0.11133,-0.44533) ==
 == 88-th k-point nmo = 68 (0.16700,-0.72366,0.16700) ==
 == 89-th k-point nmo = 68 (0.22266,-0.66799,0.11133) ==
 == 90-th k-point nmo = 68 (0.27833,-0.61232,0.05567) ==
 == 91-th k-point nmo = 68 (0.33400,-0.55666,0.00000) ==
 == 92-th k-point nmo = 68 (0.38966,-0.50099,-0.05567) ==
 == 93-th k-point nmo = 68 (0.44533,-0.44533,-0.11133) ==
 == 94-th k-point nmo = 68 (0.50099,-0.38966,-0.16700) ==
 == 95-th k-point nmo = 68 (0.55666,-0.33400,-0.22266) ==
 == 96-th k-point nmo = 68 (0.61232,-0.27833,-0.27833) ==
 == 97-th k-point nmo = 68 (0.66799,-0.22266,-0.33400) ==
 == 98-th k-point nmo = 68 (0.72366,-0.16700,-0.38966) ==
 == 99-th k-point nmo = 68 (0.22266,-0.77932,0.22266) ==
 == 100-th k-point nmo = 68 (0.27833,-0.72366,0.16700) ==
 == 101-th k-point nmo = 68 (0.33400,-0.66799,0.11133) ==
 == 102-th k-point nmo = 68 (0.38966,-0.61232,0.05567) ==
 == 103-th k-point nmo = 68 (0.44533,-0.55666,0.00000) ==
 == 104-th k-point nmo = 68 (0.50099,-0.50099,-0.05567) ==
 == 105-th k-point nmo = 68 (0.55666,-0.44533,-0.11133) ==
 == 106-th k-point nmo = 68 (0.61232,-0.38966,-0.16700) ==
 == 107-th k-point nmo = 68 (0.66799,-0.33400,-0.22266) ==
 == 108-th k-point nmo = 68 (0.72366,-0.27833,-0.27833) ==
 == 109-th k-point nmo = 68 (0.77932,-0.22266,-0.33400) ==
 == 110-th k-point nmo = 68 (0.27833,-0.83499,0.27833) ==
 == 111-th k-point nmo = 68 (0.33400,-0.77932,0.22266) ==
 == 112-th k-point nmo = 68 (0.38966,-0.72366,0.16700) ==
 == 113-th k-point nmo = 68 (0.44533,-0.66799,0.11133) ==
 == 114-th k-point nmo = 68 (0.50099,-0.61232,0.05567) ==
 == 115-th k-point nmo = 68 (0.55666,-0.55666,0.00000) ==
 == 116-th k-point nmo = 68 (0.61232,-0.50099,-0.05567) ==
 == 117-th k-point nmo = 68 (0.66799,-0.44533,-0.11133) ==
 == 118-th k-point nmo = 68 (0.72366,-0.38966,-0.16700) ==
 == 119-th k-point nmo = 68 (0.77932,-0.33400,-0.22266) ==
 == 120-th k-point nmo = 68 (0.83499,-0.27833,-0.27833) ==
 == 121-th k-point nmo = 68 (-0.33400,-0.22266,-0.22266) ==
 == 122-th k-point nmo = 68 (-0.27833,-0.16700,-0.27833) ==
 == 123-th k-point nmo = 68 (-0.22266,-0.11133,-0.33400) ==
 == 124-th k-point nmo = 68 (-0.16700,-0.05567,-0.38966) ==
 == 125-th k-point nmo = 68 (-0.11133,-0.00000,-0.44533) ==
 == 126-th k-point nmo = 68 (-0.05567,0.05567,-0.50099) ==
 == 127-th k-point nmo = 68 (-0.00000,0.11133,-0.55666) ==
 == 128-th k-point nmo = 68 (0.05567,0.16700,-0.61232) ==
 == 129-th k-point nmo = 68 (0.11133,0.22266,-0.66799) ==
 == 130-th k-point nmo = 68 (0.16700,0.27833,-0.72366) ==
 == 131-th k-point nmo = 68 (0.22266,0.33400,-0.77932) ==
 == 132-th k-point nmo = 68 (-0.27833,-0.27833,-0.16700) ==
 == 133-th k-point nmo = 68 (-0.22266,-0.22266,-0.22266) ==
 == 134-th k-point nmo = 68 (-0.16700,-0.16700,-0.27833) ==
 == 135-th k-point nmo = 68 (-0.11133,-0.11133,-0.33400) ==
 == 136-th k-point nmo = 68 (-0.05567,-0.05567,-0.38966) ==
 == 137-th k-point nmo = 68 (-0.00000,-0.00000,-0.44533) ==
 == 138-th k-point nmo = 68 (0.05567,0.05567,-0.50099) ==
 == 139-th k-point nmo = 68 (0.11133,0.11133,-0.55666) ==
 == 140-th k-point nmo = 68 (0.16700,0.16700,-0.61232) ==
 == 141-th k-point nmo = 68 (0.22266,0.22266,-0.66799) ==
 == 142-th k-point nmo = 68 (0.27833,0.27833,-0.72366) ==
 == 143-th k-point nmo = 68 (-0.22266,-0.33400,-0.11133) ==
 == 144-th k-point nmo = 68 (-0.16700,-0.27833,-0.16700) ==
 == 145-th k-point nmo = 68 (-0.11133,-0.22266,-0.22266) ==
 == 146-th k-point nmo = 68 (-0.05567,-0.16700,-0.27833) ==
 == 147-th k-point nmo = 68 (-0.00000,-0.11133,-0.33400) ==
 == 148-th k-point nmo = 68 (0.05567,-0.05567,-0.38966) ==
 == 149-th k-point nmo = 68 (0.11133,-0.00000,-0.44533) ==
 == 150-th k-point nmo = 68 (0.16700,0.05567,-0.50099) ==
 == 151-th k-point nmo = 68 (0.22266,0.11133,-0.55666) ==
 == 152-th k-point nmo = 68 (0.27833,0.16700,-0.61232) ==
 == 153-th k-point nmo = 68 (0.33400,0.22266,-0.66799) ==
 == 154-th k-point nmo = 68 (-0.16700,-0.38966,-0.05567) ==
 == 155-th k-point nmo = 68 (-0.11133,-0.33400,-0.11133) ==
 == 156-th k-point nmo = 68 (-0.05567,-0.27833,-0.16700) ==
 == 157-th k-point nmo = 68 (-0.00000,-0.22266,-0.22266) ==
 == 158-th k-point nmo = 68 (0.05567,-0.16700,-0.27833) ==
 == 159-th k-point nmo = 68 (0.11133,-0.11133,-0.33400) ==
 == 160-th k-point nmo = 68 (0.16700,-0.05567,-0.38966) ==
 == 161-th k-point nmo = 68 (0.22266,-0.00000,-0.44533) ==
 == 162-th k-point nmo = 68 (0.27833,0.05567,-0.50099) ==
 == 163-th k-point nmo = 68 (0.33400,0.11133,-0.55666) ==
 == 164-th k-point nmo = 68 (0.38966,0.16700,-0.61232) ==
 == 165-th k-point nmo = 68 (-0.11133,-0.44533,0.00000) ==
 == 166-th k-point nmo = 68 (-0.05567,-0.38966,-0.05567) ==
 == 167-th k-point nmo = 68 (-0.00000,-0.33400,-0.11133) ==
 == 168-th k-point nmo = 68 (0.05567,-0.27833,-0.16700) ==
 == 169-th k-point nmo = 68 (0.11133,-0.22266,-0.22266) ==
 == 170-th k-point nmo = 68 (0.16700,-0.16700,-0.27833) ==
 == 171-th k-point nmo = 68 (0.22266,-0.11133,-0.33400) ==
 == 172-th k-point nmo = 68 (0.27833,-0.05567,-0.38966) ==
 == 173-th k-point nmo = 68 (0.33400,-0.00000,-0.44533) ==
 == 174-th k-point nmo = 68 (0.38966,0.05567,-0.50099) ==
 == 175-th k-point nmo = 68 (0.44533,0.11133,-0.55666) ==
 == 176-th k-point nmo = 68 (-0.05567,-0.50099,0.05567) ==
 == 177-th k-point nmo = 68 (-0.00000,-0.44533,0.00000) ==
 == 178-th k-point nmo = 68 (0.05567,-0.38966,-0.05567) ==
 == 179-th k-point nmo = 68 (0.11133,-0.33400,-0.11133) ==
 == 180-th k-point nmo = 68 (0.16700,-0.27833,-0.16700) ==
 == 181-th k-point nmo = 68 (0.22266,-0.22266,-0.22266) ==
 == 182-th k-point nmo = 68 (0.27833,-0.16700,-0.27833) ==
 == 183-th k-point nmo = 68 (0.33400,-0.11133,-0.33400) ==
 == 184-th k-point nmo = 68 (0.38966,-0.05567,-0.38966) ==
 == 185-th k-point nmo = 68 (0.44533,0.00000,-0.44533) ==
 == 186-th k-point nmo = 68 (0.50099,0.05567,-0.50099) ==
 == 187-th k-point nmo = 68 (-0.00000,-0.55666,0.11133) ==
[...]
 2.98765 3.06796 3.68811 3.70127 3.75509 3.77354 6.38750 6.61284
 == 1301-th k-point (-0.22266,0.00000,0.55666) occupation: 14==
 -64.99276 -64.99275 -4.62158 -4.62155 -3.03250 -3.03250 -3.03215 -3.03207 -3.03172 -3.03172
 -0.02705 0.01358 0.13316 0.14727 0.38827 0.39610 0.48564 0.54506 0.63865 0.69486
 0.74487 0.79297 0.86206 0.89835 0.91556 0.97121 0.98181 1.03771 1.07232 1.07662
 1.15728 1.19344 1.23398 1.31236 1.43348 1.48119 1.51222 1.51771 1.57017 1.59181
 1.75880 1.77046 1.84487 1.85358 1.94220 1.95866 2.00898 2.01995 2.07083 2.12110
 2.18260 2.19828 2.27218 2.30878 2.39761 2.44959 2.49117 2.49575 2.66369 2.73183
 2.95439 3.09314 3.65366 3.75368 3.77074 3.77810 6.50817 6.59314
 == 1302-th k-point (-0.16700,0.05567,0.50099) occupation: 14==
 -64.99276 -64.99275 -4.62160 -4.62153 -3.03250 -3.03248 -3.03220 -3.03203 -3.03174 -3.03172
 -0.05200 0.03650 0.13930 0.17090 0.34242 0.39182 0.50113 0.58081 0.62661 0.69972
 0.73076 0.79443 0.82710 0.84719 0.92191 0.95621 1.02386 1.05129 1.06241 1.13099
 1.15982 1.19612 1.23914 1.33134 1.42302 1.48093 1.53430 1.56786 1.61394 1.67527
 1.71596 1.74928 1.81942 1.86047 1.88822 1.92686 2.00934 2.01517 2.07927 2.12684
 2.17047 2.22953 2.27926 2.34701 2.37884 2.41357 2.43260 2.51947 2.63025 2.74776
 2.95466 3.19996 3.59309 3.77326 3.84106 3.90644 6.23560 7.15493
 == 1303-th k-point (-0.11133,0.11133,0.44533) occupation: 14==
 -64.99277 -64.99274 -4.62162 -4.62151 -3.03250 -3.03249 -3.03224 -3.03199 -3.03175 -3.03173
 -0.07367 0.05820 0.15262 0.18830 0.32661 0.39863 0.51102 0.51895 0.68921 0.70617
 0.71727 0.72020 0.79648 0.86288 0.92380 0.98291 0.98631 1.01816 1.09798 1.14839
 1.22961 1.23937 1.25721 1.39892 1.40533 1.45744 1.54801 1.54986 1.65183 1.66985
 1.71411 1.72244 1.80091 1.81919 1.85860 1.96365 2.04016 2.04086 2.07161 2.08350
 2.16018 2.25398 2.29018 2.31899 2.37356 2.39153 2.42694 2.52753 2.55504 2.74640
 3.22480 3.39229 3.53023 3.79998 3.92716 4.03076 5.65296 7.88233
 == 1304-th k-point (-0.05567,0.16700,0.38966) occupation: 14==
 -64.99277 -64.99275 -4.62164 -4.62150 -3.03249 -3.03248 -3.03228 -3.03196 -3.03176 -3.03174
 -0.08943 0.07730 0.15966 0.19574 0.35618 0.41549 0.45098 0.51672 0.63015 0.67683
 0.72324 0.75019 0.80606 0.83793 0.90990 0.96885 1.00419 1.05289 1.10953 1.17993
 1.22802 1.26300 1.32113 1.40826 1.41877 1.44270 1.54545 1.56143 1.59979 1.66279
 1.68905 1.70549 1.76871 1.85459 1.88814 1.95666 1.98732 2.02357 2.05727 2.14254
 2.16370 2.21754 2.25645 2.31760 2.36061 2.40036 2.41739 2.50619 2.58601 2.75873
 3.10829 3.43335 3.49333 3.86302 3.92577 4.01326 6.45290 7.60957
 == 1305-th k-point (0.00000,0.22266,0.33400) occupation: 14==
 -64.99277 -64.99276 -4.62165 -4.62149 -3.03248 -3.03247 -3.03231 -3.03193 -3.03178 -3.03175
 -0.09835 0.08881 0.15035 0.21976 0.39936 0.40306 0.45086 0.49079 0.56296 0.66677
 0.72583 0.74694 0.78579 0.88531 0.89167 0.99056 0.99168 1.10177 1.10671 1.22347
 1.24617 1.25383 1.32587 1.37816 1.42170 1.47068 1.55174 1.55419 1.57859 1.65664
 1.68970 1.71558 1.74311 1.84084 1.92419 1.93247 1.94099 2.02216 2.07604 2.15178
 2.16489 2.19337 2.23917 2.32781 2.38262 2.38427 2.47510 2.50503 2.62521 2.71422
 2.94884 3.46969 3.48520 3.90546 3.97154 4.00457 7.00400 7.45643
 == 1306-th k-point (0.05567,0.27833,0.27833) occupation: 14==
 -64.99277 -64.99276 -4.62165 -4.62149 -3.03247 -3.03247 -3.03232 -3.03191 -3.03178 -3.03175
 -0.10010 0.08191 0.15837 0.23448 0.37567 0.43405 0.43928 0.51217 0.52651 0.65359
 0.72185 0.73350 0.79855 0.88976 0.91335 0.94418 1.02161 1.11385 1.15650 1.19973
 1.23260 1.27285 1.34610 1.38969 1.41882 1.42432 1.52369 1.58476 1.58668 1.64092
 1.65725 1.76675 1.76877 1.78667 1.89563 1.91488 1.96222 2.05452 2.07121 2.13655
 2.18372 2.19328 2.31229 2.33328 2.37429 2.40810 2.51160 2.53548 2.62148 2.64070
 2.95751 3.47420 3.50019 3.90492 3.96628 4.05963 6.95675 7.63297
 == 1307-th k-point (0.11133,0.33400,0.22266) occupation: 14==
 -64.99277 -64.99275 -4.62164 -4.62149 -3.03248 -3.03248 -3.03232 -3.03191 -3.03177 -3.03175
 -0.09472 0.06595 0.17737 0.22021 0.37710 0.40177 0.45583 0.49165 0.60288 0.64430
 0.71531 0.72852 0.80768 0.85755 0.92579 0.95691 1.02284 1.10866 1.14293 1.18802
 1.22969 1.28966 1.33824 1.38389 1.44392 1.48561 1.48979 1.52760 1.56141 1.61856
 1.65471 1.75730 1.78224 1.82139 1.89240 1.93647 1.99069 2.03225 2.05979 2.14344
 2.21670 2.23657 2.27975 2.32307 2.39528 2.44480 2.46938 2.52478 2.57724 2.65356
 3.14176 3.47402 3.49992 3.84660 3.98260 4.05347 6.34703 7.90022
 == 1308-th k-point (0.16700,0.38966,0.16700) occupation: 14==
 -64.99277 -64.99274 -4.62163 -4.62150 -3.03249 -3.03248 -3.03229 -3.03194 -3.03176 -3.03175
 -0.08257 0.05154 0.17373 0.20476 0.34859 0.44271 0.46331 0.47358 0.64847 0.69073
 0.70996 0.71739 0.75844 0.88280 0.95789 0.96747 1.02480 1.06432 1.10357 1.17759
 1.20180 1.31234 1.32866 1.39469 1.41752 1.46652 1.49211 1.52563 1.59588 1.63353
 1.64006 1.74276 1.79380 1.81264 1.88022 1.98555 2.00276 2.01108 2.08567 2.14116
 2.20836 2.26251 2.28958 2.33649 2.40676 2.41587 2.43139 2.52256 2.56359 2.66522
 3.30415 3.50103 3.50843 3.76766 3.98529 4.01740 5.78978 8.08547
 == 1309-th k-point (-0.33400,-0.22266,0.77932) occupation: 14==
 -64.99277 -64.99274 -4.62163 -4.62150 -3.03248 -3.03248 -3.03230 -3.03193 -3.03177 -3.03175
 -0.07191 0.02952 0.17378 0.21227 0.37658 0.39398 0.45371 0.54619 0.60382 0.65201
 0.69856 0.75194 0.78571 0.85449 0.94907 1.03730 1.04874 1.06779 1.12194 1.15764
 1.21855 1.31598 1.32963 1.35188 1.42854 1.43991 1.48777 1.51213 1.55790 1.63013
 1.65561 1.72506 1.79575 1.85170 1.89421 1.93367 1.95752 2.02697 2.08011 2.18434
 2.20586 2.25653 2.31182 2.37134 2.44306 2.45742 2.49019 2.51212 2.57339 2.61543
 3.17518 3.33654 3.55262 3.67299 3.99946 4.06550 6.17273 7.58334
 == 1310-th k-point (-0.27833,-0.16700,0.72366) occupation: 14==
 -64.99276 -64.99275 -4.62161 -4.62152 -3.03249 -3.03248 -3.03225 -3.03198 -3.03175 -3.03173
 -0.05456 0.02676 0.13702 0.19323 0.36937 0.42625 0.51086 0.53040 0.54808 0.65464
 0.73493 0.76748 0.86572 0.88713 0.93197 0.97597 1.01433 1.05716 1.08932 1.13307
 1.22281 1.25421 1.29070 1.35223 1.39002 1.45239 1.49025 1.51178 1.58425 1.64042
 1.67384 1.77710 1.79305 1.84657 1.89074 1.92025 1.93133 2.01584 2.10428 2.14698
 2.19091 2.25870 2.27487 2.35215 2.44921 2.45342 2.47516 2.55000 2.59123 2.69412
 2.98516 3.22198 3.61451 3.65554 3.91048 3.97562 6.29498 7.15440
 == 1311-th k-point (-0.22266,-0.11133,0.66799) occupation: 14==
 -64.99276 -64.99275 -4.62159 -4.62154 -3.03250 -3.03248 -3.03219 -3.03204 -3.03174 -3.03171
 -0.03454 0.01795 0.11996 0.17524 0.35047 0.45075 0.48960 0.54921 0.58054 0.65832
 0.77057 0.81082 0.86556 0.88444 0.93390 0.96410 0.98356 1.01637 1.09804 1.12454
 1.14245 1.22117 1.24873 1.33969 1.39939 1.42800 1.50732 1.55463 1.57925 1.61582
 1.76294 1.81121 1.81698 1.84622 1.89857 1.93923 1.96709 2.01065 2.06034 2.15135
 2.18864 2.24042 2.29001 2.36488 2.39226 2.44720 2.44936 2.56455 2.60254 2.70598
 2.94629 3.10164 3.65719 3.68317 3.83956 3.85906 6.10100 7.03498
 == 1312-th k-point (-0.16700,-0.05567,0.61232) occupation: 14==
 -64.99276 -64.99275 -4.62158 -4.62156 -3.03250 -3.03249 -3.03214 -3.03208 -3.03173 -3.03171
 -0.01523 -0.00142 0.13144 0.16309 0.33752 0.38409 0.55452 0.56325 0.64198 0.66742
 0.76432 0.79563 0.86049 0.88648 0.90996 0.93109 0.99904 1.04402 1.08231 1.10355
 1.16859 1.16934 1.22001 1.24676 1.43811 1.48897 1.53781 1.53799 1.61013 1.63805
 1.78980 1.80722 1.82953 1.83656 1.91096 1.94286 2.00477 2.02116 2.06964 2.12526
 2.19825 2.21029 2.29979 2.32886 2.39233 2.41789 2.46555 2.55711 2.66137 2.70705
 2.97360 2.98490 3.68886 3.72291 3.79794 3.84135 6.15121 6.95550
 == 1313-th k-point (-0.11133,0.00000,0.55666) occupation: 14==
 -64.99275 -64.99275 -4.62159 -4.62155 -3.03250 -3.03249 -3.03215 -3.03207 -3.03173 -3.03173
 -0.03401 0.01513 0.15591 0.16037 0.32700 0.33718 0.57177 0.62266 0.65240 0.70495
 0.73125 0.78498 0.79523 0.85594 0.90893 0.96491 1.02166 1.05591 1.07129 1.08128
 1.17716 1.17826 1.20106 1.25327 1.45016 1.45811 1.58169 1.58631 1.67749 1.69642
 1.74948 1.79661 1.82741 1.83007 1.89865 1.91796 1.99678 2.07557 2.10615 2.13310
 2.16895 2.20797 2.28604 2.31937 2.36148 2.38709 2.48995 2.54401 2.67624 2.75531
 2.90148 3.06920 3.67651 3.78340 3.85159 3.92834 6.50781 6.51527
 == 1314-th k-point (-0.05567,0.05567,0.50099) occupation: 14==
 -64.99276 -64.99273 -4.62161 -4.62153 -3.03250 -3.03249 -3.03219 -3.03203 -3.03175 -3.03174
 -0.05827 0.04190 0.16061 0.17642 0.30875 0.33959 0.58077 0.58108 0.70765 0.70997
 0.72311 0.72702 0.81847 0.85044 0.87910 0.97019 0.97640 1.01633 1.11068 1.16572
 1.17132 1.20501 1.22275 1.31277 1.41059 1.44737 1.60832 1.61006 1.67400 1.72110
 1.75043 1.77279 1.81599 1.83773 1.85014 1.93181 2.00694 2.01816 2.13777 2.14504
 2.14971 2.20179 2.28762 2.31825 2.33112 2.37164 2.46304 2.54696 2.57375 2.81858
 3.13970 3.21269 3.61333 3.83974 3.96151 4.11191 5.52577 6.98393
 == 1315-th k-point (0.00000,0.11133,0.44533) occupation: 14==
 -64.99275 -64.99275 -4.62162 -4.62151 -3.03250 -3.03249 -3.03223 -3.03200 -3.03175 -3.03174
 -0.07716 0.06691 0.16309 0.17752 0.32941 0.36151 0.51441 0.56729 0.65901 0.69938
 0.72092 0.78118 0.80325 0.83550 0.90259 0.92001 0.99081 1.02140 1.14192 1.16074
 1.19913 1.23630 1.28451 1.33902 1.42606 1.43217 1.58150 1.60273 1.63640 1.69767
 1.72338 1.73034 1.80014 1.84613 1.86853 1.91837 1.98427 2.08465 2.09004 2.11885
 2.15778 2.21418 2.23817 2.33043 2.33091 2.38009 2.39679 2.51489 2.57954 2.84728
 3.11121 3.35150 3.52697 3.86710 3.88364 4.04746 6.67381 6.74825
 == 1316-th k-point (0.05567,0.16700,0.38966) occupation: 14==
 -64.99277 -64.99275 -4.62164 -4.62150 -3.03249 -3.03248 -3.03228 -3.03196 -3.03176 -3.03174
 -0.08943 0.07730 0.15966 0.19574 0.35618 0.41549 0.45098 0.51672 0.63015 0.67683
 0.72324 0.75019 0.80606 0.83793 0.90990 0.96885 1.00419 1.05289 1.10953 1.17993
 1.22802 1.26301 1.32113 1.40826 1.41877 1.44270 1.54544 1.56143 1.59979 1.66278
 1.68904 1.70550 1.76870 1.85458 1.88814 1.95664 1.98731 2.02354 2.05727 2.14254
 2.16369 2.21751 2.25645 2.31758 2.36060 2.40032 2.41740 2.50618 2.58598 2.75872
 3.10821 3.43334 3.49332 3.86305 3.92578 4.01327 6.45279 7.60949
 == 1317-th k-point (0.11133,0.22266,0.33400) occupation: 14==
 -64.99277 -64.99275 -4.62164 -4.62149 -3.03248 -3.03248 -3.03232 -3.03191 -3.03177 -3.03175
 -0.09472 0.06595 0.17737 0.22021 0.37710 0.40177 0.45583 0.49165 0.60288 0.64430
 0.71531 0.72852 0.80768 0.85755 0.92579 0.95691 1.02284 1.10866 1.14293 1.18802
 1.22969 1.28966 1.33824 1.38389 1.44392 1.48561 1.48979 1.52760 1.56141 1.61856
 1.65471 1.75730 1.78224 1.82139 1.89240 1.93647 1.99069 2.03225 2.05979 2.14344
 2.21670 2.23657 2.27975 2.32307 2.39528 2.44480 2.46938 2.52478 2.57724 2.65356
 3.14176 3.47402 3.49992 3.84660 3.98260 4.05347 6.34703 7.90022
 == 1318-th k-point (0.16700,0.27833,0.27833) occupation: 14==
 -64.99277 -64.99272 -4.62164 -4.62149 -3.03248 -3.03247 -3.03234 -3.03189 -3.03178 -3.03177
 -0.09314 0.04906 0.20231 0.23413 0.35915 0.40815 0.41140 0.56471 0.58115 0.62547
 0.69992 0.72919 0.81859 0.82426 0.91485 0.98645 1.05412 1.14898 1.16199 1.20194
 1.23009 1.24849 1.34895 1.39870 1.44329 1.45848 1.46455 1.52150 1.55589 1.59636
 1.62062 1.72603 1.84656 1.85314 1.89725 1.91487 2.02656 2.03490 2.03622 2.18301
 2.23630 2.27870 2.28150 2.36210 2.43669 2.45466 2.49444 2.51947 2.52935 2.58522
 3.20582 3.48154 3.49125 3.78163 4.04130 4.08777 5.34355 8.07108
 == 1319-th k-point (0.22266,0.33400,0.22266) occupation: 14==
 -64.99277 -64.99272 -4.62164 -4.62149 -3.03248 -3.03248 -3.03233 -3.03189 -3.03178 -3.03177
 -0.08522 0.03617 0.21032 0.22186 0.35624 0.39903 0.42143 0.55136 0.61088 0.67198
 0.69253 0.72185 0.75491 0.83738 0.94003 1.01894 1.06925 1.10857 1.15409 1.18132
 1.24058 1.30195 1.32469 1.38464 1.40721 1.45772 1.49635 1.50566 1.55253 1.59695
 1.60983 1.71097 1.84090 1.85261 1.90781 1.95883 2.00133 2.02112 2.06518 2.17836
 2.25684 2.28451 2.30775 2.38036 2.44715 2.45956 2.47094 2.49753 2.53924 2.57691
 3.36319 3.49437 3.49862 3.70643 4.06773 4.07110 4.85780 8.04219
 == 1320-th k-point (-0.27833,-0.27833,0.83499) occupation: 14==
 -64.99277 -64.99272 -4.62163 -4.62150 -3.03248 -3.03247 -3.03232 -3.03189 -3.03178 -3.03176
 -0.07517 0.02125 0.20367 0.22562 0.35540 0.40111 0.41452 0.57702 0.63033 0.64369
 0.69621 0.74651 0.75736 0.78284 0.99732 1.03839 1.08767 1.09710 1.14344 1.15962
 1.25798 1.27439 1.33710 1.36711 1.39215 1.45998 1.47697 1.51061 1.57851 1.59115
 1.64615 1.67031 1.84098 1.87234 1.94045 1.95433 1.96107 2.03947 2.04607 2.12902
 2.31990 2.33276 2.36151 2.38471 2.39610 2.45386 2.49106 2.50152 2.51854 2.54934
 3.28776 3.40799 3.54004 3.61054 4.07133 4.09769 4.86589 7.68625
 == 1321-th k-point (-0.22266,-0.22266,0.77932) occupation: 14==
 -64.99277 -64.99274 -4.62162 -4.62151 -3.03248 -3.03248 -3.03228 -3.03194 -3.03176 -3.03174
 -0.06462 0.02514 0.16125 0.20961 0.35247 0.43789 0.45243 0.53460 0.61580 0.63846
 0.71335 0.76336 0.78092 0.87068 0.98945 0.99784 1.03582 1.07755 1.10420 1.11538
 1.24129 1.29876 1.31579 1.33414 1.42950 1.43534 1.46921 1.53927 1.59352 1.62669
 1.66119 1.73629 1.80534 1.82817 1.89308 1.91943 1.96810 2.01225 2.09476 2.18201
 2.20064 2.26531 2.32665 2.36113 2.41048 2.44333 2.46900 2.54049 2.54326 2.64657
 3.17080 3.34889 3.58589 3.62972 3.99784 4.03315 5.97567 7.59971
 == 1322-th k-point (-0.16700,-0.16700,0.72366) occupation: 14==
 -64.99277 -64.99274 -4.62161 -4.62153 -3.03249 -3.03248 -3.03223 -3.03200 -3.03175 -3.03172
 -0.05088 0.02837 0.13144 0.19247 0.33172 0.45415 0.50447 0.50662 0.63094 0.63998
 0.77346 0.77702 0.78908 0.93947 0.95052 0.96399 0.98935 1.03730 1.05832 1.15411
 1.20093 1.22266 1.23097 1.39234 1.41821 1.45257 1.46309 1.52832 1.62685 1.67255
 1.73317 1.76599 1.81013 1.82950 1.87480 1.92068 1.99476 1.99572 2.09413 2.13457
 2.17191 2.27557 2.29727 2.38373 2.39816 2.40991 2.43947 2.53416 2.56975 2.70357
 3.08145 3.18833 3.60218 3.69371 3.91803 3.95119 5.69594 7.62647
 == 1323-th k-point (-0.11133,-0.11133,0.66799) occupation: 14==
 -64.99277 -64.99274 -4.62159 -4.62155 -3.03249 -3.03248 -3.03217 -3.03206 -3.03175 -3.03172
 -0.03331 0.01539 0.13180 0.17913 0.31516 0.38368 0.57012 0.57563 0.64146 0.64850
 0.78148 0.78571 0.85160 0.86024 0.88413 0.97482 1.01470 1.04458 1.07293 1.14059
 1.14291 1.17571 1.20490 1.29878 1.41270 1.49932 1.52497 1.53989 1.68064 1.70893
 1.77737 1.79219 1.81313 1.85540 1.86095 1.93476 2.01712 2.03242 2.05089 2.14050
 2.17447 2.23814 2.27815 2.35978 2.37210 2.43088 2.48262 2.50359 2.59242 2.72173
 2.97676 2.99903 3.65040 3.73917 3.85617 3.96553 5.49112 7.53495
 == 1324-th k-point (-0.05567,-0.05567,0.61232) occupation: 14==
 -64.99276 -64.99273 -4.62157 -4.62156 -3.03249 -3.03248 -3.03212 -3.03210 -3.03175 -3.03173
 -0.01288 -0.00881 0.15443 0.17162 0.30638 0.32801 0.62733 0.63546 0.66210 0.67061
 0.77174 0.77634 0.77801 0.79786 0.95549 0.98699 1.03606 1.05151 1.07904 1.08332
 1.10477 1.15241 1.22646 1.26749 1.41943 1.46238 1.59496 1.59765 1.73090 1.77183
 1.77574 1.78502 1.78819 1.85112 1.88951 1.91883 2.07107 2.08038 2.09530 2.16578
 2.18879 2.19551 2.24302 2.31098 2.35407 2.38534 2.58079 2.58575 2.60162 2.73732
 2.84767 2.91295 3.75992 3.76292 3.92261 4.04794 5.43555 6.88365
 == 1325-th k-point (0.00000,0.00000,0.55666) occupation: 14==
 -64.99273 -64.99273 -4.62159 -4.62155 -3.03249 -3.03249 -3.03215 -3.03207 -3.03176 -3.03176
 -0.03676 0.01499 0.17069 0.17069 0.29958 0.31185 0.63125 0.63125 0.71607 0.71607
 0.72053 0.73155 0.77812 0.78609 0.96215 1.00520 1.00520 1.00577 1.10692 1.10694
 1.12709 1.14904 1.25154 1.29629 1.41881 1.41882 1.63556 1.63557 1.73544 1.74615
 1.76221 1.76985 1.82387 1.88356 1.88356 1.90363 2.03704 2.03751 2.15289 2.15330
 2.19611 2.19632 2.27577 2.27589 2.31190 2.35809 2.56246 2.60308 2.60373 2.77813
 2.99700 2.99747 3.74429 3.90285 4.15483 4.15545 5.39377 5.54391
 == 1326-th k-point (0.05567,0.05567,0.50099) occupation: 14==
 -64.99276 -64.99273 -4.62161 -4.62153 -3.03250 -3.03249 -3.03219 -3.03203 -3.03175 -3.03174
 -0.05827 0.04190 0.16061 0.17642 0.30875 0.33959 0.58077 0.58108 0.70765 0.70997
 0.72311 0.72702 0.81847 0.85044 0.87910 0.97020 0.97639 1.01633 1.11068 1.16573
 1.17132 1.20499 1.22275 1.31277 1.41059 1.44737 1.60832 1.61006 1.67399 1.72110
 1.75043 1.77278 1.81598 1.83773 1.85014 1.93172 2.00696 2.01813 2.13776 2.14506
 2.14970 2.20179 2.28762 2.31827 2.33104 2.37164 2.46297 2.54694 2.57355 2.81848
 3.13953 3.21258 3.61334 3.83972 3.96150 4.11194 5.52576 6.98342
 == 1327-th k-point (0.11133,0.11133,0.44533) occupation: 14==
 -64.99277 -64.99274 -4.62162 -4.62151 -3.03250 -3.03249 -3.03224 -3.03199 -3.03175 -3.03173
 -0.07367 0.05820 0.15262 0.18830 0.32661 0.39863 0.51102 0.51895 0.68921 0.70617
 0.71727 0.72020 0.79648 0.86288 0.92380 0.98291 0.98631 1.01816 1.09797 1.14839
 1.22961 1.23937 1.25721 1.39892 1.40533 1.45744 1.54801 1.54986 1.65173 1.66985
 1.71411 1.72244 1.80090 1.81919 1.85860 1.96363 2.04013 2.04082 2.07162 2.08347
 2.16018 2.25397 2.29016 2.31898 2.37355 2.39153 2.42693 2.52736 2.55499 2.74638
 3.22477 3.39188 3.53023 3.80000 3.92717 4.03069 5.65296 7.88215
 == 1328-th k-point (0.16700,0.16700,0.38966) occupation: 14==
 -64.99277 -64.99274 -4.62163 -4.62150 -3.03249 -3.03248 -3.03229 -3.03194 -3.03176 -3.03175
 -0.08257 0.05154 0.17373 0.20476 0.34859 0.44271 0.46331 0.47358 0.64847 0.69073
 0.70996 0.71739 0.75844 0.88280 0.95789 0.96747 1.02480 1.06432 1.10357 1.17759
 1.20180 1.31234 1.32866 1.39469 1.41752 1.46652 1.49211 1.52563 1.59588 1.63353
 1.64006 1.74276 1.79380 1.81264 1.88022 1.98555 2.00276 2.01108 2.08567 2.14116
 2.20836 2.26251 2.28958 2.33649 2.40676 2.41587 2.43139 2.52256 2.56359 2.66522
 3.30415 3.50103 3.50843 3.76766 3.98529 4.01740 5.78978 8.08547
 == 1329-th k-point (0.22266,0.22266,0.33400) occupation: 14==
 -64.99277 -64.99272 -4.62164 -4.62149 -3.03248 -3.03248 -3.03233 -3.03189 -3.03178 -3.03177
 -0.08522 0.03617 0.21032 0.22186 0.35624 0.39903 0.42143 0.55136 0.61088 0.67198
 0.69253 0.72185 0.75491 0.83738 0.94003 1.01894 1.06925 1.10857 1.15409 1.18132
 1.24058 1.30195 1.32469 1.38464 1.40721 1.45772 1.49635 1.50566 1.55253 1.59695
 1.60983 1.71097 1.84090 1.85261 1.90781 1.95883 2.00133 2.02112 2.06518 2.17836
 2.25684 2.28451 2.30775 2.38036 2.44715 2.45956 2.47094 2.49753 2.53924 2.57691
 3.36319 3.49437 3.49862 3.70643 4.06773 4.07110 4.85780 8.04219
 == 1330-th k-point (0.27833,0.27833,0.27833) occupation: 14==
 -64.99277 -64.99270 -4.62163 -4.62149 -3.03247 -3.03247 -3.03234 -3.03186 -3.03178 -3.03178
 -0.08237 0.02475 0.23134 0.23134 0.33527 0.40254 0.40254 0.56789 0.65528 0.65528
 0.68608 0.73172 0.73172 0.77751 0.97379 1.07994 1.07994 1.08243 1.18247 1.18247
 1.23669 1.29970 1.29970 1.36869 1.36869 1.42021 1.54292 1.54292 1.56276 1.56276
 1.59627 1.66519 1.86640 1.92344 1.94880 1.94880 2.00538 2.01916 2.01916 2.13406
 2.32011 2.32011 2.42085 2.42157 2.42157 2.45436 2.45436 2.49123 2.49123 2.53131
 3.44267 3.44790 3.44790 3.64362 3.69385 4.09616 4.09616 7.89004
 ---------------------------------------------------------------------------
 VBM is at 665-th k-point with 7.51141 eV
 CBM is at 55-th k-point with 8.15200 eV
 Band gap is 0.64059 eV


           Ground-State Mulliken Net Atomic Charges

      Atom                 Charge (a.u.)          Spin (a.u.)
   --------------------------------------------------------
      1 Si              (-0.000000,-0.000000)    (0.000000,0.000000)
      2 Si                (0.000000,0.000000)    (0.000000,0.000000)
   --------------------------------------------------------
  Sum of atomic charges =      (-0.000000,0.000000)
  Sum of spin   charges =       (0.000000,0.000000)



 Total job time:  413.37 s.
 Tue Sep  9 10:33:29 2025


        *************************************************************
        *                                                           *
        *  Thank you very much for using QCPBC. Have a nice day.    *
        *                                                           *
        *************************************************************

Running job 1 of 1
