                  Welcome to Q-Chem
           with Periodic Boundary Condition
     A Quantum Leap Into The Future Of Chemistry

 Adam Rettig, Xintian Feng, Meng-Fu Chen, Hieu Dinh, Stephen Quiton,
 Anton Ni, Paul J. Robinson, Jinghong Zhang, Joonho Lee

Contributors to earlier versions of Q-Chem not listed above:
 Evgeny Epifanovsky, Leo Cunha, Jerome F. Gonthier, Kuan-Yu Liu
 Input file: /n/netscratch/joonholee_lab/Lab/hieudinh//si_2_ccpvtz_omega_0.3_666.scratch20250909091916/si_2_ccpvtz_omega_0.3_666.0
 Scratch folder: /n/netscratch/joonholee_lab/Lab/hieudinh//si_2_ccpvtz_omega_0.3_666.scratch20250909091916
 Auxillary files located at: /n/holylabs/LABS/joonholee_lab/Lab/qchem_base/qcaux
 Q-Chem begins on Tue Sep  9 09:19:17 2025

 -------------------------------------------------------------
 User input:
 -------------------------------------------------------------
 $lattice
 3
 0.000000 5.130600 5.130600
 5.130600 0.000000 5.130600
 5.130600 5.130600 0.000000
 $end
 
 $unitcell
 ABSOLUTE
 0 1
 Si 0.000000 0.000000 0.000000
 Si 2.565300 2.565300 2.565300
 $end
 
 $rem
 jobtype = sp
 method = pbe
 scf_convergence = 5
 scf_guess = autosad
 scf_algorithm = diis_gdm
 basis = cc-pvtz
 aux_basis = cc-pvtz-jk
 input_bohr = true
 symmetry = false
 rsdf_print_level 1
 is_basis_uctr true
 
 mp_mesh = [6,6,6]
 
 integral_direct true
 bvk_cgto true
 
 thresh 14
 mem_total 1000000
 threads 32
 
 MAX_SCF_CYCLES 500
 madelung = false
 omega 0.3
 do_rij_bigmem true
 automate_g true
 print_level 10
 grid_type_xc 1
 
 thresh_1e2c_sp 1e-14
 thresh_2e3c_bra_ket_sep 1e-10
 thresh_g 1e-12
 $end
 
 -------------------------------------------------------------
 Running PBC job

 Requested Exchange Correlation Functionals: 
  DFT Exchange:  1.00000 pbe_x
  DFT Correlation:  1.00000 pbe_c
 using 32 threads for computing.
 ---------------------------------------------------------------
      Coordinates of Atoms in Central Unit Cell (Angstroms)
    I     Atom         X            Y            Z
 ---------------------------------------------------------------
    1      Si      0.000000     0.000000     0.000000
    2      Si      1.357498     1.357498     1.357498
 ---------------------------------------------------------------
 --------------------------------------------------
              Lattice Vectors (Angstroms)
              X            Y            Z
 --------------------------------------------------
   X       0.000000     2.714997     2.714997
   Y       2.714997     0.000000     2.714997
   Z       2.714997     2.714997     0.000000
 --------------------------------------------------
 --------------------------------------------------
       Reciprocal Lattice Vectors (Angstroms^-1)
              X            Y            Z
 --------------------------------------------------
   X      -1.157126     1.157126     1.157126
   Y       1.157126    -1.157126     1.157126
   Z       1.157126     1.157126    -1.157126
 --------------------------------------------------

 Single point calculation requested

 Hamiltonian contributions:
 List of terms in Hamiltonian: kpts_nn, kpts_kinetic, kpts_vnuc_df, kpts_xc, kpts_rij_bigmem

 K-Points calculation started.

 Basis set information about using solid harmonic (1) or Cartesian (0):
  si : D(1) D(1) F(1) 

 Basis set information about using solid harmonic (1) or Cartesian (0):
  si : D(1) D(1) D(1) D(1) D(1) D(1) D(1) D(1) D(1) F(1) F(1) F(1) G(1) 

 There are 68 basis functions in the central unit cell.
 Print atomic basis of atoms in the central unit cell:
 -------------------------------------------------------------
2 104 104 24

  0.00000000000000e+00  0.00000000000000e+00  0.00000000000000e+00
  2.56530000000000e+00  2.56530000000000e+00  2.56530000000000e+00

  2.54900000000000e+05
  3.81900000000000e+04
  8.69000000000000e+03
  2.46200000000000e+03
  8.04800000000000e+02
  2.91300000000000e+02
  1.13600000000000e+02
  4.67500000000000e+01
  1.98200000000000e+01
  7.70800000000000e+00
  3.34000000000000e+00
  2.54900000000000e+05
  3.81900000000000e+04
  8.69000000000000e+03
  8.04800000000000e+02
  2.91300000000000e+02
  1.13600000000000e+02
  4.67500000000000e+01
  1.98200000000000e+01
  7.70800000000000e+00
  3.34000000000000e+00
  1.40200000000000e+00
  2.54900000000000e+05
  3.81900000000000e+04
  8.69000000000000e+03
  2.91300000000000e+02
  1.13600000000000e+02
  4.67500000000000e+01
  1.98200000000000e+01
  7.70800000000000e+00
  3.34000000000000e+00
  1.40200000000000e+00
  2.07000000000000e-01
  4.38700000000000e-01
  7.94400000000000e-02
  4.81500000000000e+02
  1.13900000000000e+02
  3.62300000000000e+01
  1.33400000000000e+01
  5.25200000000000e+00
  2.12000000000000e+00
  1.13900000000000e+02
  3.62300000000000e+01
  1.33400000000000e+01
  5.25200000000000e+00
  2.12000000000000e+00
  2.52800000000000e-01
  8.56100000000000e-01
  7.88900000000000e-02
  4.81000000000000e-01
  1.59000000000000e-01
  3.36000000000000e-01
  2.54900000000000e+05
  3.81900000000000e+04
  8.69000000000000e+03
  2.46200000000000e+03
  8.04800000000000e+02
  2.91300000000000e+02
  1.13600000000000e+02
  4.67500000000000e+01
  1.98200000000000e+01
  7.70800000000000e+00
  3.34000000000000e+00
  2.54900000000000e+05
  3.81900000000000e+04
  8.69000000000000e+03
  8.04800000000000e+02
  2.91300000000000e+02
  1.13600000000000e+02
  4.67500000000000e+01
  1.98200000000000e+01
  7.70800000000000e+00
  3.34000000000000e+00
  1.40200000000000e+00
  2.54900000000000e+05
  3.81900000000000e+04
  8.69000000000000e+03
  2.91300000000000e+02
  1.13600000000000e+02
  4.67500000000000e+01
  1.98200000000000e+01
  7.70800000000000e+00
  3.34000000000000e+00
  1.40200000000000e+00
  2.07000000000000e-01
  4.38700000000000e-01
  7.94400000000000e-02
  4.81500000000000e+02
  1.13900000000000e+02
  3.62300000000000e+01
  1.33400000000000e+01
  5.25200000000000e+00
  2.12000000000000e+00
  1.13900000000000e+02
  3.62300000000000e+01
  1.33400000000000e+01
  5.25200000000000e+00
  2.12000000000000e+00
  2.52800000000000e-01
  8.56100000000000e-01
  7.88900000000000e-02
  4.81000000000000e-01
  1.59000000000000e-01
  3.36000000000000e-01

  5.06121931014315e-01
  9.46667895564849e-01
  1.63484840115776e+00
  2.64073594005923e+00
  3.97699155153283e+00
  5.40905960736848e+00
  6.15868961670172e+00
  4.99170532032548e+00
  2.02857976424901e+00
  1.82839763527352e-01
 -1.25640690342342e-02
  1.10808750449959e-03
  1.94415577975663e-03
  2.70023730632789e-03
 -1.69098200112149e-02
 -8.66890848691569e-02
 -2.76125946359713e-01
 -6.25588788447604e-01
 -6.61701688370681e-01
  3.11114524237060e-01
  9.56658906468163e-01
  4.36891217824705e-01
  1.05873342256663e-04
  1.52975802748887e-04
  4.28394863673135e-04
 -4.94070443505333e-03
 -1.17298035021286e-02
 -2.95023896611804e-02
 -1.71455066569284e-02
  3.00007138114875e-03
 -6.19326651465540e-02
 -2.59989143457351e-01
  2.47187614608056e-01
  3.84180942836044e-01
  1.06644759418552e-01
  6.70509611941243e+00
  8.84487660481054e+00
  9.82415782069442e+00
  8.40902910540583e+00
  4.80448757555754e+00
  1.55989499299286e+00
 -1.15889775037608e-01
 -5.13312293701512e-02
 -2.64771097977823e-01
 -6.52512718105956e-02
 -1.94608613796415e-01
  2.59380435893970e-01
  1.17380433533106e+00
  5.95960578383022e-02
  4.57260134599596e-01
  6.58952976069849e-02
  1.26537084505476e-01
  5.06121931014315e-01
  9.46667895564849e-01
  1.63484840115776e+00
  2.64073594005923e+00
  3.97699155153283e+00
  5.40905960736848e+00
  6.15868961670172e+00
  4.99170532032548e+00
  2.02857976424901e+00
  1.82839763527352e-01
 -1.25640690342342e-02
  1.10808750449959e-03
  1.94415577975663e-03
  2.70023730632789e-03
 -1.69098200112149e-02
 -8.66890848691569e-02
 -2.76125946359713e-01
 -6.25588788447604e-01
 -6.61701688370681e-01
  3.11114524237060e-01
  9.56658906468163e-01
  4.36891217824705e-01
  1.05873342256663e-04
  1.52975802748887e-04
  4.28394863673135e-04
 -4.94070443505333e-03
 -1.17298035021286e-02
 -2.95023896611804e-02
 -1.71455066569284e-02
  3.00007138114875e-03
 -6.19326651465540e-02
 -2.59989143457351e-01
  2.47187614608056e-01
  3.84180942836044e-01
  1.06644759418552e-01
  6.70509611941243e+00
  8.84487660481054e+00
  9.82415782069442e+00
  8.40902910540583e+00
  4.80448757555754e+00
  1.55989499299286e+00
 -1.15889775037608e-01
 -5.13312293701512e-02
 -2.64771097977823e-01
 -6.52512718105956e-02
 -1.94608613796415e-01
  2.59380435893970e-01
  1.17380433533106e+00
  5.95960578383022e-02
  4.57260134599596e-01
  6.58952976069849e-02
  1.26537084505476e-01

0 0 0 0 1 1 1
0 0 
11 0

0 1 1 11 1 1 1
11 0 
11 0

0 2 2 22 1 1 1
22 0 
11 0

0 3 3 33 1 1 1
33 0 
1 0

0 4 4 34 1 1 1
34 0 
1 0

0 5 5 35 1 3 3
35 1 
6 0

0 8 8 41 1 3 3
41 1 
6 0

0 11 11 47 1 3 3
47 1 
1 0

0 14 14 48 1 3 3
48 1 
1 0

0 17 17 49 1 5 6
49 2 
1 1

0 22 22 50 1 5 6
50 2 
1 1

0 27 27 51 1 7 10
51 3 
1 1

1 34 34 52 1 1 1
52 0 
11 0

1 35 35 63 1 1 1
63 0 
11 0

1 36 36 74 1 1 1
74 0 
11 0

1 37 37 85 1 1 1
85 0 
1 0

1 38 38 86 1 1 1
86 0 
1 0

1 39 39 87 1 3 3
87 1 
6 0

1 42 42 93 1 3 3
93 1 
6 0

1 45 45 99 1 3 3
99 1 
1 0

1 48 48 100 1 3 3
100 1 
1 0

1 51 51 101 1 5 6
101 2 
1 1

1 56 56 102 1 5 6
102 2 
1 1

1 61 61 103 1 7 10
103 3 
1 1

 -------------------------------------------------------------
 Allocate 263208 B from available memory: 1048576000000 B
 There are 1331 image cells after screening.
 There are 1353 image cells for CGTO evaluation after screening.
 Real-Space grid for FFT initialized based on kinetic energy cutoff (eV) = 500.0
 Real-Space grid for FFT: (10,10,10)
 There are 9261 real-space grid points.
 There are 64 batches of real-space grid points. 
 Size of each grid batch is around 128
 Grid for AFT initialized based on kinetic energy cutoff (eV) = 500.0
 Real-Space grid for AFT: (10,10,10)
 There are 9261 real-space grid points.

 There are 5456 atom-centered grid points.

 Spacegroup symmetry group: Fd-3m
 Reducing spacegroup symmetry to symmorphic group: F -4 3 m
 Monkhorst-Pack mesh is [6,6,6]
 There are 216 k points.
kpoints in Bohr
-0.2041082040 -0.2041082040 -0.2041082040
-0.1020541020 -0.1020541020 -0.3061623059
-0.0000000000 -0.0000000000 -0.4082164079
0.1020541020 0.1020541020 -0.5102705099
0.2041082040 0.2041082040 -0.6123246119
0.3061623059 0.3061623059 -0.7143787138
-0.1020541020 -0.3061623059 -0.1020541020
-0.0000000000 -0.2041082040 -0.2041082040
0.1020541020 -0.1020541020 -0.3061623059
0.2041082040 -0.0000000000 -0.4082164079
0.3061623059 0.1020541020 -0.5102705099
0.4082164079 0.2041082040 -0.6123246119
-0.0000000000 -0.4082164079 0.0000000000
0.1020541020 -0.3061623059 -0.1020541020
0.2041082040 -0.2041082040 -0.2041082040
0.3061623059 -0.1020541020 -0.3061623059
0.4082164079 -0.0000000000 -0.4082164079
0.5102705099 0.1020541020 -0.5102705099
0.1020541020 -0.5102705099 0.1020541020
0.2041082040 -0.4082164079 0.0000000000
0.3061623059 -0.3061623059 -0.1020541020
0.4082164079 -0.2041082040 -0.2041082040
0.5102705099 -0.1020541020 -0.3061623059
0.6123246119 0.0000000000 -0.4082164079
0.2041082040 -0.6123246119 0.2041082040
0.3061623059 -0.5102705099 0.1020541020
0.4082164079 -0.4082164079 0.0000000000
0.5102705099 -0.3061623059 -0.1020541020
0.6123246119 -0.2041082040 -0.2041082040
0.7143787138 -0.1020541020 -0.3061623059
0.3061623059 -0.7143787138 0.3061623059
0.4082164079 -0.6123246119 0.2041082040
0.5102705099 -0.5102705099 0.1020541020
0.6123246119 -0.4082164079 0.0000000000
0.7143787138 -0.3061623059 -0.1020541020
0.8164328158 -0.2041082040 -0.2041082040
-0.3061623059 -0.1020541020 -0.1020541020
-0.2041082040 -0.0000000000 -0.2041082040
-0.1020541020 0.1020541020 -0.3061623059
-0.0000000000 0.2041082040 -0.4082164079
0.1020541020 0.3061623059 -0.5102705099
0.2041082040 0.4082164079 -0.6123246119
-0.2041082040 -0.2041082040 -0.0000000000
-0.1020541020 -0.1020541020 -0.1020541020
-0.0000000000 -0.0000000000 -0.2041082040
0.1020541020 0.1020541020 -0.3061623059
0.2041082040 0.2041082040 -0.4082164079
0.3061623059 0.3061623059 -0.5102705099
-0.1020541020 -0.3061623059 0.1020541020
-0.0000000000 -0.2041082040 0.0000000000
0.1020541020 -0.1020541020 -0.1020541020
0.2041082040 -0.0000000000 -0.2041082040
0.3061623059 0.1020541020 -0.3061623059
0.4082164079 0.2041082040 -0.4082164079
-0.0000000000 -0.4082164079 0.2041082040
0.1020541020 -0.3061623059 0.1020541020
0.2041082040 -0.2041082040 0.0000000000
0.3061623059 -0.1020541020 -0.1020541020
0.4082164079 0.0000000000 -0.2041082040
0.5102705099 0.1020541020 -0.3061623059
0.1020541020 -0.5102705099 0.3061623059
0.2041082040 -0.4082164079 0.2041082040
0.3061623059 -0.3061623059 0.1020541020
0.4082164079 -0.2041082040 0.0000000000
0.5102705099 -0.1020541020 -0.1020541020
0.6123246119 0.0000000000 -0.2041082040
0.2041082040 -0.6123246119 0.4082164079
0.3061623059 -0.5102705099 0.3061623059
0.4082164079 -0.4082164079 0.2041082040
0.5102705099 -0.3061623059 0.1020541020
0.6123246119 -0.2041082040 0.0000000000
0.7143787138 -0.1020541020 -0.1020541020
-0.4082164079 -0.0000000000 -0.0000000000
-0.3061623059 0.1020541020 -0.1020541020
-0.2041082040 0.2041082040 -0.2041082040
-0.1020541020 0.3061623059 -0.3061623059
0.0000000000 0.4082164079 -0.4082164079
0.1020541020 0.5102705099 -0.5102705099
-0.3061623059 -0.1020541020 0.1020541020
-0.2041082040 -0.0000000000 -0.0000000000
-0.1020541020 0.1020541020 -0.1020541020
0.0000000000 0.2041082040 -0.2041082040
0.1020541020 0.3061623059 -0.3061623059
0.2041082040 0.4082164079 -0.4082164079
-0.2041082040 -0.2041082040 0.2041082040
-0.1020541020 -0.1020541020 0.1020541020
0.0000000000 0.0000000000 0.0000000000
0.1020541020 0.1020541020 -0.1020541020
0.2041082040 0.2041082040 -0.2041082040
0.3061623059 0.3061623059 -0.3061623059
-0.1020541020 -0.3061623059 0.3061623059
-0.0000000000 -0.2041082040 0.2041082040
0.1020541020 -0.1020541020 0.1020541020
0.2041082040 0.0000000000 0.0000000000
0.3061623059 0.1020541020 -0.1020541020
0.4082164079 0.2041082040 -0.2041082040
-0.0000000000 -0.4082164079 0.4082164079
0.1020541020 -0.3061623059 0.3061623059
0.2041082040 -0.2041082040 0.2041082040
0.3061623059 -0.1020541020 0.1020541020
0.4082164079 0.0000000000 0.0000000000
0.5102705099 0.1020541020 -0.1020541020
0.1020541020 -0.5102705099 0.5102705099
0.2041082040 -0.4082164079 0.4082164079
0.3061623059 -0.3061623059 0.3061623059
0.4082164079 -0.2041082040 0.2041082040
0.5102705099 -0.1020541020 0.1020541020
0.6123246119 0.0000000000 0.0000000000
-0.5102705099 0.1020541020 0.1020541020
-0.4082164079 0.2041082040 -0.0000000000
-0.3061623059 0.3061623059 -0.1020541020
-0.2041082040 0.4082164079 -0.2041082040
-0.1020541020 0.5102705099 -0.3061623059
0.0000000000 0.6123246119 -0.4082164079
-0.4082164079 -0.0000000000 0.2041082040
-0.3061623059 0.1020541020 0.1020541020
-0.2041082040 0.2041082040 -0.0000000000
-0.1020541020 0.3061623059 -0.1020541020
0.0000000000 0.4082164079 -0.2041082040
0.1020541020 0.5102705099 -0.3061623059
-0.3061623059 -0.1020541020 0.3061623059
-0.2041082040 -0.0000000000 0.2041082040
-0.1020541020 0.1020541020 0.1020541020
0.0000000000 0.2041082040 0.0000000000
0.1020541020 0.3061623059 -0.1020541020
0.2041082040 0.4082164079 -0.2041082040
-0.2041082040 -0.2041082040 0.4082164079
-0.1020541020 -0.1020541020 0.3061623059
0.0000000000 0.0000000000 0.2041082040
0.1020541020 0.1020541020 0.1020541020
0.2041082040 0.2041082040 0.0000000000
0.3061623059 0.3061623059 -0.1020541020
-0.1020541020 -0.3061623059 0.5102705099
-0.0000000000 -0.2041082040 0.4082164079
0.1020541020 -0.1020541020 0.3061623059
0.2041082040 0.0000000000 0.2041082040
0.3061623059 0.1020541020 0.1020541020
0.4082164079 0.2041082040 0.0000000000
-0.0000000000 -0.4082164079 0.6123246119
0.1020541020 -0.3061623059 0.5102705099
0.2041082040 -0.2041082040 0.4082164079
0.3061623059 -0.1020541020 0.3061623059
0.4082164079 0.0000000000 0.2041082040
0.5102705099 0.1020541020 0.1020541020
-0.6123246119 0.2041082040 0.2041082040
-0.5102705099 0.3061623059 0.1020541020
-0.4082164079 0.4082164079 -0.0000000000
-0.3061623059 0.5102705099 -0.1020541020
-0.2041082040 0.6123246119 -0.2041082040
-0.1020541020 0.7143787138 -0.3061623059
-0.5102705099 0.1020541020 0.3061623059
-0.4082164079 0.2041082040 0.2041082040
-0.3061623059 0.3061623059 0.1020541020
-0.2041082040 0.4082164079 -0.0000000000
-0.1020541020 0.5102705099 -0.1020541020
0.0000000000 0.6123246119 -0.2041082040
-0.4082164079 -0.0000000000 0.4082164079
-0.3061623059 0.1020541020 0.3061623059
-0.2041082040 0.2041082040 0.2041082040
-0.1020541020 0.3061623059 0.1020541020
0.0000000000 0.4082164079 0.0000000000
0.1020541020 0.5102705099 -0.1020541020
-0.3061623059 -0.1020541020 0.5102705099
-0.2041082040 0.0000000000 0.4082164079
-0.1020541020 0.1020541020 0.3061623059
0.0000000000 0.2041082040 0.2041082040
0.1020541020 0.3061623059 0.1020541020
0.2041082040 0.4082164079 0.0000000000
-0.2041082040 -0.2041082040 0.6123246119
-0.1020541020 -0.1020541020 0.5102705099
0.0000000000 0.0000000000 0.4082164079
0.1020541020 0.1020541020 0.3061623059
0.2041082040 0.2041082040 0.2041082040
0.3061623059 0.3061623059 0.1020541020
-0.1020541020 -0.3061623059 0.7143787138
0.0000000000 -0.2041082040 0.6123246119
0.1020541020 -0.1020541020 0.5102705099
0.2041082040 0.0000000000 0.4082164079
0.3061623059 0.1020541020 0.3061623059
0.4082164079 0.2041082040 0.2041082040
-0.7143787138 0.3061623059 0.3061623059
-0.6123246119 0.4082164079 0.2041082040
-0.5102705099 0.5102705099 0.1020541020
-0.4082164079 0.6123246119 -0.0000000000
-0.3061623059 0.7143787138 -0.1020541020
-0.2041082040 0.8164328158 -0.2041082040
-0.6123246119 0.2041082040 0.4082164079
-0.5102705099 0.3061623059 0.3061623059
-0.4082164079 0.4082164079 0.2041082040
-0.3061623059 0.5102705099 0.1020541020
-0.2041082040 0.6123246119 0.0000000000
-0.1020541020 0.7143787138 -0.1020541020
-0.5102705099 0.1020541020 0.5102705099
-0.4082164079 0.2041082040 0.4082164079
-0.3061623059 0.3061623059 0.3061623059
-0.2041082040 0.4082164079 0.2041082040
-0.1020541020 0.5102705099 0.1020541020
0.0000000000 0.6123246119 0.0000000000
-0.4082164079 0.0000000000 0.6123246119
-0.3061623059 0.1020541020 0.5102705099
-0.2041082040 0.2041082040 0.4082164079
-0.1020541020 0.3061623059 0.3061623059
0.0000000000 0.4082164079 0.2041082040
0.1020541020 0.5102705099 0.1020541020
-0.3061623059 -0.1020541020 0.7143787138
-0.2041082040 0.0000000000 0.6123246119
-0.1020541020 0.1020541020 0.5102705099
0.0000000000 0.2041082040 0.4082164079
0.1020541020 0.3061623059 0.3061623059
0.2041082040 0.4082164079 0.2041082040
-0.2041082040 -0.2041082040 0.8164328158
-0.1020541020 -0.1020541020 0.7143787138
0.0000000000 0.0000000000 0.6123246119
0.1020541020 0.1020541020 0.5102705099
0.2041082040 0.2041082040 0.4082164079
0.3061623059 0.3061623059 0.3061623059
 There are 14 alpha and 14 beta electrons
 Start computing overlap matrix
 Allocate 15980544 B from available memory: 1048575736800 B
 Time for computing overlap matrix: 1.7940000000 s
 ====== Initialize compute kernels for all-electron RI-J (kpts) ====== 
 ========================================================== 
 Range-separated parameter omega        = 0.299999999999999989
 Threshold for 1e2c shellpair           = 0.000000000000010000
 Threshold for 2e2c SR integral         = 0.000000000000000001
 Threshold for 2e3c SR integral         = 0.000000000100000000
 Threshold for AFT G-space screening is = 0.000000000001000000
 The exponent cutoff for C/D classification (omega2 / 2) is  = 0.044999999999999998
 ========================================================== 
 === Post process the basis set for RI calculation (exp_cutoff = 0.044999999999999998 ) === 
nshells_b1 before uncontraction = 24
nshells_b1 after uncontraction = 24
nshells_baux before uncontraction = 74
nshells_baux after uncontraction = 74
===============================================
nbsf total   = 68
nbsf compact = 68
nbsf diffuse = 0
naux total   = 242
naux compact = 242
naux diffuse = 0
nshells_bnuc = 2

 Number of unique atoms is 1
 Unique atom #0 (si) has 12 shells.

Shell 0 to 11 belongs to atom si
Shell 12 to 23 belongs to atom si

 Number of unique atom is 1
 Unique atom #0 (si) has 37 auxiliary shells.

Auxiliary Shell 0 to 36 belongs to atom si
Auxiliary Shell 37 to 73 belongs to atom si

================= Automatically determine grid size for reciprocal space summation =================
 Range-separated parameter = 0.30000000000000 and G-space screening threshold = 0.00000000000100
The number of grid points along each axis dimension is (4, 4, 4)
Total number of grid points = 729

Use nonortho shellpair for diffuse density
======== Initializing relevant kernel for RIJ (CC type) ========
There are 299 shellpairs in the reference unit cell
There are 2707 images and we expect to have 809393 in total
There are 21144 shellpairs in the lattice sum after screening
****** AFT -> SR ******
Maximum bra distance cutoff is 26.000000000000
Maximum bra ket distance cutoff is 36.613925668604
Maximum bra ket screening distance is 28.531250000000
Number of auxiliary image is 1633
There are 299 shellpairs in the reference unit cell
There are 695 images and we expect to have 207805 in total
There are 21144 shellpairs in the lattice sum after screening
Available memory per thread for 2e3c calculation is 32.767492383000Gb
Finish initializing 2e3c SR with the lattice sum!
=================================================
======== Initialize the SR component for Vnuc (CC type) ========
Maximum bra distance cutoff is 26.000000000000
Maximum bra ket distance cutoff is 30.465105393952
Maximum bra ket screening distance is 22.160673009729
Number of auxiliary image is 1031
There are 299 shellpairs in the reference unit cell
There are 695 images and we expect to have 207805 in total
There are 21144 shellpairs in the lattice sum after screening
Available memory per thread for 2e3c calculation is 32.767492383000Gb
Finish initializing 2e3c SR with the lattice sum!
=================================================
 Aufbau occupation scheme, occupation determined by eigenvalue
 == 0-th k-point nmo = 68 (-0.20411,-0.20411,-0.20411) ==
 == 1-th k-point nmo = 68 (-0.10205,-0.10205,-0.30616) ==
 == 2-th k-point nmo = 68 (-0.00000,-0.00000,-0.40822) ==
 == 3-th k-point nmo = 68 (0.10205,0.10205,-0.51027) ==
 == 4-th k-point nmo = 68 (0.20411,0.20411,-0.61232) ==
 == 5-th k-point nmo = 68 (0.30616,0.30616,-0.71438) ==
 == 6-th k-point nmo = 68 (-0.10205,-0.30616,-0.10205) ==
 == 7-th k-point nmo = 68 (-0.00000,-0.20411,-0.20411) ==
 == 8-th k-point nmo = 68 (0.10205,-0.10205,-0.30616) ==
 == 9-th k-point nmo = 68 (0.20411,-0.00000,-0.40822) ==
 == 10-th k-point nmo = 68 (0.30616,0.10205,-0.51027) ==
 == 11-th k-point nmo = 68 (0.40822,0.20411,-0.61232) ==
 == 12-th k-point nmo = 68 (-0.00000,-0.40822,0.00000) ==
 == 13-th k-point nmo = 68 (0.10205,-0.30616,-0.10205) ==
 == 14-th k-point nmo = 68 (0.20411,-0.20411,-0.20411) ==
 == 15-th k-point nmo = 68 (0.30616,-0.10205,-0.30616) ==
 == 16-th k-point nmo = 68 (0.40822,-0.00000,-0.40822) ==
 == 17-th k-point nmo = 68 (0.51027,0.10205,-0.51027) ==
 == 18-th k-point nmo = 68 (0.10205,-0.51027,0.10205) ==
 == 19-th k-point nmo = 68 (0.20411,-0.40822,0.00000) ==
 == 20-th k-point nmo = 68 (0.30616,-0.30616,-0.10205) ==
 == 21-th k-point nmo = 68 (0.40822,-0.20411,-0.20411) ==
 == 22-th k-point nmo = 68 (0.51027,-0.10205,-0.30616) ==
 == 23-th k-point nmo = 68 (0.61232,0.00000,-0.40822) ==
 == 24-th k-point nmo = 68 (0.20411,-0.61232,0.20411) ==
 == 25-th k-point nmo = 68 (0.30616,-0.51027,0.10205) ==
 == 26-th k-point nmo = 68 (0.40822,-0.40822,0.00000) ==
 == 27-th k-point nmo = 68 (0.51027,-0.30616,-0.10205) ==
 == 28-th k-point nmo = 68 (0.61232,-0.20411,-0.20411) ==
 == 29-th k-point nmo = 68 (0.71438,-0.10205,-0.30616) ==
 == 30-th k-point nmo = 68 (0.30616,-0.71438,0.30616) ==
 == 31-th k-point nmo = 68 (0.40822,-0.61232,0.20411) ==
 == 32-th k-point nmo = 68 (0.51027,-0.51027,0.10205) ==
 == 33-th k-point nmo = 68 (0.61232,-0.40822,0.00000) ==
 == 34-th k-point nmo = 68 (0.71438,-0.30616,-0.10205) ==
 == 35-th k-point nmo = 68 (0.81643,-0.20411,-0.20411) ==
 == 36-th k-point nmo = 68 (-0.30616,-0.10205,-0.10205) ==
 == 37-th k-point nmo = 68 (-0.20411,-0.00000,-0.20411) ==
 == 38-th k-point nmo = 68 (-0.10205,0.10205,-0.30616) ==
 == 39-th k-point nmo = 68 (-0.00000,0.20411,-0.40822) ==
 == 40-th k-point nmo = 68 (0.10205,0.30616,-0.51027) ==
 == 41-th k-point nmo = 68 (0.20411,0.40822,-0.61232) ==
 == 42-th k-point nmo = 68 (-0.20411,-0.20411,-0.00000) ==
 == 43-th k-point nmo = 68 (-0.10205,-0.10205,-0.10205) ==
 == 44-th k-point nmo = 68 (-0.00000,-0.00000,-0.20411) ==
 == 45-th k-point nmo = 68 (0.10205,0.10205,-0.30616) ==
 == 46-th k-point nmo = 68 (0.20411,0.20411,-0.40822) ==
 == 47-th k-point nmo = 68 (0.30616,0.30616,-0.51027) ==
 == 48-th k-point nmo = 68 (-0.10205,-0.30616,0.10205) ==
 == 49-th k-point nmo = 68 (-0.00000,-0.20411,0.00000) ==
 == 50-th k-point nmo = 68 (0.10205,-0.10205,-0.10205) ==
 == 51-th k-point nmo = 68 (0.20411,-0.00000,-0.20411) ==
 == 52-th k-point nmo = 68 (0.30616,0.10205,-0.30616) ==
 == 53-th k-point nmo = 68 (0.40822,0.20411,-0.40822) ==
 == 54-th k-point nmo = 68 (-0.00000,-0.40822,0.20411) ==
 == 55-th k-point nmo = 68 (0.10205,-0.30616,0.10205) ==
 == 56-th k-point nmo = 68 (0.20411,-0.20411,0.00000) ==
 == 57-th k-point nmo = 68 (0.30616,-0.10205,-0.10205) ==
 == 58-th k-point nmo = 68 (0.40822,0.00000,-0.20411) ==
 == 59-th k-point nmo = 68 (0.51027,0.10205,-0.30616) ==
 == 60-th k-point nmo = 68 (0.10205,-0.51027,0.30616) ==
 == 61-th k-point nmo = 68 (0.20411,-0.40822,0.20411) ==
 == 62-th k-point nmo = 68 (0.30616,-0.30616,0.10205) ==
 == 63-th k-point nmo = 68 (0.40822,-0.20411,0.00000) ==
 == 64-th k-point nmo = 68 (0.51027,-0.10205,-0.10205) ==
 == 65-th k-point nmo = 68 (0.61232,0.00000,-0.20411) ==
 == 66-th k-point nmo = 68 (0.20411,-0.61232,0.40822) ==
 == 67-th k-point nmo = 68 (0.30616,-0.51027,0.30616) ==
 == 68-th k-point nmo = 68 (0.40822,-0.40822,0.20411) ==
 == 69-th k-point nmo = 68 (0.51027,-0.30616,0.10205) ==
 == 70-th k-point nmo = 68 (0.61232,-0.20411,0.00000) ==
 == 71-th k-point nmo = 68 (0.71438,-0.10205,-0.10205) ==
 == 72-th k-point nmo = 68 (-0.40822,-0.00000,-0.00000) ==
 == 73-th k-point nmo = 68 (-0.30616,0.10205,-0.10205) ==
 == 74-th k-point nmo = 68 (-0.20411,0.20411,-0.20411) ==
 == 75-th k-point nmo = 68 (-0.10205,0.30616,-0.30616) ==
 == 76-th k-point nmo = 68 (0.00000,0.40822,-0.40822) ==
 == 77-th k-point nmo = 68 (0.10205,0.51027,-0.51027) ==
 == 78-th k-point nmo = 68 (-0.30616,-0.10205,0.10205) ==
 == 79-th k-point nmo = 68 (-0.20411,-0.00000,-0.00000) ==
 == 80-th k-point nmo = 68 (-0.10205,0.10205,-0.10205) ==
 == 81-th k-point nmo = 68 (0.00000,0.20411,-0.20411) ==
 == 82-th k-point nmo = 68 (0.10205,0.30616,-0.30616) ==
 == 83-th k-point nmo = 68 (0.20411,0.40822,-0.40822) ==
 == 84-th k-point nmo = 68 (-0.20411,-0.20411,0.20411) ==
 == 85-th k-point nmo = 68 (-0.10205,-0.10205,0.10205) ==
 == 86-th k-point nmo = 68 (0.00000,0.00000,0.00000) ==
 == 87-th k-point nmo = 68 (0.10205,0.10205,-0.10205) ==
 == 88-th k-point nmo = 68 (0.20411,0.20411,-0.20411) ==
 == 89-th k-point nmo = 68 (0.30616,0.30616,-0.30616) ==
 == 90-th k-point nmo = 68 (-0.10205,-0.30616,0.30616) ==
 == 91-th k-point nmo = 68 (-0.00000,-0.20411,0.20411) ==
 == 92-th k-point nmo = 68 (0.10205,-0.10205,0.10205) ==
 == 93-th k-point nmo = 68 (0.20411,0.00000,0.00000) ==
 == 94-th k-point nmo = 68 (0.30616,0.10205,-0.10205) ==
 == 95-th k-point nmo = 68 (0.40822,0.20411,-0.20411) ==
 == 96-th k-point nmo = 68 (-0.00000,-0.40822,0.40822) ==
 == 97-th k-point nmo = 68 (0.10205,-0.30616,0.30616) ==
 == 98-th k-point nmo = 68 (0.20411,-0.20411,0.20411) ==
 == 99-th k-point nmo = 68 (0.30616,-0.10205,0.10205) ==
 == 100-th k-point nmo = 68 (0.40822,0.00000,0.00000) ==
 == 101-th k-point nmo = 68 (0.51027,0.10205,-0.10205) ==
 == 102-th k-point nmo = 68 (0.10205,-0.51027,0.51027) ==
 == 103-th k-point nmo = 68 (0.20411,-0.40822,0.40822) ==
 == 104-th k-point nmo = 68 (0.30616,-0.30616,0.30616) ==
 == 105-th k-point nmo = 68 (0.40822,-0.20411,0.20411) ==
 == 106-th k-point nmo = 68 (0.51027,-0.10205,0.10205) ==
 == 107-th k-point nmo = 68 (0.61232,0.00000,0.00000) ==
 == 108-th k-point nmo = 68 (-0.51027,0.10205,0.10205) ==
 == 109-th k-point nmo = 68 (-0.40822,0.20411,-0.00000) ==
 == 110-th k-point nmo = 68 (-0.30616,0.30616,-0.10205) ==
 == 111-th k-point nmo = 68 (-0.20411,0.40822,-0.20411) ==
 == 112-th k-point nmo = 68 (-0.10205,0.51027,-0.30616) ==
 == 113-th k-point nmo = 68 (0.00000,0.61232,-0.40822) ==
 == 114-th k-point nmo = 68 (-0.40822,-0.00000,0.20411) ==
 == 115-th k-point nmo = 68 (-0.30616,0.10205,0.10205) ==
 == 116-th k-point nmo = 68 (-0.20411,0.20411,-0.00000) ==
 == 117-th k-point nmo = 68 (-0.10205,0.30616,-0.10205) ==
 == 118-th k-point nmo = 68 (0.00000,0.40822,-0.20411) ==
 == 119-th k-point nmo = 68 (0.10205,0.51027,-0.30616) ==
 == 120-th k-point nmo = 68 (-0.30616,-0.10205,0.30616) ==
 == 121-th k-point nmo = 68 (-0.20411,-0.00000,0.20411) ==
 == 122-th k-point nmo = 68 (-0.10205,0.10205,0.10205) ==
 == 123-th k-point nmo = 68 (0.00000,0.20411,0.00000) ==
 == 124-th k-point nmo = 68 (0.10205,0.30616,-0.10205) ==
 == 125-th k-point nmo = 68 (0.20411,0.40822,-0.20411) ==
 == 126-th k-point nmo = 68 (-0.20411,-0.20411,0.40822) ==
 == 127-th k-point nmo = 68 (-0.10205,-0.10205,0.30616) ==
 == 128-th k-point nmo = 68 (0.00000,0.00000,0.20411) ==
 == 129-th k-point nmo = 68 (0.10205,0.10205,0.10205) ==
 == 130-th k-point nmo = 68 (0.20411,0.20411,0.00000) ==
 == 131-th k-point nmo = 68 (0.30616,0.30616,-0.10205) ==
 == 132-th k-point nmo = 68 (-0.10205,-0.30616,0.51027) ==
 == 133-th k-point nmo = 68 (-0.00000,-0.20411,0.40822) ==
 == 134-th k-point nmo = 68 (0.10205,-0.10205,0.30616) ==
 == 135-th k-point nmo = 68 (0.20411,0.00000,0.20411) ==
 == 136-th k-point nmo = 68 (0.30616,0.10205,0.10205) ==
 == 137-th k-point nmo = 68 (0.40822,0.20411,0.00000) ==
 == 138-th k-point nmo = 68 (-0.00000,-0.40822,0.61232) ==
 == 139-th k-point nmo = 68 (0.10205,-0.30616,0.51027) ==
 == 140-th k-point nmo = 68 (0.20411,-0.20411,0.40822) ==
 == 141-th k-point nmo = 68 (0.30616,-0.10205,0.30616) ==
 == 142-th k-point nmo = 68 (0.40822,0.00000,0.20411) ==
 == 143-th k-point nmo = 68 (0.51027,0.10205,0.10205) ==
 == 144-th k-point nmo = 68 (-0.61232,0.20411,0.20411) ==
 == 145-th k-point nmo = 68 (-0.51027,0.30616,0.10205) ==
 == 146-th k-point nmo = 68 (-0.40822,0.40822,-0.00000) ==
 == 147-th k-point nmo = 68 (-0.30616,0.51027,-0.10205) ==
 == 148-th k-point nmo = 68 (-0.20411,0.61232,-0.20411) ==
 == 149-th k-point nmo = 68 (-0.10205,0.71438,-0.30616) ==
 == 150-th k-point nmo = 68 (-0.51027,0.10205,0.30616) ==
 == 151-th k-point nmo = 68 (-0.40822,0.20411,0.20411) ==
 == 152-th k-point nmo = 68 (-0.30616,0.30616,0.10205) ==
 == 153-th k-point nmo = 68 (-0.20411,0.40822,-0.00000) ==
 == 154-th k-point nmo = 68 (-0.10205,0.51027,-0.10205) ==
 == 155-th k-point nmo = 68 (0.00000,0.61232,-0.20411) ==
 == 156-th k-point nmo = 68 (-0.40822,-0.00000,0.40822) ==
 == 157-th k-point nmo = 68 (-0.30616,0.10205,0.30616) ==
 == 158-th k-point nmo = 68 (-0.20411,0.20411,0.20411) ==
 == 159-th k-point nmo = 68 (-0.10205,0.30616,0.10205) ==
 == 160-th k-point nmo = 68 (0.00000,0.40822,0.00000) ==
 == 161-th k-point nmo = 68 (0.10205,0.51027,-0.10205) ==
 == 162-th k-point nmo = 68 (-0.30616,-0.10205,0.51027) ==
 == 163-th k-point nmo = 68 (-0.20411,0.00000,0.40822) ==
 == 164-th k-point nmo = 68 (-0.10205,0.10205,0.30616) ==
 == 165-th k-point nmo = 68 (0.00000,0.20411,0.20411) ==
 == 166-th k-point nmo = 68 (0.10205,0.30616,0.10205) ==
 == 167-th k-point nmo = 68 (0.20411,0.40822,0.00000) ==
 == 168-th k-point nmo = 68 (-0.20411,-0.20411,0.61232) ==
 == 169-th k-point nmo = 68 (-0.10205,-0.10205,0.51027) ==
 == 170-th k-point nmo = 68 (0.00000,0.00000,0.40822) ==
 == 171-th k-point nmo = 68 (0.10205,0.10205,0.30616) ==
 == 172-th k-point nmo = 68 (0.20411,0.20411,0.20411) ==
 == 173-th k-point nmo = 68 (0.30616,0.30616,0.10205) ==
 == 174-th k-point nmo = 68 (-0.10205,-0.30616,0.71438) ==
 == 175-th k-point nmo = 68 (0.00000,-0.20411,0.61232) ==
 == 176-th k-point nmo = 68 (0.10205,-0.10205,0.51027) ==
 == 177-th k-point nmo = 68 (0.20411,0.00000,0.40822) ==
 == 178-th k-point nmo = 68 (0.30616,0.10205,0.30616) ==
 == 179-th k-point nmo = 68 (0.40822,0.20411,0.20411) ==
 == 180-th k-point nmo = 68 (-0.71438,0.30616,0.30616) ==
 == 181-th k-point nmo = 68 (-0.61232,0.40822,0.20411) ==
 == 182-th k-point nmo = 68 (-0.51027,0.51027,0.10205) ==
 == 183-th k-point nmo = 68 (-0.40822,0.61232,-0.00000) ==
 == 184-th k-point nmo = 68 (-0.30616,0.71438,-0.10205) ==
 == 185-th k-point nmo = 68 (-0.20411,0.81643,-0.20411) ==
 == 186-th k-point nmo = 68 (-0.61232,0.20411,0.40822) ==
 == 187-th k-point nmo = 68 (-0.51027,0.30616,0.30616) ==
 == 188-th k-point nmo = 68 (-0.40822,0.40822,0.20411) ==
 == 189-th k-point nmo = 68 (-0.30616,0.51027,0.10205) ==
 == 190-th k-point nmo = 68 (-0.20411,0.61232,0.00000) ==
 == 191-th k-point nmo = 68 (-0.10205,0.71438,-0.10205) ==
 == 192-th k-point nmo = 68 (-0.51027,0.10205,0.51027) ==
 == 193-th k-point nmo = 68 (-0.40822,0.20411,0.40822) ==
 == 194-th k-point nmo = 68 (-0.30616,0.30616,0.30616) ==
 == 195-th k-point nmo = 68 (-0.20411,0.40822,0.20411) ==
 == 196-th k-point nmo = 68 (-0.10205,0.51027,0.10205) ==
 == 197-th k-point nmo = 68 (0.00000,0.61232,0.00000) ==
 == 198-th k-point nmo = 68 (-0.40822,0.00000,0.61232) ==
 == 199-th k-point nmo = 68 (-0.30616,0.10205,0.51027) ==
 == 200-th k-point nmo = 68 (-0.20411,0.20411,0.40822) ==
 == 201-th k-point nmo = 68 (-0.10205,0.30616,0.30616) ==
 == 202-th k-point nmo = 68 (0.00000,0.40822,0.20411) ==
 == 203-th k-point nmo = 68 (0.10205,0.51027,0.10205) ==
 == 204-th k-point nmo = 68 (-0.30616,-0.10205,0.71438) ==
 == 205-th k-point nmo = 68 (-0.20411,0.00000,0.61232) ==
 == 206-th k-point nmo = 68 (-0.10205,0.10205,0.51027) ==
 == 207-th k-point nmo = 68 (0.00000,0.20411,0.40822) ==
 == 208-th k-point nmo = 68 (0.10205,0.30616,0.30616) ==
 == 209-th k-point nmo = 68 (0.20411,0.40822,0.20411) ==
 == 210-th k-point nmo = 68 (-0.20411,-0.20411,0.81643) ==
 == 211-th k-point nmo = 68 (-0.10205,-0.10205,0.71438) ==
 == 212-th k-point nmo = 68 (0.00000,0.00000,0.61232) ==
 == 213-th k-point nmo = 68 (0.10205,0.10205,0.51027) ==
 == 214-th k-point nmo = 68 (0.20411,0.20411,0.40822) ==
 == 215-th k-point nmo = 68 (0.30616,0.30616,0.30616) ==

 Generate autoSAD guess
backing up fragment data
Atom # 0: si, charge: 0, multiplicity: 3.000000
writing autosad to fragment context
Settings for isolated fragments: 
  frgm_gamma: TRUE
  frgm_center: FALSE

    Running SCF for isolated atom #0
    Fragment Input file: /n/netscratch/joonholee_lab/Lab/hieudinh//si_2_ccpvtz_omega_0.3_666.scratch20250909091916/autosad_frgmt_0/frgmt_input.in
    Fragment Output file: /n/netscratch/joonholee_lab/Lab/hieudinh//si_2_ccpvtz_omega_0.3_666.scratch20250909091916/autosad_frgmt_0/frgmt_job.out
    Fragment job begins at Tue Sep  9 09:19:21 2025

 Integrated density by DFT XC:
   Numerical integral  =    13.999999324657
   Relative error      =     0.0000048239 %
Final energy components:
 DFT Correlation            Energy =  -0.48419291960634
 DFT Exchange               Energy = -20.15457765326664
 Kinetic (alpha)            Energy = 145.16532593944436
 Kinetic (beta)             Energy = 143.17442658177271
 Nuclear Attraction (alpha) Energy = -351.25548439806880
 Nuclear Attraction (beta)  Energy = -337.63206466478056
 Nuclear Repulsion          Energy =   0.00000000000000
 SEOQF                      Energy =   0.00000000065999
 Total Coulomb              Energy = 131.95997984351342
----------------------------------------------
    SCF Energy: -289.2265872703
   Total fragment job time:  0.52 s.
restoring fragment data

 ------------------------------------------------------------------------
 Allocate 52617600 B from available memory: 1048559756256 B
 Time for generating SCF guess: 0.55 s

 Allocate 78392 B from available memory: 1048507138656 B
 Selected algorithms for each term:
  kpts_kinetic -> @0x14b0e9f95680
  kpts_nn -> @0x14b0e9f95800
  kpts_rij_bigmem -> @0x14b0e9f953e0
  kpts_vnuc_df -> @0x14b0e9f95380
  kpts_xc -> @0x14b0e9f952c0
 Time for computing kinetic matrix is 1.94 s
Start calculating Vnuc CC type!
 Time for computing nuclear attraction matrix is 2.52 s
Compute (P|Q) and use solve on the fly!
Maximum distance between P and Q is 36.45654200218807
Number of images for (P|Qn) is 1633
 Time for computing 2e2c SR integral is 0.15 s
Maximum dynamic memory per thread for 2e3c SR integrals: 0.072 GiB
Batch size for basis function pair is 2451 out of 2451
 === bvk cell = 0 has 100.000 % of the basis function pairs === 
 === bvk cell = 1 has 94.492 % of the basis function pairs === 
 === bvk cell = 2 has 51.000 % of the basis function pairs === 
 === bvk cell = 3 has 14.729 % of the basis function pairs === 
 === bvk cell = 4 has 43.778 % of the basis function pairs === 
 === bvk cell = 5 has 92.738 % of the basis function pairs === 
 === bvk cell = 6 has 94.492 % of the basis function pairs === 
 === bvk cell = 7 has 66.463 % of the basis function pairs === 
 === bvk cell = 8 has 23.705 % of the basis function pairs === 
 === bvk cell = 9 has 16.850 % of the basis function pairs === 
 === bvk cell = 10 has 59.812 % of the basis function pairs === 
 === bvk cell = 11 has 95.675 % of the basis function pairs === 
 === bvk cell = 12 has 51.000 % of the basis function pairs === 
 === bvk cell = 13 has 23.705 % of the basis function pairs === 
 === bvk cell = 14 has 3.590 % of the basis function pairs === 
 === bvk cell = 15 has 17.013 % of the basis function pairs === 
 === bvk cell = 16 has 41.820 % of the basis function pairs === 
 === bvk cell = 17 has 64.586 % of the basis function pairs === 
 === bvk cell = 18 has 14.729 % of the basis function pairs === 
 === bvk cell = 19 has 16.850 % of the basis function pairs === 
 === bvk cell = 20 has 17.013 % of the basis function pairs === 
 === bvk cell = 21 has 5.630 % of the basis function pairs === 
 === bvk cell = 22 has 19.747 % of the basis function pairs === 
 === bvk cell = 23 has 20.359 % of the basis function pairs === 
 === bvk cell = 24 has 43.778 % of the basis function pairs === 
 === bvk cell = 25 has 59.812 % of the basis function pairs === 
 === bvk cell = 26 has 41.820 % of the basis function pairs === 
 === bvk cell = 27 has 19.747 % of the basis function pairs === 
 === bvk cell = 28 has 2.774 % of the basis function pairs === 
 === bvk cell = 29 has 17.707 % of the basis function pairs === 
 === bvk cell = 30 has 92.738 % of the basis function pairs === 
 === bvk cell = 31 has 95.675 % of the basis function pairs === 
 === bvk cell = 32 has 64.586 % of the basis function pairs === 
 === bvk cell = 33 has 20.359 % of the basis function pairs === 
 === bvk cell = 34 has 17.707 % of the basis function pairs === 
 === bvk cell = 35 has 58.752 % of the basis function pairs === 
 === bvk cell = 36 has 94.492 % of the basis function pairs === 
 === bvk cell = 37 has 66.463 % of the basis function pairs === 
 === bvk cell = 38 has 23.705 % of the basis function pairs === 
 === bvk cell = 39 has 16.850 % of the basis function pairs === 
 === bvk cell = 40 has 59.812 % of the basis function pairs === 
 === bvk cell = 41 has 95.675 % of the basis function pairs === 
 === bvk cell = 42 has 66.463 % of the basis function pairs === 
 === bvk cell = 43 has 30.477 % of the basis function pairs === 
 === bvk cell = 44 has 8.486 % of the basis function pairs === 
 === bvk cell = 45 has 23.949 % of the basis function pairs === 
 === bvk cell = 46 has 60.588 % of the basis function pairs === 
 === bvk cell = 47 has 83.476 % of the basis function pairs === 
 === bvk cell = 48 has 23.705 % of the basis function pairs === 
 === bvk cell = 49 has 8.486 % of the basis function pairs === 
 === bvk cell = 50 has 1.714 % of the basis function pairs === 
 === bvk cell = 51 has 20.971 % of the basis function pairs === 
 === bvk cell = 52 has 31.089 % of the basis function pairs === 
 === bvk cell = 53 has 34.884 % of the basis function pairs === 
 === bvk cell = 54 has 16.850 % of the basis function pairs === 
 === bvk cell = 55 has 23.949 % of the basis function pairs === 
 === bvk cell = 56 has 20.971 % of the basis function pairs === 
 === bvk cell = 57 has 2.611 % of the basis function pairs === 
 === bvk cell = 58 has 9.874 % of the basis function pairs === 
 === bvk cell = 59 has 11.179 % of the basis function pairs === 
 === bvk cell = 60 has 59.812 % of the basis function pairs === 
 === bvk cell = 61 has 60.588 % of the basis function pairs === 
 === bvk cell = 62 has 31.089 % of the basis function pairs === 
 === bvk cell = 63 has 9.874 % of the basis function pairs === 
 === bvk cell = 64 has 7.548 % of the basis function pairs === 
 === bvk cell = 65 has 31.253 % of the basis function pairs === 
 === bvk cell = 66 has 95.675 % of the basis function pairs === 
 === bvk cell = 67 has 83.476 % of the basis function pairs === 
 === bvk cell = 68 has 34.884 % of the basis function pairs === 
 === bvk cell = 69 has 11.179 % of the basis function pairs === 
 === bvk cell = 70 has 31.253 % of the basis function pairs === 
 === bvk cell = 71 has 78.254 % of the basis function pairs === 
 === bvk cell = 72 has 51.000 % of the basis function pairs === 
 === bvk cell = 73 has 23.705 % of the basis function pairs === 
 === bvk cell = 74 has 3.590 % of the basis function pairs === 
 === bvk cell = 75 has 17.013 % of the basis function pairs === 
 === bvk cell = 76 has 41.820 % of the basis function pairs === 
 === bvk cell = 77 has 64.586 % of the basis function pairs === 
 === bvk cell = 78 has 23.705 % of the basis function pairs === 
 === bvk cell = 79 has 8.486 % of the basis function pairs === 
 === bvk cell = 80 has 1.714 % of the basis function pairs === 
 === bvk cell = 81 has 20.971 % of the basis function pairs === 
 === bvk cell = 82 has 31.089 % of the basis function pairs === 
 === bvk cell = 83 has 34.884 % of the basis function pairs === 
 === bvk cell = 84 has 3.590 % of the basis function pairs === 
 === bvk cell = 85 has 1.714 % of the basis function pairs === 
 === bvk cell = 86 has 1.714 % of the basis function pairs === 
 === bvk cell = 87 has 5.794 % of the basis function pairs === 
 === bvk cell = 88 has 16.075 % of the basis function pairs === 
 === bvk cell = 89 has 11.098 % of the basis function pairs === 
 === bvk cell = 90 has 17.013 % of the basis function pairs === 
 === bvk cell = 91 has 20.971 % of the basis function pairs === 
 === bvk cell = 92 has 5.794 % of the basis function pairs === 
 === bvk cell = 93 has 0.857 % of the basis function pairs === 
 === bvk cell = 94 has 0.979 % of the basis function pairs === 
 === bvk cell = 95 has 7.426 % of the basis function pairs === 
 === bvk cell = 96 has 41.820 % of the basis function pairs === 
 === bvk cell = 97 has 31.089 % of the basis function pairs === 
 === bvk cell = 98 has 16.075 % of the basis function pairs === 
 === bvk cell = 99 has 0.979 % of the basis function pairs === 
 === bvk cell = 100 has 12.525 % of the basis function pairs === 
 === bvk cell = 101 has 28.641 % of the basis function pairs === 
 === bvk cell = 102 has 64.586 % of the basis function pairs === 
 === bvk cell = 103 has 34.884 % of the basis function pairs === 
 === bvk cell = 104 has 11.098 % of the basis function pairs === 
 === bvk cell = 105 has 7.426 % of the basis function pairs === 
 === bvk cell = 106 has 28.641 % of the basis function pairs === 
 === bvk cell = 107 has 60.588 % of the basis function pairs === 
 === bvk cell = 108 has 14.729 % of the basis function pairs === 
 === bvk cell = 109 has 16.850 % of the basis function pairs === 
 === bvk cell = 110 has 17.013 % of the basis function pairs === 
 === bvk cell = 111 has 5.630 % of the basis function pairs === 
 === bvk cell = 112 has 19.747 % of the basis function pairs === 
 === bvk cell = 113 has 20.359 % of the basis function pairs === 
 === bvk cell = 114 has 16.850 % of the basis function pairs === 
 === bvk cell = 115 has 23.949 % of the basis function pairs === 
 === bvk cell = 116 has 20.971 % of the basis function pairs === 
 === bvk cell = 117 has 2.611 % of the basis function pairs === 
 === bvk cell = 118 has 9.874 % of the basis function pairs === 
 === bvk cell = 119 has 11.179 % of the basis function pairs === 
 === bvk cell = 120 has 17.013 % of the basis function pairs === 
 === bvk cell = 121 has 20.971 % of the basis function pairs === 
 === bvk cell = 122 has 5.794 % of the basis function pairs === 
 === bvk cell = 123 has 0.857 % of the basis function pairs === 
 === bvk cell = 124 has 0.979 % of the basis function pairs === 
 === bvk cell = 125 has 7.426 % of the basis function pairs === 
 === bvk cell = 126 has 5.630 % of the basis function pairs === 
 === bvk cell = 127 has 2.611 % of the basis function pairs === 
 === bvk cell = 128 has 0.857 % of the basis function pairs === 
 === bvk cell = 129 has 0.000 % of the basis function pairs === 
 === bvk cell = 130 has 0.449 % of the basis function pairs === 
 === bvk cell = 131 has 2.530 % of the basis function pairs === 
 === bvk cell = 132 has 19.747 % of the basis function pairs === 
 === bvk cell = 133 has 9.874 % of the basis function pairs === 
 === bvk cell = 134 has 0.979 % of the basis function pairs === 
 === bvk cell = 135 has 0.449 % of the basis function pairs === 
 === bvk cell = 136 has 4.978 % of the basis function pairs === 
 === bvk cell = 137 has 20.971 % of the basis function pairs === 
 === bvk cell = 138 has 20.359 % of the basis function pairs === 
 === bvk cell = 139 has 11.179 % of the basis function pairs === 
 === bvk cell = 140 has 7.426 % of the basis function pairs === 
 === bvk cell = 141 has 2.530 % of the basis function pairs === 
 === bvk cell = 142 has 20.971 % of the basis function pairs === 
 === bvk cell = 143 has 25.092 % of the basis function pairs === 
 === bvk cell = 144 has 43.778 % of the basis function pairs === 
 === bvk cell = 145 has 59.812 % of the basis function pairs === 
 === bvk cell = 146 has 41.820 % of the basis function pairs === 
 === bvk cell = 147 has 19.747 % of the basis function pairs === 
 === bvk cell = 148 has 2.774 % of the basis function pairs === 
 === bvk cell = 149 has 17.707 % of the basis function pairs === 
 === bvk cell = 150 has 59.812 % of the basis function pairs === 
 === bvk cell = 151 has 60.588 % of the basis function pairs === 
 === bvk cell = 152 has 31.089 % of the basis function pairs === 
 === bvk cell = 153 has 9.874 % of the basis function pairs === 
 === bvk cell = 154 has 7.548 % of the basis function pairs === 
 === bvk cell = 155 has 31.253 % of the basis function pairs === 
 === bvk cell = 156 has 41.820 % of the basis function pairs === 
 === bvk cell = 157 has 31.089 % of the basis function pairs === 
 === bvk cell = 158 has 16.075 % of the basis function pairs === 
 === bvk cell = 159 has 0.979 % of the basis function pairs === 
 === bvk cell = 160 has 12.525 % of the basis function pairs === 
 === bvk cell = 161 has 28.641 % of the basis function pairs === 
 === bvk cell = 162 has 19.747 % of the basis function pairs === 
 === bvk cell = 163 has 9.874 % of the basis function pairs === 
 === bvk cell = 164 has 0.979 % of the basis function pairs === 
 === bvk cell = 165 has 0.449 % of the basis function pairs === 
 === bvk cell = 166 has 4.978 % of the basis function pairs === 
 === bvk cell = 167 has 20.971 % of the basis function pairs === 
 === bvk cell = 168 has 2.774 % of the basis function pairs === 
 === bvk cell = 169 has 7.548 % of the basis function pairs === 
 === bvk cell = 170 has 12.525 % of the basis function pairs === 
 === bvk cell = 171 has 4.978 % of the basis function pairs === 
 === bvk cell = 172 has 1.714 % of the basis function pairs === 
 === bvk cell = 173 has 1.714 % of the basis function pairs === 
 === bvk cell = 174 has 17.707 % of the basis function pairs === 
 === bvk cell = 175 has 31.253 % of the basis function pairs === 
 === bvk cell = 176 has 28.641 % of the basis function pairs === 
 === bvk cell = 177 has 20.971 % of the basis function pairs === 
 === bvk cell = 178 has 1.714 % of the basis function pairs === 
 === bvk cell = 179 has 6.120 % of the basis function pairs === 
 === bvk cell = 180 has 92.738 % of the basis function pairs === 
 === bvk cell = 181 has 95.675 % of the basis function pairs === 
 === bvk cell = 182 has 64.586 % of the basis function pairs === 
 === bvk cell = 183 has 20.359 % of the basis function pairs === 
 === bvk cell = 184 has 17.707 % of the basis function pairs === 
 === bvk cell = 185 has 58.752 % of the basis function pairs === 
 === bvk cell = 186 has 95.675 % of the basis function pairs === 
 === bvk cell = 187 has 83.476 % of the basis function pairs === 
 === bvk cell = 188 has 34.884 % of the basis function pairs === 
 === bvk cell = 189 has 11.179 % of the basis function pairs === 
 === bvk cell = 190 has 31.253 % of the basis function pairs === 
 === bvk cell = 191 has 78.254 % of the basis function pairs === 
 === bvk cell = 192 has 64.586 % of the basis function pairs === 
 === bvk cell = 193 has 34.884 % of the basis function pairs === 
 === bvk cell = 194 has 11.098 % of the basis function pairs === 
 === bvk cell = 195 has 7.426 % of the basis function pairs === 
 === bvk cell = 196 has 28.641 % of the basis function pairs === 
 === bvk cell = 197 has 60.588 % of the basis function pairs === 
 === bvk cell = 198 has 20.359 % of the basis function pairs === 
 === bvk cell = 199 has 11.179 % of the basis function pairs === 
 === bvk cell = 200 has 7.426 % of the basis function pairs === 
 === bvk cell = 201 has 2.530 % of the basis function pairs === 
 === bvk cell = 202 has 20.971 % of the basis function pairs === 
 === bvk cell = 203 has 25.092 % of the basis function pairs === 
 === bvk cell = 204 has 17.707 % of the basis function pairs === 
 === bvk cell = 205 has 31.253 % of the basis function pairs === 
 === bvk cell = 206 has 28.641 % of the basis function pairs === 
 === bvk cell = 207 has 20.971 % of the basis function pairs === 
 === bvk cell = 208 has 1.714 % of the basis function pairs === 
 === bvk cell = 209 has 6.120 % of the basis function pairs === 
 === bvk cell = 210 has 58.752 % of the basis function pairs === 
 === bvk cell = 211 has 78.254 % of the basis function pairs === 
 === bvk cell = 212 has 60.588 % of the basis function pairs === 
 === bvk cell = 213 has 25.092 % of the basis function pairs === 
 === bvk cell = 214 has 6.120 % of the basis function pairs === 
 === bvk cell = 215 has 24.480 % of the basis function pairs === 
Static memory requirement for 2e3c SR integrals: 0.272 GB
There are 1 munu batches for computing 2e3c SR integrals with latsum
There are 4 Q batches for computing 2e3c SR integrals with latsum
 Time for computing 2e3c SR integral (CC) is 4.17 s
 Time for RI-J this SCF iteration is 4.55 s
 Time for RI-J this SCF iteration is 0.24 s
 ----------------------------------------------
 Guess energy: -578.7822002488
 ----------------------------------------------
 Guess energy components:
 DFT Correlation    Energy =  -1.09351765007067
 DFT Exchange       Energy = -40.58214248789108
 Kinetic            Energy = 577.54528962018492
 Nuclear Attraction Energy = -1186.36894595297213
 Nuclear Repulsion  Energy = -102.89365928466421
 Total Coulomb      Energy = 174.61077550660406
 ----------------------------------------------
  Cycle       Energy         DIIS error
 ----------------------------------------------
 Time for RI-J this SCF iteration is 0.15 s
    1    -578.7869568170      1.66e-03  
 Energy components after cycle 1:
 DFT Correlation    Energy =  -1.09759481384645
 DFT Exchange       Energy = -40.49505947769092
 Kinetic            Energy = 576.71411719181015
 Nuclear Attraction Energy = -1184.60233504985149
 Nuclear Repulsion  Energy = -102.89365928466421
 Total Coulomb      Energy = 173.58757461728391
    2    -578.7869568170      9.39e-04  
 Energy components after cycle 2:
 DFT Correlation    Energy =  -1.09759481384645
 DFT Exchange       Energy = -40.49505947769092
 Kinetic            Energy = 576.71411719181015
 Nuclear Attraction Energy = -1184.60233504985149
 Nuclear Repulsion  Energy = -102.89365928466421
 Total Coulomb      Energy = 173.58757461728391
 ----------------------------------------------
  Cycle       Energy        RMS Gradient
 ----------------------------------------------
 Time for RI-J this SCF iteration is 0.25 s
    1    -578.7879472024      2.11e-02   Descent step
 Energy components after cycle 1:
 DFT Correlation    Energy =  -1.09697474812968
 DFT Exchange       Energy = -40.52040153820560
 Kinetic            Energy = 577.00926110880050
 Nuclear Attraction Energy = -1185.13625662850245
 Nuclear Repulsion  Energy = -102.89365928466421
 Total Coulomb      Energy = 173.85008388828317
 Time for RI-J this SCF iteration is 0.20 s
    2    -578.7879672799      3.84e-03   Normal BFGS step
 Energy components after cycle 2:
 DFT Correlation    Energy =  -1.09661744450788
 DFT Exchange       Energy = -40.52924500031634
 Kinetic            Energy = 577.09861691800154
 Nuclear Attraction Energy = -1185.31706944093548
 Nuclear Repulsion  Energy = -102.89365928466421
 Total Coulomb      Energy = 173.95000697248344
 Time for RI-J this SCF iteration is 0.22 s
    3    -578.7879912713      3.70e-03   Normal BFGS step
 Energy components after cycle 3:
 DFT Correlation    Energy =  -1.09671061553210
 DFT Exchange       Energy = -40.52521826944984
 Kinetic            Energy = 577.05150892126051
 Nuclear Attraction Energy = -1185.23273121206444
 Nuclear Repulsion  Energy = -102.89365928466421
 Total Coulomb      Energy = 173.90881918913666
 Time for RI-J this SCF iteration is 0.13 s
    4    -578.7879913916      1.92e-04   Normal BFGS step
 Energy components after cycle 4:
 DFT Correlation    Energy =  -1.09673227698980
 DFT Exchange       Energy = -40.52543598487330
 Kinetic            Energy = 577.05657696648586
 Nuclear Attraction Energy = -1185.23826465774027
 Nuclear Repulsion  Energy = -102.89365928466421
 Total Coulomb      Energy = 173.90952384617569
 Time for RI-J this SCF iteration is 0.21 s
    5    -578.7879914139      8.90e-05   Normal BFGS step
 Energy components after cycle 5:
 DFT Correlation    Energy =  -1.09672619559917
 DFT Exchange       Energy = -40.52543043503964
 Kinetic            Energy = 577.05592950496145
 Nuclear Attraction Energy = -1185.23793221153210
 Nuclear Repulsion  Energy = -102.89365928466421
 Total Coulomb      Energy = 173.90982720796154
 Time for RI-J this SCF iteration is 0.14 s
    6    -578.7879914141      7.84e-06   Normal BFGS step
 Energy components after cycle 6:
 DFT Correlation    Energy =  -1.09672583595728
 DFT Exchange       Energy = -40.52540790064262
 Kinetic            Energy = 577.05558308821196
 Nuclear Attraction Energy = -1185.23742927904118
 Nuclear Repulsion  Energy = -102.89365928466421
 Total Coulomb      Energy = 173.90964779803471
    6    -578.7879914141      7.84e-06  Convergence criterion met
 ----------------------------------------------
 Final energy components:
 DFT Correlation    Energy =  -1.09672583595728
 DFT Exchange       Energy = -40.52540790064262
 Kinetic            Energy = 577.05558308821196
 Nuclear Attraction Energy = -1185.23742927904118
 Nuclear Repulsion  Energy = -102.89365928466421
 Total Coulomb      Energy = 173.90964779803471
 ----------------------------------------------
 Final energy is -578.7879914141

 SCF time:   CPU 1503.58s  wall 77.00s 
 Total wall time for computing Kinetic: 0.02 s (9)
 Total wall time for computing RIJ-BIGMEM: 6.09 s (9)
 Total wall time for computing RSDF Vnuc: 0.05 s (9)
 Total wall time for computing DFT XC: 57.05 s (9)
 ---------------------------------------------------------------------------
                        Orbital Energies (a.u.)
 ---------------------------------------------------------------------------
 == 0-th k-point (-0.20411,-0.20411,-0.20411) occupation: 14==
 -64.99222 -64.99214 -4.62120 -4.62101 -3.03200 -3.03200 -3.03190 -3.03139 -3.03132 -3.03132
 -0.11327 0.07938 0.23853 0.23853 0.34301 0.40777 0.40777 0.56910 0.58062 0.58062
 0.62291 0.77934 0.83170 0.83170 0.92286 0.96700 0.96700 1.11469 1.22278 1.22278
 1.24618 1.30400 1.30400 1.40772 1.47624 1.47624 1.49391 1.54721 1.54721 1.59986
 1.59986 1.72498 1.84721 1.84721 1.90493 1.91355 1.99449 2.01785 2.01785 2.14211
 2.19530 2.19530 2.35194 2.35194 2.35759 2.42875 2.42875 2.52860 2.52860 2.54881
 3.36009 3.69099 3.69099 3.72849 4.04996 4.04996 4.09794 8.26793
 == 1-th k-point (-0.10205,-0.10205,-0.30616) occupation: 14==
 -64.99221 -64.99218 -4.62120 -4.62101 -3.03203 -3.03201 -3.03186 -3.03144 -3.03131 -3.03130
 -0.11615 0.11276 0.20221 0.21090 0.34996 0.42785 0.44637 0.46614 0.61825 0.62190
 0.66667 0.75583 0.80008 0.85893 0.89358 0.93266 1.03326 1.06375 1.11527 1.23067
 1.28968 1.30614 1.33531 1.41932 1.44327 1.47226 1.54288 1.55361 1.60867 1.61144
 1.68536 1.70806 1.78059 1.82377 1.87315 1.96851 1.99373 1.99908 2.03156 2.05214
 2.15963 2.17482 2.22819 2.27712 2.34417 2.35616 2.46474 2.54234 2.56703 2.67607
 3.33686 3.50333 3.78272 3.93944 3.99690 4.11587 5.79453 7.81190
 == 2-th k-point (-0.00000,-0.00000,-0.40822) occupation: 14==
 -64.99218 -64.99218 -4.62118 -4.62103 -3.03205 -3.03205 -3.03179 -3.03151 -3.03129 -3.03129
 -0.09391 0.09201 0.18590 0.18590 0.30421 0.35188 0.54764 0.54764 0.64323 0.65180
 0.75705 0.79178 0.79178 0.85447 0.89173 0.90691 0.90691 1.00589 1.16679 1.25457
 1.25457 1.25689 1.32276 1.37644 1.39201 1.39201 1.49409 1.67374 1.67374 1.70185
 1.75500 1.75500 1.76675 1.77426 1.85763 1.94276 1.94276 2.02064 2.11547 2.11547
 2.13868 2.15138 2.16554 2.30584 2.35800 2.35800 2.45392 2.52670 2.52670 2.91823
 3.46637 3.52451 3.52452 4.00034 4.31008 4.31009 5.33669 5.85473
 == 3-th k-point (0.10205,0.10205,-0.51027) occupation: 14==
 -64.99221 -64.99218 -4.62114 -4.62107 -3.03202 -3.03202 -3.03173 -3.03156 -3.03128 -3.03125
 -0.05103 0.03466 0.14120 0.18078 0.31705 0.37842 0.55530 0.55542 0.67333 0.68232
 0.74408 0.75585 0.83341 0.87184 0.88427 0.98973 1.00413 1.02979 1.06448 1.15963
 1.17429 1.18360 1.21802 1.33163 1.40954 1.48118 1.54724 1.56116 1.67243 1.70949
 1.74314 1.76663 1.81406 1.83221 1.86265 1.94124 2.02615 2.03676 2.06018 2.12994
 2.15819 2.23092 2.29863 2.34084 2.35970 2.40936 2.45703 2.52748 2.58601 2.73299
 3.08894 3.14666 3.60605 3.76893 3.89051 4.00163 5.53410 7.62025
 == 4-th k-point (0.20411,0.20411,-0.61232) occupation: 14==
 -64.99221 -64.99218 -4.62114 -4.62107 -3.03202 -3.03201 -3.03175 -3.03154 -3.03129 -3.03125
 -0.04369 0.02700 0.11239 0.19719 0.33575 0.49504 0.51736 0.54045 0.55054 0.56984
 0.81215 0.84082 0.86377 0.88145 0.90406 0.94608 0.97582 1.03439 1.12993 1.14558
 1.18848 1.20288 1.31615 1.37701 1.39408 1.40063 1.44025 1.50233 1.64669 1.65298
 1.77774 1.81429 1.81744 1.82625 1.88974 1.92370 1.92975 1.97015 2.06559 2.17948
 2.19862 2.26180 2.33139 2.33277 2.37224 2.40238 2.46906 2.52970 2.60231 2.78236
 2.92267 3.05946 3.61756 3.70728 3.92058 3.92865 5.72782 7.33789
 == 5-th k-point (0.30616,0.30616,-0.71438) occupation: 14==
 -64.99221 -64.99219 -4.62118 -4.62104 -3.03201 -3.03200 -3.03184 -3.03145 -3.03131 -3.03128
 -0.08640 0.05473 0.16313 0.22746 0.36848 0.43055 0.43475 0.54706 0.55596 0.62806
 0.70971 0.75920 0.83216 0.86526 0.89539 0.96745 1.04106 1.11720 1.15240 1.18934
 1.23923 1.26312 1.34109 1.38000 1.40524 1.42627 1.46892 1.57828 1.59633 1.63131
 1.63878 1.75437 1.80079 1.82317 1.88768 1.90035 1.99841 2.03908 2.07027 2.14062
 2.22919 2.25387 2.26845 2.35648 2.42025 2.42990 2.51575 2.54929 2.57454 2.63647
 3.01040 3.42008 3.50032 3.80051 3.98499 4.07159 6.66201 7.56587
 == 6-th k-point (-0.10205,-0.30616,-0.10205) occupation: 14==
 -64.99221 -64.99218 -4.62120 -4.62101 -3.03203 -3.03201 -3.03186 -3.03144 -3.03131 -3.03130
 -0.11615 0.11276 0.20221 0.21090 0.34996 0.42785 0.44637 0.46614 0.61825 0.62190
 0.66667 0.75583 0.80008 0.85893 0.89358 0.93266 1.03326 1.06375 1.11527 1.23067
 1.28968 1.30614 1.33531 1.41932 1.44327 1.47226 1.54288 1.55361 1.60867 1.61144
 1.68536 1.70806 1.78059 1.82377 1.87315 1.96851 1.99373 1.99908 2.03156 2.05214
 2.15963 2.17482 2.22819 2.27712 2.34417 2.35616 2.46474 2.54234 2.56703 2.67607
 3.33686 3.50333 3.78272 3.93944 3.99690 4.11587 5.79453 7.81190
 == 7-th k-point (-0.00000,-0.20411,-0.20411) occupation: 14==
 -64.99221 -64.99220 -4.62122 -4.62100 -3.03199 -3.03199 -3.03190 -3.03141 -3.03133 -3.03131
 -0.12903 0.13933 0.18648 0.25485 0.38980 0.40849 0.42022 0.48665 0.51101 0.62979
 0.66434 0.70827 0.78788 0.87453 0.89532 0.98787 1.06491 1.10051 1.11283 1.13958
 1.29533 1.32566 1.38644 1.41403 1.46030 1.50719 1.53563 1.58375 1.58742 1.63079
 1.63714 1.73410 1.79911 1.80131 1.89324 1.92029 1.94392 1.98696 2.06562 2.08147
 2.08557 2.12977 2.23397 2.28797 2.31356 2.33428 2.39996 2.51855 2.57527 2.72647
 3.07957 3.46079 3.59946 3.98204 4.04777 4.05837 6.75123 7.56093
 == 8-th k-point (0.10205,-0.10205,-0.30616) occupation: 14==
 -64.99221 -64.99218 -4.62120 -4.62101 -3.03203 -3.03201 -3.03186 -3.03144 -3.03131 -3.03130
 -0.11615 0.11276 0.20221 0.21090 0.34996 0.42785 0.44637 0.46614 0.61825 0.62190
 0.66667 0.75583 0.80008 0.85893 0.89358 0.93266 1.03326 1.06375 1.11527 1.23067
 1.28968 1.30614 1.33531 1.41932 1.44327 1.47226 1.54288 1.55361 1.60867 1.61144
 1.68536 1.70806 1.78059 1.82377 1.87315 1.96851 1.99373 1.99908 2.03156 2.05214
 2.15963 2.17482 2.22819 2.27712 2.34417 2.35616 2.46474 2.54234 2.56703 2.67607
 3.33686 3.50333 3.78272 3.93944 3.99690 4.11587 5.79453 7.81190
 == 9-th k-point (0.20411,-0.00000,-0.40822) occupation: 14==
 -64.99220 -64.99220 -4.62117 -4.62104 -3.03202 -3.03201 -3.03179 -3.03150 -3.03129 -3.03126
 -0.07969 0.06854 0.14359 0.19065 0.38304 0.41593 0.43441 0.54061 0.61694 0.64685
 0.76375 0.77611 0.79740 0.84192 0.91229 0.95755 1.02467 1.07220 1.10749 1.15220
 1.21091 1.21329 1.32241 1.38017 1.43489 1.45022 1.54997 1.55830 1.60412 1.64312
 1.67430 1.71554 1.78356 1.86101 1.91293 1.93840 1.98007 1.99488 2.05407 2.12345
 2.19005 2.21372 2.23363 2.35622 2.36772 2.39419 2.44004 2.49334 2.60926 2.78889
 2.93633 3.36109 3.51102 3.85107 3.91210 3.93603 6.81103 7.10051
 == 10-th k-point (0.30616,0.10205,-0.51027) occupation: 14==
 -64.99220 -64.99219 -4.62114 -4.62107 -3.03202 -3.03202 -3.03174 -3.03154 -3.03127 -3.03125
 -0.04332 0.02421 0.12743 0.17333 0.40223 0.40946 0.50535 0.51876 0.55983 0.69657
 0.72564 0.78018 0.88656 0.91299 0.92211 0.96230 0.97883 1.06365 1.07457 1.11317
 1.15930 1.26109 1.26849 1.33688 1.40365 1.42800 1.53042 1.53676 1.55209 1.59060
 1.69845 1.80399 1.82291 1.83688 1.92552 1.93171 1.93954 2.03371 2.07629 2.15103
 2.20921 2.20966 2.25655 2.35446 2.40702 2.46886 2.49488 2.51916 2.61290 2.70730
 2.94808 3.17294 3.65216 3.65595 3.84911 3.88510 6.39097 6.82746
 == 11-th k-point (0.40822,0.20411,-0.61232) occupation: 14==
 -64.99220 -64.99220 -4.62117 -4.62104 -3.03202 -3.03201 -3.03179 -3.03150 -3.03129 -3.03126
 -0.07969 0.06854 0.14359 0.19065 0.38304 0.41593 0.43441 0.54061 0.61694 0.64685
 0.76375 0.77611 0.79740 0.84192 0.91229 0.95755 1.02467 1.07220 1.10749 1.15220
 1.21091 1.21329 1.32241 1.38017 1.43489 1.45022 1.54997 1.55830 1.60412 1.64312
 1.67430 1.71554 1.78356 1.86101 1.91293 1.93840 1.98007 1.99487 2.05407 2.12345
 2.19005 2.21372 2.23363 2.35622 2.36772 2.39419 2.44004 2.49334 2.60926 2.78889
 2.93633 3.36109 3.51102 3.85107 3.91210 3.93603 6.81103 7.10051
 == 12-th k-point (-0.00000,-0.40822,0.00000) occupation: 14==
 -64.99218 -64.99218 -4.62118 -4.62103 -3.03205 -3.03205 -3.03179 -3.03151 -3.03129 -3.03129
 -0.09391 0.09201 0.18590 0.18590 0.30421 0.35188 0.54764 0.54764 0.64323 0.65180
 0.75705 0.79178 0.79178 0.85447 0.89173 0.90691 0.90691 1.00589 1.16679 1.25457
 1.25457 1.25689 1.32276 1.37644 1.39201 1.39201 1.49409 1.67374 1.67374 1.70185
 1.75500 1.75500 1.76675 1.77426 1.85763 1.94276 1.94276 2.02064 2.11547 2.11547
 2.13868 2.15138 2.16554 2.30584 2.35800 2.35800 2.45392 2.52670 2.52670 2.91823
 3.46637 3.52451 3.52452 4.00034 4.31008 4.31009 5.33669 5.85473
 == 13-th k-point (0.10205,-0.30616,-0.10205) occupation: 14==
 -64.99221 -64.99218 -4.62120 -4.62101 -3.03203 -3.03201 -3.03186 -3.03144 -3.03131 -3.03130
 -0.11615 0.11276 0.20221 0.21090 0.34996 0.42785 0.44637 0.46614 0.61825 0.62190
 0.66667 0.75583 0.80008 0.85893 0.89358 0.93266 1.03326 1.06375 1.11527 1.23067
 1.28968 1.30614 1.33531 1.41932 1.44327 1.47226 1.54288 1.55361 1.60867 1.61144
 1.68536 1.70806 1.78059 1.82377 1.87315 1.96851 1.99373 1.99908 2.03156 2.05214
 2.15963 2.17482 2.22819 2.27712 2.34417 2.35616 2.46474 2.54234 2.56703 2.67607
 3.33686 3.50333 3.78272 3.93944 3.99690 4.11587 5.79453 7.81190
 == 14-th k-point (0.20411,-0.20411,-0.20411) occupation: 14==
 -64.99222 -64.99214 -4.62120 -4.62101 -3.03200 -3.03200 -3.03190 -3.03139 -3.03132 -3.03132
 -0.11327 0.07938 0.23853 0.23853 0.34301 0.40777 0.40777 0.56910 0.58062 0.58062
 0.62291 0.77934 0.83170 0.83170 0.92286 0.96700 0.96700 1.11469 1.22278 1.22278
 1.24618 1.30400 1.30400 1.40772 1.47624 1.47624 1.49391 1.54721 1.54721 1.59986
 1.59986 1.72498 1.84721 1.84721 1.90493 1.91355 1.99449 2.01785 2.01785 2.14211
 2.19530 2.19530 2.35194 2.35194 2.35759 2.42875 2.42875 2.52860 2.52860 2.54881
 3.36009 3.69099 3.69099 3.72849 4.04996 4.04996 4.09794 8.26793
 == 15-th k-point (0.30616,-0.10205,-0.30616) occupation: 14==
 -64.99221 -64.99219 -4.62118 -4.62104 -3.03201 -3.03200 -3.03184 -3.03145 -3.03131 -3.03128
 -0.08640 0.05473 0.16313 0.22746 0.36848 0.43055 0.43475 0.54706 0.55596 0.62806
 0.70971 0.75920 0.83216 0.86526 0.89539 0.96745 1.04106 1.11720 1.15240 1.18934
 1.23923 1.26312 1.34109 1.38000 1.40524 1.42627 1.46892 1.57828 1.59633 1.63131
 1.63878 1.75437 1.80079 1.82317 1.88768 1.90035 1.99841 2.03908 2.07027 2.14062
 2.22919 2.25387 2.26845 2.35648 2.42025 2.42990 2.51575 2.54929 2.57454 2.63647
 3.01040 3.42008 3.50032 3.80051 3.98499 4.07159 6.66201 7.56587
 == 16-th k-point (0.40822,-0.00000,-0.40822) occupation: 14==
 -64.99221 -64.99218 -4.62114 -4.62107 -3.03202 -3.03201 -3.03175 -3.03154 -3.03129 -3.03125
 -0.04369 0.02700 0.11239 0.19719 0.33575 0.49504 0.51736 0.54045 0.55054 0.56984
 0.81215 0.84082 0.86377 0.88145 0.90406 0.94608 0.97582 1.03439 1.12993 1.14558
 1.18848 1.20288 1.31615 1.37701 1.39408 1.40063 1.44025 1.50233 1.64669 1.65298
 1.77774 1.81429 1.81744 1.82625 1.88974 1.92370 1.92975 1.97015 2.06559 2.17948
 2.19862 2.26180 2.33139 2.33277 2.37224 2.40238 2.46906 2.52970 2.60231 2.78236
 2.92267 3.05946 3.61756 3.70728 3.92058 3.92865 5.72782 7.33789
 == 17-th k-point (0.51027,0.10205,-0.51027) occupation: 14==
 -64.99221 -64.99218 -4.62114 -4.62107 -3.03202 -3.03202 -3.03173 -3.03156 -3.03128 -3.03125
 -0.05103 0.03466 0.14120 0.18078 0.31705 0.37842 0.55530 0.55542 0.67333 0.68232
 0.74408 0.75585 0.83341 0.87184 0.88427 0.98973 1.00413 1.02979 1.06448 1.15963
 1.17429 1.18360 1.21802 1.33163 1.40954 1.48118 1.54724 1.56116 1.67243 1.70949
 1.74314 1.76663 1.81406 1.83221 1.86265 1.94124 2.02615 2.03676 2.06018 2.12994
 2.15819 2.23092 2.29863 2.34084 2.35970 2.40936 2.45703 2.52748 2.58601 2.73299
 3.08894 3.14666 3.60605 3.76893 3.89051 4.00163 5.53410 7.62025
 == 18-th k-point (0.10205,-0.51027,0.10205) occupation: 14==
 -64.99221 -64.99218 -4.62114 -4.62107 -3.03202 -3.03202 -3.03173 -3.03156 -3.03128 -3.03125
 -0.05103 0.03466 0.14120 0.18078 0.31705 0.37842 0.55530 0.55542 0.67333 0.68232
 0.74408 0.75585 0.83341 0.87184 0.88427 0.98973 1.00413 1.02979 1.06448 1.15963
 1.17429 1.18360 1.21802 1.33163 1.40954 1.48118 1.54724 1.56116 1.67243 1.70949
 1.74314 1.76663 1.81406 1.83221 1.86265 1.94124 2.02615 2.03676 2.06018 2.12994
 2.15819 2.23092 2.29863 2.34084 2.35970 2.40936 2.45703 2.52748 2.58601 2.73299
 3.08894 3.14666 3.60605 3.76893 3.89051 4.00163 5.53410 7.62025
 == 19-th k-point (0.20411,-0.40822,0.00000) occupation: 14==
 -64.99220 -64.99220 -4.62117 -4.62104 -3.03202 -3.03201 -3.03179 -3.03150 -3.03129 -3.03126
 -0.07969 0.06854 0.14359 0.19065 0.38304 0.41593 0.43441 0.54061 0.61694 0.64685
 0.76375 0.77611 0.79740 0.84192 0.91229 0.95755 1.02467 1.07220 1.10749 1.15220
 1.21091 1.21329 1.32241 1.38017 1.43489 1.45022 1.54997 1.55830 1.60412 1.64312
 1.67430 1.71554 1.78356 1.86101 1.91293 1.93840 1.98007 1.99488 2.05407 2.12345
 2.19005 2.21372 2.23363 2.35622 2.36772 2.39419 2.44004 2.49334 2.60926 2.78889
 2.93633 3.36109 3.51102 3.85107 3.91210 3.93603 6.81103 7.10051
 == 20-th k-point (0.30616,-0.30616,-0.10205) occupation: 14==
 -64.99221 -64.99219 -4.62118 -4.62104 -3.03201 -3.03200 -3.03184 -3.03145 -3.03131 -3.03128
 -0.08640 0.05473 0.16313 0.22746 0.36848 0.43055 0.43475 0.54706 0.55596 0.62806
 0.70971 0.75920 0.83216 0.86526 0.89539 0.96745 1.04106 1.11720 1.15240 1.18934
 1.23923 1.26312 1.34109 1.38000 1.40524 1.42627 1.46892 1.57828 1.59633 1.63131
 1.63878 1.75437 1.80079 1.82317 1.88768 1.90035 1.99841 2.03908 2.07027 2.14062
 2.22919 2.25387 2.26845 2.35648 2.42025 2.42990 2.51575 2.54929 2.57454 2.63647
 3.01040 3.42008 3.50032 3.80051 3.98499 4.07159 6.66201 7.56587
 == 21-th k-point (0.40822,-0.20411,-0.20411) occupation: 14==
 -64.99221 -64.99218 -4.62117 -4.62105 -3.03201 -3.03201 -3.03182 -3.03146 -3.03130 -3.03128
 -0.07217 0.03256 0.17321 0.20965 0.35332 0.43024 0.44988 0.51631 0.62908 0.67517
 0.72356 0.72528 0.74895 0.88470 0.95548 1.01895 1.05269 1.06700 1.09000 1.15443
 1.21097 1.31435 1.33307 1.36494 1.42432 1.43461 1.48217 1.53801 1.58285 1.61767
 1.64557 1.73890 1.80344 1.82307 1.89343 1.96200 1.98483 2.01094 2.09103 2.17737
 2.22071 2.25441 2.31826 2.38228 2.38821 2.44096 2.44625 2.52496 2.55913 2.63282
 3.25878 3.42236 3.53822 3.68214 4.01778 4.02479 5.82568 7.84942
 == 22-th k-point (0.51027,-0.10205,-0.30616) occupation: 14==
 -64.99220 -64.99219 -4.62114 -4.62107 -3.03202 -3.03202 -3.03174 -3.03154 -3.03127 -3.03125
 -0.04332 0.02421 0.12743 0.17333 0.40223 0.40946 0.50535 0.51876 0.55983 0.69657
 0.72564 0.78018 0.88656 0.91299 0.92211 0.96230 0.97883 1.06365 1.07457 1.11317
 1.15930 1.26109 1.26849 1.33688 1.40365 1.42800 1.53042 1.53676 1.55209 1.59060
 1.69845 1.80399 1.82291 1.83688 1.92552 1.93171 1.93954 2.03371 2.07629 2.15103
 2.20921 2.20966 2.25655 2.35446 2.40702 2.46886 2.49488 2.51916 2.61290 2.70730
 2.94808 3.17294 3.65216 3.65595 3.84911 3.88510 6.39097 6.82746
 == 23-th k-point (0.61232,0.00000,-0.40822) occupation: 14==
 -64.99220 -64.99220 -4.62111 -4.62111 -3.03203 -3.03203 -3.03164 -3.03164 -3.03125 -3.03125
 -0.00695 -0.00695 0.14068 0.14068 0.37954 0.37954 0.52889 0.52889 0.67431 0.67431
 0.76293 0.76293 0.89609 0.89609 0.92997 0.92997 0.99480 0.99480 1.09423 1.09423
 1.16618 1.16618 1.25173 1.25173 1.46487 1.46487 1.52729 1.52729 1.58041 1.58041
 1.78472 1.78472 1.84372 1.84372 1.94884 1.94884 2.01349 2.01349 2.10963 2.10963
 2.17924 2.17924 2.29371 2.29371 2.41672 2.41672 2.50627 2.50627 2.70046 2.70046
 3.00759 3.00759 3.70936 3.70936 3.77190 3.77190 6.53929 6.53929
 == 24-th k-point (0.20411,-0.61232,0.20411) occupation: 14==
 -64.99221 -64.99218 -4.62114 -4.62107 -3.03202 -3.03201 -3.03175 -3.03154 -3.03129 -3.03125
 -0.04369 0.02700 0.11239 0.19719 0.33575 0.49504 0.51736 0.54045 0.55054 0.56984
 0.81215 0.84082 0.86377 0.88145 0.90406 0.94608 0.97582 1.03439 1.12993 1.14558
 1.18848 1.20288 1.31615 1.37701 1.39408 1.40063 1.44025 1.50233 1.64669 1.65298
 1.77774 1.81429 1.81744 1.82625 1.88974 1.92370 1.92975 1.97015 2.06559 2.17948
 2.19862 2.26180 2.33139 2.33277 2.37224 2.40238 2.46906 2.52970 2.60231 2.78236
 2.92267 3.05946 3.61756 3.70728 3.92058 3.92865 5.72782 7.33789
 == 25-th k-point (0.30616,-0.51027,0.10205) occupation: 14==
 -64.99220 -64.99219 -4.62114 -4.62107 -3.03202 -3.03202 -3.03174 -3.03154 -3.03127 -3.03125
 -0.04332 0.02421 0.12743 0.17333 0.40223 0.40946 0.50535 0.51876 0.55983 0.69657
 0.72564 0.78018 0.88656 0.91299 0.92211 0.96230 0.97883 1.06365 1.07457 1.11317
 1.15930 1.26109 1.26849 1.33688 1.40365 1.42800 1.53042 1.53676 1.55209 1.59060
 1.69845 1.80399 1.82291 1.83688 1.92552 1.93171 1.93954 2.03371 2.07629 2.15103
 2.20921 2.20966 2.25655 2.35446 2.40702 2.46886 2.49488 2.51916 2.61290 2.70730
 2.94808 3.17294 3.65216 3.65595 3.84911 3.88510 6.39097 6.82746
 == 26-th k-point (0.40822,-0.40822,0.00000) occupation: 14==
 -64.99221 -64.99218 -4.62114 -4.62107 -3.03202 -3.03201 -3.03175 -3.03154 -3.03129 -3.03125
 -0.04369 0.02700 0.11239 0.19719 0.33575 0.49504 0.51736 0.54045 0.55054 0.56984
 0.81215 0.84082 0.86377 0.88145 0.90406 0.94608 0.97582 1.03439 1.12993 1.14558
 1.18848 1.20288 1.31615 1.37701 1.39408 1.40063 1.44025 1.50233 1.64669 1.65298
 1.77774 1.81429 1.81744 1.82625 1.88974 1.92370 1.92975 1.97015 2.06559 2.17948
 2.19862 2.26180 2.33139 2.33277 2.37224 2.40238 2.46906 2.52970 2.60231 2.78236
 2.92267 3.05946 3.61756 3.70728 3.92058 3.92865 5.72782 7.33789
 == 27-th k-point (0.51027,-0.30616,-0.10205) occupation: 14==
 -64.99220 -64.99219 -4.62114 -4.62107 -3.03202 -3.03202 -3.03174 -3.03154 -3.03127 -3.03125
 -0.04332 0.02421 0.12743 0.17333 0.40223 0.40946 0.50535 0.51876 0.55983 0.69657
 0.72564 0.78018 0.88656 0.91299 0.92211 0.96230 0.97883 1.06365 1.07457 1.11317
 1.15930 1.26109 1.26849 1.33688 1.40365 1.42800 1.53042 1.53676 1.55209 1.59060
 1.69845 1.80399 1.82291 1.83688 1.92552 1.93171 1.93954 2.03371 2.07629 2.15103
 2.20921 2.20966 2.25655 2.35446 2.40702 2.46886 2.49488 2.51916 2.61290 2.70730
 2.94808 3.17294 3.65216 3.65595 3.84911 3.88510 6.39097 6.82746
 == 28-th k-point (0.61232,-0.20411,-0.20411) occupation: 14==
 -64.99221 -64.99218 -4.62114 -4.62107 -3.03202 -3.03201 -3.03175 -3.03154 -3.03129 -3.03125
 -0.04369 0.02700 0.11239 0.19719 0.33575 0.49504 0.51736 0.54045 0.55054 0.56984
 0.81215 0.84082 0.86377 0.88145 0.90406 0.94608 0.97582 1.03439 1.12993 1.14558
 1.18848 1.20288 1.31615 1.37701 1.39408 1.40063 1.44025 1.50233 1.64669 1.65298
 1.77774 1.81429 1.81744 1.82625 1.88974 1.92370 1.92975 1.97015 2.06559 2.17948
 2.19862 2.26180 2.33139 2.33277 2.37224 2.40238 2.46906 2.52970 2.60231 2.78236
 2.92267 3.05946 3.61756 3.70728 3.92058 3.92865 5.72782 7.33789
 == 29-th k-point (0.71438,-0.10205,-0.30616) occupation: 14==
 -64.99220 -64.99219 -4.62114 -4.62107 -3.03202 -3.03202 -3.03174 -3.03154 -3.03127 -3.03125
 -0.04332 0.02421 0.12743 0.17333 0.40223 0.40946 0.50535 0.51876 0.55983 0.69657
 0.72564 0.78018 0.88656 0.91299 0.92211 0.96230 0.97883 1.06365 1.07457 1.11317
 1.15930 1.26109 1.26849 1.33688 1.40365 1.42800 1.53042 1.53676 1.55209 1.59060
 1.69845 1.80399 1.82291 1.83688 1.92552 1.93171 1.93954 2.03371 2.07629 2.15103
 2.20921 2.20966 2.25655 2.35446 2.40702 2.46886 2.49488 2.51916 2.61290 2.70730
 2.94808 3.17294 3.65216 3.65595 3.84911 3.88510 6.39097 6.82746
 == 30-th k-point (0.30616,-0.71438,0.30616) occupation: 14==
 -64.99221 -64.99219 -4.62118 -4.62104 -3.03201 -3.03200 -3.03184 -3.03145 -3.03131 -3.03128
 -0.08640 0.05473 0.16313 0.22746 0.36848 0.43055 0.43475 0.54706 0.55596 0.62806
 0.70971 0.75920 0.83216 0.86526 0.89539 0.96745 1.04106 1.11720 1.15240 1.18934
 1.23923 1.26312 1.34109 1.38000 1.40524 1.42627 1.46892 1.57828 1.59633 1.63131
 1.63878 1.75437 1.80079 1.82317 1.88768 1.90035 1.99841 2.03908 2.07027 2.14062
 2.22919 2.25387 2.26845 2.35648 2.42025 2.42990 2.51575 2.54929 2.57454 2.63647
 3.01040 3.42008 3.50032 3.80051 3.98499 4.07159 6.66201 7.56587
 == 31-th k-point (0.40822,-0.61232,0.20411) occupation: 14==
 -64.99220 -64.99220 -4.62117 -4.62104 -3.03202 -3.03201 -3.03179 -3.03150 -3.03129 -3.03126
 -0.07969 0.06854 0.14359 0.19065 0.38304 0.41593 0.43441 0.54061 0.61694 0.64685
 0.76375 0.77611 0.79740 0.84192 0.91229 0.95755 1.02467 1.07220 1.10749 1.15220
 1.21091 1.21329 1.32241 1.38017 1.43489 1.45022 1.54997 1.55830 1.60412 1.64312
 1.67430 1.71554 1.78356 1.86101 1.91293 1.93840 1.98007 1.99487 2.05407 2.12345
 2.19005 2.21372 2.23363 2.35622 2.36772 2.39419 2.44004 2.49334 2.60926 2.78889
 2.93633 3.36109 3.51102 3.85107 3.91210 3.93603 6.81103 7.10051
 == 32-th k-point (0.51027,-0.51027,0.10205) occupation: 14==
 -64.99221 -64.99218 -4.62114 -4.62107 -3.03202 -3.03202 -3.03173 -3.03156 -3.03128 -3.03125
 -0.05103 0.03466 0.14120 0.18078 0.31705 0.37842 0.55530 0.55542 0.67333 0.68232
 0.74408 0.75585 0.83341 0.87184 0.88427 0.98973 1.00413 1.02979 1.06448 1.15963
 1.17429 1.18360 1.21802 1.33163 1.40954 1.48118 1.54724 1.56116 1.67243 1.70949
 1.74314 1.76663 1.81406 1.83221 1.86265 1.94124 2.02615 2.03676 2.06018 2.12994
 2.15819 2.23092 2.29863 2.34084 2.35970 2.40936 2.45703 2.52748 2.58601 2.73299
 3.08894 3.14666 3.60605 3.76893 3.89051 4.00163 5.53410 7.62025
 == 33-th k-point (0.61232,-0.40822,0.00000) occupation: 14==
 -64.99220 -64.99220 -4.62111 -4.62111 -3.03203 -3.03203 -3.03164 -3.03164 -3.03125 -3.03125
 -0.00695 -0.00695 0.14068 0.14068 0.37954 0.37954 0.52889 0.52889 0.67431 0.67431
 0.76293 0.76293 0.89609 0.89609 0.92997 0.92997 0.99480 0.99480 1.09423 1.09423
 1.16618 1.16618 1.25173 1.25173 1.46487 1.46487 1.52729 1.52729 1.58041 1.58041
 1.78472 1.78472 1.84372 1.84372 1.94884 1.94884 2.01349 2.01349 2.10963 2.10963
 2.17924 2.17924 2.29371 2.29371 2.41672 2.41672 2.50627 2.50627 2.70046 2.70046
 3.00759 3.00759 3.70936 3.70936 3.77190 3.77190 6.53929 6.53929
 == 34-th k-point (0.71438,-0.30616,-0.10205) occupation: 14==
 -64.99220 -64.99219 -4.62114 -4.62107 -3.03202 -3.03202 -3.03174 -3.03154 -3.03127 -3.03125
 -0.04332 0.02421 0.12743 0.17333 0.40223 0.40946 0.50535 0.51876 0.55983 0.69657
 0.72564 0.78018 0.88656 0.91299 0.92211 0.96230 0.97883 1.06365 1.07457 1.11317
 1.15930 1.26109 1.26849 1.33688 1.40365 1.42800 1.53042 1.53676 1.55209 1.59060
 1.69845 1.80399 1.82291 1.83688 1.92552 1.93171 1.93954 2.03371 2.07629 2.15103
 2.20921 2.20966 2.25655 2.35446 2.40702 2.46886 2.49488 2.51916 2.61290 2.70730
 2.94808 3.17294 3.65216 3.65595 3.84911 3.88510 6.39097 6.82746
 == 35-th k-point (0.81643,-0.20411,-0.20411) occupation: 14==
 -64.99221 -64.99218 -4.62117 -4.62105 -3.03201 -3.03201 -3.03182 -3.03146 -3.03130 -3.03128
 -0.07217 0.03256 0.17321 0.20965 0.35332 0.43024 0.44988 0.51631 0.62908 0.67517
 0.72356 0.72528 0.74895 0.88470 0.95548 1.01895 1.05269 1.06700 1.09000 1.15443
 1.21097 1.31435 1.33307 1.36494 1.42432 1.43461 1.48217 1.53801 1.58285 1.61767
 1.64557 1.73890 1.80344 1.82307 1.89343 1.96200 1.98483 2.01094 2.09103 2.17737
 2.22071 2.25441 2.31826 2.38228 2.38821 2.44096 2.44625 2.52496 2.55913 2.63282
 3.25878 3.42236 3.53822 3.68215 4.01778 4.02479 5.82568 7.84942
 == 36-th k-point (-0.30616,-0.10205,-0.10205) occupation: 14==
 -64.99221 -64.99218 -4.62120 -4.62101 -3.03203 -3.03201 -3.03186 -3.03144 -3.03131 -3.03130
 -0.11615 0.11276 0.20221 0.21090 0.34996 0.42785 0.44637 0.46614 0.61825 0.62190
 0.66667 0.75583 0.80008 0.85893 0.89358 0.93266 1.03326 1.06375 1.11527 1.23067
 1.28968 1.30614 1.33531 1.41932 1.44327 1.47226 1.54288 1.55361 1.60867 1.61144
 1.68536 1.70806 1.78059 1.82377 1.87315 1.96851 1.99373 1.99908 2.03156 2.05214
 2.15963 2.17482 2.22819 2.27712 2.34417 2.35616 2.46474 2.54234 2.56703 2.67607
 3.33686 3.50333 3.78272 3.93944 3.99690 4.11587 5.79453 7.81190
 == 37-th k-point (-0.20411,-0.00000,-0.20411) occupation: 14==
 -64.99221 -64.99220 -4.62122 -4.62100 -3.03199 -3.03199 -3.03190 -3.03141 -3.03133 -3.03131
 -0.12903 0.13933 0.18648 0.25485 0.38980 0.40849 0.42022 0.48665 0.51101 0.62979
 0.66434 0.70827 0.78788 0.87453 0.89532 0.98787 1.06491 1.10051 1.11283 1.13958
 1.29533 1.32566 1.38644 1.41403 1.46030 1.50719 1.53563 1.58375 1.58742 1.63079
 1.63714 1.73410 1.79911 1.80131 1.89324 1.92029 1.94392 1.98696 2.06562 2.08147
 2.08557 2.12977 2.23397 2.28797 2.31356 2.33428 2.39996 2.51855 2.57527 2.72647
 3.07957 3.46079 3.59946 3.98204 4.04777 4.05837 6.75123 7.56093
[...]
 3.25878 3.42236 3.53822 3.68215 4.01778 4.02479 5.82568 7.84942
 == 186-th k-point (-0.61232,0.20411,0.40822) occupation: 14==
 -64.99220 -64.99220 -4.62117 -4.62104 -3.03202 -3.03201 -3.03179 -3.03150 -3.03129 -3.03126
 -0.07969 0.06854 0.14359 0.19065 0.38304 0.41593 0.43441 0.54061 0.61694 0.64685
 0.76375 0.77611 0.79740 0.84192 0.91229 0.95755 1.02467 1.07220 1.10749 1.15220
 1.21091 1.21329 1.32241 1.38017 1.43489 1.45022 1.54997 1.55830 1.60412 1.64312
 1.67430 1.71554 1.78356 1.86101 1.91293 1.93840 1.98007 1.99487 2.05407 2.12345
 2.19005 2.21372 2.23363 2.35622 2.36772 2.39419 2.44004 2.49334 2.60926 2.78889
 2.93633 3.36109 3.51102 3.85107 3.91210 3.93603 6.81103 7.10051
 == 187-th k-point (-0.51027,0.30616,0.30616) occupation: 14==
 -64.99221 -64.99219 -4.62118 -4.62104 -3.03201 -3.03200 -3.03184 -3.03145 -3.03131 -3.03128
 -0.08640 0.05473 0.16313 0.22746 0.36848 0.43055 0.43475 0.54706 0.55596 0.62806
 0.70971 0.75920 0.83216 0.86526 0.89539 0.96745 1.04106 1.11720 1.15240 1.18934
 1.23923 1.26312 1.34109 1.38000 1.40524 1.42627 1.46892 1.57828 1.59633 1.63131
 1.63878 1.75437 1.80079 1.82317 1.88768 1.90035 1.99841 2.03908 2.07027 2.14062
 2.22919 2.25387 2.26845 2.35648 2.42025 2.42990 2.51575 2.54929 2.57454 2.63647
 3.01040 3.42008 3.50032 3.80051 3.98499 4.07159 6.66200 7.56587
 == 188-th k-point (-0.40822,0.40822,0.20411) occupation: 14==
 -64.99221 -64.99218 -4.62117 -4.62105 -3.03201 -3.03201 -3.03182 -3.03146 -3.03130 -3.03128
 -0.07217 0.03256 0.17321 0.20965 0.35332 0.43024 0.44988 0.51631 0.62908 0.67517
 0.72356 0.72528 0.74895 0.88470 0.95548 1.01895 1.05269 1.06700 1.09000 1.15443
 1.21097 1.31435 1.33307 1.36494 1.42432 1.43461 1.48217 1.53801 1.58285 1.61767
 1.64557 1.73890 1.80344 1.82307 1.89343 1.96200 1.98483 2.01094 2.09103 2.17737
 2.22071 2.25441 2.31826 2.38228 2.38821 2.44096 2.44625 2.52496 2.55913 2.63282
 3.25878 3.42236 3.53822 3.68214 4.01778 4.02479 5.82568 7.84942
 == 189-th k-point (-0.30616,0.51027,0.10205) occupation: 14==
 -64.99220 -64.99219 -4.62114 -4.62107 -3.03202 -3.03202 -3.03174 -3.03154 -3.03127 -3.03125
 -0.04332 0.02421 0.12743 0.17333 0.40223 0.40946 0.50535 0.51876 0.55983 0.69657
 0.72564 0.78018 0.88656 0.91299 0.92211 0.96230 0.97883 1.06365 1.07457 1.11317
 1.15930 1.26109 1.26849 1.33688 1.40365 1.42800 1.53042 1.53676 1.55209 1.59060
 1.69845 1.80399 1.82291 1.83688 1.92552 1.93171 1.93954 2.03371 2.07629 2.15103
 2.20921 2.20966 2.25655 2.35446 2.40702 2.46886 2.49488 2.51916 2.61290 2.70730
 2.94808 3.17294 3.65216 3.65595 3.84911 3.88510 6.39097 6.82746
 == 190-th k-point (-0.20411,0.61232,0.00000) occupation: 14==
 -64.99220 -64.99220 -4.62111 -4.62111 -3.03203 -3.03203 -3.03164 -3.03164 -3.03125 -3.03125
 -0.00695 -0.00695 0.14068 0.14068 0.37954 0.37954 0.52889 0.52889 0.67431 0.67431
 0.76293 0.76293 0.89609 0.89609 0.92997 0.92997 0.99480 0.99480 1.09423 1.09423
 1.16618 1.16618 1.25173 1.25173 1.46487 1.46487 1.52729 1.52729 1.58041 1.58041
 1.78472 1.78472 1.84372 1.84372 1.94884 1.94884 2.01349 2.01349 2.10963 2.10963
 2.17924 2.17924 2.29371 2.29371 2.41672 2.41672 2.50627 2.50627 2.70046 2.70046
 3.00759 3.00759 3.70936 3.70936 3.77190 3.77190 6.53929 6.53929
 == 191-th k-point (-0.10205,0.71438,-0.10205) occupation: 14==
 -64.99221 -64.99218 -4.62114 -4.62107 -3.03202 -3.03202 -3.03173 -3.03156 -3.03128 -3.03125
 -0.05103 0.03466 0.14120 0.18078 0.31705 0.37842 0.55530 0.55542 0.67333 0.68232
 0.74408 0.75585 0.83341 0.87184 0.88427 0.98973 1.00413 1.02979 1.06448 1.15963
 1.17429 1.18360 1.21802 1.33163 1.40954 1.48118 1.54724 1.56116 1.67243 1.70949
 1.74314 1.76663 1.81406 1.83221 1.86265 1.94124 2.02615 2.03676 2.06018 2.12994
 2.15819 2.23092 2.29863 2.34084 2.35970 2.40936 2.45703 2.52748 2.58601 2.73299
 3.08894 3.14666 3.60605 3.76893 3.89051 4.00162 5.53410 7.62025
 == 192-th k-point (-0.51027,0.10205,0.51027) occupation: 14==
 -64.99221 -64.99218 -4.62114 -4.62107 -3.03202 -3.03202 -3.03173 -3.03156 -3.03128 -3.03125
 -0.05103 0.03466 0.14120 0.18078 0.31705 0.37842 0.55530 0.55542 0.67333 0.68232
 0.74408 0.75585 0.83341 0.87184 0.88427 0.98973 1.00413 1.02979 1.06448 1.15963
 1.17429 1.18360 1.21802 1.33163 1.40954 1.48118 1.54724 1.56116 1.67243 1.70949
 1.74314 1.76663 1.81406 1.83221 1.86265 1.94124 2.02615 2.03676 2.06018 2.12994
 2.15819 2.23092 2.29863 2.34084 2.35970 2.40936 2.45703 2.52748 2.58601 2.73299
 3.08894 3.14667 3.60605 3.76893 3.89051 4.00163 5.53410 7.62025
 == 193-th k-point (-0.40822,0.20411,0.40822) occupation: 14==
 -64.99221 -64.99218 -4.62117 -4.62105 -3.03201 -3.03201 -3.03182 -3.03146 -3.03130 -3.03128
 -0.07217 0.03256 0.17321 0.20965 0.35332 0.43024 0.44988 0.51631 0.62908 0.67517
 0.72356 0.72528 0.74895 0.88470 0.95548 1.01895 1.05269 1.06700 1.09000 1.15443
 1.21097 1.31435 1.33307 1.36494 1.42432 1.43461 1.48217 1.53801 1.58285 1.61767
 1.64557 1.73890 1.80344 1.82307 1.89343 1.96200 1.98483 2.01094 2.09103 2.17737
 2.22071 2.25441 2.31826 2.38228 2.38821 2.44096 2.44625 2.52496 2.55913 2.63282
 3.25878 3.42236 3.53822 3.68214 4.01778 4.02479 5.82568 7.84942
 == 194-th k-point (-0.30616,0.30616,0.30616) occupation: 14==
 -64.99221 -64.99214 -4.62117 -4.62104 -3.03200 -3.03200 -3.03187 -3.03140 -3.03131 -3.03131
 -0.07795 0.01891 0.23103 0.23103 0.33490 0.40209 0.40209 0.56703 0.68067 0.68067
 0.69994 0.70426 0.70426 0.76604 1.01856 1.03414 1.10998 1.10998 1.15940 1.15940
 1.25372 1.29802 1.29802 1.36138 1.36138 1.42162 1.54740 1.54740 1.55515 1.55515
 1.63755 1.64290 1.86237 1.93263 1.96224 1.96224 2.01485 2.01485 2.01494 2.08837
 2.34501 2.34501 2.42839 2.42839 2.43692 2.43692 2.45923 2.49405 2.49405 2.50325
 3.42801 3.42801 3.47034 3.58095 3.67440 4.10147 4.10147 7.72857
 == 195-th k-point (-0.20411,0.40822,0.20411) occupation: 14==
 -64.99221 -64.99218 -4.62117 -4.62105 -3.03201 -3.03201 -3.03182 -3.03146 -3.03130 -3.03128
 -0.07217 0.03256 0.17321 0.20965 0.35332 0.43024 0.44988 0.51631 0.62908 0.67517
 0.72356 0.72528 0.74895 0.88470 0.95548 1.01895 1.05269 1.06700 1.09000 1.15443
 1.21097 1.31435 1.33307 1.36494 1.42432 1.43461 1.48217 1.53801 1.58285 1.61767
 1.64557 1.73890 1.80344 1.82307 1.89343 1.96200 1.98483 2.01094 2.09103 2.17737
 2.22071 2.25441 2.31826 2.38228 2.38821 2.44096 2.44625 2.52496 2.55913 2.63282
 3.25878 3.42236 3.53822 3.68214 4.01778 4.02479 5.82568 7.84942
 == 196-th k-point (-0.10205,0.51027,0.10205) occupation: 14==
 -64.99221 -64.99218 -4.62114 -4.62107 -3.03202 -3.03202 -3.03173 -3.03156 -3.03128 -3.03125
 -0.05103 0.03466 0.14120 0.18078 0.31705 0.37842 0.55530 0.55542 0.67333 0.68232
 0.74408 0.75585 0.83341 0.87184 0.88427 0.98973 1.00413 1.02979 1.06448 1.15963
 1.17429 1.18360 1.21802 1.33163 1.40954 1.48118 1.54724 1.56116 1.67243 1.70949
 1.74314 1.76663 1.81406 1.83221 1.86265 1.94124 2.02615 2.03676 2.06018 2.12994
 2.15819 2.23092 2.29863 2.34084 2.35970 2.40936 2.45703 2.52748 2.58601 2.73299
 3.08894 3.14667 3.60605 3.76893 3.89051 4.00163 5.53410 7.62025
 == 197-th k-point (0.00000,0.61232,0.00000) occupation: 14==
 -64.99218 -64.99218 -4.62111 -4.62111 -3.03201 -3.03201 -3.03164 -3.03164 -3.03129 -3.03129
 -0.01143 -0.01143 0.16970 0.16970 0.30408 0.30408 0.65012 0.65012 0.69703 0.69703
 0.75198 0.75198 0.75897 0.75897 0.99864 0.99864 1.04429 1.04429 1.06847 1.06847
 1.11754 1.11754 1.27259 1.27259 1.42132 1.42132 1.63541 1.63541 1.75555 1.75555
 1.76884 1.76884 1.84932 1.84932 1.89736 1.89736 2.11799 2.11799 2.15522 2.15522
 2.17074 2.17074 2.25577 2.25577 2.34474 2.34474 2.65408 2.65408 2.66327 2.66327
 2.83568 2.83568 3.83523 3.83523 4.13180 4.13180 5.45557 5.45557
 == 198-th k-point (-0.40822,0.00000,0.61232) occupation: 14==
 -64.99220 -64.99220 -4.62111 -4.62111 -3.03203 -3.03203 -3.03164 -3.03164 -3.03125 -3.03125
 -0.00695 -0.00695 0.14068 0.14068 0.37954 0.37954 0.52889 0.52889 0.67431 0.67431
 0.76293 0.76293 0.89609 0.89609 0.92997 0.92997 0.99480 0.99480 1.09423 1.09423
 1.16618 1.16618 1.25173 1.25173 1.46487 1.46487 1.52729 1.52729 1.58041 1.58041
 1.78472 1.78472 1.84372 1.84372 1.94884 1.94884 2.01349 2.01349 2.10963 2.10963
 2.17924 2.17924 2.29371 2.29371 2.41672 2.41672 2.50627 2.50627 2.70046 2.70046
 3.00759 3.00759 3.70936 3.70936 3.77190 3.77190 6.53929 6.53929
 == 199-th k-point (-0.30616,0.10205,0.51027) occupation: 14==
 -64.99220 -64.99219 -4.62114 -4.62107 -3.03202 -3.03202 -3.03174 -3.03154 -3.03127 -3.03125
 -0.04332 0.02421 0.12743 0.17333 0.40223 0.40946 0.50535 0.51876 0.55983 0.69657
 0.72564 0.78018 0.88656 0.91299 0.92211 0.96230 0.97883 1.06365 1.07457 1.11317
 1.15930 1.26109 1.26849 1.33688 1.40365 1.42800 1.53042 1.53676 1.55209 1.59060
 1.69845 1.80399 1.82291 1.83688 1.92552 1.93171 1.93954 2.03371 2.07629 2.15103
 2.20921 2.20966 2.25655 2.35446 2.40702 2.46886 2.49488 2.51916 2.61290 2.70730
 2.94808 3.17294 3.65216 3.65595 3.84911 3.88510 6.39097 6.82746
 == 200-th k-point (-0.20411,0.20411,0.40822) occupation: 14==
 -64.99221 -64.99218 -4.62117 -4.62105 -3.03201 -3.03201 -3.03182 -3.03146 -3.03130 -3.03128
 -0.07217 0.03256 0.17321 0.20965 0.35332 0.43024 0.44988 0.51631 0.62908 0.67517
 0.72356 0.72528 0.74895 0.88470 0.95548 1.01895 1.05269 1.06700 1.09000 1.15443
 1.21097 1.31435 1.33307 1.36494 1.42432 1.43461 1.48217 1.53801 1.58285 1.61767
 1.64557 1.73890 1.80344 1.82307 1.89343 1.96200 1.98483 2.01094 2.09103 2.17737
 2.22071 2.25441 2.31826 2.38228 2.38821 2.44096 2.44625 2.52496 2.55913 2.63282
 3.25878 3.42236 3.53822 3.68214 4.01778 4.02479 5.82568 7.84942
 == 201-th k-point (-0.10205,0.30616,0.30616) occupation: 14==
 -64.99221 -64.99219 -4.62118 -4.62104 -3.03201 -3.03200 -3.03184 -3.03145 -3.03131 -3.03128
 -0.08640 0.05473 0.16313 0.22746 0.36848 0.43055 0.43475 0.54706 0.55596 0.62806
 0.70971 0.75920 0.83216 0.86526 0.89539 0.96745 1.04106 1.11720 1.15240 1.18934
 1.23923 1.26312 1.34109 1.38000 1.40524 1.42627 1.46892 1.57828 1.59633 1.63131
 1.63878 1.75437 1.80079 1.82317 1.88768 1.90035 1.99841 2.03908 2.07027 2.14062
 2.22919 2.25387 2.26845 2.35648 2.42025 2.42990 2.51575 2.54929 2.57454 2.63647
 3.01040 3.42008 3.50032 3.80051 3.98499 4.07159 6.66200 7.56587
 == 202-th k-point (0.00000,0.40822,0.20411) occupation: 14==
 -64.99220 -64.99220 -4.62117 -4.62104 -3.03202 -3.03201 -3.03179 -3.03150 -3.03129 -3.03126
 -0.07969 0.06854 0.14359 0.19065 0.38304 0.41593 0.43441 0.54061 0.61694 0.64685
 0.76375 0.77611 0.79740 0.84192 0.91229 0.95755 1.02467 1.07220 1.10749 1.15220
 1.21091 1.21329 1.32241 1.38017 1.43489 1.45022 1.54997 1.55830 1.60412 1.64312
 1.67430 1.71554 1.78356 1.86101 1.91293 1.93840 1.98007 1.99487 2.05407 2.12345
 2.19005 2.21372 2.23363 2.35622 2.36772 2.39419 2.44004 2.49334 2.60926 2.78889
 2.93633 3.36109 3.51102 3.85107 3.91210 3.93603 6.81103 7.10051
 == 203-th k-point (0.10205,0.51027,0.10205) occupation: 14==
 -64.99221 -64.99218 -4.62114 -4.62107 -3.03202 -3.03202 -3.03173 -3.03156 -3.03128 -3.03125
 -0.05103 0.03466 0.14120 0.18078 0.31705 0.37842 0.55530 0.55542 0.67333 0.68232
 0.74408 0.75585 0.83341 0.87184 0.88427 0.98973 1.00413 1.02979 1.06448 1.15963
 1.17429 1.18360 1.21802 1.33163 1.40954 1.48118 1.54724 1.56116 1.67243 1.70949
 1.74314 1.76663 1.81406 1.83221 1.86265 1.94124 2.02615 2.03676 2.06018 2.12994
 2.15819 2.23092 2.29863 2.34084 2.35970 2.40936 2.45703 2.52748 2.58601 2.73299
 3.08894 3.14666 3.60605 3.76893 3.89051 4.00162 5.53410 7.62025
 == 204-th k-point (-0.30616,-0.10205,0.71438) occupation: 14==
 -64.99220 -64.99219 -4.62114 -4.62107 -3.03202 -3.03202 -3.03174 -3.03154 -3.03127 -3.03125
 -0.04332 0.02421 0.12743 0.17333 0.40223 0.40946 0.50535 0.51876 0.55983 0.69657
 0.72564 0.78018 0.88656 0.91299 0.92211 0.96230 0.97883 1.06365 1.07457 1.11317
 1.15930 1.26109 1.26849 1.33688 1.40365 1.42800 1.53042 1.53676 1.55209 1.59060
 1.69845 1.80399 1.82291 1.83688 1.92552 1.93171 1.93954 2.03371 2.07629 2.15103
 2.20921 2.20966 2.25655 2.35446 2.40702 2.46886 2.49488 2.51916 2.61290 2.70730
 2.94808 3.17294 3.65216 3.65595 3.84911 3.88510 6.39097 6.82746
 == 205-th k-point (-0.20411,0.00000,0.61232) occupation: 14==
 -64.99220 -64.99220 -4.62111 -4.62111 -3.03203 -3.03203 -3.03164 -3.03164 -3.03125 -3.03125
 -0.00695 -0.00695 0.14068 0.14068 0.37954 0.37954 0.52889 0.52889 0.67431 0.67431
 0.76293 0.76293 0.89609 0.89609 0.92997 0.92997 0.99480 0.99480 1.09423 1.09423
 1.16618 1.16618 1.25173 1.25173 1.46487 1.46487 1.52729 1.52729 1.58041 1.58041
 1.78472 1.78472 1.84372 1.84372 1.94884 1.94884 2.01349 2.01349 2.10963 2.10963
 2.17924 2.17924 2.29371 2.29371 2.41672 2.41672 2.50627 2.50627 2.70046 2.70046
 3.00759 3.00759 3.70936 3.70936 3.77190 3.77190 6.53929 6.53929
 == 206-th k-point (-0.10205,0.10205,0.51027) occupation: 14==
 -64.99221 -64.99218 -4.62114 -4.62107 -3.03202 -3.03202 -3.03173 -3.03156 -3.03128 -3.03125
 -0.05103 0.03466 0.14120 0.18078 0.31705 0.37842 0.55530 0.55542 0.67333 0.68232
 0.74408 0.75585 0.83341 0.87184 0.88427 0.98973 1.00413 1.02979 1.06448 1.15963
 1.17429 1.18360 1.21802 1.33163 1.40954 1.48118 1.54724 1.56116 1.67243 1.70949
 1.74314 1.76663 1.81406 1.83221 1.86265 1.94124 2.02615 2.03676 2.06018 2.12994
 2.15819 2.23092 2.29863 2.34084 2.35970 2.40936 2.45703 2.52748 2.58601 2.73299
 3.08894 3.14667 3.60605 3.76893 3.89051 4.00163 5.53410 7.62025
 == 207-th k-point (0.00000,0.20411,0.40822) occupation: 14==
 -64.99220 -64.99220 -4.62117 -4.62104 -3.03202 -3.03201 -3.03179 -3.03150 -3.03129 -3.03126
 -0.07969 0.06854 0.14359 0.19065 0.38304 0.41593 0.43441 0.54061 0.61694 0.64685
 0.76375 0.77611 0.79740 0.84192 0.91229 0.95755 1.02467 1.07220 1.10749 1.15220
 1.21091 1.21329 1.32241 1.38017 1.43489 1.45022 1.54997 1.55830 1.60412 1.64312
 1.67430 1.71554 1.78356 1.86101 1.91293 1.93840 1.98007 1.99487 2.05407 2.12345
 2.19005 2.21372 2.23363 2.35622 2.36772 2.39419 2.44004 2.49334 2.60926 2.78889
 2.93633 3.36109 3.51102 3.85107 3.91210 3.93603 6.81103 7.10051
 == 208-th k-point (0.10205,0.30616,0.30616) occupation: 14==
 -64.99221 -64.99219 -4.62118 -4.62104 -3.03201 -3.03200 -3.03184 -3.03145 -3.03131 -3.03128
 -0.08640 0.05473 0.16313 0.22746 0.36848 0.43055 0.43475 0.54706 0.55596 0.62806
 0.70971 0.75920 0.83216 0.86526 0.89539 0.96745 1.04106 1.11720 1.15240 1.18934
 1.23923 1.26312 1.34109 1.38000 1.40524 1.42627 1.46892 1.57828 1.59633 1.63131
 1.63878 1.75437 1.80079 1.82317 1.88768 1.90035 1.99841 2.03908 2.07027 2.14062
 2.22919 2.25387 2.26845 2.35648 2.42025 2.42990 2.51575 2.54929 2.57454 2.63647
 3.01040 3.42008 3.50032 3.80051 3.98499 4.07159 6.66201 7.56587
 == 209-th k-point (0.20411,0.40822,0.20411) occupation: 14==
 -64.99221 -64.99218 -4.62117 -4.62105 -3.03201 -3.03201 -3.03182 -3.03146 -3.03130 -3.03128
 -0.07217 0.03256 0.17321 0.20965 0.35332 0.43024 0.44988 0.51631 0.62908 0.67517
 0.72356 0.72528 0.74895 0.88470 0.95548 1.01895 1.05269 1.06700 1.09000 1.15443
 1.21097 1.31435 1.33307 1.36494 1.42432 1.43461 1.48217 1.53801 1.58285 1.61767
 1.64557 1.73890 1.80344 1.82307 1.89343 1.96200 1.98483 2.01094 2.09103 2.17737
 2.22071 2.25441 2.31826 2.38228 2.38821 2.44096 2.44625 2.52496 2.55913 2.63282
 3.25878 3.42236 3.53822 3.68215 4.01778 4.02479 5.82568 7.84942
 == 210-th k-point (-0.20411,-0.20411,0.81643) occupation: 14==
 -64.99221 -64.99218 -4.62117 -4.62105 -3.03201 -3.03201 -3.03182 -3.03146 -3.03130 -3.03128
 -0.07217 0.03256 0.17321 0.20965 0.35332 0.43024 0.44988 0.51631 0.62908 0.67517
 0.72356 0.72528 0.74895 0.88470 0.95548 1.01895 1.05269 1.06700 1.09000 1.15443
 1.21097 1.31435 1.33307 1.36494 1.42432 1.43461 1.48217 1.53801 1.58285 1.61767
 1.64557 1.73890 1.80344 1.82307 1.89343 1.96200 1.98483 2.01094 2.09103 2.17737
 2.22071 2.25441 2.31826 2.38228 2.38821 2.44096 2.44625 2.52496 2.55913 2.63282
 3.25878 3.42236 3.53822 3.68215 4.01778 4.02479 5.82568 7.84942
 == 211-th k-point (-0.10205,-0.10205,0.71438) occupation: 14==
 -64.99221 -64.99218 -4.62114 -4.62107 -3.03202 -3.03202 -3.03173 -3.03156 -3.03128 -3.03125
 -0.05103 0.03466 0.14120 0.18078 0.31705 0.37842 0.55530 0.55542 0.67333 0.68232
 0.74408 0.75585 0.83341 0.87184 0.88427 0.98973 1.00413 1.02979 1.06448 1.15963
 1.17429 1.18360 1.21802 1.33163 1.40954 1.48118 1.54724 1.56116 1.67243 1.70949
 1.74314 1.76663 1.81406 1.83221 1.86265 1.94124 2.02615 2.03676 2.06018 2.12994
 2.15819 2.23092 2.29863 2.34084 2.35970 2.40936 2.45703 2.52748 2.58601 2.73299
 3.08894 3.14666 3.60605 3.76893 3.89051 4.00162 5.53410 7.62025
 == 212-th k-point (0.00000,0.00000,0.61232) occupation: 14==
 -64.99218 -64.99218 -4.62111 -4.62111 -3.03201 -3.03201 -3.03164 -3.03164 -3.03129 -3.03129
 -0.01143 -0.01143 0.16970 0.16970 0.30408 0.30408 0.65012 0.65012 0.69703 0.69703
 0.75198 0.75198 0.75897 0.75897 0.99864 0.99864 1.04429 1.04429 1.06847 1.06847
 1.11754 1.11754 1.27259 1.27259 1.42132 1.42132 1.63541 1.63541 1.75555 1.75555
 1.76884 1.76884 1.84932 1.84932 1.89736 1.89736 2.11799 2.11799 2.15522 2.15522
 2.17074 2.17074 2.25577 2.25577 2.34474 2.34474 2.65408 2.65408 2.66327 2.66327
 2.83568 2.83568 3.83523 3.83523 4.13180 4.13180 5.45557 5.45557
 == 213-th k-point (0.10205,0.10205,0.51027) occupation: 14==
 -64.99221 -64.99218 -4.62114 -4.62107 -3.03202 -3.03202 -3.03173 -3.03156 -3.03128 -3.03125
 -0.05103 0.03466 0.14120 0.18078 0.31705 0.37842 0.55530 0.55542 0.67333 0.68232
 0.74408 0.75585 0.83341 0.87184 0.88427 0.98973 1.00413 1.02979 1.06448 1.15963
 1.17429 1.18360 1.21802 1.33163 1.40954 1.48118 1.54724 1.56116 1.67243 1.70949
 1.74314 1.76663 1.81406 1.83221 1.86265 1.94124 2.02615 2.03676 2.06018 2.12994
 2.15819 2.23092 2.29863 2.34084 2.35970 2.40936 2.45703 2.52748 2.58601 2.73299
 3.08894 3.14666 3.60605 3.76893 3.89051 4.00162 5.53410 7.62025
 == 214-th k-point (0.20411,0.20411,0.40822) occupation: 14==
 -64.99221 -64.99218 -4.62117 -4.62105 -3.03201 -3.03201 -3.03182 -3.03146 -3.03130 -3.03128
 -0.07217 0.03256 0.17321 0.20965 0.35332 0.43024 0.44988 0.51631 0.62908 0.67517
 0.72356 0.72528 0.74895 0.88470 0.95548 1.01895 1.05269 1.06700 1.09000 1.15443
 1.21097 1.31435 1.33307 1.36494 1.42432 1.43461 1.48217 1.53801 1.58285 1.61767
 1.64557 1.73890 1.80344 1.82307 1.89343 1.96200 1.98483 2.01094 2.09103 2.17737
 2.22071 2.25441 2.31826 2.38228 2.38821 2.44096 2.44625 2.52496 2.55913 2.63282
 3.25878 3.42236 3.53822 3.68215 4.01778 4.02479 5.82568 7.84942
 == 215-th k-point (0.30616,0.30616,0.30616) occupation: 14==
 -64.99221 -64.99214 -4.62117 -4.62104 -3.03200 -3.03200 -3.03187 -3.03140 -3.03131 -3.03131
 -0.07795 0.01891 0.23103 0.23103 0.33490 0.40209 0.40209 0.56703 0.68067 0.68067
 0.69994 0.70426 0.70426 0.76604 1.01856 1.03414 1.10998 1.10998 1.15940 1.15940
 1.25372 1.29802 1.29802 1.36138 1.36138 1.42162 1.54740 1.54740 1.55515 1.55516
 1.63755 1.64290 1.86237 1.93263 1.96224 1.96224 2.01485 2.01485 2.01494 2.08837
 2.34501 2.34501 2.42839 2.42839 2.43692 2.43692 2.45923 2.49405 2.49405 2.50325
 3.42801 3.42801 3.47034 3.58095 3.67440 4.10147 4.10147 7.72857
 ---------------------------------------------------------------------------
 VBM is at 86-th k-point with 7.51919 eV
 CBM is at 197-th k-point with 8.27446 eV
 Band gap is 0.75526 eV


           Ground-State Mulliken Net Atomic Charges

      Atom                 Charge (a.u.)          Spin (a.u.)
   --------------------------------------------------------
      1 Si               (0.000001,-0.000000)    (0.000000,0.000000)
      2 Si               (-0.000001,0.000000)    (0.000000,0.000000)
   --------------------------------------------------------
  Sum of atomic charges =      (0.000000,-0.000000)
  Sum of spin   charges =       (0.000000,0.000000)



 Total job time:  77.78 s.
 Tue Sep  9 09:20:35 2025


        *************************************************************
        *                                                           *
        *  Thank you very much for using QCPBC. Have a nice day.    *
        *                                                           *
        *************************************************************

Running job 1 of 1
