                  Welcome to Q-Chem
           with Periodic Boundary Condition
     A Quantum Leap Into The Future Of Chemistry

 Adam Rettig, Xintian Feng, Meng-Fu Chen, Hieu Dinh, Stephen Quiton,
 Anton Ni, Paul J. Robinson, Jinghong Zhang, Joonho Lee

Contributors to earlier versions of Q-Chem not listed above:
 Evgeny Epifanovsky, Leo Cunha, Jerome F. Gonthier, Kuan-Yu Liu
 Input file: /n/netscratch/joonholee_lab/Lab/hieudinh//si_2_ccpvtz_omega_0.6_999.scratch20250909094715/si_2_ccpvtz_omega_0.6_999.0
 Scratch folder: /n/netscratch/joonholee_lab/Lab/hieudinh//si_2_ccpvtz_omega_0.6_999.scratch20250909094715
 Auxillary files located at: /n/holylabs/LABS/joonholee_lab/Lab/qchem_base/qcaux
 Q-Chem begins on Tue Sep  9 09:47:16 2025

 -------------------------------------------------------------
 User input:
 -------------------------------------------------------------
 $lattice
 3
 0.000000 5.130600 5.130600
 5.130600 0.000000 5.130600
 5.130600 5.130600 0.000000
 $end
 
 $unitcell
 ABSOLUTE
 0 1
 Si 0.000000 0.000000 0.000000
 Si 2.565300 2.565300 2.565300
 $end
 
 $rem
 jobtype = sp
 method = pbe
 scf_convergence = 5
 scf_guess = autosad
 scf_algorithm = diis_gdm
 basis = cc-pvtz
 aux_basis = cc-pvtz-jk
 input_bohr = true
 symmetry = false
 rsdf_print_level 1
 is_basis_uctr true
 
 mp_mesh = [9,9,9]
 
 integral_direct true
 bvk_cgto true
 
 thresh 14
 mem_total 1000000
 threads 32
 
 MAX_SCF_CYCLES 500
 madelung = false
 omega 0.6
 do_rij_bigmem true
 automate_g true
 print_level 10
 grid_type_xc 1
 
 thresh_1e2c_sp 1e-14
 thresh_2e3c_bra_ket_sep 1e-10
 thresh_g 1e-12
 $end
 
 -------------------------------------------------------------
 Running PBC job

 Requested Exchange Correlation Functionals: 
  DFT Exchange:  1.00000 pbe_x
  DFT Correlation:  1.00000 pbe_c
 using 32 threads for computing.
 ---------------------------------------------------------------
      Coordinates of Atoms in Central Unit Cell (Angstroms)
    I     Atom         X            Y            Z
 ---------------------------------------------------------------
    1      Si      0.000000     0.000000     0.000000
    2      Si      1.357498     1.357498     1.357498
 ---------------------------------------------------------------
 --------------------------------------------------
              Lattice Vectors (Angstroms)
              X            Y            Z
 --------------------------------------------------
   X       0.000000     2.714997     2.714997
   Y       2.714997     0.000000     2.714997
   Z       2.714997     2.714997     0.000000
 --------------------------------------------------
 --------------------------------------------------
       Reciprocal Lattice Vectors (Angstroms^-1)
              X            Y            Z
 --------------------------------------------------
   X      -1.157126     1.157126     1.157126
   Y       1.157126    -1.157126     1.157126
   Z       1.157126     1.157126    -1.157126
 --------------------------------------------------

 Single point calculation requested

 Hamiltonian contributions:
 List of terms in Hamiltonian: kpts_nn, kpts_kinetic, kpts_vnuc_df, kpts_xc, kpts_rij_bigmem

 K-Points calculation started.

 Basis set information about using solid harmonic (1) or Cartesian (0):
  si : D(1) D(1) F(1) 

 Basis set information about using solid harmonic (1) or Cartesian (0):
  si : D(1) D(1) D(1) D(1) D(1) D(1) D(1) D(1) D(1) F(1) F(1) F(1) G(1) 

 There are 68 basis functions in the central unit cell.
 Print atomic basis of atoms in the central unit cell:
 -------------------------------------------------------------
2 104 104 24

  0.00000000000000e+00  0.00000000000000e+00  0.00000000000000e+00
  2.56530000000000e+00  2.56530000000000e+00  2.56530000000000e+00

  2.54900000000000e+05
  3.81900000000000e+04
  8.69000000000000e+03
  2.46200000000000e+03
  8.04800000000000e+02
  2.91300000000000e+02
  1.13600000000000e+02
  4.67500000000000e+01
  1.98200000000000e+01
  7.70800000000000e+00
  3.34000000000000e+00
  2.54900000000000e+05
  3.81900000000000e+04
  8.69000000000000e+03
  8.04800000000000e+02
  2.91300000000000e+02
  1.13600000000000e+02
  4.67500000000000e+01
  1.98200000000000e+01
  7.70800000000000e+00
  3.34000000000000e+00
  1.40200000000000e+00
  2.54900000000000e+05
  3.81900000000000e+04
  8.69000000000000e+03
  2.91300000000000e+02
  1.13600000000000e+02
  4.67500000000000e+01
  1.98200000000000e+01
  7.70800000000000e+00
  3.34000000000000e+00
  1.40200000000000e+00
  2.07000000000000e-01
  4.38700000000000e-01
  7.94400000000000e-02
  4.81500000000000e+02
  1.13900000000000e+02
  3.62300000000000e+01
  1.33400000000000e+01
  5.25200000000000e+00
  2.12000000000000e+00
  1.13900000000000e+02
  3.62300000000000e+01
  1.33400000000000e+01
  5.25200000000000e+00
  2.12000000000000e+00
  2.52800000000000e-01
  8.56100000000000e-01
  7.88900000000000e-02
  4.81000000000000e-01
  1.59000000000000e-01
  3.36000000000000e-01
  2.54900000000000e+05
  3.81900000000000e+04
  8.69000000000000e+03
  2.46200000000000e+03
  8.04800000000000e+02
  2.91300000000000e+02
  1.13600000000000e+02
  4.67500000000000e+01
  1.98200000000000e+01
  7.70800000000000e+00
  3.34000000000000e+00
  2.54900000000000e+05
  3.81900000000000e+04
  8.69000000000000e+03
  8.04800000000000e+02
  2.91300000000000e+02
  1.13600000000000e+02
  4.67500000000000e+01
  1.98200000000000e+01
  7.70800000000000e+00
  3.34000000000000e+00
  1.40200000000000e+00
  2.54900000000000e+05
  3.81900000000000e+04
  8.69000000000000e+03
  2.91300000000000e+02
  1.13600000000000e+02
  4.67500000000000e+01
  1.98200000000000e+01
  7.70800000000000e+00
  3.34000000000000e+00
  1.40200000000000e+00
  2.07000000000000e-01
  4.38700000000000e-01
  7.94400000000000e-02
  4.81500000000000e+02
  1.13900000000000e+02
  3.62300000000000e+01
  1.33400000000000e+01
  5.25200000000000e+00
  2.12000000000000e+00
  1.13900000000000e+02
  3.62300000000000e+01
  1.33400000000000e+01
  5.25200000000000e+00
  2.12000000000000e+00
  2.52800000000000e-01
  8.56100000000000e-01
  7.88900000000000e-02
  4.81000000000000e-01
  1.59000000000000e-01
  3.36000000000000e-01

  5.06121931014315e-01
  9.46667895564849e-01
  1.63484840115776e+00
  2.64073594005923e+00
  3.97699155153283e+00
  5.40905960736848e+00
  6.15868961670172e+00
  4.99170532032548e+00
  2.02857976424901e+00
  1.82839763527352e-01
 -1.25640690342342e-02
  1.10808750449959e-03
  1.94415577975663e-03
  2.70023730632789e-03
 -1.69098200112149e-02
 -8.66890848691569e-02
 -2.76125946359713e-01
 -6.25588788447604e-01
 -6.61701688370681e-01
  3.11114524237060e-01
  9.56658906468163e-01
  4.36891217824705e-01
  1.05873342256663e-04
  1.52975802748887e-04
  4.28394863673135e-04
 -4.94070443505333e-03
 -1.17298035021286e-02
 -2.95023896611804e-02
 -1.71455066569284e-02
  3.00007138114875e-03
 -6.19326651465540e-02
 -2.59989143457351e-01
  2.47187614608056e-01
  3.84180942836044e-01
  1.06644759418552e-01
  6.70509611941243e+00
  8.84487660481054e+00
  9.82415782069442e+00
  8.40902910540583e+00
  4.80448757555754e+00
  1.55989499299286e+00
 -1.15889775037608e-01
 -5.13312293701512e-02
 -2.64771097977823e-01
 -6.52512718105956e-02
 -1.94608613796415e-01
  2.59380435893970e-01
  1.17380433533106e+00
  5.95960578383022e-02
  4.57260134599596e-01
  6.58952976069849e-02
  1.26537084505476e-01
  5.06121931014315e-01
  9.46667895564849e-01
  1.63484840115776e+00
  2.64073594005923e+00
  3.97699155153283e+00
  5.40905960736848e+00
  6.15868961670172e+00
  4.99170532032548e+00
  2.02857976424901e+00
  1.82839763527352e-01
 -1.25640690342342e-02
  1.10808750449959e-03
  1.94415577975663e-03
  2.70023730632789e-03
 -1.69098200112149e-02
 -8.66890848691569e-02
 -2.76125946359713e-01
 -6.25588788447604e-01
 -6.61701688370681e-01
  3.11114524237060e-01
  9.56658906468163e-01
  4.36891217824705e-01
  1.05873342256663e-04
  1.52975802748887e-04
  4.28394863673135e-04
 -4.94070443505333e-03
 -1.17298035021286e-02
 -2.95023896611804e-02
 -1.71455066569284e-02
  3.00007138114875e-03
 -6.19326651465540e-02
 -2.59989143457351e-01
  2.47187614608056e-01
  3.84180942836044e-01
  1.06644759418552e-01
  6.70509611941243e+00
  8.84487660481054e+00
  9.82415782069442e+00
  8.40902910540583e+00
  4.80448757555754e+00
  1.55989499299286e+00
 -1.15889775037608e-01
 -5.13312293701512e-02
 -2.64771097977823e-01
 -6.52512718105956e-02
 -1.94608613796415e-01
  2.59380435893970e-01
  1.17380433533106e+00
  5.95960578383022e-02
  4.57260134599596e-01
  6.58952976069849e-02
  1.26537084505476e-01

0 0 0 0 1 1 1
0 0 
11 0

0 1 1 11 1 1 1
11 0 
11 0

0 2 2 22 1 1 1
22 0 
11 0

0 3 3 33 1 1 1
33 0 
1 0

0 4 4 34 1 1 1
34 0 
1 0

0 5 5 35 1 3 3
35 1 
6 0

0 8 8 41 1 3 3
41 1 
6 0

0 11 11 47 1 3 3
47 1 
1 0

0 14 14 48 1 3 3
48 1 
1 0

0 17 17 49 1 5 6
49 2 
1 1

0 22 22 50 1 5 6
50 2 
1 1

0 27 27 51 1 7 10
51 3 
1 1

1 34 34 52 1 1 1
52 0 
11 0

1 35 35 63 1 1 1
63 0 
11 0

1 36 36 74 1 1 1
74 0 
11 0

1 37 37 85 1 1 1
85 0 
1 0

1 38 38 86 1 1 1
86 0 
1 0

1 39 39 87 1 3 3
87 1 
6 0

1 42 42 93 1 3 3
93 1 
6 0

1 45 45 99 1 3 3
99 1 
1 0

1 48 48 100 1 3 3
100 1 
1 0

1 51 51 101 1 5 6
101 2 
1 1

1 56 56 102 1 5 6
102 2 
1 1

1 61 61 103 1 7 10
103 3 
1 1

 -------------------------------------------------------------
 Allocate 263208 B from available memory: 1048576000000 B
 There are 1331 image cells after screening.
 There are 1353 image cells for CGTO evaluation after screening.
 Real-Space grid for FFT initialized based on kinetic energy cutoff (eV) = 500.0
 Real-Space grid for FFT: (10,10,10)
 There are 9261 real-space grid points.
 There are 64 batches of real-space grid points. 
 Size of each grid batch is around 128
 Grid for AFT initialized based on kinetic energy cutoff (eV) = 500.0
 Real-Space grid for AFT: (10,10,10)
 There are 9261 real-space grid points.

 There are 5456 atom-centered grid points.

 Spacegroup symmetry group: Fd-3m
 Reducing spacegroup symmetry to symmorphic group: F -4 3 m
 Monkhorst-Pack mesh is [9,9,9]
 There are 729 k points.
kpoints in Bohr
-0.2721442719 -0.2721442719 -0.2721442719
-0.2041082040 -0.2041082040 -0.3401803399
-0.1360721360 -0.1360721360 -0.4082164079
-0.0680360680 -0.0680360680 -0.4762524759
-0.0000000000 -0.0000000000 -0.5442885439
0.0680360680 0.0680360680 -0.6123246119
0.1360721360 0.1360721360 -0.6803606798
0.2041082040 0.2041082040 -0.7483967478
0.2721442719 0.2721442719 -0.8164328158
-0.2041082040 -0.3401803399 -0.2041082040
-0.1360721360 -0.2721442719 -0.2721442719
-0.0680360680 -0.2041082040 -0.3401803399
-0.0000000000 -0.1360721360 -0.4082164079
0.0680360680 -0.0680360680 -0.4762524759
0.1360721360 -0.0000000000 -0.5442885439
0.2041082040 0.0680360680 -0.6123246119
0.2721442719 0.1360721360 -0.6803606798
0.3401803399 0.2041082040 -0.7483967478
-0.1360721360 -0.4082164079 -0.1360721360
-0.0680360680 -0.3401803399 -0.2041082040
-0.0000000000 -0.2721442719 -0.2721442719
0.0680360680 -0.2041082040 -0.3401803399
0.1360721360 -0.1360721360 -0.4082164079
0.2041082040 -0.0680360680 -0.4762524759
0.2721442719 -0.0000000000 -0.5442885439
0.3401803399 0.0680360680 -0.6123246119
0.4082164079 0.1360721360 -0.6803606798
-0.0680360680 -0.4762524759 -0.0680360680
-0.0000000000 -0.4082164079 -0.1360721360
0.0680360680 -0.3401803399 -0.2041082040
0.1360721360 -0.2721442719 -0.2721442719
0.2041082040 -0.2041082040 -0.3401803399
0.2721442719 -0.1360721360 -0.4082164079
0.3401803399 -0.0680360680 -0.4762524759
0.4082164079 0.0000000000 -0.5442885439
0.4762524759 0.0680360680 -0.6123246119
-0.0000000000 -0.5442885439 0.0000000000
0.0680360680 -0.4762524759 -0.0680360680
0.1360721360 -0.4082164079 -0.1360721360
0.2041082040 -0.3401803399 -0.2041082040
0.2721442719 -0.2721442719 -0.2721442719
0.3401803399 -0.2041082040 -0.3401803399
0.4082164079 -0.1360721360 -0.4082164079
0.4762524759 -0.0680360680 -0.4762524759
0.5442885439 0.0000000000 -0.5442885439
0.0680360680 -0.6123246119 0.0680360680
0.1360721360 -0.5442885439 -0.0000000000
0.2041082040 -0.4762524759 -0.0680360680
0.2721442719 -0.4082164079 -0.1360721360
0.3401803399 -0.3401803399 -0.2041082040
0.4082164079 -0.2721442719 -0.2721442719
0.4762524759 -0.2041082040 -0.3401803399
0.5442885439 -0.1360721360 -0.4082164079
0.6123246119 -0.0680360680 -0.4762524759
0.1360721360 -0.6803606798 0.1360721360
0.2041082040 -0.6123246119 0.0680360680
0.2721442719 -0.5442885439 0.0000000000
0.3401803399 -0.4762524759 -0.0680360680
0.4082164079 -0.4082164079 -0.1360721360
0.4762524759 -0.3401803399 -0.2041082040
0.5442885439 -0.2721442719 -0.2721442719
0.6123246119 -0.2041082040 -0.3401803399
0.6803606798 -0.1360721360 -0.4082164079
0.2041082040 -0.7483967478 0.2041082040
0.2721442719 -0.6803606798 0.1360721360
0.3401803399 -0.6123246119 0.0680360680
0.4082164079 -0.5442885439 0.0000000000
0.4762524759 -0.4762524759 -0.0680360680
0.5442885439 -0.4082164079 -0.1360721360
0.6123246119 -0.3401803399 -0.2041082040
0.6803606798 -0.2721442719 -0.2721442719
0.7483967478 -0.2041082040 -0.3401803399
0.2721442719 -0.8164328158 0.2721442719
0.3401803399 -0.7483967478 0.2041082040
0.4082164079 -0.6803606798 0.1360721360
0.4762524759 -0.6123246119 0.0680360680
0.5442885439 -0.5442885439 0.0000000000
0.6123246119 -0.4762524759 -0.0680360680
0.6803606798 -0.4082164079 -0.1360721360
0.7483967478 -0.3401803399 -0.2041082040
0.8164328158 -0.2721442719 -0.2721442719
-0.3401803399 -0.2041082040 -0.2041082040
-0.2721442719 -0.1360721360 -0.2721442719
-0.2041082040 -0.0680360680 -0.3401803399
-0.1360721360 -0.0000000000 -0.4082164079
-0.0680360680 0.0680360680 -0.4762524759
-0.0000000000 0.1360721360 -0.5442885439
0.0680360680 0.2041082040 -0.6123246119
0.1360721360 0.2721442719 -0.6803606798
0.2041082040 0.3401803399 -0.7483967478
-0.2721442719 -0.2721442719 -0.1360721360
-0.2041082040 -0.2041082040 -0.2041082040
-0.1360721360 -0.1360721360 -0.2721442719
-0.0680360680 -0.0680360680 -0.3401803399
-0.0000000000 -0.0000000000 -0.4082164079
0.0680360680 0.0680360680 -0.4762524759
0.1360721360 0.1360721360 -0.5442885439
0.2041082040 0.2041082040 -0.6123246119
0.2721442719 0.2721442719 -0.6803606798
-0.2041082040 -0.3401803399 -0.0680360680
-0.1360721360 -0.2721442719 -0.1360721360
-0.0680360680 -0.2041082040 -0.2041082040
-0.0000000000 -0.1360721360 -0.2721442719
0.0680360680 -0.0680360680 -0.3401803399
0.1360721360 -0.0000000000 -0.4082164079
0.2041082040 0.0680360680 -0.4762524759
0.2721442719 0.1360721360 -0.5442885439
0.3401803399 0.2041082040 -0.6123246119
-0.1360721360 -0.4082164079 0.0000000000
-0.0680360680 -0.3401803399 -0.0680360680
-0.0000000000 -0.2721442719 -0.1360721360
0.0680360680 -0.2041082040 -0.2041082040
0.1360721360 -0.1360721360 -0.2721442719
0.2041082040 -0.0680360680 -0.3401803399
0.2721442719 -0.0000000000 -0.4082164079
0.3401803399 0.0680360680 -0.4762524759
0.4082164079 0.1360721360 -0.5442885439
-0.0680360680 -0.4762524759 0.0680360680
-0.0000000000 -0.4082164079 0.0000000000
0.0680360680 -0.3401803399 -0.0680360680
0.1360721360 -0.2721442719 -0.1360721360
0.2041082040 -0.2041082040 -0.2041082040
0.2721442719 -0.1360721360 -0.2721442719
0.3401803399 -0.0680360680 -0.3401803399
0.4082164079 0.0000000000 -0.4082164079
0.4762524759 0.0680360680 -0.4762524759
-0.0000000000 -0.5442885439 0.1360721360
0.0680360680 -0.4762524759 0.0680360680
0.1360721360 -0.4082164079 0.0000000000
0.2041082040 -0.3401803399 -0.0680360680
0.2721442719 -0.2721442719 -0.1360721360
0.3401803399 -0.2041082040 -0.2041082040
0.4082164079 -0.1360721360 -0.2721442719
0.4762524759 -0.0680360680 -0.3401803399
0.5442885439 0.0000000000 -0.4082164079
0.0680360680 -0.6123246119 0.2041082040
0.1360721360 -0.5442885439 0.1360721360
0.2041082040 -0.4762524759 0.0680360680
0.2721442719 -0.4082164079 0.0000000000
0.3401803399 -0.3401803399 -0.0680360680
0.4082164079 -0.2721442719 -0.1360721360
0.4762524759 -0.2041082040 -0.2041082040
0.5442885439 -0.1360721360 -0.2721442719
0.6123246119 -0.0680360680 -0.3401803399
0.1360721360 -0.6803606798 0.2721442719
0.2041082040 -0.6123246119 0.2041082040
0.2721442719 -0.5442885439 0.1360721360
0.3401803399 -0.4762524759 0.0680360680
0.4082164079 -0.4082164079 0.0000000000
0.4762524759 -0.3401803399 -0.0680360680
0.5442885439 -0.2721442719 -0.1360721360
0.6123246119 -0.2041082040 -0.2041082040
0.6803606798 -0.1360721360 -0.2721442719
0.2041082040 -0.7483967478 0.3401803399
0.2721442719 -0.6803606798 0.2721442719
0.3401803399 -0.6123246119 0.2041082040
0.4082164079 -0.5442885439 0.1360721360
0.4762524759 -0.4762524759 0.0680360680
0.5442885439 -0.4082164079 0.0000000000
0.6123246119 -0.3401803399 -0.0680360680
0.6803606798 -0.2721442719 -0.1360721360
0.7483967478 -0.2041082040 -0.2041082040
-0.4082164079 -0.1360721360 -0.1360721360
-0.3401803399 -0.0680360680 -0.2041082040
-0.2721442719 -0.0000000000 -0.2721442719
-0.2041082040 0.0680360680 -0.3401803399
-0.1360721360 0.1360721360 -0.4082164079
-0.0680360680 0.2041082040 -0.4762524759
-0.0000000000 0.2721442719 -0.5442885439
0.0680360680 0.3401803399 -0.6123246119
0.1360721360 0.4082164079 -0.6803606798
-0.3401803399 -0.2041082040 -0.0680360680
-0.2721442719 -0.1360721360 -0.1360721360
-0.2041082040 -0.0680360680 -0.2041082040
-0.1360721360 -0.0000000000 -0.2721442719
-0.0680360680 0.0680360680 -0.3401803399
-0.0000000000 0.1360721360 -0.4082164079
0.0680360680 0.2041082040 -0.4762524759
0.1360721360 0.2721442719 -0.5442885439
0.2041082040 0.3401803399 -0.6123246119
-0.2721442719 -0.2721442719 0.0000000000
-0.2041082040 -0.2041082040 -0.0680360680
-0.1360721360 -0.1360721360 -0.1360721360
-0.0680360680 -0.0680360680 -0.2041082040
-0.0000000000 -0.0000000000 -0.2721442719
0.0680360680 0.0680360680 -0.3401803399
0.1360721360 0.1360721360 -0.4082164079
0.2041082040 0.2041082040 -0.4762524759
0.2721442719 0.2721442719 -0.5442885439
-0.2041082040 -0.3401803399 0.0680360680
-0.1360721360 -0.2721442719 -0.0000000000
-0.0680360680 -0.2041082040 -0.0680360680
-0.0000000000 -0.1360721360 -0.1360721360
0.0680360680 -0.0680360680 -0.2041082040
0.1360721360 -0.0000000000 -0.2721442719
0.2041082040 0.0680360680 -0.3401803399
0.2721442719 0.1360721360 -0.4082164079
0.3401803399 0.2041082040 -0.4762524759
-0.1360721360 -0.4082164079 0.1360721360
-0.0680360680 -0.3401803399 0.0680360680
-0.0000000000 -0.2721442719 0.0000000000
0.0680360680 -0.2041082040 -0.0680360680
0.1360721360 -0.1360721360 -0.1360721360
0.2041082040 -0.0680360680 -0.2041082040
0.2721442719 0.0000000000 -0.2721442719
0.3401803399 0.0680360680 -0.3401803399
0.4082164079 0.1360721360 -0.4082164079
-0.0680360680 -0.4762524759 0.2041082040
-0.0000000000 -0.4082164079 0.1360721360
0.0680360680 -0.3401803399 0.0680360680
0.1360721360 -0.2721442719 0.0000000000
0.2041082040 -0.2041082040 -0.0680360680
0.2721442719 -0.1360721360 -0.1360721360
0.3401803399 -0.0680360680 -0.2041082040
0.4082164079 0.0000000000 -0.2721442719
0.4762524759 0.0680360680 -0.3401803399
-0.0000000000 -0.5442885439 0.2721442719
0.0680360680 -0.4762524759 0.2041082040
0.1360721360 -0.4082164079 0.1360721360
0.2041082040 -0.3401803399 0.0680360680
0.2721442719 -0.2721442719 0.0000000000
0.3401803399 -0.2041082040 -0.0680360680
0.4082164079 -0.1360721360 -0.1360721360
0.4762524759 -0.0680360680 -0.2041082040
0.5442885439 0.0000000000 -0.2721442719
0.0680360680 -0.6123246119 0.3401803399
0.1360721360 -0.5442885439 0.2721442719
0.2041082040 -0.4762524759 0.2041082040
0.2721442719 -0.4082164079 0.1360721360
0.3401803399 -0.3401803399 0.0680360680
0.4082164079 -0.2721442719 0.0000000000
0.4762524759 -0.2041082040 -0.0680360680
0.5442885439 -0.1360721360 -0.1360721360
0.6123246119 -0.0680360680 -0.2041082040
0.1360721360 -0.6803606798 0.4082164079
0.2041082040 -0.6123246119 0.3401803399
0.2721442719 -0.5442885439 0.2721442719
0.3401803399 -0.4762524759 0.2041082040
0.4082164079 -0.4082164079 0.1360721360
0.4762524759 -0.3401803399 0.0680360680
0.5442885439 -0.2721442719 0.0000000000
0.6123246119 -0.2041082040 -0.0680360680
0.6803606798 -0.1360721360 -0.1360721360
-0.4762524759 -0.0680360680 -0.0680360680
-0.4082164079 -0.0000000000 -0.1360721360
-0.3401803399 0.0680360680 -0.2041082040
-0.2721442719 0.1360721360 -0.2721442719
-0.2041082040 0.2041082040 -0.3401803399
-0.1360721360 0.2721442719 -0.4082164079
-0.0680360680 0.3401803399 -0.4762524759
0.0000000000 0.4082164079 -0.5442885439
0.0680360680 0.4762524759 -0.6123246119
-0.4082164079 -0.1360721360 0.0000000000
-0.3401803399 -0.0680360680 -0.0680360680
-0.2721442719 -0.0000000000 -0.1360721360
-0.2041082040 0.0680360680 -0.2041082040
-0.1360721360 0.1360721360 -0.2721442719
-0.0680360680 0.2041082040 -0.3401803399
0.0000000000 0.2721442719 -0.4082164079
0.0680360680 0.3401803399 -0.4762524759
0.1360721360 0.4082164079 -0.5442885439
-0.3401803399 -0.2041082040 0.0680360680
-0.2721442719 -0.1360721360 -0.0000000000
-0.2041082040 -0.0680360680 -0.0680360680
-0.1360721360 -0.0000000000 -0.1360721360
-0.0680360680 0.0680360680 -0.2041082040
-0.0000000000 0.1360721360 -0.2721442719
0.0680360680 0.2041082040 -0.3401803399
0.1360721360 0.2721442719 -0.4082164079
0.2041082040 0.3401803399 -0.4762524759
-0.2721442719 -0.2721442719 0.1360721360
-0.2041082040 -0.2041082040 0.0680360680
-0.1360721360 -0.1360721360 0.0000000000
-0.0680360680 -0.0680360680 -0.0680360680
-0.0000000000 -0.0000000000 -0.1360721360
0.0680360680 0.0680360680 -0.2041082040
0.1360721360 0.1360721360 -0.2721442719
0.2041082040 0.2041082040 -0.3401803399
0.2721442719 0.2721442719 -0.4082164079
-0.2041082040 -0.3401803399 0.2041082040
-0.1360721360 -0.2721442719 0.1360721360
-0.0680360680 -0.2041082040 0.0680360680
-0.0000000000 -0.1360721360 0.0000000000
0.0680360680 -0.0680360680 -0.0680360680
0.1360721360 0.0000000000 -0.1360721360
0.2041082040 0.0680360680 -0.2041082040
0.2721442719 0.1360721360 -0.2721442719
0.3401803399 0.2041082040 -0.3401803399
-0.1360721360 -0.4082164079 0.2721442719
-0.0680360680 -0.3401803399 0.2041082040
-0.0000000000 -0.2721442719 0.1360721360
0.0680360680 -0.2041082040 0.0680360680
0.1360721360 -0.1360721360 0.0000000000
0.2041082040 -0.0680360680 -0.0680360680
0.2721442719 0.0000000000 -0.1360721360
0.3401803399 0.0680360680 -0.2041082040
0.4082164079 0.1360721360 -0.2721442719
-0.0680360680 -0.4762524759 0.3401803399
-0.0000000000 -0.4082164079 0.2721442719
0.0680360680 -0.3401803399 0.2041082040
0.1360721360 -0.2721442719 0.1360721360
0.2041082040 -0.2041082040 0.0680360680
0.2721442719 -0.1360721360 0.0000000000
0.3401803399 -0.0680360680 -0.0680360680
0.4082164079 0.0000000000 -0.1360721360
0.4762524759 0.0680360680 -0.2041082040
-0.0000000000 -0.5442885439 0.4082164079
0.0680360680 -0.4762524759 0.3401803399
0.1360721360 -0.4082164079 0.2721442719
0.2041082040 -0.3401803399 0.2041082040
0.2721442719 -0.2721442719 0.1360721360
0.3401803399 -0.2041082040 0.0680360680
0.4082164079 -0.1360721360 0.0000000000
0.4762524759 -0.0680360680 -0.0680360680
0.5442885439 0.0000000000 -0.1360721360
0.0680360680 -0.6123246119 0.4762524759
0.1360721360 -0.5442885439 0.4082164079
0.2041082040 -0.4762524759 0.3401803399
0.2721442719 -0.4082164079 0.2721442719
0.3401803399 -0.3401803399 0.2041082040
0.4082164079 -0.2721442719 0.1360721360
0.4762524759 -0.2041082040 0.0680360680
0.5442885439 -0.1360721360 0.0000000000
0.6123246119 -0.0680360680 -0.0680360680
-0.5442885439 -0.0000000000 0.0000000000
-0.4762524759 0.0680360680 -0.0680360680
-0.4082164079 0.1360721360 -0.1360721360
-0.3401803399 0.2041082040 -0.2041082040
-0.2721442719 0.2721442719 -0.2721442719
-0.2041082040 0.3401803399 -0.3401803399
-0.1360721360 0.4082164079 -0.4082164079
-0.0680360680 0.4762524759 -0.4762524759
0.0000000000 0.5442885439 -0.5442885439
-0.4762524759 -0.0680360680 0.0680360680
-0.4082164079 -0.0000000000 -0.0000000000
-0.3401803399 0.0680360680 -0.0680360680
-0.2721442719 0.1360721360 -0.1360721360
-0.2041082040 0.2041082040 -0.2041082040
-0.1360721360 0.2721442719 -0.2721442719
-0.0680360680 0.3401803399 -0.3401803399
0.0000000000 0.4082164079 -0.4082164079
0.0680360680 0.4762524759 -0.4762524759
-0.4082164079 -0.1360721360 0.1360721360
-0.3401803399 -0.0680360680 0.0680360680
-0.2721442719 -0.0000000000 0.0000000000
-0.2041082040 0.0680360680 -0.0680360680
-0.1360721360 0.1360721360 -0.1360721360
-0.0680360680 0.2041082040 -0.2041082040
0.0000000000 0.2721442719 -0.2721442719
0.0680360680 0.3401803399 -0.3401803399
0.1360721360 0.4082164079 -0.4082164079
-0.3401803399 -0.2041082040 0.2041082040
-0.2721442719 -0.1360721360 0.1360721360
-0.2041082040 -0.0680360680 0.0680360680
-0.1360721360 -0.0000000000 0.0000000000
-0.0680360680 0.0680360680 -0.0680360680
0.0000000000 0.1360721360 -0.1360721360
0.0680360680 0.2041082040 -0.2041082040
0.1360721360 0.2721442719 -0.2721442719
0.2041082040 0.3401803399 -0.3401803399
-0.2721442719 -0.2721442719 0.2721442719
-0.2041082040 -0.2041082040 0.2041082040
-0.1360721360 -0.1360721360 0.1360721360
-0.0680360680 -0.0680360680 0.0680360680
0.0000000000 0.0000000000 0.0000000000
0.0680360680 0.0680360680 -0.0680360680
0.1360721360 0.1360721360 -0.1360721360
0.2041082040 0.2041082040 -0.2041082040
0.2721442719 0.2721442719 -0.2721442719
-0.2041082040 -0.3401803399 0.3401803399
-0.1360721360 -0.2721442719 0.2721442719
-0.0680360680 -0.2041082040 0.2041082040
0.0000000000 -0.1360721360 0.1360721360
0.0680360680 -0.0680360680 0.0680360680
0.1360721360 0.0000000000 0.0000000000
0.2041082040 0.0680360680 -0.0680360680
0.2721442719 0.1360721360 -0.1360721360
0.3401803399 0.2041082040 -0.2041082040
-0.1360721360 -0.4082164079 0.4082164079
-0.0680360680 -0.3401803399 0.3401803399
0.0000000000 -0.2721442719 0.2721442719
0.0680360680 -0.2041082040 0.2041082040
0.1360721360 -0.1360721360 0.1360721360
0.2041082040 -0.0680360680 0.0680360680
0.2721442719 0.0000000000 0.0000000000
0.3401803399 0.0680360680 -0.0680360680
0.4082164079 0.1360721360 -0.1360721360
-0.0680360680 -0.4762524759 0.4762524759
-0.0000000000 -0.4082164079 0.4082164079
0.0680360680 -0.3401803399 0.3401803399
0.1360721360 -0.2721442719 0.2721442719
0.2041082040 -0.2041082040 0.2041082040
0.2721442719 -0.1360721360 0.1360721360
0.3401803399 -0.0680360680 0.0680360680
0.4082164079 0.0000000000 0.0000000000
0.4762524759 0.0680360680 -0.0680360680
0.0000000000 -0.5442885439 0.5442885439
0.0680360680 -0.4762524759 0.4762524759
0.1360721360 -0.4082164079 0.4082164079
0.2041082040 -0.3401803399 0.3401803399
0.2721442719 -0.2721442719 0.2721442719
0.3401803399 -0.2041082040 0.2041082040
0.4082164079 -0.1360721360 0.1360721360
0.4762524759 -0.0680360680 0.0680360680
0.5442885439 0.0000000000 0.0000000000
-0.6123246119 0.0680360680 0.0680360680
-0.5442885439 0.1360721360 -0.0000000000
-0.4762524759 0.2041082040 -0.0680360680
-0.4082164079 0.2721442719 -0.1360721360
-0.3401803399 0.3401803399 -0.2041082040
-0.2721442719 0.4082164079 -0.2721442719
-0.2041082040 0.4762524759 -0.3401803399
-0.1360721360 0.5442885439 -0.4082164079
-0.0680360680 0.6123246119 -0.4762524759
-0.5442885439 -0.0000000000 0.1360721360
-0.4762524759 0.0680360680 0.0680360680
-0.4082164079 0.1360721360 -0.0000000000
-0.3401803399 0.2041082040 -0.0680360680
-0.2721442719 0.2721442719 -0.1360721360
-0.2041082040 0.3401803399 -0.2041082040
-0.1360721360 0.4082164079 -0.2721442719
-0.0680360680 0.4762524759 -0.3401803399
0.0000000000 0.5442885439 -0.4082164079
-0.4762524759 -0.0680360680 0.2041082040
-0.4082164079 -0.0000000000 0.1360721360
-0.3401803399 0.0680360680 0.0680360680
-0.2721442719 0.1360721360 0.0000000000
-0.2041082040 0.2041082040 -0.0680360680
-0.1360721360 0.2721442719 -0.1360721360
-0.0680360680 0.3401803399 -0.2041082040
0.0000000000 0.4082164079 -0.2721442719
0.0680360680 0.4762524759 -0.3401803399
-0.4082164079 -0.1360721360 0.2721442719
-0.3401803399 -0.0680360680 0.2041082040
-0.2721442719 0.0000000000 0.1360721360
-0.2041082040 0.0680360680 0.0680360680
-0.1360721360 0.1360721360 0.0000000000
-0.0680360680 0.2041082040 -0.0680360680
0.0000000000 0.2721442719 -0.1360721360
0.0680360680 0.3401803399 -0.2041082040
0.1360721360 0.4082164079 -0.2721442719
-0.3401803399 -0.2041082040 0.3401803399
-0.2721442719 -0.1360721360 0.2721442719
-0.2041082040 -0.0680360680 0.2041082040
-0.1360721360 0.0000000000 0.1360721360
-0.0680360680 0.0680360680 0.0680360680
0.0000000000 0.1360721360 0.0000000000
0.0680360680 0.2041082040 -0.0680360680
0.1360721360 0.2721442719 -0.1360721360
0.2041082040 0.3401803399 -0.2041082040
-0.2721442719 -0.2721442719 0.4082164079
-0.2041082040 -0.2041082040 0.3401803399
-0.1360721360 -0.1360721360 0.2721442719
-0.0680360680 -0.0680360680 0.2041082040
0.0000000000 0.0000000000 0.1360721360
0.0680360680 0.0680360680 0.0680360680
0.1360721360 0.1360721360 0.0000000000
0.2041082040 0.2041082040 -0.0680360680
0.2721442719 0.2721442719 -0.1360721360
-0.2041082040 -0.3401803399 0.4762524759
-0.1360721360 -0.2721442719 0.4082164079
-0.0680360680 -0.2041082040 0.3401803399
0.0000000000 -0.1360721360 0.2721442719
0.0680360680 -0.0680360680 0.2041082040
0.1360721360 0.0000000000 0.1360721360
0.2041082040 0.0680360680 0.0680360680
0.2721442719 0.1360721360 0.0000000000
0.3401803399 0.2041082040 -0.0680360680
-0.1360721360 -0.4082164079 0.5442885439
-0.0680360680 -0.3401803399 0.4762524759
0.0000000000 -0.2721442719 0.4082164079
0.0680360680 -0.2041082040 0.3401803399
0.1360721360 -0.1360721360 0.2721442719
0.2041082040 -0.0680360680 0.2041082040
0.2721442719 0.0000000000 0.1360721360
0.3401803399 0.0680360680 0.0680360680
0.4082164079 0.1360721360 0.0000000000
-0.0680360680 -0.4762524759 0.6123246119
0.0000000000 -0.4082164079 0.5442885439
0.0680360680 -0.3401803399 0.4762524759
0.1360721360 -0.2721442719 0.4082164079
0.2041082040 -0.2041082040 0.3401803399
0.2721442719 -0.1360721360 0.2721442719
0.3401803399 -0.0680360680 0.2041082040
0.4082164079 0.0000000000 0.1360721360
0.4762524759 0.0680360680 0.0680360680
-0.6803606798 0.1360721360 0.1360721360
-0.6123246119 0.2041082040 0.0680360680
-0.5442885439 0.2721442719 0.0000000000
-0.4762524759 0.3401803399 -0.0680360680
-0.4082164079 0.4082164079 -0.1360721360
-0.3401803399 0.4762524759 -0.2041082040
-0.2721442719 0.5442885439 -0.2721442719
-0.2041082040 0.6123246119 -0.3401803399
-0.1360721360 0.6803606798 -0.4082164079
-0.6123246119 0.0680360680 0.2041082040
-0.5442885439 0.1360721360 0.1360721360
-0.4762524759 0.2041082040 0.0680360680
-0.4082164079 0.2721442719 -0.0000000000
-0.3401803399 0.3401803399 -0.0680360680
-0.2721442719 0.4082164079 -0.1360721360
-0.2041082040 0.4762524759 -0.2041082040
-0.1360721360 0.5442885439 -0.2721442719
-0.0680360680 0.6123246119 -0.3401803399
-0.5442885439 0.0000000000 0.2721442719
-0.4762524759 0.0680360680 0.2041082040
-0.4082164079 0.1360721360 0.1360721360
-0.3401803399 0.2041082040 0.0680360680
-0.2721442719 0.2721442719 0.0000000000
-0.2041082040 0.3401803399 -0.0680360680
-0.1360721360 0.4082164079 -0.1360721360
-0.0680360680 0.4762524759 -0.2041082040
0.0000000000 0.5442885439 -0.2721442719
-0.4762524759 -0.0680360680 0.3401803399
-0.4082164079 -0.0000000000 0.2721442719
-0.3401803399 0.0680360680 0.2041082040
-0.2721442719 0.1360721360 0.1360721360
-0.2041082040 0.2041082040 0.0680360680
-0.1360721360 0.2721442719 0.0000000000
-0.0680360680 0.3401803399 -0.0680360680
0.0000000000 0.4082164079 -0.1360721360
0.0680360680 0.4762524759 -0.2041082040
-0.4082164079 -0.1360721360 0.4082164079
-0.3401803399 -0.0680360680 0.3401803399
-0.2721442719 0.0000000000 0.2721442719
-0.2041082040 0.0680360680 0.2041082040
-0.1360721360 0.1360721360 0.1360721360
-0.0680360680 0.2041082040 0.0680360680
0.0000000000 0.2721442719 0.0000000000
0.0680360680 0.3401803399 -0.0680360680
0.1360721360 0.4082164079 -0.1360721360
-0.3401803399 -0.2041082040 0.4762524759
-0.2721442719 -0.1360721360 0.4082164079
-0.2041082040 -0.0680360680 0.3401803399
-0.1360721360 0.0000000000 0.2721442719
-0.0680360680 0.0680360680 0.2041082040
0.0000000000 0.1360721360 0.1360721360
0.0680360680 0.2041082040 0.0680360680
0.1360721360 0.2721442719 0.0000000000
0.2041082040 0.3401803399 -0.0680360680
-0.2721442719 -0.2721442719 0.5442885439
-0.2041082040 -0.2041082040 0.4762524759
-0.1360721360 -0.1360721360 0.4082164079
-0.0680360680 -0.0680360680 0.3401803399
0.0000000000 0.0000000000 0.2721442719
0.0680360680 0.0680360680 0.2041082040
0.1360721360 0.1360721360 0.1360721360
0.2041082040 0.2041082040 0.0680360680
0.2721442719 0.2721442719 0.0000000000
-0.2041082040 -0.3401803399 0.6123246119
-0.1360721360 -0.2721442719 0.5442885439
-0.0680360680 -0.2041082040 0.4762524759
0.0000000000 -0.1360721360 0.4082164079
0.0680360680 -0.0680360680 0.3401803399
0.1360721360 0.0000000000 0.2721442719
0.2041082040 0.0680360680 0.2041082040
0.2721442719 0.1360721360 0.1360721360
0.3401803399 0.2041082040 0.0680360680
-0.1360721360 -0.4082164079 0.6803606798
-0.0680360680 -0.3401803399 0.6123246119
0.0000000000 -0.2721442719 0.5442885439
0.0680360680 -0.2041082040 0.4762524759
0.1360721360 -0.1360721360 0.4082164079
0.2041082040 -0.0680360680 0.3401803399
0.2721442719 0.0000000000 0.2721442719
0.3401803399 0.0680360680 0.2041082040
0.4082164079 0.1360721360 0.1360721360
-0.7483967478 0.2041082040 0.2041082040
-0.6803606798 0.2721442719 0.1360721360
-0.6123246119 0.3401803399 0.0680360680
-0.5442885439 0.4082164079 -0.0000000000
-0.4762524759 0.4762524759 -0.0680360680
-0.4082164079 0.5442885439 -0.1360721360
-0.3401803399 0.6123246119 -0.2041082040
-0.2721442719 0.6803606798 -0.2721442719
-0.2041082040 0.7483967478 -0.3401803399
-0.6803606798 0.1360721360 0.2721442719
-0.6123246119 0.2041082040 0.2041082040
-0.5442885439 0.2721442719 0.1360721360
-0.4762524759 0.3401803399 0.0680360680
-0.4082164079 0.4082164079 -0.0000000000
-0.3401803399 0.4762524759 -0.0680360680
-0.2721442719 0.5442885439 -0.1360721360
-0.2041082040 0.6123246119 -0.2041082040
-0.1360721360 0.6803606798 -0.2721442719
-0.6123246119 0.0680360680 0.3401803399
-0.5442885439 0.1360721360 0.2721442719
-0.4762524759 0.2041082040 0.2041082040
-0.4082164079 0.2721442719 0.1360721360
-0.3401803399 0.3401803399 0.0680360680
-0.2721442719 0.4082164079 -0.0000000000
-0.2041082040 0.4762524759 -0.0680360680
-0.1360721360 0.5442885439 -0.1360721360
-0.0680360680 0.6123246119 -0.2041082040
-0.5442885439 0.0000000000 0.4082164079
-0.4762524759 0.0680360680 0.3401803399
-0.4082164079 0.1360721360 0.2721442719
-0.3401803399 0.2041082040 0.2041082040
-0.2721442719 0.2721442719 0.1360721360
-0.2041082040 0.3401803399 0.0680360680
-0.1360721360 0.4082164079 -0.0000000000
-0.0680360680 0.4762524759 -0.0680360680
0.0000000000 0.5442885439 -0.1360721360
-0.4762524759 -0.0680360680 0.4762524759
-0.4082164079 0.0000000000 0.4082164079
-0.3401803399 0.0680360680 0.3401803399
-0.2721442719 0.1360721360 0.2721442719
-0.2041082040 0.2041082040 0.2041082040
-0.1360721360 0.2721442719 0.1360721360
-0.0680360680 0.3401803399 0.0680360680
0.0000000000 0.4082164079 0.0000000000
0.0680360680 0.4762524759 -0.0680360680
-0.4082164079 -0.1360721360 0.5442885439
-0.3401803399 -0.0680360680 0.4762524759
-0.2721442719 0.0000000000 0.4082164079
-0.2041082040 0.0680360680 0.3401803399
-0.1360721360 0.1360721360 0.2721442719
-0.0680360680 0.2041082040 0.2041082040
0.0000000000 0.2721442719 0.1360721360
0.0680360680 0.3401803399 0.0680360680
0.1360721360 0.4082164079 0.0000000000
-0.3401803399 -0.2041082040 0.6123246119
-0.2721442719 -0.1360721360 0.5442885439
-0.2041082040 -0.0680360680 0.4762524759
-0.1360721360 0.0000000000 0.4082164079
-0.0680360680 0.0680360680 0.3401803399
0.0000000000 0.1360721360 0.2721442719
0.0680360680 0.2041082040 0.2041082040
0.1360721360 0.2721442719 0.1360721360
0.2041082040 0.3401803399 0.0680360680
-0.2721442719 -0.2721442719 0.6803606798
-0.2041082040 -0.2041082040 0.6123246119
-0.1360721360 -0.1360721360 0.5442885439
-0.0680360680 -0.0680360680 0.4762524759
0.0000000000 0.0000000000 0.4082164079
0.0680360680 0.0680360680 0.3401803399
0.1360721360 0.1360721360 0.2721442719
0.2041082040 0.2041082040 0.2041082040
0.2721442719 0.2721442719 0.1360721360
-0.2041082040 -0.3401803399 0.7483967478
-0.1360721360 -0.2721442719 0.6803606798
-0.0680360680 -0.2041082040 0.6123246119
0.0000000000 -0.1360721360 0.5442885439
0.0680360680 -0.0680360680 0.4762524759
0.1360721360 0.0000000000 0.4082164079
0.2041082040 0.0680360680 0.3401803399
0.2721442719 0.1360721360 0.2721442719
0.3401803399 0.2041082040 0.2041082040
-0.8164328158 0.2721442719 0.2721442719
-0.7483967478 0.3401803399 0.2041082040
-0.6803606798 0.4082164079 0.1360721360
-0.6123246119 0.4762524759 0.0680360680
-0.5442885439 0.5442885439 0.0000000000
-0.4762524759 0.6123246119 -0.0680360680
-0.4082164079 0.6803606798 -0.1360721360
-0.3401803399 0.7483967478 -0.2041082040
-0.2721442719 0.8164328158 -0.2721442719
-0.7483967478 0.2041082040 0.3401803399
-0.6803606798 0.2721442719 0.2721442719
-0.6123246119 0.3401803399 0.2041082040
-0.5442885439 0.4082164079 0.1360721360
-0.4762524759 0.4762524759 0.0680360680
-0.4082164079 0.5442885439 -0.0000000000
-0.3401803399 0.6123246119 -0.0680360680
-0.2721442719 0.6803606798 -0.1360721360
-0.2041082040 0.7483967478 -0.2041082040
-0.6803606798 0.1360721360 0.4082164079
-0.6123246119 0.2041082040 0.3401803399
-0.5442885439 0.2721442719 0.2721442719
-0.4762524759 0.3401803399 0.2041082040
-0.4082164079 0.4082164079 0.1360721360
-0.3401803399 0.4762524759 0.0680360680
-0.2721442719 0.5442885439 0.0000000000
-0.2041082040 0.6123246119 -0.0680360680
-0.1360721360 0.6803606798 -0.1360721360
-0.6123246119 0.0680360680 0.4762524759
-0.5442885439 0.1360721360 0.4082164079
-0.4762524759 0.2041082040 0.3401803399
-0.4082164079 0.2721442719 0.2721442719
-0.3401803399 0.3401803399 0.2041082040
-0.2721442719 0.4082164079 0.1360721360
-0.2041082040 0.4762524759 0.0680360680
-0.1360721360 0.5442885439 0.0000000000
-0.0680360680 0.6123246119 -0.0680360680
-0.5442885439 0.0000000000 0.5442885439
-0.4762524759 0.0680360680 0.4762524759
-0.4082164079 0.1360721360 0.4082164079
-0.3401803399 0.2041082040 0.3401803399
-0.2721442719 0.2721442719 0.2721442719
-0.2041082040 0.3401803399 0.2041082040
-0.1360721360 0.4082164079 0.1360721360
-0.0680360680 0.4762524759 0.0680360680
0.0000000000 0.5442885439 0.0000000000
-0.4762524759 -0.0680360680 0.6123246119
-0.4082164079 0.0000000000 0.5442885439
-0.3401803399 0.0680360680 0.4762524759
-0.2721442719 0.1360721360 0.4082164079
-0.2041082040 0.2041082040 0.3401803399
-0.1360721360 0.2721442719 0.2721442719
-0.0680360680 0.3401803399 0.2041082040
0.0000000000 0.4082164079 0.1360721360
0.0680360680 0.4762524759 0.0680360680
-0.4082164079 -0.1360721360 0.6803606798
-0.3401803399 -0.0680360680 0.6123246119
-0.2721442719 0.0000000000 0.5442885439
-0.2041082040 0.0680360680 0.4762524759
-0.1360721360 0.1360721360 0.4082164079
-0.0680360680 0.2041082040 0.3401803399
0.0000000000 0.2721442719 0.2721442719
0.0680360680 0.3401803399 0.2041082040
0.1360721360 0.4082164079 0.1360721360
-0.3401803399 -0.2041082040 0.7483967478
-0.2721442719 -0.1360721360 0.6803606798
-0.2041082040 -0.0680360680 0.6123246119
-0.1360721360 0.0000000000 0.5442885439
-0.0680360680 0.0680360680 0.4762524759
0.0000000000 0.1360721360 0.4082164079
0.0680360680 0.2041082040 0.3401803399
0.1360721360 0.2721442719 0.2721442719
0.2041082040 0.3401803399 0.2041082040
-0.2721442719 -0.2721442719 0.8164328158
-0.2041082040 -0.2041082040 0.7483967478
-0.1360721360 -0.1360721360 0.6803606798
-0.0680360680 -0.0680360680 0.6123246119
0.0000000000 0.0000000000 0.5442885439
0.0680360680 0.0680360680 0.4762524759
0.1360721360 0.1360721360 0.4082164079
0.2041082040 0.2041082040 0.3401803399
0.2721442719 0.2721442719 0.2721442719
 There are 14 alpha and 14 beta electrons
 Start computing overlap matrix
 Allocate 53934336 B from available memory: 1048575736800 B
 Time for computing overlap matrix: 1.8630000000 s
 ====== Initialize compute kernels for all-electron RI-J (kpts) ====== 
 ========================================================== 
 Range-separated parameter omega        = 0.599999999999999978
 Threshold for 1e2c shellpair           = 0.000000000000010000
 Threshold for 2e2c SR integral         = 0.000000000000000001
 Threshold for 2e3c SR integral         = 0.000000000100000000
 Threshold for AFT G-space screening is = 0.000000000001000000
 The exponent cutoff for C/D classification (omega2 / 2) is  = 0.179999999999999993
 ========================================================== 
 === Post process the basis set for RI calculation (exp_cutoff = 0.179999999999999993 ) === 
nshells_b1 before uncontraction = 24
nshells_b1 after uncontraction = 24
nshells_baux before uncontraction = 74
nshells_baux after uncontraction = 74
===============================================
nbsf total   = 68
nbsf compact = 50
nbsf diffuse = 18
naux total   = 242
naux compact = 242
naux diffuse = 0
nshells_bnuc = 2

 Number of unique atoms is 1
 Unique atom #0 (si) has 9 shells.

Shell 0 to 8 belongs to atom si
Shell 9 to 17 belongs to atom si

 Number of unique atoms is 1
 Unique atom #0 (si) has 3 shells.

Shell 0 to 2 belongs to atom si
Shell 3 to 5 belongs to atom si

 Number of unique atom is 1
 Unique atom #0 (si) has 37 auxiliary shells.

Auxiliary Shell 0 to 36 belongs to atom si
Auxiliary Shell 37 to 73 belongs to atom si

================= Automatically determine grid size for reciprocal space summation =================
 Range-separated parameter = 0.60000000000000 and G-space screening threshold = 0.00000000000100
The number of grid points along each axis dimension is (7, 7, 7)
Total number of grid points = 3375

Use nonortho shellpair for diffuse density
======== Initializing relevant kernel for RIJ (DD type) ========
There are 21 shellpairs in the reference unit cell
There are 2659 images and we expect to have 55839 in total
There are 4592 shellpairs in the lattice sum after screening
======== Initializing relevant kernel for RIJ (CD type) ========
There are 108 shellpairs in the reference unit cell
There are 1873 images and we expect to have 202284 in total
There are 12338 shellpairs in the lattice sum after screening
****** AFT -> SR ******
Maximum bra distance cutoff is 22.000000000000
Maximum bra ket distance cutoff is 22.225409836066
Maximum bra ket screening distance is 20.281250000000
Number of auxiliary image is 527
There are 108 shellpairs in the reference unit cell
There are 527 images and we expect to have 56916 in total
There are 12338 shellpairs in the lattice sum after screening
Available memory per thread for 2e3c calculation is 32.766306327000Gb
Finish initializing 2e3c SR with the lattice sum!
=================================================
======== Initializing relevant kernel for RIJ (CC type) ========
There are 170 shellpairs in the reference unit cell
There are 887 images and we expect to have 150790 in total
There are 4214 shellpairs in the lattice sum after screening
****** AFT -> SR ******
Maximum bra distance cutoff is 16.000000000000
Maximum bra ket distance cutoff is 26.411028484891
Maximum bra ket screening distance is 20.062500000000
Number of auxiliary image is 815
There are 170 shellpairs in the reference unit cell
There are 237 images and we expect to have 40290 in total
There are 4214 shellpairs in the lattice sum after screening
Available memory per thread for 2e3c calculation is 32.766306327000Gb
Finish initializing 2e3c SR with the lattice sum!
=================================================
======== Initializing the SR component for Vnuc (CD type) ========
Maximum bra distance cutoff is 22.000000000000
Maximum bra ket distance cutoff is 15.007314228490
Maximum bra ket screening distance is 12.593607526610
Number of auxiliary image is 527
There are 108 shellpairs in the reference unit cell
There are 527 images and we expect to have 56916 in total
There are 12338 shellpairs in the lattice sum after screening
Available memory per thread for 2e3c calculation is 32.766306327000Gb
Finish initializing 2e3c SR with the lattice sum!
=================================================
======== Initialize the SR component for Vnuc (CC type) ========
Maximum bra distance cutoff is 16.000000000000
Maximum bra ket distance cutoff is 19.169655743138
Maximum bra ket screening distance is 11.882365827597
Number of auxiliary image is 341
There are 170 shellpairs in the reference unit cell
There are 237 images and we expect to have 40290 in total
There are 4214 shellpairs in the lattice sum after screening
Available memory per thread for 2e3c calculation is 32.766306327000Gb
Finish initializing 2e3c SR with the lattice sum!
=================================================
 Aufbau occupation scheme, occupation determined by eigenvalue
 == 0-th k-point nmo = 68 (-0.27214,-0.27214,-0.27214) ==
 == 1-th k-point nmo = 68 (-0.20411,-0.20411,-0.34018) ==
 == 2-th k-point nmo = 68 (-0.13607,-0.13607,-0.40822) ==
 == 3-th k-point nmo = 68 (-0.06804,-0.06804,-0.47625) ==
 == 4-th k-point nmo = 68 (-0.00000,-0.00000,-0.54429) ==
 == 5-th k-point nmo = 68 (0.06804,0.06804,-0.61232) ==
 == 6-th k-point nmo = 68 (0.13607,0.13607,-0.68036) ==
 == 7-th k-point nmo = 68 (0.20411,0.20411,-0.74840) ==
 == 8-th k-point nmo = 68 (0.27214,0.27214,-0.81643) ==
 == 9-th k-point nmo = 68 (-0.20411,-0.34018,-0.20411) ==
 == 10-th k-point nmo = 68 (-0.13607,-0.27214,-0.27214) ==
 == 11-th k-point nmo = 68 (-0.06804,-0.20411,-0.34018) ==
 == 12-th k-point nmo = 68 (-0.00000,-0.13607,-0.40822) ==
 == 13-th k-point nmo = 68 (0.06804,-0.06804,-0.47625) ==
 == 14-th k-point nmo = 68 (0.13607,-0.00000,-0.54429) ==
 == 15-th k-point nmo = 68 (0.20411,0.06804,-0.61232) ==
 == 16-th k-point nmo = 68 (0.27214,0.13607,-0.68036) ==
 == 17-th k-point nmo = 68 (0.34018,0.20411,-0.74840) ==
 == 18-th k-point nmo = 68 (-0.13607,-0.40822,-0.13607) ==
 == 19-th k-point nmo = 68 (-0.06804,-0.34018,-0.20411) ==
 == 20-th k-point nmo = 68 (-0.00000,-0.27214,-0.27214) ==
 == 21-th k-point nmo = 68 (0.06804,-0.20411,-0.34018) ==
 == 22-th k-point nmo = 68 (0.13607,-0.13607,-0.40822) ==
 == 23-th k-point nmo = 68 (0.20411,-0.06804,-0.47625) ==
 == 24-th k-point nmo = 68 (0.27214,-0.00000,-0.54429) ==
 == 25-th k-point nmo = 68 (0.34018,0.06804,-0.61232) ==
 == 26-th k-point nmo = 68 (0.40822,0.13607,-0.68036) ==
 == 27-th k-point nmo = 68 (-0.06804,-0.47625,-0.06804) ==
 == 28-th k-point nmo = 68 (-0.00000,-0.40822,-0.13607) ==
 == 29-th k-point nmo = 68 (0.06804,-0.34018,-0.20411) ==
 == 30-th k-point nmo = 68 (0.13607,-0.27214,-0.27214) ==
 == 31-th k-point nmo = 68 (0.20411,-0.20411,-0.34018) ==
 == 32-th k-point nmo = 68 (0.27214,-0.13607,-0.40822) ==
 == 33-th k-point nmo = 68 (0.34018,-0.06804,-0.47625) ==
 == 34-th k-point nmo = 68 (0.40822,0.00000,-0.54429) ==
 == 35-th k-point nmo = 68 (0.47625,0.06804,-0.61232) ==
 == 36-th k-point nmo = 68 (-0.00000,-0.54429,0.00000) ==
 == 37-th k-point nmo = 68 (0.06804,-0.47625,-0.06804) ==
 == 38-th k-point nmo = 68 (0.13607,-0.40822,-0.13607) ==
 == 39-th k-point nmo = 68 (0.20411,-0.34018,-0.20411) ==
 == 40-th k-point nmo = 68 (0.27214,-0.27214,-0.27214) ==
 == 41-th k-point nmo = 68 (0.34018,-0.20411,-0.34018) ==
 == 42-th k-point nmo = 68 (0.40822,-0.13607,-0.40822) ==
 == 43-th k-point nmo = 68 (0.47625,-0.06804,-0.47625) ==
 == 44-th k-point nmo = 68 (0.54429,0.00000,-0.54429) ==
 == 45-th k-point nmo = 68 (0.06804,-0.61232,0.06804) ==
 == 46-th k-point nmo = 68 (0.13607,-0.54429,-0.00000) ==
 == 47-th k-point nmo = 68 (0.20411,-0.47625,-0.06804) ==
 == 48-th k-point nmo = 68 (0.27214,-0.40822,-0.13607) ==
 == 49-th k-point nmo = 68 (0.34018,-0.34018,-0.20411) ==
 == 50-th k-point nmo = 68 (0.40822,-0.27214,-0.27214) ==
 == 51-th k-point nmo = 68 (0.47625,-0.20411,-0.34018) ==
 == 52-th k-point nmo = 68 (0.54429,-0.13607,-0.40822) ==
 == 53-th k-point nmo = 68 (0.61232,-0.06804,-0.47625) ==
 == 54-th k-point nmo = 68 (0.13607,-0.68036,0.13607) ==
 == 55-th k-point nmo = 68 (0.20411,-0.61232,0.06804) ==
 == 56-th k-point nmo = 68 (0.27214,-0.54429,0.00000) ==
 == 57-th k-point nmo = 68 (0.34018,-0.47625,-0.06804) ==
 == 58-th k-point nmo = 68 (0.40822,-0.40822,-0.13607) ==
 == 59-th k-point nmo = 68 (0.47625,-0.34018,-0.20411) ==
 == 60-th k-point nmo = 68 (0.54429,-0.27214,-0.27214) ==
 == 61-th k-point nmo = 68 (0.61232,-0.20411,-0.34018) ==
 == 62-th k-point nmo = 68 (0.68036,-0.13607,-0.40822) ==
 == 63-th k-point nmo = 68 (0.20411,-0.74840,0.20411) ==
 == 64-th k-point nmo = 68 (0.27214,-0.68036,0.13607) ==
 == 65-th k-point nmo = 68 (0.34018,-0.61232,0.06804) ==
 == 66-th k-point nmo = 68 (0.40822,-0.54429,0.00000) ==
 == 67-th k-point nmo = 68 (0.47625,-0.47625,-0.06804) ==
 == 68-th k-point nmo = 68 (0.54429,-0.40822,-0.13607) ==
 == 69-th k-point nmo = 68 (0.61232,-0.34018,-0.20411) ==
 == 70-th k-point nmo = 68 (0.68036,-0.27214,-0.27214) ==
 == 71-th k-point nmo = 68 (0.74840,-0.20411,-0.34018) ==
 == 72-th k-point nmo = 68 (0.27214,-0.81643,0.27214) ==
 == 73-th k-point nmo = 68 (0.34018,-0.74840,0.20411) ==
 == 74-th k-point nmo = 68 (0.40822,-0.68036,0.13607) ==
 == 75-th k-point nmo = 68 (0.47625,-0.61232,0.06804) ==
 == 76-th k-point nmo = 68 (0.54429,-0.54429,0.00000) ==
 == 77-th k-point nmo = 68 (0.61232,-0.47625,-0.06804) ==
 == 78-th k-point nmo = 68 (0.68036,-0.40822,-0.13607) ==
 == 79-th k-point nmo = 68 (0.74840,-0.34018,-0.20411) ==
 == 80-th k-point nmo = 68 (0.81643,-0.27214,-0.27214) ==
 == 81-th k-point nmo = 68 (-0.34018,-0.20411,-0.20411) ==
 == 82-th k-point nmo = 68 (-0.27214,-0.13607,-0.27214) ==
 == 83-th k-point nmo = 68 (-0.20411,-0.06804,-0.34018) ==
 == 84-th k-point nmo = 68 (-0.13607,-0.00000,-0.40822) ==
 == 85-th k-point nmo = 68 (-0.06804,0.06804,-0.47625) ==
 == 86-th k-point nmo = 68 (-0.00000,0.13607,-0.54429) ==
 == 87-th k-point nmo = 68 (0.06804,0.20411,-0.61232) ==
 == 88-th k-point nmo = 68 (0.13607,0.27214,-0.68036) ==
 == 89-th k-point nmo = 68 (0.20411,0.34018,-0.74840) ==
 == 90-th k-point nmo = 68 (-0.27214,-0.27214,-0.13607) ==
 == 91-th k-point nmo = 68 (-0.20411,-0.20411,-0.20411) ==
 == 92-th k-point nmo = 68 (-0.13607,-0.13607,-0.27214) ==
 == 93-th k-point nmo = 68 (-0.06804,-0.06804,-0.34018) ==
 == 94-th k-point nmo = 68 (-0.00000,-0.00000,-0.40822) ==
 == 95-th k-point nmo = 68 (0.06804,0.06804,-0.47625) ==
 == 96-th k-point nmo = 68 (0.13607,0.13607,-0.54429) ==
 == 97-th k-point nmo = 68 (0.20411,0.20411,-0.61232) ==
 == 98-th k-point nmo = 68 (0.27214,0.27214,-0.68036) ==
 == 99-th k-point nmo = 68 (-0.20411,-0.34018,-0.06804) ==
 == 100-th k-point nmo = 68 (-0.13607,-0.27214,-0.13607) ==
 == 101-th k-point nmo = 68 (-0.06804,-0.20411,-0.20411) ==
 == 102-th k-point nmo = 68 (-0.00000,-0.13607,-0.27214) ==
 == 103-th k-point nmo = 68 (0.06804,-0.06804,-0.34018) ==
 == 104-th k-point nmo = 68 (0.13607,-0.00000,-0.40822) ==
 == 105-th k-point nmo = 68 (0.20411,0.06804,-0.47625) ==
 == 106-th k-point nmo = 68 (0.27214,0.13607,-0.54429) ==
 == 107-th k-point nmo = 68 (0.34018,0.20411,-0.61232) ==
 == 108-th k-point nmo = 68 (-0.13607,-0.40822,0.00000) ==
 == 109-th k-point nmo = 68 (-0.06804,-0.34018,-0.06804) ==
 == 110-th k-point nmo = 68 (-0.00000,-0.27214,-0.13607) ==
 == 111-th k-point nmo = 68 (0.06804,-0.20411,-0.20411) ==
 == 112-th k-point nmo = 68 (0.13607,-0.13607,-0.27214) ==
 == 113-th k-point nmo = 68 (0.20411,-0.06804,-0.34018) ==
 == 114-th k-point nmo = 68 (0.27214,-0.00000,-0.40822) ==
 == 115-th k-point nmo = 68 (0.34018,0.06804,-0.47625) ==
 == 116-th k-point nmo = 68 (0.40822,0.13607,-0.54429) ==
 == 117-th k-point nmo = 68 (-0.06804,-0.47625,0.06804) ==
 == 118-th k-point nmo = 68 (-0.00000,-0.40822,0.00000) ==
 == 119-th k-point nmo = 68 (0.06804,-0.34018,-0.06804) ==
 == 120-th k-point nmo = 68 (0.13607,-0.27214,-0.13607) ==
 == 121-th k-point nmo = 68 (0.20411,-0.20411,-0.20411) ==
 == 122-th k-point nmo = 68 (0.27214,-0.13607,-0.27214) ==
 == 123-th k-point nmo = 68 (0.34018,-0.06804,-0.34018) ==
 == 124-th k-point nmo = 68 (0.40822,0.00000,-0.40822) ==
 == 125-th k-point nmo = 68 (0.47625,0.06804,-0.47625) ==
 == 126-th k-point nmo = 68 (-0.00000,-0.54429,0.13607) ==
 == 127-th k-point nmo = 68 (0.06804,-0.47625,0.06804) ==
 == 128-th k-point nmo = 68 (0.13607,-0.40822,0.00000) ==
 == 129-th k-point nmo = 68 (0.20411,-0.34018,-0.06804) ==
 == 130-th k-point nmo = 68 (0.27214,-0.27214,-0.13607) ==
 == 131-th k-point nmo = 68 (0.34018,-0.20411,-0.20411) ==
 == 132-th k-point nmo = 68 (0.40822,-0.13607,-0.27214) ==
 == 133-th k-point nmo = 68 (0.47625,-0.06804,-0.34018) ==
 == 134-th k-point nmo = 68 (0.54429,0.00000,-0.40822) ==
 == 135-th k-point nmo = 68 (0.06804,-0.61232,0.20411) ==
 == 136-th k-point nmo = 68 (0.13607,-0.54429,0.13607) ==
 == 137-th k-point nmo = 68 (0.20411,-0.47625,0.06804) ==
 == 138-th k-point nmo = 68 (0.27214,-0.40822,0.00000) ==
 == 139-th k-point nmo = 68 (0.34018,-0.34018,-0.06804) ==
 == 140-th k-point nmo = 68 (0.40822,-0.27214,-0.13607) ==
 == 141-th k-point nmo = 68 (0.47625,-0.20411,-0.20411) ==
 == 142-th k-point nmo = 68 (0.54429,-0.13607,-0.27214) ==
 == 143-th k-point nmo = 68 (0.61232,-0.06804,-0.34018) ==
 == 144-th k-point nmo = 68 (0.13607,-0.68036,0.27214) ==
 == 145-th k-point nmo = 68 (0.20411,-0.61232,0.20411) ==
 == 146-th k-point nmo = 68 (0.27214,-0.54429,0.13607) ==
 == 147-th k-point nmo = 68 (0.34018,-0.47625,0.06804) ==
 == 148-th k-point nmo = 68 (0.40822,-0.40822,0.00000) ==
 == 149-th k-point nmo = 68 (0.47625,-0.34018,-0.06804) ==
 == 150-th k-point nmo = 68 (0.54429,-0.27214,-0.13607) ==
 == 151-th k-point nmo = 68 (0.61232,-0.20411,-0.20411) ==
 == 152-th k-point nmo = 68 (0.68036,-0.13607,-0.27214) ==
 == 153-th k-point nmo = 68 (0.20411,-0.74840,0.34018) ==
 == 154-th k-point nmo = 68 (0.27214,-0.68036,0.27214) ==
 == 155-th k-point nmo = 68 (0.34018,-0.61232,0.20411) ==
 == 156-th k-point nmo = 68 (0.40822,-0.54429,0.13607) ==
 == 157-th k-point nmo = 68 (0.47625,-0.47625,0.06804) ==
 == 158-th k-point nmo = 68 (0.54429,-0.40822,0.00000) ==
 == 159-th k-point nmo = 68 (0.61232,-0.34018,-0.06804) ==
 == 160-th k-point nmo = 68 (0.68036,-0.27214,-0.13607) ==
 == 161-th k-point nmo = 68 (0.74840,-0.20411,-0.20411) ==
 == 162-th k-point nmo = 68 (-0.40822,-0.13607,-0.13607) ==
 == 163-th k-point nmo = 68 (-0.34018,-0.06804,-0.20411) ==
 == 164-th k-point nmo = 68 (-0.27214,-0.00000,-0.27214) ==
 == 165-th k-point nmo = 68 (-0.20411,0.06804,-0.34018) ==
 == 166-th k-point nmo = 68 (-0.13607,0.13607,-0.40822) ==
 == 167-th k-point nmo = 68 (-0.06804,0.20411,-0.47625) ==
 == 168-th k-point nmo = 68 (-0.00000,0.27214,-0.54429) ==
 == 169-th k-point nmo = 68 (0.06804,0.34018,-0.61232) ==
 == 170-th k-point nmo = 68 (0.13607,0.40822,-0.68036) ==
 == 171-th k-point nmo = 68 (-0.34018,-0.20411,-0.06804) ==
 == 172-th k-point nmo = 68 (-0.27214,-0.13607,-0.13607) ==
 == 173-th k-point nmo = 68 (-0.20411,-0.06804,-0.20411) ==
 == 174-th k-point nmo = 68 (-0.13607,-0.00000,-0.27214) ==
 == 175-th k-point nmo = 68 (-0.06804,0.06804,-0.34018) ==
 == 176-th k-point nmo = 68 (-0.00000,0.13607,-0.40822) ==
 == 177-th k-point nmo = 68 (0.06804,0.20411,-0.47625) ==
 == 178-th k-point nmo = 68 (0.13607,0.27214,-0.54429) ==
 == 179-th k-point nmo = 68 (0.20411,0.34018,-0.61232) ==
 == 180-th k-point nmo = 68 (-0.27214,-0.27214,0.00000) ==
 == 181-th k-point nmo = 68 (-0.20411,-0.20411,-0.06804) ==
 == 182-th k-point nmo = 68 (-0.13607,-0.13607,-0.13607) ==
 == 183-th k-point nmo = 68 (-0.06804,-0.06804,-0.20411) ==
 == 184-th k-point nmo = 68 (-0.00000,-0.00000,-0.27214) ==
 == 185-th k-point nmo = 68 (0.06804,0.06804,-0.34018) ==
 == 186-th k-point nmo = 68 (0.13607,0.13607,-0.40822) ==
 == 187-th k-point nmo = 68 (0.20411,0.20411,-0.47625) ==
 == 188-th k-point nmo = 68 (0.27214,0.27214,-0.54429) ==
 == 189-th k-point nmo = 68 (-0.20411,-0.34018,0.06804) ==
 == 190-th k-point nmo = 68 (-0.13607,-0.27214,-0.00000) ==
 == 191-th k-point nmo = 68 (-0.06804,-0.20411,-0.06804) ==
 == 192-th k-point nmo = 68 (-0.00000,-0.13607,-0.13607) ==
 == 193-th k-point nmo = 68 (0.06804,-0.06804,-0.20411) ==
 == 194-th k-point nmo = 68 (0.13607,-0.00000,-0.27214) ==
 == 195-th k-point nmo = 68 (0.20411,0.06804,-0.34018) ==
 == 196-th k-point nmo = 68 (0.27214,0.13607,-0.40822) ==
 == 197-th k-point nmo = 68 (0.34018,0.20411,-0.47625) ==
 == 198-th k-point nmo = 68 (-0.13607,-0.40822,0.13607) ==
 == 199-th k-point nmo = 68 (-0.06804,-0.34018,0.06804) ==
 == 200-th k-point nmo = 68 (-0.00000,-0.27214,0.00000) ==
 == 201-th k-point nmo = 68 (0.06804,-0.20411,-0.06804) ==
 == 202-th k-point nmo = 68 (0.13607,-0.13607,-0.13607) ==
 == 203-th k-point nmo = 68 (0.20411,-0.06804,-0.20411) ==
 == 204-th k-point nmo = 68 (0.27214,0.00000,-0.27214) ==
 == 205-th k-point nmo = 68 (0.34018,0.06804,-0.34018) ==
 == 206-th k-point nmo = 68 (0.40822,0.13607,-0.40822) ==
 == 207-th k-point nmo = 68 (-0.06804,-0.47625,0.20411) ==
 == 208-th k-point nmo = 68 (-0.00000,-0.40822,0.13607) ==
 == 209-th k-point nmo = 68 (0.06804,-0.34018,0.06804) ==
 == 210-th k-point nmo = 68 (0.13607,-0.27214,0.00000) ==
 == 211-th k-point nmo = 68 (0.20411,-0.20411,-0.06804) ==
 == 212-th k-point nmo = 68 (0.27214,-0.13607,-0.13607) ==
 == 213-th k-point nmo = 68 (0.34018,-0.06804,-0.20411) ==
 == 214-th k-point nmo = 68 (0.40822,0.00000,-0.27214) ==
 == 215-th k-point nmo = 68 (0.47625,0.06804,-0.34018) ==
 == 216-th k-point nmo = 68 (-0.00000,-0.54429,0.27214) ==
 == 217-th k-point nmo = 68 (0.06804,-0.47625,0.20411) ==
 == 218-th k-point nmo = 68 (0.13607,-0.40822,0.13607) ==
 == 219-th k-point nmo = 68 (0.20411,-0.34018,0.06804) ==
 == 220-th k-point nmo = 68 (0.27214,-0.27214,0.00000) ==
 == 221-th k-point nmo = 68 (0.34018,-0.20411,-0.06804) ==
 == 222-th k-point nmo = 68 (0.40822,-0.13607,-0.13607) ==
 == 223-th k-point nmo = 68 (0.47625,-0.06804,-0.20411) ==
 == 224-th k-point nmo = 68 (0.54429,0.00000,-0.27214) ==
 == 225-th k-point nmo = 68 (0.06804,-0.61232,0.34018) ==
 == 226-th k-point nmo = 68 (0.13607,-0.54429,0.27214) ==
 == 227-th k-point nmo = 68 (0.20411,-0.47625,0.20411) ==
 == 228-th k-point nmo = 68 (0.27214,-0.40822,0.13607) ==
 == 229-th k-point nmo = 68 (0.34018,-0.34018,0.06804) ==
 == 230-th k-point nmo = 68 (0.40822,-0.27214,0.00000) ==
 == 231-th k-point nmo = 68 (0.47625,-0.20411,-0.06804) ==
 == 232-th k-point nmo = 68 (0.54429,-0.13607,-0.13607) ==
 == 233-th k-point nmo = 68 (0.61232,-0.06804,-0.20411) ==
 == 234-th k-point nmo = 68 (0.13607,-0.68036,0.40822) ==
 == 235-th k-point nmo = 68 (0.20411,-0.61232,0.34018) ==
 == 236-th k-point nmo = 68 (0.27214,-0.54429,0.27214) ==
 == 237-th k-point nmo = 68 (0.34018,-0.47625,0.20411) ==
 == 238-th k-point nmo = 68 (0.40822,-0.40822,0.13607) ==
 == 239-th k-point nmo = 68 (0.47625,-0.34018,0.06804) ==
 == 240-th k-point nmo = 68 (0.54429,-0.27214,0.00000) ==
 == 241-th k-point nmo = 68 (0.61232,-0.20411,-0.06804) ==
 == 242-th k-point nmo = 68 (0.68036,-0.13607,-0.13607) ==
 == 243-th k-point nmo = 68 (-0.47625,-0.06804,-0.06804) ==
 == 244-th k-point nmo = 68 (-0.40822,-0.00000,-0.13607) ==
 == 245-th k-point nmo = 68 (-0.34018,0.06804,-0.20411) ==
 == 246-th k-point nmo = 68 (-0.27214,0.13607,-0.27214) ==
 == 247-th k-point nmo = 68 (-0.20411,0.20411,-0.34018) ==
 == 248-th k-point nmo = 68 (-0.13607,0.27214,-0.40822) ==
 == 249-th k-point nmo = 68 (-0.06804,0.34018,-0.47625) ==
 == 250-th k-point nmo = 68 (0.00000,0.40822,-0.54429) ==
 == 251-th k-point nmo = 68 (0.06804,0.47625,-0.61232) ==
 == 252-th k-point nmo = 68 (-0.40822,-0.13607,0.00000) ==
 == 253-th k-point nmo = 68 (-0.34018,-0.06804,-0.06804) ==
 == 254-th k-point nmo = 68 (-0.27214,-0.00000,-0.13607) ==
 == 255-th k-point nmo = 68 (-0.20411,0.06804,-0.20411) ==
 == 256-th k-point nmo = 68 (-0.13607,0.13607,-0.27214) ==
 == 257-th k-point nmo = 68 (-0.06804,0.20411,-0.34018) ==
 == 258-th k-point nmo = 68 (0.00000,0.27214,-0.40822) ==
 == 259-th k-point nmo = 68 (0.06804,0.34018,-0.47625) ==
 == 260-th k-point nmo = 68 (0.13607,0.40822,-0.54429) ==
 == 261-th k-point nmo = 68 (-0.34018,-0.20411,0.06804) ==
 == 262-th k-point nmo = 68 (-0.27214,-0.13607,-0.00000) ==
 == 263-th k-point nmo = 68 (-0.20411,-0.06804,-0.06804) ==
 == 264-th k-point nmo = 68 (-0.13607,-0.00000,-0.13607) ==
 == 265-th k-point nmo = 68 (-0.06804,0.06804,-0.20411) ==
 == 266-th k-point nmo = 68 (-0.00000,0.13607,-0.27214) ==
 == 267-th k-point nmo = 68 (0.06804,0.20411,-0.34018) ==
 == 268-th k-point nmo = 68 (0.13607,0.27214,-0.40822) ==
 == 269-th k-point nmo = 68 (0.20411,0.34018,-0.47625) ==
 == 270-th k-point nmo = 68 (-0.27214,-0.27214,0.13607) ==
 == 271-th k-point nmo = 68 (-0.20411,-0.20411,0.06804) ==
 == 272-th k-point nmo = 68 (-0.13607,-0.13607,0.00000) ==
 == 273-th k-point nmo = 68 (-0.06804,-0.06804,-0.06804) ==
 == 274-th k-point nmo = 68 (-0.00000,-0.00000,-0.13607) ==
 == 275-th k-point nmo = 68 (0.06804,0.06804,-0.20411) ==
 == 276-th k-point nmo = 68 (0.13607,0.13607,-0.27214) ==
 == 277-th k-point nmo = 68 (0.20411,0.20411,-0.34018) ==
 == 278-th k-point nmo = 68 (0.27214,0.27214,-0.40822) ==
 == 279-th k-point nmo = 68 (-0.20411,-0.34018,0.20411) ==
 == 280-th k-point nmo = 68 (-0.13607,-0.27214,0.13607) ==
 == 281-th k-point nmo = 68 (-0.06804,-0.20411,0.06804) ==
 == 282-th k-point nmo = 68 (-0.00000,-0.13607,0.00000) ==
 == 283-th k-point nmo = 68 (0.06804,-0.06804,-0.06804) ==
 == 284-th k-point nmo = 68 (0.13607,0.00000,-0.13607) ==
 == 285-th k-point nmo = 68 (0.20411,0.06804,-0.20411) ==
 == 286-th k-point nmo = 68 (0.27214,0.13607,-0.27214) ==
 == 287-th k-point nmo = 68 (0.34018,0.20411,-0.34018) ==
 == 288-th k-point nmo = 68 (-0.13607,-0.40822,0.27214) ==
 == 289-th k-point nmo = 68 (-0.06804,-0.34018,0.20411) ==
 == 290-th k-point nmo = 68 (-0.00000,-0.27214,0.13607) ==
 == 291-th k-point nmo = 68 (0.06804,-0.20411,0.06804) ==
 == 292-th k-point nmo = 68 (0.13607,-0.13607,0.00000) ==
 == 293-th k-point nmo = 68 (0.20411,-0.06804,-0.06804) ==
 == 294-th k-point nmo = 68 (0.27214,0.00000,-0.13607) ==
 == 295-th k-point nmo = 68 (0.34018,0.06804,-0.20411) ==
 == 296-th k-point nmo = 68 (0.40822,0.13607,-0.27214) ==
 == 297-th k-point nmo = 68 (-0.06804,-0.47625,0.34018) ==
 == 298-th k-point nmo = 68 (-0.00000,-0.40822,0.27214) ==
 == 299-th k-point nmo = 68 (0.06804,-0.34018,0.20411) ==
 == 300-th k-point nmo = 68 (0.13607,-0.27214,0.13607) ==
 == 301-th k-point nmo = 68 (0.20411,-0.20411,0.06804) ==
 == 302-th k-point nmo = 68 (0.27214,-0.13607,0.00000) ==
 == 303-th k-point nmo = 68 (0.34018,-0.06804,-0.06804) ==
 == 304-th k-point nmo = 68 (0.40822,0.00000,-0.13607) ==
 == 305-th k-point nmo = 68 (0.47625,0.06804,-0.20411) ==
 == 306-th k-point nmo = 68 (-0.00000,-0.54429,0.40822) ==
 == 307-th k-point nmo = 68 (0.06804,-0.47625,0.34018) ==
 == 308-th k-point nmo = 68 (0.13607,-0.40822,0.27214) ==
 == 309-th k-point nmo = 68 (0.20411,-0.34018,0.20411) ==
 == 310-th k-point nmo = 68 (0.27214,-0.27214,0.13607) ==
 == 311-th k-point nmo = 68 (0.34018,-0.20411,0.06804) ==
 == 312-th k-point nmo = 68 (0.40822,-0.13607,0.00000) ==
 == 313-th k-point nmo = 68 (0.47625,-0.06804,-0.06804) ==
 == 314-th k-point nmo = 68 (0.54429,0.00000,-0.13607) ==
 == 315-th k-point nmo = 68 (0.06804,-0.61232,0.47625) ==
 == 316-th k-point nmo = 68 (0.13607,-0.54429,0.40822) ==
 == 317-th k-point nmo = 68 (0.20411,-0.47625,0.34018) ==
 == 318-th k-point nmo = 68 (0.27214,-0.40822,0.27214) ==
 == 319-th k-point nmo = 68 (0.34018,-0.34018,0.20411) ==
 == 320-th k-point nmo = 68 (0.40822,-0.27214,0.13607) ==
 == 321-th k-point nmo = 68 (0.47625,-0.20411,0.06804) ==
 == 322-th k-point nmo = 68 (0.54429,-0.13607,0.00000) ==
 == 323-th k-point nmo = 68 (0.61232,-0.06804,-0.06804) ==
 == 324-th k-point nmo = 68 (-0.54429,-0.00000,0.00000) ==
 == 325-th k-point nmo = 68 (-0.47625,0.06804,-0.06804) ==
 == 326-th k-point nmo = 68 (-0.40822,0.13607,-0.13607) ==
 == 327-th k-point nmo = 68 (-0.34018,0.20411,-0.20411) ==
 == 328-th k-point nmo = 68 (-0.27214,0.27214,-0.27214) ==
 == 329-th k-point nmo = 68 (-0.20411,0.34018,-0.34018) ==
 == 330-th k-point nmo = 68 (-0.13607,0.40822,-0.40822) ==
 == 331-th k-point nmo = 68 (-0.06804,0.47625,-0.47625) ==
 == 332-th k-point nmo = 68 (0.00000,0.54429,-0.54429) ==
 == 333-th k-point nmo = 68 (-0.47625,-0.06804,0.06804) ==
 == 334-th k-point nmo = 68 (-0.40822,-0.00000,-0.00000) ==
 == 335-th k-point nmo = 68 (-0.34018,0.06804,-0.06804) ==
 == 336-th k-point nmo = 68 (-0.27214,0.13607,-0.13607) ==
 == 337-th k-point nmo = 68 (-0.20411,0.20411,-0.20411) ==
 == 338-th k-point nmo = 68 (-0.13607,0.27214,-0.27214) ==
 == 339-th k-point nmo = 68 (-0.06804,0.34018,-0.34018) ==
 == 340-th k-point nmo = 68 (0.00000,0.40822,-0.40822) ==
 == 341-th k-point nmo = 68 (0.06804,0.47625,-0.47625) ==
 == 342-th k-point nmo = 68 (-0.40822,-0.13607,0.13607) ==
 == 343-th k-point nmo = 68 (-0.34018,-0.06804,0.06804) ==
 == 344-th k-point nmo = 68 (-0.27214,-0.00000,0.00000) ==
 == 345-th k-point nmo = 68 (-0.20411,0.06804,-0.06804) ==
 == 346-th k-point nmo = 68 (-0.13607,0.13607,-0.13607) ==
 == 347-th k-point nmo = 68 (-0.06804,0.20411,-0.20411) ==
 == 348-th k-point nmo = 68 (0.00000,0.27214,-0.27214) ==
 == 349-th k-point nmo = 68 (0.06804,0.34018,-0.34018) ==
 == 350-th k-point nmo = 68 (0.13607,0.40822,-0.40822) ==
 == 351-th k-point nmo = 68 (-0.34018,-0.20411,0.20411) ==
 == 352-th k-point nmo = 68 (-0.27214,-0.13607,0.13607) ==
 == 353-th k-point nmo = 68 (-0.20411,-0.06804,0.06804) ==
 == 354-th k-point nmo = 68 (-0.13607,-0.00000,0.00000) ==
 == 355-th k-point nmo = 68 (-0.06804,0.06804,-0.06804) ==
 == 356-th k-point nmo = 68 (0.00000,0.13607,-0.13607) ==
 == 357-th k-point nmo = 68 (0.06804,0.20411,-0.20411) ==
 == 358-th k-point nmo = 68 (0.13607,0.27214,-0.27214) ==
 == 359-th k-point nmo = 68 (0.20411,0.34018,-0.34018) ==
 == 360-th k-point nmo = 68 (-0.27214,-0.27214,0.27214) ==
 == 361-th k-point nmo = 68 (-0.20411,-0.20411,0.20411) ==
 == 362-th k-point nmo = 68 (-0.13607,-0.13607,0.13607) ==
 == 363-th k-point nmo = 68 (-0.06804,-0.06804,0.06804) ==
 == 364-th k-point nmo = 68 (0.00000,0.00000,0.00000) ==
 == 365-th k-point nmo = 68 (0.06804,0.06804,-0.06804) ==
 == 366-th k-point nmo = 68 (0.13607,0.13607,-0.13607) ==
 == 367-th k-point nmo = 68 (0.20411,0.20411,-0.20411) ==
 == 368-th k-point nmo = 68 (0.27214,0.27214,-0.27214) ==
 == 369-th k-point nmo = 68 (-0.20411,-0.34018,0.34018) ==
 == 370-th k-point nmo = 68 (-0.13607,-0.27214,0.27214) ==
 == 371-th k-point nmo = 68 (-0.06804,-0.20411,0.20411) ==
 == 372-th k-point nmo = 68 (0.00000,-0.13607,0.13607) ==
 == 373-th k-point nmo = 68 (0.06804,-0.06804,0.06804) ==
 == 374-th k-point nmo = 68 (0.13607,0.00000,0.00000) ==
 == 375-th k-point nmo = 68 (0.20411,0.06804,-0.06804) ==
 == 376-th k-point nmo = 68 (0.27214,0.13607,-0.13607) ==
 == 377-th k-point nmo = 68 (0.34018,0.20411,-0.20411) ==
 == 378-th k-point nmo = 68 (-0.13607,-0.40822,0.40822) ==
 == 379-th k-point nmo = 68 (-0.06804,-0.34018,0.34018) ==
 == 380-th k-point nmo = 68 (0.00000,-0.27214,0.27214) ==
 == 381-th k-point nmo = 68 (0.06804,-0.20411,0.20411) ==
 == 382-th k-point nmo = 68 (0.13607,-0.13607,0.13607) ==
 == 383-th k-point nmo = 68 (0.20411,-0.06804,0.06804) ==
 == 384-th k-point nmo = 68 (0.27214,0.00000,0.00000) ==
 == 385-th k-point nmo = 68 (0.34018,0.06804,-0.06804) ==
 == 386-th k-point nmo = 68 (0.40822,0.13607,-0.13607) ==
 == 387-th k-point nmo = 68 (-0.06804,-0.47625,0.47625) ==
 == 388-th k-point nmo = 68 (-0.00000,-0.40822,0.40822) ==
 == 389-th k-point nmo = 68 (0.06804,-0.34018,0.34018) ==
 == 390-th k-point nmo = 68 (0.13607,-0.27214,0.27214) ==
 == 391-th k-point nmo = 68 (0.20411,-0.20411,0.20411) ==
 == 392-th k-point nmo = 68 (0.27214,-0.13607,0.13607) ==
 == 393-th k-point nmo = 68 (0.34018,-0.06804,0.06804) ==
 == 394-th k-point nmo = 68 (0.40822,0.00000,0.00000) ==
 == 395-th k-point nmo = 68 (0.47625,0.06804,-0.06804) ==
 == 396-th k-point nmo = 68 (0.00000,-0.54429,0.54429) ==
 == 397-th k-point nmo = 68 (0.06804,-0.47625,0.47625) ==
 == 398-th k-point nmo = 68 (0.13607,-0.40822,0.40822) ==
 == 399-th k-point nmo = 68 (0.20411,-0.34018,0.34018) ==
 == 400-th k-point nmo = 68 (0.27214,-0.27214,0.27214) ==
 == 401-th k-point nmo = 68 (0.34018,-0.20411,0.20411) ==
 == 402-th k-point nmo = 68 (0.40822,-0.13607,0.13607) ==
 == 403-th k-point nmo = 68 (0.47625,-0.06804,0.06804) ==
 == 404-th k-point nmo = 68 (0.54429,0.00000,0.00000) ==
 == 405-th k-point nmo = 68 (-0.61232,0.06804,0.06804) ==
 == 406-th k-point nmo = 68 (-0.54429,0.13607,-0.00000) ==
 == 407-th k-point nmo = 68 (-0.47625,0.20411,-0.06804) ==
 == 408-th k-point nmo = 68 (-0.40822,0.27214,-0.13607) ==
 == 409-th k-point nmo = 68 (-0.34018,0.34018,-0.20411) ==
 == 410-th k-point nmo = 68 (-0.27214,0.40822,-0.27214) ==
 == 411-th k-point nmo = 68 (-0.20411,0.47625,-0.34018) ==
 == 412-th k-point nmo = 68 (-0.13607,0.54429,-0.40822) ==
 == 413-th k-point nmo = 68 (-0.06804,0.61232,-0.47625) ==
 == 414-th k-point nmo = 68 (-0.54429,-0.00000,0.13607) ==
 == 415-th k-point nmo = 68 (-0.47625,0.06804,0.06804) ==
 == 416-th k-point nmo = 68 (-0.40822,0.13607,-0.00000) ==
 == 417-th k-point nmo = 68 (-0.34018,0.20411,-0.06804) ==
 == 418-th k-point nmo = 68 (-0.27214,0.27214,-0.13607) ==
 == 419-th k-point nmo = 68 (-0.20411,0.34018,-0.20411) ==
 == 420-th k-point nmo = 68 (-0.13607,0.40822,-0.27214) ==
 == 421-th k-point nmo = 68 (-0.06804,0.47625,-0.34018) ==
 == 422-th k-point nmo = 68 (0.00000,0.54429,-0.40822) ==
 == 423-th k-point nmo = 68 (-0.47625,-0.06804,0.20411) ==
 == 424-th k-point nmo = 68 (-0.40822,-0.00000,0.13607) ==
 == 425-th k-point nmo = 68 (-0.34018,0.06804,0.06804) ==
 == 426-th k-point nmo = 68 (-0.27214,0.13607,0.00000) ==
 == 427-th k-point nmo = 68 (-0.20411,0.20411,-0.06804) ==
 == 428-th k-point nmo = 68 (-0.13607,0.27214,-0.13607) ==
 == 429-th k-point nmo = 68 (-0.06804,0.34018,-0.20411) ==
 == 430-th k-point nmo = 68 (0.00000,0.40822,-0.27214) ==
 == 431-th k-point nmo = 68 (0.06804,0.47625,-0.34018) ==
 == 432-th k-point nmo = 68 (-0.40822,-0.13607,0.27214) ==
 == 433-th k-point nmo = 68 (-0.34018,-0.06804,0.20411) ==
 == 434-th k-point nmo = 68 (-0.27214,0.00000,0.13607) ==
 == 435-th k-point nmo = 68 (-0.20411,0.06804,0.06804) ==
 == 436-th k-point nmo = 68 (-0.13607,0.13607,0.00000) ==
 == 437-th k-point nmo = 68 (-0.06804,0.20411,-0.06804) ==
 == 438-th k-point nmo = 68 (0.00000,0.27214,-0.13607) ==
 == 439-th k-point nmo = 68 (0.06804,0.34018,-0.20411) ==
 == 440-th k-point nmo = 68 (0.13607,0.40822,-0.27214) ==
 == 441-th k-point nmo = 68 (-0.34018,-0.20411,0.34018) ==
 == 442-th k-point nmo = 68 (-0.27214,-0.13607,0.27214) ==
 == 443-th k-point nmo = 68 (-0.20411,-0.06804,0.20411) ==
 == 444-th k-point nmo = 68 (-0.13607,0.00000,0.13607) ==
 == 445-th k-point nmo = 68 (-0.06804,0.06804,0.06804) ==
 == 446-th k-point nmo = 68 (0.00000,0.13607,0.00000) ==
 == 447-th k-point nmo = 68 (0.06804,0.20411,-0.06804) ==
 == 448-th k-point nmo = 68 (0.13607,0.27214,-0.13607) ==
 == 449-th k-point nmo = 68 (0.20411,0.34018,-0.20411) ==
 == 450-th k-point nmo = 68 (-0.27214,-0.27214,0.40822) ==
 == 451-th k-point nmo = 68 (-0.20411,-0.20411,0.34018) ==
 == 452-th k-point nmo = 68 (-0.13607,-0.13607,0.27214) ==
 == 453-th k-point nmo = 68 (-0.06804,-0.06804,0.20411) ==
 == 454-th k-point nmo = 68 (0.00000,0.00000,0.13607) ==
 == 455-th k-point nmo = 68 (0.06804,0.06804,0.06804) ==
 == 456-th k-point nmo = 68 (0.13607,0.13607,0.00000) ==
 == 457-th k-point nmo = 68 (0.20411,0.20411,-0.06804) ==
 == 458-th k-point nmo = 68 (0.27214,0.27214,-0.13607) ==
 == 459-th k-point nmo = 68 (-0.20411,-0.34018,0.47625) ==
 == 460-th k-point nmo = 68 (-0.13607,-0.27214,0.40822) ==
 == 461-th k-point nmo = 68 (-0.06804,-0.20411,0.34018) ==
 == 462-th k-point nmo = 68 (0.00000,-0.13607,0.27214) ==
 == 463-th k-point nmo = 68 (0.06804,-0.06804,0.20411) ==
 == 464-th k-point nmo = 68 (0.13607,0.00000,0.13607) ==
 == 465-th k-point nmo = 68 (0.20411,0.06804,0.06804) ==
 == 466-th k-point nmo = 68 (0.27214,0.13607,0.00000) ==
 == 467-th k-point nmo = 68 (0.34018,0.20411,-0.06804) ==
 == 468-th k-point nmo = 68 (-0.13607,-0.40822,0.54429) ==
 == 469-th k-point nmo = 68 (-0.06804,-0.34018,0.47625) ==
 == 470-th k-point nmo = 68 (0.00000,-0.27214,0.40822) ==
 == 471-th k-point nmo = 68 (0.06804,-0.20411,0.34018) ==
 == 472-th k-point nmo = 68 (0.13607,-0.13607,0.27214) ==
 == 473-th k-point nmo = 68 (0.20411,-0.06804,0.20411) ==
 == 474-th k-point nmo = 68 (0.27214,0.00000,0.13607) ==
 == 475-th k-point nmo = 68 (0.34018,0.06804,0.06804) ==
 == 476-th k-point nmo = 68 (0.40822,0.13607,0.00000) ==
 == 477-th k-point nmo = 68 (-0.06804,-0.47625,0.61232) ==
 == 478-th k-point nmo = 68 (0.00000,-0.40822,0.54429) ==
 == 479-th k-point nmo = 68 (0.06804,-0.34018,0.47625) ==
 == 480-th k-point nmo = 68 (0.13607,-0.27214,0.40822) ==
 == 481-th k-point nmo = 68 (0.20411,-0.20411,0.34018) ==
 == 482-th k-point nmo = 68 (0.27214,-0.13607,0.27214) ==
 == 483-th k-point nmo = 68 (0.34018,-0.06804,0.20411) ==
 == 484-th k-point nmo = 68 (0.40822,0.00000,0.13607) ==
 == 485-th k-point nmo = 68 (0.47625,0.06804,0.06804) ==
 == 486-th k-point nmo = 68 (-0.68036,0.13607,0.13607) ==
 == 487-th k-point nmo = 68 (-0.61232,0.20411,0.06804) ==
 == 488-th k-point nmo = 68 (-0.54429,0.27214,0.00000) ==
 == 489-th k-point nmo = 68 (-0.47625,0.34018,-0.06804) ==
 == 490-th k-point nmo = 68 (-0.40822,0.40822,-0.13607) ==
 == 491-th k-point nmo = 68 (-0.34018,0.47625,-0.20411) ==
 == 492-th k-point nmo = 68 (-0.27214,0.54429,-0.27214) ==
 == 493-th k-point nmo = 68 (-0.20411,0.61232,-0.34018) ==
 == 494-th k-point nmo = 68 (-0.13607,0.68036,-0.40822) ==
 == 495-th k-point nmo = 68 (-0.61232,0.06804,0.20411) ==
 == 496-th k-point nmo = 68 (-0.54429,0.13607,0.13607) ==
 == 497-th k-point nmo = 68 (-0.47625,0.20411,0.06804) ==
 == 498-th k-point nmo = 68 (-0.40822,0.27214,-0.00000) ==
 == 499-th k-point nmo = 68 (-0.34018,0.34018,-0.06804) ==
 == 500-th k-point nmo = 68 (-0.27214,0.40822,-0.13607) ==
 == 501-th k-point nmo = 68 (-0.20411,0.47625,-0.20411) ==
 == 502-th k-point nmo = 68 (-0.13607,0.54429,-0.27214) ==
 == 503-th k-point nmo = 68 (-0.06804,0.61232,-0.34018) ==
 == 504-th k-point nmo = 68 (-0.54429,0.00000,0.27214) ==
 == 505-th k-point nmo = 68 (-0.47625,0.06804,0.20411) ==
 == 506-th k-point nmo = 68 (-0.40822,0.13607,0.13607) ==
 == 507-th k-point nmo = 68 (-0.34018,0.20411,0.06804) ==
 == 508-th k-point nmo = 68 (-0.27214,0.27214,0.00000) ==
 == 509-th k-point nmo = 68 (-0.20411,0.34018,-0.06804) ==
 == 510-th k-point nmo = 68 (-0.13607,0.40822,-0.13607) ==
 == 511-th k-point nmo = 68 (-0.06804,0.47625,-0.20411) ==
 == 512-th k-point nmo = 68 (0.00000,0.54429,-0.27214) ==
 == 513-th k-point nmo = 68 (-0.47625,-0.06804,0.34018) ==
 == 514-th k-point nmo = 68 (-0.40822,-0.00000,0.27214) ==
 == 515-th k-point nmo = 68 (-0.34018,0.06804,0.20411) ==
 == 516-th k-point nmo = 68 (-0.27214,0.13607,0.13607) ==
 == 517-th k-point nmo = 68 (-0.20411,0.20411,0.06804) ==
 == 518-th k-point nmo = 68 (-0.13607,0.27214,0.00000) ==
 == 519-th k-point nmo = 68 (-0.06804,0.34018,-0.06804) ==
 == 520-th k-point nmo = 68 (0.00000,0.40822,-0.13607) ==
 == 521-th k-point nmo = 68 (0.06804,0.47625,-0.20411) ==
 == 522-th k-point nmo = 68 (-0.40822,-0.13607,0.40822) ==
 == 523-th k-point nmo = 68 (-0.34018,-0.06804,0.34018) ==
 == 524-th k-point nmo = 68 (-0.27214,0.00000,0.27214) ==
 == 525-th k-point nmo = 68 (-0.20411,0.06804,0.20411) ==
 == 526-th k-point nmo = 68 (-0.13607,0.13607,0.13607) ==
 == 527-th k-point nmo = 68 (-0.06804,0.20411,0.06804) ==
 == 528-th k-point nmo = 68 (0.00000,0.27214,0.00000) ==
 == 529-th k-point nmo = 68 (0.06804,0.34018,-0.06804) ==
 == 530-th k-point nmo = 68 (0.13607,0.40822,-0.13607) ==
 == 531-th k-point nmo = 68 (-0.34018,-0.20411,0.47625) ==
 == 532-th k-point nmo = 68 (-0.27214,-0.13607,0.40822) ==
 == 533-th k-point nmo = 68 (-0.20411,-0.06804,0.34018) ==
 == 534-th k-point nmo = 68 (-0.13607,0.00000,0.27214) ==
 == 535-th k-point nmo = 68 (-0.06804,0.06804,0.20411) ==
 == 536-th k-point nmo = 68 (0.00000,0.13607,0.13607) ==
 == 537-th k-point nmo = 68 (0.06804,0.20411,0.06804) ==
 == 538-th k-point nmo = 68 (0.13607,0.27214,0.00000) ==
 == 539-th k-point nmo = 68 (0.20411,0.34018,-0.06804) ==
 == 540-th k-point nmo = 68 (-0.27214,-0.27214,0.54429) ==
 == 541-th k-point nmo = 68 (-0.20411,-0.20411,0.47625) ==
 == 542-th k-point nmo = 68 (-0.13607,-0.13607,0.40822) ==
 == 543-th k-point nmo = 68 (-0.06804,-0.06804,0.34018) ==
 == 544-th k-point nmo = 68 (0.00000,0.00000,0.27214) ==
 == 545-th k-point nmo = 68 (0.06804,0.06804,0.20411) ==
 == 546-th k-point nmo = 68 (0.13607,0.13607,0.13607) ==
 == 547-th k-point nmo = 68 (0.20411,0.20411,0.06804) ==
 == 548-th k-point nmo = 68 (0.27214,0.27214,0.00000) ==
 == 549-th k-point nmo = 68 (-0.20411,-0.34018,0.61232) ==
 == 550-th k-point nmo = 68 (-0.13607,-0.27214,0.54429) ==
 == 551-th k-point nmo = 68 (-0.06804,-0.20411,0.47625) ==
 == 552-th k-point nmo = 68 (0.00000,-0.13607,0.40822) ==
 == 553-th k-point nmo = 68 (0.06804,-0.06804,0.34018) ==
 == 554-th k-point nmo = 68 (0.13607,0.00000,0.27214) ==
 == 555-th k-point nmo = 68 (0.20411,0.06804,0.20411) ==
 == 556-th k-point nmo = 68 (0.27214,0.13607,0.13607) ==
 == 557-th k-point nmo = 68 (0.34018,0.20411,0.06804) ==
 == 558-th k-point nmo = 68 (-0.13607,-0.40822,0.68036) ==
 == 559-th k-point nmo = 68 (-0.06804,-0.34018,0.61232) ==
 == 560-th k-point nmo = 68 (0.00000,-0.27214,0.54429) ==
 == 561-th k-point nmo = 68 (0.06804,-0.20411,0.47625) ==
 == 562-th k-point nmo = 68 (0.13607,-0.13607,0.40822) ==
 == 563-th k-point nmo = 68 (0.20411,-0.06804,0.34018) ==
 == 564-th k-point nmo = 68 (0.27214,0.00000,0.27214) ==
 == 565-th k-point nmo = 68 (0.34018,0.06804,0.20411) ==
 == 566-th k-point nmo = 68 (0.40822,0.13607,0.13607) ==
 == 567-th k-point nmo = 68 (-0.74840,0.20411,0.20411) ==
 == 568-th k-point nmo = 68 (-0.68036,0.27214,0.13607) ==
 == 569-th k-point nmo = 68 (-0.61232,0.34018,0.06804) ==
 == 570-th k-point nmo = 68 (-0.54429,0.40822,-0.00000) ==
 == 571-th k-point nmo = 68 (-0.47625,0.47625,-0.06804) ==
 == 572-th k-point nmo = 68 (-0.40822,0.54429,-0.13607) ==
 == 573-th k-point nmo = 68 (-0.34018,0.61232,-0.20411) ==
 == 574-th k-point nmo = 68 (-0.27214,0.68036,-0.27214) ==
 == 575-th k-point nmo = 68 (-0.20411,0.74840,-0.34018) ==
 == 576-th k-point nmo = 68 (-0.68036,0.13607,0.27214) ==
 == 577-th k-point nmo = 68 (-0.61232,0.20411,0.20411) ==
 == 578-th k-point nmo = 68 (-0.54429,0.27214,0.13607) ==
 == 579-th k-point nmo = 68 (-0.47625,0.34018,0.06804) ==
 == 580-th k-point nmo = 68 (-0.40822,0.40822,-0.00000) ==
 == 581-th k-point nmo = 68 (-0.34018,0.47625,-0.06804) ==
 == 582-th k-point nmo = 68 (-0.27214,0.54429,-0.13607) ==
 == 583-th k-point nmo = 68 (-0.20411,0.61232,-0.20411) ==
 == 584-th k-point nmo = 68 (-0.13607,0.68036,-0.27214) ==
 == 585-th k-point nmo = 68 (-0.61232,0.06804,0.34018) ==
 == 586-th k-point nmo = 68 (-0.54429,0.13607,0.27214) ==
 == 587-th k-point nmo = 68 (-0.47625,0.20411,0.20411) ==
 == 588-th k-point nmo = 68 (-0.40822,0.27214,0.13607) ==
 == 589-th k-point nmo = 68 (-0.34018,0.34018,0.06804) ==
 == 590-th k-point nmo = 68 (-0.27214,0.40822,-0.00000) ==
 == 591-th k-point nmo = 68 (-0.20411,0.47625,-0.06804) ==
 == 592-th k-point nmo = 68 (-0.13607,0.54429,-0.13607) ==
 == 593-th k-point nmo = 68 (-0.06804,0.61232,-0.20411) ==
 == 594-th k-point nmo = 68 (-0.54429,0.00000,0.40822) ==
 == 595-th k-point nmo = 68 (-0.47625,0.06804,0.34018) ==
 == 596-th k-point nmo = 68 (-0.40822,0.13607,0.27214) ==
 == 597-th k-point nmo = 68 (-0.34018,0.20411,0.20411) ==
 == 598-th k-point nmo = 68 (-0.27214,0.27214,0.13607) ==
 == 599-th k-point nmo = 68 (-0.20411,0.34018,0.06804) ==
 == 600-th k-point nmo = 68 (-0.13607,0.40822,-0.00000) ==
 == 601-th k-point nmo = 68 (-0.06804,0.47625,-0.06804) ==
 == 602-th k-point nmo = 68 (0.00000,0.54429,-0.13607) ==
 == 603-th k-point nmo = 68 (-0.47625,-0.06804,0.47625) ==
 == 604-th k-point nmo = 68 (-0.40822,0.00000,0.40822) ==
 == 605-th k-point nmo = 68 (-0.34018,0.06804,0.34018) ==
[...]
 3.13190 3.48320 3.50564 3.83566 4.01875 4.08075 5.98430 7.99568
 == 699-th k-point (-0.06804,0.34018,0.20411) occupation: 14==
 -64.99273 -64.99271 -4.62161 -4.62145 -3.03244 -3.03244 -3.03227 -3.03189 -3.03174 -3.03172
 -0.09817 0.08142 0.16549 0.21601 0.37978 0.41116 0.45535 0.48115 0.59201 0.66233
 0.71434 0.73782 0.80460 0.85845 0.90533 0.98188 1.00110 1.08498 1.12570 1.20747
 1.23442 1.28291 1.32862 1.38755 1.43377 1.48403 1.52403 1.55098 1.56210 1.64890
 1.66464 1.72611 1.76994 1.83449 1.90042 1.94354 1.97031 2.02402 2.05688 2.14355
 2.18083 2.22088 2.25902 2.31431 2.37516 2.41859 2.45246 2.51217 2.60177 2.69605
 3.06966 3.47242 3.49909 3.89140 3.96238 4.02995 6.64077 7.72646
 == 700-th k-point (0.00000,0.40822,0.13607) occupation: 14==
 -64.99272 -64.99271 -4.62160 -4.62147 -3.03246 -3.03245 -3.03223 -3.03194 -3.03172 -3.03171
 -0.08770 0.08048 0.16137 0.18684 0.34461 0.38270 0.47975 0.54419 0.63364 0.69460
 0.71585 0.77672 0.79993 0.83550 0.89438 0.94222 0.99156 1.04460 1.11709 1.18883
 1.23100 1.23790 1.31835 1.38591 1.42216 1.42326 1.54876 1.59392 1.62909 1.68830
 1.69293 1.71818 1.76908 1.85955 1.88755 1.92880 1.99060 2.05838 2.05943 2.13199
 2.15798 2.19372 2.25161 2.32125 2.32647 2.38873 2.39403 2.50497 2.58472 2.82189
 3.09805 3.41471 3.49187 3.87487 3.90168 4.03874 6.84534 6.98746
 == 701-th k-point (0.06804,0.47625,0.06804) occupation: 14==
 -64.99272 -64.99269 -4.62158 -4.62149 -3.03247 -3.03246 -3.03218 -3.03198 -3.03172 -3.03170
 -0.06692 0.05298 0.15898 0.17981 0.31327 0.35323 0.55869 0.56097 0.70310 0.70540
 0.72196 0.72911 0.82823 0.85182 0.87587 0.95960 0.97072 1.01602 1.12065 1.16866
 1.19318 1.21802 1.23876 1.33607 1.40586 1.45032 1.59634 1.60065 1.65410 1.70272
 1.74490 1.76407 1.81477 1.81813 1.84658 1.94052 2.01050 2.03173 2.10980 2.12251
 2.14985 2.21901 2.27421 2.32655 2.34555 2.37210 2.44286 2.53639 2.55924 2.81699
 3.18861 3.30313 3.56944 3.83105 3.95446 4.10340 5.56641 7.30309
 == 702-th k-point (-0.40822,-0.13607,0.68036) occupation: 14==
 -64.99272 -64.99271 -4.62158 -4.62149 -3.03246 -3.03245 -3.03218 -3.03197 -3.03171 -3.03169
 -0.05719 0.04045 0.13691 0.17548 0.35993 0.42343 0.46320 0.55945 0.61018 0.68500
 0.73747 0.78955 0.81798 0.86181 0.93464 0.97588 1.01651 1.04429 1.07061 1.14764
 1.16927 1.18746 1.27004 1.37610 1.40977 1.47923 1.50509 1.56417 1.58541 1.65363
 1.69761 1.74105 1.80735 1.85837 1.89926 1.93306 1.97839 2.02264 2.07390 2.12576
 2.19024 2.21905 2.27475 2.36435 2.38891 2.41166 2.45246 2.50682 2.62079 2.73840
 2.96118 3.23541 3.57321 3.76744 3.85301 3.90386 6.33864 7.13763
 == 703-th k-point (-0.34018,-0.06804,0.61232) occupation: 14==
 -64.99271 -64.99271 -4.62155 -4.62151 -3.03246 -3.03246 -3.03213 -3.03203 -3.03169 -3.03168
 -0.02747 0.01520 0.12539 0.14910 0.42046 0.42423 0.44893 0.51423 0.63019 0.68616
 0.75344 0.80315 0.85239 0.90864 0.92824 0.97489 1.01856 1.02999 1.04430 1.05312
 1.15272 1.21432 1.26606 1.34926 1.41882 1.43674 1.47827 1.51006 1.57116 1.58923
 1.74718 1.77474 1.84330 1.85444 1.95402 1.96722 1.99892 2.02864 2.05307 2.13335
 2.19095 2.20014 2.25477 2.31067 2.39675 2.47094 2.48998 2.49923 2.64111 2.72852
 2.96672 3.10127 3.65194 3.73604 3.77001 3.77212 6.44229 6.60108
 == 704-th k-point (-0.27214,0.00000,0.54429) occupation: 14==
 -64.99271 -64.99271 -4.62155 -4.62151 -3.03246 -3.03246 -3.03213 -3.03203 -3.03169 -3.03168
 -0.02747 0.01520 0.12539 0.14910 0.42046 0.42423 0.44893 0.51423 0.63019 0.68616
 0.75344 0.80315 0.85239 0.90864 0.92824 0.97489 1.01856 1.02999 1.04430 1.05312
 1.15272 1.21432 1.26606 1.34927 1.41882 1.43674 1.47827 1.51006 1.57117 1.58923
 1.74718 1.77474 1.84330 1.85444 1.95402 1.96722 1.99891 2.02865 2.05307 2.13335
 2.19095 2.20015 2.25477 2.31068 2.39677 2.47093 2.48998 2.49923 2.64116 2.72851
 2.96673 3.10126 3.65193 3.73604 3.77002 3.77213 6.44227 6.60111
 == 705-th k-point (-0.20411,0.06804,0.47625) occupation: 14==
 -64.99272 -64.99271 -4.62158 -4.62149 -3.03246 -3.03245 -3.03218 -3.03197 -3.03171 -3.03169
 -0.05719 0.04045 0.13691 0.17548 0.35993 0.42343 0.46320 0.55945 0.61018 0.68500
 0.73747 0.78955 0.81798 0.86181 0.93464 0.97588 1.01651 1.04429 1.07061 1.14764
 1.16927 1.18746 1.27004 1.37612 1.40977 1.47923 1.50510 1.56417 1.58544 1.65364
 1.69761 1.74105 1.80736 1.85838 1.89926 1.93308 1.97839 2.02265 2.07391 2.12576
 2.19024 2.21906 2.27477 2.36438 2.38891 2.41166 2.45246 2.50686 2.62093 2.73841
 2.96119 3.23545 3.57321 3.76746 3.85303 3.90387 6.33869 7.13765
 == 706-th k-point (-0.13607,0.13607,0.40822) occupation: 14==
 -64.99273 -64.99270 -4.62160 -4.62147 -3.03246 -3.03245 -3.03224 -3.03192 -3.03172 -3.03171
 -0.08224 0.06132 0.16317 0.19693 0.33838 0.43326 0.47304 0.48803 0.67251 0.69244
 0.70840 0.72470 0.77387 0.86867 0.94070 0.99327 1.00084 1.02071 1.10573 1.15909
 1.22305 1.28512 1.30192 1.39434 1.43284 1.46902 1.51429 1.52314 1.63047 1.66098
 1.66168 1.71663 1.80214 1.81107 1.86762 1.98137 2.01584 2.02947 2.07485 2.11011
 2.17316 2.26986 2.29462 2.30525 2.38788 2.39823 2.42846 2.52604 2.55569 2.70983
 3.28456 3.49643 3.50079 3.80108 3.94978 4.02057 5.75010 8.06505
 == 707-th k-point (-0.06804,0.20411,0.34018) occupation: 14==
 -64.99273 -64.99271 -4.62161 -4.62145 -3.03244 -3.03244 -3.03227 -3.03189 -3.03174 -3.03172
 -0.09817 0.08142 0.16549 0.21601 0.37978 0.41116 0.45535 0.48115 0.59201 0.66233
 0.71434 0.73782 0.80460 0.85845 0.90533 0.98188 1.00110 1.08498 1.12570 1.20747
 1.23442 1.28291 1.32862 1.38755 1.43377 1.48403 1.52403 1.55098 1.56210 1.64890
 1.66464 1.72611 1.76994 1.83449 1.90042 1.94354 1.97031 2.02402 2.05688 2.14355
 2.18083 2.22088 2.25902 2.31431 2.37516 2.41859 2.45246 2.51217 2.60177 2.69605
 3.06966 3.47242 3.49909 3.89140 3.96238 4.02995 6.64077 7.72646
 == 708-th k-point (0.00000,0.27214,0.27214) occupation: 14==
 -64.99273 -64.99272 -4.62162 -4.62145 -3.03243 -3.03243 -3.03229 -3.03188 -3.03175 -3.03172
 -0.10361 0.09399 0.15129 0.23630 0.37816 0.43700 0.45070 0.49358 0.51541 0.66599
 0.71663 0.73774 0.78371 0.87637 0.93493 0.95282 1.01151 1.10696 1.14657 1.19570
 1.24643 1.28019 1.34517 1.38047 1.41268 1.43754 1.54363 1.58432 1.60104 1.64788
 1.66629 1.74373 1.75970 1.78515 1.90285 1.92064 1.94534 2.05467 2.09990 2.12706
 2.15545 2.15854 2.32092 2.33465 2.35035 2.39451 2.50688 2.53179 2.64423 2.64669
 2.92989 3.46782 3.51736 3.93970 3.95575 4.05116 7.03924 7.62450
 == 709-th k-point (0.06804,0.34018,0.20411) occupation: 14==
 -64.99273 -64.99271 -4.62161 -4.62145 -3.03244 -3.03244 -3.03227 -3.03189 -3.03174 -3.03172
 -0.09817 0.08142 0.16549 0.21601 0.37978 0.41116 0.45535 0.48115 0.59201 0.66233
 0.71434 0.73782 0.80460 0.85845 0.90533 0.98188 1.00110 1.08497 1.12570 1.20747
 1.23442 1.28291 1.32862 1.38755 1.43377 1.48403 1.52403 1.55098 1.56210 1.64890
 1.66464 1.72611 1.76993 1.83449 1.90042 1.94353 1.97031 2.02401 2.05688 2.14355
 2.18083 2.22088 2.25900 2.31427 2.37516 2.41856 2.45246 2.51216 2.60175 2.69603
 3.06965 3.47242 3.49908 3.89140 3.96238 4.02993 6.64065 7.72643
 == 710-th k-point (0.13607,0.40822,0.13607) occupation: 14==
 -64.99273 -64.99270 -4.62160 -4.62147 -3.03246 -3.03245 -3.03224 -3.03192 -3.03172 -3.03171
 -0.08224 0.06132 0.16317 0.19693 0.33838 0.43326 0.47304 0.48803 0.67251 0.69244
 0.70840 0.72470 0.77387 0.86867 0.94070 0.99327 1.00084 1.02071 1.10573 1.15909
 1.22305 1.28511 1.30192 1.39433 1.43283 1.46902 1.51428 1.52314 1.63043 1.66098
 1.66166 1.71663 1.80212 1.81107 1.86762 1.98137 2.01583 2.02947 2.07481 2.11011
 2.17315 2.26985 2.29460 2.30525 2.38788 2.39822 2.42844 2.52590 2.55564 2.70980
 3.28455 3.49617 3.50079 3.80106 3.94977 4.02055 5.75009 8.06495
 == 711-th k-point (-0.34018,-0.20411,0.74840) occupation: 14==
 -64.99273 -64.99271 -4.62159 -4.62148 -3.03245 -3.03244 -3.03225 -3.03191 -3.03173 -3.03170
 -0.06874 0.03371 0.15848 0.20392 0.38373 0.39612 0.47881 0.52102 0.59936 0.65348
 0.70660 0.76298 0.80248 0.88281 0.92993 1.01834 1.02764 1.06256 1.11204 1.15828
 1.20834 1.28219 1.31777 1.37273 1.42460 1.45065 1.47995 1.50773 1.58280 1.63100
 1.66539 1.75013 1.77320 1.84948 1.89353 1.92095 1.95084 2.02256 2.08853 2.17600
 2.19549 2.23357 2.29394 2.36575 2.43474 2.45696 2.48612 2.51946 2.59265 2.65514
 3.08234 3.30743 3.55595 3.70031 3.95591 4.03131 6.39977 7.41663
 == 712-th k-point (-0.27214,-0.13607,0.68036) occupation: 14==
 -64.99272 -64.99271 -4.62157 -4.62150 -3.03246 -3.03245 -3.03218 -3.03198 -3.03171 -3.03168
 -0.04364 0.02465 0.12263 0.17966 0.37083 0.44550 0.50343 0.52275 0.55715 0.65483
 0.76646 0.78685 0.88587 0.89300 0.93137 0.94545 1.00105 1.03212 1.09092 1.12852
 1.16069 1.25917 1.26986 1.34399 1.38444 1.43031 1.51362 1.53719 1.55689 1.60859
 1.72276 1.80749 1.81802 1.83906 1.90753 1.92799 1.94474 2.01199 2.07702 2.15912
 2.18139 2.24918 2.26928 2.35217 2.41844 2.44621 2.47561 2.56112 2.58629 2.71681
 2.94587 3.15719 3.63301 3.67867 3.85688 3.89542 6.25409 6.95150
 == 713-th k-point (-0.20411,-0.06804,0.61232) occupation: 14==
 -64.99272 -64.99271 -4.62155 -4.62152 -3.03247 -3.03245 -3.03212 -3.03204 -3.03170 -3.03168
 -0.01838 0.00353 0.12393 0.16164 0.35228 0.41345 0.52532 0.53515 0.63169 0.66516
 0.76759 0.80765 0.86882 0.91181 0.91326 0.92243 0.99578 1.04187 1.05553 1.11794
 1.14869 1.18726 1.25242 1.27200 1.42825 1.45295 1.53472 1.54544 1.57194 1.60324
 1.79098 1.79724 1.83554 1.84319 1.91902 1.95152 2.00259 2.01377 2.05638 2.13046
 2.20542 2.20730 2.29243 2.33166 2.39765 2.42984 2.45838 2.55831 2.64942 2.70176
 2.97867 3.02511 3.68281 3.71348 3.77686 3.81734 6.21343 6.86461
 == 714-th k-point (-0.13607,0.00000,0.54429) occupation: 14==
 -64.99271 -64.99271 -4.62156 -4.62151 -3.03246 -3.03245 -3.03213 -3.03203 -3.03170 -3.03169
 -0.03775 0.02057 0.15064 0.15834 0.33840 0.35016 0.54610 0.61387 0.63994 0.70381
 0.73375 0.79167 0.80786 0.88201 0.88794 0.95337 1.01866 1.06067 1.07093 1.08755
 1.17923 1.18790 1.20087 1.26143 1.45091 1.46915 1.57187 1.57300 1.64505 1.66761
 1.74134 1.78401 1.83862 1.83884 1.90079 1.92326 1.99595 2.05682 2.10646 2.11192
 2.16596 2.21574 2.28296 2.32399 2.37158 2.39909 2.47430 2.52653 2.67396 2.76036
 2.90565 3.11031 3.65016 3.77800 3.82219 3.89841 6.58496 6.60639
 == 715-th k-point (-0.06804,0.06804,0.47625) occupation: 14==
 -64.99272 -64.99269 -4.62158 -4.62149 -3.03247 -3.03246 -3.03218 -3.03198 -3.03172 -3.03170
 -0.06692 0.05298 0.15898 0.17981 0.31327 0.35323 0.55869 0.56097 0.70310 0.70540
 0.72196 0.72911 0.82823 0.85182 0.87587 0.95960 0.97072 1.01602 1.12065 1.16866
 1.19318 1.21803 1.23876 1.33607 1.40586 1.45032 1.59634 1.60065 1.65410 1.70274
 1.74491 1.76407 1.81477 1.81813 1.84658 1.94057 2.01053 2.03173 2.10981 2.12251
 2.14985 2.21902 2.27421 2.32655 2.34558 2.37210 2.44295 2.53645 2.55941 2.81711
 3.18873 3.30325 3.56943 3.83105 3.95447 4.10344 5.56642 7.30347
 == 716-th k-point (0.00000,0.13607,0.40822) occupation: 14==
 -64.99272 -64.99271 -4.62160 -4.62147 -3.03246 -3.03245 -3.03223 -3.03194 -3.03172 -3.03171
 -0.08770 0.08048 0.16137 0.18684 0.34461 0.38270 0.47975 0.54419 0.63364 0.69460
 0.71585 0.77672 0.79993 0.83550 0.89438 0.94222 0.99156 1.04460 1.11709 1.18883
 1.23100 1.23790 1.31835 1.38591 1.42216 1.42326 1.54876 1.59392 1.62909 1.68830
 1.69293 1.71818 1.76908 1.85955 1.88755 1.92880 1.99060 2.05838 2.05943 2.13199
 2.15798 2.19372 2.25161 2.32125 2.32647 2.38873 2.39403 2.50497 2.58472 2.82189
 3.09805 3.41471 3.49187 3.87487 3.90168 4.03874 6.84534 6.98746
 == 717-th k-point (0.06804,0.20411,0.34018) occupation: 14==
 -64.99273 -64.99271 -4.62161 -4.62145 -3.03244 -3.03244 -3.03227 -3.03189 -3.03174 -3.03172
 -0.09817 0.08142 0.16549 0.21601 0.37978 0.41116 0.45535 0.48115 0.59201 0.66233
 0.71434 0.73782 0.80460 0.85845 0.90533 0.98188 1.00110 1.08497 1.12570 1.20747
 1.23442 1.28291 1.32862 1.38755 1.43377 1.48403 1.52403 1.55098 1.56210 1.64890
 1.66464 1.72611 1.76993 1.83449 1.90042 1.94353 1.97031 2.02401 2.05688 2.14355
 2.18083 2.22088 2.25900 2.31427 2.37516 2.41856 2.45246 2.51216 2.60175 2.69603
 3.06965 3.47242 3.49908 3.89140 3.96238 4.02993 6.64065 7.72643
 == 718-th k-point (0.13607,0.27214,0.27214) occupation: 14==
 -64.99273 -64.99270 -4.62161 -4.62145 -3.03244 -3.03244 -3.03230 -3.03186 -3.03175 -3.03173
 -0.09801 0.06127 0.19240 0.23573 0.36640 0.41276 0.41549 0.55094 0.56111 0.62862
 0.69969 0.73315 0.82105 0.85373 0.90622 0.95757 1.04255 1.14849 1.17433 1.18588
 1.22447 1.25999 1.35267 1.41027 1.43659 1.46361 1.47838 1.53105 1.55517 1.61030
 1.62917 1.74893 1.82668 1.83090 1.88893 1.91045 2.01990 2.03890 2.03915 2.14767
 2.22922 2.25144 2.28341 2.34499 2.42738 2.44149 2.49762 2.52408 2.55971 2.59711
 3.13189 3.48320 3.50564 3.83563 4.01875 4.08074 5.98410 7.99561
 == 719-th k-point (0.20411,0.34018,0.20411) occupation: 14==
 -64.99273 -64.99268 -4.62160 -4.62146 -3.03245 -3.03244 -3.03229 -3.03186 -3.03174 -3.03173
 -0.08772 0.04365 0.20331 0.21824 0.35912 0.40366 0.43021 0.52986 0.61661 0.66975
 0.68973 0.72846 0.75988 0.85885 0.93009 0.99563 1.05160 1.12134 1.13589 1.18731
 1.22493 1.31688 1.33108 1.40128 1.40860 1.45075 1.49988 1.51244 1.55269 1.59890
 1.61916 1.73032 1.82686 1.83270 1.89677 1.96529 1.99620 2.02156 2.07463 2.17402
 2.24291 2.27102 2.28755 2.36521 2.43747 2.44418 2.46822 2.50646 2.55000 2.60466
 3.35467 3.49171 3.53051 3.74120 4.04873 4.05736 5.25924 8.10842
 == 720-th k-point (-0.27214,-0.27214,0.81643) occupation: 14==
 -64.99273 -64.99269 -4.62160 -4.62147 -3.03244 -3.03244 -3.03228 -3.03187 -3.03174 -3.03172
 -0.07367 0.02245 0.19367 0.22340 0.35948 0.40449 0.42043 0.57962 0.61884 0.63436
 0.69402 0.75858 0.77159 0.79191 0.98746 1.03970 1.07981 1.08939 1.13309 1.15773
 1.25378 1.27494 1.35197 1.36355 1.39835 1.45356 1.46198 1.52651 1.57995 1.59632
 1.65584 1.67932 1.83674 1.85518 1.92456 1.95046 1.95108 2.04065 2.05584 2.14356
 2.28914 2.30440 2.35194 2.38025 2.40802 2.45348 2.49109 2.51624 2.52167 2.57052
 3.24262 3.39740 3.55019 3.61778 4.05596 4.09217 5.35981 7.64090
 == 721-th k-point (-0.20411,-0.20411,0.74840) occupation: 14==
 -64.99273 -64.99270 -4.62158 -4.62148 -3.03245 -3.03245 -3.03222 -3.03193 -3.03172 -3.03169
 -0.05798 0.02640 0.14396 0.20266 0.34412 0.46428 0.47372 0.50714 0.61732 0.63034
 0.73353 0.77862 0.79291 0.90713 0.97283 0.98711 1.00152 1.05576 1.09027 1.12480
 1.23310 1.27108 1.27516 1.35175 1.42918 1.44347 1.48489 1.50372 1.60726 1.66124
 1.67460 1.77158 1.78974 1.83016 1.87980 1.91793 1.97143 1.99750 2.11396 2.14932
 2.18331 2.28110 2.31132 2.35559 2.41302 2.42959 2.46132 2.54769 2.54974 2.68283
 3.11373 3.28018 3.60213 3.64500 3.96640 3.98990 5.89977 7.56522
 == 722-th k-point (-0.13607,-0.13607,0.68036) occupation: 14==
 -64.99273 -64.99269 -4.62156 -4.62151 -3.03246 -3.03245 -3.03215 -3.03200 -3.03171 -3.03168
 -0.03756 0.01982 0.12562 0.18378 0.32075 0.41282 0.54669 0.55074 0.63017 0.63690
 0.78991 0.79436 0.82883 0.89112 0.90518 0.96498 1.00805 1.04990 1.05516 1.15759
 1.16627 1.17829 1.20785 1.33552 1.40807 1.48635 1.48892 1.53869 1.65966 1.68541
 1.77776 1.78816 1.81923 1.84257 1.86585 1.92919 2.00553 2.00988 2.05259 2.14959
 2.16775 2.25947 2.28398 2.37682 2.38747 2.43029 2.44770 2.51387 2.58082 2.72005
 3.01381 3.02933 3.63418 3.72055 3.86002 3.94723 5.54574 7.57198
 == 723-th k-point (-0.06804,-0.06804,0.61232) occupation: 14==
 -64.99272 -64.99269 -4.62154 -4.62153 -3.03246 -3.03245 -3.03209 -3.03206 -3.03172 -3.03169
 -0.01355 -0.00738 0.14873 0.17270 0.30760 0.33830 0.61872 0.62945 0.65111 0.66183
 0.77738 0.78588 0.78682 0.81102 0.94318 0.97896 1.03095 1.05514 1.08434 1.09184
 1.10561 1.16175 1.21451 1.26591 1.41864 1.47552 1.57905 1.58252 1.72173 1.75909
 1.78285 1.78958 1.79047 1.85175 1.88591 1.92413 2.06496 2.06527 2.08428 2.14673
 2.19970 2.20442 2.24083 2.32411 2.35878 2.40098 2.55154 2.56757 2.59748 2.73781
 2.85401 2.92758 3.73744 3.74814 3.89793 4.02164 5.43554 7.12291
 == 724-th k-point (0.00000,0.00000,0.54429) occupation: 14==
 -64.99269 -64.99269 -4.62156 -4.62151 -3.03246 -3.03246 -3.03212 -3.03203 -3.03172 -3.03172
 -0.04207 0.02113 0.17131 0.17131 0.29910 0.31413 0.62471 0.62471 0.71399 0.72290
 0.72290 0.72490 0.78089 0.79412 0.95269 0.99447 0.99447 1.00367 1.11790 1.11792
 1.13534 1.15823 1.24793 1.30192 1.41767 1.41767 1.63608 1.63609 1.72103 1.74373
 1.76351 1.76946 1.82403 1.87701 1.87701 1.91678 2.01735 2.01774 2.15216 2.15230
 2.19334 2.19345 2.28607 2.28615 2.30237 2.35841 2.54359 2.59131 2.59183 2.80354
 3.05176 3.05229 3.72071 3.91530 4.16508 4.16552 5.38380 5.56718
 == 725-th k-point (0.06804,0.06804,0.47625) occupation: 14==
 -64.99272 -64.99269 -4.62158 -4.62149 -3.03247 -3.03246 -3.03218 -3.03198 -3.03172 -3.03170
 -0.06692 0.05298 0.15898 0.17981 0.31327 0.35323 0.55869 0.56097 0.70310 0.70540
 0.72196 0.72911 0.82823 0.85182 0.87587 0.95960 0.97072 1.01602 1.12065 1.16866
 1.19318 1.21802 1.23876 1.33607 1.40586 1.45032 1.59634 1.60065 1.65410 1.70272
 1.74490 1.76407 1.81477 1.81813 1.84658 1.94052 2.01050 2.03173 2.10980 2.12251
 2.14985 2.21901 2.27421 2.32655 2.34555 2.37210 2.44286 2.53639 2.55924 2.81699
 3.18861 3.30313 3.56944 3.83105 3.95446 4.10340 5.56641 7.30309
 == 726-th k-point (0.13607,0.13607,0.40822) occupation: 14==
 -64.99273 -64.99270 -4.62160 -4.62147 -3.03246 -3.03245 -3.03224 -3.03192 -3.03172 -3.03171
 -0.08224 0.06132 0.16317 0.19693 0.33838 0.43326 0.47304 0.48803 0.67251 0.69244
 0.70840 0.72470 0.77387 0.86867 0.94070 0.99327 1.00084 1.02071 1.10573 1.15909
 1.22305 1.28511 1.30192 1.39433 1.43283 1.46902 1.51428 1.52314 1.63043 1.66098
 1.66166 1.71663 1.80212 1.81107 1.86762 1.98137 2.01583 2.02947 2.07481 2.11011
 2.17315 2.26985 2.29460 2.30525 2.38788 2.39822 2.42844 2.52590 2.55564 2.70980
 3.28455 3.49617 3.50079 3.80106 3.94977 4.02055 5.75009 8.06495
 == 727-th k-point (0.20411,0.20411,0.34018) occupation: 14==
 -64.99273 -64.99268 -4.62160 -4.62146 -3.03245 -3.03244 -3.03229 -3.03186 -3.03174 -3.03173
 -0.08772 0.04365 0.20331 0.21824 0.35912 0.40366 0.43021 0.52986 0.61661 0.66975
 0.68973 0.72846 0.75988 0.85885 0.93009 0.99563 1.05160 1.12134 1.13589 1.18731
 1.22493 1.31688 1.33108 1.40128 1.40860 1.45075 1.49988 1.51244 1.55269 1.59890
 1.61916 1.73032 1.82686 1.83270 1.89677 1.96529 1.99620 2.02156 2.07463 2.17402
 2.24291 2.27102 2.28755 2.36521 2.43747 2.44418 2.46822 2.50646 2.55000 2.60466
 3.35467 3.49171 3.53051 3.74120 4.04873 4.05736 5.25924 8.10842
 == 728-th k-point (0.27214,0.27214,0.27214) occupation: 14==
 -64.99273 -64.99265 -4.62160 -4.62146 -3.03244 -3.03244 -3.03231 -3.03183 -3.03175 -3.03175
 -0.08423 0.02758 0.23163 0.23163 0.33559 0.40284 0.40284 0.56837 0.64822 0.64822
 0.68077 0.74002 0.74002 0.78183 0.96343 1.07000 1.07000 1.09498 1.18907 1.18907
 1.22919 1.30049 1.30049 1.37273 1.37273 1.41966 1.54198 1.54198 1.56545 1.56545
 1.58530 1.66947 1.86844 1.92066 1.94306 1.94306 2.00361 2.02069 2.02069 2.14796
 2.31056 2.31056 2.41021 2.41845 2.41845 2.46059 2.46059 2.48973 2.48973 2.53785
 3.43463 3.45811 3.45811 3.65694 3.71327 4.09353 4.09353 7.95808
 ---------------------------------------------------------------------------
 VBM is at 364-th k-point with 7.51204 eV
 CBM is at 4-th k-point with 8.13890 eV
 Band gap is 0.62685 eV


           Ground-State Mulliken Net Atomic Charges

      Atom                 Charge (a.u.)          Spin (a.u.)
   --------------------------------------------------------
      1 Si               (-0.000000,0.000000)    (0.000000,0.000000)
      2 Si               (0.000000,-0.000000)    (0.000000,0.000000)
   --------------------------------------------------------
  Sum of atomic charges =      (-0.000000,0.000000)
  Sum of spin   charges =       (0.000000,0.000000)



 Total job time:  284.21 s.
 Tue Sep  9 09:52:00 2025


        *************************************************************
        *                                                           *
        *  Thank you very much for using QCPBC. Have a nice day.    *
        *                                                           *
        *************************************************************

Running job 1 of 1
