                  Welcome to Q-Chem
           with Periodic Boundary Condition
     A Quantum Leap Into The Future Of Chemistry

 Adam Rettig, Xintian Feng, Meng-Fu Chen, Hieu Dinh, Stephen Quiton,
 Anton Ni, Paul J. Robinson, Jinghong Zhang, Joonho Lee

Contributors to earlier versions of Q-Chem not listed above:
 Evgeny Epifanovsky, Leo Cunha, Jerome F. Gonthier, Kuan-Yu Liu
 Input file: /n/netscratch/joonholee_lab/Lab/hieudinh//si_2_ccpvtz_omega_0.9_444.scratch20250909091633/si_2_ccpvtz_omega_0.9_444.0
 Scratch folder: /n/netscratch/joonholee_lab/Lab/hieudinh//si_2_ccpvtz_omega_0.9_444.scratch20250909091633
 Auxillary files located at: /n/holylabs/LABS/joonholee_lab/Lab/qchem_base/qcaux
 Q-Chem begins on Tue Sep  9 09:16:34 2025

 -------------------------------------------------------------
 User input:
 -------------------------------------------------------------
 $lattice
 3
 0.000000 5.130600 5.130600
 5.130600 0.000000 5.130600
 5.130600 5.130600 0.000000
 $end
 
 $unitcell
 ABSOLUTE
 0 1
 Si 0.000000 0.000000 0.000000
 Si 2.565300 2.565300 2.565300
 $end
 
 $rem
 jobtype = sp
 method = pbe
 scf_convergence = 5
 scf_guess = autosad
 scf_algorithm = diis_gdm
 basis = cc-pvtz
 aux_basis = cc-pvtz-jk
 input_bohr = true
 symmetry = false
 rsdf_print_level 1
 is_basis_uctr true
 
 mp_mesh = [4,4,4]
 
 integral_direct true
 bvk_cgto true
 
 thresh 14
 mem_total 1000000
 threads 32
 
 MAX_SCF_CYCLES 500
 madelung = false
 omega 0.9
 do_rij_bigmem true
 automate_g true
 print_level 10
 grid_type_xc 1
 
 thresh_1e2c_sp 1e-14
 thresh_2e3c_bra_ket_sep 1e-10
 thresh_g 1e-12
 $end
 
 -------------------------------------------------------------
 Running PBC job

 Requested Exchange Correlation Functionals: 
  DFT Exchange:  1.00000 pbe_x
  DFT Correlation:  1.00000 pbe_c
 using 32 threads for computing.
 ---------------------------------------------------------------
      Coordinates of Atoms in Central Unit Cell (Angstroms)
    I     Atom         X            Y            Z
 ---------------------------------------------------------------
    1      Si      0.000000     0.000000     0.000000
    2      Si      1.357498     1.357498     1.357498
 ---------------------------------------------------------------
 --------------------------------------------------
              Lattice Vectors (Angstroms)
              X            Y            Z
 --------------------------------------------------
   X       0.000000     2.714997     2.714997
   Y       2.714997     0.000000     2.714997
   Z       2.714997     2.714997     0.000000
 --------------------------------------------------
 --------------------------------------------------
       Reciprocal Lattice Vectors (Angstroms^-1)
              X            Y            Z
 --------------------------------------------------
   X      -1.157126     1.157126     1.157126
   Y       1.157126    -1.157126     1.157126
   Z       1.157126     1.157126    -1.157126
 --------------------------------------------------

 Single point calculation requested

 Hamiltonian contributions:
 List of terms in Hamiltonian: kpts_nn, kpts_kinetic, kpts_vnuc_df, kpts_xc, kpts_rij_bigmem

 K-Points calculation started.

 Basis set information about using solid harmonic (1) or Cartesian (0):
  si : D(1) D(1) F(1) 

 Basis set information about using solid harmonic (1) or Cartesian (0):
  si : D(1) D(1) D(1) D(1) D(1) D(1) D(1) D(1) D(1) F(1) F(1) F(1) G(1) 

 There are 68 basis functions in the central unit cell.
 Print atomic basis of atoms in the central unit cell:
 -------------------------------------------------------------
2 104 104 24

  0.00000000000000e+00  0.00000000000000e+00  0.00000000000000e+00
  2.56530000000000e+00  2.56530000000000e+00  2.56530000000000e+00

  2.54900000000000e+05
  3.81900000000000e+04
  8.69000000000000e+03
  2.46200000000000e+03
  8.04800000000000e+02
  2.91300000000000e+02
  1.13600000000000e+02
  4.67500000000000e+01
  1.98200000000000e+01
  7.70800000000000e+00
  3.34000000000000e+00
  2.54900000000000e+05
  3.81900000000000e+04
  8.69000000000000e+03
  8.04800000000000e+02
  2.91300000000000e+02
  1.13600000000000e+02
  4.67500000000000e+01
  1.98200000000000e+01
  7.70800000000000e+00
  3.34000000000000e+00
  1.40200000000000e+00
  2.54900000000000e+05
  3.81900000000000e+04
  8.69000000000000e+03
  2.91300000000000e+02
  1.13600000000000e+02
  4.67500000000000e+01
  1.98200000000000e+01
  7.70800000000000e+00
  3.34000000000000e+00
  1.40200000000000e+00
  2.07000000000000e-01
  4.38700000000000e-01
  7.94400000000000e-02
  4.81500000000000e+02
  1.13900000000000e+02
  3.62300000000000e+01
  1.33400000000000e+01
  5.25200000000000e+00
  2.12000000000000e+00
  1.13900000000000e+02
  3.62300000000000e+01
  1.33400000000000e+01
  5.25200000000000e+00
  2.12000000000000e+00
  2.52800000000000e-01
  8.56100000000000e-01
  7.88900000000000e-02
  4.81000000000000e-01
  1.59000000000000e-01
  3.36000000000000e-01
  2.54900000000000e+05
  3.81900000000000e+04
  8.69000000000000e+03
  2.46200000000000e+03
  8.04800000000000e+02
  2.91300000000000e+02
  1.13600000000000e+02
  4.67500000000000e+01
  1.98200000000000e+01
  7.70800000000000e+00
  3.34000000000000e+00
  2.54900000000000e+05
  3.81900000000000e+04
  8.69000000000000e+03
  8.04800000000000e+02
  2.91300000000000e+02
  1.13600000000000e+02
  4.67500000000000e+01
  1.98200000000000e+01
  7.70800000000000e+00
  3.34000000000000e+00
  1.40200000000000e+00
  2.54900000000000e+05
  3.81900000000000e+04
  8.69000000000000e+03
  2.91300000000000e+02
  1.13600000000000e+02
  4.67500000000000e+01
  1.98200000000000e+01
  7.70800000000000e+00
  3.34000000000000e+00
  1.40200000000000e+00
  2.07000000000000e-01
  4.38700000000000e-01
  7.94400000000000e-02
  4.81500000000000e+02
  1.13900000000000e+02
  3.62300000000000e+01
  1.33400000000000e+01
  5.25200000000000e+00
  2.12000000000000e+00
  1.13900000000000e+02
  3.62300000000000e+01
  1.33400000000000e+01
  5.25200000000000e+00
  2.12000000000000e+00
  2.52800000000000e-01
  8.56100000000000e-01
  7.88900000000000e-02
  4.81000000000000e-01
  1.59000000000000e-01
  3.36000000000000e-01

  5.06121931014315e-01
  9.46667895564849e-01
  1.63484840115776e+00
  2.64073594005923e+00
  3.97699155153283e+00
  5.40905960736848e+00
  6.15868961670172e+00
  4.99170532032548e+00
  2.02857976424901e+00
  1.82839763527352e-01
 -1.25640690342342e-02
  1.10808750449959e-03
  1.94415577975663e-03
  2.70023730632789e-03
 -1.69098200112149e-02
 -8.66890848691569e-02
 -2.76125946359713e-01
 -6.25588788447604e-01
 -6.61701688370681e-01
  3.11114524237060e-01
  9.56658906468163e-01
  4.36891217824705e-01
  1.05873342256663e-04
  1.52975802748887e-04
  4.28394863673135e-04
 -4.94070443505333e-03
 -1.17298035021286e-02
 -2.95023896611804e-02
 -1.71455066569284e-02
  3.00007138114875e-03
 -6.19326651465540e-02
 -2.59989143457351e-01
  2.47187614608056e-01
  3.84180942836044e-01
  1.06644759418552e-01
  6.70509611941243e+00
  8.84487660481054e+00
  9.82415782069442e+00
  8.40902910540583e+00
  4.80448757555754e+00
  1.55989499299286e+00
 -1.15889775037608e-01
 -5.13312293701512e-02
 -2.64771097977823e-01
 -6.52512718105956e-02
 -1.94608613796415e-01
  2.59380435893970e-01
  1.17380433533106e+00
  5.95960578383022e-02
  4.57260134599596e-01
  6.58952976069849e-02
  1.26537084505476e-01
  5.06121931014315e-01
  9.46667895564849e-01
  1.63484840115776e+00
  2.64073594005923e+00
  3.97699155153283e+00
  5.40905960736848e+00
  6.15868961670172e+00
  4.99170532032548e+00
  2.02857976424901e+00
  1.82839763527352e-01
 -1.25640690342342e-02
  1.10808750449959e-03
  1.94415577975663e-03
  2.70023730632789e-03
 -1.69098200112149e-02
 -8.66890848691569e-02
 -2.76125946359713e-01
 -6.25588788447604e-01
 -6.61701688370681e-01
  3.11114524237060e-01
  9.56658906468163e-01
  4.36891217824705e-01
  1.05873342256663e-04
  1.52975802748887e-04
  4.28394863673135e-04
 -4.94070443505333e-03
 -1.17298035021286e-02
 -2.95023896611804e-02
 -1.71455066569284e-02
  3.00007138114875e-03
 -6.19326651465540e-02
 -2.59989143457351e-01
  2.47187614608056e-01
  3.84180942836044e-01
  1.06644759418552e-01
  6.70509611941243e+00
  8.84487660481054e+00
  9.82415782069442e+00
  8.40902910540583e+00
  4.80448757555754e+00
  1.55989499299286e+00
 -1.15889775037608e-01
 -5.13312293701512e-02
 -2.64771097977823e-01
 -6.52512718105956e-02
 -1.94608613796415e-01
  2.59380435893970e-01
  1.17380433533106e+00
  5.95960578383022e-02
  4.57260134599596e-01
  6.58952976069849e-02
  1.26537084505476e-01

0 0 0 0 1 1 1
0 0 
11 0

0 1 1 11 1 1 1
11 0 
11 0

0 2 2 22 1 1 1
22 0 
11 0

0 3 3 33 1 1 1
33 0 
1 0

0 4 4 34 1 1 1
34 0 
1 0

0 5 5 35 1 3 3
35 1 
6 0

0 8 8 41 1 3 3
41 1 
6 0

0 11 11 47 1 3 3
47 1 
1 0

0 14 14 48 1 3 3
48 1 
1 0

0 17 17 49 1 5 6
49 2 
1 1

0 22 22 50 1 5 6
50 2 
1 1

0 27 27 51 1 7 10
51 3 
1 1

1 34 34 52 1 1 1
52 0 
11 0

1 35 35 63 1 1 1
63 0 
11 0

1 36 36 74 1 1 1
74 0 
11 0

1 37 37 85 1 1 1
85 0 
1 0

1 38 38 86 1 1 1
86 0 
1 0

1 39 39 87 1 3 3
87 1 
6 0

1 42 42 93 1 3 3
93 1 
6 0

1 45 45 99 1 3 3
99 1 
1 0

1 48 48 100 1 3 3
100 1 
1 0

1 51 51 101 1 5 6
101 2 
1 1

1 56 56 102 1 5 6
102 2 
1 1

1 61 61 103 1 7 10
103 3 
1 1

 -------------------------------------------------------------
 Allocate 263208 B from available memory: 1048576000000 B
 There are 1331 image cells after screening.
 There are 1353 image cells for CGTO evaluation after screening.
 Real-Space grid for FFT initialized based on kinetic energy cutoff (eV) = 500.0
 Real-Space grid for FFT: (10,10,10)
 There are 9261 real-space grid points.
 There are 64 batches of real-space grid points. 
 Size of each grid batch is around 128
 Grid for AFT initialized based on kinetic energy cutoff (eV) = 500.0
 Real-Space grid for AFT: (10,10,10)
 There are 9261 real-space grid points.

 There are 5456 atom-centered grid points.

 Spacegroup symmetry group: Fd-3m
 Reducing spacegroup symmetry to symmorphic group: F -4 3 m
 Monkhorst-Pack mesh is [4,4,4]
 There are 64 k points.
kpoints in Bohr
-0.1530811530 -0.1530811530 -0.1530811530
-0.0000000000 -0.0000000000 -0.3061623059
0.1530811530 0.1530811530 -0.4592434589
0.3061623059 0.3061623059 -0.6123246119
-0.0000000000 -0.3061623059 0.0000000000
0.1530811530 -0.1530811530 -0.1530811530
0.3061623059 0.0000000000 -0.3061623059
0.4592434589 0.1530811530 -0.4592434589
0.1530811530 -0.4592434589 0.1530811530
0.3061623059 -0.3061623059 0.0000000000
0.4592434589 -0.1530811530 -0.1530811530
0.6123246119 0.0000000000 -0.3061623059
0.3061623059 -0.6123246119 0.3061623059
0.4592434589 -0.4592434589 0.1530811530
0.6123246119 -0.3061623059 0.0000000000
0.7654057648 -0.1530811530 -0.1530811530
-0.3061623059 -0.0000000000 -0.0000000000
-0.1530811530 0.1530811530 -0.1530811530
0.0000000000 0.3061623059 -0.3061623059
0.1530811530 0.4592434589 -0.4592434589
-0.1530811530 -0.1530811530 0.1530811530
0.0000000000 0.0000000000 0.0000000000
0.1530811530 0.1530811530 -0.1530811530
0.3061623059 0.3061623059 -0.3061623059
-0.0000000000 -0.3061623059 0.3061623059
0.1530811530 -0.1530811530 0.1530811530
0.3061623059 0.0000000000 0.0000000000
0.4592434589 0.1530811530 -0.1530811530
0.1530811530 -0.4592434589 0.4592434589
0.3061623059 -0.3061623059 0.3061623059
0.4592434589 -0.1530811530 0.1530811530
0.6123246119 0.0000000000 0.0000000000
-0.4592434589 0.1530811530 0.1530811530
-0.3061623059 0.3061623059 -0.0000000000
-0.1530811530 0.4592434589 -0.1530811530
0.0000000000 0.6123246119 -0.3061623059
-0.3061623059 0.0000000000 0.3061623059
-0.1530811530 0.1530811530 0.1530811530
0.0000000000 0.3061623059 0.0000000000
0.1530811530 0.4592434589 -0.1530811530
-0.1530811530 -0.1530811530 0.4592434589
0.0000000000 0.0000000000 0.3061623059
0.1530811530 0.1530811530 0.1530811530
0.3061623059 0.3061623059 0.0000000000
0.0000000000 -0.3061623059 0.6123246119
0.1530811530 -0.1530811530 0.4592434589
0.3061623059 0.0000000000 0.3061623059
0.4592434589 0.1530811530 0.1530811530
-0.6123246119 0.3061623059 0.3061623059
-0.4592434589 0.4592434589 0.1530811530
-0.3061623059 0.6123246119 -0.0000000000
-0.1530811530 0.7654057648 -0.1530811530
-0.4592434589 0.1530811530 0.4592434589
-0.3061623059 0.3061623059 0.3061623059
-0.1530811530 0.4592434589 0.1530811530
0.0000000000 0.6123246119 0.0000000000
-0.3061623059 0.0000000000 0.6123246119
-0.1530811530 0.1530811530 0.4592434589
0.0000000000 0.3061623059 0.3061623059
0.1530811530 0.4592434589 0.1530811530
-0.1530811530 -0.1530811530 0.7654057648
0.0000000000 0.0000000000 0.6123246119
0.1530811530 0.1530811530 0.4592434589
0.3061623059 0.3061623059 0.3061623059
 There are 14 alpha and 14 beta electrons
 Start computing overlap matrix
 Allocate 4734976 B from available memory: 1048575736800 B
 Time for computing overlap matrix: 1.8490000000 s
 ====== Initialize compute kernels for all-electron RI-J (kpts) ====== 
 ========================================================== 
 Range-separated parameter omega        = 0.900000000000000022
 Threshold for 1e2c shellpair           = 0.000000000000010000
 Threshold for 2e2c SR integral         = 0.000000000000000001
 Threshold for 2e3c SR integral         = 0.000000000100000000
 Threshold for AFT G-space screening is = 0.000000000001000000
 The exponent cutoff for C/D classification (omega2 / 2) is  = 0.405000000000000027
 ========================================================== 
 === Post process the basis set for RI calculation (exp_cutoff = 0.405000000000000027 ) === 
nshells_b1 before uncontraction = 24
nshells_b1 after uncontraction = 28
nshells_baux before uncontraction = 74
nshells_baux after uncontraction = 74
===============================================
nbsf total   = 76
nbsf compact = 36
nbsf diffuse = 40
naux total   = 242
naux compact = 242
naux diffuse = 0
nshells_bnuc = 2

 Number of unique atoms is 1
 Unique atom #0 (si) has 8 shells.

Shell 0 to 7 belongs to atom si
Shell 8 to 15 belongs to atom si

 Number of unique atoms is 1
 Unique atom #0 (si) has 6 shells.

Shell 0 to 5 belongs to atom si
Shell 6 to 11 belongs to atom si

 Number of unique atom is 1
 Unique atom #0 (si) has 37 auxiliary shells.

Auxiliary Shell 0 to 36 belongs to atom si
Auxiliary Shell 37 to 73 belongs to atom si

================= Automatically determine grid size for reciprocal space summation =================
 Range-separated parameter = 0.90000000000000 and G-space screening threshold = 0.00000000000100
The number of grid points along each axis dimension is (10, 10, 10)
Total number of grid points = 9261

Use nonortho shellpair for diffuse density
======== Initializing relevant kernel for RIJ (DD type) ========
There are 78 shellpairs in the reference unit cell
There are 2659 images and we expect to have 207402 in total
There are 10362 shellpairs in the lattice sum after screening
======== Initializing relevant kernel for RIJ (CD type) ========
There are 192 shellpairs in the reference unit cell
There are 1657 images and we expect to have 318144 in total
There are 12656 shellpairs in the lattice sum after screening
****** AFT -> SR ******
Maximum bra distance cutoff is 20.000000000000
Maximum bra ket distance cutoff is 19.686314259486
Maximum bra ket screening distance is 18.000000000000
Number of auxiliary image is 437
There are 192 shellpairs in the reference unit cell
There are 437 images and we expect to have 83904 in total
There are 12656 shellpairs in the lattice sum after screening
Available memory per thread for 2e3c calculation is 32.767843807000Gb
Finish initializing 2e3c SR with the lattice sum!
=================================================
======== Initializing relevant kernel for RIJ (CC type) ========
There are 135 shellpairs in the reference unit cell
There are 551 images and we expect to have 74385 in total
There are 1200 shellpairs in the lattice sum after screening
****** AFT -> SR ******
Maximum bra distance cutoff is 11.000000000000
Maximum bra ket distance cutoff is 19.281250000000
Maximum bra ket screening distance is 17.500000000000
Number of auxiliary image is 437
There are 135 shellpairs in the reference unit cell
There are 117 images and we expect to have 15795 in total
There are 1200 shellpairs in the lattice sum after screening
Available memory per thread for 2e3c calculation is 32.767843807000Gb
Finish initializing 2e3c SR with the lattice sum!
=================================================
======== Initializing the SR component for Vnuc (CD type) ========
Maximum bra distance cutoff is 20.000000000000
Maximum bra ket distance cutoff is 11.052556209192
Maximum bra ket screening distance is 9.170821735065
Number of auxiliary image is 437
There are 192 shellpairs in the reference unit cell
There are 437 images and we expect to have 83904 in total
There are 12656 shellpairs in the lattice sum after screening
Available memory per thread for 2e3c calculation is 32.767843807000Gb
Finish initializing 2e3c SR with the lattice sum!
=================================================
======== Initialize the SR component for Vnuc (CC type) ========
Maximum bra distance cutoff is 11.000000000000
Maximum bra ket distance cutoff is 11.232824570356
Maximum bra ket screening distance is 8.201723935674
Number of auxiliary image is 117
There are 135 shellpairs in the reference unit cell
There are 117 images and we expect to have 15795 in total
There are 1200 shellpairs in the lattice sum after screening
Available memory per thread for 2e3c calculation is 32.767843807000Gb
Finish initializing 2e3c SR with the lattice sum!
=================================================
 Aufbau occupation scheme, occupation determined by eigenvalue
 == 0-th k-point nmo = 68 (-0.15308,-0.15308,-0.15308) ==
 == 1-th k-point nmo = 68 (-0.00000,-0.00000,-0.30616) ==
 == 2-th k-point nmo = 68 (0.15308,0.15308,-0.45924) ==
 == 3-th k-point nmo = 68 (0.30616,0.30616,-0.61232) ==
 == 4-th k-point nmo = 68 (-0.00000,-0.30616,0.00000) ==
 == 5-th k-point nmo = 68 (0.15308,-0.15308,-0.15308) ==
 == 6-th k-point nmo = 68 (0.30616,0.00000,-0.30616) ==
 == 7-th k-point nmo = 68 (0.45924,0.15308,-0.45924) ==
 == 8-th k-point nmo = 68 (0.15308,-0.45924,0.15308) ==
 == 9-th k-point nmo = 68 (0.30616,-0.30616,0.00000) ==
 == 10-th k-point nmo = 68 (0.45924,-0.15308,-0.15308) ==
 == 11-th k-point nmo = 68 (0.61232,0.00000,-0.30616) ==
 == 12-th k-point nmo = 68 (0.30616,-0.61232,0.30616) ==
 == 13-th k-point nmo = 68 (0.45924,-0.45924,0.15308) ==
 == 14-th k-point nmo = 68 (0.61232,-0.30616,0.00000) ==
 == 15-th k-point nmo = 68 (0.76541,-0.15308,-0.15308) ==
 == 16-th k-point nmo = 68 (-0.30616,-0.00000,-0.00000) ==
 == 17-th k-point nmo = 68 (-0.15308,0.15308,-0.15308) ==
 == 18-th k-point nmo = 68 (0.00000,0.30616,-0.30616) ==
 == 19-th k-point nmo = 68 (0.15308,0.45924,-0.45924) ==
 == 20-th k-point nmo = 68 (-0.15308,-0.15308,0.15308) ==
 == 21-th k-point nmo = 68 (0.00000,0.00000,0.00000) ==
 == 22-th k-point nmo = 68 (0.15308,0.15308,-0.15308) ==
 == 23-th k-point nmo = 68 (0.30616,0.30616,-0.30616) ==
 == 24-th k-point nmo = 68 (-0.00000,-0.30616,0.30616) ==
 == 25-th k-point nmo = 68 (0.15308,-0.15308,0.15308) ==
 == 26-th k-point nmo = 68 (0.30616,0.00000,0.00000) ==
 == 27-th k-point nmo = 68 (0.45924,0.15308,-0.15308) ==
 == 28-th k-point nmo = 68 (0.15308,-0.45924,0.45924) ==
 == 29-th k-point nmo = 68 (0.30616,-0.30616,0.30616) ==
 == 30-th k-point nmo = 68 (0.45924,-0.15308,0.15308) ==
 == 31-th k-point nmo = 68 (0.61232,0.00000,0.00000) ==
 == 32-th k-point nmo = 68 (-0.45924,0.15308,0.15308) ==
 == 33-th k-point nmo = 68 (-0.30616,0.30616,-0.00000) ==
 == 34-th k-point nmo = 68 (-0.15308,0.45924,-0.15308) ==
 == 35-th k-point nmo = 68 (0.00000,0.61232,-0.30616) ==
 == 36-th k-point nmo = 68 (-0.30616,0.00000,0.30616) ==
 == 37-th k-point nmo = 68 (-0.15308,0.15308,0.15308) ==
 == 38-th k-point nmo = 68 (0.00000,0.30616,0.00000) ==
 == 39-th k-point nmo = 68 (0.15308,0.45924,-0.15308) ==
 == 40-th k-point nmo = 68 (-0.15308,-0.15308,0.45924) ==
 == 41-th k-point nmo = 68 (0.00000,0.00000,0.30616) ==
 == 42-th k-point nmo = 68 (0.15308,0.15308,0.15308) ==
 == 43-th k-point nmo = 68 (0.30616,0.30616,0.00000) ==
 == 44-th k-point nmo = 68 (0.00000,-0.30616,0.61232) ==
 == 45-th k-point nmo = 68 (0.15308,-0.15308,0.45924) ==
 == 46-th k-point nmo = 68 (0.30616,0.00000,0.30616) ==
 == 47-th k-point nmo = 68 (0.45924,0.15308,0.15308) ==
 == 48-th k-point nmo = 68 (-0.61232,0.30616,0.30616) ==
 == 49-th k-point nmo = 68 (-0.45924,0.45924,0.15308) ==
 == 50-th k-point nmo = 68 (-0.30616,0.61232,-0.00000) ==
 == 51-th k-point nmo = 68 (-0.15308,0.76541,-0.15308) ==
 == 52-th k-point nmo = 68 (-0.45924,0.15308,0.45924) ==
 == 53-th k-point nmo = 68 (-0.30616,0.30616,0.30616) ==
 == 54-th k-point nmo = 68 (-0.15308,0.45924,0.15308) ==
 == 55-th k-point nmo = 68 (0.00000,0.61232,0.00000) ==
 == 56-th k-point nmo = 68 (-0.30616,0.00000,0.61232) ==
 == 57-th k-point nmo = 68 (-0.15308,0.15308,0.45924) ==
 == 58-th k-point nmo = 68 (0.00000,0.30616,0.30616) ==
 == 59-th k-point nmo = 68 (0.15308,0.45924,0.15308) ==
 == 60-th k-point nmo = 68 (-0.15308,-0.15308,0.76541) ==
 == 61-th k-point nmo = 68 (0.00000,0.00000,0.61232) ==
 == 62-th k-point nmo = 68 (0.15308,0.15308,0.45924) ==
 == 63-th k-point nmo = 68 (0.30616,0.30616,0.30616) ==

 Generate autoSAD guess
backing up fragment data
Atom # 0: si, charge: 0, multiplicity: 3.000000
writing autosad to fragment context
Settings for isolated fragments: 
  frgm_gamma: TRUE
  frgm_center: FALSE

    Running SCF for isolated atom #0
    Fragment Input file: /n/netscratch/joonholee_lab/Lab/hieudinh//si_2_ccpvtz_omega_0.9_444.scratch20250909091633/autosad_frgmt_0/frgmt_input.in
    Fragment Output file: /n/netscratch/joonholee_lab/Lab/hieudinh//si_2_ccpvtz_omega_0.9_444.scratch20250909091633/autosad_frgmt_0/frgmt_job.out
    Fragment job begins at Tue Sep  9 09:16:37 2025

 Integrated density by DFT XC:
   Numerical integral  =    13.999999324657
   Relative error      =     0.0000048239 %
Final energy components:
 DFT Correlation            Energy =  -0.48419291960634
 DFT Exchange               Energy = -20.15457765326662
 Kinetic (alpha)            Energy = 145.16532593944430
 Kinetic (beta)             Energy = 143.17442658177217
 Nuclear Attraction (alpha) Energy = -351.25548439806880
 Nuclear Attraction (beta)  Energy = -337.63206466477925
 Nuclear Repulsion          Energy =   0.00000000000000
 SEOQF                      Energy =   0.00000000065999
 Total Coulomb              Energy = 131.95997984351345
----------------------------------------------
    SCF Energy: -289.2265872703
   Total fragment job time:  0.48 s.
restoring fragment data

 ------------------------------------------------------------------------
 Allocate 15590400 B from available memory: 1048571001824 B
 Time for generating SCF guess: 0.49 s

 Allocate 78392 B from available memory: 1048555411424 B
 Selected algorithms for each term:
  kpts_kinetic -> @0x150889b8b680
  kpts_nn -> @0x150889b8b800
  kpts_rij_bigmem -> @0x150889b8b3e0
  kpts_vnuc_df -> @0x150889b8b380
  kpts_xc -> @0x150889b8b2c0
 Time for computing kinetic matrix is 2.07 s
Start calculating Vnuc DD type!
Start calculating Vnuc CD type!
Start calculating Vnuc CC type!
 Time for computing nuclear attraction matrix is 4.34 s
Compute (P|Q) and use solve on the fly!
Maximum distance between P and Q is 28.44997180930993
Number of images for (P|Qn) is 887
 Time for computing 2e2c SR integral is 0.10 s
Maximum dynamic memory per thread for 2e3c SR integrals: 0.026 GiB
Batch size for basis function pair is 1440 out of 1440
 === bvk cell = 0 has 100.000 % of the basis function pairs === 
 === bvk cell = 1 has 95.625 % of the basis function pairs === 
 === bvk cell = 2 has 57.639 % of the basis function pairs === 
 === bvk cell = 3 has 95.625 % of the basis function pairs === 
 === bvk cell = 4 has 95.625 % of the basis function pairs === 
 === bvk cell = 5 has 58.333 % of the basis function pairs === 
 === bvk cell = 6 has 56.042 % of the basis function pairs === 
 === bvk cell = 7 has 100.000 % of the basis function pairs === 
 === bvk cell = 8 has 57.639 % of the basis function pairs === 
 === bvk cell = 9 has 56.042 % of the basis function pairs === 
 === bvk cell = 10 has 30.556 % of the basis function pairs === 
 === bvk cell = 11 has 56.042 % of the basis function pairs === 
 === bvk cell = 12 has 95.625 % of the basis function pairs === 
 === bvk cell = 13 has 100.000 % of the basis function pairs === 
 === bvk cell = 14 has 56.042 % of the basis function pairs === 
 === bvk cell = 15 has 58.333 % of the basis function pairs === 
 === bvk cell = 16 has 95.625 % of the basis function pairs === 
 === bvk cell = 17 has 58.333 % of the basis function pairs === 
 === bvk cell = 18 has 56.042 % of the basis function pairs === 
 === bvk cell = 19 has 100.000 % of the basis function pairs === 
 === bvk cell = 20 has 58.333 % of the basis function pairs === 
 === bvk cell = 21 has 28.125 % of the basis function pairs === 
 === bvk cell = 22 has 54.583 % of the basis function pairs === 
 === bvk cell = 23 has 84.236 % of the basis function pairs === 
 === bvk cell = 24 has 56.042 % of the basis function pairs === 
 === bvk cell = 25 has 54.583 % of the basis function pairs === 
 === bvk cell = 26 has 22.083 % of the basis function pairs === 
 === bvk cell = 27 has 36.250 % of the basis function pairs === 
 === bvk cell = 28 has 100.000 % of the basis function pairs === 
 === bvk cell = 29 has 84.236 % of the basis function pairs === 
 === bvk cell = 30 has 36.250 % of the basis function pairs === 
 === bvk cell = 31 has 84.236 % of the basis function pairs === 
 === bvk cell = 32 has 57.639 % of the basis function pairs === 
 === bvk cell = 33 has 56.042 % of the basis function pairs === 
 === bvk cell = 34 has 30.556 % of the basis function pairs === 
 === bvk cell = 35 has 56.042 % of the basis function pairs === 
 === bvk cell = 36 has 56.042 % of the basis function pairs === 
 === bvk cell = 37 has 54.583 % of the basis function pairs === 
 === bvk cell = 38 has 22.083 % of the basis function pairs === 
 === bvk cell = 39 has 36.250 % of the basis function pairs === 
 === bvk cell = 40 has 30.556 % of the basis function pairs === 
 === bvk cell = 41 has 22.083 % of the basis function pairs === 
 === bvk cell = 42 has 13.333 % of the basis function pairs === 
 === bvk cell = 43 has 22.083 % of the basis function pairs === 
 === bvk cell = 44 has 56.042 % of the basis function pairs === 
 === bvk cell = 45 has 36.250 % of the basis function pairs === 
 === bvk cell = 46 has 22.083 % of the basis function pairs === 
 === bvk cell = 47 has 54.583 % of the basis function pairs === 
 === bvk cell = 48 has 95.625 % of the basis function pairs === 
 === bvk cell = 49 has 100.000 % of the basis function pairs === 
 === bvk cell = 50 has 56.042 % of the basis function pairs === 
 === bvk cell = 51 has 58.333 % of the basis function pairs === 
 === bvk cell = 52 has 100.000 % of the basis function pairs === 
 === bvk cell = 53 has 84.236 % of the basis function pairs === 
 === bvk cell = 54 has 36.250 % of the basis function pairs === 
 === bvk cell = 55 has 84.236 % of the basis function pairs === 
 === bvk cell = 56 has 56.042 % of the basis function pairs === 
 === bvk cell = 57 has 36.250 % of the basis function pairs === 
 === bvk cell = 58 has 22.083 % of the basis function pairs === 
 === bvk cell = 59 has 54.583 % of the basis function pairs === 
 === bvk cell = 60 has 58.333 % of the basis function pairs === 
 === bvk cell = 61 has 84.236 % of the basis function pairs === 
 === bvk cell = 62 has 54.583 % of the basis function pairs === 
 === bvk cell = 63 has 28.125 % of the basis function pairs === 
Static memory requirement for 2e3c SR integrals: 0.099 GB
There are 1 munu batches for computing 2e3c SR integrals with latsum
There are 4 Q batches for computing 2e3c SR integrals with latsum
 Time for computing 2e3c SR integral (CD) is 0.63 s
Maximum dynamic memory per thread for 2e3c SR integrals: 0.004 GiB
Batch size for basis function pair is 703 out of 703
 === bvk cell = 0 has 100.000 % of the basis function pairs === 
 === bvk cell = 1 has 68.421 % of the basis function pairs === 
 === bvk cell = 2 has 5.121 % of the basis function pairs === 
 === bvk cell = 3 has 54.908 % of the basis function pairs === 
 === bvk cell = 4 has 68.421 % of the basis function pairs === 
 === bvk cell = 5 has 15.647 % of the basis function pairs === 
 === bvk cell = 6 has 0.711 % of the basis function pairs === 
 === bvk cell = 7 has 61.593 % of the basis function pairs === 
 === bvk cell = 8 has 5.121 % of the basis function pairs === 
 === bvk cell = 9 has 0.711 % of the basis function pairs === 
 === bvk cell = 10 has 0.000 % of the basis function pairs === 
 === bvk cell = 11 has 4.410 % of the basis function pairs === 
 === bvk cell = 12 has 54.908 % of the basis function pairs === 
 === bvk cell = 13 has 61.593 % of the basis function pairs === 
 === bvk cell = 14 has 4.410 % of the basis function pairs === 
 === bvk cell = 15 has 9.815 % of the basis function pairs === 
 === bvk cell = 16 has 68.421 % of the basis function pairs === 
 === bvk cell = 17 has 15.647 % of the basis function pairs === 
 === bvk cell = 18 has 0.711 % of the basis function pairs === 
 === bvk cell = 19 has 61.593 % of the basis function pairs === 
 === bvk cell = 20 has 15.647 % of the basis function pairs === 
 === bvk cell = 21 has 0.000 % of the basis function pairs === 
 === bvk cell = 22 has 0.000 % of the basis function pairs === 
 === bvk cell = 23 has 25.320 % of the basis function pairs === 
 === bvk cell = 24 has 0.711 % of the basis function pairs === 
 === bvk cell = 25 has 0.000 % of the basis function pairs === 
 === bvk cell = 26 has 0.000 % of the basis function pairs === 
 === bvk cell = 27 has 0.000 % of the basis function pairs === 
 === bvk cell = 28 has 61.593 % of the basis function pairs === 
 === bvk cell = 29 has 25.320 % of the basis function pairs === 
 === bvk cell = 30 has 0.000 % of the basis function pairs === 
 === bvk cell = 31 has 19.488 % of the basis function pairs === 
 === bvk cell = 32 has 5.121 % of the basis function pairs === 
 === bvk cell = 33 has 0.711 % of the basis function pairs === 
 === bvk cell = 34 has 0.000 % of the basis function pairs === 
 === bvk cell = 35 has 4.410 % of the basis function pairs === 
 === bvk cell = 36 has 0.711 % of the basis function pairs === 
 === bvk cell = 37 has 0.000 % of the basis function pairs === 
 === bvk cell = 38 has 0.000 % of the basis function pairs === 
 === bvk cell = 39 has 0.000 % of the basis function pairs === 
 === bvk cell = 40 has 0.000 % of the basis function pairs === 
 === bvk cell = 41 has 0.000 % of the basis function pairs === 
 === bvk cell = 42 has 0.000 % of the basis function pairs === 
 === bvk cell = 43 has 0.000 % of the basis function pairs === 
 === bvk cell = 44 has 4.410 % of the basis function pairs === 
 === bvk cell = 45 has 0.000 % of the basis function pairs === 
 === bvk cell = 46 has 0.000 % of the basis function pairs === 
 === bvk cell = 47 has 0.000 % of the basis function pairs === 
 === bvk cell = 48 has 54.908 % of the basis function pairs === 
 === bvk cell = 49 has 61.593 % of the basis function pairs === 
 === bvk cell = 50 has 4.410 % of the basis function pairs === 
 === bvk cell = 51 has 9.815 % of the basis function pairs === 
 === bvk cell = 52 has 61.593 % of the basis function pairs === 
 === bvk cell = 53 has 25.320 % of the basis function pairs === 
 === bvk cell = 54 has 0.000 % of the basis function pairs === 
 === bvk cell = 55 has 19.488 % of the basis function pairs === 
 === bvk cell = 56 has 4.410 % of the basis function pairs === 
 === bvk cell = 57 has 0.000 % of the basis function pairs === 
 === bvk cell = 58 has 0.000 % of the basis function pairs === 
 === bvk cell = 59 has 0.000 % of the basis function pairs === 
 === bvk cell = 60 has 9.815 % of the basis function pairs === 
 === bvk cell = 61 has 19.488 % of the basis function pairs === 
 === bvk cell = 62 has 0.000 % of the basis function pairs === 
 === bvk cell = 63 has 0.000 % of the basis function pairs === 
Static memory requirement for 2e3c SR integrals: 0.014 GB
There are 1 munu batches for computing 2e3c SR integrals with latsum
There are 4 Q batches for computing 2e3c SR integrals with latsum
 Time for computing 2e3c SR integral (CC) is 0.12 s
 Time for RI-J this SCF iteration is 1.74 s
 Time for RI-J this SCF iteration is 0.87 s
 ----------------------------------------------
 Guess energy: -578.7760196265
 ----------------------------------------------
 Guess energy components:
 DFT Correlation    Energy =  -1.09301179964206
 DFT Exchange       Energy = -40.58906787155556
 Kinetic            Energy = 577.57839227770444
 Nuclear Attraction Energy = -1186.46104588669641
 Nuclear Repulsion  Energy = -102.89365928466421
 Total Coulomb      Energy = 174.68237293835244
 ----------------------------------------------
  Cycle       Energy         DIIS error
 ----------------------------------------------
 Time for RI-J this SCF iteration is 0.86 s
    1    -578.7809702721      1.71e-03  
 Energy components after cycle 1:
 DFT Correlation    Energy =  -1.09701969448903
 DFT Exchange       Energy = -40.50000716569633
 Kinetic            Energy = 576.72198681981797
 Nuclear Attraction Energy = -1184.65187998795250
 Nuclear Repulsion  Energy = -102.89365928466421
 Total Coulomb      Energy = 173.63960904087998
    2    -578.7809702721      9.65e-04  
 Energy components after cycle 2:
 DFT Correlation    Energy =  -1.09701969448903
 DFT Exchange       Energy = -40.50000716569633
 Kinetic            Energy = 576.72198681981797
 Nuclear Attraction Energy = -1184.65187998795250
 Nuclear Repulsion  Energy = -102.89365928466421
 Total Coulomb      Energy = 173.63960904087998
 ----------------------------------------------
  Cycle       Energy        RMS Gradient
 ----------------------------------------------
 Time for RI-J this SCF iteration is 0.88 s
    1    -578.7814864266      2.09e-02   Descent step
 Energy components after cycle 1:
 DFT Correlation    Energy =  -1.09596017814489
 DFT Exchange       Energy = -40.54599196177229
 Kinetic            Energy = 577.26011778827251
 Nuclear Attraction Energy = -1185.61865207841265
 Nuclear Repulsion  Energy = -102.89365928466421
 Total Coulomb      Energy = 174.11265928814959
 Time for RI-J this SCF iteration is 0.86 s
    2    -578.7820185237      2.13e-02   Normal BFGS step
 Energy components after cycle 2:
 DFT Correlation    Energy =  -1.09606889561719
 DFT Exchange       Energy = -40.53511426599096
 Kinetic            Energy = 577.12009726709607
 Nuclear Attraction Energy = -1185.38688421801271
 Nuclear Repulsion  Energy = -102.89365928466421
 Total Coulomb      Energy = 174.00961087346627
 Time for RI-J this SCF iteration is 0.92 s
    3    -578.7820362652      3.73e-03   Normal BFGS step
 Energy components after cycle 3:
 DFT Correlation    Energy =  -1.09623949075504
 DFT Exchange       Energy = -40.52700245519871
 Kinetic            Energy = 577.02394345281493
 Nuclear Attraction Energy = -1185.21652138984700
 Nuclear Repulsion  Energy = -102.89365928466421
 Total Coulomb      Energy = 173.92744290246497
 Time for RI-J this SCF iteration is 0.86 s
    4    -578.7820462086      2.03e-03   Normal BFGS step
 Energy components after cycle 4:
 DFT Correlation    Energy =  -1.09618565481754
 DFT Exchange       Energy = -40.53083929307638
 Kinetic            Energy = 577.07206850873285
 Nuclear Attraction Energy = -1185.29826109877217
 Nuclear Repulsion  Energy = -102.89365928466421
 Total Coulomb      Energy = 173.96483061395557
 Time for RI-J this SCF iteration is 0.85 s
    5    -578.7820462279      8.49e-05   Normal BFGS step
 Energy components after cycle 5:
 DFT Correlation    Energy =  -1.09617875898571
 DFT Exchange       Energy = -40.53079957538167
 Kinetic            Energy = 577.07086286128435
 Nuclear Attraction Energy = -1185.29715300651696
 Nuclear Repulsion  Energy = -102.89365928466421
 Total Coulomb      Energy = 173.96488153635192
 Time for RI-J this SCF iteration is 0.87 s
    6    -578.7820462312      3.27e-05   Normal BFGS step
 Energy components after cycle 6:
 DFT Correlation    Energy =  -1.09618056767348
 DFT Exchange       Energy = -40.53077038210363
 Kinetic            Energy = 577.07063068166860
 Nuclear Attraction Energy = -1185.29658299178391
 Nuclear Repulsion  Energy = -102.89365928466421
 Total Coulomb      Energy = 173.96451631330982
 Time for RI-J this SCF iteration is 0.86 s
    7    -578.7820462313      4.90e-06   Normal BFGS step
 Energy components after cycle 7:
 DFT Correlation    Energy =  -1.09618083663896
 DFT Exchange       Energy = -40.53078149851325
 Kinetic            Energy = 577.07081053167155
 Nuclear Attraction Energy = -1185.29683491047012
 Nuclear Repulsion  Energy = -102.89365928466421
 Total Coulomb      Energy = 173.96459976731833
    7    -578.7820462313      4.90e-06  Convergence criterion met
 ----------------------------------------------
 Final energy components:
 DFT Correlation    Energy =  -1.09618083663896
 DFT Exchange       Energy = -40.53078149851325
 Kinetic            Energy = 577.07081053167155
 Nuclear Attraction Energy = -1185.29683491047012
 Nuclear Repulsion  Energy = -102.89365928466421
 Total Coulomb      Energy = 173.96459976731833
 ----------------------------------------------
 Final energy is -578.7820462313

 SCF time:   CPU 952.73s  wall 34.00s 
 Total wall time for computing Kinetic: 0.00 s (10)
 Total wall time for computing RIJ-BIGMEM: 9.56 s (10)
 Total wall time for computing RSDF Vnuc: 0.01 s (10)
 Total wall time for computing DFT XC: 12.81 s (10)
 ---------------------------------------------------------------------------
                        Orbital Energies (a.u.)
 ---------------------------------------------------------------------------
 == 0-th k-point (-0.15308,-0.15308,-0.15308) occupation: 14==
 -64.98961 -64.98955 -4.61907 -4.61885 -3.02982 -3.02982 -3.02974 -3.02920 -3.02915 -3.02915
 -0.13349 0.13239 0.24879 0.24879 0.35362 0.40786 0.40786 0.53286 0.55193 0.55193
 0.62271 0.71704 0.83879 0.83879 0.96948 0.96948 0.97344 1.04850 1.22307 1.22307
 1.29637 1.29637 1.35835 1.39646 1.44686 1.55267 1.55267 1.58956 1.58956 1.61916
 1.61916 1.77834 1.78367 1.78367 1.90269 1.96568 1.98159 1.98159 1.98669 2.06867
 2.12102 2.12102 2.27314 2.27314 2.29407 2.33330 2.33330 2.49893 2.61451 2.61451
 3.33358 3.82517 3.82699 3.82699 4.03309 4.03309 4.35272 7.65572
 == 1-th k-point (-0.00000,-0.00000,-0.30616) occupation: 14==
 -64.98958 -64.98957 -4.61906 -4.61886 -3.02985 -3.02985 -3.02968 -3.02926 -3.02913 -3.02913
 -0.12312 0.14833 0.20662 0.20662 0.31962 0.39517 0.49213 0.49213 0.57947 0.61738
 0.69827 0.77732 0.77732 0.80224 0.94193 0.94193 0.97617 1.05348 1.10248 1.31013
 1.32066 1.33532 1.33532 1.40301 1.40301 1.45989 1.46208 1.63827 1.63828 1.64205
 1.74130 1.74131 1.75954 1.78140 1.88236 1.98209 1.98219 1.98253 2.05077 2.05078
 2.06638 2.10817 2.15260 2.22769 2.30482 2.30483 2.46126 2.56389 2.56400 2.72462
 3.48113 3.72448 3.72457 3.97713 4.28216 4.28245 5.26730 6.01464
 == 2-th k-point (0.15308,0.15308,-0.45924) occupation: 14==
 -64.98961 -64.98958 -4.61901 -4.61891 -3.02984 -3.02984 -3.02959 -3.02933 -3.02910 -3.02908
 -0.06277 0.04221 0.14601 0.19477 0.33474 0.44402 0.49130 0.49913 0.65797 0.67743
 0.73896 0.75489 0.76763 0.90947 0.96155 0.98144 1.02632 1.02737 1.04502 1.16571
 1.19041 1.24925 1.26162 1.39620 1.43909 1.46629 1.47872 1.52611 1.62534 1.68921
 1.69977 1.72850 1.80660 1.81754 1.88046 1.94970 2.00599 2.01941 2.10214 2.10854
 2.18322 2.25917 2.30354 2.36506 2.39850 2.40270 2.42431 2.52831 2.57673 2.69196
 3.17745 3.32422 3.55835 3.73756 3.93035 3.98070 5.72110 7.84937
 == 3-th k-point (0.30616,0.30616,-0.61232) occupation: 14==
 -64.98961 -64.98960 -4.61904 -4.61889 -3.02982 -3.02982 -3.02965 -3.02928 -3.02912 -3.02909
 -0.08764 0.07557 0.13778 0.22746 0.36918 0.45521 0.47021 0.50443 0.52478 0.63717
 0.74869 0.77509 0.78213 0.91530 0.93279 0.93449 0.98638 1.09237 1.18668 1.19787
 1.24467 1.25557 1.31719 1.38573 1.39280 1.39819 1.50354 1.61509 1.62468 1.62849
 1.71473 1.74475 1.75950 1.77351 1.90602 1.92107 1.94582 2.05237 2.12433 2.15182
 2.15562 2.19021 2.29612 2.35472 2.36360 2.40605 2.50347 2.58540 2.60074 2.69552
 2.89144 3.41960 3.49293 3.87307 3.94737 4.04409 6.78053 7.55368
 == 4-th k-point (-0.00000,-0.30616,0.00000) occupation: 14==
 -64.98958 -64.98957 -4.61906 -4.61886 -3.02985 -3.02985 -3.02968 -3.02926 -3.02913 -3.02913
 -0.12312 0.14833 0.20662 0.20662 0.31962 0.39517 0.49213 0.49213 0.57947 0.61738
 0.69827 0.77732 0.77732 0.80224 0.94193 0.94193 0.97617 1.05348 1.10248 1.31013
 1.32066 1.33532 1.33532 1.40301 1.40301 1.45989 1.46208 1.63827 1.63828 1.64205
 1.74130 1.74131 1.75954 1.78140 1.88236 1.98209 1.98219 1.98253 2.05077 2.05078
 2.06638 2.10817 2.15260 2.22769 2.30482 2.30483 2.46126 2.56389 2.56400 2.72462
 3.48113 3.72448 3.72457 3.97713 4.28216 4.28245 5.26730 6.01464
 == 5-th k-point (0.15308,-0.15308,-0.15308) occupation: 14==
 -64.98961 -64.98955 -4.61907 -4.61885 -3.02982 -3.02982 -3.02974 -3.02920 -3.02915 -3.02915
 -0.13349 0.13239 0.24879 0.24879 0.35362 0.40786 0.40786 0.53286 0.55193 0.55193
 0.62271 0.71704 0.83879 0.83879 0.96948 0.96948 0.97344 1.04849 1.22307 1.22307
 1.29637 1.29637 1.35835 1.39646 1.44686 1.55267 1.55268 1.58956 1.58956 1.61914
 1.61916 1.77833 1.78367 1.78367 1.90269 1.96568 1.98159 1.98159 1.98669 2.06864
 2.12101 2.12102 2.27310 2.27314 2.29405 2.33329 2.33330 2.49891 2.61430 2.61451
 3.33357 3.82517 3.82666 3.82699 4.03298 4.03309 4.35268 7.65556
 == 6-th k-point (0.30616,0.00000,-0.30616) occupation: 14==
 -64.98961 -64.98960 -4.61904 -4.61889 -3.02982 -3.02982 -3.02965 -3.02928 -3.02912 -3.02909
 -0.08764 0.07557 0.13778 0.22746 0.36918 0.45521 0.47021 0.50443 0.52478 0.63717
 0.74869 0.77509 0.78213 0.91530 0.93279 0.93449 0.98639 1.09237 1.18668 1.19787
 1.24468 1.25557 1.31719 1.38573 1.39280 1.39817 1.50354 1.61507 1.62469 1.62849
 1.71473 1.74475 1.75950 1.77352 1.90602 1.92107 1.94582 2.05239 2.12433 2.15182
 2.15564 2.19021 2.29614 2.35472 2.36346 2.40605 2.50346 2.58539 2.60070 2.69546
 2.89144 3.41960 3.49293 3.87305 3.94739 4.04407 6.78061 7.55364
 == 7-th k-point (0.45924,0.15308,-0.45924) occupation: 14==
 -64.98961 -64.98958 -4.61901 -4.61891 -3.02984 -3.02984 -3.02959 -3.02933 -3.02910 -3.02908
 -0.06277 0.04221 0.14601 0.19477 0.33474 0.44402 0.49130 0.49913 0.65797 0.67743
 0.73896 0.75489 0.76763 0.90947 0.96155 0.98144 1.02631 1.02737 1.04502 1.16571
 1.19041 1.24925 1.26162 1.39620 1.43909 1.46630 1.47873 1.52611 1.62540 1.68921
 1.69977 1.72850 1.80660 1.81756 1.88045 1.94970 2.00599 2.01941 2.10215 2.10856
 2.18323 2.25916 2.30355 2.36506 2.39850 2.40271 2.42433 2.52841 2.57679 2.69205
 3.17753 3.32446 3.55837 3.73757 3.93038 3.98070 5.72111 7.84949
 == 8-th k-point (0.15308,-0.45924,0.15308) occupation: 14==
 -64.98961 -64.98958 -4.61901 -4.61891 -3.02984 -3.02984 -3.02959 -3.02933 -3.02910 -3.02908
 -0.06277 0.04221 0.14601 0.19477 0.33474 0.44402 0.49130 0.49913 0.65797 0.67743
 0.73896 0.75489 0.76763 0.90947 0.96155 0.98144 1.02632 1.02737 1.04502 1.16571
 1.19041 1.24925 1.26162 1.39620 1.43909 1.46629 1.47872 1.52611 1.62534 1.68921
 1.69977 1.72850 1.80660 1.81754 1.88046 1.94970 2.00599 2.01941 2.10214 2.10854
 2.18322 2.25917 2.30354 2.36506 2.39850 2.40270 2.42431 2.52831 2.57673 2.69196
 3.17745 3.32422 3.55835 3.73756 3.93035 3.98070 5.72110 7.84937
 == 9-th k-point (0.30616,-0.30616,0.00000) occupation: 14==
 -64.98961 -64.98960 -4.61904 -4.61889 -3.02982 -3.02982 -3.02965 -3.02928 -3.02912 -3.02909
 -0.08764 0.07557 0.13778 0.22746 0.36918 0.45521 0.47021 0.50443 0.52478 0.63717
 0.74869 0.77509 0.78213 0.91530 0.93279 0.93449 0.98639 1.09237 1.18668 1.19787
 1.24468 1.25557 1.31719 1.38573 1.39280 1.39817 1.50354 1.61507 1.62469 1.62849
 1.71473 1.74475 1.75950 1.77352 1.90602 1.92107 1.94582 2.05239 2.12433 2.15182
 2.15564 2.19021 2.29614 2.35472 2.36346 2.40605 2.50346 2.58539 2.60070 2.69546
 2.89144 3.41960 3.49293 3.87305 3.94739 4.04407 6.78061 7.55364
 == 10-th k-point (0.45924,-0.15308,-0.15308) occupation: 14==
 -64.98961 -64.98958 -4.61901 -4.61891 -3.02984 -3.02984 -3.02959 -3.02933 -3.02910 -3.02908
 -0.06277 0.04221 0.14601 0.19477 0.33474 0.44402 0.49130 0.49913 0.65797 0.67743
 0.73896 0.75489 0.76763 0.90947 0.96155 0.98144 1.02632 1.02737 1.04502 1.16571
 1.19041 1.24925 1.26162 1.39620 1.43909 1.46629 1.47872 1.52611 1.62534 1.68921
 1.69977 1.72850 1.80660 1.81754 1.88046 1.94970 2.00599 2.01941 2.10214 2.10854
 2.18322 2.25917 2.30354 2.36506 2.39850 2.40270 2.42431 2.52831 2.57673 2.69196
 3.17745 3.32422 3.55835 3.73756 3.93035 3.98070 5.72110 7.84937
 == 11-th k-point (0.61232,0.00000,-0.30616) occupation: 14==
 -64.98960 -64.98960 -4.61896 -4.61896 -3.02985 -3.02985 -3.02946 -3.02946 -3.02907 -3.02907
 -0.00414 -0.00414 0.13390 0.13390 0.43775 0.43775 0.46329 0.46329 0.67542 0.67542
 0.76709 0.76709 0.89540 0.89540 0.98028 0.98029 0.99445 0.99445 1.03736 1.03736
 1.17715 1.17715 1.32782 1.32783 1.41810 1.41810 1.46744 1.46745 1.59221 1.59221
 1.76889 1.76889 1.85177 1.85178 1.97332 1.97332 2.01817 2.01818 2.11630 2.11631
 2.17106 2.17107 2.27252 2.27252 2.44624 2.44625 2.49795 2.49796 2.68777 2.68780
 3.02751 3.02752 3.71751 3.71751 3.73041 3.73043 6.48645 6.48648
 == 12-th k-point (0.30616,-0.61232,0.30616) occupation: 14==
 -64.98961 -64.98960 -4.61904 -4.61889 -3.02982 -3.02982 -3.02965 -3.02928 -3.02912 -3.02909
 -0.08764 0.07557 0.13778 0.22746 0.36918 0.45521 0.47021 0.50443 0.52478 0.63717
 0.74869 0.77509 0.78213 0.91530 0.93279 0.93449 0.98638 1.09237 1.18668 1.19787
 1.24467 1.25557 1.31719 1.38573 1.39280 1.39819 1.50354 1.61509 1.62468 1.62849
 1.71473 1.74475 1.75950 1.77351 1.90602 1.92107 1.94582 2.05237 2.12433 2.15182
 2.15562 2.19021 2.29612 2.35472 2.36360 2.40605 2.50347 2.58540 2.60074 2.69552
 2.89144 3.41960 3.49293 3.87307 3.94737 4.04409 6.78053 7.55368
 == 13-th k-point (0.45924,-0.45924,0.15308) occupation: 14==
 -64.98961 -64.98958 -4.61901 -4.61891 -3.02984 -3.02984 -3.02959 -3.02933 -3.02910 -3.02908
 -0.06277 0.04221 0.14601 0.19477 0.33474 0.44402 0.49130 0.49913 0.65797 0.67743
 0.73896 0.75489 0.76763 0.90947 0.96155 0.98144 1.02631 1.02737 1.04502 1.16571
 1.19041 1.24925 1.26162 1.39620 1.43909 1.46630 1.47873 1.52611 1.62540 1.68921
 1.69977 1.72850 1.80660 1.81756 1.88045 1.94970 2.00599 2.01941 2.10215 2.10856
 2.18323 2.25916 2.30355 2.36506 2.39850 2.40271 2.42433 2.52841 2.57679 2.69205
 3.17753 3.32446 3.55837 3.73757 3.93038 3.98070 5.72111 7.84949
 == 14-th k-point (0.61232,-0.30616,0.00000) occupation: 14==
 -64.98960 -64.98960 -4.61896 -4.61896 -3.02985 -3.02985 -3.02946 -3.02946 -3.02907 -3.02907
 -0.00414 -0.00414 0.13390 0.13390 0.43775 0.43775 0.46329 0.46329 0.67542 0.67542
 0.76709 0.76709 0.89540 0.89540 0.98028 0.98029 0.99445 0.99445 1.03736 1.03736
 1.17715 1.17715 1.32782 1.32783 1.41810 1.41810 1.46744 1.46745 1.59221 1.59221
 1.76889 1.76889 1.85177 1.85178 1.97332 1.97332 2.01817 2.01818 2.11630 2.11631
 2.17106 2.17107 2.27252 2.27252 2.44624 2.44625 2.49795 2.49796 2.68777 2.68780
 3.02751 3.02752 3.71751 3.71751 3.73041 3.73043 6.48645 6.48648
 == 15-th k-point (0.76541,-0.15308,-0.15308) occupation: 14==
 -64.98961 -64.98958 -4.61901 -4.61891 -3.02984 -3.02984 -3.02959 -3.02933 -3.02910 -3.02908
 -0.06277 0.04221 0.14601 0.19477 0.33474 0.44402 0.49130 0.49913 0.65797 0.67743
 0.73896 0.75489 0.76763 0.90947 0.96155 0.98144 1.02632 1.02736 1.04502 1.16571
 1.19041 1.24925 1.26163 1.39620 1.43909 1.46629 1.47872 1.52611 1.62534 1.68921
 1.69977 1.72851 1.80660 1.81754 1.88045 1.94969 2.00598 2.01941 2.10215 2.10854
 2.18322 2.25916 2.30354 2.36506 2.39850 2.40270 2.42432 2.52831 2.57679 2.69205
 3.17752 3.32422 3.55835 3.73757 3.93038 3.98070 5.72111 7.84946
 == 16-th k-point (-0.30616,-0.00000,-0.00000) occupation: 14==
 -64.98958 -64.98957 -4.61906 -4.61886 -3.02985 -3.02985 -3.02968 -3.02926 -3.02913 -3.02913
 -0.12312 0.14833 0.20662 0.20662 0.31962 0.39517 0.49213 0.49213 0.57947 0.61738
 0.69827 0.77732 0.77732 0.80224 0.94193 0.94193 0.97617 1.05348 1.10248 1.31013
 1.32066 1.33532 1.33532 1.40301 1.40301 1.45989 1.46208 1.63827 1.63828 1.64205
 1.74130 1.74131 1.75954 1.78140 1.88236 1.98209 1.98219 1.98253 2.05077 2.05078
 2.06638 2.10817 2.15260 2.22769 2.30482 2.30483 2.46126 2.56389 2.56400 2.72462
 3.48113 3.72448 3.72457 3.97713 4.28216 4.28245 5.26730 6.01464
 == 17-th k-point (-0.15308,0.15308,-0.15308) occupation: 14==
 -64.98961 -64.98955 -4.61907 -4.61885 -3.02982 -3.02982 -3.02974 -3.02920 -3.02915 -3.02915
 -0.13349 0.13239 0.24879 0.24879 0.35362 0.40786 0.40786 0.53286 0.55193 0.55193
 0.62271 0.71704 0.83879 0.83879 0.96948 0.96948 0.97344 1.04849 1.22307 1.22307
 1.29637 1.29637 1.35835 1.39646 1.44686 1.55267 1.55268 1.58956 1.58956 1.61914
 1.61916 1.77833 1.78367 1.78367 1.90269 1.96568 1.98159 1.98159 1.98669 2.06864
 2.12101 2.12102 2.27310 2.27314 2.29405 2.33329 2.33330 2.49891 2.61430 2.61451
 3.33357 3.82517 3.82666 3.82699 4.03298 4.03309 4.35268 7.65556
 == 18-th k-point (0.00000,0.30616,-0.30616) occupation: 14==
 -64.98961 -64.98960 -4.61904 -4.61889 -3.02982 -3.02982 -3.02965 -3.02928 -3.02912 -3.02909
 -0.08764 0.07557 0.13778 0.22746 0.36918 0.45521 0.47021 0.50443 0.52478 0.63717
 0.74869 0.77509 0.78213 0.91530 0.93279 0.93449 0.98639 1.09237 1.18668 1.19787
 1.24468 1.25557 1.31719 1.38573 1.39280 1.39817 1.50354 1.61507 1.62469 1.62849
 1.71473 1.74475 1.75950 1.77352 1.90602 1.92107 1.94582 2.05239 2.12433 2.15182
 2.15564 2.19021 2.29614 2.35472 2.36346 2.40605 2.50346 2.58539 2.60070 2.69546
 2.89144 3.41960 3.49293 3.87305 3.94739 4.04407 6.78061 7.55364
 == 19-th k-point (0.15308,0.45924,-0.45924) occupation: 14==
 -64.98961 -64.98958 -4.61901 -4.61891 -3.02984 -3.02984 -3.02959 -3.02933 -3.02910 -3.02908
 -0.06277 0.04221 0.14601 0.19477 0.33474 0.44402 0.49130 0.49913 0.65797 0.67743
 0.73896 0.75489 0.76763 0.90947 0.96155 0.98144 1.02631 1.02737 1.04502 1.16571
 1.19041 1.24925 1.26162 1.39620 1.43909 1.46630 1.47873 1.52611 1.62540 1.68921
 1.69977 1.72850 1.80660 1.81756 1.88045 1.94970 2.00599 2.01941 2.10215 2.10856
 2.18323 2.25916 2.30355 2.36506 2.39850 2.40271 2.42433 2.52841 2.57679 2.69205
 3.17753 3.32446 3.55837 3.73757 3.93038 3.98070 5.72111 7.84949
 == 20-th k-point (-0.15308,-0.15308,0.15308) occupation: 14==
 -64.98961 -64.98955 -4.61907 -4.61885 -3.02982 -3.02982 -3.02974 -3.02920 -3.02915 -3.02915
 -0.13349 0.13239 0.24879 0.24879 0.35362 0.40786 0.40786 0.53286 0.55193 0.55193
 0.62271 0.71704 0.83879 0.83879 0.96948 0.96948 0.97344 1.04849 1.22307 1.22307
 1.29637 1.29637 1.35835 1.39646 1.44686 1.55267 1.55268 1.58956 1.58956 1.61914
 1.61916 1.77833 1.78367 1.78367 1.90269 1.96568 1.98159 1.98159 1.98669 2.06864
 2.12101 2.12102 2.27310 2.27314 2.29405 2.33329 2.33330 2.49891 2.61430 2.61451
 3.33357 3.82517 3.82666 3.82699 4.03298 4.03309 4.35268 7.65556
 == 21-th k-point (0.00000,0.00000,0.00000) occupation: 14==
 -64.98956 -64.98952 -4.61909 -4.61881 -3.02977 -3.02977 -3.02977 -3.02917 -3.02917 -3.02917
 -0.16291 0.27759 0.27759 0.27759 0.37202 0.37202 0.37202 0.40311 0.57230 0.57230
 0.58579 0.70712 0.70712 0.70712 0.92089 1.18972 1.18972 1.18972 1.22295 1.22295
 1.24309 1.24310 1.24310 1.37649 1.37649 1.37649 1.63647 1.63647 1.63647 1.79770
 1.79770 1.86453 1.86453 1.86453 1.93405 1.95686 1.95686 1.95691 1.96820 1.96820
 2.07268 2.07268 2.07268 2.13577 2.13577 2.13577 2.26926 2.74287 2.86298 2.86298
 2.86340 3.46978 3.46978 3.46978 4.11721 4.11721 4.11754 4.46825
 == 22-th k-point (0.15308,0.15308,-0.15308) occupation: 14==
 -64.98961 -64.98955 -4.61907 -4.61885 -3.02982 -3.02982 -3.02974 -3.02920 -3.02915 -3.02915
 -0.13349 0.13239 0.24879 0.24879 0.35362 0.40786 0.40786 0.53286 0.55193 0.55193
 0.62271 0.71704 0.83879 0.83879 0.96948 0.96948 0.97344 1.04849 1.22307 1.22307
 1.29637 1.29637 1.35835 1.39646 1.44686 1.55267 1.55268 1.58956 1.58956 1.61914
 1.61916 1.77833 1.78367 1.78367 1.90269 1.96568 1.98159 1.98159 1.98669 2.06864
 2.12101 2.12102 2.27310 2.27314 2.29405 2.33329 2.33330 2.49891 2.61430 2.61451
 3.33357 3.82517 3.82666 3.82699 4.03298 4.03309 4.35268 7.65556
 == 23-th k-point (0.30616,0.30616,-0.30616) occupation: 14==
 -64.98961 -64.98954 -4.61903 -4.61889 -3.02982 -3.02982 -3.02968 -3.02921 -3.02913 -3.02913
 -0.07684 0.01988 0.23217 0.23217 0.33598 0.40275 0.40275 0.56789 0.68148 0.68148
 0.70137 0.70511 0.70511 0.76730 1.01988 1.03500 1.11076 1.11076 1.16036 1.16036
 1.25512 1.29886 1.29886 1.36265 1.36265 1.42236 1.54820 1.54821 1.55611 1.55611
 1.63885 1.64366 1.86291 1.93344 1.96307 1.96307 2.01585 2.01586 2.01614 2.08921
 2.34607 2.34609 2.42901 2.42908 2.43792 2.43793 2.46084 2.49482 2.49482 2.50454
 3.42942 3.42942 3.47190 3.58249 3.67592 4.10306 4.10311 7.73019
 == 24-th k-point (-0.00000,-0.30616,0.30616) occupation: 14==
 -64.98961 -64.98960 -4.61904 -4.61889 -3.02982 -3.02982 -3.02965 -3.02928 -3.02912 -3.02909
 -0.08764 0.07557 0.13778 0.22746 0.36918 0.45521 0.47021 0.50443 0.52478 0.63717
 0.74869 0.77509 0.78213 0.91530 0.93279 0.93449 0.98639 1.09237 1.18668 1.19787
 1.24468 1.25557 1.31719 1.38573 1.39280 1.39817 1.50354 1.61507 1.62469 1.62849
 1.71473 1.74475 1.75950 1.77352 1.90602 1.92107 1.94582 2.05239 2.12433 2.15182
 2.15564 2.19021 2.29614 2.35472 2.36346 2.40605 2.50346 2.58539 2.60070 2.69546
 2.89144 3.41960 3.49293 3.87305 3.94739 4.04407 6.78061 7.55364
 == 25-th k-point (0.15308,-0.15308,0.15308) occupation: 14==
 -64.98961 -64.98955 -4.61907 -4.61885 -3.02982 -3.02982 -3.02974 -3.02920 -3.02915 -3.02915
 -0.13349 0.13239 0.24879 0.24879 0.35362 0.40786 0.40786 0.53286 0.55193 0.55193
 0.62271 0.71704 0.83879 0.83879 0.96948 0.96948 0.97344 1.04849 1.22307 1.22307
 1.29637 1.29637 1.35835 1.39646 1.44686 1.55267 1.55268 1.58956 1.58956 1.61914
 1.61916 1.77833 1.78367 1.78367 1.90269 1.96568 1.98159 1.98159 1.98669 2.06864
 2.12101 2.12102 2.27310 2.27314 2.29405 2.33329 2.33330 2.49891 2.61430 2.61451
 3.33357 3.82517 3.82666 3.82699 4.03298 4.03309 4.35268 7.65556
 == 26-th k-point (0.30616,0.00000,0.00000) occupation: 14==
 -64.98958 -64.98957 -4.61906 -4.61886 -3.02985 -3.02985 -3.02968 -3.02926 -3.02913 -3.02913
 -0.12312 0.14833 0.20662 0.20662 0.31962 0.39517 0.49213 0.49213 0.57947 0.61738
 0.69827 0.77732 0.77732 0.80224 0.94193 0.94193 0.97617 1.05348 1.10248 1.31013
 1.32066 1.33532 1.33532 1.40301 1.40301 1.45989 1.46208 1.63827 1.63828 1.64205
 1.74130 1.74131 1.75954 1.78140 1.88236 1.98209 1.98219 1.98253 2.05077 2.05078
 2.06638 2.10817 2.15260 2.22769 2.30482 2.30483 2.46126 2.56389 2.56400 2.72462
 3.48113 3.72448 3.72457 3.97713 4.28216 4.28245 5.26730 6.01464
 == 27-th k-point (0.45924,0.15308,-0.15308) occupation: 14==
 -64.98961 -64.98958 -4.61901 -4.61891 -3.02984 -3.02984 -3.02959 -3.02933 -3.02910 -3.02908
 -0.06277 0.04221 0.14601 0.19477 0.33474 0.44402 0.49130 0.49913 0.65797 0.67743
 0.73896 0.75489 0.76763 0.90947 0.96155 0.98144 1.02631 1.02737 1.04502 1.16571
 1.19041 1.24925 1.26162 1.39620 1.43909 1.46630 1.47873 1.52611 1.62540 1.68921
 1.69977 1.72850 1.80660 1.81756 1.88045 1.94970 2.00599 2.01941 2.10215 2.10856
 2.18323 2.25916 2.30355 2.36506 2.39850 2.40271 2.42433 2.52841 2.57679 2.69205
 3.17753 3.32446 3.55837 3.73757 3.93038 3.98070 5.72111 7.84949
 == 28-th k-point (0.15308,-0.45924,0.45924) occupation: 14==
 -64.98961 -64.98958 -4.61901 -4.61891 -3.02984 -3.02984 -3.02959 -3.02933 -3.02910 -3.02908
 -0.06277 0.04221 0.14601 0.19477 0.33474 0.44402 0.49130 0.49913 0.65797 0.67743
 0.73896 0.75489 0.76763 0.90947 0.96155 0.98144 1.02631 1.02737 1.04502 1.16571
 1.19041 1.24925 1.26162 1.39620 1.43909 1.46630 1.47873 1.52611 1.62540 1.68921
 1.69977 1.72850 1.80660 1.81756 1.88045 1.94970 2.00599 2.01941 2.10215 2.10856
 2.18323 2.25916 2.30355 2.36506 2.39850 2.40271 2.42433 2.52841 2.57679 2.69205
 3.17753 3.32446 3.55837 3.73757 3.93038 3.98070 5.72111 7.84949
 == 29-th k-point (0.30616,-0.30616,0.30616) occupation: 14==
 -64.98961 -64.98954 -4.61903 -4.61889 -3.02982 -3.02982 -3.02968 -3.02921 -3.02913 -3.02913
 -0.07684 0.01988 0.23217 0.23217 0.33598 0.40275 0.40275 0.56789 0.68148 0.68148
 0.70137 0.70511 0.70511 0.76730 1.01988 1.03500 1.11076 1.11076 1.16036 1.16036
 1.25512 1.29886 1.29886 1.36265 1.36265 1.42236 1.54820 1.54821 1.55611 1.55611
 1.63885 1.64366 1.86291 1.93344 1.96307 1.96307 2.01585 2.01586 2.01614 2.08921
 2.34607 2.34609 2.42901 2.42908 2.43792 2.43793 2.46084 2.49482 2.49482 2.50454
 3.42942 3.42942 3.47190 3.58249 3.67592 4.10306 4.10311 7.73019
 == 30-th k-point (0.45924,-0.15308,0.15308) occupation: 14==
 -64.98961 -64.98958 -4.61901 -4.61891 -3.02984 -3.02984 -3.02959 -3.02933 -3.02910 -3.02908
 -0.06277 0.04221 0.14601 0.19477 0.33474 0.44402 0.49130 0.49913 0.65797 0.67743
 0.73896 0.75489 0.76763 0.90947 0.96155 0.98144 1.02631 1.02737 1.04502 1.16571
 1.19041 1.24925 1.26162 1.39620 1.43909 1.46630 1.47873 1.52611 1.62540 1.68921
 1.69977 1.72850 1.80660 1.81756 1.88045 1.94970 2.00599 2.01941 2.10215 2.10856
 2.18323 2.25916 2.30355 2.36506 2.39850 2.40271 2.42433 2.52841 2.57679 2.69205
 3.17753 3.32446 3.55837 3.73757 3.93038 3.98070 5.72111 7.84949
 == 31-th k-point (0.61232,0.00000,0.00000) occupation: 14==
 -64.98958 -64.98957 -4.61896 -4.61896 -3.02983 -3.02983 -3.02946 -3.02946 -3.02911 -3.02911
 -0.01031 -0.01031 0.17068 0.17068 0.30485 0.30485 0.65115 0.65115 0.69812 0.69812
 0.75263 0.75263 0.76036 0.76036 0.99991 0.99991 1.04482 1.04483 1.06926 1.06926
 1.11820 1.11820 1.27390 1.27390 1.42246 1.42247 1.63613 1.63613 1.75653 1.75653
 1.76972 1.76972 1.85046 1.85046 1.89851 1.89851 2.11876 2.11876 2.15651 2.15651
 2.17276 2.17400 2.25665 2.25665 2.34552 2.34552 2.65682 2.65867 2.66437 2.66440
 2.83735 2.83735 3.83675 3.83676 4.13427 4.13512 5.45708 5.45710
 == 32-th k-point (-0.45924,0.15308,0.15308) occupation: 14==
 -64.98961 -64.98958 -4.61901 -4.61891 -3.02984 -3.02984 -3.02959 -3.02933 -3.02910 -3.02908
 -0.06277 0.04221 0.14601 0.19477 0.33474 0.44402 0.49130 0.49913 0.65797 0.67743
 0.73896 0.75489 0.76763 0.90947 0.96155 0.98144 1.02632 1.02737 1.04502 1.16571
 1.19041 1.24925 1.26162 1.39620 1.43909 1.46629 1.47872 1.52611 1.62534 1.68921
 1.69977 1.72850 1.80660 1.81754 1.88046 1.94970 2.00599 2.01941 2.10214 2.10854
 2.18322 2.25917 2.30354 2.36506 2.39850 2.40270 2.42431 2.52831 2.57673 2.69196
 3.17745 3.32422 3.55835 3.73756 3.93035 3.98070 5.72110 7.84937
 == 33-th k-point (-0.30616,0.30616,-0.00000) occupation: 14==
 -64.98961 -64.98960 -4.61904 -4.61889 -3.02982 -3.02982 -3.02965 -3.02928 -3.02912 -3.02909
 -0.08764 0.07557 0.13778 0.22746 0.36918 0.45521 0.47021 0.50443 0.52478 0.63717
 0.74869 0.77509 0.78213 0.91530 0.93279 0.93449 0.98639 1.09237 1.18668 1.19787
 1.24468 1.25557 1.31719 1.38573 1.39280 1.39817 1.50354 1.61507 1.62469 1.62849
 1.71473 1.74475 1.75950 1.77352 1.90602 1.92107 1.94582 2.05239 2.12433 2.15182
 2.15564 2.19021 2.29614 2.35472 2.36346 2.40605 2.50346 2.58539 2.60070 2.69546
 2.89144 3.41960 3.49293 3.87305 3.94739 4.04407 6.78061 7.55364
 == 34-th k-point (-0.15308,0.45924,-0.15308) occupation: 14==
 -64.98961 -64.98958 -4.61901 -4.61891 -3.02984 -3.02984 -3.02959 -3.02933 -3.02910 -3.02908
 -0.06277 0.04221 0.14601 0.19477 0.33474 0.44402 0.49130 0.49913 0.65797 0.67743
 0.73896 0.75489 0.76763 0.90947 0.96155 0.98144 1.02632 1.02737 1.04502 1.16571
 1.19041 1.24925 1.26162 1.39620 1.43909 1.46629 1.47872 1.52611 1.62534 1.68921
 1.69977 1.72850 1.80660 1.81754 1.88046 1.94970 2.00599 2.01941 2.10214 2.10854
 2.18322 2.25917 2.30354 2.36506 2.39850 2.40270 2.42431 2.52831 2.57673 2.69196
 3.17745 3.32422 3.55835 3.73756 3.93035 3.98070 5.72110 7.84937
 == 35-th k-point (0.00000,0.61232,-0.30616) occupation: 14==
 -64.98960 -64.98960 -4.61896 -4.61896 -3.02985 -3.02985 -3.02946 -3.02946 -3.02907 -3.02907
 -0.00414 -0.00414 0.13390 0.13390 0.43775 0.43775 0.46329 0.46329 0.67542 0.67542
 0.76709 0.76709 0.89540 0.89540 0.98028 0.98029 0.99445 0.99445 1.03736 1.03736
 1.17715 1.17715 1.32782 1.32783 1.41810 1.41810 1.46744 1.46745 1.59221 1.59221
 1.76889 1.76889 1.85177 1.85178 1.97332 1.97332 2.01817 2.01818 2.11630 2.11631
 2.17106 2.17107 2.27252 2.27252 2.44624 2.44625 2.49795 2.49796 2.68777 2.68780
 3.02751 3.02752 3.71751 3.71751 3.73041 3.73043 6.48645 6.48648
 == 36-th k-point (-0.30616,0.00000,0.30616) occupation: 14==
 -64.98961 -64.98960 -4.61904 -4.61889 -3.02982 -3.02982 -3.02965 -3.02928 -3.02912 -3.02909
 -0.08764 0.07557 0.13778 0.22746 0.36918 0.45521 0.47021 0.50443 0.52478 0.63717
 0.74869 0.77509 0.78213 0.91530 0.93279 0.93449 0.98639 1.09237 1.18668 1.19787
 1.24468 1.25557 1.31719 1.38573 1.39280 1.39817 1.50354 1.61507 1.62469 1.62849
 1.71473 1.74475 1.75950 1.77352 1.90602 1.92107 1.94582 2.05239 2.12433 2.15182
 2.15564 2.19021 2.29614 2.35472 2.36346 2.40605 2.50346 2.58539 2.60070 2.69546
 2.89144 3.41960 3.49293 3.87305 3.94739 4.04407 6.78061 7.55364
 == 37-th k-point (-0.15308,0.15308,0.15308) occupation: 14==
 -64.98961 -64.98955 -4.61907 -4.61885 -3.02982 -3.02982 -3.02974 -3.02920 -3.02915 -3.02915
 -0.13349 0.13239 0.24879 0.24879 0.35362 0.40786 0.40786 0.53286 0.55193 0.55193
 0.62271 0.71704 0.83879 0.83879 0.96948 0.96948 0.97344 1.04849 1.22307 1.22307
 1.29637 1.29637 1.35835 1.39646 1.44686 1.55267 1.55268 1.58956 1.58956 1.61914
 1.61916 1.77833 1.78367 1.78367 1.90269 1.96568 1.98159 1.98159 1.98669 2.06864
 2.12101 2.12102 2.27310 2.27314 2.29405 2.33329 2.33330 2.49891 2.61430 2.61451
 3.33357 3.82517 3.82666 3.82699 4.03298 4.03309 4.35268 7.65556
 == 38-th k-point (0.00000,0.30616,0.00000) occupation: 14==
 -64.98958 -64.98957 -4.61906 -4.61886 -3.02985 -3.02985 -3.02968 -3.02926 -3.02913 -3.02913
 -0.12312 0.14833 0.20662 0.20662 0.31962 0.39517 0.49213 0.49213 0.57947 0.61738
 0.69827 0.77732 0.77732 0.80224 0.94193 0.94193 0.97617 1.05348 1.10248 1.31013
 1.32066 1.33532 1.33532 1.40301 1.40301 1.45989 1.46208 1.63827 1.63828 1.64205
 1.74130 1.74131 1.75954 1.78140 1.88236 1.98209 1.98219 1.98253 2.05077 2.05078
 2.06638 2.10817 2.15260 2.22769 2.30482 2.30483 2.46126 2.56389 2.56400 2.72462
 3.48113 3.72448 3.72457 3.97713 4.28216 4.28245 5.26730 6.01464
 == 39-th k-point (0.15308,0.45924,-0.15308) occupation: 14==
 -64.98961 -64.98958 -4.61901 -4.61891 -3.02984 -3.02984 -3.02959 -3.02933 -3.02910 -3.02908
 -0.06277 0.04221 0.14601 0.19477 0.33474 0.44402 0.49130 0.49913 0.65797 0.67743
 0.73896 0.75489 0.76763 0.90947 0.96155 0.98144 1.02631 1.02737 1.04502 1.16571
 1.19041 1.24925 1.26162 1.39620 1.43909 1.46630 1.47873 1.52611 1.62540 1.68921
 1.69977 1.72850 1.80660 1.81756 1.88045 1.94970 2.00599 2.01941 2.10215 2.10856
 2.18323 2.25916 2.30355 2.36506 2.39850 2.40271 2.42433 2.52841 2.57679 2.69205
 3.17753 3.32446 3.55837 3.73757 3.93038 3.98070 5.72111 7.84949
 == 40-th k-point (-0.15308,-0.15308,0.45924) occupation: 14==
 -64.98961 -64.98958 -4.61901 -4.61891 -3.02984 -3.02984 -3.02959 -3.02933 -3.02910 -3.02908
 -0.06277 0.04221 0.14601 0.19477 0.33474 0.44402 0.49130 0.49913 0.65797 0.67743
 0.73896 0.75489 0.76763 0.90947 0.96155 0.98144 1.02632 1.02737 1.04502 1.16571
 1.19041 1.24925 1.26162 1.39620 1.43909 1.46629 1.47872 1.52611 1.62534 1.68921
 1.69977 1.72850 1.80660 1.81754 1.88046 1.94970 2.00599 2.01941 2.10214 2.10854
 2.18322 2.25917 2.30354 2.36506 2.39850 2.40270 2.42431 2.52831 2.57673 2.69196
 3.17745 3.32422 3.55835 3.73756 3.93035 3.98070 5.72110 7.84937
 == 41-th k-point (0.00000,0.00000,0.30616) occupation: 14==
 -64.98958 -64.98957 -4.61906 -4.61886 -3.02985 -3.02985 -3.02968 -3.02926 -3.02913 -3.02913
 -0.12312 0.14833 0.20662 0.20662 0.31962 0.39517 0.49213 0.49213 0.57947 0.61738
 0.69827 0.77732 0.77732 0.80224 0.94193 0.94193 0.97617 1.05348 1.10248 1.31013
 1.32066 1.33532 1.33532 1.40301 1.40301 1.45989 1.46208 1.63827 1.63828 1.64205
 1.74130 1.74131 1.75954 1.78140 1.88236 1.98209 1.98219 1.98253 2.05077 2.05078
 2.06638 2.10817 2.15260 2.22769 2.30482 2.30483 2.46126 2.56389 2.56400 2.72462
 3.48113 3.72448 3.72457 3.97713 4.28216 4.28245 5.26730 6.01464
 == 42-th k-point (0.15308,0.15308,0.15308) occupation: 14==
 -64.98961 -64.98955 -4.61907 -4.61885 -3.02982 -3.02982 -3.02974 -3.02920 -3.02915 -3.02915
 -0.13349 0.13239 0.24879 0.24879 0.35362 0.40786 0.40786 0.53286 0.55193 0.55193
 0.62271 0.71704 0.83879 0.83879 0.96948 0.96948 0.97344 1.04850 1.22307 1.22307
 1.29637 1.29637 1.35835 1.39646 1.44686 1.55267 1.55267 1.58956 1.58956 1.61916
 1.61916 1.77834 1.78367 1.78367 1.90269 1.96568 1.98159 1.98159 1.98669 2.06867
 2.12102 2.12102 2.27314 2.27314 2.29407 2.33330 2.33330 2.49893 2.61451 2.61451
 3.33358 3.82517 3.82699 3.82699 4.03309 4.03309 4.35272 7.65572
 == 43-th k-point (0.30616,0.30616,0.00000) occupation: 14==
 -64.98961 -64.98960 -4.61904 -4.61889 -3.02982 -3.02982 -3.02965 -3.02928 -3.02912 -3.02909
 -0.08764 0.07557 0.13778 0.22746 0.36918 0.45521 0.47021 0.50443 0.52478 0.63717
 0.74869 0.77509 0.78213 0.91530 0.93279 0.93449 0.98638 1.09237 1.18668 1.19787
 1.24467 1.25557 1.31719 1.38573 1.39280 1.39819 1.50354 1.61509 1.62468 1.62849
 1.71473 1.74475 1.75950 1.77351 1.90602 1.92107 1.94582 2.05237 2.12433 2.15182
 2.15562 2.19021 2.29612 2.35472 2.36360 2.40605 2.50347 2.58540 2.60074 2.69552
 2.89144 3.41960 3.49293 3.87307 3.94737 4.04409 6.78053 7.55368
 == 44-th k-point (0.00000,-0.30616,0.61232) occupation: 14==
 -64.98960 -64.98960 -4.61896 -4.61896 -3.02985 -3.02985 -3.02946 -3.02946 -3.02907 -3.02907
 -0.00414 -0.00414 0.13390 0.13390 0.43775 0.43775 0.46329 0.46329 0.67542 0.67542
 0.76709 0.76709 0.89540 0.89540 0.98028 0.98029 0.99445 0.99445 1.03736 1.03736
 1.17715 1.17715 1.32782 1.32783 1.41810 1.41810 1.46744 1.46745 1.59221 1.59221
 1.76889 1.76889 1.85177 1.85178 1.97332 1.97332 2.01817 2.01818 2.11630 2.11631
 2.17106 2.17107 2.27252 2.27252 2.44624 2.44625 2.49795 2.49796 2.68777 2.68780
 3.02751 3.02752 3.71751 3.71751 3.73041 3.73043 6.48645 6.48648
 == 45-th k-point (0.15308,-0.15308,0.45924) occupation: 14==
 -64.98961 -64.98958 -4.61901 -4.61891 -3.02984 -3.02984 -3.02959 -3.02933 -3.02910 -3.02908
 -0.06277 0.04221 0.14601 0.19477 0.33474 0.44402 0.49130 0.49913 0.65797 0.67743
 0.73896 0.75489 0.76763 0.90947 0.96155 0.98144 1.02631 1.02737 1.04502 1.16571
 1.19041 1.24925 1.26162 1.39620 1.43909 1.46630 1.47873 1.52611 1.62540 1.68921
 1.69977 1.72850 1.80660 1.81756 1.88045 1.94970 2.00599 2.01941 2.10215 2.10856
 2.18323 2.25916 2.30355 2.36506 2.39850 2.40271 2.42433 2.52841 2.57679 2.69205
 3.17753 3.32446 3.55837 3.73757 3.93038 3.98070 5.72111 7.84949
 == 46-th k-point (0.30616,0.00000,0.30616) occupation: 14==
 -64.98961 -64.98960 -4.61904 -4.61889 -3.02982 -3.02982 -3.02965 -3.02928 -3.02912 -3.02909
 -0.08764 0.07557 0.13778 0.22746 0.36918 0.45521 0.47021 0.50443 0.52478 0.63717
 0.74869 0.77509 0.78213 0.91530 0.93279 0.93449 0.98638 1.09237 1.18668 1.19787
 1.24467 1.25557 1.31719 1.38573 1.39280 1.39819 1.50354 1.61509 1.62468 1.62849
 1.71473 1.74475 1.75950 1.77351 1.90602 1.92107 1.94582 2.05237 2.12433 2.15182
 2.15562 2.19021 2.29612 2.35472 2.36360 2.40605 2.50347 2.58540 2.60074 2.69552
 2.89144 3.41960 3.49293 3.87307 3.94737 4.04409 6.78053 7.55368
 == 47-th k-point (0.45924,0.15308,0.15308) occupation: 14==
 -64.98961 -64.98958 -4.61901 -4.61891 -3.02984 -3.02984 -3.02959 -3.02933 -3.02910 -3.02908
 -0.06277 0.04221 0.14601 0.19477 0.33474 0.44402 0.49130 0.49913 0.65797 0.67743
 0.73896 0.75489 0.76763 0.90947 0.96155 0.98144 1.02632 1.02736 1.04502 1.16571
 1.19041 1.24925 1.26163 1.39620 1.43909 1.46629 1.47872 1.52611 1.62534 1.68921
 1.69977 1.72851 1.80660 1.81754 1.88045 1.94969 2.00598 2.01941 2.10215 2.10854
 2.18322 2.25916 2.30354 2.36506 2.39850 2.40270 2.42432 2.52831 2.57679 2.69205
 3.17752 3.32422 3.55835 3.73757 3.93038 3.98070 5.72111 7.84946
 == 48-th k-point (-0.61232,0.30616,0.30616) occupation: 14==
 -64.98961 -64.98960 -4.61904 -4.61889 -3.02982 -3.02982 -3.02965 -3.02928 -3.02912 -3.02909
 -0.08764 0.07557 0.13778 0.22746 0.36918 0.45521 0.47021 0.50443 0.52478 0.63717
 0.74869 0.77509 0.78213 0.91530 0.93279 0.93449 0.98638 1.09237 1.18668 1.19787
 1.24467 1.25557 1.31719 1.38573 1.39280 1.39819 1.50354 1.61509 1.62468 1.62849
 1.71473 1.74475 1.75950 1.77351 1.90602 1.92107 1.94582 2.05237 2.12433 2.15182
 2.15562 2.19021 2.29612 2.35472 2.36360 2.40605 2.50347 2.58540 2.60074 2.69552
 2.89144 3.41960 3.49293 3.87307 3.94737 4.04409 6.78053 7.55368
 == 49-th k-point (-0.45924,0.45924,0.15308) occupation: 14==
 -64.98961 -64.98958 -4.61901 -4.61891 -3.02984 -3.02984 -3.02959 -3.02933 -3.02910 -3.02908
 -0.06277 0.04221 0.14601 0.19477 0.33474 0.44402 0.49130 0.49913 0.65797 0.67743
 0.73896 0.75489 0.76763 0.90947 0.96155 0.98144 1.02631 1.02737 1.04502 1.16571
 1.19041 1.24925 1.26162 1.39620 1.43909 1.46630 1.47873 1.52611 1.62540 1.68921
 1.69977 1.72850 1.80660 1.81756 1.88045 1.94970 2.00599 2.01941 2.10215 2.10856
 2.18323 2.25916 2.30355 2.36506 2.39850 2.40271 2.42433 2.52841 2.57679 2.69205
 3.17753 3.32446 3.55837 3.73757 3.93038 3.98070 5.72111 7.84949
 == 50-th k-point (-0.30616,0.61232,-0.00000) occupation: 14==
 -64.98960 -64.98960 -4.61896 -4.61896 -3.02985 -3.02985 -3.02946 -3.02946 -3.02907 -3.02907
 -0.00414 -0.00414 0.13390 0.13390 0.43775 0.43775 0.46329 0.46329 0.67542 0.67542
 0.76709 0.76709 0.89540 0.89540 0.98028 0.98029 0.99445 0.99445 1.03736 1.03736
 1.17715 1.17715 1.32782 1.32783 1.41810 1.41810 1.46744 1.46745 1.59221 1.59221
 1.76889 1.76889 1.85177 1.85178 1.97332 1.97332 2.01817 2.01818 2.11630 2.11631
 2.17106 2.17107 2.27252 2.27252 2.44624 2.44625 2.49795 2.49796 2.68777 2.68780
 3.02751 3.02752 3.71751 3.71751 3.73041 3.73043 6.48645 6.48648
 == 51-th k-point (-0.15308,0.76541,-0.15308) occupation: 14==
 -64.98961 -64.98958 -4.61901 -4.61891 -3.02984 -3.02984 -3.02959 -3.02933 -3.02910 -3.02908
 -0.06277 0.04221 0.14601 0.19477 0.33474 0.44402 0.49130 0.49913 0.65797 0.67743
 0.73896 0.75489 0.76763 0.90947 0.96155 0.98144 1.02632 1.02736 1.04502 1.16571
 1.19041 1.24925 1.26163 1.39620 1.43909 1.46629 1.47872 1.52611 1.62534 1.68921
 1.69977 1.72851 1.80660 1.81754 1.88045 1.94969 2.00598 2.01941 2.10215 2.10854
 2.18322 2.25916 2.30354 2.36506 2.39850 2.40270 2.42432 2.52831 2.57679 2.69205
 3.17752 3.32422 3.55835 3.73757 3.93038 3.98070 5.72111 7.84946
 == 52-th k-point (-0.45924,0.15308,0.45924) occupation: 14==
 -64.98961 -64.98958 -4.61901 -4.61891 -3.02984 -3.02984 -3.02959 -3.02933 -3.02910 -3.02908
 -0.06277 0.04221 0.14601 0.19477 0.33474 0.44402 0.49130 0.49913 0.65797 0.67743
 0.73896 0.75489 0.76763 0.90947 0.96155 0.98144 1.02631 1.02737 1.04502 1.16571
 1.19041 1.24925 1.26162 1.39620 1.43909 1.46630 1.47873 1.52611 1.62540 1.68921
 1.69977 1.72850 1.80660 1.81756 1.88045 1.94970 2.00599 2.01941 2.10215 2.10856
 2.18323 2.25916 2.30355 2.36506 2.39850 2.40271 2.42433 2.52841 2.57679 2.69205
 3.17753 3.32446 3.55837 3.73757 3.93038 3.98070 5.72111 7.84949
 == 53-th k-point (-0.30616,0.30616,0.30616) occupation: 14==
 -64.98961 -64.98954 -4.61903 -4.61889 -3.02982 -3.02982 -3.02968 -3.02921 -3.02913 -3.02913
 -0.07684 0.01988 0.23217 0.23217 0.33598 0.40275 0.40275 0.56789 0.68148 0.68148
 0.70137 0.70511 0.70511 0.76730 1.01988 1.03500 1.11076 1.11076 1.16036 1.16036
 1.25512 1.29886 1.29886 1.36265 1.36265 1.42236 1.54820 1.54821 1.55611 1.55611
 1.63885 1.64366 1.86291 1.93344 1.96307 1.96307 2.01585 2.01586 2.01614 2.08921
 2.34607 2.34609 2.42901 2.42908 2.43792 2.43793 2.46084 2.49482 2.49482 2.50454
 3.42942 3.42942 3.47190 3.58249 3.67592 4.10306 4.10311 7.73019
 == 54-th k-point (-0.15308,0.45924,0.15308) occupation: 14==
 -64.98961 -64.98958 -4.61901 -4.61891 -3.02984 -3.02984 -3.02959 -3.02933 -3.02910 -3.02908
 -0.06277 0.04221 0.14601 0.19477 0.33474 0.44402 0.49130 0.49913 0.65797 0.67743
 0.73896 0.75489 0.76763 0.90947 0.96155 0.98144 1.02631 1.02737 1.04502 1.16571
 1.19041 1.24925 1.26162 1.39620 1.43909 1.46630 1.47873 1.52611 1.62540 1.68921
 1.69977 1.72850 1.80660 1.81756 1.88045 1.94970 2.00599 2.01941 2.10215 2.10856
 2.18323 2.25916 2.30355 2.36506 2.39850 2.40271 2.42433 2.52841 2.57679 2.69205
 3.17753 3.32446 3.55837 3.73757 3.93038 3.98070 5.72111 7.84949
 == 55-th k-point (0.00000,0.61232,0.00000) occupation: 14==
 -64.98958 -64.98957 -4.61896 -4.61896 -3.02983 -3.02983 -3.02946 -3.02946 -3.02911 -3.02911
 -0.01031 -0.01031 0.17068 0.17068 0.30485 0.30485 0.65115 0.65115 0.69812 0.69812
 0.75263 0.75263 0.76036 0.76036 0.99991 0.99991 1.04482 1.04483 1.06926 1.06926
 1.11820 1.11820 1.27390 1.27390 1.42246 1.42247 1.63613 1.63613 1.75653 1.75653
 1.76972 1.76972 1.85046 1.85046 1.89851 1.89851 2.11876 2.11876 2.15651 2.15651
 2.17276 2.17400 2.25665 2.25665 2.34552 2.34552 2.65682 2.65867 2.66437 2.66440
 2.83735 2.83735 3.83675 3.83676 4.13427 4.13512 5.45708 5.45710
 == 56-th k-point (-0.30616,0.00000,0.61232) occupation: 14==
 -64.98960 -64.98960 -4.61896 -4.61896 -3.02985 -3.02985 -3.02946 -3.02946 -3.02907 -3.02907
 -0.00414 -0.00414 0.13390 0.13390 0.43775 0.43775 0.46329 0.46329 0.67542 0.67542
 0.76709 0.76709 0.89540 0.89540 0.98028 0.98029 0.99445 0.99445 1.03736 1.03736
 1.17715 1.17715 1.32782 1.32783 1.41810 1.41810 1.46744 1.46745 1.59221 1.59221
 1.76889 1.76889 1.85177 1.85178 1.97332 1.97332 2.01817 2.01818 2.11630 2.11631
 2.17106 2.17107 2.27252 2.27252 2.44624 2.44625 2.49795 2.49796 2.68777 2.68780
 3.02751 3.02752 3.71751 3.71751 3.73041 3.73043 6.48645 6.48648
 == 57-th k-point (-0.15308,0.15308,0.45924) occupation: 14==
 -64.98961 -64.98958 -4.61901 -4.61891 -3.02984 -3.02984 -3.02959 -3.02933 -3.02910 -3.02908
 -0.06277 0.04221 0.14601 0.19477 0.33474 0.44402 0.49130 0.49913 0.65797 0.67743
 0.73896 0.75489 0.76763 0.90947 0.96155 0.98144 1.02631 1.02737 1.04502 1.16571
 1.19041 1.24925 1.26162 1.39620 1.43909 1.46630 1.47873 1.52611 1.62540 1.68921
 1.69977 1.72850 1.80660 1.81756 1.88045 1.94970 2.00599 2.01941 2.10215 2.10856
 2.18323 2.25916 2.30355 2.36506 2.39850 2.40271 2.42433 2.52841 2.57679 2.69205
 3.17753 3.32446 3.55837 3.73757 3.93038 3.98070 5.72111 7.84949
 == 58-th k-point (0.00000,0.30616,0.30616) occupation: 14==
 -64.98961 -64.98960 -4.61904 -4.61889 -3.02982 -3.02982 -3.02965 -3.02928 -3.02912 -3.02909
 -0.08764 0.07557 0.13778 0.22746 0.36918 0.45521 0.47021 0.50443 0.52478 0.63717
 0.74869 0.77509 0.78213 0.91530 0.93279 0.93449 0.98638 1.09237 1.18668 1.19787
 1.24467 1.25557 1.31719 1.38573 1.39280 1.39819 1.50354 1.61509 1.62468 1.62849
 1.71473 1.74475 1.75950 1.77351 1.90602 1.92107 1.94582 2.05237 2.12433 2.15182
 2.15562 2.19021 2.29612 2.35472 2.36360 2.40605 2.50347 2.58540 2.60074 2.69552
 2.89144 3.41960 3.49293 3.87307 3.94737 4.04409 6.78053 7.55368
 == 59-th k-point (0.15308,0.45924,0.15308) occupation: 14==
 -64.98961 -64.98958 -4.61901 -4.61891 -3.02984 -3.02984 -3.02959 -3.02933 -3.02910 -3.02908
 -0.06277 0.04221 0.14601 0.19477 0.33474 0.44402 0.49130 0.49913 0.65797 0.67743
 0.73896 0.75489 0.76763 0.90947 0.96155 0.98144 1.02632 1.02736 1.04502 1.16571
 1.19041 1.24925 1.26163 1.39620 1.43909 1.46629 1.47872 1.52611 1.62534 1.68921
 1.69977 1.72851 1.80660 1.81754 1.88045 1.94969 2.00598 2.01941 2.10215 2.10854
 2.18322 2.25916 2.30354 2.36506 2.39850 2.40270 2.42432 2.52831 2.57679 2.69205
 3.17752 3.32422 3.55835 3.73757 3.93038 3.98070 5.72111 7.84946
 == 60-th k-point (-0.15308,-0.15308,0.76541) occupation: 14==
 -64.98961 -64.98958 -4.61901 -4.61891 -3.02984 -3.02984 -3.02959 -3.02933 -3.02910 -3.02908
 -0.06277 0.04221 0.14601 0.19477 0.33474 0.44402 0.49130 0.49913 0.65797 0.67743
 0.73896 0.75489 0.76763 0.90947 0.96155 0.98144 1.02632 1.02736 1.04502 1.16571
 1.19041 1.24925 1.26163 1.39620 1.43909 1.46629 1.47872 1.52611 1.62534 1.68921
 1.69977 1.72851 1.80660 1.81754 1.88045 1.94969 2.00598 2.01941 2.10215 2.10854
 2.18322 2.25916 2.30354 2.36506 2.39850 2.40270 2.42432 2.52831 2.57679 2.69205
 3.17752 3.32422 3.55835 3.73757 3.93038 3.98070 5.72111 7.84946
 == 61-th k-point (0.00000,0.00000,0.61232) occupation: 14==
 -64.98958 -64.98957 -4.61896 -4.61896 -3.02983 -3.02983 -3.02946 -3.02946 -3.02911 -3.02911
 -0.01031 -0.01031 0.17068 0.17068 0.30485 0.30485 0.65115 0.65115 0.69812 0.69812
 0.75263 0.75263 0.76036 0.76036 0.99991 0.99991 1.04482 1.04483 1.06926 1.06926
 1.11820 1.11820 1.27390 1.27390 1.42246 1.42247 1.63613 1.63613 1.75653 1.75653
 1.76972 1.76972 1.85046 1.85046 1.89851 1.89851 2.11876 2.11876 2.15651 2.15651
 2.17276 2.17400 2.25665 2.25665 2.34552 2.34552 2.65682 2.65867 2.66437 2.66440
 2.83735 2.83735 3.83675 3.83676 4.13427 4.13512 5.45708 5.45710
 == 62-th k-point (0.15308,0.15308,0.45924) occupation: 14==
 -64.98961 -64.98958 -4.61901 -4.61891 -3.02984 -3.02984 -3.02959 -3.02933 -3.02910 -3.02908
 -0.06277 0.04221 0.14601 0.19477 0.33474 0.44402 0.49130 0.49913 0.65797 0.67743
 0.73896 0.75489 0.76763 0.90947 0.96155 0.98144 1.02632 1.02736 1.04502 1.16571
 1.19041 1.24925 1.26163 1.39620 1.43909 1.46629 1.47872 1.52611 1.62534 1.68921
 1.69977 1.72851 1.80660 1.81754 1.88045 1.94969 2.00598 2.01941 2.10215 2.10854
 2.18322 2.25916 2.30354 2.36506 2.39850 2.40270 2.42432 2.52831 2.57679 2.69205
 3.17752 3.32422 3.55835 3.73757 3.93038 3.98070 5.72111 7.84946
 == 63-th k-point (0.30616,0.30616,0.30616) occupation: 14==
 -64.98961 -64.98954 -4.61903 -4.61889 -3.02982 -3.02982 -3.02968 -3.02921 -3.02913 -3.02913
 -0.07684 0.01988 0.23217 0.23217 0.33598 0.40275 0.40275 0.56789 0.68148 0.68148
 0.70137 0.70511 0.70511 0.76730 1.01988 1.03500 1.11076 1.11076 1.16036 1.16036
 1.25514 1.29886 1.29886 1.36265 1.36265 1.42236 1.54820 1.54820 1.55611 1.55611
 1.63887 1.64366 1.86291 1.93344 1.96307 1.96307 2.01585 2.01585 2.01615 2.08921
 2.34606 2.34606 2.42901 2.42901 2.43792 2.43792 2.46082 2.49482 2.49482 2.50450
 3.42942 3.42942 3.47187 3.58245 3.67592 4.10311 4.10311 7.73017
 ---------------------------------------------------------------------------
 VBM is at 21-th k-point with 7.55372 eV
 CBM is at 55-th k-point with 8.29542 eV
 Band gap is 0.74171 eV


           Ground-State Mulliken Net Atomic Charges

      Atom                 Charge (a.u.)          Spin (a.u.)
   --------------------------------------------------------
      1 Si               (0.000001,-0.000000)    (0.000000,0.000000)
      2 Si               (-0.000001,0.000000)    (0.000000,0.000000)
   --------------------------------------------------------
  Sum of atomic charges =      (0.000000,-0.000000)
  Sum of spin   charges =       (0.000000,0.000000)



 Total job time:  34.63 s.
 Tue Sep  9 09:17:08 2025


        *************************************************************
        *                                                           *
        *  Thank you very much for using QCPBC. Have a nice day.    *
        *                                                           *
        *************************************************************

Running job 1 of 1
