                  Welcome to Q-Chem
           with Periodic Boundary Condition
     A Quantum Leap Into The Future Of Chemistry

 Adam Rettig, Xintian Feng, Meng-Fu Chen, Hieu Dinh, Stephen Quiton,
 Anton Ni, Paul J. Robinson, Jinghong Zhang, Joonho Lee

Contributors to earlier versions of Q-Chem not listed above:
 Evgeny Epifanovsky, Leo Cunha, Jerome F. Gonthier, Kuan-Yu Liu
 Input file: /n/netscratch/joonholee_lab/Lab/hieudinh//si_2_ccpvtz_omega_0.6_777.scratch20250909092534/si_2_ccpvtz_omega_0.6_777.0
 Scratch folder: /n/netscratch/joonholee_lab/Lab/hieudinh//si_2_ccpvtz_omega_0.6_777.scratch20250909092534
 Auxillary files located at: /n/holylabs/LABS/joonholee_lab/Lab/qchem_base/qcaux
 Q-Chem begins on Tue Sep  9 09:25:35 2025

 -------------------------------------------------------------
 User input:
 -------------------------------------------------------------
 $lattice
 3
 0.000000 5.130600 5.130600
 5.130600 0.000000 5.130600
 5.130600 5.130600 0.000000
 $end
 
 $unitcell
 ABSOLUTE
 0 1
 Si 0.000000 0.000000 0.000000
 Si 2.565300 2.565300 2.565300
 $end
 
 $rem
 jobtype = sp
 method = pbe
 scf_convergence = 5
 scf_guess = autosad
 scf_algorithm = diis_gdm
 basis = cc-pvtz
 aux_basis = cc-pvtz-jk
 input_bohr = true
 symmetry = false
 rsdf_print_level 1
 is_basis_uctr true
 
 mp_mesh = [7,7,7]
 
 integral_direct true
 bvk_cgto true
 
 thresh 14
 mem_total 1000000
 threads 32
 
 MAX_SCF_CYCLES 500
 madelung = false
 omega 0.6
 do_rij_bigmem true
 automate_g true
 print_level 10
 grid_type_xc 1
 
 thresh_1e2c_sp 1e-14
 thresh_2e3c_bra_ket_sep 1e-10
 thresh_g 1e-12
 $end
 
 -------------------------------------------------------------
 Running PBC job

 Requested Exchange Correlation Functionals: 
  DFT Exchange:  1.00000 pbe_x
  DFT Correlation:  1.00000 pbe_c
 using 32 threads for computing.
 ---------------------------------------------------------------
      Coordinates of Atoms in Central Unit Cell (Angstroms)
    I     Atom         X            Y            Z
 ---------------------------------------------------------------
    1      Si      0.000000     0.000000     0.000000
    2      Si      1.357498     1.357498     1.357498
 ---------------------------------------------------------------
 --------------------------------------------------
              Lattice Vectors (Angstroms)
              X            Y            Z
 --------------------------------------------------
   X       0.000000     2.714997     2.714997
   Y       2.714997     0.000000     2.714997
   Z       2.714997     2.714997     0.000000
 --------------------------------------------------
 --------------------------------------------------
       Reciprocal Lattice Vectors (Angstroms^-1)
              X            Y            Z
 --------------------------------------------------
   X      -1.157126     1.157126     1.157126
   Y       1.157126    -1.157126     1.157126
   Z       1.157126     1.157126    -1.157126
 --------------------------------------------------

 Single point calculation requested

 Hamiltonian contributions:
 List of terms in Hamiltonian: kpts_nn, kpts_kinetic, kpts_vnuc_df, kpts_xc, kpts_rij_bigmem

 K-Points calculation started.

 Basis set information about using solid harmonic (1) or Cartesian (0):
  si : D(1) D(1) F(1) 

 Basis set information about using solid harmonic (1) or Cartesian (0):
  si : D(1) D(1) D(1) D(1) D(1) D(1) D(1) D(1) D(1) F(1) F(1) F(1) G(1) 

 There are 68 basis functions in the central unit cell.
 Print atomic basis of atoms in the central unit cell:
 -------------------------------------------------------------
2 104 104 24

  0.00000000000000e+00  0.00000000000000e+00  0.00000000000000e+00
  2.56530000000000e+00  2.56530000000000e+00  2.56530000000000e+00

  2.54900000000000e+05
  3.81900000000000e+04
  8.69000000000000e+03
  2.46200000000000e+03
  8.04800000000000e+02
  2.91300000000000e+02
  1.13600000000000e+02
  4.67500000000000e+01
  1.98200000000000e+01
  7.70800000000000e+00
  3.34000000000000e+00
  2.54900000000000e+05
  3.81900000000000e+04
  8.69000000000000e+03
  8.04800000000000e+02
  2.91300000000000e+02
  1.13600000000000e+02
  4.67500000000000e+01
  1.98200000000000e+01
  7.70800000000000e+00
  3.34000000000000e+00
  1.40200000000000e+00
  2.54900000000000e+05
  3.81900000000000e+04
  8.69000000000000e+03
  2.91300000000000e+02
  1.13600000000000e+02
  4.67500000000000e+01
  1.98200000000000e+01
  7.70800000000000e+00
  3.34000000000000e+00
  1.40200000000000e+00
  2.07000000000000e-01
  4.38700000000000e-01
  7.94400000000000e-02
  4.81500000000000e+02
  1.13900000000000e+02
  3.62300000000000e+01
  1.33400000000000e+01
  5.25200000000000e+00
  2.12000000000000e+00
  1.13900000000000e+02
  3.62300000000000e+01
  1.33400000000000e+01
  5.25200000000000e+00
  2.12000000000000e+00
  2.52800000000000e-01
  8.56100000000000e-01
  7.88900000000000e-02
  4.81000000000000e-01
  1.59000000000000e-01
  3.36000000000000e-01
  2.54900000000000e+05
  3.81900000000000e+04
  8.69000000000000e+03
  2.46200000000000e+03
  8.04800000000000e+02
  2.91300000000000e+02
  1.13600000000000e+02
  4.67500000000000e+01
  1.98200000000000e+01
  7.70800000000000e+00
  3.34000000000000e+00
  2.54900000000000e+05
  3.81900000000000e+04
  8.69000000000000e+03
  8.04800000000000e+02
  2.91300000000000e+02
  1.13600000000000e+02
  4.67500000000000e+01
  1.98200000000000e+01
  7.70800000000000e+00
  3.34000000000000e+00
  1.40200000000000e+00
  2.54900000000000e+05
  3.81900000000000e+04
  8.69000000000000e+03
  2.91300000000000e+02
  1.13600000000000e+02
  4.67500000000000e+01
  1.98200000000000e+01
  7.70800000000000e+00
  3.34000000000000e+00
  1.40200000000000e+00
  2.07000000000000e-01
  4.38700000000000e-01
  7.94400000000000e-02
  4.81500000000000e+02
  1.13900000000000e+02
  3.62300000000000e+01
  1.33400000000000e+01
  5.25200000000000e+00
  2.12000000000000e+00
  1.13900000000000e+02
  3.62300000000000e+01
  1.33400000000000e+01
  5.25200000000000e+00
  2.12000000000000e+00
  2.52800000000000e-01
  8.56100000000000e-01
  7.88900000000000e-02
  4.81000000000000e-01
  1.59000000000000e-01
  3.36000000000000e-01

  5.06121931014315e-01
  9.46667895564849e-01
  1.63484840115776e+00
  2.64073594005923e+00
  3.97699155153283e+00
  5.40905960736848e+00
  6.15868961670172e+00
  4.99170532032548e+00
  2.02857976424901e+00
  1.82839763527352e-01
 -1.25640690342342e-02
  1.10808750449959e-03
  1.94415577975663e-03
  2.70023730632789e-03
 -1.69098200112149e-02
 -8.66890848691569e-02
 -2.76125946359713e-01
 -6.25588788447604e-01
 -6.61701688370681e-01
  3.11114524237060e-01
  9.56658906468163e-01
  4.36891217824705e-01
  1.05873342256663e-04
  1.52975802748887e-04
  4.28394863673135e-04
 -4.94070443505333e-03
 -1.17298035021286e-02
 -2.95023896611804e-02
 -1.71455066569284e-02
  3.00007138114875e-03
 -6.19326651465540e-02
 -2.59989143457351e-01
  2.47187614608056e-01
  3.84180942836044e-01
  1.06644759418552e-01
  6.70509611941243e+00
  8.84487660481054e+00
  9.82415782069442e+00
  8.40902910540583e+00
  4.80448757555754e+00
  1.55989499299286e+00
 -1.15889775037608e-01
 -5.13312293701512e-02
 -2.64771097977823e-01
 -6.52512718105956e-02
 -1.94608613796415e-01
  2.59380435893970e-01
  1.17380433533106e+00
  5.95960578383022e-02
  4.57260134599596e-01
  6.58952976069849e-02
  1.26537084505476e-01
  5.06121931014315e-01
  9.46667895564849e-01
  1.63484840115776e+00
  2.64073594005923e+00
  3.97699155153283e+00
  5.40905960736848e+00
  6.15868961670172e+00
  4.99170532032548e+00
  2.02857976424901e+00
  1.82839763527352e-01
 -1.25640690342342e-02
  1.10808750449959e-03
  1.94415577975663e-03
  2.70023730632789e-03
 -1.69098200112149e-02
 -8.66890848691569e-02
 -2.76125946359713e-01
 -6.25588788447604e-01
 -6.61701688370681e-01
  3.11114524237060e-01
  9.56658906468163e-01
  4.36891217824705e-01
  1.05873342256663e-04
  1.52975802748887e-04
  4.28394863673135e-04
 -4.94070443505333e-03
 -1.17298035021286e-02
 -2.95023896611804e-02
 -1.71455066569284e-02
  3.00007138114875e-03
 -6.19326651465540e-02
 -2.59989143457351e-01
  2.47187614608056e-01
  3.84180942836044e-01
  1.06644759418552e-01
  6.70509611941243e+00
  8.84487660481054e+00
  9.82415782069442e+00
  8.40902910540583e+00
  4.80448757555754e+00
  1.55989499299286e+00
 -1.15889775037608e-01
 -5.13312293701512e-02
 -2.64771097977823e-01
 -6.52512718105956e-02
 -1.94608613796415e-01
  2.59380435893970e-01
  1.17380433533106e+00
  5.95960578383022e-02
  4.57260134599596e-01
  6.58952976069849e-02
  1.26537084505476e-01

0 0 0 0 1 1 1
0 0 
11 0

0 1 1 11 1 1 1
11 0 
11 0

0 2 2 22 1 1 1
22 0 
11 0

0 3 3 33 1 1 1
33 0 
1 0

0 4 4 34 1 1 1
34 0 
1 0

0 5 5 35 1 3 3
35 1 
6 0

0 8 8 41 1 3 3
41 1 
6 0

0 11 11 47 1 3 3
47 1 
1 0

0 14 14 48 1 3 3
48 1 
1 0

0 17 17 49 1 5 6
49 2 
1 1

0 22 22 50 1 5 6
50 2 
1 1

0 27 27 51 1 7 10
51 3 
1 1

1 34 34 52 1 1 1
52 0 
11 0

1 35 35 63 1 1 1
63 0 
11 0

1 36 36 74 1 1 1
74 0 
11 0

1 37 37 85 1 1 1
85 0 
1 0

1 38 38 86 1 1 1
86 0 
1 0

1 39 39 87 1 3 3
87 1 
6 0

1 42 42 93 1 3 3
93 1 
6 0

1 45 45 99 1 3 3
99 1 
1 0

1 48 48 100 1 3 3
100 1 
1 0

1 51 51 101 1 5 6
101 2 
1 1

1 56 56 102 1 5 6
102 2 
1 1

1 61 61 103 1 7 10
103 3 
1 1

 -------------------------------------------------------------
 Allocate 263208 B from available memory: 1048576000000 B
 There are 1331 image cells after screening.
 There are 1353 image cells for CGTO evaluation after screening.
 Real-Space grid for FFT initialized based on kinetic energy cutoff (eV) = 500.0
 Real-Space grid for FFT: (10,10,10)
 There are 9261 real-space grid points.
 There are 64 batches of real-space grid points. 
 Size of each grid batch is around 128
 Grid for AFT initialized based on kinetic energy cutoff (eV) = 500.0
 Real-Space grid for AFT: (10,10,10)
 There are 9261 real-space grid points.

 There are 5456 atom-centered grid points.

 Spacegroup symmetry group: Fd-3m
 Reducing spacegroup symmetry to symmorphic group: F -4 3 m
 Monkhorst-Pack mesh is [7,7,7]
 There are 343 k points.
kpoints in Bohr
-0.2624248337 -0.2624248337 -0.2624248337
-0.1749498891 -0.1749498891 -0.3498997782
-0.0874749446 -0.0874749446 -0.4373747228
-0.0000000000 -0.0000000000 -0.5248496673
0.0874749446 0.0874749446 -0.6123246119
0.1749498891 0.1749498891 -0.6997995564
0.2624248337 0.2624248337 -0.7872745010
-0.1749498891 -0.3498997782 -0.1749498891
-0.0874749446 -0.2624248337 -0.2624248337
-0.0000000000 -0.1749498891 -0.3498997782
0.0874749446 -0.0874749446 -0.4373747228
0.1749498891 -0.0000000000 -0.5248496673
0.2624248337 0.0874749446 -0.6123246119
0.3498997782 0.1749498891 -0.6997995564
-0.0874749446 -0.4373747228 -0.0874749446
-0.0000000000 -0.3498997782 -0.1749498891
0.0874749446 -0.2624248337 -0.2624248337
0.1749498891 -0.1749498891 -0.3498997782
0.2624248337 -0.0874749446 -0.4373747228
0.3498997782 -0.0000000000 -0.5248496673
0.4373747228 0.0874749446 -0.6123246119
-0.0000000000 -0.5248496673 0.0000000000
0.0874749446 -0.4373747228 -0.0874749446
0.1749498891 -0.3498997782 -0.1749498891
0.2624248337 -0.2624248337 -0.2624248337
0.3498997782 -0.1749498891 -0.3498997782
0.4373747228 -0.0874749446 -0.4373747228
0.5248496673 0.0000000000 -0.5248496673
0.0874749446 -0.6123246119 0.0874749446
0.1749498891 -0.5248496673 0.0000000000
0.2624248337 -0.4373747228 -0.0874749446
0.3498997782 -0.3498997782 -0.1749498891
0.4373747228 -0.2624248337 -0.2624248337
0.5248496673 -0.1749498891 -0.3498997782
0.6123246119 -0.0874749446 -0.4373747228
0.1749498891 -0.6997995564 0.1749498891
0.2624248337 -0.6123246119 0.0874749446
0.3498997782 -0.5248496673 0.0000000000
0.4373747228 -0.4373747228 -0.0874749446
0.5248496673 -0.3498997782 -0.1749498891
0.6123246119 -0.2624248337 -0.2624248337
0.6997995564 -0.1749498891 -0.3498997782
0.2624248337 -0.7872745010 0.2624248337
0.3498997782 -0.6997995564 0.1749498891
0.4373747228 -0.6123246119 0.0874749446
0.5248496673 -0.5248496673 0.0000000000
0.6123246119 -0.4373747228 -0.0874749446
0.6997995564 -0.3498997782 -0.1749498891
0.7872745010 -0.2624248337 -0.2624248337
-0.3498997782 -0.1749498891 -0.1749498891
-0.2624248337 -0.0874749446 -0.2624248337
-0.1749498891 -0.0000000000 -0.3498997782
-0.0874749446 0.0874749446 -0.4373747228
-0.0000000000 0.1749498891 -0.5248496673
0.0874749446 0.2624248337 -0.6123246119
0.1749498891 0.3498997782 -0.6997995564
-0.2624248337 -0.2624248337 -0.0874749446
-0.1749498891 -0.1749498891 -0.1749498891
-0.0874749446 -0.0874749446 -0.2624248337
-0.0000000000 -0.0000000000 -0.3498997782
0.0874749446 0.0874749446 -0.4373747228
0.1749498891 0.1749498891 -0.5248496673
0.2624248337 0.2624248337 -0.6123246119
-0.1749498891 -0.3498997782 0.0000000000
-0.0874749446 -0.2624248337 -0.0874749446
-0.0000000000 -0.1749498891 -0.1749498891
0.0874749446 -0.0874749446 -0.2624248337
0.1749498891 -0.0000000000 -0.3498997782
0.2624248337 0.0874749446 -0.4373747228
0.3498997782 0.1749498891 -0.5248496673
-0.0874749446 -0.4373747228 0.0874749446
-0.0000000000 -0.3498997782 0.0000000000
0.0874749446 -0.2624248337 -0.0874749446
0.1749498891 -0.1749498891 -0.1749498891
0.2624248337 -0.0874749446 -0.2624248337
0.3498997782 0.0000000000 -0.3498997782
0.4373747228 0.0874749446 -0.4373747228
-0.0000000000 -0.5248496673 0.1749498891
0.0874749446 -0.4373747228 0.0874749446
0.1749498891 -0.3498997782 0.0000000000
0.2624248337 -0.2624248337 -0.0874749446
0.3498997782 -0.1749498891 -0.1749498891
0.4373747228 -0.0874749446 -0.2624248337
0.5248496673 0.0000000000 -0.3498997782
0.0874749446 -0.6123246119 0.2624248337
0.1749498891 -0.5248496673 0.1749498891
0.2624248337 -0.4373747228 0.0874749446
0.3498997782 -0.3498997782 0.0000000000
0.4373747228 -0.2624248337 -0.0874749446
0.5248496673 -0.1749498891 -0.1749498891
0.6123246119 -0.0874749446 -0.2624248337
0.1749498891 -0.6997995564 0.3498997782
0.2624248337 -0.6123246119 0.2624248337
0.3498997782 -0.5248496673 0.1749498891
0.4373747228 -0.4373747228 0.0874749446
0.5248496673 -0.3498997782 0.0000000000
0.6123246119 -0.2624248337 -0.0874749446
0.6997995564 -0.1749498891 -0.1749498891
-0.4373747228 -0.0874749446 -0.0874749446
-0.3498997782 -0.0000000000 -0.1749498891
-0.2624248337 0.0874749446 -0.2624248337
-0.1749498891 0.1749498891 -0.3498997782
-0.0874749446 0.2624248337 -0.4373747228
-0.0000000000 0.3498997782 -0.5248496673
0.0874749446 0.4373747228 -0.6123246119
-0.3498997782 -0.1749498891 0.0000000000
-0.2624248337 -0.0874749446 -0.0874749446
-0.1749498891 -0.0000000000 -0.1749498891
-0.0874749446 0.0874749446 -0.2624248337
-0.0000000000 0.1749498891 -0.3498997782
0.0874749446 0.2624248337 -0.4373747228
0.1749498891 0.3498997782 -0.5248496673
-0.2624248337 -0.2624248337 0.0874749446
-0.1749498891 -0.1749498891 0.0000000000
-0.0874749446 -0.0874749446 -0.0874749446
-0.0000000000 -0.0000000000 -0.1749498891
0.0874749446 0.0874749446 -0.2624248337
0.1749498891 0.1749498891 -0.3498997782
0.2624248337 0.2624248337 -0.4373747228
-0.1749498891 -0.3498997782 0.1749498891
-0.0874749446 -0.2624248337 0.0874749446
-0.0000000000 -0.1749498891 0.0000000000
0.0874749446 -0.0874749446 -0.0874749446
0.1749498891 0.0000000000 -0.1749498891
0.2624248337 0.0874749446 -0.2624248337
0.3498997782 0.1749498891 -0.3498997782
-0.0874749446 -0.4373747228 0.2624248337
-0.0000000000 -0.3498997782 0.1749498891
0.0874749446 -0.2624248337 0.0874749446
0.1749498891 -0.1749498891 0.0000000000
0.2624248337 -0.0874749446 -0.0874749446
0.3498997782 0.0000000000 -0.1749498891
0.4373747228 0.0874749446 -0.2624248337
-0.0000000000 -0.5248496673 0.3498997782
0.0874749446 -0.4373747228 0.2624248337
0.1749498891 -0.3498997782 0.1749498891
0.2624248337 -0.2624248337 0.0874749446
0.3498997782 -0.1749498891 0.0000000000
0.4373747228 -0.0874749446 -0.0874749446
0.5248496673 0.0000000000 -0.1749498891
0.0874749446 -0.6123246119 0.4373747228
0.1749498891 -0.5248496673 0.3498997782
0.2624248337 -0.4373747228 0.2624248337
0.3498997782 -0.3498997782 0.1749498891
0.4373747228 -0.2624248337 0.0874749446
0.5248496673 -0.1749498891 0.0000000000
0.6123246119 -0.0874749446 -0.0874749446
-0.5248496673 -0.0000000000 -0.0000000000
-0.4373747228 0.0874749446 -0.0874749446
-0.3498997782 0.1749498891 -0.1749498891
-0.2624248337 0.2624248337 -0.2624248337
-0.1749498891 0.3498997782 -0.3498997782
-0.0874749446 0.4373747228 -0.4373747228
0.0000000000 0.5248496673 -0.5248496673
-0.4373747228 -0.0874749446 0.0874749446
-0.3498997782 -0.0000000000 -0.0000000000
-0.2624248337 0.0874749446 -0.0874749446
-0.1749498891 0.1749498891 -0.1749498891
-0.0874749446 0.2624248337 -0.2624248337
0.0000000000 0.3498997782 -0.3498997782
0.0874749446 0.4373747228 -0.4373747228
-0.3498997782 -0.1749498891 0.1749498891
-0.2624248337 -0.0874749446 0.0874749446
-0.1749498891 -0.0000000000 -0.0000000000
-0.0874749446 0.0874749446 -0.0874749446
0.0000000000 0.1749498891 -0.1749498891
0.0874749446 0.2624248337 -0.2624248337
0.1749498891 0.3498997782 -0.3498997782
-0.2624248337 -0.2624248337 0.2624248337
-0.1749498891 -0.1749498891 0.1749498891
-0.0874749446 -0.0874749446 0.0874749446
0.0000000000 0.0000000000 0.0000000000
0.0874749446 0.0874749446 -0.0874749446
0.1749498891 0.1749498891 -0.1749498891
0.2624248337 0.2624248337 -0.2624248337
-0.1749498891 -0.3498997782 0.3498997782
-0.0874749446 -0.2624248337 0.2624248337
-0.0000000000 -0.1749498891 0.1749498891
0.0874749446 -0.0874749446 0.0874749446
0.1749498891 0.0000000000 0.0000000000
0.2624248337 0.0874749446 -0.0874749446
0.3498997782 0.1749498891 -0.1749498891
-0.0874749446 -0.4373747228 0.4373747228
-0.0000000000 -0.3498997782 0.3498997782
0.0874749446 -0.2624248337 0.2624248337
0.1749498891 -0.1749498891 0.1749498891
0.2624248337 -0.0874749446 0.0874749446
0.3498997782 0.0000000000 0.0000000000
0.4373747228 0.0874749446 -0.0874749446
-0.0000000000 -0.5248496673 0.5248496673
0.0874749446 -0.4373747228 0.4373747228
0.1749498891 -0.3498997782 0.3498997782
0.2624248337 -0.2624248337 0.2624248337
0.3498997782 -0.1749498891 0.1749498891
0.4373747228 -0.0874749446 0.0874749446
0.5248496673 0.0000000000 0.0000000000
-0.6123246119 0.0874749446 0.0874749446
-0.5248496673 0.1749498891 -0.0000000000
-0.4373747228 0.2624248337 -0.0874749446
-0.3498997782 0.3498997782 -0.1749498891
-0.2624248337 0.4373747228 -0.2624248337
-0.1749498891 0.5248496673 -0.3498997782
-0.0874749446 0.6123246119 -0.4373747228
-0.5248496673 -0.0000000000 0.1749498891
-0.4373747228 0.0874749446 0.0874749446
-0.3498997782 0.1749498891 -0.0000000000
-0.2624248337 0.2624248337 -0.0874749446
-0.1749498891 0.3498997782 -0.1749498891
-0.0874749446 0.4373747228 -0.2624248337
0.0000000000 0.5248496673 -0.3498997782
-0.4373747228 -0.0874749446 0.2624248337
-0.3498997782 -0.0000000000 0.1749498891
-0.2624248337 0.0874749446 0.0874749446
-0.1749498891 0.1749498891 -0.0000000000
-0.0874749446 0.2624248337 -0.0874749446
0.0000000000 0.3498997782 -0.1749498891
0.0874749446 0.4373747228 -0.2624248337
-0.3498997782 -0.1749498891 0.3498997782
-0.2624248337 -0.0874749446 0.2624248337
-0.1749498891 0.0000000000 0.1749498891
-0.0874749446 0.0874749446 0.0874749446
0.0000000000 0.1749498891 0.0000000000
0.0874749446 0.2624248337 -0.0874749446
0.1749498891 0.3498997782 -0.1749498891
-0.2624248337 -0.2624248337 0.4373747228
-0.1749498891 -0.1749498891 0.3498997782
-0.0874749446 -0.0874749446 0.2624248337
0.0000000000 0.0000000000 0.1749498891
0.0874749446 0.0874749446 0.0874749446
0.1749498891 0.1749498891 0.0000000000
0.2624248337 0.2624248337 -0.0874749446
-0.1749498891 -0.3498997782 0.5248496673
-0.0874749446 -0.2624248337 0.4373747228
0.0000000000 -0.1749498891 0.3498997782
0.0874749446 -0.0874749446 0.2624248337
0.1749498891 0.0000000000 0.1749498891
0.2624248337 0.0874749446 0.0874749446
0.3498997782 0.1749498891 0.0000000000
-0.0874749446 -0.4373747228 0.6123246119
0.0000000000 -0.3498997782 0.5248496673
0.0874749446 -0.2624248337 0.4373747228
0.1749498891 -0.1749498891 0.3498997782
0.2624248337 -0.0874749446 0.2624248337
0.3498997782 0.0000000000 0.1749498891
0.4373747228 0.0874749446 0.0874749446
-0.6997995564 0.1749498891 0.1749498891
-0.6123246119 0.2624248337 0.0874749446
-0.5248496673 0.3498997782 -0.0000000000
-0.4373747228 0.4373747228 -0.0874749446
-0.3498997782 0.5248496673 -0.1749498891
-0.2624248337 0.6123246119 -0.2624248337
-0.1749498891 0.6997995564 -0.3498997782
-0.6123246119 0.0874749446 0.2624248337
-0.5248496673 0.1749498891 0.1749498891
-0.4373747228 0.2624248337 0.0874749446
-0.3498997782 0.3498997782 -0.0000000000
-0.2624248337 0.4373747228 -0.0874749446
-0.1749498891 0.5248496673 -0.1749498891
-0.0874749446 0.6123246119 -0.2624248337
-0.5248496673 -0.0000000000 0.3498997782
-0.4373747228 0.0874749446 0.2624248337
-0.3498997782 0.1749498891 0.1749498891
-0.2624248337 0.2624248337 0.0874749446
-0.1749498891 0.3498997782 -0.0000000000
-0.0874749446 0.4373747228 -0.0874749446
0.0000000000 0.5248496673 -0.1749498891
-0.4373747228 -0.0874749446 0.4373747228
-0.3498997782 0.0000000000 0.3498997782
-0.2624248337 0.0874749446 0.2624248337
-0.1749498891 0.1749498891 0.1749498891
-0.0874749446 0.2624248337 0.0874749446
0.0000000000 0.3498997782 0.0000000000
0.0874749446 0.4373747228 -0.0874749446
-0.3498997782 -0.1749498891 0.5248496673
-0.2624248337 -0.0874749446 0.4373747228
-0.1749498891 0.0000000000 0.3498997782
-0.0874749446 0.0874749446 0.2624248337
0.0000000000 0.1749498891 0.1749498891
0.0874749446 0.2624248337 0.0874749446
0.1749498891 0.3498997782 0.0000000000
-0.2624248337 -0.2624248337 0.6123246119
-0.1749498891 -0.1749498891 0.5248496673
-0.0874749446 -0.0874749446 0.4373747228
0.0000000000 0.0000000000 0.3498997782
0.0874749446 0.0874749446 0.2624248337
0.1749498891 0.1749498891 0.1749498891
0.2624248337 0.2624248337 0.0874749446
-0.1749498891 -0.3498997782 0.6997995564
-0.0874749446 -0.2624248337 0.6123246119
0.0000000000 -0.1749498891 0.5248496673
0.0874749446 -0.0874749446 0.4373747228
0.1749498891 0.0000000000 0.3498997782
0.2624248337 0.0874749446 0.2624248337
0.3498997782 0.1749498891 0.1749498891
-0.7872745010 0.2624248337 0.2624248337
-0.6997995564 0.3498997782 0.1749498891
-0.6123246119 0.4373747228 0.0874749446
-0.5248496673 0.5248496673 -0.0000000000
-0.4373747228 0.6123246119 -0.0874749446
-0.3498997782 0.6997995564 -0.1749498891
-0.2624248337 0.7872745010 -0.2624248337
-0.6997995564 0.1749498891 0.3498997782
-0.6123246119 0.2624248337 0.2624248337
-0.5248496673 0.3498997782 0.1749498891
-0.4373747228 0.4373747228 0.0874749446
-0.3498997782 0.5248496673 -0.0000000000
-0.2624248337 0.6123246119 -0.0874749446
-0.1749498891 0.6997995564 -0.1749498891
-0.6123246119 0.0874749446 0.4373747228
-0.5248496673 0.1749498891 0.3498997782
-0.4373747228 0.2624248337 0.2624248337
-0.3498997782 0.3498997782 0.1749498891
-0.2624248337 0.4373747228 0.0874749446
-0.1749498891 0.5248496673 0.0000000000
-0.0874749446 0.6123246119 -0.0874749446
-0.5248496673 0.0000000000 0.5248496673
-0.4373747228 0.0874749446 0.4373747228
-0.3498997782 0.1749498891 0.3498997782
-0.2624248337 0.2624248337 0.2624248337
-0.1749498891 0.3498997782 0.1749498891
-0.0874749446 0.4373747228 0.0874749446
0.0000000000 0.5248496673 0.0000000000
-0.4373747228 -0.0874749446 0.6123246119
-0.3498997782 0.0000000000 0.5248496673
-0.2624248337 0.0874749446 0.4373747228
-0.1749498891 0.1749498891 0.3498997782
-0.0874749446 0.2624248337 0.2624248337
0.0000000000 0.3498997782 0.1749498891
0.0874749446 0.4373747228 0.0874749446
-0.3498997782 -0.1749498891 0.6997995564
-0.2624248337 -0.0874749446 0.6123246119
-0.1749498891 0.0000000000 0.5248496673
-0.0874749446 0.0874749446 0.4373747228
0.0000000000 0.1749498891 0.3498997782
0.0874749446 0.2624248337 0.2624248337
0.1749498891 0.3498997782 0.1749498891
-0.2624248337 -0.2624248337 0.7872745010
-0.1749498891 -0.1749498891 0.6997995564
-0.0874749446 -0.0874749446 0.6123246119
0.0000000000 0.0000000000 0.5248496673
0.0874749446 0.0874749446 0.4373747228
0.1749498891 0.1749498891 0.3498997782
0.2624248337 0.2624248337 0.2624248337
 There are 14 alpha and 14 beta electrons
 Start computing overlap matrix
 Allocate 25376512 B from available memory: 1048575736800 B
 Time for computing overlap matrix: 1.8280000000 s
 ====== Initialize compute kernels for all-electron RI-J (kpts) ====== 
 ========================================================== 
 Range-separated parameter omega        = 0.599999999999999978
 Threshold for 1e2c shellpair           = 0.000000000000010000
 Threshold for 2e2c SR integral         = 0.000000000000000001
 Threshold for 2e3c SR integral         = 0.000000000100000000
 Threshold for AFT G-space screening is = 0.000000000001000000
 The exponent cutoff for C/D classification (omega2 / 2) is  = 0.179999999999999993
 ========================================================== 
 === Post process the basis set for RI calculation (exp_cutoff = 0.179999999999999993 ) === 
nshells_b1 before uncontraction = 24
nshells_b1 after uncontraction = 24
nshells_baux before uncontraction = 74
nshells_baux after uncontraction = 74
===============================================
nbsf total   = 68
nbsf compact = 50
nbsf diffuse = 18
naux total   = 242
naux compact = 242
naux diffuse = 0
nshells_bnuc = 2

 Number of unique atoms is 1
 Unique atom #0 (si) has 9 shells.

Shell 0 to 8 belongs to atom si
Shell 9 to 17 belongs to atom si

 Number of unique atoms is 1
 Unique atom #0 (si) has 3 shells.

Shell 0 to 2 belongs to atom si
Shell 3 to 5 belongs to atom si

 Number of unique atom is 1
 Unique atom #0 (si) has 37 auxiliary shells.

Auxiliary Shell 0 to 36 belongs to atom si
Auxiliary Shell 37 to 73 belongs to atom si

================= Automatically determine grid size for reciprocal space summation =================
 Range-separated parameter = 0.60000000000000 and G-space screening threshold = 0.00000000000100
The number of grid points along each axis dimension is (7, 7, 7)
Total number of grid points = 3375

Use nonortho shellpair for diffuse density
======== Initializing relevant kernel for RIJ (DD type) ========
There are 21 shellpairs in the reference unit cell
There are 2659 images and we expect to have 55839 in total
There are 4592 shellpairs in the lattice sum after screening
======== Initializing relevant kernel for RIJ (CD type) ========
There are 108 shellpairs in the reference unit cell
There are 1873 images and we expect to have 202284 in total
There are 12338 shellpairs in the lattice sum after screening
****** AFT -> SR ******
Maximum bra distance cutoff is 22.000000000000
Maximum bra ket distance cutoff is 22.225409836066
Maximum bra ket screening distance is 20.281250000000
Number of auxiliary image is 527
There are 108 shellpairs in the reference unit cell
There are 527 images and we expect to have 56916 in total
There are 12338 shellpairs in the lattice sum after screening
Available memory per thread for 2e3c calculation is 32.767198759000Gb
Finish initializing 2e3c SR with the lattice sum!
=================================================
======== Initializing relevant kernel for RIJ (CC type) ========
There are 170 shellpairs in the reference unit cell
There are 887 images and we expect to have 150790 in total
There are 4214 shellpairs in the lattice sum after screening
****** AFT -> SR ******
Maximum bra distance cutoff is 16.000000000000
Maximum bra ket distance cutoff is 26.411028484891
Maximum bra ket screening distance is 20.062500000000
Number of auxiliary image is 815
There are 170 shellpairs in the reference unit cell
There are 237 images and we expect to have 40290 in total
There are 4214 shellpairs in the lattice sum after screening
Available memory per thread for 2e3c calculation is 32.767198759000Gb
Finish initializing 2e3c SR with the lattice sum!
=================================================
======== Initializing the SR component for Vnuc (CD type) ========
Maximum bra distance cutoff is 22.000000000000
Maximum bra ket distance cutoff is 15.007314228490
Maximum bra ket screening distance is 12.593607526610
Number of auxiliary image is 527
There are 108 shellpairs in the reference unit cell
There are 527 images and we expect to have 56916 in total
There are 12338 shellpairs in the lattice sum after screening
Available memory per thread for 2e3c calculation is 32.767198759000Gb
Finish initializing 2e3c SR with the lattice sum!
=================================================
======== Initialize the SR component for Vnuc (CC type) ========
Maximum bra distance cutoff is 16.000000000000
Maximum bra ket distance cutoff is 19.169655743138
Maximum bra ket screening distance is 11.882365827597
Number of auxiliary image is 341
There are 170 shellpairs in the reference unit cell
There are 237 images and we expect to have 40290 in total
There are 4214 shellpairs in the lattice sum after screening
Available memory per thread for 2e3c calculation is 32.767198759000Gb
Finish initializing 2e3c SR with the lattice sum!
=================================================
 Aufbau occupation scheme, occupation determined by eigenvalue
 == 0-th k-point nmo = 68 (-0.26242,-0.26242,-0.26242) ==
 == 1-th k-point nmo = 68 (-0.17495,-0.17495,-0.34990) ==
 == 2-th k-point nmo = 68 (-0.08747,-0.08747,-0.43737) ==
 == 3-th k-point nmo = 68 (-0.00000,-0.00000,-0.52485) ==
 == 4-th k-point nmo = 68 (0.08747,0.08747,-0.61232) ==
 == 5-th k-point nmo = 68 (0.17495,0.17495,-0.69980) ==
 == 6-th k-point nmo = 68 (0.26242,0.26242,-0.78727) ==
 == 7-th k-point nmo = 68 (-0.17495,-0.34990,-0.17495) ==
 == 8-th k-point nmo = 68 (-0.08747,-0.26242,-0.26242) ==
 == 9-th k-point nmo = 68 (-0.00000,-0.17495,-0.34990) ==
 == 10-th k-point nmo = 68 (0.08747,-0.08747,-0.43737) ==
 == 11-th k-point nmo = 68 (0.17495,-0.00000,-0.52485) ==
 == 12-th k-point nmo = 68 (0.26242,0.08747,-0.61232) ==
 == 13-th k-point nmo = 68 (0.34990,0.17495,-0.69980) ==
 == 14-th k-point nmo = 68 (-0.08747,-0.43737,-0.08747) ==
 == 15-th k-point nmo = 68 (-0.00000,-0.34990,-0.17495) ==
 == 16-th k-point nmo = 68 (0.08747,-0.26242,-0.26242) ==
 == 17-th k-point nmo = 68 (0.17495,-0.17495,-0.34990) ==
 == 18-th k-point nmo = 68 (0.26242,-0.08747,-0.43737) ==
 == 19-th k-point nmo = 68 (0.34990,-0.00000,-0.52485) ==
 == 20-th k-point nmo = 68 (0.43737,0.08747,-0.61232) ==
 == 21-th k-point nmo = 68 (-0.00000,-0.52485,0.00000) ==
 == 22-th k-point nmo = 68 (0.08747,-0.43737,-0.08747) ==
 == 23-th k-point nmo = 68 (0.17495,-0.34990,-0.17495) ==
 == 24-th k-point nmo = 68 (0.26242,-0.26242,-0.26242) ==
 == 25-th k-point nmo = 68 (0.34990,-0.17495,-0.34990) ==
 == 26-th k-point nmo = 68 (0.43737,-0.08747,-0.43737) ==
 == 27-th k-point nmo = 68 (0.52485,0.00000,-0.52485) ==
 == 28-th k-point nmo = 68 (0.08747,-0.61232,0.08747) ==
 == 29-th k-point nmo = 68 (0.17495,-0.52485,0.00000) ==
 == 30-th k-point nmo = 68 (0.26242,-0.43737,-0.08747) ==
 == 31-th k-point nmo = 68 (0.34990,-0.34990,-0.17495) ==
 == 32-th k-point nmo = 68 (0.43737,-0.26242,-0.26242) ==
 == 33-th k-point nmo = 68 (0.52485,-0.17495,-0.34990) ==
 == 34-th k-point nmo = 68 (0.61232,-0.08747,-0.43737) ==
 == 35-th k-point nmo = 68 (0.17495,-0.69980,0.17495) ==
 == 36-th k-point nmo = 68 (0.26242,-0.61232,0.08747) ==
 == 37-th k-point nmo = 68 (0.34990,-0.52485,0.00000) ==
 == 38-th k-point nmo = 68 (0.43737,-0.43737,-0.08747) ==
 == 39-th k-point nmo = 68 (0.52485,-0.34990,-0.17495) ==
 == 40-th k-point nmo = 68 (0.61232,-0.26242,-0.26242) ==
 == 41-th k-point nmo = 68 (0.69980,-0.17495,-0.34990) ==
 == 42-th k-point nmo = 68 (0.26242,-0.78727,0.26242) ==
 == 43-th k-point nmo = 68 (0.34990,-0.69980,0.17495) ==
 == 44-th k-point nmo = 68 (0.43737,-0.61232,0.08747) ==
 == 45-th k-point nmo = 68 (0.52485,-0.52485,0.00000) ==
 == 46-th k-point nmo = 68 (0.61232,-0.43737,-0.08747) ==
 == 47-th k-point nmo = 68 (0.69980,-0.34990,-0.17495) ==
 == 48-th k-point nmo = 68 (0.78727,-0.26242,-0.26242) ==
 == 49-th k-point nmo = 68 (-0.34990,-0.17495,-0.17495) ==
 == 50-th k-point nmo = 68 (-0.26242,-0.08747,-0.26242) ==
 == 51-th k-point nmo = 68 (-0.17495,-0.00000,-0.34990) ==
 == 52-th k-point nmo = 68 (-0.08747,0.08747,-0.43737) ==
 == 53-th k-point nmo = 68 (-0.00000,0.17495,-0.52485) ==
 == 54-th k-point nmo = 68 (0.08747,0.26242,-0.61232) ==
 == 55-th k-point nmo = 68 (0.17495,0.34990,-0.69980) ==
 == 56-th k-point nmo = 68 (-0.26242,-0.26242,-0.08747) ==
 == 57-th k-point nmo = 68 (-0.17495,-0.17495,-0.17495) ==
 == 58-th k-point nmo = 68 (-0.08747,-0.08747,-0.26242) ==
 == 59-th k-point nmo = 68 (-0.00000,-0.00000,-0.34990) ==
 == 60-th k-point nmo = 68 (0.08747,0.08747,-0.43737) ==
 == 61-th k-point nmo = 68 (0.17495,0.17495,-0.52485) ==
 == 62-th k-point nmo = 68 (0.26242,0.26242,-0.61232) ==
 == 63-th k-point nmo = 68 (-0.17495,-0.34990,0.00000) ==
 == 64-th k-point nmo = 68 (-0.08747,-0.26242,-0.08747) ==
 == 65-th k-point nmo = 68 (-0.00000,-0.17495,-0.17495) ==
 == 66-th k-point nmo = 68 (0.08747,-0.08747,-0.26242) ==
 == 67-th k-point nmo = 68 (0.17495,-0.00000,-0.34990) ==
 == 68-th k-point nmo = 68 (0.26242,0.08747,-0.43737) ==
 == 69-th k-point nmo = 68 (0.34990,0.17495,-0.52485) ==
 == 70-th k-point nmo = 68 (-0.08747,-0.43737,0.08747) ==
 == 71-th k-point nmo = 68 (-0.00000,-0.34990,0.00000) ==
 == 72-th k-point nmo = 68 (0.08747,-0.26242,-0.08747) ==
 == 73-th k-point nmo = 68 (0.17495,-0.17495,-0.17495) ==
 == 74-th k-point nmo = 68 (0.26242,-0.08747,-0.26242) ==
 == 75-th k-point nmo = 68 (0.34990,0.00000,-0.34990) ==
 == 76-th k-point nmo = 68 (0.43737,0.08747,-0.43737) ==
 == 77-th k-point nmo = 68 (-0.00000,-0.52485,0.17495) ==
 == 78-th k-point nmo = 68 (0.08747,-0.43737,0.08747) ==
 == 79-th k-point nmo = 68 (0.17495,-0.34990,0.00000) ==
 == 80-th k-point nmo = 68 (0.26242,-0.26242,-0.08747) ==
 == 81-th k-point nmo = 68 (0.34990,-0.17495,-0.17495) ==
 == 82-th k-point nmo = 68 (0.43737,-0.08747,-0.26242) ==
 == 83-th k-point nmo = 68 (0.52485,0.00000,-0.34990) ==
 == 84-th k-point nmo = 68 (0.08747,-0.61232,0.26242) ==
 == 85-th k-point nmo = 68 (0.17495,-0.52485,0.17495) ==
 == 86-th k-point nmo = 68 (0.26242,-0.43737,0.08747) ==
 == 87-th k-point nmo = 68 (0.34990,-0.34990,0.00000) ==
 == 88-th k-point nmo = 68 (0.43737,-0.26242,-0.08747) ==
 == 89-th k-point nmo = 68 (0.52485,-0.17495,-0.17495) ==
 == 90-th k-point nmo = 68 (0.61232,-0.08747,-0.26242) ==
 == 91-th k-point nmo = 68 (0.17495,-0.69980,0.34990) ==
 == 92-th k-point nmo = 68 (0.26242,-0.61232,0.26242) ==
 == 93-th k-point nmo = 68 (0.34990,-0.52485,0.17495) ==
 == 94-th k-point nmo = 68 (0.43737,-0.43737,0.08747) ==
 == 95-th k-point nmo = 68 (0.52485,-0.34990,0.00000) ==
 == 96-th k-point nmo = 68 (0.61232,-0.26242,-0.08747) ==
 == 97-th k-point nmo = 68 (0.69980,-0.17495,-0.17495) ==
 == 98-th k-point nmo = 68 (-0.43737,-0.08747,-0.08747) ==
 == 99-th k-point nmo = 68 (-0.34990,-0.00000,-0.17495) ==
 == 100-th k-point nmo = 68 (-0.26242,0.08747,-0.26242) ==
 == 101-th k-point nmo = 68 (-0.17495,0.17495,-0.34990) ==
 == 102-th k-point nmo = 68 (-0.08747,0.26242,-0.43737) ==
 == 103-th k-point nmo = 68 (-0.00000,0.34990,-0.52485) ==
 == 104-th k-point nmo = 68 (0.08747,0.43737,-0.61232) ==
 == 105-th k-point nmo = 68 (-0.34990,-0.17495,0.00000) ==
 == 106-th k-point nmo = 68 (-0.26242,-0.08747,-0.08747) ==
 == 107-th k-point nmo = 68 (-0.17495,-0.00000,-0.17495) ==
 == 108-th k-point nmo = 68 (-0.08747,0.08747,-0.26242) ==
 == 109-th k-point nmo = 68 (-0.00000,0.17495,-0.34990) ==
 == 110-th k-point nmo = 68 (0.08747,0.26242,-0.43737) ==
 == 111-th k-point nmo = 68 (0.17495,0.34990,-0.52485) ==
 == 112-th k-point nmo = 68 (-0.26242,-0.26242,0.08747) ==
 == 113-th k-point nmo = 68 (-0.17495,-0.17495,0.00000) ==
 == 114-th k-point nmo = 68 (-0.08747,-0.08747,-0.08747) ==
 == 115-th k-point nmo = 68 (-0.00000,-0.00000,-0.17495) ==
 == 116-th k-point nmo = 68 (0.08747,0.08747,-0.26242) ==
 == 117-th k-point nmo = 68 (0.17495,0.17495,-0.34990) ==
 == 118-th k-point nmo = 68 (0.26242,0.26242,-0.43737) ==
 == 119-th k-point nmo = 68 (-0.17495,-0.34990,0.17495) ==
 == 120-th k-point nmo = 68 (-0.08747,-0.26242,0.08747) ==
 == 121-th k-point nmo = 68 (-0.00000,-0.17495,0.00000) ==
 == 122-th k-point nmo = 68 (0.08747,-0.08747,-0.08747) ==
 == 123-th k-point nmo = 68 (0.17495,0.00000,-0.17495) ==
 == 124-th k-point nmo = 68 (0.26242,0.08747,-0.26242) ==
 == 125-th k-point nmo = 68 (0.34990,0.17495,-0.34990) ==
 == 126-th k-point nmo = 68 (-0.08747,-0.43737,0.26242) ==
 == 127-th k-point nmo = 68 (-0.00000,-0.34990,0.17495) ==
 == 128-th k-point nmo = 68 (0.08747,-0.26242,0.08747) ==
 == 129-th k-point nmo = 68 (0.17495,-0.17495,0.00000) ==
 == 130-th k-point nmo = 68 (0.26242,-0.08747,-0.08747) ==
 == 131-th k-point nmo = 68 (0.34990,0.00000,-0.17495) ==
 == 132-th k-point nmo = 68 (0.43737,0.08747,-0.26242) ==
 == 133-th k-point nmo = 68 (-0.00000,-0.52485,0.34990) ==
 == 134-th k-point nmo = 68 (0.08747,-0.43737,0.26242) ==
 == 135-th k-point nmo = 68 (0.17495,-0.34990,0.17495) ==
 == 136-th k-point nmo = 68 (0.26242,-0.26242,0.08747) ==
 == 137-th k-point nmo = 68 (0.34990,-0.17495,0.00000) ==
 == 138-th k-point nmo = 68 (0.43737,-0.08747,-0.08747) ==
 == 139-th k-point nmo = 68 (0.52485,0.00000,-0.17495) ==
 == 140-th k-point nmo = 68 (0.08747,-0.61232,0.43737) ==
 == 141-th k-point nmo = 68 (0.17495,-0.52485,0.34990) ==
 == 142-th k-point nmo = 68 (0.26242,-0.43737,0.26242) ==
 == 143-th k-point nmo = 68 (0.34990,-0.34990,0.17495) ==
 == 144-th k-point nmo = 68 (0.43737,-0.26242,0.08747) ==
 == 145-th k-point nmo = 68 (0.52485,-0.17495,0.00000) ==
 == 146-th k-point nmo = 68 (0.61232,-0.08747,-0.08747) ==
 == 147-th k-point nmo = 68 (-0.52485,-0.00000,-0.00000) ==
 == 148-th k-point nmo = 68 (-0.43737,0.08747,-0.08747) ==
 == 149-th k-point nmo = 68 (-0.34990,0.17495,-0.17495) ==
 == 150-th k-point nmo = 68 (-0.26242,0.26242,-0.26242) ==
 == 151-th k-point nmo = 68 (-0.17495,0.34990,-0.34990) ==
 == 152-th k-point nmo = 68 (-0.08747,0.43737,-0.43737) ==
 == 153-th k-point nmo = 68 (0.00000,0.52485,-0.52485) ==
 == 154-th k-point nmo = 68 (-0.43737,-0.08747,0.08747) ==
 == 155-th k-point nmo = 68 (-0.34990,-0.00000,-0.00000) ==
 == 156-th k-point nmo = 68 (-0.26242,0.08747,-0.08747) ==
 == 157-th k-point nmo = 68 (-0.17495,0.17495,-0.17495) ==
 == 158-th k-point nmo = 68 (-0.08747,0.26242,-0.26242) ==
 == 159-th k-point nmo = 68 (0.00000,0.34990,-0.34990) ==
 == 160-th k-point nmo = 68 (0.08747,0.43737,-0.43737) ==
 == 161-th k-point nmo = 68 (-0.34990,-0.17495,0.17495) ==
 == 162-th k-point nmo = 68 (-0.26242,-0.08747,0.08747) ==
 == 163-th k-point nmo = 68 (-0.17495,-0.00000,-0.00000) ==
 == 164-th k-point nmo = 68 (-0.08747,0.08747,-0.08747) ==
 == 165-th k-point nmo = 68 (0.00000,0.17495,-0.17495) ==
 == 166-th k-point nmo = 68 (0.08747,0.26242,-0.26242) ==
 == 167-th k-point nmo = 68 (0.17495,0.34990,-0.34990) ==
 == 168-th k-point nmo = 68 (-0.26242,-0.26242,0.26242) ==
 == 169-th k-point nmo = 68 (-0.17495,-0.17495,0.17495) ==
 == 170-th k-point nmo = 68 (-0.08747,-0.08747,0.08747) ==
 == 171-th k-point nmo = 68 (0.00000,0.00000,0.00000) ==
 == 172-th k-point nmo = 68 (0.08747,0.08747,-0.08747) ==
 == 173-th k-point nmo = 68 (0.17495,0.17495,-0.17495) ==
 == 174-th k-point nmo = 68 (0.26242,0.26242,-0.26242) ==
 == 175-th k-point nmo = 68 (-0.17495,-0.34990,0.34990) ==
 == 176-th k-point nmo = 68 (-0.08747,-0.26242,0.26242) ==
 == 177-th k-point nmo = 68 (-0.00000,-0.17495,0.17495) ==
 == 178-th k-point nmo = 68 (0.08747,-0.08747,0.08747) ==
 == 179-th k-point nmo = 68 (0.17495,0.00000,0.00000) ==
 == 180-th k-point nmo = 68 (0.26242,0.08747,-0.08747) ==
 == 181-th k-point nmo = 68 (0.34990,0.17495,-0.17495) ==
 == 182-th k-point nmo = 68 (-0.08747,-0.43737,0.43737) ==
 == 183-th k-point nmo = 68 (-0.00000,-0.34990,0.34990) ==
 == 184-th k-point nmo = 68 (0.08747,-0.26242,0.26242) ==
 == 185-th k-point nmo = 68 (0.17495,-0.17495,0.17495) ==
 == 186-th k-point nmo = 68 (0.26242,-0.08747,0.08747) ==
 == 187-th k-point nmo = 68 (0.34990,0.00000,0.00000) ==
 == 188-th k-point nmo = 68 (0.43737,0.08747,-0.08747) ==
 == 189-th k-point nmo = 68 (-0.00000,-0.52485,0.52485) ==
 == 190-th k-point nmo = 68 (0.08747,-0.43737,0.43737) ==
 == 191-th k-point nmo = 68 (0.17495,-0.34990,0.34990) ==
 == 192-th k-point nmo = 68 (0.26242,-0.26242,0.26242) ==
 == 193-th k-point nmo = 68 (0.34990,-0.17495,0.17495) ==
 == 194-th k-point nmo = 68 (0.43737,-0.08747,0.08747) ==
 == 195-th k-point nmo = 68 (0.52485,0.00000,0.00000) ==
 == 196-th k-point nmo = 68 (-0.61232,0.08747,0.08747) ==
 == 197-th k-point nmo = 68 (-0.52485,0.17495,-0.00000) ==
 == 198-th k-point nmo = 68 (-0.43737,0.26242,-0.08747) ==
 == 199-th k-point nmo = 68 (-0.34990,0.34990,-0.17495) ==
 == 200-th k-point nmo = 68 (-0.26242,0.43737,-0.26242) ==
 == 201-th k-point nmo = 68 (-0.17495,0.52485,-0.34990) ==
 == 202-th k-point nmo = 68 (-0.08747,0.61232,-0.43737) ==
 == 203-th k-point nmo = 68 (-0.52485,-0.00000,0.17495) ==
 == 204-th k-point nmo = 68 (-0.43737,0.08747,0.08747) ==
 == 205-th k-point nmo = 68 (-0.34990,0.17495,-0.00000) ==
 == 206-th k-point nmo = 68 (-0.26242,0.26242,-0.08747) ==
 == 207-th k-point nmo = 68 (-0.17495,0.34990,-0.17495) ==
 == 208-th k-point nmo = 68 (-0.08747,0.43737,-0.26242) ==
 == 209-th k-point nmo = 68 (0.00000,0.52485,-0.34990) ==
 == 210-th k-point nmo = 68 (-0.43737,-0.08747,0.26242) ==
 == 211-th k-point nmo = 68 (-0.34990,-0.00000,0.17495) ==
 == 212-th k-point nmo = 68 (-0.26242,0.08747,0.08747) ==
 == 213-th k-point nmo = 68 (-0.17495,0.17495,-0.00000) ==
 == 214-th k-point nmo = 68 (-0.08747,0.26242,-0.08747) ==
 == 215-th k-point nmo = 68 (0.00000,0.34990,-0.17495) ==
 == 216-th k-point nmo = 68 (0.08747,0.43737,-0.26242) ==
 == 217-th k-point nmo = 68 (-0.34990,-0.17495,0.34990) ==
 == 218-th k-point nmo = 68 (-0.26242,-0.08747,0.26242) ==
 == 219-th k-point nmo = 68 (-0.17495,0.00000,0.17495) ==
 == 220-th k-point nmo = 68 (-0.08747,0.08747,0.08747) ==
 == 221-th k-point nmo = 68 (0.00000,0.17495,0.00000) ==
 == 222-th k-point nmo = 68 (0.08747,0.26242,-0.08747) ==
 == 223-th k-point nmo = 68 (0.17495,0.34990,-0.17495) ==
 == 224-th k-point nmo = 68 (-0.26242,-0.26242,0.43737) ==
 == 225-th k-point nmo = 68 (-0.17495,-0.17495,0.34990) ==
 == 226-th k-point nmo = 68 (-0.08747,-0.08747,0.26242) ==
 == 227-th k-point nmo = 68 (0.00000,0.00000,0.17495) ==
 == 228-th k-point nmo = 68 (0.08747,0.08747,0.08747) ==
 == 229-th k-point nmo = 68 (0.17495,0.17495,0.00000) ==
 == 230-th k-point nmo = 68 (0.26242,0.26242,-0.08747) ==
 == 231-th k-point nmo = 68 (-0.17495,-0.34990,0.52485) ==
 == 232-th k-point nmo = 68 (-0.08747,-0.26242,0.43737) ==
 == 233-th k-point nmo = 68 (0.00000,-0.17495,0.34990) ==
 == 234-th k-point nmo = 68 (0.08747,-0.08747,0.26242) ==
 == 235-th k-point nmo = 68 (0.17495,0.00000,0.17495) ==
 == 236-th k-point nmo = 68 (0.26242,0.08747,0.08747) ==
 == 237-th k-point nmo = 68 (0.34990,0.17495,0.00000) ==
 == 238-th k-point nmo = 68 (-0.08747,-0.43737,0.61232) ==
 == 239-th k-point nmo = 68 (0.00000,-0.34990,0.52485) ==
 == 240-th k-point nmo = 68 (0.08747,-0.26242,0.43737) ==
 == 241-th k-point nmo = 68 (0.17495,-0.17495,0.34990) ==
 == 242-th k-point nmo = 68 (0.26242,-0.08747,0.26242) ==
 == 243-th k-point nmo = 68 (0.34990,0.00000,0.17495) ==
 == 244-th k-point nmo = 68 (0.43737,0.08747,0.08747) ==
 == 245-th k-point nmo = 68 (-0.69980,0.17495,0.17495) ==
 == 246-th k-point nmo = 68 (-0.61232,0.26242,0.08747) ==
 == 247-th k-point nmo = 68 (-0.52485,0.34990,-0.00000) ==
 == 248-th k-point nmo = 68 (-0.43737,0.43737,-0.08747) ==
 == 249-th k-point nmo = 68 (-0.34990,0.52485,-0.17495) ==
 == 250-th k-point nmo = 68 (-0.26242,0.61232,-0.26242) ==
 == 251-th k-point nmo = 68 (-0.17495,0.69980,-0.34990) ==
 == 252-th k-point nmo = 68 (-0.61232,0.08747,0.26242) ==
 == 253-th k-point nmo = 68 (-0.52485,0.17495,0.17495) ==
 == 254-th k-point nmo = 68 (-0.43737,0.26242,0.08747) ==
 == 255-th k-point nmo = 68 (-0.34990,0.34990,-0.00000) ==
 == 256-th k-point nmo = 68 (-0.26242,0.43737,-0.08747) ==
 == 257-th k-point nmo = 68 (-0.17495,0.52485,-0.17495) ==
 == 258-th k-point nmo = 68 (-0.08747,0.61232,-0.26242) ==
 == 259-th k-point nmo = 68 (-0.52485,-0.00000,0.34990) ==
 == 260-th k-point nmo = 68 (-0.43737,0.08747,0.26242) ==
 == 261-th k-point nmo = 68 (-0.34990,0.17495,0.17495) ==
 == 262-th k-point nmo = 68 (-0.26242,0.26242,0.08747) ==
 == 263-th k-point nmo = 68 (-0.17495,0.34990,-0.00000) ==
 == 264-th k-point nmo = 68 (-0.08747,0.43737,-0.08747) ==
 == 265-th k-point nmo = 68 (0.00000,0.52485,-0.17495) ==
 == 266-th k-point nmo = 68 (-0.43737,-0.08747,0.43737) ==
 == 267-th k-point nmo = 68 (-0.34990,0.00000,0.34990) ==
 == 268-th k-point nmo = 68 (-0.26242,0.08747,0.26242) ==
 == 269-th k-point nmo = 68 (-0.17495,0.17495,0.17495) ==
 == 270-th k-point nmo = 68 (-0.08747,0.26242,0.08747) ==
 == 271-th k-point nmo = 68 (0.00000,0.34990,0.00000) ==
 == 272-th k-point nmo = 68 (0.08747,0.43737,-0.08747) ==
 == 273-th k-point nmo = 68 (-0.34990,-0.17495,0.52485) ==
 == 274-th k-point nmo = 68 (-0.26242,-0.08747,0.43737) ==
 == 275-th k-point nmo = 68 (-0.17495,0.00000,0.34990) ==
 == 276-th k-point nmo = 68 (-0.08747,0.08747,0.26242) ==
 == 277-th k-point nmo = 68 (0.00000,0.17495,0.17495) ==
 == 278-th k-point nmo = 68 (0.08747,0.26242,0.08747) ==
 == 279-th k-point nmo = 68 (0.17495,0.34990,0.00000) ==
 == 280-th k-point nmo = 68 (-0.26242,-0.26242,0.61232) ==
 == 281-th k-point nmo = 68 (-0.17495,-0.17495,0.52485) ==
 == 282-th k-point nmo = 68 (-0.08747,-0.08747,0.43737) ==
 == 283-th k-point nmo = 68 (0.00000,0.00000,0.34990) ==
 == 284-th k-point nmo = 68 (0.08747,0.08747,0.26242) ==
 == 285-th k-point nmo = 68 (0.17495,0.17495,0.17495) ==
 == 286-th k-point nmo = 68 (0.26242,0.26242,0.08747) ==
 == 287-th k-point nmo = 68 (-0.17495,-0.34990,0.69980) ==
 == 288-th k-point nmo = 68 (-0.08747,-0.26242,0.61232) ==
 == 289-th k-point nmo = 68 (0.00000,-0.17495,0.52485) ==
 == 290-th k-point nmo = 68 (0.08747,-0.08747,0.43737) ==
 == 291-th k-point nmo = 68 (0.17495,0.00000,0.34990) ==
 == 292-th k-point nmo = 68 (0.26242,0.08747,0.26242) ==
 == 293-th k-point nmo = 68 (0.34990,0.17495,0.17495) ==
 == 294-th k-point nmo = 68 (-0.78727,0.26242,0.26242) ==
 == 295-th k-point nmo = 68 (-0.69980,0.34990,0.17495) ==
 == 296-th k-point nmo = 68 (-0.61232,0.43737,0.08747) ==
 == 297-th k-point nmo = 68 (-0.52485,0.52485,-0.00000) ==
 == 298-th k-point nmo = 68 (-0.43737,0.61232,-0.08747) ==
 == 299-th k-point nmo = 68 (-0.34990,0.69980,-0.17495) ==
 == 300-th k-point nmo = 68 (-0.26242,0.78727,-0.26242) ==
 == 301-th k-point nmo = 68 (-0.69980,0.17495,0.34990) ==
 == 302-th k-point nmo = 68 (-0.61232,0.26242,0.26242) ==
 == 303-th k-point nmo = 68 (-0.52485,0.34990,0.17495) ==
 == 304-th k-point nmo = 68 (-0.43737,0.43737,0.08747) ==
 == 305-th k-point nmo = 68 (-0.34990,0.52485,-0.00000) ==
 == 306-th k-point nmo = 68 (-0.26242,0.61232,-0.08747) ==
 == 307-th k-point nmo = 68 (-0.17495,0.69980,-0.17495) ==
 == 308-th k-point nmo = 68 (-0.61232,0.08747,0.43737) ==
 == 309-th k-point nmo = 68 (-0.52485,0.17495,0.34990) ==
 == 310-th k-point nmo = 68 (-0.43737,0.26242,0.26242) ==
 == 311-th k-point nmo = 68 (-0.34990,0.34990,0.17495) ==
 == 312-th k-point nmo = 68 (-0.26242,0.43737,0.08747) ==
 == 313-th k-point nmo = 68 (-0.17495,0.52485,0.00000) ==
 == 314-th k-point nmo = 68 (-0.08747,0.61232,-0.08747) ==
 == 315-th k-point nmo = 68 (-0.52485,0.00000,0.52485) ==
 == 316-th k-point nmo = 68 (-0.43737,0.08747,0.43737) ==
 == 317-th k-point nmo = 68 (-0.34990,0.17495,0.34990) ==
 == 318-th k-point nmo = 68 (-0.26242,0.26242,0.26242) ==
 == 319-th k-point nmo = 68 (-0.17495,0.34990,0.17495) ==
 == 320-th k-point nmo = 68 (-0.08747,0.43737,0.08747) ==
 == 321-th k-point nmo = 68 (0.00000,0.52485,0.00000) ==
 == 322-th k-point nmo = 68 (-0.43737,-0.08747,0.61232) ==
 == 323-th k-point nmo = 68 (-0.34990,0.00000,0.52485) ==
 == 324-th k-point nmo = 68 (-0.26242,0.08747,0.43737) ==
 == 325-th k-point nmo = 68 (-0.17495,0.17495,0.34990) ==
 == 326-th k-point nmo = 68 (-0.08747,0.26242,0.26242) ==
 == 327-th k-point nmo = 68 (0.00000,0.34990,0.17495) ==
 == 328-th k-point nmo = 68 (0.08747,0.43737,0.08747) ==
 == 329-th k-point nmo = 68 (-0.34990,-0.17495,0.69980) ==
 == 330-th k-point nmo = 68 (-0.26242,-0.08747,0.61232) ==
 == 331-th k-point nmo = 68 (-0.17495,0.00000,0.52485) ==
 == 332-th k-point nmo = 68 (-0.08747,0.08747,0.43737) ==
 == 333-th k-point nmo = 68 (0.00000,0.17495,0.34990) ==
 == 334-th k-point nmo = 68 (0.08747,0.26242,0.26242) ==
 == 335-th k-point nmo = 68 (0.17495,0.34990,0.17495) ==
 == 336-th k-point nmo = 68 (-0.26242,-0.26242,0.78727) ==
 == 337-th k-point nmo = 68 (-0.17495,-0.17495,0.69980) ==
 == 338-th k-point nmo = 68 (-0.08747,-0.08747,0.61232) ==
 == 339-th k-point nmo = 68 (0.00000,0.00000,0.52485) ==
 == 340-th k-point nmo = 68 (0.08747,0.08747,0.43737) ==
 == 341-th k-point nmo = 68 (0.17495,0.17495,0.34990) ==
 == 342-th k-point nmo = 68 (0.26242,0.26242,0.26242) ==

 Generate autoSAD guess
backing up fragment data
Atom # 0: si, charge: 0, multiplicity: 3.000000
writing autosad to fragment context
Settings for isolated fragments: 
  frgm_gamma: TRUE
  frgm_center: FALSE

    Running SCF for isolated atom #0
    Fragment Input file: /n/netscratch/joonholee_lab/Lab/hieudinh//si_2_ccpvtz_omega_0.6_777.scratch20250909092534/autosad_frgmt_0/frgmt_input.in
    Fragment Output file: /n/netscratch/joonholee_lab/Lab/hieudinh//si_2_ccpvtz_omega_0.6_777.scratch20250909092534/autosad_frgmt_0/frgmt_job.out
    Fragment job begins at Tue Sep  9 09:25:39 2025

 Integrated density by DFT XC:
   Numerical integral  =    13.999999324657
   Relative error      =     0.0000048239 %
Final energy components:
 DFT Correlation            Energy =  -0.48419291960634
 DFT Exchange               Energy = -20.15457765326662
 Kinetic (alpha)            Energy = 145.16532593944495
 Kinetic (beta)             Energy = 143.17442658177276
 Nuclear Attraction (alpha) Energy = -351.25548439806920
 Nuclear Attraction (beta)  Energy = -337.63206466478056
 Nuclear Repulsion          Energy =   0.00000000000000
 SEOQF                      Energy =   0.00000000065999
 Total Coulomb              Energy = 131.95997984351322
----------------------------------------------
    SCF Energy: -289.2265872703
   Total fragment job time:  0.50 s.
restoring fragment data

 ------------------------------------------------------------------------
 Allocate 83554800 B from available memory: 1048550360288 B
 Time for generating SCF guess: 0.53 s

 Allocate 78392 B from available memory: 1048466805504 B
 Selected algorithms for each term:
  kpts_kinetic -> @0x14c9145b6680
  kpts_nn -> @0x14c9145b6800
  kpts_rij_bigmem -> @0x14c9145b63e0
  kpts_vnuc_df -> @0x14c9145b6380
  kpts_xc -> @0x14c9145b62c0
 Time for computing kinetic matrix is 1.96 s
Start calculating Vnuc DD type!
Start calculating Vnuc CD type!
Start calculating Vnuc CC type!
 Time for computing nuclear attraction matrix is 4.70 s
Compute (P|Q) and use solve on the fly!
Maximum distance between P and Q is 29.79462221820766
Number of images for (P|Qn) is 911
 Time for computing 2e2c SR integral is 0.10 s
Maximum dynamic memory per thread for 2e3c SR integrals: 0.041 GiB
Batch size for basis function pair is 900 out of 900
 === bvk cell = 0 has 100.000 % of the basis function pairs === 
 === bvk cell = 1 has 100.000 % of the basis function pairs === 
 === bvk cell = 2 has 80.556 % of the basis function pairs === 
 === bvk cell = 3 has 12.667 % of the basis function pairs === 
 === bvk cell = 4 has 12.667 % of the basis function pairs === 
 === bvk cell = 5 has 80.556 % of the basis function pairs === 
 === bvk cell = 6 has 100.000 % of the basis function pairs === 
 === bvk cell = 7 has 100.000 % of the basis function pairs === 
 === bvk cell = 8 has 88.333 % of the basis function pairs === 
 === bvk cell = 9 has 42.778 % of the basis function pairs === 
 === bvk cell = 10 has 0.111 % of the basis function pairs === 
 === bvk cell = 11 has 35.667 % of the basis function pairs === 
 === bvk cell = 12 has 95.556 % of the basis function pairs === 
 === bvk cell = 13 has 100.000 % of the basis function pairs === 
 === bvk cell = 14 has 80.556 % of the basis function pairs === 
 === bvk cell = 15 has 42.778 % of the basis function pairs === 
 === bvk cell = 16 has 1.778 % of the basis function pairs === 
 === bvk cell = 17 has 0.000 % of the basis function pairs === 
 === bvk cell = 18 has 35.111 % of the basis function pairs === 
 === bvk cell = 19 has 85.556 % of the basis function pairs === 
 === bvk cell = 20 has 95.556 % of the basis function pairs === 
 === bvk cell = 21 has 12.667 % of the basis function pairs === 
 === bvk cell = 22 has 0.111 % of the basis function pairs === 
 === bvk cell = 23 has 0.000 % of the basis function pairs === 
 === bvk cell = 24 has 0.000 % of the basis function pairs === 
 === bvk cell = 25 has 1.778 % of the basis function pairs === 
 === bvk cell = 26 has 35.111 % of the basis function pairs === 
 === bvk cell = 27 has 35.667 % of the basis function pairs === 
 === bvk cell = 28 has 12.667 % of the basis function pairs === 
 === bvk cell = 29 has 35.667 % of the basis function pairs === 
 === bvk cell = 30 has 35.111 % of the basis function pairs === 
 === bvk cell = 31 has 1.778 % of the basis function pairs === 
 === bvk cell = 32 has 0.000 % of the basis function pairs === 
 === bvk cell = 33 has 0.000 % of the basis function pairs === 
 === bvk cell = 34 has 0.111 % of the basis function pairs === 
 === bvk cell = 35 has 80.556 % of the basis function pairs === 
 === bvk cell = 36 has 95.556 % of the basis function pairs === 
 === bvk cell = 37 has 85.556 % of the basis function pairs === 
 === bvk cell = 38 has 35.111 % of the basis function pairs === 
 === bvk cell = 39 has 0.000 % of the basis function pairs === 
 === bvk cell = 40 has 1.778 % of the basis function pairs === 
 === bvk cell = 41 has 42.778 % of the basis function pairs === 
 === bvk cell = 42 has 100.000 % of the basis function pairs === 
 === bvk cell = 43 has 100.000 % of the basis function pairs === 
 === bvk cell = 44 has 95.556 % of the basis function pairs === 
 === bvk cell = 45 has 35.667 % of the basis function pairs === 
 === bvk cell = 46 has 0.111 % of the basis function pairs === 
 === bvk cell = 47 has 42.778 % of the basis function pairs === 
 === bvk cell = 48 has 88.333 % of the basis function pairs === 
 === bvk cell = 49 has 100.000 % of the basis function pairs === 
 === bvk cell = 50 has 88.333 % of the basis function pairs === 
 === bvk cell = 51 has 42.778 % of the basis function pairs === 
 === bvk cell = 52 has 0.111 % of the basis function pairs === 
 === bvk cell = 53 has 35.667 % of the basis function pairs === 
 === bvk cell = 54 has 95.556 % of the basis function pairs === 
 === bvk cell = 55 has 100.000 % of the basis function pairs === 
 === bvk cell = 56 has 88.333 % of the basis function pairs === 
 === bvk cell = 57 has 47.333 % of the basis function pairs === 
 === bvk cell = 58 has 10.667 % of the basis function pairs === 
 === bvk cell = 59 has 0.111 % of the basis function pairs === 
 === bvk cell = 60 has 46.222 % of the basis function pairs === 
 === bvk cell = 61 has 100.000 % of the basis function pairs === 
 === bvk cell = 62 has 100.000 % of the basis function pairs === 
 === bvk cell = 63 has 42.778 % of the basis function pairs === 
 === bvk cell = 64 has 10.667 % of the basis function pairs === 
 === bvk cell = 65 has 0.000 % of the basis function pairs === 
 === bvk cell = 66 has 0.000 % of the basis function pairs === 
 === bvk cell = 67 has 43.556 % of the basis function pairs === 
 === bvk cell = 68 has 58.333 % of the basis function pairs === 
 === bvk cell = 69 has 62.333 % of the basis function pairs === 
 === bvk cell = 70 has 0.111 % of the basis function pairs === 
 === bvk cell = 71 has 0.111 % of the basis function pairs === 
 === bvk cell = 72 has 0.000 % of the basis function pairs === 
 === bvk cell = 73 has 0.000 % of the basis function pairs === 
 === bvk cell = 74 has 0.111 % of the basis function pairs === 
 === bvk cell = 75 has 12.222 % of the basis function pairs === 
 === bvk cell = 76 has 10.667 % of the basis function pairs === 
 === bvk cell = 77 has 35.667 % of the basis function pairs === 
 === bvk cell = 78 has 46.222 % of the basis function pairs === 
 === bvk cell = 79 has 43.556 % of the basis function pairs === 
 === bvk cell = 80 has 0.111 % of the basis function pairs === 
 === bvk cell = 81 has 0.000 % of the basis function pairs === 
 === bvk cell = 82 has 0.000 % of the basis function pairs === 
 === bvk cell = 83 has 10.667 % of the basis function pairs === 
 === bvk cell = 84 has 95.556 % of the basis function pairs === 
 === bvk cell = 85 has 100.000 % of the basis function pairs === 
 === bvk cell = 86 has 58.333 % of the basis function pairs === 
 === bvk cell = 87 has 12.222 % of the basis function pairs === 
 === bvk cell = 88 has 0.000 % of the basis function pairs === 
 === bvk cell = 89 has 12.667 % of the basis function pairs === 
 === bvk cell = 90 has 62.333 % of the basis function pairs === 
 === bvk cell = 91 has 100.000 % of the basis function pairs === 
 === bvk cell = 92 has 100.000 % of the basis function pairs === 
 === bvk cell = 93 has 62.333 % of the basis function pairs === 
 === bvk cell = 94 has 10.667 % of the basis function pairs === 
 === bvk cell = 95 has 10.667 % of the basis function pairs === 
 === bvk cell = 96 has 62.333 % of the basis function pairs === 
 === bvk cell = 97 has 100.000 % of the basis function pairs === 
 === bvk cell = 98 has 80.556 % of the basis function pairs === 
 === bvk cell = 99 has 42.778 % of the basis function pairs === 
 === bvk cell = 100 has 1.778 % of the basis function pairs === 
 === bvk cell = 101 has 0.000 % of the basis function pairs === 
 === bvk cell = 102 has 35.111 % of the basis function pairs === 
 === bvk cell = 103 has 85.556 % of the basis function pairs === 
 === bvk cell = 104 has 95.556 % of the basis function pairs === 
 === bvk cell = 105 has 42.778 % of the basis function pairs === 
 === bvk cell = 106 has 10.667 % of the basis function pairs === 
 === bvk cell = 107 has 0.000 % of the basis function pairs === 
 === bvk cell = 108 has 0.000 % of the basis function pairs === 
 === bvk cell = 109 has 43.556 % of the basis function pairs === 
 === bvk cell = 110 has 58.333 % of the basis function pairs === 
 === bvk cell = 111 has 62.333 % of the basis function pairs === 
 === bvk cell = 112 has 1.778 % of the basis function pairs === 
 === bvk cell = 113 has 0.000 % of the basis function pairs === 
 === bvk cell = 114 has 0.000 % of the basis function pairs === 
 === bvk cell = 115 has 0.000 % of the basis function pairs === 
 === bvk cell = 116 has 3.333 % of the basis function pairs === 
 === bvk cell = 117 has 26.222 % of the basis function pairs === 
 === bvk cell = 118 has 12.667 % of the basis function pairs === 
 === bvk cell = 119 has 0.000 % of the basis function pairs === 
 === bvk cell = 120 has 0.000 % of the basis function pairs === 
 === bvk cell = 121 has 0.000 % of the basis function pairs === 
 === bvk cell = 122 has 0.000 % of the basis function pairs === 
 === bvk cell = 123 has 0.000 % of the basis function pairs === 
 === bvk cell = 124 has 0.000 % of the basis function pairs === 
 === bvk cell = 125 has 0.000 % of the basis function pairs === 
 === bvk cell = 126 has 35.111 % of the basis function pairs === 
 === bvk cell = 127 has 43.556 % of the basis function pairs === 
 === bvk cell = 128 has 3.333 % of the basis function pairs === 
 === bvk cell = 129 has 0.000 % of the basis function pairs === 
 === bvk cell = 130 has 0.000 % of the basis function pairs === 
 === bvk cell = 131 has 0.000 % of the basis function pairs === 
 === bvk cell = 132 has 12.222 % of the basis function pairs === 
 === bvk cell = 133 has 85.556 % of the basis function pairs === 
 === bvk cell = 134 has 58.333 % of the basis function pairs === 
 === bvk cell = 135 has 26.222 % of the basis function pairs === 
 === bvk cell = 136 has 0.000 % of the basis function pairs === 
 === bvk cell = 137 has 0.000 % of the basis function pairs === 
 === bvk cell = 138 has 26.222 % of the basis function pairs === 
 === bvk cell = 139 has 58.333 % of the basis function pairs === 
 === bvk cell = 140 has 95.556 % of the basis function pairs === 
 === bvk cell = 141 has 62.333 % of the basis function pairs === 
 === bvk cell = 142 has 12.667 % of the basis function pairs === 
 === bvk cell = 143 has 0.000 % of the basis function pairs === 
 === bvk cell = 144 has 12.222 % of the basis function pairs === 
 === bvk cell = 145 has 58.333 % of the basis function pairs === 
 === bvk cell = 146 has 100.000 % of the basis function pairs === 
 === bvk cell = 147 has 12.667 % of the basis function pairs === 
 === bvk cell = 148 has 0.111 % of the basis function pairs === 
 === bvk cell = 149 has 0.000 % of the basis function pairs === 
 === bvk cell = 150 has 0.000 % of the basis function pairs === 
 === bvk cell = 151 has 1.778 % of the basis function pairs === 
 === bvk cell = 152 has 35.111 % of the basis function pairs === 
 === bvk cell = 153 has 35.667 % of the basis function pairs === 
 === bvk cell = 154 has 0.111 % of the basis function pairs === 
 === bvk cell = 155 has 0.111 % of the basis function pairs === 
 === bvk cell = 156 has 0.000 % of the basis function pairs === 
 === bvk cell = 157 has 0.000 % of the basis function pairs === 
 === bvk cell = 158 has 0.111 % of the basis function pairs === 
 === bvk cell = 159 has 12.222 % of the basis function pairs === 
 === bvk cell = 160 has 10.667 % of the basis function pairs === 
 === bvk cell = 161 has 0.000 % of the basis function pairs === 
 === bvk cell = 162 has 0.000 % of the basis function pairs === 
 === bvk cell = 163 has 0.000 % of the basis function pairs === 
 === bvk cell = 164 has 0.000 % of the basis function pairs === 
 === bvk cell = 165 has 0.000 % of the basis function pairs === 
 === bvk cell = 166 has 0.000 % of the basis function pairs === 
 === bvk cell = 167 has 0.000 % of the basis function pairs === 
 === bvk cell = 168 has 0.000 % of the basis function pairs === 
 === bvk cell = 169 has 0.000 % of the basis function pairs === 
 === bvk cell = 170 has 0.000 % of the basis function pairs === 
 === bvk cell = 171 has 0.000 % of the basis function pairs === 
 === bvk cell = 172 has 0.000 % of the basis function pairs === 
 === bvk cell = 173 has 0.000 % of the basis function pairs === 
 === bvk cell = 174 has 0.000 % of the basis function pairs === 
 === bvk cell = 175 has 1.778 % of the basis function pairs === 
 === bvk cell = 176 has 0.111 % of the basis function pairs === 
 === bvk cell = 177 has 0.000 % of the basis function pairs === 
 === bvk cell = 178 has 0.000 % of the basis function pairs === 
 === bvk cell = 179 has 0.000 % of the basis function pairs === 
 === bvk cell = 180 has 0.000 % of the basis function pairs === 
 === bvk cell = 181 has 0.111 % of the basis function pairs === 
 === bvk cell = 182 has 35.111 % of the basis function pairs === 
 === bvk cell = 183 has 12.222 % of the basis function pairs === 
 === bvk cell = 184 has 0.000 % of the basis function pairs === 
 === bvk cell = 185 has 0.000 % of the basis function pairs === 
 === bvk cell = 186 has 0.000 % of the basis function pairs === 
 === bvk cell = 187 has 3.333 % of the basis function pairs === 
 === bvk cell = 188 has 43.556 % of the basis function pairs === 
 === bvk cell = 189 has 35.667 % of the basis function pairs === 
 === bvk cell = 190 has 10.667 % of the basis function pairs === 
 === bvk cell = 191 has 0.000 % of the basis function pairs === 
 === bvk cell = 192 has 0.000 % of the basis function pairs === 
 === bvk cell = 193 has 0.111 % of the basis function pairs === 
 === bvk cell = 194 has 43.556 % of the basis function pairs === 
 === bvk cell = 195 has 46.222 % of the basis function pairs === 
 === bvk cell = 196 has 12.667 % of the basis function pairs === 
 === bvk cell = 197 has 35.667 % of the basis function pairs === 
 === bvk cell = 198 has 35.111 % of the basis function pairs === 
 === bvk cell = 199 has 1.778 % of the basis function pairs === 
 === bvk cell = 200 has 0.000 % of the basis function pairs === 
 === bvk cell = 201 has 0.000 % of the basis function pairs === 
 === bvk cell = 202 has 0.111 % of the basis function pairs === 
 === bvk cell = 203 has 35.667 % of the basis function pairs === 
 === bvk cell = 204 has 46.222 % of the basis function pairs === 
 === bvk cell = 205 has 43.556 % of the basis function pairs === 
 === bvk cell = 206 has 0.111 % of the basis function pairs === 
 === bvk cell = 207 has 0.000 % of the basis function pairs === 
 === bvk cell = 208 has 0.000 % of the basis function pairs === 
 === bvk cell = 209 has 10.667 % of the basis function pairs === 
 === bvk cell = 210 has 35.111 % of the basis function pairs === 
 === bvk cell = 211 has 43.556 % of the basis function pairs === 
 === bvk cell = 212 has 3.333 % of the basis function pairs === 
 === bvk cell = 213 has 0.000 % of the basis function pairs === 
 === bvk cell = 214 has 0.000 % of the basis function pairs === 
 === bvk cell = 215 has 0.000 % of the basis function pairs === 
 === bvk cell = 216 has 12.222 % of the basis function pairs === 
 === bvk cell = 217 has 1.778 % of the basis function pairs === 
 === bvk cell = 218 has 0.111 % of the basis function pairs === 
 === bvk cell = 219 has 0.000 % of the basis function pairs === 
 === bvk cell = 220 has 0.000 % of the basis function pairs === 
 === bvk cell = 221 has 0.000 % of the basis function pairs === 
 === bvk cell = 222 has 0.000 % of the basis function pairs === 
 === bvk cell = 223 has 0.111 % of the basis function pairs === 
 === bvk cell = 224 has 0.000 % of the basis function pairs === 
 === bvk cell = 225 has 0.000 % of the basis function pairs === 
 === bvk cell = 226 has 0.000 % of the basis function pairs === 
 === bvk cell = 227 has 0.000 % of the basis function pairs === 
 === bvk cell = 228 has 0.000 % of the basis function pairs === 
 === bvk cell = 229 has 0.000 % of the basis function pairs === 
 === bvk cell = 230 has 0.000 % of the basis function pairs === 
 === bvk cell = 231 has 0.000 % of the basis function pairs === 
 === bvk cell = 232 has 0.000 % of the basis function pairs === 
 === bvk cell = 233 has 0.000 % of the basis function pairs === 
 === bvk cell = 234 has 0.000 % of the basis function pairs === 
 === bvk cell = 235 has 0.000 % of the basis function pairs === 
 === bvk cell = 236 has 0.000 % of the basis function pairs === 
 === bvk cell = 237 has 0.000 % of the basis function pairs === 
 === bvk cell = 238 has 0.111 % of the basis function pairs === 
 === bvk cell = 239 has 10.667 % of the basis function pairs === 
 === bvk cell = 240 has 12.222 % of the basis function pairs === 
 === bvk cell = 241 has 0.111 % of the basis function pairs === 
 === bvk cell = 242 has 0.000 % of the basis function pairs === 
 === bvk cell = 243 has 0.000 % of the basis function pairs === 
 === bvk cell = 244 has 0.111 % of the basis function pairs === 
 === bvk cell = 245 has 80.556 % of the basis function pairs === 
 === bvk cell = 246 has 95.556 % of the basis function pairs === 
 === bvk cell = 247 has 85.556 % of the basis function pairs === 
 === bvk cell = 248 has 35.111 % of the basis function pairs === 
 === bvk cell = 249 has 0.000 % of the basis function pairs === 
 === bvk cell = 250 has 1.778 % of the basis function pairs === 
 === bvk cell = 251 has 42.778 % of the basis function pairs === 
 === bvk cell = 252 has 95.556 % of the basis function pairs === 
 === bvk cell = 253 has 100.000 % of the basis function pairs === 
 === bvk cell = 254 has 58.333 % of the basis function pairs === 
 === bvk cell = 255 has 12.222 % of the basis function pairs === 
 === bvk cell = 256 has 0.000 % of the basis function pairs === 
 === bvk cell = 257 has 12.667 % of the basis function pairs === 
 === bvk cell = 258 has 62.333 % of the basis function pairs === 
 === bvk cell = 259 has 85.556 % of the basis function pairs === 
 === bvk cell = 260 has 58.333 % of the basis function pairs === 
 === bvk cell = 261 has 26.222 % of the basis function pairs === 
 === bvk cell = 262 has 0.000 % of the basis function pairs === 
 === bvk cell = 263 has 0.000 % of the basis function pairs === 
 === bvk cell = 264 has 26.222 % of the basis function pairs === 
 === bvk cell = 265 has 58.333 % of the basis function pairs === 
 === bvk cell = 266 has 35.111 % of the basis function pairs === 
 === bvk cell = 267 has 12.222 % of the basis function pairs === 
 === bvk cell = 268 has 0.000 % of the basis function pairs === 
 === bvk cell = 269 has 0.000 % of the basis function pairs === 
 === bvk cell = 270 has 0.000 % of the basis function pairs === 
 === bvk cell = 271 has 3.333 % of the basis function pairs === 
 === bvk cell = 272 has 43.556 % of the basis function pairs === 
 === bvk cell = 273 has 0.000 % of the basis function pairs === 
 === bvk cell = 274 has 0.000 % of the basis function pairs === 
 === bvk cell = 275 has 0.000 % of the basis function pairs === 
 === bvk cell = 276 has 0.000 % of the basis function pairs === 
 === bvk cell = 277 has 0.000 % of the basis function pairs === 
 === bvk cell = 278 has 0.000 % of the basis function pairs === 
 === bvk cell = 279 has 0.000 % of the basis function pairs === 
 === bvk cell = 280 has 1.778 % of the basis function pairs === 
 === bvk cell = 281 has 12.667 % of the basis function pairs === 
 === bvk cell = 282 has 26.222 % of the basis function pairs === 
 === bvk cell = 283 has 3.333 % of the basis function pairs === 
 === bvk cell = 284 has 0.000 % of the basis function pairs === 
 === bvk cell = 285 has 0.000 % of the basis function pairs === 
 === bvk cell = 286 has 0.000 % of the basis function pairs === 
 === bvk cell = 287 has 42.778 % of the basis function pairs === 
 === bvk cell = 288 has 62.333 % of the basis function pairs === 
 === bvk cell = 289 has 58.333 % of the basis function pairs === 
 === bvk cell = 290 has 43.556 % of the basis function pairs === 
 === bvk cell = 291 has 0.000 % of the basis function pairs === 
 === bvk cell = 292 has 0.000 % of the basis function pairs === 
 === bvk cell = 293 has 10.667 % of the basis function pairs === 
 === bvk cell = 294 has 100.000 % of the basis function pairs === 
 === bvk cell = 295 has 100.000 % of the basis function pairs === 
 === bvk cell = 296 has 95.556 % of the basis function pairs === 
 === bvk cell = 297 has 35.667 % of the basis function pairs === 
 === bvk cell = 298 has 0.111 % of the basis function pairs === 
 === bvk cell = 299 has 42.778 % of the basis function pairs === 
 === bvk cell = 300 has 88.333 % of the basis function pairs === 
 === bvk cell = 301 has 100.000 % of the basis function pairs === 
 === bvk cell = 302 has 100.000 % of the basis function pairs === 
 === bvk cell = 303 has 62.333 % of the basis function pairs === 
 === bvk cell = 304 has 10.667 % of the basis function pairs === 
 === bvk cell = 305 has 10.667 % of the basis function pairs === 
 === bvk cell = 306 has 62.333 % of the basis function pairs === 
 === bvk cell = 307 has 100.000 % of the basis function pairs === 
 === bvk cell = 308 has 95.556 % of the basis function pairs === 
 === bvk cell = 309 has 62.333 % of the basis function pairs === 
 === bvk cell = 310 has 12.667 % of the basis function pairs === 
 === bvk cell = 311 has 0.000 % of the basis function pairs === 
 === bvk cell = 312 has 12.222 % of the basis function pairs === 
 === bvk cell = 313 has 58.333 % of the basis function pairs === 
 === bvk cell = 314 has 100.000 % of the basis function pairs === 
 === bvk cell = 315 has 35.667 % of the basis function pairs === 
 === bvk cell = 316 has 10.667 % of the basis function pairs === 
 === bvk cell = 317 has 0.000 % of the basis function pairs === 
 === bvk cell = 318 has 0.000 % of the basis function pairs === 
 === bvk cell = 319 has 0.111 % of the basis function pairs === 
 === bvk cell = 320 has 43.556 % of the basis function pairs === 
 === bvk cell = 321 has 46.222 % of the basis function pairs === 
 === bvk cell = 322 has 0.111 % of the basis function pairs === 
 === bvk cell = 323 has 10.667 % of the basis function pairs === 
 === bvk cell = 324 has 12.222 % of the basis function pairs === 
 === bvk cell = 325 has 0.111 % of the basis function pairs === 
 === bvk cell = 326 has 0.000 % of the basis function pairs === 
 === bvk cell = 327 has 0.000 % of the basis function pairs === 
 === bvk cell = 328 has 0.111 % of the basis function pairs === 
 === bvk cell = 329 has 42.778 % of the basis function pairs === 
 === bvk cell = 330 has 62.333 % of the basis function pairs === 
 === bvk cell = 331 has 58.333 % of the basis function pairs === 
 === bvk cell = 332 has 43.556 % of the basis function pairs === 
 === bvk cell = 333 has 0.000 % of the basis function pairs === 
 === bvk cell = 334 has 0.000 % of the basis function pairs === 
 === bvk cell = 335 has 10.667 % of the basis function pairs === 
 === bvk cell = 336 has 88.333 % of the basis function pairs === 
 === bvk cell = 337 has 100.000 % of the basis function pairs === 
 === bvk cell = 338 has 100.000 % of the basis function pairs === 
 === bvk cell = 339 has 46.222 % of the basis function pairs === 
 === bvk cell = 340 has 0.111 % of the basis function pairs === 
 === bvk cell = 341 has 10.667 % of the basis function pairs === 
 === bvk cell = 342 has 47.333 % of the basis function pairs === 
Static memory requirement for 2e3c SR integrals: 0.155 GB
There are 1 munu batches for computing 2e3c SR integrals with latsum
There are 4 Q batches for computing 2e3c SR integrals with latsum
 Time for computing 2e3c SR integral (CD) is 1.01 s
Maximum dynamic memory per thread for 2e3c SR integrals: 0.017 GiB
Batch size for basis function pair is 1354 out of 1354
 === bvk cell = 0 has 100.000 % of the basis function pairs === 
 === bvk cell = 1 has 90.030 % of the basis function pairs === 
 === bvk cell = 2 has 22.378 % of the basis function pairs === 
 === bvk cell = 3 has 0.000 % of the basis function pairs === 
 === bvk cell = 4 has 0.000 % of the basis function pairs === 
 === bvk cell = 5 has 12.999 % of the basis function pairs === 
 === bvk cell = 6 has 86.854 % of the basis function pairs === 
 === bvk cell = 7 has 90.030 % of the basis function pairs === 
 === bvk cell = 8 has 45.199 % of the basis function pairs === 
 === bvk cell = 9 has 0.960 % of the basis function pairs === 
 === bvk cell = 10 has 0.000 % of the basis function pairs === 
 === bvk cell = 11 has 0.000 % of the basis function pairs === 
 === bvk cell = 12 has 30.207 % of the basis function pairs === 
 === bvk cell = 13 has 92.171 % of the basis function pairs === 
 === bvk cell = 14 has 22.378 % of the basis function pairs === 
 === bvk cell = 15 has 0.960 % of the basis function pairs === 
 === bvk cell = 16 has 0.000 % of the basis function pairs === 
 === bvk cell = 17 has 0.000 % of the basis function pairs === 
 === bvk cell = 18 has 0.000 % of the basis function pairs === 
 === bvk cell = 19 has 4.284 % of the basis function pairs === 
 === bvk cell = 20 has 38.848 % of the basis function pairs === 
 === bvk cell = 21 has 0.000 % of the basis function pairs === 
 === bvk cell = 22 has 0.000 % of the basis function pairs === 
 === bvk cell = 23 has 0.000 % of the basis function pairs === 
 === bvk cell = 24 has 0.000 % of the basis function pairs === 
 === bvk cell = 25 has 0.000 % of the basis function pairs === 
 === bvk cell = 26 has 0.000 % of the basis function pairs === 
 === bvk cell = 27 has 0.074 % of the basis function pairs === 
 === bvk cell = 28 has 0.000 % of the basis function pairs === 
 === bvk cell = 29 has 0.000 % of the basis function pairs === 
 === bvk cell = 30 has 0.000 % of the basis function pairs === 
 === bvk cell = 31 has 0.000 % of the basis function pairs === 
 === bvk cell = 32 has 0.000 % of the basis function pairs === 
 === bvk cell = 33 has 0.000 % of the basis function pairs === 
 === bvk cell = 34 has 0.000 % of the basis function pairs === 
 === bvk cell = 35 has 12.999 % of the basis function pairs === 
 === bvk cell = 36 has 30.207 % of the basis function pairs === 
 === bvk cell = 37 has 4.284 % of the basis function pairs === 
 === bvk cell = 38 has 0.000 % of the basis function pairs === 
 === bvk cell = 39 has 0.000 % of the basis function pairs === 
 === bvk cell = 40 has 0.000 % of the basis function pairs === 
 === bvk cell = 41 has 0.222 % of the basis function pairs === 
 === bvk cell = 42 has 86.854 % of the basis function pairs === 
 === bvk cell = 43 has 92.171 % of the basis function pairs === 
 === bvk cell = 44 has 38.848 % of the basis function pairs === 
 === bvk cell = 45 has 0.074 % of the basis function pairs === 
 === bvk cell = 46 has 0.000 % of the basis function pairs === 
 === bvk cell = 47 has 0.222 % of the basis function pairs === 
 === bvk cell = 48 has 34.934 % of the basis function pairs === 
 === bvk cell = 49 has 90.030 % of the basis function pairs === 
 === bvk cell = 50 has 45.199 % of the basis function pairs === 
 === bvk cell = 51 has 0.960 % of the basis function pairs === 
 === bvk cell = 52 has 0.000 % of the basis function pairs === 
 === bvk cell = 53 has 0.000 % of the basis function pairs === 
 === bvk cell = 54 has 30.207 % of the basis function pairs === 
 === bvk cell = 55 has 92.171 % of the basis function pairs === 
 === bvk cell = 56 has 45.199 % of the basis function pairs === 
 === bvk cell = 57 has 5.096 % of the basis function pairs === 
 === bvk cell = 58 has 0.000 % of the basis function pairs === 
 === bvk cell = 59 has 0.000 % of the basis function pairs === 
 === bvk cell = 60 has 0.000 % of the basis function pairs === 
 === bvk cell = 61 has 28.656 % of the basis function pairs === 
 === bvk cell = 62 has 70.089 % of the basis function pairs === 
 === bvk cell = 63 has 0.960 % of the basis function pairs === 
 === bvk cell = 64 has 0.000 % of the basis function pairs === 
 === bvk cell = 65 has 0.000 % of the basis function pairs === 
 === bvk cell = 66 has 0.000 % of the basis function pairs === 
 === bvk cell = 67 has 0.000 % of the basis function pairs === 
 === bvk cell = 68 has 1.108 % of the basis function pairs === 
 === bvk cell = 69 has 5.244 % of the basis function pairs === 
 === bvk cell = 70 has 0.000 % of the basis function pairs === 
 === bvk cell = 71 has 0.000 % of the basis function pairs === 
 === bvk cell = 72 has 0.000 % of the basis function pairs === 
 === bvk cell = 73 has 0.000 % of the basis function pairs === 
 === bvk cell = 74 has 0.000 % of the basis function pairs === 
 === bvk cell = 75 has 0.000 % of the basis function pairs === 
 === bvk cell = 76 has 0.000 % of the basis function pairs === 
 === bvk cell = 77 has 0.000 % of the basis function pairs === 
 === bvk cell = 78 has 0.000 % of the basis function pairs === 
 === bvk cell = 79 has 0.000 % of the basis function pairs === 
 === bvk cell = 80 has 0.000 % of the basis function pairs === 
 === bvk cell = 81 has 0.000 % of the basis function pairs === 
 === bvk cell = 82 has 0.000 % of the basis function pairs === 
 === bvk cell = 83 has 0.000 % of the basis function pairs === 
 === bvk cell = 84 has 30.207 % of the basis function pairs === 
 === bvk cell = 85 has 28.656 % of the basis function pairs === 
 === bvk cell = 86 has 1.108 % of the basis function pairs === 
 === bvk cell = 87 has 0.000 % of the basis function pairs === 
 === bvk cell = 88 has 0.000 % of the basis function pairs === 
 === bvk cell = 89 has 0.000 % of the basis function pairs === 
 === bvk cell = 90 has 4.357 % of the basis function pairs === 
 === bvk cell = 91 has 92.171 % of the basis function pairs === 
 === bvk cell = 92 has 70.089 % of the basis function pairs === 
[...]
 2.97164 3.26183 3.56260 3.74029 3.89167 3.95739 6.46666 7.12074
 == 313-th k-point (-0.17495,0.52485,0.00000) occupation: 14==
 -64.99251 -64.99251 -4.62140 -4.62134 -3.03229 -3.03228 -3.03197 -3.03185 -3.03153 -3.03152
 -0.04255 0.02782 0.14220 0.15734 0.35930 0.37324 0.50621 0.59852 0.62184 0.69328
 0.74619 0.80166 0.82540 0.86227 0.90946 0.94951 1.01884 1.07007 1.07019 1.08785
 1.16438 1.18217 1.22824 1.29992 1.43947 1.48462 1.54984 1.56272 1.60316 1.62664
 1.73172 1.75806 1.84622 1.85115 1.90923 1.93629 2.00601 2.02834 2.07664 2.10843
 2.17678 2.22341 2.27267 2.32729 2.38103 2.42338 2.46272 2.50215 2.66197 2.76524
 2.91267 3.15360 3.61964 3.77923 3.80193 3.85918 6.60174 6.67563
 == 314-th k-point (-0.08747,0.61232,-0.08747) occupation: 14==
 -64.99252 -64.99249 -4.62137 -4.62136 -3.03229 -3.03228 -3.03193 -3.03188 -3.03155 -3.03151
 -0.01502 -0.00449 0.13966 0.17485 0.31004 0.35669 0.60439 0.61903 0.63379 0.64777
 0.78724 0.80103 0.80210 0.83246 0.92436 0.96274 1.02727 1.06238 1.09482 1.09541
 1.11177 1.17372 1.20349 1.26525 1.41711 1.49572 1.55282 1.55626 1.70728 1.73510
 1.79401 1.79479 1.80106 1.85275 1.87912 1.93117 2.04108 2.05637 2.06357 2.13052
 2.21783 2.22016 2.23857 2.34031 2.36804 2.42806 2.50409 2.54067 2.59098 2.73523
 2.86703 2.94282 3.70810 3.73292 3.86689 3.98663 5.44351 7.35793
 == 315-th k-point (-0.52485,0.00000,0.52485) occupation: 14==
 -64.99252 -64.99249 -4.62137 -4.62136 -3.03229 -3.03228 -3.03193 -3.03188 -3.03155 -3.03151
 -0.01502 -0.00449 0.13966 0.17485 0.31004 0.35669 0.60439 0.61903 0.63379 0.64777
 0.78724 0.80103 0.80210 0.83246 0.92436 0.96274 1.02727 1.06237 1.09482 1.09541
 1.11176 1.17372 1.20349 1.26525 1.41710 1.49572 1.55282 1.55626 1.70716 1.73509
 1.79401 1.79479 1.80105 1.85275 1.87912 1.93117 2.04108 2.05633 2.06357 2.13052
 2.21783 2.21952 2.23857 2.34030 2.36804 2.42806 2.50297 2.54067 2.59095 2.73498
 2.86703 2.94282 3.70811 3.73291 3.86687 3.98646 5.44351 7.35775
 == 316-th k-point (-0.43737,0.08747,0.43737) occupation: 14==
 -64.99252 -64.99249 -4.62140 -4.62133 -3.03229 -3.03228 -3.03201 -3.03180 -3.03155 -3.03151
 -0.04504 0.02395 0.12487 0.19267 0.33144 0.46181 0.51149 0.51303 0.61362 0.62046
 0.78146 0.80052 0.80820 0.94042 0.94107 0.95890 0.96992 1.03774 1.08113 1.14220
 1.21113 1.21114 1.22973 1.38996 1.40674 1.43955 1.45860 1.52803 1.63234 1.66254
 1.75341 1.78008 1.81830 1.83721 1.86624 1.91964 1.97684 1.99032 2.08481 2.15024
 2.16794 2.29064 2.29282 2.38044 2.40487 2.41264 2.43974 2.54653 2.55862 2.72236
 3.03232 3.12461 3.62923 3.67359 3.91379 3.93888 5.68582 7.51869
 == 317-th k-point (-0.34990,0.17495,0.34990) occupation: 14==
 -64.99252 -64.99249 -4.62143 -4.62130 -3.03227 -3.03227 -3.03210 -3.03172 -3.03157 -3.03154
 -0.07068 0.02472 0.17738 0.21951 0.36074 0.41606 0.43162 0.57969 0.60351 0.62033
 0.69445 0.77797 0.79227 0.80945 0.96848 1.04128 1.06766 1.07186 1.11878 1.15383
 1.25589 1.27670 1.34894 1.35165 1.41527 1.43899 1.44497 1.56049 1.57675 1.60556
 1.66923 1.69602 1.83065 1.83367 1.90192 1.93774 1.94479 2.03548 2.07102 2.16246
 2.24534 2.27316 2.33497 2.37202 2.42429 2.45067 2.49390 2.52441 2.53785 2.60583
 3.17318 3.37356 3.56138 3.63256 4.02719 4.07860 5.94439 7.53872
 == 318-th k-point (-0.26242,0.26242,0.26242) occupation: 14==
 -64.99253 -64.99245 -4.62144 -4.62129 -3.03227 -3.03227 -3.03214 -3.03166 -3.03158 -3.03158
 -0.08759 0.03295 0.23227 0.23227 0.33628 0.40343 0.40343 0.56931 0.63730 0.63730
 0.67183 0.75341 0.75341 0.78854 0.94834 1.05401 1.05401 1.11479 1.19844 1.19844
 1.21581 1.30186 1.30186 1.38113 1.38114 1.41859 1.54095 1.54095 1.56864 1.57002
 1.57002 1.67620 1.87245 1.91684 1.93261 1.93262 2.00158 2.02287 2.02287 2.16635
 2.29460 2.29462 2.39550 2.41247 2.41252 2.47043 2.47045 2.48647 2.48648 2.54631
 3.42273 3.47840 3.47840 3.66880 3.75872 4.08896 4.08896 8.07172
 == 319-th k-point (-0.17495,0.34990,0.17495) occupation: 14==
 -64.99253 -64.99249 -4.62144 -4.62129 -3.03228 -3.03228 -3.03211 -3.03171 -3.03157 -3.03155
 -0.09142 0.05678 0.19279 0.21220 0.35684 0.41934 0.44632 0.49281 0.63329 0.66664
 0.68486 0.73982 0.76791 0.86807 0.94217 0.96175 1.02286 1.10212 1.13386 1.19271
 1.21364 1.33083 1.33144 1.40559 1.41292 1.46268 1.49509 1.54700 1.55091 1.60708
 1.63296 1.75220 1.79462 1.81899 1.88320 1.98129 1.99014 2.01758 2.07877 2.14007
 2.23176 2.26037 2.27711 2.33242 2.41547 2.42015 2.46489 2.51701 2.55814 2.64401
 3.34504 3.48484 3.58131 3.79348 4.01381 4.03872 5.64750 8.16526
 == 320-th k-point (-0.08747,0.43737,0.08747) occupation: 14==
 -64.99252 -64.99249 -4.62143 -4.62131 -3.03230 -3.03229 -3.03204 -3.03178 -3.03155 -3.03153
 -0.07904 0.06767 0.16007 0.18642 0.32232 0.37778 0.52332 0.53027 0.69042 0.69696
 0.71167 0.73958 0.81375 0.84077 0.90527 0.96197 0.96691 1.01981 1.12534 1.16056
 1.23818 1.24859 1.25983 1.38895 1.39823 1.44641 1.55777 1.58639 1.64944 1.67621
 1.71969 1.73708 1.79073 1.82343 1.84907 1.95622 2.02580 2.05056 2.08240 2.08748
 2.14926 2.24573 2.25704 2.32165 2.36161 2.37439 2.43075 2.52881 2.54419 2.79406
 3.25744 3.43306 3.51513 3.83167 3.95357 4.08830 5.64394 7.69884
 == 321-th k-point (0.00000,0.52485,0.00000) occupation: 14==
 -64.99249 -64.99249 -4.62140 -4.62133 -3.03229 -3.03229 -3.03197 -3.03185 -3.03155 -3.03155
 -0.05017 0.03096 0.17257 0.17257 0.29872 0.31814 0.61406 0.61406 0.70405 0.71416
 0.73418 0.73418 0.78380 0.80705 0.93769 0.97783 0.97783 0.99983 1.13578 1.13579
 1.15092 1.17224 1.24411 1.31110 1.41537 1.41537 1.63762 1.63763 1.69492 1.73961
 1.76546 1.76899 1.82657 1.86445 1.86445 1.93770 1.99130 1.99156 2.14994 2.15156
 2.18539 2.18543 2.28598 2.30304 2.30309 2.35698 2.51692 2.57531 2.57559 2.84138
 3.13769 3.13806 3.68139 3.93336 4.18453 4.18483 5.37062 5.60580
 == 322-th k-point (-0.43737,-0.08747,0.61232) occupation: 14==
 -64.99251 -64.99251 -4.62140 -4.62134 -3.03229 -3.03228 -3.03197 -3.03185 -3.03153 -3.03152
 -0.04255 0.02782 0.14220 0.15734 0.35930 0.37324 0.50621 0.59852 0.62184 0.69328
 0.74619 0.80166 0.82540 0.86227 0.90946 0.94951 1.01883 1.07007 1.07019 1.08785
 1.16438 1.18217 1.22824 1.29990 1.43947 1.48462 1.54984 1.56271 1.60314 1.62661
 1.73172 1.75806 1.84622 1.85112 1.90923 1.93626 2.00599 2.02833 2.07664 2.10843
 2.17677 2.22341 2.27264 2.32729 2.38101 2.42338 2.46269 2.50210 2.66175 2.76517
 2.91267 3.15353 3.61964 3.77922 3.80192 3.85916 6.60164 6.67553
 == 323-th k-point (-0.34990,0.00000,0.52485) occupation: 14==
 -64.99251 -64.99251 -4.62139 -4.62135 -3.03230 -3.03229 -3.03197 -3.03185 -3.03153 -3.03151
 -0.02631 0.01312 0.11853 0.16079 0.37901 0.45822 0.48635 0.49259 0.61672 0.66278
 0.77260 0.81994 0.84983 0.89894 0.94564 0.97067 0.99287 1.00232 1.06186 1.10043
 1.14230 1.21729 1.29664 1.31882 1.39317 1.41465 1.52145 1.54972 1.55132 1.57064
 1.77255 1.79029 1.84161 1.84340 1.93455 1.95604 1.99824 2.00395 2.05226 2.14565
 2.19495 2.21917 2.26962 2.33872 2.38407 2.44349 2.48023 2.55130 2.62273 2.71392
 2.97208 3.08243 3.67083 3.69671 3.79069 3.80205 6.29617 6.74065
 == 324-th k-point (-0.26242,0.08747,0.43737) occupation: 14==
 -64.99252 -64.99251 -4.62142 -4.62132 -3.03228 -3.03228 -3.03205 -3.03177 -3.03155 -3.03152
 -0.06241 0.03909 0.13924 0.18927 0.39126 0.40680 0.48080 0.52372 0.58803 0.65385
 0.73521 0.78015 0.82824 0.87961 0.93851 0.97451 1.01309 1.06031 1.09121 1.16070
 1.19554 1.21776 1.29861 1.37507 1.43592 1.44874 1.48018 1.53678 1.57942 1.63243
 1.67522 1.75567 1.79369 1.84088 1.90721 1.92926 1.93995 2.01884 2.08295 2.15011
 2.19016 2.22582 2.27159 2.36212 2.41740 2.45177 2.46760 2.51992 2.59810 2.71700
 2.97164 3.26183 3.56260 3.74029 3.89167 3.95739 6.46666 7.12074
 == 325-th k-point (-0.17495,0.17495,0.34990) occupation: 14==
 -64.99253 -64.99249 -4.62144 -4.62129 -3.03228 -3.03228 -3.03211 -3.03171 -3.03157 -3.03155
 -0.09142 0.05678 0.19279 0.21220 0.35684 0.41934 0.44632 0.49281 0.63329 0.66664
 0.68486 0.73982 0.76791 0.86807 0.94217 0.96175 1.02286 1.10212 1.13386 1.19271
 1.21364 1.33083 1.33144 1.40559 1.41292 1.46268 1.49509 1.54700 1.55091 1.60708
 1.63296 1.75220 1.79462 1.81899 1.88320 1.98129 1.99014 2.01758 2.07877 2.14007
 2.23176 2.26037 2.27711 2.33242 2.41547 2.42015 2.46489 2.51701 2.55814 2.64401
 3.34504 3.48484 3.58131 3.79348 4.01381 4.03872 5.64750 8.16526
 == 326-th k-point (-0.08747,0.26242,0.26242) occupation: 14==
 -64.99253 -64.99251 -4.62145 -4.62128 -3.03227 -3.03226 -3.03213 -3.03169 -3.03158 -3.03156
 -0.10503 0.08196 0.17745 0.23871 0.37562 0.42196 0.42345 0.52334 0.53452 0.64455
 0.69797 0.73672 0.80655 0.89178 0.89584 0.94296 1.02930 1.13194 1.15824 1.18359
 1.23751 1.27728 1.35494 1.41036 1.42895 1.45498 1.52485 1.55613 1.55754 1.63333
 1.64062 1.77296 1.78093 1.80168 1.89261 1.91414 1.98259 2.04269 2.04685 2.12221
 2.20196 2.20261 2.30740 2.32316 2.38820 2.41595 2.50037 2.52306 2.61076 2.61283
 3.03715 3.47075 3.54015 3.91071 3.98728 4.06880 6.68738 7.78931
 == 327-th k-point (0.00000,0.34990,0.17495) occupation: 14==
 -64.99252 -64.99251 -4.62145 -4.62129 -3.03228 -3.03227 -3.03210 -3.03173 -3.03157 -3.03155
 -0.10092 0.09584 0.16023 0.20929 0.37276 0.42016 0.43120 0.50584 0.58902 0.68489
 0.70496 0.74894 0.79437 0.87119 0.87458 0.98328 0.99574 1.08668 1.09008 1.23419
 1.23824 1.26885 1.32584 1.39877 1.42353 1.47490 1.53746 1.54879 1.60637 1.66186
 1.68986 1.70827 1.73984 1.86218 1.91626 1.94780 1.96158 2.01009 2.05532 2.14178
 2.15357 2.20522 2.22182 2.32791 2.34462 2.38433 2.42353 2.50429 2.61258 2.74678
 3.04972 3.46216 3.49834 3.90156 3.96639 4.02304 6.99745 7.32047
 == 328-th k-point (0.08747,0.43737,0.08747) occupation: 14==
 -64.99252 -64.99249 -4.62143 -4.62131 -3.03230 -3.03229 -3.03204 -3.03178 -3.03155 -3.03153
 -0.07904 0.06767 0.16007 0.18642 0.32232 0.37778 0.52332 0.53027 0.69042 0.69696
 0.71167 0.73958 0.81375 0.84077 0.90527 0.96197 0.96691 1.01981 1.12534 1.16056
 1.23817 1.24858 1.25983 1.38895 1.39823 1.44641 1.55777 1.58639 1.64944 1.67614
 1.71969 1.73708 1.79072 1.82343 1.84907 1.95620 2.02573 2.05055 2.08240 2.08746
 2.14926 2.24572 2.25703 2.32163 2.36160 2.37439 2.43069 2.52865 2.54408 2.79398
 3.25739 3.43276 3.51514 3.83166 3.95356 4.08821 5.64393 7.69861
 == 329-th k-point (-0.34990,-0.17495,0.69980) occupation: 14==
 -64.99252 -64.99251 -4.62142 -4.62132 -3.03228 -3.03228 -3.03205 -3.03177 -3.03155 -3.03152
 -0.06241 0.03909 0.13924 0.18927 0.39126 0.40680 0.48080 0.52372 0.58803 0.65385
 0.73521 0.78015 0.82824 0.87961 0.93851 0.97451 1.01309 1.06031 1.09121 1.16070
 1.19554 1.21776 1.29861 1.37507 1.43592 1.44871 1.48018 1.53678 1.57943 1.63243
 1.67522 1.75567 1.79368 1.84088 1.90721 1.92925 1.93995 2.01884 2.08294 2.15011
 2.19015 2.22582 2.27159 2.36211 2.41738 2.45177 2.46759 2.51991 2.59803 2.71700
 2.97165 3.26183 3.56260 3.74028 3.89167 3.95739 6.46667 7.12072
 == 330-th k-point (-0.26242,-0.08747,0.61232) occupation: 14==
 -64.99251 -64.99251 -4.62139 -4.62135 -3.03230 -3.03229 -3.03197 -3.03185 -3.03153 -3.03151
 -0.02631 0.01312 0.11853 0.16079 0.37901 0.45822 0.48635 0.49259 0.61672 0.66278
 0.77260 0.81994 0.84983 0.89894 0.94564 0.97067 0.99287 1.00232 1.06186 1.10043
 1.14230 1.21729 1.29664 1.31882 1.39317 1.41466 1.52144 1.54972 1.55132 1.57064
 1.77255 1.79029 1.84161 1.84341 1.93455 1.95604 1.99825 2.00395 2.05226 2.14565
 2.19495 2.21917 2.26962 2.33871 2.38406 2.44350 2.48022 2.55131 2.62270 2.71397
 2.97208 3.08244 3.67083 3.69671 3.79069 3.80205 6.29616 6.74065
 == 331-th k-point (-0.17495,0.00000,0.52485) occupation: 14==
 -64.99251 -64.99251 -4.62140 -4.62134 -3.03229 -3.03228 -3.03197 -3.03185 -3.03153 -3.03152
 -0.04255 0.02782 0.14220 0.15734 0.35930 0.37324 0.50621 0.59852 0.62184 0.69328
 0.74619 0.80166 0.82540 0.86227 0.90946 0.94951 1.01884 1.07007 1.07019 1.08785
 1.16438 1.18217 1.22824 1.29992 1.43947 1.48462 1.54984 1.56272 1.60316 1.62664
 1.73172 1.75806 1.84622 1.85115 1.90923 1.93629 2.00601 2.02834 2.07664 2.10843
 2.17678 2.22341 2.27267 2.32729 2.38103 2.42338 2.46272 2.50215 2.66197 2.76524
 2.91267 3.15360 3.61964 3.77923 3.80193 3.85918 6.60174 6.67563
 == 332-th k-point (-0.08747,0.08747,0.43737) occupation: 14==
 -64.99252 -64.99249 -4.62143 -4.62131 -3.03230 -3.03229 -3.03204 -3.03178 -3.03155 -3.03153
 -0.07904 0.06767 0.16007 0.18642 0.32232 0.37778 0.52332 0.53027 0.69042 0.69696
 0.71167 0.73958 0.81375 0.84077 0.90527 0.96197 0.96691 1.01981 1.12534 1.16056
 1.23818 1.24859 1.25983 1.38895 1.39823 1.44641 1.55777 1.58639 1.64944 1.67621
 1.71969 1.73708 1.79073 1.82343 1.84907 1.95622 2.02580 2.05056 2.08240 2.08748
 2.14926 2.24573 2.25704 2.32165 2.36161 2.37439 2.43075 2.52881 2.54419 2.79406
 3.25744 3.43306 3.51513 3.83167 3.95357 4.08830 5.64394 7.69884
 == 333-th k-point (0.00000,0.17495,0.34990) occupation: 14==
 -64.99252 -64.99251 -4.62145 -4.62129 -3.03228 -3.03227 -3.03210 -3.03173 -3.03157 -3.03155
 -0.10092 0.09584 0.16023 0.20929 0.37276 0.42016 0.43120 0.50584 0.58902 0.68489
 0.70496 0.74894 0.79437 0.87119 0.87458 0.98328 0.99574 1.08668 1.09008 1.23419
 1.23824 1.26885 1.32584 1.39877 1.42353 1.47490 1.53746 1.54879 1.60637 1.66186
 1.68986 1.70827 1.73984 1.86218 1.91626 1.94780 1.96158 2.01009 2.05532 2.14178
 2.15357 2.20522 2.22182 2.32791 2.34462 2.38433 2.42353 2.50429 2.61258 2.74678
 3.04972 3.46216 3.49834 3.90156 3.96639 4.02304 6.99745 7.32047
 == 334-th k-point (0.08747,0.26242,0.26242) occupation: 14==
 -64.99253 -64.99251 -4.62145 -4.62128 -3.03227 -3.03226 -3.03213 -3.03169 -3.03158 -3.03156
 -0.10503 0.08196 0.17745 0.23871 0.37562 0.42196 0.42345 0.52334 0.53452 0.64455
 0.69797 0.73672 0.80655 0.89178 0.89584 0.94296 1.02930 1.13194 1.15824 1.18359
 1.23751 1.27728 1.35494 1.41036 1.42895 1.45498 1.52485 1.55613 1.55754 1.63333
 1.64062 1.77295 1.78093 1.80167 1.89261 1.91413 1.98258 2.04269 2.04685 2.12220
 2.20196 2.20261 2.30738 2.32313 2.38820 2.41595 2.50037 2.52306 2.61075 2.61282
 3.03715 3.47075 3.54015 3.91071 3.98728 4.06878 6.68720 7.78929
 == 335-th k-point (0.17495,0.34990,0.17495) occupation: 14==
 -64.99253 -64.99249 -4.62144 -4.62129 -3.03228 -3.03228 -3.03211 -3.03171 -3.03157 -3.03155
 -0.09142 0.05678 0.19279 0.21220 0.35684 0.41934 0.44632 0.49281 0.63329 0.66664
 0.68486 0.73982 0.76791 0.86807 0.94217 0.96175 1.02286 1.10212 1.13386 1.19270
 1.21364 1.33083 1.33144 1.40559 1.41291 1.46267 1.49509 1.54700 1.55091 1.60708
 1.63294 1.75220 1.79462 1.81898 1.88320 1.98129 1.99014 2.01758 2.07875 2.14006
 2.23177 2.26033 2.27709 2.33241 2.41547 2.42014 2.46489 2.51690 2.55811 2.64399
 3.34504 3.48484 3.58116 3.79346 4.01381 4.03872 5.64747 8.16520
 == 336-th k-point (-0.26242,-0.26242,0.78727) occupation: 14==
 -64.99252 -64.99249 -4.62143 -4.62130 -3.03227 -3.03227 -3.03210 -3.03172 -3.03157 -3.03154
 -0.07068 0.02472 0.17738 0.21951 0.36074 0.41606 0.43162 0.57969 0.60351 0.62033
 0.69445 0.77797 0.79227 0.80945 0.96848 1.04128 1.06766 1.07186 1.11878 1.15383
 1.25589 1.27671 1.34894 1.35165 1.41527 1.43900 1.44498 1.56049 1.57676 1.60555
 1.66923 1.69604 1.83065 1.83366 1.90192 1.93774 1.94479 2.03549 2.07102 2.16245
 2.24534 2.27317 2.33497 2.37203 2.42424 2.45066 2.49390 2.52440 2.53784 2.60585
 3.17318 3.37354 3.56138 3.63256 4.02719 4.07860 5.94443 7.53870
 == 337-th k-point (-0.17495,-0.17495,0.69980) occupation: 14==
 -64.99252 -64.99249 -4.62140 -4.62133 -3.03229 -3.03228 -3.03201 -3.03180 -3.03155 -3.03151
 -0.04504 0.02395 0.12487 0.19267 0.33144 0.46181 0.51149 0.51303 0.61362 0.62046
 0.78146 0.80052 0.80820 0.94042 0.94107 0.95890 0.96992 1.03774 1.08113 1.14220
 1.21114 1.21114 1.22974 1.38997 1.40674 1.43955 1.45860 1.52803 1.63237 1.66255
 1.75341 1.78008 1.81831 1.83722 1.86624 1.91964 1.97684 1.99033 2.08481 2.15027
 2.16794 2.29064 2.29284 2.38044 2.40493 2.41264 2.43983 2.54656 2.55861 2.72245
 3.03233 3.12465 3.62924 3.67359 3.91379 3.93888 5.68582 7.51873
 == 338-th k-point (-0.08747,-0.08747,0.61232) occupation: 14==
 -64.99252 -64.99249 -4.62137 -4.62136 -3.03229 -3.03228 -3.03193 -3.03188 -3.03155 -3.03151
 -0.01502 -0.00449 0.13966 0.17485 0.31004 0.35669 0.60439 0.61903 0.63379 0.64777
 0.78724 0.80103 0.80210 0.83246 0.92436 0.96274 1.02727 1.06238 1.09482 1.09541
 1.11177 1.17372 1.20349 1.26525 1.41711 1.49572 1.55282 1.55626 1.70728 1.73510
 1.79401 1.79479 1.80106 1.85275 1.87912 1.93117 2.04108 2.05637 2.06357 2.13052
 2.21783 2.22016 2.23857 2.34031 2.36804 2.42806 2.50409 2.54067 2.59098 2.73523
 2.86703 2.94282 3.70810 3.73292 3.86689 3.98663 5.44351 7.35793
 == 339-th k-point (0.00000,0.00000,0.52485) occupation: 14==
 -64.99249 -64.99249 -4.62140 -4.62133 -3.03229 -3.03229 -3.03197 -3.03185 -3.03155 -3.03155
 -0.05017 0.03096 0.17257 0.17257 0.29872 0.31814 0.61406 0.61406 0.70405 0.71416
 0.73418 0.73418 0.78380 0.80705 0.93769 0.97783 0.97783 0.99983 1.13578 1.13579
 1.15092 1.17224 1.24411 1.31110 1.41537 1.41537 1.63762 1.63763 1.69492 1.73961
 1.76546 1.76899 1.82657 1.86445 1.86445 1.93770 1.99130 1.99156 2.14994 2.15156
 2.18539 2.18543 2.28598 2.30304 2.30309 2.35698 2.51692 2.57531 2.57559 2.84138
 3.13769 3.13806 3.68139 3.93336 4.18453 4.18483 5.37062 5.60580
 == 340-th k-point (0.08747,0.08747,0.43737) occupation: 14==
 -64.99252 -64.99249 -4.62143 -4.62131 -3.03230 -3.03229 -3.03204 -3.03178 -3.03155 -3.03153
 -0.07904 0.06767 0.16007 0.18642 0.32232 0.37778 0.52332 0.53027 0.69042 0.69696
 0.71167 0.73958 0.81375 0.84077 0.90527 0.96197 0.96691 1.01981 1.12534 1.16056
 1.23817 1.24858 1.25983 1.38895 1.39823 1.44641 1.55777 1.58639 1.64944 1.67614
 1.71969 1.73708 1.79072 1.82343 1.84907 1.95620 2.02573 2.05055 2.08240 2.08746
 2.14926 2.24572 2.25703 2.32163 2.36160 2.37439 2.43069 2.52865 2.54408 2.79398
 3.25739 3.43276 3.51514 3.83166 3.95356 4.08821 5.64393 7.69861
 == 341-th k-point (0.17495,0.17495,0.34990) occupation: 14==
 -64.99253 -64.99249 -4.62144 -4.62129 -3.03228 -3.03228 -3.03211 -3.03171 -3.03157 -3.03155
 -0.09142 0.05678 0.19279 0.21220 0.35684 0.41934 0.44632 0.49281 0.63329 0.66664
 0.68486 0.73982 0.76791 0.86807 0.94217 0.96175 1.02286 1.10212 1.13386 1.19270
 1.21364 1.33083 1.33144 1.40559 1.41291 1.46267 1.49509 1.54700 1.55091 1.60708
 1.63294 1.75220 1.79462 1.81898 1.88320 1.98129 1.99014 2.01758 2.07875 2.14006
 2.23177 2.26033 2.27709 2.33241 2.41547 2.42014 2.46489 2.51690 2.55811 2.64399
 3.34504 3.48484 3.58116 3.79346 4.01381 4.03872 5.64747 8.16520
 == 342-th k-point (0.26242,0.26242,0.26242) occupation: 14==
 -64.99253 -64.99245 -4.62144 -4.62129 -3.03227 -3.03227 -3.03214 -3.03166 -3.03158 -3.03158
 -0.08759 0.03295 0.23227 0.23227 0.33628 0.40343 0.40343 0.56931 0.63730 0.63730
 0.67183 0.75341 0.75341 0.78854 0.94834 1.05401 1.05401 1.11479 1.19844 1.19844
 1.21581 1.30186 1.30186 1.38113 1.38113 1.41859 1.54095 1.54095 1.56864 1.57002
 1.57002 1.67620 1.87245 1.91684 1.93262 1.93262 2.00158 2.02287 2.02287 2.16635
 2.29460 2.29460 2.39546 2.41247 2.41247 2.47043 2.47043 2.48647 2.48647 2.54632
 3.42273 3.47840 3.47840 3.66880 3.75870 4.08896 4.08896 8.07167
 ---------------------------------------------------------------------------
 VBM is at 171-th k-point with 7.51485 eV
 CBM is at 21-th k-point with 8.12854 eV
 Band gap is 0.61370 eV


           Ground-State Mulliken Net Atomic Charges

      Atom                 Charge (a.u.)          Spin (a.u.)
   --------------------------------------------------------
      1 Si              (-0.000000,-0.000000)    (0.000000,0.000000)
      2 Si                (0.000000,0.000000)    (0.000000,0.000000)
   --------------------------------------------------------
  Sum of atomic charges =      (-0.000000,0.000000)
  Sum of spin   charges =       (0.000000,0.000000)



 Total job time:  126.98 s.
 Tue Sep  9 09:27:42 2025


        *************************************************************
        *                                                           *
        *  Thank you very much for using QCPBC. Have a nice day.    *
        *                                                           *
        *************************************************************

Running job 1 of 1
