                  Welcome to Q-Chem
           with Periodic Boundary Condition
     A Quantum Leap Into The Future Of Chemistry

 Adam Rettig, Xintian Feng, Meng-Fu Chen, Hieu Dinh, Stephen Quiton,
 Anton Ni, Paul J. Robinson, Jinghong Zhang, Joonho Lee

Contributors to earlier versions of Q-Chem not listed above:
 Evgeny Epifanovsky, Leo Cunha, Jerome F. Gonthier, Kuan-Yu Liu
 Input file: /n/netscratch/joonholee_lab/Lab/hieudinh//si_2_ccpvtz_omega_0.3_111111.scratch20250909101246/si_2_ccpvtz_omega_0.3_111111.0
 Scratch folder: /n/netscratch/joonholee_lab/Lab/hieudinh//si_2_ccpvtz_omega_0.3_111111.scratch20250909101246
 Auxillary files located at: /n/holylabs/LABS/joonholee_lab/Lab/qchem_base/qcaux
 Q-Chem begins on Tue Sep  9 10:12:47 2025

 -------------------------------------------------------------
 User input:
 -------------------------------------------------------------
 $lattice
 3
 0.000000 5.130600 5.130600
 5.130600 0.000000 5.130600
 5.130600 5.130600 0.000000
 $end
 
 $unitcell
 ABSOLUTE
 0 1
 Si 0.000000 0.000000 0.000000
 Si 2.565300 2.565300 2.565300
 $end
 
 $rem
 jobtype = sp
 method = pbe
 scf_convergence = 5
 scf_guess = autosad
 scf_algorithm = diis_gdm
 basis = cc-pvtz
 aux_basis = cc-pvtz-jk
 input_bohr = true
 symmetry = false
 rsdf_print_level 1
 is_basis_uctr true
 
 mp_mesh = [11,11,11]
 
 integral_direct true
 bvk_cgto true
 
 thresh 14
 mem_total 1000000
 threads 32
 
 MAX_SCF_CYCLES 500
 madelung = false
 omega 0.3
 do_rij_bigmem true
 automate_g true
 print_level 10
 grid_type_xc 1
 
 thresh_1e2c_sp 1e-14
 thresh_2e3c_bra_ket_sep 1e-10
 thresh_g 1e-12
 $end
 
 -------------------------------------------------------------
 Running PBC job

 Requested Exchange Correlation Functionals: 
  DFT Exchange:  1.00000 pbe_x
  DFT Correlation:  1.00000 pbe_c
 using 32 threads for computing.
 ---------------------------------------------------------------
      Coordinates of Atoms in Central Unit Cell (Angstroms)
    I     Atom         X            Y            Z
 ---------------------------------------------------------------
    1      Si      0.000000     0.000000     0.000000
    2      Si      1.357498     1.357498     1.357498
 ---------------------------------------------------------------
 --------------------------------------------------
              Lattice Vectors (Angstroms)
              X            Y            Z
 --------------------------------------------------
   X       0.000000     2.714997     2.714997
   Y       2.714997     0.000000     2.714997
   Z       2.714997     2.714997     0.000000
 --------------------------------------------------
 --------------------------------------------------
       Reciprocal Lattice Vectors (Angstroms^-1)
              X            Y            Z
 --------------------------------------------------
   X      -1.157126     1.157126     1.157126
   Y       1.157126    -1.157126     1.157126
   Z       1.157126     1.157126    -1.157126
 --------------------------------------------------

 Single point calculation requested

 Hamiltonian contributions:
 List of terms in Hamiltonian: kpts_nn, kpts_kinetic, kpts_vnuc_df, kpts_xc, kpts_rij_bigmem

 K-Points calculation started.

 Basis set information about using solid harmonic (1) or Cartesian (0):
  si : D(1) D(1) F(1) 

 Basis set information about using solid harmonic (1) or Cartesian (0):
  si : D(1) D(1) D(1) D(1) D(1) D(1) D(1) D(1) D(1) F(1) F(1) F(1) G(1) 

 There are 68 basis functions in the central unit cell.
 Print atomic basis of atoms in the central unit cell:
 -------------------------------------------------------------
2 104 104 24

  0.00000000000000e+00  0.00000000000000e+00  0.00000000000000e+00
  2.56530000000000e+00  2.56530000000000e+00  2.56530000000000e+00

  2.54900000000000e+05
  3.81900000000000e+04
  8.69000000000000e+03
  2.46200000000000e+03
  8.04800000000000e+02
  2.91300000000000e+02
  1.13600000000000e+02
  4.67500000000000e+01
  1.98200000000000e+01
  7.70800000000000e+00
  3.34000000000000e+00
  2.54900000000000e+05
  3.81900000000000e+04
  8.69000000000000e+03
  8.04800000000000e+02
  2.91300000000000e+02
  1.13600000000000e+02
  4.67500000000000e+01
  1.98200000000000e+01
  7.70800000000000e+00
  3.34000000000000e+00
  1.40200000000000e+00
  2.54900000000000e+05
  3.81900000000000e+04
  8.69000000000000e+03
  2.91300000000000e+02
  1.13600000000000e+02
  4.67500000000000e+01
  1.98200000000000e+01
  7.70800000000000e+00
  3.34000000000000e+00
  1.40200000000000e+00
  2.07000000000000e-01
  4.38700000000000e-01
  7.94400000000000e-02
  4.81500000000000e+02
  1.13900000000000e+02
  3.62300000000000e+01
  1.33400000000000e+01
  5.25200000000000e+00
  2.12000000000000e+00
  1.13900000000000e+02
  3.62300000000000e+01
  1.33400000000000e+01
  5.25200000000000e+00
  2.12000000000000e+00
  2.52800000000000e-01
  8.56100000000000e-01
  7.88900000000000e-02
  4.81000000000000e-01
  1.59000000000000e-01
  3.36000000000000e-01
  2.54900000000000e+05
  3.81900000000000e+04
  8.69000000000000e+03
  2.46200000000000e+03
  8.04800000000000e+02
  2.91300000000000e+02
  1.13600000000000e+02
  4.67500000000000e+01
  1.98200000000000e+01
  7.70800000000000e+00
  3.34000000000000e+00
  2.54900000000000e+05
  3.81900000000000e+04
  8.69000000000000e+03
  8.04800000000000e+02
  2.91300000000000e+02
  1.13600000000000e+02
  4.67500000000000e+01
  1.98200000000000e+01
  7.70800000000000e+00
  3.34000000000000e+00
  1.40200000000000e+00
  2.54900000000000e+05
  3.81900000000000e+04
  8.69000000000000e+03
  2.91300000000000e+02
  1.13600000000000e+02
  4.67500000000000e+01
  1.98200000000000e+01
  7.70800000000000e+00
  3.34000000000000e+00
  1.40200000000000e+00
  2.07000000000000e-01
  4.38700000000000e-01
  7.94400000000000e-02
  4.81500000000000e+02
  1.13900000000000e+02
  3.62300000000000e+01
  1.33400000000000e+01
  5.25200000000000e+00
  2.12000000000000e+00
  1.13900000000000e+02
  3.62300000000000e+01
  1.33400000000000e+01
  5.25200000000000e+00
  2.12000000000000e+00
  2.52800000000000e-01
  8.56100000000000e-01
  7.88900000000000e-02
  4.81000000000000e-01
  1.59000000000000e-01
  3.36000000000000e-01

  5.06121931014315e-01
  9.46667895564849e-01
  1.63484840115776e+00
  2.64073594005923e+00
  3.97699155153283e+00
  5.40905960736848e+00
  6.15868961670172e+00
  4.99170532032548e+00
  2.02857976424901e+00
  1.82839763527352e-01
 -1.25640690342342e-02
  1.10808750449959e-03
  1.94415577975663e-03
  2.70023730632789e-03
 -1.69098200112149e-02
 -8.66890848691569e-02
 -2.76125946359713e-01
 -6.25588788447604e-01
 -6.61701688370681e-01
  3.11114524237060e-01
  9.56658906468163e-01
  4.36891217824705e-01
  1.05873342256663e-04
  1.52975802748887e-04
  4.28394863673135e-04
 -4.94070443505333e-03
 -1.17298035021286e-02
 -2.95023896611804e-02
 -1.71455066569284e-02
  3.00007138114875e-03
 -6.19326651465540e-02
 -2.59989143457351e-01
  2.47187614608056e-01
  3.84180942836044e-01
  1.06644759418552e-01
  6.70509611941243e+00
  8.84487660481054e+00
  9.82415782069442e+00
  8.40902910540583e+00
  4.80448757555754e+00
  1.55989499299286e+00
 -1.15889775037608e-01
 -5.13312293701512e-02
 -2.64771097977823e-01
 -6.52512718105956e-02
 -1.94608613796415e-01
  2.59380435893970e-01
  1.17380433533106e+00
  5.95960578383022e-02
  4.57260134599596e-01
  6.58952976069849e-02
  1.26537084505476e-01
  5.06121931014315e-01
  9.46667895564849e-01
  1.63484840115776e+00
  2.64073594005923e+00
  3.97699155153283e+00
  5.40905960736848e+00
  6.15868961670172e+00
  4.99170532032548e+00
  2.02857976424901e+00
  1.82839763527352e-01
 -1.25640690342342e-02
  1.10808750449959e-03
  1.94415577975663e-03
  2.70023730632789e-03
 -1.69098200112149e-02
 -8.66890848691569e-02
 -2.76125946359713e-01
 -6.25588788447604e-01
 -6.61701688370681e-01
  3.11114524237060e-01
  9.56658906468163e-01
  4.36891217824705e-01
  1.05873342256663e-04
  1.52975802748887e-04
  4.28394863673135e-04
 -4.94070443505333e-03
 -1.17298035021286e-02
 -2.95023896611804e-02
 -1.71455066569284e-02
  3.00007138114875e-03
 -6.19326651465540e-02
 -2.59989143457351e-01
  2.47187614608056e-01
  3.84180942836044e-01
  1.06644759418552e-01
  6.70509611941243e+00
  8.84487660481054e+00
  9.82415782069442e+00
  8.40902910540583e+00
  4.80448757555754e+00
  1.55989499299286e+00
 -1.15889775037608e-01
 -5.13312293701512e-02
 -2.64771097977823e-01
 -6.52512718105956e-02
 -1.94608613796415e-01
  2.59380435893970e-01
  1.17380433533106e+00
  5.95960578383022e-02
  4.57260134599596e-01
  6.58952976069849e-02
  1.26537084505476e-01

0 0 0 0 1 1 1
0 0 
11 0

0 1 1 11 1 1 1
11 0 
11 0

0 2 2 22 1 1 1
22 0 
11 0

0 3 3 33 1 1 1
33 0 
1 0

0 4 4 34 1 1 1
34 0 
1 0

0 5 5 35 1 3 3
35 1 
6 0

0 8 8 41 1 3 3
41 1 
6 0

0 11 11 47 1 3 3
47 1 
1 0

0 14 14 48 1 3 3
48 1 
1 0

0 17 17 49 1 5 6
49 2 
1 1

0 22 22 50 1 5 6
50 2 
1 1

0 27 27 51 1 7 10
51 3 
1 1

1 34 34 52 1 1 1
52 0 
11 0

1 35 35 63 1 1 1
63 0 
11 0

1 36 36 74 1 1 1
74 0 
11 0

1 37 37 85 1 1 1
85 0 
1 0

1 38 38 86 1 1 1
86 0 
1 0

1 39 39 87 1 3 3
87 1 
6 0

1 42 42 93 1 3 3
93 1 
6 0

1 45 45 99 1 3 3
99 1 
1 0

1 48 48 100 1 3 3
100 1 
1 0

1 51 51 101 1 5 6
101 2 
1 1

1 56 56 102 1 5 6
102 2 
1 1

1 61 61 103 1 7 10
103 3 
1 1

 -------------------------------------------------------------
 Allocate 263208 B from available memory: 1048576000000 B
 There are 1331 image cells after screening.
 There are 1353 image cells for CGTO evaluation after screening.
 Real-Space grid for FFT initialized based on kinetic energy cutoff (eV) = 500.0
 Real-Space grid for FFT: (10,10,10)
 There are 9261 real-space grid points.
 There are 64 batches of real-space grid points. 
 Size of each grid batch is around 128
 Grid for AFT initialized based on kinetic energy cutoff (eV) = 500.0
 Real-Space grid for AFT: (10,10,10)
 There are 9261 real-space grid points.

 There are 5456 atom-centered grid points.

 Spacegroup symmetry group: Fd-3m
 Reducing spacegroup symmetry to symmorphic group: F -4 3 m
 Monkhorst-Pack mesh is [11,11,11]
 There are 1331 k points.
kpoints in Bohr
-0.2783293690 -0.2783293690 -0.2783293690
-0.2226634952 -0.2226634952 -0.3339952428
-0.1669976214 -0.1669976214 -0.3896611166
-0.1113317476 -0.1113317476 -0.4453269904
-0.0556658738 -0.0556658738 -0.5009928642
-0.0000000000 -0.0000000000 -0.5566587381
0.0556658738 0.0556658738 -0.6123246119
0.1113317476 0.1113317476 -0.6679904857
0.1669976214 0.1669976214 -0.7236563595
0.2226634952 0.2226634952 -0.7793222333
0.2783293690 0.2783293690 -0.8349881071
-0.2226634952 -0.3339952428 -0.2226634952
-0.1669976214 -0.2783293690 -0.2783293690
-0.1113317476 -0.2226634952 -0.3339952428
-0.0556658738 -0.1669976214 -0.3896611166
-0.0000000000 -0.1113317476 -0.4453269904
0.0556658738 -0.0556658738 -0.5009928642
0.1113317476 -0.0000000000 -0.5566587381
0.1669976214 0.0556658738 -0.6123246119
0.2226634952 0.1113317476 -0.6679904857
0.2783293690 0.1669976214 -0.7236563595
0.3339952428 0.2226634952 -0.7793222333
-0.1669976214 -0.3896611166 -0.1669976214
-0.1113317476 -0.3339952428 -0.2226634952
-0.0556658738 -0.2783293690 -0.2783293690
-0.0000000000 -0.2226634952 -0.3339952428
0.0556658738 -0.1669976214 -0.3896611166
0.1113317476 -0.1113317476 -0.4453269904
0.1669976214 -0.0556658738 -0.5009928642
0.2226634952 -0.0000000000 -0.5566587381
0.2783293690 0.0556658738 -0.6123246119
0.3339952428 0.1113317476 -0.6679904857
0.3896611166 0.1669976214 -0.7236563595
-0.1113317476 -0.4453269904 -0.1113317476
-0.0556658738 -0.3896611166 -0.1669976214
-0.0000000000 -0.3339952428 -0.2226634952
0.0556658738 -0.2783293690 -0.2783293690
0.1113317476 -0.2226634952 -0.3339952428
0.1669976214 -0.1669976214 -0.3896611166
0.2226634952 -0.1113317476 -0.4453269904
0.2783293690 -0.0556658738 -0.5009928642
0.3339952428 0.0000000000 -0.5566587381
0.3896611166 0.0556658738 -0.6123246119
0.4453269904 0.1113317476 -0.6679904857
-0.0556658738 -0.5009928642 -0.0556658738
-0.0000000000 -0.4453269904 -0.1113317476
0.0556658738 -0.3896611166 -0.1669976214
0.1113317476 -0.3339952428 -0.2226634952
0.1669976214 -0.2783293690 -0.2783293690
0.2226634952 -0.2226634952 -0.3339952428
0.2783293690 -0.1669976214 -0.3896611166
0.3339952428 -0.1113317476 -0.4453269904
0.3896611166 -0.0556658738 -0.5009928642
0.4453269904 0.0000000000 -0.5566587381
0.5009928642 0.0556658738 -0.6123246119
-0.0000000000 -0.5566587381 0.0000000000
0.0556658738 -0.5009928642 -0.0556658738
0.1113317476 -0.4453269904 -0.1113317476
0.1669976214 -0.3896611166 -0.1669976214
0.2226634952 -0.3339952428 -0.2226634952
0.2783293690 -0.2783293690 -0.2783293690
0.3339952428 -0.2226634952 -0.3339952428
0.3896611166 -0.1669976214 -0.3896611166
0.4453269904 -0.1113317476 -0.4453269904
0.5009928642 -0.0556658738 -0.5009928642
0.5566587381 0.0000000000 -0.5566587381
0.0556658738 -0.6123246119 0.0556658738
0.1113317476 -0.5566587381 0.0000000000
0.1669976214 -0.5009928642 -0.0556658738
0.2226634952 -0.4453269904 -0.1113317476
0.2783293690 -0.3896611166 -0.1669976214
0.3339952428 -0.3339952428 -0.2226634952
0.3896611166 -0.2783293690 -0.2783293690
0.4453269904 -0.2226634952 -0.3339952428
0.5009928642 -0.1669976214 -0.3896611166
0.5566587381 -0.1113317476 -0.4453269904
0.6123246119 -0.0556658738 -0.5009928642
0.1113317476 -0.6679904857 0.1113317476
0.1669976214 -0.6123246119 0.0556658738
0.2226634952 -0.5566587381 0.0000000000
0.2783293690 -0.5009928642 -0.0556658738
0.3339952428 -0.4453269904 -0.1113317476
0.3896611166 -0.3896611166 -0.1669976214
0.4453269904 -0.3339952428 -0.2226634952
0.5009928642 -0.2783293690 -0.2783293690
0.5566587381 -0.2226634952 -0.3339952428
0.6123246119 -0.1669976214 -0.3896611166
0.6679904857 -0.1113317476 -0.4453269904
0.1669976214 -0.7236563595 0.1669976214
0.2226634952 -0.6679904857 0.1113317476
0.2783293690 -0.6123246119 0.0556658738
0.3339952428 -0.5566587381 0.0000000000
0.3896611166 -0.5009928642 -0.0556658738
0.4453269904 -0.4453269904 -0.1113317476
0.5009928642 -0.3896611166 -0.1669976214
0.5566587381 -0.3339952428 -0.2226634952
0.6123246119 -0.2783293690 -0.2783293690
0.6679904857 -0.2226634952 -0.3339952428
0.7236563595 -0.1669976214 -0.3896611166
0.2226634952 -0.7793222333 0.2226634952
0.2783293690 -0.7236563595 0.1669976214
0.3339952428 -0.6679904857 0.1113317476
0.3896611166 -0.6123246119 0.0556658738
0.4453269904 -0.5566587381 0.0000000000
0.5009928642 -0.5009928642 -0.0556658738
0.5566587381 -0.4453269904 -0.1113317476
0.6123246119 -0.3896611166 -0.1669976214
0.6679904857 -0.3339952428 -0.2226634952
0.7236563595 -0.2783293690 -0.2783293690
0.7793222333 -0.2226634952 -0.3339952428
0.2783293690 -0.8349881071 0.2783293690
0.3339952428 -0.7793222333 0.2226634952
0.3896611166 -0.7236563595 0.1669976214
0.4453269904 -0.6679904857 0.1113317476
0.5009928642 -0.6123246119 0.0556658738
0.5566587381 -0.5566587381 0.0000000000
0.6123246119 -0.5009928642 -0.0556658738
0.6679904857 -0.4453269904 -0.1113317476
0.7236563595 -0.3896611166 -0.1669976214
0.7793222333 -0.3339952428 -0.2226634952
0.8349881071 -0.2783293690 -0.2783293690
-0.3339952428 -0.2226634952 -0.2226634952
-0.2783293690 -0.1669976214 -0.2783293690
-0.2226634952 -0.1113317476 -0.3339952428
-0.1669976214 -0.0556658738 -0.3896611166
-0.1113317476 -0.0000000000 -0.4453269904
-0.0556658738 0.0556658738 -0.5009928642
-0.0000000000 0.1113317476 -0.5566587381
0.0556658738 0.1669976214 -0.6123246119
0.1113317476 0.2226634952 -0.6679904857
0.1669976214 0.2783293690 -0.7236563595
0.2226634952 0.3339952428 -0.7793222333
-0.2783293690 -0.2783293690 -0.1669976214
-0.2226634952 -0.2226634952 -0.2226634952
-0.1669976214 -0.1669976214 -0.2783293690
-0.1113317476 -0.1113317476 -0.3339952428
-0.0556658738 -0.0556658738 -0.3896611166
-0.0000000000 -0.0000000000 -0.4453269904
0.0556658738 0.0556658738 -0.5009928642
0.1113317476 0.1113317476 -0.5566587381
0.1669976214 0.1669976214 -0.6123246119
0.2226634952 0.2226634952 -0.6679904857
0.2783293690 0.2783293690 -0.7236563595
-0.2226634952 -0.3339952428 -0.1113317476
-0.1669976214 -0.2783293690 -0.1669976214
-0.1113317476 -0.2226634952 -0.2226634952
-0.0556658738 -0.1669976214 -0.2783293690
-0.0000000000 -0.1113317476 -0.3339952428
0.0556658738 -0.0556658738 -0.3896611166
0.1113317476 -0.0000000000 -0.4453269904
0.1669976214 0.0556658738 -0.5009928642
0.2226634952 0.1113317476 -0.5566587381
0.2783293690 0.1669976214 -0.6123246119
0.3339952428 0.2226634952 -0.6679904857
-0.1669976214 -0.3896611166 -0.0556658738
-0.1113317476 -0.3339952428 -0.1113317476
-0.0556658738 -0.2783293690 -0.1669976214
-0.0000000000 -0.2226634952 -0.2226634952
0.0556658738 -0.1669976214 -0.2783293690
0.1113317476 -0.1113317476 -0.3339952428
0.1669976214 -0.0556658738 -0.3896611166
0.2226634952 -0.0000000000 -0.4453269904
0.2783293690 0.0556658738 -0.5009928642
0.3339952428 0.1113317476 -0.5566587381
0.3896611166 0.1669976214 -0.6123246119
-0.1113317476 -0.4453269904 0.0000000000
-0.0556658738 -0.3896611166 -0.0556658738
-0.0000000000 -0.3339952428 -0.1113317476
0.0556658738 -0.2783293690 -0.1669976214
0.1113317476 -0.2226634952 -0.2226634952
0.1669976214 -0.1669976214 -0.2783293690
0.2226634952 -0.1113317476 -0.3339952428
0.2783293690 -0.0556658738 -0.3896611166
0.3339952428 -0.0000000000 -0.4453269904
0.3896611166 0.0556658738 -0.5009928642
0.4453269904 0.1113317476 -0.5566587381
-0.0556658738 -0.5009928642 0.0556658738
-0.0000000000 -0.4453269904 0.0000000000
0.0556658738 -0.3896611166 -0.0556658738
0.1113317476 -0.3339952428 -0.1113317476
0.1669976214 -0.2783293690 -0.1669976214
0.2226634952 -0.2226634952 -0.2226634952
0.2783293690 -0.1669976214 -0.2783293690
0.3339952428 -0.1113317476 -0.3339952428
0.3896611166 -0.0556658738 -0.3896611166
0.4453269904 0.0000000000 -0.4453269904
0.5009928642 0.0556658738 -0.5009928642
-0.0000000000 -0.5566587381 0.1113317476
0.0556658738 -0.5009928642 0.0556658738
0.1113317476 -0.4453269904 -0.0000000000
0.1669976214 -0.3896611166 -0.0556658738
0.2226634952 -0.3339952428 -0.1113317476
0.2783293690 -0.2783293690 -0.1669976214
0.3339952428 -0.2226634952 -0.2226634952
0.3896611166 -0.1669976214 -0.2783293690
0.4453269904 -0.1113317476 -0.3339952428
0.5009928642 -0.0556658738 -0.3896611166
0.5566587381 0.0000000000 -0.4453269904
0.0556658738 -0.6123246119 0.1669976214
0.1113317476 -0.5566587381 0.1113317476
0.1669976214 -0.5009928642 0.0556658738
0.2226634952 -0.4453269904 0.0000000000
0.2783293690 -0.3896611166 -0.0556658738
0.3339952428 -0.3339952428 -0.1113317476
0.3896611166 -0.2783293690 -0.1669976214
0.4453269904 -0.2226634952 -0.2226634952
0.5009928642 -0.1669976214 -0.2783293690
0.5566587381 -0.1113317476 -0.3339952428
0.6123246119 -0.0556658738 -0.3896611166
0.1113317476 -0.6679904857 0.2226634952
0.1669976214 -0.6123246119 0.1669976214
0.2226634952 -0.5566587381 0.1113317476
0.2783293690 -0.5009928642 0.0556658738
0.3339952428 -0.4453269904 0.0000000000
0.3896611166 -0.3896611166 -0.0556658738
0.4453269904 -0.3339952428 -0.1113317476
0.5009928642 -0.2783293690 -0.1669976214
0.5566587381 -0.2226634952 -0.2226634952
0.6123246119 -0.1669976214 -0.2783293690
0.6679904857 -0.1113317476 -0.3339952428
0.1669976214 -0.7236563595 0.2783293690
0.2226634952 -0.6679904857 0.2226634952
0.2783293690 -0.6123246119 0.1669976214
0.3339952428 -0.5566587381 0.1113317476
0.3896611166 -0.5009928642 0.0556658738
0.4453269904 -0.4453269904 0.0000000000
0.5009928642 -0.3896611166 -0.0556658738
0.5566587381 -0.3339952428 -0.1113317476
0.6123246119 -0.2783293690 -0.1669976214
0.6679904857 -0.2226634952 -0.2226634952
0.7236563595 -0.1669976214 -0.2783293690
0.2226634952 -0.7793222333 0.3339952428
0.2783293690 -0.7236563595 0.2783293690
0.3339952428 -0.6679904857 0.2226634952
0.3896611166 -0.6123246119 0.1669976214
0.4453269904 -0.5566587381 0.1113317476
0.5009928642 -0.5009928642 0.0556658738
0.5566587381 -0.4453269904 -0.0000000000
0.6123246119 -0.3896611166 -0.0556658738
0.6679904857 -0.3339952428 -0.1113317476
0.7236563595 -0.2783293690 -0.1669976214
0.7793222333 -0.2226634952 -0.2226634952
-0.3896611166 -0.1669976214 -0.1669976214
-0.3339952428 -0.1113317476 -0.2226634952
-0.2783293690 -0.0556658738 -0.2783293690
-0.2226634952 -0.0000000000 -0.3339952428
-0.1669976214 0.0556658738 -0.3896611166
-0.1113317476 0.1113317476 -0.4453269904
-0.0556658738 0.1669976214 -0.5009928642
-0.0000000000 0.2226634952 -0.5566587381
0.0556658738 0.2783293690 -0.6123246119
0.1113317476 0.3339952428 -0.6679904857
0.1669976214 0.3896611166 -0.7236563595
-0.3339952428 -0.2226634952 -0.1113317476
-0.2783293690 -0.1669976214 -0.1669976214
-0.2226634952 -0.1113317476 -0.2226634952
-0.1669976214 -0.0556658738 -0.2783293690
-0.1113317476 -0.0000000000 -0.3339952428
-0.0556658738 0.0556658738 -0.3896611166
-0.0000000000 0.1113317476 -0.4453269904
0.0556658738 0.1669976214 -0.5009928642
0.1113317476 0.2226634952 -0.5566587381
0.1669976214 0.2783293690 -0.6123246119
0.2226634952 0.3339952428 -0.6679904857
-0.2783293690 -0.2783293690 -0.0556658738
-0.2226634952 -0.2226634952 -0.1113317476
-0.1669976214 -0.1669976214 -0.1669976214
-0.1113317476 -0.1113317476 -0.2226634952
-0.0556658738 -0.0556658738 -0.2783293690
-0.0000000000 -0.0000000000 -0.3339952428
0.0556658738 0.0556658738 -0.3896611166
0.1113317476 0.1113317476 -0.4453269904
0.1669976214 0.1669976214 -0.5009928642
0.2226634952 0.2226634952 -0.5566587381
0.2783293690 0.2783293690 -0.6123246119
-0.2226634952 -0.3339952428 0.0000000000
-0.1669976214 -0.2783293690 -0.0556658738
-0.1113317476 -0.2226634952 -0.1113317476
-0.0556658738 -0.1669976214 -0.1669976214
-0.0000000000 -0.1113317476 -0.2226634952
0.0556658738 -0.0556658738 -0.2783293690
0.1113317476 -0.0000000000 -0.3339952428
0.1669976214 0.0556658738 -0.3896611166
0.2226634952 0.1113317476 -0.4453269904
0.2783293690 0.1669976214 -0.5009928642
0.3339952428 0.2226634952 -0.5566587381
-0.1669976214 -0.3896611166 0.0556658738
-0.1113317476 -0.3339952428 0.0000000000
-0.0556658738 -0.2783293690 -0.0556658738
-0.0000000000 -0.2226634952 -0.1113317476
0.0556658738 -0.1669976214 -0.1669976214
0.1113317476 -0.1113317476 -0.2226634952
0.1669976214 -0.0556658738 -0.2783293690
0.2226634952 0.0000000000 -0.3339952428
0.2783293690 0.0556658738 -0.3896611166
0.3339952428 0.1113317476 -0.4453269904
0.3896611166 0.1669976214 -0.5009928642
-0.1113317476 -0.4453269904 0.1113317476
-0.0556658738 -0.3896611166 0.0556658738
-0.0000000000 -0.3339952428 0.0000000000
0.0556658738 -0.2783293690 -0.0556658738
0.1113317476 -0.2226634952 -0.1113317476
0.1669976214 -0.1669976214 -0.1669976214
0.2226634952 -0.1113317476 -0.2226634952
0.2783293690 -0.0556658738 -0.2783293690
0.3339952428 0.0000000000 -0.3339952428
0.3896611166 0.0556658738 -0.3896611166
0.4453269904 0.1113317476 -0.4453269904
-0.0556658738 -0.5009928642 0.1669976214
-0.0000000000 -0.4453269904 0.1113317476
0.0556658738 -0.3896611166 0.0556658738
0.1113317476 -0.3339952428 0.0000000000
0.1669976214 -0.2783293690 -0.0556658738
0.2226634952 -0.2226634952 -0.1113317476
0.2783293690 -0.1669976214 -0.1669976214
0.3339952428 -0.1113317476 -0.2226634952
0.3896611166 -0.0556658738 -0.2783293690
0.4453269904 0.0000000000 -0.3339952428
0.5009928642 0.0556658738 -0.3896611166
-0.0000000000 -0.5566587381 0.2226634952
0.0556658738 -0.5009928642 0.1669976214
0.1113317476 -0.4453269904 0.1113317476
0.1669976214 -0.3896611166 0.0556658738
0.2226634952 -0.3339952428 0.0000000000
0.2783293690 -0.2783293690 -0.0556658738
0.3339952428 -0.2226634952 -0.1113317476
0.3896611166 -0.1669976214 -0.1669976214
0.4453269904 -0.1113317476 -0.2226634952
0.5009928642 -0.0556658738 -0.2783293690
0.5566587381 0.0000000000 -0.3339952428
0.0556658738 -0.6123246119 0.2783293690
0.1113317476 -0.5566587381 0.2226634952
0.1669976214 -0.5009928642 0.1669976214
0.2226634952 -0.4453269904 0.1113317476
0.2783293690 -0.3896611166 0.0556658738
0.3339952428 -0.3339952428 0.0000000000
0.3896611166 -0.2783293690 -0.0556658738
0.4453269904 -0.2226634952 -0.1113317476
0.5009928642 -0.1669976214 -0.1669976214
0.5566587381 -0.1113317476 -0.2226634952
0.6123246119 -0.0556658738 -0.2783293690
0.1113317476 -0.6679904857 0.3339952428
0.1669976214 -0.6123246119 0.2783293690
0.2226634952 -0.5566587381 0.2226634952
0.2783293690 -0.5009928642 0.1669976214
0.3339952428 -0.4453269904 0.1113317476
0.3896611166 -0.3896611166 0.0556658738
0.4453269904 -0.3339952428 0.0000000000
0.5009928642 -0.2783293690 -0.0556658738
0.5566587381 -0.2226634952 -0.1113317476
0.6123246119 -0.1669976214 -0.1669976214
0.6679904857 -0.1113317476 -0.2226634952
0.1669976214 -0.7236563595 0.3896611166
0.2226634952 -0.6679904857 0.3339952428
0.2783293690 -0.6123246119 0.2783293690
0.3339952428 -0.5566587381 0.2226634952
0.3896611166 -0.5009928642 0.1669976214
0.4453269904 -0.4453269904 0.1113317476
0.5009928642 -0.3896611166 0.0556658738
0.5566587381 -0.3339952428 0.0000000000
0.6123246119 -0.2783293690 -0.0556658738
0.6679904857 -0.2226634952 -0.1113317476
0.7236563595 -0.1669976214 -0.1669976214
-0.4453269904 -0.1113317476 -0.1113317476
-0.3896611166 -0.0556658738 -0.1669976214
-0.3339952428 -0.0000000000 -0.2226634952
-0.2783293690 0.0556658738 -0.2783293690
-0.2226634952 0.1113317476 -0.3339952428
-0.1669976214 0.1669976214 -0.3896611166
-0.1113317476 0.2226634952 -0.4453269904
-0.0556658738 0.2783293690 -0.5009928642
-0.0000000000 0.3339952428 -0.5566587381
0.0556658738 0.3896611166 -0.6123246119
0.1113317476 0.4453269904 -0.6679904857
-0.3896611166 -0.1669976214 -0.0556658738
-0.3339952428 -0.1113317476 -0.1113317476
-0.2783293690 -0.0556658738 -0.1669976214
-0.2226634952 -0.0000000000 -0.2226634952
-0.1669976214 0.0556658738 -0.2783293690
-0.1113317476 0.1113317476 -0.3339952428
-0.0556658738 0.1669976214 -0.3896611166
-0.0000000000 0.2226634952 -0.4453269904
0.0556658738 0.2783293690 -0.5009928642
0.1113317476 0.3339952428 -0.5566587381
0.1669976214 0.3896611166 -0.6123246119
-0.3339952428 -0.2226634952 0.0000000000
-0.2783293690 -0.1669976214 -0.0556658738
-0.2226634952 -0.1113317476 -0.1113317476
-0.1669976214 -0.0556658738 -0.1669976214
-0.1113317476 -0.0000000000 -0.2226634952
-0.0556658738 0.0556658738 -0.2783293690
-0.0000000000 0.1113317476 -0.3339952428
0.0556658738 0.1669976214 -0.3896611166
0.1113317476 0.2226634952 -0.4453269904
0.1669976214 0.2783293690 -0.5009928642
0.2226634952 0.3339952428 -0.5566587381
-0.2783293690 -0.2783293690 0.0556658738
-0.2226634952 -0.2226634952 -0.0000000000
-0.1669976214 -0.1669976214 -0.0556658738
-0.1113317476 -0.1113317476 -0.1113317476
-0.0556658738 -0.0556658738 -0.1669976214
-0.0000000000 -0.0000000000 -0.2226634952
0.0556658738 0.0556658738 -0.2783293690
0.1113317476 0.1113317476 -0.3339952428
0.1669976214 0.1669976214 -0.3896611166
0.2226634952 0.2226634952 -0.4453269904
0.2783293690 0.2783293690 -0.5009928642
-0.2226634952 -0.3339952428 0.1113317476
-0.1669976214 -0.2783293690 0.0556658738
-0.1113317476 -0.2226634952 -0.0000000000
-0.0556658738 -0.1669976214 -0.0556658738
-0.0000000000 -0.1113317476 -0.1113317476
0.0556658738 -0.0556658738 -0.1669976214
0.1113317476 -0.0000000000 -0.2226634952
0.1669976214 0.0556658738 -0.2783293690
0.2226634952 0.1113317476 -0.3339952428
0.2783293690 0.1669976214 -0.3896611166
0.3339952428 0.2226634952 -0.4453269904
-0.1669976214 -0.3896611166 0.1669976214
-0.1113317476 -0.3339952428 0.1113317476
-0.0556658738 -0.2783293690 0.0556658738
-0.0000000000 -0.2226634952 0.0000000000
0.0556658738 -0.1669976214 -0.0556658738
0.1113317476 -0.1113317476 -0.1113317476
0.1669976214 -0.0556658738 -0.1669976214
0.2226634952 0.0000000000 -0.2226634952
0.2783293690 0.0556658738 -0.2783293690
0.3339952428 0.1113317476 -0.3339952428
0.3896611166 0.1669976214 -0.3896611166
-0.1113317476 -0.4453269904 0.2226634952
-0.0556658738 -0.3896611166 0.1669976214
-0.0000000000 -0.3339952428 0.1113317476
0.0556658738 -0.2783293690 0.0556658738
0.1113317476 -0.2226634952 0.0000000000
0.1669976214 -0.1669976214 -0.0556658738
0.2226634952 -0.1113317476 -0.1113317476
0.2783293690 -0.0556658738 -0.1669976214
0.3339952428 0.0000000000 -0.2226634952
0.3896611166 0.0556658738 -0.2783293690
0.4453269904 0.1113317476 -0.3339952428
-0.0556658738 -0.5009928642 0.2783293690
-0.0000000000 -0.4453269904 0.2226634952
0.0556658738 -0.3896611166 0.1669976214
0.1113317476 -0.3339952428 0.1113317476
0.1669976214 -0.2783293690 0.0556658738
0.2226634952 -0.2226634952 0.0000000000
0.2783293690 -0.1669976214 -0.0556658738
0.3339952428 -0.1113317476 -0.1113317476
0.3896611166 -0.0556658738 -0.1669976214
0.4453269904 0.0000000000 -0.2226634952
0.5009928642 0.0556658738 -0.2783293690
-0.0000000000 -0.5566587381 0.3339952428
0.0556658738 -0.5009928642 0.2783293690
0.1113317476 -0.4453269904 0.2226634952
0.1669976214 -0.3896611166 0.1669976214
0.2226634952 -0.3339952428 0.1113317476
0.2783293690 -0.2783293690 0.0556658738
0.3339952428 -0.2226634952 0.0000000000
0.3896611166 -0.1669976214 -0.0556658738
0.4453269904 -0.1113317476 -0.1113317476
0.5009928642 -0.0556658738 -0.1669976214
0.5566587381 0.0000000000 -0.2226634952
0.0556658738 -0.6123246119 0.3896611166
0.1113317476 -0.5566587381 0.3339952428
0.1669976214 -0.5009928642 0.2783293690
0.2226634952 -0.4453269904 0.2226634952
0.2783293690 -0.3896611166 0.1669976214
0.3339952428 -0.3339952428 0.1113317476
0.3896611166 -0.2783293690 0.0556658738
0.4453269904 -0.2226634952 0.0000000000
0.5009928642 -0.1669976214 -0.0556658738
0.5566587381 -0.1113317476 -0.1113317476
0.6123246119 -0.0556658738 -0.1669976214
0.1113317476 -0.6679904857 0.4453269904
0.1669976214 -0.6123246119 0.3896611166
0.2226634952 -0.5566587381 0.3339952428
0.2783293690 -0.5009928642 0.2783293690
0.3339952428 -0.4453269904 0.2226634952
0.3896611166 -0.3896611166 0.1669976214
0.4453269904 -0.3339952428 0.1113317476
0.5009928642 -0.2783293690 0.0556658738
0.5566587381 -0.2226634952 0.0000000000
0.6123246119 -0.1669976214 -0.0556658738
0.6679904857 -0.1113317476 -0.1113317476
-0.5009928642 -0.0556658738 -0.0556658738
-0.4453269904 -0.0000000000 -0.1113317476
-0.3896611166 0.0556658738 -0.1669976214
-0.3339952428 0.1113317476 -0.2226634952
-0.2783293690 0.1669976214 -0.2783293690
-0.2226634952 0.2226634952 -0.3339952428
-0.1669976214 0.2783293690 -0.3896611166
-0.1113317476 0.3339952428 -0.4453269904
-0.0556658738 0.3896611166 -0.5009928642
0.0000000000 0.4453269904 -0.5566587381
0.0556658738 0.5009928642 -0.6123246119
-0.4453269904 -0.1113317476 -0.0000000000
-0.3896611166 -0.0556658738 -0.0556658738
-0.3339952428 -0.0000000000 -0.1113317476
-0.2783293690 0.0556658738 -0.1669976214
-0.2226634952 0.1113317476 -0.2226634952
-0.1669976214 0.1669976214 -0.2783293690
-0.1113317476 0.2226634952 -0.3339952428
-0.0556658738 0.2783293690 -0.3896611166
0.0000000000 0.3339952428 -0.4453269904
0.0556658738 0.3896611166 -0.5009928642
0.1113317476 0.4453269904 -0.5566587381
-0.3896611166 -0.1669976214 0.0556658738
-0.3339952428 -0.1113317476 0.0000000000
-0.2783293690 -0.0556658738 -0.0556658738
-0.2226634952 -0.0000000000 -0.1113317476
-0.1669976214 0.0556658738 -0.1669976214
-0.1113317476 0.1113317476 -0.2226634952
-0.0556658738 0.1669976214 -0.2783293690
0.0000000000 0.2226634952 -0.3339952428
0.0556658738 0.2783293690 -0.3896611166
0.1113317476 0.3339952428 -0.4453269904
0.1669976214 0.3896611166 -0.5009928642
-0.3339952428 -0.2226634952 0.1113317476
-0.2783293690 -0.1669976214 0.0556658738
-0.2226634952 -0.1113317476 -0.0000000000
-0.1669976214 -0.0556658738 -0.0556658738
-0.1113317476 -0.0000000000 -0.1113317476
-0.0556658738 0.0556658738 -0.1669976214
-0.0000000000 0.1113317476 -0.2226634952
0.0556658738 0.1669976214 -0.2783293690
0.1113317476 0.2226634952 -0.3339952428
0.1669976214 0.2783293690 -0.3896611166
0.2226634952 0.3339952428 -0.4453269904
-0.2783293690 -0.2783293690 0.1669976214
-0.2226634952 -0.2226634952 0.1113317476
-0.1669976214 -0.1669976214 0.0556658738
-0.1113317476 -0.1113317476 -0.0000000000
-0.0556658738 -0.0556658738 -0.0556658738
-0.0000000000 -0.0000000000 -0.1113317476
0.0556658738 0.0556658738 -0.1669976214
0.1113317476 0.1113317476 -0.2226634952
0.1669976214 0.1669976214 -0.2783293690
0.2226634952 0.2226634952 -0.3339952428
0.2783293690 0.2783293690 -0.3896611166
-0.2226634952 -0.3339952428 0.2226634952
-0.1669976214 -0.2783293690 0.1669976214
-0.1113317476 -0.2226634952 0.1113317476
-0.0556658738 -0.1669976214 0.0556658738
-0.0000000000 -0.1113317476 0.0000000000
0.0556658738 -0.0556658738 -0.0556658738
0.1113317476 0.0000000000 -0.1113317476
0.1669976214 0.0556658738 -0.1669976214
0.2226634952 0.1113317476 -0.2226634952
0.2783293690 0.1669976214 -0.2783293690
0.3339952428 0.2226634952 -0.3339952428
-0.1669976214 -0.3896611166 0.2783293690
-0.1113317476 -0.3339952428 0.2226634952
-0.0556658738 -0.2783293690 0.1669976214
-0.0000000000 -0.2226634952 0.1113317476
0.0556658738 -0.1669976214 0.0556658738
0.1113317476 -0.1113317476 0.0000000000
0.1669976214 -0.0556658738 -0.0556658738
0.2226634952 0.0000000000 -0.1113317476
0.2783293690 0.0556658738 -0.1669976214
0.3339952428 0.1113317476 -0.2226634952
0.3896611166 0.1669976214 -0.2783293690
-0.1113317476 -0.4453269904 0.3339952428
-0.0556658738 -0.3896611166 0.2783293690
-0.0000000000 -0.3339952428 0.2226634952
0.0556658738 -0.2783293690 0.1669976214
0.1113317476 -0.2226634952 0.1113317476
0.1669976214 -0.1669976214 0.0556658738
0.2226634952 -0.1113317476 0.0000000000
0.2783293690 -0.0556658738 -0.0556658738
0.3339952428 0.0000000000 -0.1113317476
0.3896611166 0.0556658738 -0.1669976214
0.4453269904 0.1113317476 -0.2226634952
-0.0556658738 -0.5009928642 0.3896611166
-0.0000000000 -0.4453269904 0.3339952428
0.0556658738 -0.3896611166 0.2783293690
0.1113317476 -0.3339952428 0.2226634952
0.1669976214 -0.2783293690 0.1669976214
0.2226634952 -0.2226634952 0.1113317476
0.2783293690 -0.1669976214 0.0556658738
0.3339952428 -0.1113317476 0.0000000000
0.3896611166 -0.0556658738 -0.0556658738
0.4453269904 0.0000000000 -0.1113317476
0.5009928642 0.0556658738 -0.1669976214
0.0000000000 -0.5566587381 0.4453269904
0.0556658738 -0.5009928642 0.3896611166
0.1113317476 -0.4453269904 0.3339952428
0.1669976214 -0.3896611166 0.2783293690
0.2226634952 -0.3339952428 0.2226634952
0.2783293690 -0.2783293690 0.1669976214
0.3339952428 -0.2226634952 0.1113317476
0.3896611166 -0.1669976214 0.0556658738
0.4453269904 -0.1113317476 0.0000000000
0.5009928642 -0.0556658738 -0.0556658738
0.5566587381 0.0000000000 -0.1113317476
0.0556658738 -0.6123246119 0.5009928642
0.1113317476 -0.5566587381 0.4453269904
0.1669976214 -0.5009928642 0.3896611166
0.2226634952 -0.4453269904 0.3339952428
0.2783293690 -0.3896611166 0.2783293690
0.3339952428 -0.3339952428 0.2226634952
0.3896611166 -0.2783293690 0.1669976214
0.4453269904 -0.2226634952 0.1113317476
0.5009928642 -0.1669976214 0.0556658738
0.5566587381 -0.1113317476 0.0000000000
0.6123246119 -0.0556658738 -0.0556658738
-0.5566587381 -0.0000000000 0.0000000000
-0.5009928642 0.0556658738 -0.0556658738
-0.4453269904 0.1113317476 -0.1113317476
-0.3896611166 0.1669976214 -0.1669976214
-0.3339952428 0.2226634952 -0.2226634952
-0.2783293690 0.2783293690 -0.2783293690
-0.2226634952 0.3339952428 -0.3339952428
-0.1669976214 0.3896611166 -0.3896611166
-0.1113317476 0.4453269904 -0.4453269904
-0.0556658738 0.5009928642 -0.5009928642
0.0000000000 0.5566587381 -0.5566587381
-0.5009928642 -0.0556658738 0.0556658738
-0.4453269904 -0.0000000000 -0.0000000000
-0.3896611166 0.0556658738 -0.0556658738
-0.3339952428 0.1113317476 -0.1113317476
-0.2783293690 0.1669976214 -0.1669976214
-0.2226634952 0.2226634952 -0.2226634952
-0.1669976214 0.2783293690 -0.2783293690
-0.1113317476 0.3339952428 -0.3339952428
-0.0556658738 0.3896611166 -0.3896611166
0.0000000000 0.4453269904 -0.4453269904
0.0556658738 0.5009928642 -0.5009928642
-0.4453269904 -0.1113317476 0.1113317476
-0.3896611166 -0.0556658738 0.0556658738
-0.3339952428 -0.0000000000 -0.0000000000
-0.2783293690 0.0556658738 -0.0556658738
-0.2226634952 0.1113317476 -0.1113317476
-0.1669976214 0.1669976214 -0.1669976214
-0.1113317476 0.2226634952 -0.2226634952
-0.0556658738 0.2783293690 -0.2783293690
0.0000000000 0.3339952428 -0.3339952428
0.0556658738 0.3896611166 -0.3896611166
0.1113317476 0.4453269904 -0.4453269904
-0.3896611166 -0.1669976214 0.1669976214
-0.3339952428 -0.1113317476 0.1113317476
-0.2783293690 -0.0556658738 0.0556658738
-0.2226634952 -0.0000000000 -0.0000000000
-0.1669976214 0.0556658738 -0.0556658738
-0.1113317476 0.1113317476 -0.1113317476
-0.0556658738 0.1669976214 -0.1669976214
0.0000000000 0.2226634952 -0.2226634952
0.0556658738 0.2783293690 -0.2783293690
0.1113317476 0.3339952428 -0.3339952428
0.1669976214 0.3896611166 -0.3896611166
-0.3339952428 -0.2226634952 0.2226634952
-0.2783293690 -0.1669976214 0.1669976214
-0.2226634952 -0.1113317476 0.1113317476
-0.1669976214 -0.0556658738 0.0556658738
-0.1113317476 -0.0000000000 -0.0000000000
-0.0556658738 0.0556658738 -0.0556658738
0.0000000000 0.1113317476 -0.1113317476
0.0556658738 0.1669976214 -0.1669976214
0.1113317476 0.2226634952 -0.2226634952
0.1669976214 0.2783293690 -0.2783293690
0.2226634952 0.3339952428 -0.3339952428
-0.2783293690 -0.2783293690 0.2783293690
-0.2226634952 -0.2226634952 0.2226634952
-0.1669976214 -0.1669976214 0.1669976214
-0.1113317476 -0.1113317476 0.1113317476
-0.0556658738 -0.0556658738 0.0556658738
0.0000000000 0.0000000000 0.0000000000
0.0556658738 0.0556658738 -0.0556658738
0.1113317476 0.1113317476 -0.1113317476
0.1669976214 0.1669976214 -0.1669976214
0.2226634952 0.2226634952 -0.2226634952
0.2783293690 0.2783293690 -0.2783293690
-0.2226634952 -0.3339952428 0.3339952428
-0.1669976214 -0.2783293690 0.2783293690
-0.1113317476 -0.2226634952 0.2226634952
-0.0556658738 -0.1669976214 0.1669976214
-0.0000000000 -0.1113317476 0.1113317476
0.0556658738 -0.0556658738 0.0556658738
0.1113317476 0.0000000000 0.0000000000
0.1669976214 0.0556658738 -0.0556658738
0.2226634952 0.1113317476 -0.1113317476
0.2783293690 0.1669976214 -0.1669976214
0.3339952428 0.2226634952 -0.2226634952
-0.1669976214 -0.3896611166 0.3896611166
-0.1113317476 -0.3339952428 0.3339952428
-0.0556658738 -0.2783293690 0.2783293690
-0.0000000000 -0.2226634952 0.2226634952
0.0556658738 -0.1669976214 0.1669976214
0.1113317476 -0.1113317476 0.1113317476
0.1669976214 -0.0556658738 0.0556658738
0.2226634952 0.0000000000 0.0000000000
0.2783293690 0.0556658738 -0.0556658738
0.3339952428 0.1113317476 -0.1113317476
0.3896611166 0.1669976214 -0.1669976214
-0.1113317476 -0.4453269904 0.4453269904
-0.0556658738 -0.3896611166 0.3896611166
-0.0000000000 -0.3339952428 0.3339952428
0.0556658738 -0.2783293690 0.2783293690
0.1113317476 -0.2226634952 0.2226634952
0.1669976214 -0.1669976214 0.1669976214
0.2226634952 -0.1113317476 0.1113317476
0.2783293690 -0.0556658738 0.0556658738
0.3339952428 0.0000000000 0.0000000000
0.3896611166 0.0556658738 -0.0556658738
0.4453269904 0.1113317476 -0.1113317476
-0.0556658738 -0.5009928642 0.5009928642
-0.0000000000 -0.4453269904 0.4453269904
0.0556658738 -0.3896611166 0.3896611166
0.1113317476 -0.3339952428 0.3339952428
0.1669976214 -0.2783293690 0.2783293690
0.2226634952 -0.2226634952 0.2226634952
0.2783293690 -0.1669976214 0.1669976214
0.3339952428 -0.1113317476 0.1113317476
0.3896611166 -0.0556658738 0.0556658738
0.4453269904 0.0000000000 0.0000000000
0.5009928642 0.0556658738 -0.0556658738
0.0000000000 -0.5566587381 0.5566587381
0.0556658738 -0.5009928642 0.5009928642
0.1113317476 -0.4453269904 0.4453269904
0.1669976214 -0.3896611166 0.3896611166
0.2226634952 -0.3339952428 0.3339952428
0.2783293690 -0.2783293690 0.2783293690
0.3339952428 -0.2226634952 0.2226634952
0.3896611166 -0.1669976214 0.1669976214
0.4453269904 -0.1113317476 0.1113317476
0.5009928642 -0.0556658738 0.0556658738
0.5566587381 0.0000000000 0.0000000000
-0.6123246119 0.0556658738 0.0556658738
-0.5566587381 0.1113317476 0.0000000000
-0.5009928642 0.1669976214 -0.0556658738
-0.4453269904 0.2226634952 -0.1113317476
-0.3896611166 0.2783293690 -0.1669976214
-0.3339952428 0.3339952428 -0.2226634952
-0.2783293690 0.3896611166 -0.2783293690
-0.2226634952 0.4453269904 -0.3339952428
-0.1669976214 0.5009928642 -0.3896611166
-0.1113317476 0.5566587381 -0.4453269904
-0.0556658738 0.6123246119 -0.5009928642
-0.5566587381 -0.0000000000 0.1113317476
-0.5009928642 0.0556658738 0.0556658738
-0.4453269904 0.1113317476 -0.0000000000
-0.3896611166 0.1669976214 -0.0556658738
-0.3339952428 0.2226634952 -0.1113317476
-0.2783293690 0.2783293690 -0.1669976214
-0.2226634952 0.3339952428 -0.2226634952
-0.1669976214 0.3896611166 -0.2783293690
-0.1113317476 0.4453269904 -0.3339952428
-0.0556658738 0.5009928642 -0.3896611166
0.0000000000 0.5566587381 -0.4453269904
-0.5009928642 -0.0556658738 0.1669976214
-0.4453269904 -0.0000000000 0.1113317476
-0.3896611166 0.0556658738 0.0556658738
-0.3339952428 0.1113317476 -0.0000000000
-0.2783293690 0.1669976214 -0.0556658738
-0.2226634952 0.2226634952 -0.1113317476
-0.1669976214 0.2783293690 -0.1669976214
-0.1113317476 0.3339952428 -0.2226634952
-0.0556658738 0.3896611166 -0.2783293690
0.0000000000 0.4453269904 -0.3339952428
0.0556658738 0.5009928642 -0.3896611166
-0.4453269904 -0.1113317476 0.2226634952
-0.3896611166 -0.0556658738 0.1669976214
-0.3339952428 -0.0000000000 0.1113317476
-0.2783293690 0.0556658738 0.0556658738
-0.2226634952 0.1113317476 -0.0000000000
-0.1669976214 0.1669976214 -0.0556658738
-0.1113317476 0.2226634952 -0.1113317476
-0.0556658738 0.2783293690 -0.1669976214
0.0000000000 0.3339952428 -0.2226634952
0.0556658738 0.3896611166 -0.2783293690
0.1113317476 0.4453269904 -0.3339952428
-0.3896611166 -0.1669976214 0.2783293690
-0.3339952428 -0.1113317476 0.2226634952
-0.2783293690 -0.0556658738 0.1669976214
-0.2226634952 -0.0000000000 0.1113317476
-0.1669976214 0.0556658738 0.0556658738
-0.1113317476 0.1113317476 -0.0000000000
-0.0556658738 0.1669976214 -0.0556658738
0.0000000000 0.2226634952 -0.1113317476
0.0556658738 0.2783293690 -0.1669976214
0.1113317476 0.3339952428 -0.2226634952
0.1669976214 0.3896611166 -0.2783293690
-0.3339952428 -0.2226634952 0.3339952428
-0.2783293690 -0.1669976214 0.2783293690
-0.2226634952 -0.1113317476 0.2226634952
-0.1669976214 -0.0556658738 0.1669976214
-0.1113317476 0.0000000000 0.1113317476
-0.0556658738 0.0556658738 0.0556658738
0.0000000000 0.1113317476 0.0000000000
0.0556658738 0.1669976214 -0.0556658738
0.1113317476 0.2226634952 -0.1113317476
0.1669976214 0.2783293690 -0.1669976214
0.2226634952 0.3339952428 -0.2226634952
-0.2783293690 -0.2783293690 0.3896611166
-0.2226634952 -0.2226634952 0.3339952428
-0.1669976214 -0.1669976214 0.2783293690
-0.1113317476 -0.1113317476 0.2226634952
-0.0556658738 -0.0556658738 0.1669976214
0.0000000000 0.0000000000 0.1113317476
0.0556658738 0.0556658738 0.0556658738
0.1113317476 0.1113317476 0.0000000000
0.1669976214 0.1669976214 -0.0556658738
0.2226634952 0.2226634952 -0.1113317476
0.2783293690 0.2783293690 -0.1669976214
-0.2226634952 -0.3339952428 0.4453269904
-0.1669976214 -0.2783293690 0.3896611166
-0.1113317476 -0.2226634952 0.3339952428
-0.0556658738 -0.1669976214 0.2783293690
0.0000000000 -0.1113317476 0.2226634952
0.0556658738 -0.0556658738 0.1669976214
0.1113317476 0.0000000000 0.1113317476
0.1669976214 0.0556658738 0.0556658738
0.2226634952 0.1113317476 0.0000000000
0.2783293690 0.1669976214 -0.0556658738
0.3339952428 0.2226634952 -0.1113317476
-0.1669976214 -0.3896611166 0.5009928642
-0.1113317476 -0.3339952428 0.4453269904
-0.0556658738 -0.2783293690 0.3896611166
-0.0000000000 -0.2226634952 0.3339952428
0.0556658738 -0.1669976214 0.2783293690
0.1113317476 -0.1113317476 0.2226634952
0.1669976214 -0.0556658738 0.1669976214
0.2226634952 0.0000000000 0.1113317476
0.2783293690 0.0556658738 0.0556658738
0.3339952428 0.1113317476 0.0000000000
0.3896611166 0.1669976214 -0.0556658738
-0.1113317476 -0.4453269904 0.5566587381
-0.0556658738 -0.3896611166 0.5009928642
0.0000000000 -0.3339952428 0.4453269904
0.0556658738 -0.2783293690 0.3896611166
0.1113317476 -0.2226634952 0.3339952428
0.1669976214 -0.1669976214 0.2783293690
0.2226634952 -0.1113317476 0.2226634952
0.2783293690 -0.0556658738 0.1669976214
0.3339952428 0.0000000000 0.1113317476
0.3896611166 0.0556658738 0.0556658738
0.4453269904 0.1113317476 0.0000000000
-0.0556658738 -0.5009928642 0.6123246119
0.0000000000 -0.4453269904 0.5566587381
0.0556658738 -0.3896611166 0.5009928642
0.1113317476 -0.3339952428 0.4453269904
0.1669976214 -0.2783293690 0.3896611166
0.2226634952 -0.2226634952 0.3339952428
0.2783293690 -0.1669976214 0.2783293690
0.3339952428 -0.1113317476 0.2226634952
0.3896611166 -0.0556658738 0.1669976214
0.4453269904 0.0000000000 0.1113317476
0.5009928642 0.0556658738 0.0556658738
-0.6679904857 0.1113317476 0.1113317476
-0.6123246119 0.1669976214 0.0556658738
-0.5566587381 0.2226634952 -0.0000000000
-0.5009928642 0.2783293690 -0.0556658738
-0.4453269904 0.3339952428 -0.1113317476
-0.3896611166 0.3896611166 -0.1669976214
-0.3339952428 0.4453269904 -0.2226634952
-0.2783293690 0.5009928642 -0.2783293690
-0.2226634952 0.5566587381 -0.3339952428
-0.1669976214 0.6123246119 -0.3896611166
-0.1113317476 0.6679904857 -0.4453269904
-0.6123246119 0.0556658738 0.1669976214
-0.5566587381 0.1113317476 0.1113317476
-0.5009928642 0.1669976214 0.0556658738
-0.4453269904 0.2226634952 -0.0000000000
-0.3896611166 0.2783293690 -0.0556658738
-0.3339952428 0.3339952428 -0.1113317476
-0.2783293690 0.3896611166 -0.1669976214
-0.2226634952 0.4453269904 -0.2226634952
-0.1669976214 0.5009928642 -0.2783293690
-0.1113317476 0.5566587381 -0.3339952428
-0.0556658738 0.6123246119 -0.3896611166
-0.5566587381 -0.0000000000 0.2226634952
-0.5009928642 0.0556658738 0.1669976214
-0.4453269904 0.1113317476 0.1113317476
-0.3896611166 0.1669976214 0.0556658738
-0.3339952428 0.2226634952 -0.0000000000
-0.2783293690 0.2783293690 -0.0556658738
-0.2226634952 0.3339952428 -0.1113317476
-0.1669976214 0.3896611166 -0.1669976214
-0.1113317476 0.4453269904 -0.2226634952
-0.0556658738 0.5009928642 -0.2783293690
0.0000000000 0.5566587381 -0.3339952428
-0.5009928642 -0.0556658738 0.2783293690
-0.4453269904 -0.0000000000 0.2226634952
-0.3896611166 0.0556658738 0.1669976214
-0.3339952428 0.1113317476 0.1113317476
-0.2783293690 0.1669976214 0.0556658738
-0.2226634952 0.2226634952 -0.0000000000
-0.1669976214 0.2783293690 -0.0556658738
-0.1113317476 0.3339952428 -0.1113317476
-0.0556658738 0.3896611166 -0.1669976214
0.0000000000 0.4453269904 -0.2226634952
0.0556658738 0.5009928642 -0.2783293690
-0.4453269904 -0.1113317476 0.3339952428
-0.3896611166 -0.0556658738 0.2783293690
-0.3339952428 0.0000000000 0.2226634952
-0.2783293690 0.0556658738 0.1669976214
-0.2226634952 0.1113317476 0.1113317476
-0.1669976214 0.1669976214 0.0556658738
-0.1113317476 0.2226634952 -0.0000000000
-0.0556658738 0.2783293690 -0.0556658738
0.0000000000 0.3339952428 -0.1113317476
0.0556658738 0.3896611166 -0.1669976214
0.1113317476 0.4453269904 -0.2226634952
-0.3896611166 -0.1669976214 0.3896611166
-0.3339952428 -0.1113317476 0.3339952428
-0.2783293690 -0.0556658738 0.2783293690
-0.2226634952 0.0000000000 0.2226634952
-0.1669976214 0.0556658738 0.1669976214
-0.1113317476 0.1113317476 0.1113317476
-0.0556658738 0.1669976214 0.0556658738
0.0000000000 0.2226634952 0.0000000000
0.0556658738 0.2783293690 -0.0556658738
0.1113317476 0.3339952428 -0.1113317476
0.1669976214 0.3896611166 -0.1669976214
-0.3339952428 -0.2226634952 0.4453269904
-0.2783293690 -0.1669976214 0.3896611166
-0.2226634952 -0.1113317476 0.3339952428
-0.1669976214 -0.0556658738 0.2783293690
-0.1113317476 0.0000000000 0.2226634952
-0.0556658738 0.0556658738 0.1669976214
0.0000000000 0.1113317476 0.1113317476
0.0556658738 0.1669976214 0.0556658738
0.1113317476 0.2226634952 0.0000000000
0.1669976214 0.2783293690 -0.0556658738
0.2226634952 0.3339952428 -0.1113317476
-0.2783293690 -0.2783293690 0.5009928642
-0.2226634952 -0.2226634952 0.4453269904
-0.1669976214 -0.1669976214 0.3896611166
-0.1113317476 -0.1113317476 0.3339952428
-0.0556658738 -0.0556658738 0.2783293690
0.0000000000 0.0000000000 0.2226634952
0.0556658738 0.0556658738 0.1669976214
0.1113317476 0.1113317476 0.1113317476
0.1669976214 0.1669976214 0.0556658738
0.2226634952 0.2226634952 0.0000000000
0.2783293690 0.2783293690 -0.0556658738
-0.2226634952 -0.3339952428 0.5566587381
-0.1669976214 -0.2783293690 0.5009928642
-0.1113317476 -0.2226634952 0.4453269904
-0.0556658738 -0.1669976214 0.3896611166
0.0000000000 -0.1113317476 0.3339952428
0.0556658738 -0.0556658738 0.2783293690
0.1113317476 0.0000000000 0.2226634952
0.1669976214 0.0556658738 0.1669976214
0.2226634952 0.1113317476 0.1113317476
0.2783293690 0.1669976214 0.0556658738
0.3339952428 0.2226634952 0.0000000000
-0.1669976214 -0.3896611166 0.6123246119
-0.1113317476 -0.3339952428 0.5566587381
-0.0556658738 -0.2783293690 0.5009928642
0.0000000000 -0.2226634952 0.4453269904
0.0556658738 -0.1669976214 0.3896611166
0.1113317476 -0.1113317476 0.3339952428
0.1669976214 -0.0556658738 0.2783293690
0.2226634952 0.0000000000 0.2226634952
0.2783293690 0.0556658738 0.1669976214
0.3339952428 0.1113317476 0.1113317476
0.3896611166 0.1669976214 0.0556658738
-0.1113317476 -0.4453269904 0.6679904857
-0.0556658738 -0.3896611166 0.6123246119
0.0000000000 -0.3339952428 0.5566587381
0.0556658738 -0.2783293690 0.5009928642
0.1113317476 -0.2226634952 0.4453269904
0.1669976214 -0.1669976214 0.3896611166
0.2226634952 -0.1113317476 0.3339952428
0.2783293690 -0.0556658738 0.2783293690
0.3339952428 0.0000000000 0.2226634952
0.3896611166 0.0556658738 0.1669976214
0.4453269904 0.1113317476 0.1113317476
-0.7236563595 0.1669976214 0.1669976214
-0.6679904857 0.2226634952 0.1113317476
-0.6123246119 0.2783293690 0.0556658738
-0.5566587381 0.3339952428 -0.0000000000
-0.5009928642 0.3896611166 -0.0556658738
-0.4453269904 0.4453269904 -0.1113317476
-0.3896611166 0.5009928642 -0.1669976214
-0.3339952428 0.5566587381 -0.2226634952
-0.2783293690 0.6123246119 -0.2783293690
-0.2226634952 0.6679904857 -0.3339952428
-0.1669976214 0.7236563595 -0.3896611166
-0.6679904857 0.1113317476 0.2226634952
-0.6123246119 0.1669976214 0.1669976214
-0.5566587381 0.2226634952 0.1113317476
-0.5009928642 0.2783293690 0.0556658738
-0.4453269904 0.3339952428 -0.0000000000
-0.3896611166 0.3896611166 -0.0556658738
-0.3339952428 0.4453269904 -0.1113317476
-0.2783293690 0.5009928642 -0.1669976214
-0.2226634952 0.5566587381 -0.2226634952
-0.1669976214 0.6123246119 -0.2783293690
-0.1113317476 0.6679904857 -0.3339952428
-0.6123246119 0.0556658738 0.2783293690
-0.5566587381 0.1113317476 0.2226634952
-0.5009928642 0.1669976214 0.1669976214
-0.4453269904 0.2226634952 0.1113317476
-0.3896611166 0.2783293690 0.0556658738
-0.3339952428 0.3339952428 -0.0000000000
-0.2783293690 0.3896611166 -0.0556658738
-0.2226634952 0.4453269904 -0.1113317476
-0.1669976214 0.5009928642 -0.1669976214
-0.1113317476 0.5566587381 -0.2226634952
-0.0556658738 0.6123246119 -0.2783293690
-0.5566587381 0.0000000000 0.3339952428
-0.5009928642 0.0556658738 0.2783293690
-0.4453269904 0.1113317476 0.2226634952
-0.3896611166 0.1669976214 0.1669976214
-0.3339952428 0.2226634952 0.1113317476
-0.2783293690 0.2783293690 0.0556658738
-0.2226634952 0.3339952428 -0.0000000000
-0.1669976214 0.3896611166 -0.0556658738
-0.1113317476 0.4453269904 -0.1113317476
-0.0556658738 0.5009928642 -0.1669976214
0.0000000000 0.5566587381 -0.2226634952
-0.5009928642 -0.0556658738 0.3896611166
-0.4453269904 -0.0000000000 0.3339952428
-0.3896611166 0.0556658738 0.2783293690
-0.3339952428 0.1113317476 0.2226634952
-0.2783293690 0.1669976214 0.1669976214
-0.2226634952 0.2226634952 0.1113317476
-0.1669976214 0.2783293690 0.0556658738
-0.1113317476 0.3339952428 -0.0000000000
-0.0556658738 0.3896611166 -0.0556658738
0.0000000000 0.4453269904 -0.1113317476
0.0556658738 0.5009928642 -0.1669976214
-0.4453269904 -0.1113317476 0.4453269904
-0.3896611166 -0.0556658738 0.3896611166
-0.3339952428 0.0000000000 0.3339952428
-0.2783293690 0.0556658738 0.2783293690
-0.2226634952 0.1113317476 0.2226634952
-0.1669976214 0.1669976214 0.1669976214
-0.1113317476 0.2226634952 0.1113317476
-0.0556658738 0.2783293690 0.0556658738
0.0000000000 0.3339952428 0.0000000000
0.0556658738 0.3896611166 -0.0556658738
0.1113317476 0.4453269904 -0.1113317476
-0.3896611166 -0.1669976214 0.5009928642
-0.3339952428 -0.1113317476 0.4453269904
-0.2783293690 -0.0556658738 0.3896611166
-0.2226634952 0.0000000000 0.3339952428
-0.1669976214 0.0556658738 0.2783293690
-0.1113317476 0.1113317476 0.2226634952
-0.0556658738 0.1669976214 0.1669976214
0.0000000000 0.2226634952 0.1113317476
0.0556658738 0.2783293690 0.0556658738
0.1113317476 0.3339952428 -0.0000000000
0.1669976214 0.3896611166 -0.0556658738
-0.3339952428 -0.2226634952 0.5566587381
-0.2783293690 -0.1669976214 0.5009928642
-0.2226634952 -0.1113317476 0.4453269904
-0.1669976214 -0.0556658738 0.3896611166
-0.1113317476 0.0000000000 0.3339952428
-0.0556658738 0.0556658738 0.2783293690
0.0000000000 0.1113317476 0.2226634952
0.0556658738 0.1669976214 0.1669976214
0.1113317476 0.2226634952 0.1113317476
0.1669976214 0.2783293690 0.0556658738
0.2226634952 0.3339952428 0.0000000000
-0.2783293690 -0.2783293690 0.6123246119
-0.2226634952 -0.2226634952 0.5566587381
-0.1669976214 -0.1669976214 0.5009928642
-0.1113317476 -0.1113317476 0.4453269904
-0.0556658738 -0.0556658738 0.3896611166
0.0000000000 0.0000000000 0.3339952428
0.0556658738 0.0556658738 0.2783293690
0.1113317476 0.1113317476 0.2226634952
0.1669976214 0.1669976214 0.1669976214
0.2226634952 0.2226634952 0.1113317476
0.2783293690 0.2783293690 0.0556658738
-0.2226634952 -0.3339952428 0.6679904857
-0.1669976214 -0.2783293690 0.6123246119
-0.1113317476 -0.2226634952 0.5566587381
-0.0556658738 -0.1669976214 0.5009928642
0.0000000000 -0.1113317476 0.4453269904
0.0556658738 -0.0556658738 0.3896611166
0.1113317476 0.0000000000 0.3339952428
0.1669976214 0.0556658738 0.2783293690
0.2226634952 0.1113317476 0.2226634952
0.2783293690 0.1669976214 0.1669976214
0.3339952428 0.2226634952 0.1113317476
-0.1669976214 -0.3896611166 0.7236563595
-0.1113317476 -0.3339952428 0.6679904857
-0.0556658738 -0.2783293690 0.6123246119
0.0000000000 -0.2226634952 0.5566587381
0.0556658738 -0.1669976214 0.5009928642
0.1113317476 -0.1113317476 0.4453269904
0.1669976214 -0.0556658738 0.3896611166
0.2226634952 0.0000000000 0.3339952428
0.2783293690 0.0556658738 0.2783293690
0.3339952428 0.1113317476 0.2226634952
0.3896611166 0.1669976214 0.1669976214
-0.7793222333 0.2226634952 0.2226634952
-0.7236563595 0.2783293690 0.1669976214
-0.6679904857 0.3339952428 0.1113317476
-0.6123246119 0.3896611166 0.0556658738
-0.5566587381 0.4453269904 0.0000000000
-0.5009928642 0.5009928642 -0.0556658738
-0.4453269904 0.5566587381 -0.1113317476
-0.3896611166 0.6123246119 -0.1669976214
-0.3339952428 0.6679904857 -0.2226634952
-0.2783293690 0.7236563595 -0.2783293690
-0.2226634952 0.7793222333 -0.3339952428
-0.7236563595 0.1669976214 0.2783293690
-0.6679904857 0.2226634952 0.2226634952
-0.6123246119 0.2783293690 0.1669976214
-0.5566587381 0.3339952428 0.1113317476
-0.5009928642 0.3896611166 0.0556658738
-0.4453269904 0.4453269904 -0.0000000000
-0.3896611166 0.5009928642 -0.0556658738
-0.3339952428 0.5566587381 -0.1113317476
-0.2783293690 0.6123246119 -0.1669976214
-0.2226634952 0.6679904857 -0.2226634952
-0.1669976214 0.7236563595 -0.2783293690
-0.6679904857 0.1113317476 0.3339952428
-0.6123246119 0.1669976214 0.2783293690
-0.5566587381 0.2226634952 0.2226634952
-0.5009928642 0.2783293690 0.1669976214
-0.4453269904 0.3339952428 0.1113317476
-0.3896611166 0.3896611166 0.0556658738
-0.3339952428 0.4453269904 -0.0000000000
-0.2783293690 0.5009928642 -0.0556658738
-0.2226634952 0.5566587381 -0.1113317476
-0.1669976214 0.6123246119 -0.1669976214
-0.1113317476 0.6679904857 -0.2226634952
-0.6123246119 0.0556658738 0.3896611166
-0.5566587381 0.1113317476 0.3339952428
-0.5009928642 0.1669976214 0.2783293690
-0.4453269904 0.2226634952 0.2226634952
-0.3896611166 0.2783293690 0.1669976214
-0.3339952428 0.3339952428 0.1113317476
-0.2783293690 0.3896611166 0.0556658738
-0.2226634952 0.4453269904 -0.0000000000
-0.1669976214 0.5009928642 -0.0556658738
-0.1113317476 0.5566587381 -0.1113317476
-0.0556658738 0.6123246119 -0.1669976214
-0.5566587381 0.0000000000 0.4453269904
-0.5009928642 0.0556658738 0.3896611166
-0.4453269904 0.1113317476 0.3339952428
-0.3896611166 0.1669976214 0.2783293690
-0.3339952428 0.2226634952 0.2226634952
-0.2783293690 0.2783293690 0.1669976214
-0.2226634952 0.3339952428 0.1113317476
-0.1669976214 0.3896611166 0.0556658738
-0.1113317476 0.4453269904 0.0000000000
-0.0556658738 0.5009928642 -0.0556658738
0.0000000000 0.5566587381 -0.1113317476
-0.5009928642 -0.0556658738 0.5009928642
-0.4453269904 0.0000000000 0.4453269904
-0.3896611166 0.0556658738 0.3896611166
-0.3339952428 0.1113317476 0.3339952428
-0.2783293690 0.1669976214 0.2783293690
-0.2226634952 0.2226634952 0.2226634952
-0.1669976214 0.2783293690 0.1669976214
-0.1113317476 0.3339952428 0.1113317476
-0.0556658738 0.3896611166 0.0556658738
0.0000000000 0.4453269904 0.0000000000
0.0556658738 0.5009928642 -0.0556658738
-0.4453269904 -0.1113317476 0.5566587381
-0.3896611166 -0.0556658738 0.5009928642
-0.3339952428 0.0000000000 0.4453269904
-0.2783293690 0.0556658738 0.3896611166
-0.2226634952 0.1113317476 0.3339952428
-0.1669976214 0.1669976214 0.2783293690
-0.1113317476 0.2226634952 0.2226634952
-0.0556658738 0.2783293690 0.1669976214
0.0000000000 0.3339952428 0.1113317476
0.0556658738 0.3896611166 0.0556658738
0.1113317476 0.4453269904 0.0000000000
-0.3896611166 -0.1669976214 0.6123246119
-0.3339952428 -0.1113317476 0.5566587381
-0.2783293690 -0.0556658738 0.5009928642
-0.2226634952 0.0000000000 0.4453269904
-0.1669976214 0.0556658738 0.3896611166
-0.1113317476 0.1113317476 0.3339952428
-0.0556658738 0.1669976214 0.2783293690
0.0000000000 0.2226634952 0.2226634952
0.0556658738 0.2783293690 0.1669976214
0.1113317476 0.3339952428 0.1113317476
0.1669976214 0.3896611166 0.0556658738
-0.3339952428 -0.2226634952 0.6679904857
-0.2783293690 -0.1669976214 0.6123246119
-0.2226634952 -0.1113317476 0.5566587381
-0.1669976214 -0.0556658738 0.5009928642
-0.1113317476 0.0000000000 0.4453269904
-0.0556658738 0.0556658738 0.3896611166
0.0000000000 0.1113317476 0.3339952428
0.0556658738 0.1669976214 0.2783293690
0.1113317476 0.2226634952 0.2226634952
0.1669976214 0.2783293690 0.1669976214
0.2226634952 0.3339952428 0.1113317476
-0.2783293690 -0.2783293690 0.7236563595
-0.2226634952 -0.2226634952 0.6679904857
-0.1669976214 -0.1669976214 0.6123246119
-0.1113317476 -0.1113317476 0.5566587381
-0.0556658738 -0.0556658738 0.5009928642
0.0000000000 0.0000000000 0.4453269904
0.0556658738 0.0556658738 0.3896611166
0.1113317476 0.1113317476 0.3339952428
0.1669976214 0.1669976214 0.2783293690
0.2226634952 0.2226634952 0.2226634952
0.2783293690 0.2783293690 0.1669976214
-0.2226634952 -0.3339952428 0.7793222333
-0.1669976214 -0.2783293690 0.7236563595
-0.1113317476 -0.2226634952 0.6679904857
-0.0556658738 -0.1669976214 0.6123246119
0.0000000000 -0.1113317476 0.5566587381
0.0556658738 -0.0556658738 0.5009928642
0.1113317476 0.0000000000 0.4453269904
0.1669976214 0.0556658738 0.3896611166
0.2226634952 0.1113317476 0.3339952428
0.2783293690 0.1669976214 0.2783293690
0.3339952428 0.2226634952 0.2226634952
-0.8349881071 0.2783293690 0.2783293690
-0.7793222333 0.3339952428 0.2226634952
-0.7236563595 0.3896611166 0.1669976214
-0.6679904857 0.4453269904 0.1113317476
-0.6123246119 0.5009928642 0.0556658738
-0.5566587381 0.5566587381 0.0000000000
-0.5009928642 0.6123246119 -0.0556658738
-0.4453269904 0.6679904857 -0.1113317476
-0.3896611166 0.7236563595 -0.1669976214
-0.3339952428 0.7793222333 -0.2226634952
-0.2783293690 0.8349881071 -0.2783293690
-0.7793222333 0.2226634952 0.3339952428
-0.7236563595 0.2783293690 0.2783293690
-0.6679904857 0.3339952428 0.2226634952
-0.6123246119 0.3896611166 0.1669976214
-0.5566587381 0.4453269904 0.1113317476
-0.5009928642 0.5009928642 0.0556658738
-0.4453269904 0.5566587381 -0.0000000000
-0.3896611166 0.6123246119 -0.0556658738
-0.3339952428 0.6679904857 -0.1113317476
-0.2783293690 0.7236563595 -0.1669976214
-0.2226634952 0.7793222333 -0.2226634952
-0.7236563595 0.1669976214 0.3896611166
-0.6679904857 0.2226634952 0.3339952428
-0.6123246119 0.2783293690 0.2783293690
-0.5566587381 0.3339952428 0.2226634952
-0.5009928642 0.3896611166 0.1669976214
-0.4453269904 0.4453269904 0.1113317476
-0.3896611166 0.5009928642 0.0556658738
-0.3339952428 0.5566587381 -0.0000000000
-0.2783293690 0.6123246119 -0.0556658738
-0.2226634952 0.6679904857 -0.1113317476
-0.1669976214 0.7236563595 -0.1669976214
-0.6679904857 0.1113317476 0.4453269904
-0.6123246119 0.1669976214 0.3896611166
-0.5566587381 0.2226634952 0.3339952428
-0.5009928642 0.2783293690 0.2783293690
-0.4453269904 0.3339952428 0.2226634952
-0.3896611166 0.3896611166 0.1669976214
-0.3339952428 0.4453269904 0.1113317476
-0.2783293690 0.5009928642 0.0556658738
-0.2226634952 0.5566587381 0.0000000000
-0.1669976214 0.6123246119 -0.0556658738
-0.1113317476 0.6679904857 -0.1113317476
-0.6123246119 0.0556658738 0.5009928642
-0.5566587381 0.1113317476 0.4453269904
-0.5009928642 0.1669976214 0.3896611166
-0.4453269904 0.2226634952 0.3339952428
-0.3896611166 0.2783293690 0.2783293690
-0.3339952428 0.3339952428 0.2226634952
-0.2783293690 0.3896611166 0.1669976214
-0.2226634952 0.4453269904 0.1113317476
-0.1669976214 0.5009928642 0.0556658738
-0.1113317476 0.5566587381 -0.0000000000
-0.0556658738 0.6123246119 -0.0556658738
-0.5566587381 0.0000000000 0.5566587381
-0.5009928642 0.0556658738 0.5009928642
-0.4453269904 0.1113317476 0.4453269904
-0.3896611166 0.1669976214 0.3896611166
-0.3339952428 0.2226634952 0.3339952428
-0.2783293690 0.2783293690 0.2783293690
-0.2226634952 0.3339952428 0.2226634952
-0.1669976214 0.3896611166 0.1669976214
-0.1113317476 0.4453269904 0.1113317476
-0.0556658738 0.5009928642 0.0556658738
0.0000000000 0.5566587381 0.0000000000
-0.5009928642 -0.0556658738 0.6123246119
-0.4453269904 -0.0000000000 0.5566587381
-0.3896611166 0.0556658738 0.5009928642
-0.3339952428 0.1113317476 0.4453269904
-0.2783293690 0.1669976214 0.3896611166
-0.2226634952 0.2226634952 0.3339952428
-0.1669976214 0.2783293690 0.2783293690
-0.1113317476 0.3339952428 0.2226634952
-0.0556658738 0.3896611166 0.1669976214
0.0000000000 0.4453269904 0.1113317476
0.0556658738 0.5009928642 0.0556658738
-0.4453269904 -0.1113317476 0.6679904857
-0.3896611166 -0.0556658738 0.6123246119
-0.3339952428 0.0000000000 0.5566587381
-0.2783293690 0.0556658738 0.5009928642
-0.2226634952 0.1113317476 0.4453269904
-0.1669976214 0.1669976214 0.3896611166
-0.1113317476 0.2226634952 0.3339952428
-0.0556658738 0.2783293690 0.2783293690
0.0000000000 0.3339952428 0.2226634952
0.0556658738 0.3896611166 0.1669976214
0.1113317476 0.4453269904 0.1113317476
-0.3896611166 -0.1669976214 0.7236563595
-0.3339952428 -0.1113317476 0.6679904857
-0.2783293690 -0.0556658738 0.6123246119
-0.2226634952 0.0000000000 0.5566587381
-0.1669976214 0.0556658738 0.5009928642
-0.1113317476 0.1113317476 0.4453269904
-0.0556658738 0.1669976214 0.3896611166
0.0000000000 0.2226634952 0.3339952428
0.0556658738 0.2783293690 0.2783293690
0.1113317476 0.3339952428 0.2226634952
0.1669976214 0.3896611166 0.1669976214
-0.3339952428 -0.2226634952 0.7793222333
-0.2783293690 -0.1669976214 0.7236563595
-0.2226634952 -0.1113317476 0.6679904857
-0.1669976214 -0.0556658738 0.6123246119
-0.1113317476 0.0000000000 0.5566587381
-0.0556658738 0.0556658738 0.5009928642
0.0000000000 0.1113317476 0.4453269904
0.0556658738 0.1669976214 0.3896611166
0.1113317476 0.2226634952 0.3339952428
0.1669976214 0.2783293690 0.2783293690
0.2226634952 0.3339952428 0.2226634952
-0.2783293690 -0.2783293690 0.8349881071
-0.2226634952 -0.2226634952 0.7793222333
-0.1669976214 -0.1669976214 0.7236563595
-0.1113317476 -0.1113317476 0.6679904857
-0.0556658738 -0.0556658738 0.6123246119
0.0000000000 0.0000000000 0.5566587381
0.0556658738 0.0556658738 0.5009928642
0.1113317476 0.1113317476 0.4453269904
0.1669976214 0.1669976214 0.3896611166
0.2226634952 0.2226634952 0.3339952428
0.2783293690 0.2783293690 0.2783293690
 There are 14 alpha and 14 beta electrons
 Start computing overlap matrix
 Allocate 98472704 B from available memory: 1048575736800 B
 Time for computing overlap matrix: 1.8550000000 s
 ====== Initialize compute kernels for all-electron RI-J (kpts) ====== 
 ========================================================== 
 Range-separated parameter omega        = 0.299999999999999989
 Threshold for 1e2c shellpair           = 0.000000000000010000
 Threshold for 2e2c SR integral         = 0.000000000000000001
 Threshold for 2e3c SR integral         = 0.000000000100000000
 Threshold for AFT G-space screening is = 0.000000000001000000
 The exponent cutoff for C/D classification (omega2 / 2) is  = 0.044999999999999998
 ========================================================== 
 === Post process the basis set for RI calculation (exp_cutoff = 0.044999999999999998 ) === 
nshells_b1 before uncontraction = 24
nshells_b1 after uncontraction = 24
nshells_baux before uncontraction = 74
nshells_baux after uncontraction = 74
===============================================
nbsf total   = 68
nbsf compact = 68
nbsf diffuse = 0
naux total   = 242
naux compact = 242
naux diffuse = 0
nshells_bnuc = 2

 Number of unique atoms is 1
 Unique atom #0 (si) has 12 shells.

Shell 0 to 11 belongs to atom si
Shell 12 to 23 belongs to atom si

 Number of unique atom is 1
 Unique atom #0 (si) has 37 auxiliary shells.

Auxiliary Shell 0 to 36 belongs to atom si
Auxiliary Shell 37 to 73 belongs to atom si

================= Automatically determine grid size for reciprocal space summation =================
 Range-separated parameter = 0.30000000000000 and G-space screening threshold = 0.00000000000100
The number of grid points along each axis dimension is (4, 4, 4)
Total number of grid points = 729

Use nonortho shellpair for diffuse density
======== Initializing relevant kernel for RIJ (CC type) ========
There are 299 shellpairs in the reference unit cell
There are 2707 images and we expect to have 809393 in total
There are 21144 shellpairs in the lattice sum after screening
****** AFT -> SR ******
Maximum bra distance cutoff is 26.000000000000
Maximum bra ket distance cutoff is 36.613925668604
Maximum bra ket screening distance is 28.531250000000
Number of auxiliary image is 1633
There are 299 shellpairs in the reference unit cell
There are 695 images and we expect to have 207805 in total
There are 21144 shellpairs in the lattice sum after screening
Available memory per thread for 2e3c calculation is 32.764914503000Gb
Finish initializing 2e3c SR with the lattice sum!
=================================================
======== Initialize the SR component for Vnuc (CC type) ========
Maximum bra distance cutoff is 26.000000000000
Maximum bra ket distance cutoff is 30.465105393952
Maximum bra ket screening distance is 22.160673009729
Number of auxiliary image is 1031
There are 299 shellpairs in the reference unit cell
There are 695 images and we expect to have 207805 in total
There are 21144 shellpairs in the lattice sum after screening
Available memory per thread for 2e3c calculation is 32.764914503000Gb
Finish initializing 2e3c SR with the lattice sum!
=================================================
 Aufbau occupation scheme, occupation determined by eigenvalue
 == 0-th k-point nmo = 68 (-0.27833,-0.27833,-0.27833) ==
 == 1-th k-point nmo = 68 (-0.22266,-0.22266,-0.33400) ==
 == 2-th k-point nmo = 68 (-0.16700,-0.16700,-0.38966) ==
 == 3-th k-point nmo = 68 (-0.11133,-0.11133,-0.44533) ==
 == 4-th k-point nmo = 68 (-0.05567,-0.05567,-0.50099) ==
 == 5-th k-point nmo = 68 (-0.00000,-0.00000,-0.55666) ==
 == 6-th k-point nmo = 68 (0.05567,0.05567,-0.61232) ==
 == 7-th k-point nmo = 68 (0.11133,0.11133,-0.66799) ==
 == 8-th k-point nmo = 68 (0.16700,0.16700,-0.72366) ==
 == 9-th k-point nmo = 68 (0.22266,0.22266,-0.77932) ==
 == 10-th k-point nmo = 68 (0.27833,0.27833,-0.83499) ==
 == 11-th k-point nmo = 68 (-0.22266,-0.33400,-0.22266) ==
 == 12-th k-point nmo = 68 (-0.16700,-0.27833,-0.27833) ==
 == 13-th k-point nmo = 68 (-0.11133,-0.22266,-0.33400) ==
 == 14-th k-point nmo = 68 (-0.05567,-0.16700,-0.38966) ==
 == 15-th k-point nmo = 68 (-0.00000,-0.11133,-0.44533) ==
 == 16-th k-point nmo = 68 (0.05567,-0.05567,-0.50099) ==
 == 17-th k-point nmo = 68 (0.11133,-0.00000,-0.55666) ==
 == 18-th k-point nmo = 68 (0.16700,0.05567,-0.61232) ==
 == 19-th k-point nmo = 68 (0.22266,0.11133,-0.66799) ==
 == 20-th k-point nmo = 68 (0.27833,0.16700,-0.72366) ==
 == 21-th k-point nmo = 68 (0.33400,0.22266,-0.77932) ==
 == 22-th k-point nmo = 68 (-0.16700,-0.38966,-0.16700) ==
 == 23-th k-point nmo = 68 (-0.11133,-0.33400,-0.22266) ==
 == 24-th k-point nmo = 68 (-0.05567,-0.27833,-0.27833) ==
 == 25-th k-point nmo = 68 (-0.00000,-0.22266,-0.33400) ==
 == 26-th k-point nmo = 68 (0.05567,-0.16700,-0.38966) ==
 == 27-th k-point nmo = 68 (0.11133,-0.11133,-0.44533) ==
 == 28-th k-point nmo = 68 (0.16700,-0.05567,-0.50099) ==
 == 29-th k-point nmo = 68 (0.22266,-0.00000,-0.55666) ==
 == 30-th k-point nmo = 68 (0.27833,0.05567,-0.61232) ==
 == 31-th k-point nmo = 68 (0.33400,0.11133,-0.66799) ==
 == 32-th k-point nmo = 68 (0.38966,0.16700,-0.72366) ==
 == 33-th k-point nmo = 68 (-0.11133,-0.44533,-0.11133) ==
 == 34-th k-point nmo = 68 (-0.05567,-0.38966,-0.16700) ==
 == 35-th k-point nmo = 68 (-0.00000,-0.33400,-0.22266) ==
 == 36-th k-point nmo = 68 (0.05567,-0.27833,-0.27833) ==
 == 37-th k-point nmo = 68 (0.11133,-0.22266,-0.33400) ==
 == 38-th k-point nmo = 68 (0.16700,-0.16700,-0.38966) ==
 == 39-th k-point nmo = 68 (0.22266,-0.11133,-0.44533) ==
 == 40-th k-point nmo = 68 (0.27833,-0.05567,-0.50099) ==
 == 41-th k-point nmo = 68 (0.33400,0.00000,-0.55666) ==
 == 42-th k-point nmo = 68 (0.38966,0.05567,-0.61232) ==
 == 43-th k-point nmo = 68 (0.44533,0.11133,-0.66799) ==
 == 44-th k-point nmo = 68 (-0.05567,-0.50099,-0.05567) ==
 == 45-th k-point nmo = 68 (-0.00000,-0.44533,-0.11133) ==
 == 46-th k-point nmo = 68 (0.05567,-0.38966,-0.16700) ==
 == 47-th k-point nmo = 68 (0.11133,-0.33400,-0.22266) ==
 == 48-th k-point nmo = 68 (0.16700,-0.27833,-0.27833) ==
 == 49-th k-point nmo = 68 (0.22266,-0.22266,-0.33400) ==
 == 50-th k-point nmo = 68 (0.27833,-0.16700,-0.38966) ==
 == 51-th k-point nmo = 68 (0.33400,-0.11133,-0.44533) ==
 == 52-th k-point nmo = 68 (0.38966,-0.05567,-0.50099) ==
 == 53-th k-point nmo = 68 (0.44533,0.00000,-0.55666) ==
 == 54-th k-point nmo = 68 (0.50099,0.05567,-0.61232) ==
 == 55-th k-point nmo = 68 (-0.00000,-0.55666,0.00000) ==
 == 56-th k-point nmo = 68 (0.05567,-0.50099,-0.05567) ==
 == 57-th k-point nmo = 68 (0.11133,-0.44533,-0.11133) ==
 == 58-th k-point nmo = 68 (0.16700,-0.38966,-0.16700) ==
 == 59-th k-point nmo = 68 (0.22266,-0.33400,-0.22266) ==
 == 60-th k-point nmo = 68 (0.27833,-0.27833,-0.27833) ==
 == 61-th k-point nmo = 68 (0.33400,-0.22266,-0.33400) ==
 == 62-th k-point nmo = 68 (0.38966,-0.16700,-0.38966) ==
 == 63-th k-point nmo = 68 (0.44533,-0.11133,-0.44533) ==
 == 64-th k-point nmo = 68 (0.50099,-0.05567,-0.50099) ==
 == 65-th k-point nmo = 68 (0.55666,0.00000,-0.55666) ==
 == 66-th k-point nmo = 68 (0.05567,-0.61232,0.05567) ==
 == 67-th k-point nmo = 68 (0.11133,-0.55666,0.00000) ==
 == 68-th k-point nmo = 68 (0.16700,-0.50099,-0.05567) ==
 == 69-th k-point nmo = 68 (0.22266,-0.44533,-0.11133) ==
 == 70-th k-point nmo = 68 (0.27833,-0.38966,-0.16700) ==
 == 71-th k-point nmo = 68 (0.33400,-0.33400,-0.22266) ==
 == 72-th k-point nmo = 68 (0.38966,-0.27833,-0.27833) ==
 == 73-th k-point nmo = 68 (0.44533,-0.22266,-0.33400) ==
 == 74-th k-point nmo = 68 (0.50099,-0.16700,-0.38966) ==
 == 75-th k-point nmo = 68 (0.55666,-0.11133,-0.44533) ==
 == 76-th k-point nmo = 68 (0.61232,-0.05567,-0.50099) ==
 == 77-th k-point nmo = 68 (0.11133,-0.66799,0.11133) ==
 == 78-th k-point nmo = 68 (0.16700,-0.61232,0.05567) ==
 == 79-th k-point nmo = 68 (0.22266,-0.55666,0.00000) ==
 == 80-th k-point nmo = 68 (0.27833,-0.50099,-0.05567) ==
 == 81-th k-point nmo = 68 (0.33400,-0.44533,-0.11133) ==
 == 82-th k-point nmo = 68 (0.38966,-0.38966,-0.16700) ==
 == 83-th k-point nmo = 68 (0.44533,-0.33400,-0.22266) ==
 == 84-th k-point nmo = 68 (0.50099,-0.27833,-0.27833) ==
 == 85-th k-point nmo = 68 (0.55666,-0.22266,-0.33400) ==
 == 86-th k-point nmo = 68 (0.61232,-0.16700,-0.38966) ==
 == 87-th k-point nmo = 68 (0.66799,-0.11133,-0.44533) ==
 == 88-th k-point nmo = 68 (0.16700,-0.72366,0.16700) ==
 == 89-th k-point nmo = 68 (0.22266,-0.66799,0.11133) ==
 == 90-th k-point nmo = 68 (0.27833,-0.61232,0.05567) ==
 == 91-th k-point nmo = 68 (0.33400,-0.55666,0.00000) ==
 == 92-th k-point nmo = 68 (0.38966,-0.50099,-0.05567) ==
 == 93-th k-point nmo = 68 (0.44533,-0.44533,-0.11133) ==
 == 94-th k-point nmo = 68 (0.50099,-0.38966,-0.16700) ==
 == 95-th k-point nmo = 68 (0.55666,-0.33400,-0.22266) ==
 == 96-th k-point nmo = 68 (0.61232,-0.27833,-0.27833) ==
 == 97-th k-point nmo = 68 (0.66799,-0.22266,-0.33400) ==
 == 98-th k-point nmo = 68 (0.72366,-0.16700,-0.38966) ==
 == 99-th k-point nmo = 68 (0.22266,-0.77932,0.22266) ==
 == 100-th k-point nmo = 68 (0.27833,-0.72366,0.16700) ==
 == 101-th k-point nmo = 68 (0.33400,-0.66799,0.11133) ==
 == 102-th k-point nmo = 68 (0.38966,-0.61232,0.05567) ==
 == 103-th k-point nmo = 68 (0.44533,-0.55666,0.00000) ==
 == 104-th k-point nmo = 68 (0.50099,-0.50099,-0.05567) ==
 == 105-th k-point nmo = 68 (0.55666,-0.44533,-0.11133) ==
 == 106-th k-point nmo = 68 (0.61232,-0.38966,-0.16700) ==
 == 107-th k-point nmo = 68 (0.66799,-0.33400,-0.22266) ==
 == 108-th k-point nmo = 68 (0.72366,-0.27833,-0.27833) ==
 == 109-th k-point nmo = 68 (0.77932,-0.22266,-0.33400) ==
 == 110-th k-point nmo = 68 (0.27833,-0.83499,0.27833) ==
 == 111-th k-point nmo = 68 (0.33400,-0.77932,0.22266) ==
 == 112-th k-point nmo = 68 (0.38966,-0.72366,0.16700) ==
 == 113-th k-point nmo = 68 (0.44533,-0.66799,0.11133) ==
 == 114-th k-point nmo = 68 (0.50099,-0.61232,0.05567) ==
 == 115-th k-point nmo = 68 (0.55666,-0.55666,0.00000) ==
 == 116-th k-point nmo = 68 (0.61232,-0.50099,-0.05567) ==
 == 117-th k-point nmo = 68 (0.66799,-0.44533,-0.11133) ==
 == 118-th k-point nmo = 68 (0.72366,-0.38966,-0.16700) ==
 == 119-th k-point nmo = 68 (0.77932,-0.33400,-0.22266) ==
 == 120-th k-point nmo = 68 (0.83499,-0.27833,-0.27833) ==
 == 121-th k-point nmo = 68 (-0.33400,-0.22266,-0.22266) ==
 == 122-th k-point nmo = 68 (-0.27833,-0.16700,-0.27833) ==
 == 123-th k-point nmo = 68 (-0.22266,-0.11133,-0.33400) ==
 == 124-th k-point nmo = 68 (-0.16700,-0.05567,-0.38966) ==
 == 125-th k-point nmo = 68 (-0.11133,-0.00000,-0.44533) ==
 == 126-th k-point nmo = 68 (-0.05567,0.05567,-0.50099) ==
 == 127-th k-point nmo = 68 (-0.00000,0.11133,-0.55666) ==
 == 128-th k-point nmo = 68 (0.05567,0.16700,-0.61232) ==
 == 129-th k-point nmo = 68 (0.11133,0.22266,-0.66799) ==
 == 130-th k-point nmo = 68 (0.16700,0.27833,-0.72366) ==
 == 131-th k-point nmo = 68 (0.22266,0.33400,-0.77932) ==
 == 132-th k-point nmo = 68 (-0.27833,-0.27833,-0.16700) ==
 == 133-th k-point nmo = 68 (-0.22266,-0.22266,-0.22266) ==
 == 134-th k-point nmo = 68 (-0.16700,-0.16700,-0.27833) ==
 == 135-th k-point nmo = 68 (-0.11133,-0.11133,-0.33400) ==
 == 136-th k-point nmo = 68 (-0.05567,-0.05567,-0.38966) ==
 == 137-th k-point nmo = 68 (-0.00000,-0.00000,-0.44533) ==
 == 138-th k-point nmo = 68 (0.05567,0.05567,-0.50099) ==
 == 139-th k-point nmo = 68 (0.11133,0.11133,-0.55666) ==
 == 140-th k-point nmo = 68 (0.16700,0.16700,-0.61232) ==
 == 141-th k-point nmo = 68 (0.22266,0.22266,-0.66799) ==
 == 142-th k-point nmo = 68 (0.27833,0.27833,-0.72366) ==
 == 143-th k-point nmo = 68 (-0.22266,-0.33400,-0.11133) ==
 == 144-th k-point nmo = 68 (-0.16700,-0.27833,-0.16700) ==
 == 145-th k-point nmo = 68 (-0.11133,-0.22266,-0.22266) ==
 == 146-th k-point nmo = 68 (-0.05567,-0.16700,-0.27833) ==
 == 147-th k-point nmo = 68 (-0.00000,-0.11133,-0.33400) ==
 == 148-th k-point nmo = 68 (0.05567,-0.05567,-0.38966) ==
 == 149-th k-point nmo = 68 (0.11133,-0.00000,-0.44533) ==
 == 150-th k-point nmo = 68 (0.16700,0.05567,-0.50099) ==
 == 151-th k-point nmo = 68 (0.22266,0.11133,-0.55666) ==
 == 152-th k-point nmo = 68 (0.27833,0.16700,-0.61232) ==
 == 153-th k-point nmo = 68 (0.33400,0.22266,-0.66799) ==
 == 154-th k-point nmo = 68 (-0.16700,-0.38966,-0.05567) ==
 == 155-th k-point nmo = 68 (-0.11133,-0.33400,-0.11133) ==
 == 156-th k-point nmo = 68 (-0.05567,-0.27833,-0.16700) ==
 == 157-th k-point nmo = 68 (-0.00000,-0.22266,-0.22266) ==
 == 158-th k-point nmo = 68 (0.05567,-0.16700,-0.27833) ==
 == 159-th k-point nmo = 68 (0.11133,-0.11133,-0.33400) ==
 == 160-th k-point nmo = 68 (0.16700,-0.05567,-0.38966) ==
 == 161-th k-point nmo = 68 (0.22266,-0.00000,-0.44533) ==
 == 162-th k-point nmo = 68 (0.27833,0.05567,-0.50099) ==
 == 163-th k-point nmo = 68 (0.33400,0.11133,-0.55666) ==
 == 164-th k-point nmo = 68 (0.38966,0.16700,-0.61232) ==
 == 165-th k-point nmo = 68 (-0.11133,-0.44533,0.00000) ==
 == 166-th k-point nmo = 68 (-0.05567,-0.38966,-0.05567) ==
 == 167-th k-point nmo = 68 (-0.00000,-0.33400,-0.11133) ==
 == 168-th k-point nmo = 68 (0.05567,-0.27833,-0.16700) ==
 == 169-th k-point nmo = 68 (0.11133,-0.22266,-0.22266) ==
 == 170-th k-point nmo = 68 (0.16700,-0.16700,-0.27833) ==
 == 171-th k-point nmo = 68 (0.22266,-0.11133,-0.33400) ==
 == 172-th k-point nmo = 68 (0.27833,-0.05567,-0.38966) ==
 == 173-th k-point nmo = 68 (0.33400,-0.00000,-0.44533) ==
 == 174-th k-point nmo = 68 (0.38966,0.05567,-0.50099) ==
 == 175-th k-point nmo = 68 (0.44533,0.11133,-0.55666) ==
 == 176-th k-point nmo = 68 (-0.05567,-0.50099,0.05567) ==
 == 177-th k-point nmo = 68 (-0.00000,-0.44533,0.00000) ==
 == 178-th k-point nmo = 68 (0.05567,-0.38966,-0.05567) ==
 == 179-th k-point nmo = 68 (0.11133,-0.33400,-0.11133) ==
 == 180-th k-point nmo = 68 (0.16700,-0.27833,-0.16700) ==
 == 181-th k-point nmo = 68 (0.22266,-0.22266,-0.22266) ==
 == 182-th k-point nmo = 68 (0.27833,-0.16700,-0.27833) ==
 == 183-th k-point nmo = 68 (0.33400,-0.11133,-0.33400) ==
 == 184-th k-point nmo = 68 (0.38966,-0.05567,-0.38966) ==
 == 185-th k-point nmo = 68 (0.44533,0.00000,-0.44533) ==
 == 186-th k-point nmo = 68 (0.50099,0.05567,-0.50099) ==
 == 187-th k-point nmo = 68 (-0.00000,-0.55666,0.11133) ==
 == 188-th k-point nmo = 68 (0.05567,-0.50099,0.05567) ==
 == 189-th k-point nmo = 68 (0.11133,-0.44533,-0.00000) ==
 == 190-th k-point nmo = 68 (0.16700,-0.38966,-0.05567) ==
 == 191-th k-point nmo = 68 (0.22266,-0.33400,-0.11133) ==
 == 192-th k-point nmo = 68 (0.27833,-0.27833,-0.16700) ==
 == 193-th k-point nmo = 68 (0.33400,-0.22266,-0.22266) ==
 == 194-th k-point nmo = 68 (0.38966,-0.16700,-0.27833) ==
 == 195-th k-point nmo = 68 (0.44533,-0.11133,-0.33400) ==
 == 196-th k-point nmo = 68 (0.50099,-0.05567,-0.38966) ==
 == 197-th k-point nmo = 68 (0.55666,0.00000,-0.44533) ==
 == 198-th k-point nmo = 68 (0.05567,-0.61232,0.16700) ==
 == 199-th k-point nmo = 68 (0.11133,-0.55666,0.11133) ==
 == 200-th k-point nmo = 68 (0.16700,-0.50099,0.05567) ==
 == 201-th k-point nmo = 68 (0.22266,-0.44533,0.00000) ==
 == 202-th k-point nmo = 68 (0.27833,-0.38966,-0.05567) ==
 == 203-th k-point nmo = 68 (0.33400,-0.33400,-0.11133) ==
 == 204-th k-point nmo = 68 (0.38966,-0.27833,-0.16700) ==
 == 205-th k-point nmo = 68 (0.44533,-0.22266,-0.22266) ==
 == 206-th k-point nmo = 68 (0.50099,-0.16700,-0.27833) ==
 == 207-th k-point nmo = 68 (0.55666,-0.11133,-0.33400) ==
 == 208-th k-point nmo = 68 (0.61232,-0.05567,-0.38966) ==
 == 209-th k-point nmo = 68 (0.11133,-0.66799,0.22266) ==
 == 210-th k-point nmo = 68 (0.16700,-0.61232,0.16700) ==
 == 211-th k-point nmo = 68 (0.22266,-0.55666,0.11133) ==
 == 212-th k-point nmo = 68 (0.27833,-0.50099,0.05567) ==
 == 213-th k-point nmo = 68 (0.33400,-0.44533,0.00000) ==
 == 214-th k-point nmo = 68 (0.38966,-0.38966,-0.05567) ==
 == 215-th k-point nmo = 68 (0.44533,-0.33400,-0.11133) ==
 == 216-th k-point nmo = 68 (0.50099,-0.27833,-0.16700) ==
 == 217-th k-point nmo = 68 (0.55666,-0.22266,-0.22266) ==
[...]
 2.98771 3.06797 3.68801 3.70118 3.75495 3.77344 6.38757 6.61289
 == 1301-th k-point (-0.22266,0.00000,0.55666) occupation: 14==
 -64.99276 -64.99275 -4.62159 -4.62155 -3.03250 -3.03250 -3.03215 -3.03207 -3.03172 -3.03172
 -0.02705 0.01358 0.13316 0.14727 0.38827 0.39610 0.48564 0.54506 0.63865 0.69486
 0.74487 0.79297 0.86206 0.89835 0.91556 0.97121 0.98181 1.03771 1.07232 1.07662
 1.15728 1.19344 1.23396 1.31237 1.43349 1.48120 1.51223 1.51772 1.57017 1.59183
 1.75880 1.77045 1.84486 1.85359 1.94219 1.95866 2.00897 2.01996 2.07084 2.12110
 2.18259 2.19826 2.27220 2.30877 2.39762 2.44957 2.49118 2.49578 2.66376 2.73179
 2.95444 3.09316 3.65355 3.75359 3.77065 3.77800 6.50824 6.59322
 == 1302-th k-point (-0.16700,0.05567,0.50099) occupation: 14==
 -64.99276 -64.99275 -4.62161 -4.62153 -3.03250 -3.03248 -3.03220 -3.03203 -3.03174 -3.03172
 -0.05200 0.03650 0.13930 0.17090 0.34242 0.39182 0.50112 0.58081 0.62661 0.69972
 0.73076 0.79443 0.82710 0.84719 0.92191 0.95620 1.02385 1.05129 1.06241 1.13099
 1.15981 1.19612 1.23913 1.33133 1.42304 1.48093 1.53430 1.56787 1.61389 1.67526
 1.71594 1.74929 1.81941 1.86048 1.88821 1.92682 2.00933 2.01516 2.07926 2.12683
 2.17043 2.22953 2.27920 2.34699 2.37885 2.41354 2.43258 2.51945 2.63011 2.74768
 2.95462 3.19994 3.59299 3.77318 3.84096 3.90635 6.23546 7.15493
 == 1303-th k-point (-0.11133,0.11133,0.44533) occupation: 14==
 -64.99277 -64.99274 -4.62162 -4.62151 -3.03250 -3.03249 -3.03224 -3.03199 -3.03175 -3.03173
 -0.07367 0.05820 0.15262 0.18830 0.32661 0.39863 0.51102 0.51894 0.68921 0.70616
 0.71727 0.72020 0.79648 0.86288 0.92380 0.98291 0.98630 1.01816 1.09797 1.14839
 1.22960 1.23938 1.25720 1.39894 1.40533 1.45744 1.54802 1.54985 1.65193 1.66985
 1.71414 1.72244 1.80093 1.81919 1.85860 1.96363 2.04015 2.04093 2.07160 2.08354
 2.16014 2.25398 2.29019 2.31901 2.37353 2.39154 2.42692 2.52776 2.55492 2.74631
 3.22474 3.39277 3.53012 3.79991 3.92701 4.03081 5.65295 7.88213
 == 1304-th k-point (-0.05567,0.16700,0.38966) occupation: 14==
 -64.99277 -64.99275 -4.62164 -4.62150 -3.03249 -3.03248 -3.03228 -3.03196 -3.03176 -3.03174
 -0.08943 0.07730 0.15966 0.19574 0.35618 0.41549 0.45098 0.51672 0.63015 0.67683
 0.72324 0.75019 0.80606 0.83793 0.90990 0.96885 1.00419 1.05289 1.10952 1.17993
 1.22803 1.26299 1.32113 1.40827 1.41877 1.44271 1.54544 1.56144 1.59980 1.66279
 1.68905 1.70550 1.76872 1.85458 1.88813 1.95662 1.98733 2.02358 2.05727 2.14254
 2.16368 2.21753 2.25645 2.31760 2.36058 2.40035 2.41739 2.50613 2.58595 2.75866
 3.10824 3.43339 3.49323 3.86297 3.92565 4.01313 6.45295 7.60937
 == 1305-th k-point (0.00000,0.22266,0.33400) occupation: 14==
 -64.99277 -64.99276 -4.62165 -4.62149 -3.03248 -3.03247 -3.03231 -3.03193 -3.03178 -3.03175
 -0.09835 0.08881 0.15035 0.21976 0.39936 0.40306 0.45086 0.49079 0.56296 0.66677
 0.72584 0.74694 0.78579 0.88531 0.89167 0.99056 0.99168 1.10177 1.10670 1.22347
 1.24618 1.25381 1.32587 1.37815 1.42169 1.47066 1.55173 1.55419 1.57858 1.65663
 1.68971 1.71558 1.74312 1.84083 1.92420 1.93247 1.94100 2.02209 2.07603 2.15178
 2.16486 2.19338 2.23910 2.32780 2.38262 2.38422 2.47507 2.50498 2.62499 2.71417
 2.94879 3.46965 3.48517 3.90541 3.97145 4.00450 7.00393 7.45637
 == 1306-th k-point (0.05567,0.27833,0.27833) occupation: 14==
 -64.99277 -64.99276 -4.62165 -4.62149 -3.03247 -3.03247 -3.03232 -3.03191 -3.03178 -3.03175
 -0.10010 0.08191 0.15837 0.23448 0.37567 0.43405 0.43928 0.51217 0.52651 0.65359
 0.72185 0.73350 0.79855 0.88976 0.91335 0.94418 1.02161 1.11385 1.15650 1.19972
 1.23260 1.27286 1.34610 1.38969 1.41881 1.42428 1.52369 1.58476 1.58667 1.64091
 1.65726 1.76674 1.76878 1.78668 1.89566 1.91488 1.96222 2.05453 2.07121 2.13654
 2.18375 2.19327 2.31230 2.33329 2.37417 2.40810 2.51157 2.53548 2.62133 2.64065
 2.95752 3.47414 3.50022 3.90484 3.96625 4.05960 6.95680 7.63299
 == 1307-th k-point (0.11133,0.33400,0.22266) occupation: 14==
 -64.99277 -64.99275 -4.62165 -4.62149 -3.03248 -3.03248 -3.03232 -3.03191 -3.03178 -3.03175
 -0.09472 0.06595 0.17737 0.22021 0.37710 0.40177 0.45583 0.49165 0.60288 0.64430
 0.71531 0.72852 0.80768 0.85755 0.92579 0.95691 1.02283 1.10866 1.14292 1.18802
 1.22969 1.28966 1.33824 1.38389 1.44391 1.48560 1.48979 1.52761 1.56142 1.61857
 1.65470 1.75729 1.78227 1.82139 1.89239 1.93648 1.99070 2.03227 2.05980 2.14344
 2.21671 2.23659 2.27980 2.32306 2.39526 2.44482 2.46937 2.52474 2.57720 2.65350
 3.14181 3.47402 3.49987 3.84651 3.98249 4.05340 6.34719 7.90023
 == 1308-th k-point (0.16700,0.38966,0.16700) occupation: 14==
 -64.99277 -64.99274 -4.62163 -4.62150 -3.03249 -3.03249 -3.03229 -3.03194 -3.03176 -3.03175
 -0.08257 0.05154 0.17373 0.20476 0.34859 0.44271 0.46331 0.47358 0.64846 0.69073
 0.70996 0.71740 0.75844 0.88280 0.95789 0.96747 1.02479 1.06432 1.10357 1.17758
 1.20180 1.31235 1.32864 1.39471 1.41752 1.46655 1.49210 1.52562 1.59591 1.63363
 1.64005 1.74275 1.79380 1.81269 1.88022 1.98553 2.00277 2.01112 2.08573 2.14116
 2.20835 2.26252 2.28971 2.33649 2.40674 2.41587 2.43139 2.52288 2.56350 2.66512
 3.30412 3.50094 3.50908 3.76757 3.98520 4.01732 5.78976 8.08540
 == 1309-th k-point (-0.33400,-0.22266,0.77932) occupation: 14==
 -64.99277 -64.99274 -4.62163 -4.62151 -3.03248 -3.03248 -3.03230 -3.03193 -3.03177 -3.03175
 -0.07191 0.02952 0.17378 0.21227 0.37658 0.39397 0.45370 0.54618 0.60381 0.65201
 0.69856 0.75194 0.78571 0.85449 0.94907 1.03729 1.04874 1.06778 1.12194 1.15765
 1.21854 1.31597 1.32964 1.35189 1.42854 1.43991 1.48777 1.51214 1.55791 1.63013
 1.65559 1.72505 1.79577 1.85170 1.89421 1.93368 1.95753 2.02698 2.08012 2.18434
 2.20587 2.25652 2.31183 2.37133 2.44306 2.45742 2.49019 2.51213 2.57344 2.61541
 3.17527 3.33659 3.55254 3.67291 3.99935 4.06546 6.17271 7.58337
 == 1310-th k-point (-0.27833,-0.16700,0.72366) occupation: 14==
 -64.99276 -64.99275 -4.62161 -4.62152 -3.03249 -3.03248 -3.03225 -3.03198 -3.03175 -3.03173
 -0.05457 0.02676 0.13702 0.19323 0.36937 0.42625 0.51085 0.53040 0.54808 0.65464
 0.73493 0.76747 0.86572 0.88713 0.93196 0.97597 1.01433 1.05716 1.08931 1.13308
 1.22280 1.25419 1.29070 1.35223 1.39000 1.45236 1.49026 1.51179 1.58425 1.64041
 1.67384 1.77708 1.79306 1.84657 1.89073 1.92024 1.93134 2.01583 2.10429 2.14697
 2.19091 2.25870 2.27488 2.35215 2.44921 2.45340 2.47515 2.55000 2.59115 2.69403
 2.98514 3.22201 3.61442 3.65546 3.91039 3.97555 6.29493 7.15439
 == 1311-th k-point (-0.22266,-0.11133,0.66799) occupation: 14==
 -64.99276 -64.99275 -4.62160 -4.62154 -3.03250 -3.03248 -3.03219 -3.03204 -3.03174 -3.03171
 -0.03454 0.01795 0.11996 0.17524 0.35047 0.45075 0.48960 0.54921 0.58054 0.65832
 0.77057 0.81082 0.86556 0.88444 0.93390 0.96410 0.98356 1.01637 1.09804 1.12454
 1.14245 1.22116 1.24871 1.33968 1.39940 1.42801 1.50733 1.55464 1.57924 1.61581
 1.76294 1.81121 1.81697 1.84622 1.89856 1.93923 1.96709 2.01066 2.06033 2.15134
 2.18862 2.24042 2.29001 2.36488 2.39222 2.44719 2.44936 2.56455 2.60239 2.70589
 2.94631 3.10165 3.65712 3.68307 3.83941 3.85899 6.10101 7.03499
 == 1312-th k-point (-0.16700,-0.05567,0.61232) occupation: 14==
 -64.99276 -64.99275 -4.62158 -4.62156 -3.03250 -3.03249 -3.03214 -3.03209 -3.03173 -3.03172
 -0.01523 -0.00142 0.13144 0.16309 0.33752 0.38409 0.55452 0.56325 0.64198 0.66742
 0.76432 0.79563 0.86049 0.88649 0.90996 0.93109 0.99904 1.04402 1.08231 1.10356
 1.16859 1.16933 1.22000 1.24675 1.43812 1.48898 1.53782 1.53800 1.61009 1.63807
 1.78979 1.80721 1.82952 1.83656 1.91095 1.94285 2.00476 2.02118 2.06966 2.12526
 2.19822 2.21027 2.29978 2.32885 2.39233 2.41789 2.46556 2.55715 2.66119 2.70710
 2.97362 2.98496 3.68877 3.72282 3.79783 3.84129 6.15118 6.95564
 == 1313-th k-point (-0.11133,0.00000,0.55666) occupation: 14==
 -64.99275 -64.99275 -4.62159 -4.62155 -3.03250 -3.03249 -3.03215 -3.03207 -3.03173 -3.03173
 -0.03401 0.01513 0.15591 0.16037 0.32699 0.33718 0.57177 0.62265 0.65240 0.70495
 0.73125 0.78498 0.79523 0.85594 0.90893 0.96490 1.02165 1.05591 1.07129 1.08127
 1.17715 1.17825 1.20104 1.25326 1.45017 1.45813 1.58170 1.58632 1.67747 1.69636
 1.74945 1.79661 1.82739 1.83007 1.89864 1.91791 1.99677 2.07545 2.10613 2.13312
 2.16894 2.20795 2.28595 2.31936 2.36149 2.38709 2.48983 2.54398 2.67599 2.75512
 2.90148 3.06918 3.67643 3.78330 3.85151 3.92829 6.50740 6.51522
 == 1314-th k-point (-0.05567,0.05567,0.50099) occupation: 14==
 -64.99276 -64.99273 -4.62161 -4.62153 -3.03250 -3.03250 -3.03219 -3.03203 -3.03175 -3.03174
 -0.05827 0.04190 0.16061 0.17642 0.30875 0.33959 0.58077 0.58108 0.70765 0.70997
 0.72311 0.72702 0.81847 0.85044 0.87910 0.97019 0.97639 1.01633 1.11068 1.16571
 1.17132 1.20500 1.22274 1.31276 1.41061 1.44739 1.60833 1.61008 1.67397 1.72111
 1.75044 1.77278 1.81600 1.83774 1.85014 1.93183 2.00696 2.01818 2.13776 2.14503
 2.14967 2.20178 2.28761 2.31824 2.33108 2.37164 2.46297 2.54704 2.57386 2.81853
 3.13990 3.21288 3.61323 3.83963 3.96145 4.11190 5.52578 6.98397
 == 1315-th k-point (0.00000,0.11133,0.44533) occupation: 14==
 -64.99275 -64.99275 -4.62163 -4.62151 -3.03250 -3.03249 -3.03223 -3.03200 -3.03175 -3.03174
 -0.07716 0.06691 0.16309 0.17752 0.32941 0.36151 0.51441 0.56729 0.65901 0.69938
 0.72092 0.78117 0.80325 0.83550 0.90259 0.92001 0.99081 1.02140 1.14192 1.16074
 1.19913 1.23630 1.28451 1.33905 1.42608 1.43218 1.58148 1.60274 1.63641 1.69770
 1.72339 1.73034 1.80015 1.84614 1.86853 1.91852 1.98435 2.08465 2.09004 2.11884
 2.15774 2.21424 2.23816 2.33044 2.33092 2.38009 2.39682 2.51503 2.57976 2.84726
 3.11147 3.35174 3.52686 3.86699 3.88357 4.04742 6.67393 6.74861
 == 1316-th k-point (0.05567,0.16700,0.38966) occupation: 14==
 -64.99277 -64.99275 -4.62164 -4.62150 -3.03249 -3.03248 -3.03228 -3.03196 -3.03176 -3.03174
 -0.08943 0.07730 0.15966 0.19574 0.35618 0.41549 0.45098 0.51672 0.63015 0.67683
 0.72324 0.75019 0.80606 0.83793 0.90990 0.96885 1.00419 1.05289 1.10952 1.17993
 1.22803 1.26299 1.32113 1.40827 1.41877 1.44271 1.54544 1.56144 1.59980 1.66279
 1.68905 1.70550 1.76872 1.85458 1.88813 1.95662 1.98733 2.02358 2.05727 2.14254
 2.16368 2.21753 2.25645 2.31760 2.36058 2.40035 2.41739 2.50613 2.58595 2.75866
 3.10824 3.43339 3.49323 3.86297 3.92565 4.01313 6.45295 7.60937
 == 1317-th k-point (0.11133,0.22266,0.33400) occupation: 14==
 -64.99277 -64.99275 -4.62165 -4.62149 -3.03248 -3.03248 -3.03232 -3.03191 -3.03178 -3.03175
 -0.09472 0.06595 0.17737 0.22021 0.37710 0.40177 0.45583 0.49165 0.60288 0.64430
 0.71531 0.72852 0.80768 0.85755 0.92579 0.95691 1.02283 1.10866 1.14292 1.18802
 1.22969 1.28966 1.33824 1.38389 1.44391 1.48560 1.48979 1.52761 1.56142 1.61857
 1.65470 1.75729 1.78227 1.82139 1.89239 1.93648 1.99070 2.03227 2.05980 2.14344
 2.21671 2.23659 2.27980 2.32306 2.39526 2.44482 2.46937 2.52474 2.57720 2.65350
 3.14181 3.47402 3.49987 3.84651 3.98249 4.05340 6.34719 7.90023
 == 1318-th k-point (0.16700,0.27833,0.27833) occupation: 14==
 -64.99278 -64.99273 -4.62164 -4.62149 -3.03248 -3.03247 -3.03234 -3.03189 -3.03178 -3.03177
 -0.09314 0.04906 0.20231 0.23413 0.35915 0.40815 0.41140 0.56470 0.58116 0.62547
 0.69992 0.72919 0.81859 0.82426 0.91485 0.98645 1.05412 1.14897 1.16199 1.20194
 1.23008 1.24850 1.34895 1.39868 1.44328 1.45848 1.46455 1.52149 1.55588 1.59638
 1.62061 1.72603 1.84657 1.85315 1.89728 1.91487 2.02658 2.03492 2.03622 2.18301
 2.23630 2.27870 2.28154 2.36207 2.43671 2.45466 2.49444 2.51945 2.52927 2.58517
 3.20585 3.48155 3.49118 3.78153 4.04119 4.08765 5.34369 8.07118
 == 1319-th k-point (0.22266,0.33400,0.22266) occupation: 14==
 -64.99277 -64.99272 -4.62164 -4.62149 -3.03248 -3.03248 -3.03233 -3.03189 -3.03178 -3.03177
 -0.08522 0.03617 0.21032 0.22186 0.35624 0.39903 0.42143 0.55136 0.61088 0.67198
 0.69253 0.72185 0.75491 0.83739 0.94003 1.01894 1.06925 1.10857 1.15410 1.18131
 1.24058 1.30194 1.32470 1.38468 1.40720 1.45773 1.49636 1.50566 1.55253 1.59694
 1.60986 1.71096 1.84092 1.85262 1.90781 1.95885 2.00134 2.02112 2.06519 2.17836
 2.25684 2.28463 2.30774 2.38037 2.44714 2.45955 2.47092 2.49771 2.53923 2.57684
 3.36323 3.49431 3.49883 3.70633 4.06764 4.07095 4.85776 8.04225
 == 1320-th k-point (-0.27833,-0.27833,0.83499) occupation: 14==
 -64.99277 -64.99272 -4.62163 -4.62150 -3.03248 -3.03247 -3.03232 -3.03189 -3.03178 -3.03176
 -0.07517 0.02125 0.20367 0.22562 0.35540 0.40111 0.41452 0.57702 0.63033 0.64369
 0.69621 0.74651 0.75737 0.78285 0.99732 1.03839 1.08766 1.09709 1.14344 1.15964
 1.25798 1.27437 1.33709 1.36712 1.39216 1.45999 1.47696 1.51062 1.57852 1.59118
 1.64611 1.67031 1.84099 1.87235 1.94046 1.95437 1.96108 2.03948 2.04608 2.12902
 2.31989 2.33276 2.36150 2.38468 2.39627 2.45385 2.49105 2.50159 2.51852 2.54933
 3.28782 3.40811 3.53995 3.61045 4.07120 4.09758 4.86596 7.68632
 == 1321-th k-point (-0.22266,-0.22266,0.77932) occupation: 14==
 -64.99277 -64.99274 -4.62162 -4.62151 -3.03248 -3.03248 -3.03228 -3.03194 -3.03176 -3.03174
 -0.06462 0.02514 0.16125 0.20961 0.35247 0.43789 0.45243 0.53459 0.61579 0.63846
 0.71335 0.76336 0.78092 0.87068 0.98944 0.99784 1.03581 1.07756 1.10420 1.11537
 1.24128 1.29875 1.31579 1.33416 1.42951 1.43533 1.46922 1.53925 1.59357 1.62672
 1.66118 1.73628 1.80534 1.82819 1.89309 1.91943 1.96813 2.01226 2.09477 2.18200
 2.20064 2.26529 2.32669 2.36112 2.41059 2.44331 2.46899 2.54061 2.54323 2.64650
 3.17080 3.34917 3.58581 3.62963 3.99775 4.03309 5.97558 7.59972
 == 1322-th k-point (-0.16700,-0.16700,0.72366) occupation: 14==
 -64.99277 -64.99274 -4.62161 -4.62153 -3.03249 -3.03249 -3.03223 -3.03200 -3.03175 -3.03172
 -0.05088 0.02837 0.13144 0.19247 0.33172 0.45415 0.50447 0.50662 0.63094 0.63998
 0.77346 0.77702 0.78908 0.93947 0.95052 0.96399 0.98935 1.03731 1.05832 1.15410
 1.20093 1.22264 1.23095 1.39235 1.41821 1.45257 1.46309 1.52832 1.62687 1.67255
 1.73319 1.76599 1.81012 1.82951 1.87481 1.92068 1.99478 1.99573 2.09411 2.13455
 2.17190 2.27556 2.29724 2.38373 2.39815 2.40989 2.43948 2.53422 2.56971 2.70342
 3.08140 3.18852 3.60210 3.69361 3.91789 3.95112 5.69594 7.62641
 == 1323-th k-point (-0.11133,-0.11133,0.66799) occupation: 14==
 -64.99277 -64.99274 -4.62159 -4.62155 -3.03249 -3.03248 -3.03217 -3.03206 -3.03175 -3.03172
 -0.03331 0.01539 0.13180 0.17913 0.31516 0.38368 0.57011 0.57563 0.64146 0.64850
 0.78148 0.78571 0.85160 0.86024 0.88413 0.97482 1.01469 1.04458 1.07293 1.14056
 1.14291 1.17571 1.20490 1.29878 1.41270 1.49933 1.52498 1.53990 1.68044 1.70894
 1.77736 1.79219 1.81314 1.85541 1.86095 1.93477 2.01712 2.03239 2.05090 2.14050
 2.17408 2.23812 2.27794 2.35977 2.37210 2.43063 2.48262 2.50308 2.59243 2.72184
 2.97660 2.99909 3.65032 3.73908 3.85603 3.96528 5.49115 7.53515
 == 1324-th k-point (-0.05567,-0.05567,0.61232) occupation: 14==
 -64.99276 -64.99273 -4.62157 -4.62156 -3.03249 -3.03248 -3.03212 -3.03210 -3.03175 -3.03173
 -0.01288 -0.00881 0.15443 0.17162 0.30637 0.32801 0.62732 0.63546 0.66210 0.67061
 0.77174 0.77633 0.77801 0.79786 0.95549 0.98699 1.03605 1.05150 1.07904 1.08332
 1.10476 1.15240 1.22645 1.26748 1.41942 1.46239 1.59497 1.59766 1.73072 1.77181
 1.77574 1.78502 1.78816 1.85111 1.88951 1.91882 2.07101 2.08037 2.09531 2.16579
 2.18877 2.19362 2.24303 2.31096 2.35406 2.38534 2.57806 2.58577 2.60153 2.73719
 2.84767 2.91296 3.75984 3.76282 3.92256 4.04698 5.43558 6.88343
 == 1325-th k-point (0.00000,0.00000,0.55666) occupation: 14==
 -64.99273 -64.99273 -4.62159 -4.62155 -3.03249 -3.03249 -3.03215 -3.03207 -3.03176 -3.03176
 -0.03676 0.01499 0.17069 0.17069 0.29958 0.31185 0.63124 0.63124 0.71607 0.71607
 0.72053 0.73155 0.77813 0.78609 0.96214 1.00521 1.00521 1.00577 1.10690 1.10690
 1.12708 1.14903 1.25153 1.29628 1.41882 1.41882 1.63557 1.63557 1.73542 1.74615
 1.76220 1.76984 1.82387 1.88357 1.88357 1.90362 2.03663 2.03663 2.15286 2.15328
 2.19593 2.19593 2.27568 2.27568 2.31189 2.35809 2.56245 2.60255 2.60255 2.77812
 2.99660 2.99660 3.74420 3.90275 4.15427 4.15427 5.39378 5.54393
 == 1326-th k-point (0.05567,0.05567,0.50099) occupation: 14==
 -64.99276 -64.99273 -4.62161 -4.62153 -3.03250 -3.03250 -3.03219 -3.03203 -3.03175 -3.03174
 -0.05827 0.04190 0.16061 0.17642 0.30875 0.33959 0.58077 0.58108 0.70765 0.70997
 0.72311 0.72702 0.81847 0.85044 0.87910 0.97019 0.97639 1.01633 1.11068 1.16571
 1.17132 1.20500 1.22274 1.31276 1.41061 1.44739 1.60833 1.61008 1.67397 1.72111
 1.75044 1.77278 1.81600 1.83774 1.85014 1.93183 2.00696 2.01818 2.13776 2.14503
 2.14967 2.20178 2.28761 2.31824 2.33108 2.37164 2.46297 2.54704 2.57386 2.81853
 3.13990 3.21287 3.61323 3.83963 3.96145 4.11190 5.52578 6.98397
 == 1327-th k-point (0.11133,0.11133,0.44533) occupation: 14==
 -64.99277 -64.99274 -4.62162 -4.62151 -3.03250 -3.03249 -3.03224 -3.03199 -3.03175 -3.03173
 -0.07367 0.05820 0.15262 0.18830 0.32661 0.39863 0.51102 0.51894 0.68921 0.70616
 0.71727 0.72020 0.79648 0.86288 0.92380 0.98291 0.98630 1.01816 1.09797 1.14839
 1.22960 1.23938 1.25720 1.39894 1.40533 1.45744 1.54802 1.54985 1.65193 1.66985
 1.71414 1.72244 1.80093 1.81919 1.85860 1.96363 2.04015 2.04093 2.07160 2.08354
 2.16014 2.25398 2.29019 2.31901 2.37353 2.39154 2.42692 2.52776 2.55492 2.74631
 3.22474 3.39276 3.53012 3.79991 3.92701 4.03081 5.65295 7.88213
 == 1328-th k-point (0.16700,0.16700,0.38966) occupation: 14==
 -64.99277 -64.99274 -4.62163 -4.62150 -3.03249 -3.03249 -3.03229 -3.03194 -3.03176 -3.03175
 -0.08257 0.05154 0.17373 0.20476 0.34859 0.44271 0.46331 0.47358 0.64846 0.69073
 0.70996 0.71740 0.75844 0.88280 0.95789 0.96747 1.02479 1.06432 1.10357 1.17758
 1.20180 1.31235 1.32864 1.39471 1.41752 1.46655 1.49210 1.52562 1.59591 1.63363
 1.64005 1.74275 1.79380 1.81269 1.88022 1.98553 2.00277 2.01112 2.08573 2.14116
 2.20835 2.26252 2.28971 2.33649 2.40674 2.41587 2.43139 2.52288 2.56350 2.66512
 3.30412 3.50094 3.50908 3.76757 3.98520 4.01732 5.78976 8.08540
 == 1329-th k-point (0.22266,0.22266,0.33400) occupation: 14==
 -64.99277 -64.99272 -4.62164 -4.62149 -3.03248 -3.03248 -3.03233 -3.03189 -3.03178 -3.03177
 -0.08522 0.03617 0.21032 0.22186 0.35624 0.39903 0.42143 0.55136 0.61088 0.67198
 0.69253 0.72185 0.75491 0.83739 0.94003 1.01894 1.06925 1.10857 1.15410 1.18131
 1.24058 1.30194 1.32470 1.38468 1.40720 1.45773 1.49636 1.50566 1.55253 1.59694
 1.60986 1.71096 1.84092 1.85262 1.90781 1.95885 2.00134 2.02112 2.06519 2.17836
 2.25684 2.28463 2.30774 2.38037 2.44714 2.45955 2.47092 2.49771 2.53923 2.57684
 3.36323 3.49431 3.49883 3.70633 4.06764 4.07095 4.85776 8.04225
 == 1330-th k-point (0.27833,0.27833,0.27833) occupation: 14==
 -64.99277 -64.99270 -4.62163 -4.62149 -3.03247 -3.03247 -3.03234 -3.03187 -3.03178 -3.03178
 -0.08237 0.02475 0.23134 0.23134 0.33527 0.40254 0.40254 0.56788 0.65528 0.65528
 0.68608 0.73172 0.73172 0.77751 0.97379 1.07994 1.07994 1.08243 1.18249 1.18249
 1.23666 1.29969 1.29969 1.36870 1.36870 1.42024 1.54292 1.54292 1.56276 1.56276
 1.59625 1.66518 1.86641 1.92343 1.94882 1.94882 2.00538 2.01918 2.01918 2.13405
 2.32013 2.32013 2.42078 2.42170 2.42170 2.45440 2.45440 2.49123 2.49123 2.53122
 3.44257 3.44795 3.44795 3.64351 3.69384 4.09599 4.09599 7.89010
 ---------------------------------------------------------------------------
 VBM is at 665-th k-point with 7.51144 eV
 CBM is at 55-th k-point with 8.15198 eV
 Band gap is 0.64053 eV


           Ground-State Mulliken Net Atomic Charges

      Atom                 Charge (a.u.)          Spin (a.u.)
   --------------------------------------------------------
      1 Si               (0.000000,-0.000000)    (0.000000,0.000000)
      2 Si               (-0.000000,0.000000)    (0.000000,0.000000)
   --------------------------------------------------------
  Sum of atomic charges =      (-0.000000,0.000000)
  Sum of spin   charges =       (0.000000,0.000000)



 Total job time:  407.25 s.
 Tue Sep  9 10:19:34 2025


        *************************************************************
        *                                                           *
        *  Thank you very much for using QCPBC. Have a nice day.    *
        *                                                           *
        *************************************************************

Running job 1 of 1
