                  Welcome to Q-Chem
           with Periodic Boundary Condition
     A Quantum Leap Into The Future Of Chemistry

 Adam Rettig, Xintian Feng, Meng-Fu Chen, Hieu Dinh, Stephen Quiton,
 Anton Ni, Paul J. Robinson, Jinghong Zhang, Joonho Lee

Contributors to earlier versions of Q-Chem not listed above:
 Evgeny Epifanovsky, Leo Cunha, Jerome F. Gonthier, Kuan-Yu Liu
 Input file: /n/netscratch/joonholee_lab/Lab/hieudinh//si_2_ccpvtz_omega_0.3_121212.scratch20250909103334/si_2_ccpvtz_omega_0.3_121212.0
 Scratch folder: /n/netscratch/joonholee_lab/Lab/hieudinh//si_2_ccpvtz_omega_0.3_121212.scratch20250909103334
 Auxillary files located at: /n/holylabs/LABS/joonholee_lab/Lab/qchem_base/qcaux
 Q-Chem begins on Tue Sep  9 10:33:35 2025

 -------------------------------------------------------------
 User input:
 -------------------------------------------------------------
 $lattice
 3
 0.000000 5.130600 5.130600
 5.130600 0.000000 5.130600
 5.130600 5.130600 0.000000
 $end
 
 $unitcell
 ABSOLUTE
 0 1
 Si 0.000000 0.000000 0.000000
 Si 2.565300 2.565300 2.565300
 $end
 
 $rem
 jobtype = sp
 method = pbe
 scf_convergence = 5
 scf_guess = autosad
 scf_algorithm = diis_gdm
 basis = cc-pvtz
 aux_basis = cc-pvtz-jk
 input_bohr = true
 symmetry = false
 rsdf_print_level 1
 is_basis_uctr true
 
 mp_mesh = [12,12,12]
 
 integral_direct true
 bvk_cgto true
 
 thresh 14
 mem_total 1000000
 threads 32
 
 MAX_SCF_CYCLES 500
 madelung = false
 omega 0.3
 do_rij_bigmem true
 automate_g true
 print_level 10
 grid_type_xc 1
 
 thresh_1e2c_sp 1e-14
 thresh_2e3c_bra_ket_sep 1e-10
 thresh_g 1e-12
 $end
 
 -------------------------------------------------------------
 Running PBC job

 Requested Exchange Correlation Functionals: 
  DFT Exchange:  1.00000 pbe_x
  DFT Correlation:  1.00000 pbe_c
 using 32 threads for computing.
 ---------------------------------------------------------------
      Coordinates of Atoms in Central Unit Cell (Angstroms)
    I     Atom         X            Y            Z
 ---------------------------------------------------------------
    1      Si      0.000000     0.000000     0.000000
    2      Si      1.357498     1.357498     1.357498
 ---------------------------------------------------------------
 --------------------------------------------------
              Lattice Vectors (Angstroms)
              X            Y            Z
 --------------------------------------------------
   X       0.000000     2.714997     2.714997
   Y       2.714997     0.000000     2.714997
   Z       2.714997     2.714997     0.000000
 --------------------------------------------------
 --------------------------------------------------
       Reciprocal Lattice Vectors (Angstroms^-1)
              X            Y            Z
 --------------------------------------------------
   X      -1.157126     1.157126     1.157126
   Y       1.157126    -1.157126     1.157126
   Z       1.157126     1.157126    -1.157126
 --------------------------------------------------

 Single point calculation requested

 Hamiltonian contributions:
 List of terms in Hamiltonian: kpts_nn, kpts_kinetic, kpts_vnuc_df, kpts_xc, kpts_rij_bigmem

 K-Points calculation started.

 Basis set information about using solid harmonic (1) or Cartesian (0):
  si : D(1) D(1) F(1) 

 Basis set information about using solid harmonic (1) or Cartesian (0):
  si : D(1) D(1) D(1) D(1) D(1) D(1) D(1) D(1) D(1) F(1) F(1) F(1) G(1) 

 There are 68 basis functions in the central unit cell.
 Print atomic basis of atoms in the central unit cell:
 -------------------------------------------------------------
2 104 104 24

  0.00000000000000e+00  0.00000000000000e+00  0.00000000000000e+00
  2.56530000000000e+00  2.56530000000000e+00  2.56530000000000e+00

  2.54900000000000e+05
  3.81900000000000e+04
  8.69000000000000e+03
  2.46200000000000e+03
  8.04800000000000e+02
  2.91300000000000e+02
  1.13600000000000e+02
  4.67500000000000e+01
  1.98200000000000e+01
  7.70800000000000e+00
  3.34000000000000e+00
  2.54900000000000e+05
  3.81900000000000e+04
  8.69000000000000e+03
  8.04800000000000e+02
  2.91300000000000e+02
  1.13600000000000e+02
  4.67500000000000e+01
  1.98200000000000e+01
  7.70800000000000e+00
  3.34000000000000e+00
  1.40200000000000e+00
  2.54900000000000e+05
  3.81900000000000e+04
  8.69000000000000e+03
  2.91300000000000e+02
  1.13600000000000e+02
  4.67500000000000e+01
  1.98200000000000e+01
  7.70800000000000e+00
  3.34000000000000e+00
  1.40200000000000e+00
  2.07000000000000e-01
  4.38700000000000e-01
  7.94400000000000e-02
  4.81500000000000e+02
  1.13900000000000e+02
  3.62300000000000e+01
  1.33400000000000e+01
  5.25200000000000e+00
  2.12000000000000e+00
  1.13900000000000e+02
  3.62300000000000e+01
  1.33400000000000e+01
  5.25200000000000e+00
  2.12000000000000e+00
  2.52800000000000e-01
  8.56100000000000e-01
  7.88900000000000e-02
  4.81000000000000e-01
  1.59000000000000e-01
  3.36000000000000e-01
  2.54900000000000e+05
  3.81900000000000e+04
  8.69000000000000e+03
  2.46200000000000e+03
  8.04800000000000e+02
  2.91300000000000e+02
  1.13600000000000e+02
  4.67500000000000e+01
  1.98200000000000e+01
  7.70800000000000e+00
  3.34000000000000e+00
  2.54900000000000e+05
  3.81900000000000e+04
  8.69000000000000e+03
  8.04800000000000e+02
  2.91300000000000e+02
  1.13600000000000e+02
  4.67500000000000e+01
  1.98200000000000e+01
  7.70800000000000e+00
  3.34000000000000e+00
  1.40200000000000e+00
  2.54900000000000e+05
  3.81900000000000e+04
  8.69000000000000e+03
  2.91300000000000e+02
  1.13600000000000e+02
  4.67500000000000e+01
  1.98200000000000e+01
  7.70800000000000e+00
  3.34000000000000e+00
  1.40200000000000e+00
  2.07000000000000e-01
  4.38700000000000e-01
  7.94400000000000e-02
  4.81500000000000e+02
  1.13900000000000e+02
  3.62300000000000e+01
  1.33400000000000e+01
  5.25200000000000e+00
  2.12000000000000e+00
  1.13900000000000e+02
  3.62300000000000e+01
  1.33400000000000e+01
  5.25200000000000e+00
  2.12000000000000e+00
  2.52800000000000e-01
  8.56100000000000e-01
  7.88900000000000e-02
  4.81000000000000e-01
  1.59000000000000e-01
  3.36000000000000e-01

  5.06121931014315e-01
  9.46667895564849e-01
  1.63484840115776e+00
  2.64073594005923e+00
  3.97699155153283e+00
  5.40905960736848e+00
  6.15868961670172e+00
  4.99170532032548e+00
  2.02857976424901e+00
  1.82839763527352e-01
 -1.25640690342342e-02
  1.10808750449959e-03
  1.94415577975663e-03
  2.70023730632789e-03
 -1.69098200112149e-02
 -8.66890848691569e-02
 -2.76125946359713e-01
 -6.25588788447604e-01
 -6.61701688370681e-01
  3.11114524237060e-01
  9.56658906468163e-01
  4.36891217824705e-01
  1.05873342256663e-04
  1.52975802748887e-04
  4.28394863673135e-04
 -4.94070443505333e-03
 -1.17298035021286e-02
 -2.95023896611804e-02
 -1.71455066569284e-02
  3.00007138114875e-03
 -6.19326651465540e-02
 -2.59989143457351e-01
  2.47187614608056e-01
  3.84180942836044e-01
  1.06644759418552e-01
  6.70509611941243e+00
  8.84487660481054e+00
  9.82415782069442e+00
  8.40902910540583e+00
  4.80448757555754e+00
  1.55989499299286e+00
 -1.15889775037608e-01
 -5.13312293701512e-02
 -2.64771097977823e-01
 -6.52512718105956e-02
 -1.94608613796415e-01
  2.59380435893970e-01
  1.17380433533106e+00
  5.95960578383022e-02
  4.57260134599596e-01
  6.58952976069849e-02
  1.26537084505476e-01
  5.06121931014315e-01
  9.46667895564849e-01
  1.63484840115776e+00
  2.64073594005923e+00
  3.97699155153283e+00
  5.40905960736848e+00
  6.15868961670172e+00
  4.99170532032548e+00
  2.02857976424901e+00
  1.82839763527352e-01
 -1.25640690342342e-02
  1.10808750449959e-03
  1.94415577975663e-03
  2.70023730632789e-03
 -1.69098200112149e-02
 -8.66890848691569e-02
 -2.76125946359713e-01
 -6.25588788447604e-01
 -6.61701688370681e-01
  3.11114524237060e-01
  9.56658906468163e-01
  4.36891217824705e-01
  1.05873342256663e-04
  1.52975802748887e-04
  4.28394863673135e-04
 -4.94070443505333e-03
 -1.17298035021286e-02
 -2.95023896611804e-02
 -1.71455066569284e-02
  3.00007138114875e-03
 -6.19326651465540e-02
 -2.59989143457351e-01
  2.47187614608056e-01
  3.84180942836044e-01
  1.06644759418552e-01
  6.70509611941243e+00
  8.84487660481054e+00
  9.82415782069442e+00
  8.40902910540583e+00
  4.80448757555754e+00
  1.55989499299286e+00
 -1.15889775037608e-01
 -5.13312293701512e-02
 -2.64771097977823e-01
 -6.52512718105956e-02
 -1.94608613796415e-01
  2.59380435893970e-01
  1.17380433533106e+00
  5.95960578383022e-02
  4.57260134599596e-01
  6.58952976069849e-02
  1.26537084505476e-01

0 0 0 0 1 1 1
0 0 
11 0

0 1 1 11 1 1 1
11 0 
11 0

0 2 2 22 1 1 1
22 0 
11 0

0 3 3 33 1 1 1
33 0 
1 0

0 4 4 34 1 1 1
34 0 
1 0

0 5 5 35 1 3 3
35 1 
6 0

0 8 8 41 1 3 3
41 1 
6 0

0 11 11 47 1 3 3
47 1 
1 0

0 14 14 48 1 3 3
48 1 
1 0

0 17 17 49 1 5 6
49 2 
1 1

0 22 22 50 1 5 6
50 2 
1 1

0 27 27 51 1 7 10
51 3 
1 1

1 34 34 52 1 1 1
52 0 
11 0

1 35 35 63 1 1 1
63 0 
11 0

1 36 36 74 1 1 1
74 0 
11 0

1 37 37 85 1 1 1
85 0 
1 0

1 38 38 86 1 1 1
86 0 
1 0

1 39 39 87 1 3 3
87 1 
6 0

1 42 42 93 1 3 3
93 1 
6 0

1 45 45 99 1 3 3
99 1 
1 0

1 48 48 100 1 3 3
100 1 
1 0

1 51 51 101 1 5 6
101 2 
1 1

1 56 56 102 1 5 6
102 2 
1 1

1 61 61 103 1 7 10
103 3 
1 1

 -------------------------------------------------------------
 Allocate 263208 B from available memory: 1048576000000 B
 There are 1331 image cells after screening.
 There are 1353 image cells for CGTO evaluation after screening.
 Real-Space grid for FFT initialized based on kinetic energy cutoff (eV) = 500.0
 Real-Space grid for FFT: (10,10,10)
 There are 9261 real-space grid points.
 There are 64 batches of real-space grid points. 
 Size of each grid batch is around 128
 Grid for AFT initialized based on kinetic energy cutoff (eV) = 500.0
 Real-Space grid for AFT: (10,10,10)
 There are 9261 real-space grid points.

 There are 5456 atom-centered grid points.

 Spacegroup symmetry group: Fd-3m
 Reducing spacegroup symmetry to symmorphic group: F -4 3 m
 Monkhorst-Pack mesh is [12,12,12]
 There are 1728 k points.
kpoints in Bohr
-0.2551352549 -0.2551352549 -0.2551352549
-0.2041082040 -0.2041082040 -0.3061623059
-0.1530811530 -0.1530811530 -0.3571893569
-0.1020541020 -0.1020541020 -0.4082164079
-0.0510270510 -0.0510270510 -0.4592434589
-0.0000000000 -0.0000000000 -0.5102705099
0.0510270510 0.0510270510 -0.5612975609
0.1020541020 0.1020541020 -0.6123246119
0.1530811530 0.1530811530 -0.6633516628
0.2041082040 0.2041082040 -0.7143787138
0.2551352549 0.2551352549 -0.7654057648
0.3061623059 0.3061623059 -0.8164328158
-0.2041082040 -0.3061623059 -0.2041082040
-0.1530811530 -0.2551352549 -0.2551352549
-0.1020541020 -0.2041082040 -0.3061623059
-0.0510270510 -0.1530811530 -0.3571893569
-0.0000000000 -0.1020541020 -0.4082164079
0.0510270510 -0.0510270510 -0.4592434589
0.1020541020 -0.0000000000 -0.5102705099
0.1530811530 0.0510270510 -0.5612975609
0.2041082040 0.1020541020 -0.6123246119
0.2551352549 0.1530811530 -0.6633516628
0.3061623059 0.2041082040 -0.7143787138
0.3571893569 0.2551352549 -0.7654057648
-0.1530811530 -0.3571893569 -0.1530811530
-0.1020541020 -0.3061623059 -0.2041082040
-0.0510270510 -0.2551352549 -0.2551352549
-0.0000000000 -0.2041082040 -0.3061623059
0.0510270510 -0.1530811530 -0.3571893569
0.1020541020 -0.1020541020 -0.4082164079
0.1530811530 -0.0510270510 -0.4592434589
0.2041082040 -0.0000000000 -0.5102705099
0.2551352549 0.0510270510 -0.5612975609
0.3061623059 0.1020541020 -0.6123246119
0.3571893569 0.1530811530 -0.6633516628
0.4082164079 0.2041082040 -0.7143787138
-0.1020541020 -0.4082164079 -0.1020541020
-0.0510270510 -0.3571893569 -0.1530811530
-0.0000000000 -0.3061623059 -0.2041082040
0.0510270510 -0.2551352549 -0.2551352549
0.1020541020 -0.2041082040 -0.3061623059
0.1530811530 -0.1530811530 -0.3571893569
0.2041082040 -0.1020541020 -0.4082164079
0.2551352549 -0.0510270510 -0.4592434589
0.3061623059 -0.0000000000 -0.5102705099
0.3571893569 0.0510270510 -0.5612975609
0.4082164079 0.1020541020 -0.6123246119
0.4592434589 0.1530811530 -0.6633516628
-0.0510270510 -0.4592434589 -0.0510270510
-0.0000000000 -0.4082164079 -0.1020541020
0.0510270510 -0.3571893569 -0.1530811530
0.1020541020 -0.3061623059 -0.2041082040
0.1530811530 -0.2551352549 -0.2551352549
0.2041082040 -0.2041082040 -0.3061623059
0.2551352549 -0.1530811530 -0.3571893569
0.3061623059 -0.1020541020 -0.4082164079
0.3571893569 -0.0510270510 -0.4592434589
0.4082164079 0.0000000000 -0.5102705099
0.4592434589 0.0510270510 -0.5612975609
0.5102705099 0.1020541020 -0.6123246119
-0.0000000000 -0.5102705099 0.0000000000
0.0510270510 -0.4592434589 -0.0510270510
0.1020541020 -0.4082164079 -0.1020541020
0.1530811530 -0.3571893569 -0.1530811530
0.2041082040 -0.3061623059 -0.2041082040
0.2551352549 -0.2551352549 -0.2551352549
0.3061623059 -0.2041082040 -0.3061623059
0.3571893569 -0.1530811530 -0.3571893569
0.4082164079 -0.1020541020 -0.4082164079
0.4592434589 -0.0510270510 -0.4592434589
0.5102705099 0.0000000000 -0.5102705099
0.5612975609 0.0510270510 -0.5612975609
0.0510270510 -0.5612975609 0.0510270510
0.1020541020 -0.5102705099 0.0000000000
0.1530811530 -0.4592434589 -0.0510270510
0.2041082040 -0.4082164079 -0.1020541020
0.2551352549 -0.3571893569 -0.1530811530
0.3061623059 -0.3061623059 -0.2041082040
0.3571893569 -0.2551352549 -0.2551352549
0.4082164079 -0.2041082040 -0.3061623059
0.4592434589 -0.1530811530 -0.3571893569
0.5102705099 -0.1020541020 -0.4082164079
0.5612975609 -0.0510270510 -0.4592434589
0.6123246119 0.0000000000 -0.5102705099
0.1020541020 -0.6123246119 0.1020541020
0.1530811530 -0.5612975609 0.0510270510
0.2041082040 -0.5102705099 0.0000000000
0.2551352549 -0.4592434589 -0.0510270510
0.3061623059 -0.4082164079 -0.1020541020
0.3571893569 -0.3571893569 -0.1530811530
0.4082164079 -0.3061623059 -0.2041082040
0.4592434589 -0.2551352549 -0.2551352549
0.5102705099 -0.2041082040 -0.3061623059
0.5612975609 -0.1530811530 -0.3571893569
0.6123246119 -0.1020541020 -0.4082164079
0.6633516628 -0.0510270510 -0.4592434589
0.1530811530 -0.6633516628 0.1530811530
0.2041082040 -0.6123246119 0.1020541020
0.2551352549 -0.5612975609 0.0510270510
0.3061623059 -0.5102705099 0.0000000000
0.3571893569 -0.4592434589 -0.0510270510
0.4082164079 -0.4082164079 -0.1020541020
0.4592434589 -0.3571893569 -0.1530811530
0.5102705099 -0.3061623059 -0.2041082040
0.5612975609 -0.2551352549 -0.2551352549
0.6123246119 -0.2041082040 -0.3061623059
0.6633516628 -0.1530811530 -0.3571893569
0.7143787138 -0.1020541020 -0.4082164079
0.2041082040 -0.7143787138 0.2041082040
0.2551352549 -0.6633516628 0.1530811530
0.3061623059 -0.6123246119 0.1020541020
0.3571893569 -0.5612975609 0.0510270510
0.4082164079 -0.5102705099 0.0000000000
0.4592434589 -0.4592434589 -0.0510270510
0.5102705099 -0.4082164079 -0.1020541020
0.5612975609 -0.3571893569 -0.1530811530
0.6123246119 -0.3061623059 -0.2041082040
0.6633516628 -0.2551352549 -0.2551352549
0.7143787138 -0.2041082040 -0.3061623059
0.7654057648 -0.1530811530 -0.3571893569
0.2551352549 -0.7654057648 0.2551352549
0.3061623059 -0.7143787138 0.2041082040
0.3571893569 -0.6633516628 0.1530811530
0.4082164079 -0.6123246119 0.1020541020
0.4592434589 -0.5612975609 0.0510270510
0.5102705099 -0.5102705099 0.0000000000
0.5612975609 -0.4592434589 -0.0510270510
0.6123246119 -0.4082164079 -0.1020541020
0.6633516628 -0.3571893569 -0.1530811530
0.7143787138 -0.3061623059 -0.2041082040
0.7654057648 -0.2551352549 -0.2551352549
0.8164328158 -0.2041082040 -0.3061623059
0.3061623059 -0.8164328158 0.3061623059
0.3571893569 -0.7654057648 0.2551352549
0.4082164079 -0.7143787138 0.2041082040
0.4592434589 -0.6633516628 0.1530811530
0.5102705099 -0.6123246119 0.1020541020
0.5612975609 -0.5612975609 0.0510270510
0.6123246119 -0.5102705099 0.0000000000
0.6633516628 -0.4592434589 -0.0510270510
0.7143787138 -0.4082164079 -0.1020541020
0.7654057648 -0.3571893569 -0.1530811530
0.8164328158 -0.3061623059 -0.2041082040
0.8674598668 -0.2551352549 -0.2551352549
-0.3061623059 -0.2041082040 -0.2041082040
-0.2551352549 -0.1530811530 -0.2551352549
-0.2041082040 -0.1020541020 -0.3061623059
-0.1530811530 -0.0510270510 -0.3571893569
-0.1020541020 -0.0000000000 -0.4082164079
-0.0510270510 0.0510270510 -0.4592434589
-0.0000000000 0.1020541020 -0.5102705099
0.0510270510 0.1530811530 -0.5612975609
0.1020541020 0.2041082040 -0.6123246119
0.1530811530 0.2551352549 -0.6633516628
0.2041082040 0.3061623059 -0.7143787138
0.2551352549 0.3571893569 -0.7654057648
-0.2551352549 -0.2551352549 -0.1530811530
-0.2041082040 -0.2041082040 -0.2041082040
-0.1530811530 -0.1530811530 -0.2551352549
-0.1020541020 -0.1020541020 -0.3061623059
-0.0510270510 -0.0510270510 -0.3571893569
-0.0000000000 -0.0000000000 -0.4082164079
0.0510270510 0.0510270510 -0.4592434589
0.1020541020 0.1020541020 -0.5102705099
0.1530811530 0.1530811530 -0.5612975609
0.2041082040 0.2041082040 -0.6123246119
0.2551352549 0.2551352549 -0.6633516628
0.3061623059 0.3061623059 -0.7143787138
-0.2041082040 -0.3061623059 -0.1020541020
-0.1530811530 -0.2551352549 -0.1530811530
-0.1020541020 -0.2041082040 -0.2041082040
-0.0510270510 -0.1530811530 -0.2551352549
-0.0000000000 -0.1020541020 -0.3061623059
0.0510270510 -0.0510270510 -0.3571893569
0.1020541020 -0.0000000000 -0.4082164079
0.1530811530 0.0510270510 -0.4592434589
0.2041082040 0.1020541020 -0.5102705099
0.2551352549 0.1530811530 -0.5612975609
0.3061623059 0.2041082040 -0.6123246119
0.3571893569 0.2551352549 -0.6633516628
-0.1530811530 -0.3571893569 -0.0510270510
-0.1020541020 -0.3061623059 -0.1020541020
-0.0510270510 -0.2551352549 -0.1530811530
-0.0000000000 -0.2041082040 -0.2041082040
0.0510270510 -0.1530811530 -0.2551352549
0.1020541020 -0.1020541020 -0.3061623059
0.1530811530 -0.0510270510 -0.3571893569
0.2041082040 -0.0000000000 -0.4082164079
0.2551352549 0.0510270510 -0.4592434589
0.3061623059 0.1020541020 -0.5102705099
0.3571893569 0.1530811530 -0.5612975609
0.4082164079 0.2041082040 -0.6123246119
-0.1020541020 -0.4082164079 0.0000000000
-0.0510270510 -0.3571893569 -0.0510270510
-0.0000000000 -0.3061623059 -0.1020541020
0.0510270510 -0.2551352549 -0.1530811530
0.1020541020 -0.2041082040 -0.2041082040
0.1530811530 -0.1530811530 -0.2551352549
0.2041082040 -0.1020541020 -0.3061623059
0.2551352549 -0.0510270510 -0.3571893569
0.3061623059 0.0000000000 -0.4082164079
0.3571893569 0.0510270510 -0.4592434589
0.4082164079 0.1020541020 -0.5102705099
0.4592434589 0.1530811530 -0.5612975609
-0.0510270510 -0.4592434589 0.0510270510
-0.0000000000 -0.4082164079 0.0000000000
0.0510270510 -0.3571893569 -0.0510270510
0.1020541020 -0.3061623059 -0.1020541020
0.1530811530 -0.2551352549 -0.1530811530
0.2041082040 -0.2041082040 -0.2041082040
0.2551352549 -0.1530811530 -0.2551352549
0.3061623059 -0.1020541020 -0.3061623059
0.3571893569 -0.0510270510 -0.3571893569
0.4082164079 0.0000000000 -0.4082164079
0.4592434589 0.0510270510 -0.4592434589
0.5102705099 0.1020541020 -0.5102705099
-0.0000000000 -0.5102705099 0.1020541020
0.0510270510 -0.4592434589 0.0510270510
0.1020541020 -0.4082164079 0.0000000000
0.1530811530 -0.3571893569 -0.0510270510
0.2041082040 -0.3061623059 -0.1020541020
0.2551352549 -0.2551352549 -0.1530811530
0.3061623059 -0.2041082040 -0.2041082040
0.3571893569 -0.1530811530 -0.2551352549
0.4082164079 -0.1020541020 -0.3061623059
0.4592434589 -0.0510270510 -0.3571893569
0.5102705099 0.0000000000 -0.4082164079
0.5612975609 0.0510270510 -0.4592434589
0.0510270510 -0.5612975609 0.1530811530
0.1020541020 -0.5102705099 0.1020541020
0.1530811530 -0.4592434589 0.0510270510
0.2041082040 -0.4082164079 0.0000000000
0.2551352549 -0.3571893569 -0.0510270510
0.3061623059 -0.3061623059 -0.1020541020
0.3571893569 -0.2551352549 -0.1530811530
0.4082164079 -0.2041082040 -0.2041082040
0.4592434589 -0.1530811530 -0.2551352549
0.5102705099 -0.1020541020 -0.3061623059
0.5612975609 -0.0510270510 -0.3571893569
0.6123246119 0.0000000000 -0.4082164079
0.1020541020 -0.6123246119 0.2041082040
0.1530811530 -0.5612975609 0.1530811530
0.2041082040 -0.5102705099 0.1020541020
0.2551352549 -0.4592434589 0.0510270510
0.3061623059 -0.4082164079 0.0000000000
0.3571893569 -0.3571893569 -0.0510270510
0.4082164079 -0.3061623059 -0.1020541020
0.4592434589 -0.2551352549 -0.1530811530
0.5102705099 -0.2041082040 -0.2041082040
0.5612975609 -0.1530811530 -0.2551352549
0.6123246119 -0.1020541020 -0.3061623059
0.6633516628 -0.0510270510 -0.3571893569
0.1530811530 -0.6633516628 0.2551352549
0.2041082040 -0.6123246119 0.2041082040
0.2551352549 -0.5612975609 0.1530811530
0.3061623059 -0.5102705099 0.1020541020
0.3571893569 -0.4592434589 0.0510270510
0.4082164079 -0.4082164079 0.0000000000
0.4592434589 -0.3571893569 -0.0510270510
0.5102705099 -0.3061623059 -0.1020541020
0.5612975609 -0.2551352549 -0.1530811530
0.6123246119 -0.2041082040 -0.2041082040
0.6633516628 -0.1530811530 -0.2551352549
0.7143787138 -0.1020541020 -0.3061623059
0.2041082040 -0.7143787138 0.3061623059
0.2551352549 -0.6633516628 0.2551352549
0.3061623059 -0.6123246119 0.2041082040
0.3571893569 -0.5612975609 0.1530811530
0.4082164079 -0.5102705099 0.1020541020
0.4592434589 -0.4592434589 0.0510270510
0.5102705099 -0.4082164079 0.0000000000
0.5612975609 -0.3571893569 -0.0510270510
0.6123246119 -0.3061623059 -0.1020541020
0.6633516628 -0.2551352549 -0.1530811530
0.7143787138 -0.2041082040 -0.2041082040
0.7654057648 -0.1530811530 -0.2551352549
0.2551352549 -0.7654057648 0.3571893569
0.3061623059 -0.7143787138 0.3061623059
0.3571893569 -0.6633516628 0.2551352549
0.4082164079 -0.6123246119 0.2041082040
0.4592434589 -0.5612975609 0.1530811530
0.5102705099 -0.5102705099 0.1020541020
0.5612975609 -0.4592434589 0.0510270510
0.6123246119 -0.4082164079 0.0000000000
0.6633516628 -0.3571893569 -0.0510270510
0.7143787138 -0.3061623059 -0.1020541020
0.7654057648 -0.2551352549 -0.1530811530
0.8164328158 -0.2041082040 -0.2041082040
-0.3571893569 -0.1530811530 -0.1530811530
-0.3061623059 -0.1020541020 -0.2041082040
-0.2551352549 -0.0510270510 -0.2551352549
-0.2041082040 -0.0000000000 -0.3061623059
-0.1530811530 0.0510270510 -0.3571893569
-0.1020541020 0.1020541020 -0.4082164079
-0.0510270510 0.1530811530 -0.4592434589
-0.0000000000 0.2041082040 -0.5102705099
0.0510270510 0.2551352549 -0.5612975609
0.1020541020 0.3061623059 -0.6123246119
0.1530811530 0.3571893569 -0.6633516628
0.2041082040 0.4082164079 -0.7143787138
-0.3061623059 -0.2041082040 -0.1020541020
-0.2551352549 -0.1530811530 -0.1530811530
-0.2041082040 -0.1020541020 -0.2041082040
-0.1530811530 -0.0510270510 -0.2551352549
-0.1020541020 -0.0000000000 -0.3061623059
-0.0510270510 0.0510270510 -0.3571893569
-0.0000000000 0.1020541020 -0.4082164079
0.0510270510 0.1530811530 -0.4592434589
0.1020541020 0.2041082040 -0.5102705099
0.1530811530 0.2551352549 -0.5612975609
0.2041082040 0.3061623059 -0.6123246119
0.2551352549 0.3571893569 -0.6633516628
-0.2551352549 -0.2551352549 -0.0510270510
-0.2041082040 -0.2041082040 -0.1020541020
-0.1530811530 -0.1530811530 -0.1530811530
-0.1020541020 -0.1020541020 -0.2041082040
-0.0510270510 -0.0510270510 -0.2551352549
-0.0000000000 -0.0000000000 -0.3061623059
0.0510270510 0.0510270510 -0.3571893569
0.1020541020 0.1020541020 -0.4082164079
0.1530811530 0.1530811530 -0.4592434589
0.2041082040 0.2041082040 -0.5102705099
0.2551352549 0.2551352549 -0.5612975609
0.3061623059 0.3061623059 -0.6123246119
-0.2041082040 -0.3061623059 -0.0000000000
-0.1530811530 -0.2551352549 -0.0510270510
-0.1020541020 -0.2041082040 -0.1020541020
-0.0510270510 -0.1530811530 -0.1530811530
-0.0000000000 -0.1020541020 -0.2041082040
0.0510270510 -0.0510270510 -0.2551352549
0.1020541020 -0.0000000000 -0.3061623059
0.1530811530 0.0510270510 -0.3571893569
0.2041082040 0.1020541020 -0.4082164079
0.2551352549 0.1530811530 -0.4592434589
0.3061623059 0.2041082040 -0.5102705099
0.3571893569 0.2551352549 -0.5612975609
-0.1530811530 -0.3571893569 0.0510270510
-0.1020541020 -0.3061623059 -0.0000000000
-0.0510270510 -0.2551352549 -0.0510270510
-0.0000000000 -0.2041082040 -0.1020541020
0.0510270510 -0.1530811530 -0.1530811530
0.1020541020 -0.1020541020 -0.2041082040
0.1530811530 -0.0510270510 -0.2551352549
0.2041082040 -0.0000000000 -0.3061623059
0.2551352549 0.0510270510 -0.3571893569
0.3061623059 0.1020541020 -0.4082164079
0.3571893569 0.1530811530 -0.4592434589
0.4082164079 0.2041082040 -0.5102705099
-0.1020541020 -0.4082164079 0.1020541020
-0.0510270510 -0.3571893569 0.0510270510
-0.0000000000 -0.3061623059 0.0000000000
0.0510270510 -0.2551352549 -0.0510270510
0.1020541020 -0.2041082040 -0.1020541020
0.1530811530 -0.1530811530 -0.1530811530
0.2041082040 -0.1020541020 -0.2041082040
0.2551352549 -0.0510270510 -0.2551352549
0.3061623059 0.0000000000 -0.3061623059
0.3571893569 0.0510270510 -0.3571893569
0.4082164079 0.1020541020 -0.4082164079
0.4592434589 0.1530811530 -0.4592434589
-0.0510270510 -0.4592434589 0.1530811530
-0.0000000000 -0.4082164079 0.1020541020
0.0510270510 -0.3571893569 0.0510270510
0.1020541020 -0.3061623059 0.0000000000
0.1530811530 -0.2551352549 -0.0510270510
0.2041082040 -0.2041082040 -0.1020541020
0.2551352549 -0.1530811530 -0.1530811530
0.3061623059 -0.1020541020 -0.2041082040
0.3571893569 -0.0510270510 -0.2551352549
0.4082164079 0.0000000000 -0.3061623059
0.4592434589 0.0510270510 -0.3571893569
0.5102705099 0.1020541020 -0.4082164079
-0.0000000000 -0.5102705099 0.2041082040
0.0510270510 -0.4592434589 0.1530811530
0.1020541020 -0.4082164079 0.1020541020
0.1530811530 -0.3571893569 0.0510270510
0.2041082040 -0.3061623059 0.0000000000
0.2551352549 -0.2551352549 -0.0510270510
0.3061623059 -0.2041082040 -0.1020541020
0.3571893569 -0.1530811530 -0.1530811530
0.4082164079 -0.1020541020 -0.2041082040
0.4592434589 -0.0510270510 -0.2551352549
0.5102705099 0.0000000000 -0.3061623059
0.5612975609 0.0510270510 -0.3571893569
0.0510270510 -0.5612975609 0.2551352549
0.1020541020 -0.5102705099 0.2041082040
0.1530811530 -0.4592434589 0.1530811530
0.2041082040 -0.4082164079 0.1020541020
0.2551352549 -0.3571893569 0.0510270510
0.3061623059 -0.3061623059 0.0000000000
0.3571893569 -0.2551352549 -0.0510270510
0.4082164079 -0.2041082040 -0.1020541020
0.4592434589 -0.1530811530 -0.1530811530
0.5102705099 -0.1020541020 -0.2041082040
0.5612975609 -0.0510270510 -0.2551352549
0.6123246119 0.0000000000 -0.3061623059
0.1020541020 -0.6123246119 0.3061623059
0.1530811530 -0.5612975609 0.2551352549
0.2041082040 -0.5102705099 0.2041082040
0.2551352549 -0.4592434589 0.1530811530
0.3061623059 -0.4082164079 0.1020541020
0.3571893569 -0.3571893569 0.0510270510
0.4082164079 -0.3061623059 0.0000000000
0.4592434589 -0.2551352549 -0.0510270510
0.5102705099 -0.2041082040 -0.1020541020
0.5612975609 -0.1530811530 -0.1530811530
0.6123246119 -0.1020541020 -0.2041082040
0.6633516628 -0.0510270510 -0.2551352549
0.1530811530 -0.6633516628 0.3571893569
0.2041082040 -0.6123246119 0.3061623059
0.2551352549 -0.5612975609 0.2551352549
0.3061623059 -0.5102705099 0.2041082040
0.3571893569 -0.4592434589 0.1530811530
0.4082164079 -0.4082164079 0.1020541020
0.4592434589 -0.3571893569 0.0510270510
0.5102705099 -0.3061623059 0.0000000000
0.5612975609 -0.2551352549 -0.0510270510
0.6123246119 -0.2041082040 -0.1020541020
0.6633516628 -0.1530811530 -0.1530811530
0.7143787138 -0.1020541020 -0.2041082040
0.2041082040 -0.7143787138 0.4082164079
0.2551352549 -0.6633516628 0.3571893569
0.3061623059 -0.6123246119 0.3061623059
0.3571893569 -0.5612975609 0.2551352549
0.4082164079 -0.5102705099 0.2041082040
0.4592434589 -0.4592434589 0.1530811530
0.5102705099 -0.4082164079 0.1020541020
0.5612975609 -0.3571893569 0.0510270510
0.6123246119 -0.3061623059 0.0000000000
0.6633516628 -0.2551352549 -0.0510270510
0.7143787138 -0.2041082040 -0.1020541020
0.7654057648 -0.1530811530 -0.1530811530
-0.4082164079 -0.1020541020 -0.1020541020
-0.3571893569 -0.0510270510 -0.1530811530
-0.3061623059 -0.0000000000 -0.2041082040
-0.2551352549 0.0510270510 -0.2551352549
-0.2041082040 0.1020541020 -0.3061623059
-0.1530811530 0.1530811530 -0.3571893569
-0.1020541020 0.2041082040 -0.4082164079
-0.0510270510 0.2551352549 -0.4592434589
0.0000000000 0.3061623059 -0.5102705099
0.0510270510 0.3571893569 -0.5612975609
0.1020541020 0.4082164079 -0.6123246119
0.1530811530 0.4592434589 -0.6633516628
-0.3571893569 -0.1530811530 -0.0510270510
-0.3061623059 -0.1020541020 -0.1020541020
-0.2551352549 -0.0510270510 -0.1530811530
-0.2041082040 -0.0000000000 -0.2041082040
-0.1530811530 0.0510270510 -0.2551352549
-0.1020541020 0.1020541020 -0.3061623059
-0.0510270510 0.1530811530 -0.3571893569
0.0000000000 0.2041082040 -0.4082164079
0.0510270510 0.2551352549 -0.4592434589
0.1020541020 0.3061623059 -0.5102705099
0.1530811530 0.3571893569 -0.5612975609
0.2041082040 0.4082164079 -0.6123246119
-0.3061623059 -0.2041082040 -0.0000000000
-0.2551352549 -0.1530811530 -0.0510270510
-0.2041082040 -0.1020541020 -0.1020541020
-0.1530811530 -0.0510270510 -0.1530811530
-0.1020541020 -0.0000000000 -0.2041082040
-0.0510270510 0.0510270510 -0.2551352549
-0.0000000000 0.1020541020 -0.3061623059
0.0510270510 0.1530811530 -0.3571893569
0.1020541020 0.2041082040 -0.4082164079
0.1530811530 0.2551352549 -0.4592434589
0.2041082040 0.3061623059 -0.5102705099
0.2551352549 0.3571893569 -0.5612975609
-0.2551352549 -0.2551352549 0.0510270510
-0.2041082040 -0.2041082040 -0.0000000000
-0.1530811530 -0.1530811530 -0.0510270510
-0.1020541020 -0.1020541020 -0.1020541020
-0.0510270510 -0.0510270510 -0.1530811530
-0.0000000000 -0.0000000000 -0.2041082040
0.0510270510 0.0510270510 -0.2551352549
0.1020541020 0.1020541020 -0.3061623059
0.1530811530 0.1530811530 -0.3571893569
0.2041082040 0.2041082040 -0.4082164079
0.2551352549 0.2551352549 -0.4592434589
0.3061623059 0.3061623059 -0.5102705099
-0.2041082040 -0.3061623059 0.1020541020
-0.1530811530 -0.2551352549 0.0510270510
-0.1020541020 -0.2041082040 -0.0000000000
-0.0510270510 -0.1530811530 -0.0510270510
-0.0000000000 -0.1020541020 -0.1020541020
0.0510270510 -0.0510270510 -0.1530811530
0.1020541020 -0.0000000000 -0.2041082040
0.1530811530 0.0510270510 -0.2551352549
0.2041082040 0.1020541020 -0.3061623059
0.2551352549 0.1530811530 -0.3571893569
0.3061623059 0.2041082040 -0.4082164079
0.3571893569 0.2551352549 -0.4592434589
-0.1530811530 -0.3571893569 0.1530811530
-0.1020541020 -0.3061623059 0.1020541020
-0.0510270510 -0.2551352549 0.0510270510
-0.0000000000 -0.2041082040 0.0000000000
0.0510270510 -0.1530811530 -0.0510270510
0.1020541020 -0.1020541020 -0.1020541020
0.1530811530 -0.0510270510 -0.1530811530
0.2041082040 -0.0000000000 -0.2041082040
0.2551352549 0.0510270510 -0.2551352549
0.3061623059 0.1020541020 -0.3061623059
0.3571893569 0.1530811530 -0.3571893569
0.4082164079 0.2041082040 -0.4082164079
-0.1020541020 -0.4082164079 0.2041082040
-0.0510270510 -0.3571893569 0.1530811530
-0.0000000000 -0.3061623059 0.1020541020
0.0510270510 -0.2551352549 0.0510270510
0.1020541020 -0.2041082040 0.0000000000
0.1530811530 -0.1530811530 -0.0510270510
0.2041082040 -0.1020541020 -0.1020541020
0.2551352549 -0.0510270510 -0.1530811530
0.3061623059 0.0000000000 -0.2041082040
0.3571893569 0.0510270510 -0.2551352549
0.4082164079 0.1020541020 -0.3061623059
0.4592434589 0.1530811530 -0.3571893569
-0.0510270510 -0.4592434589 0.2551352549
-0.0000000000 -0.4082164079 0.2041082040
0.0510270510 -0.3571893569 0.1530811530
0.1020541020 -0.3061623059 0.1020541020
0.1530811530 -0.2551352549 0.0510270510
0.2041082040 -0.2041082040 0.0000000000
0.2551352549 -0.1530811530 -0.0510270510
0.3061623059 -0.1020541020 -0.1020541020
0.3571893569 -0.0510270510 -0.1530811530
0.4082164079 0.0000000000 -0.2041082040
0.4592434589 0.0510270510 -0.2551352549
0.5102705099 0.1020541020 -0.3061623059
-0.0000000000 -0.5102705099 0.3061623059
0.0510270510 -0.4592434589 0.2551352549
0.1020541020 -0.4082164079 0.2041082040
0.1530811530 -0.3571893569 0.1530811530
0.2041082040 -0.3061623059 0.1020541020
0.2551352549 -0.2551352549 0.0510270510
0.3061623059 -0.2041082040 0.0000000000
0.3571893569 -0.1530811530 -0.0510270510
0.4082164079 -0.1020541020 -0.1020541020
0.4592434589 -0.0510270510 -0.1530811530
0.5102705099 0.0000000000 -0.2041082040
0.5612975609 0.0510270510 -0.2551352549
0.0510270510 -0.5612975609 0.3571893569
0.1020541020 -0.5102705099 0.3061623059
0.1530811530 -0.4592434589 0.2551352549
0.2041082040 -0.4082164079 0.2041082040
0.2551352549 -0.3571893569 0.1530811530
0.3061623059 -0.3061623059 0.1020541020
0.3571893569 -0.2551352549 0.0510270510
0.4082164079 -0.2041082040 0.0000000000
0.4592434589 -0.1530811530 -0.0510270510
0.5102705099 -0.1020541020 -0.1020541020
0.5612975609 -0.0510270510 -0.1530811530
0.6123246119 0.0000000000 -0.2041082040
0.1020541020 -0.6123246119 0.4082164079
0.1530811530 -0.5612975609 0.3571893569
0.2041082040 -0.5102705099 0.3061623059
0.2551352549 -0.4592434589 0.2551352549
0.3061623059 -0.4082164079 0.2041082040
0.3571893569 -0.3571893569 0.1530811530
0.4082164079 -0.3061623059 0.1020541020
0.4592434589 -0.2551352549 0.0510270510
0.5102705099 -0.2041082040 0.0000000000
0.5612975609 -0.1530811530 -0.0510270510
0.6123246119 -0.1020541020 -0.1020541020
0.6633516628 -0.0510270510 -0.1530811530
0.1530811530 -0.6633516628 0.4592434589
0.2041082040 -0.6123246119 0.4082164079
0.2551352549 -0.5612975609 0.3571893569
0.3061623059 -0.5102705099 0.3061623059
0.3571893569 -0.4592434589 0.2551352549
0.4082164079 -0.4082164079 0.2041082040
0.4592434589 -0.3571893569 0.1530811530
0.5102705099 -0.3061623059 0.1020541020
0.5612975609 -0.2551352549 0.0510270510
0.6123246119 -0.2041082040 0.0000000000
0.6633516628 -0.1530811530 -0.0510270510
0.7143787138 -0.1020541020 -0.1020541020
-0.4592434589 -0.0510270510 -0.0510270510
-0.4082164079 -0.0000000000 -0.1020541020
-0.3571893569 0.0510270510 -0.1530811530
-0.3061623059 0.1020541020 -0.2041082040
-0.2551352549 0.1530811530 -0.2551352549
-0.2041082040 0.2041082040 -0.3061623059
-0.1530811530 0.2551352549 -0.3571893569
-0.1020541020 0.3061623059 -0.4082164079
-0.0510270510 0.3571893569 -0.4592434589
0.0000000000 0.4082164079 -0.5102705099
0.0510270510 0.4592434589 -0.5612975609
0.1020541020 0.5102705099 -0.6123246119
-0.4082164079 -0.1020541020 -0.0000000000
-0.3571893569 -0.0510270510 -0.0510270510
-0.3061623059 -0.0000000000 -0.1020541020
-0.2551352549 0.0510270510 -0.1530811530
-0.2041082040 0.1020541020 -0.2041082040
-0.1530811530 0.1530811530 -0.2551352549
-0.1020541020 0.2041082040 -0.3061623059
-0.0510270510 0.2551352549 -0.3571893569
0.0000000000 0.3061623059 -0.4082164079
0.0510270510 0.3571893569 -0.4592434589
0.1020541020 0.4082164079 -0.5102705099
0.1530811530 0.4592434589 -0.5612975609
-0.3571893569 -0.1530811530 0.0510270510
-0.3061623059 -0.1020541020 -0.0000000000
-0.2551352549 -0.0510270510 -0.0510270510
-0.2041082040 -0.0000000000 -0.1020541020
-0.1530811530 0.0510270510 -0.1530811530
-0.1020541020 0.1020541020 -0.2041082040
-0.0510270510 0.1530811530 -0.2551352549
0.0000000000 0.2041082040 -0.3061623059
0.0510270510 0.2551352549 -0.3571893569
0.1020541020 0.3061623059 -0.4082164079
0.1530811530 0.3571893569 -0.4592434589
0.2041082040 0.4082164079 -0.5102705099
-0.3061623059 -0.2041082040 0.1020541020
-0.2551352549 -0.1530811530 0.0510270510
-0.2041082040 -0.1020541020 -0.0000000000
-0.1530811530 -0.0510270510 -0.0510270510
-0.1020541020 -0.0000000000 -0.1020541020
-0.0510270510 0.0510270510 -0.1530811530
-0.0000000000 0.1020541020 -0.2041082040
0.0510270510 0.1530811530 -0.2551352549
0.1020541020 0.2041082040 -0.3061623059
0.1530811530 0.2551352549 -0.3571893569
0.2041082040 0.3061623059 -0.4082164079
0.2551352549 0.3571893569 -0.4592434589
-0.2551352549 -0.2551352549 0.1530811530
-0.2041082040 -0.2041082040 0.1020541020
-0.1530811530 -0.1530811530 0.0510270510
-0.1020541020 -0.1020541020 -0.0000000000
-0.0510270510 -0.0510270510 -0.0510270510
-0.0000000000 -0.0000000000 -0.1020541020
0.0510270510 0.0510270510 -0.1530811530
0.1020541020 0.1020541020 -0.2041082040
0.1530811530 0.1530811530 -0.2551352549
0.2041082040 0.2041082040 -0.3061623059
0.2551352549 0.2551352549 -0.3571893569
0.3061623059 0.3061623059 -0.4082164079
-0.2041082040 -0.3061623059 0.2041082040
-0.1530811530 -0.2551352549 0.1530811530
-0.1020541020 -0.2041082040 0.1020541020
-0.0510270510 -0.1530811530 0.0510270510
-0.0000000000 -0.1020541020 0.0000000000
0.0510270510 -0.0510270510 -0.0510270510
0.1020541020 -0.0000000000 -0.1020541020
0.1530811530 0.0510270510 -0.1530811530
0.2041082040 0.1020541020 -0.2041082040
0.2551352549 0.1530811530 -0.2551352549
0.3061623059 0.2041082040 -0.3061623059
0.3571893569 0.2551352549 -0.3571893569
-0.1530811530 -0.3571893569 0.2551352549
-0.1020541020 -0.3061623059 0.2041082040
-0.0510270510 -0.2551352549 0.1530811530
-0.0000000000 -0.2041082040 0.1020541020
0.0510270510 -0.1530811530 0.0510270510
0.1020541020 -0.1020541020 0.0000000000
0.1530811530 -0.0510270510 -0.0510270510
0.2041082040 0.0000000000 -0.1020541020
0.2551352549 0.0510270510 -0.1530811530
0.3061623059 0.1020541020 -0.2041082040
0.3571893569 0.1530811530 -0.2551352549
0.4082164079 0.2041082040 -0.3061623059
-0.1020541020 -0.4082164079 0.3061623059
-0.0510270510 -0.3571893569 0.2551352549
-0.0000000000 -0.3061623059 0.2041082040
0.0510270510 -0.2551352549 0.1530811530
0.1020541020 -0.2041082040 0.1020541020
0.1530811530 -0.1530811530 0.0510270510
0.2041082040 -0.1020541020 0.0000000000
0.2551352549 -0.0510270510 -0.0510270510
0.3061623059 0.0000000000 -0.1020541020
0.3571893569 0.0510270510 -0.1530811530
0.4082164079 0.1020541020 -0.2041082040
0.4592434589 0.1530811530 -0.2551352549
-0.0510270510 -0.4592434589 0.3571893569
-0.0000000000 -0.4082164079 0.3061623059
0.0510270510 -0.3571893569 0.2551352549
0.1020541020 -0.3061623059 0.2041082040
0.1530811530 -0.2551352549 0.1530811530
0.2041082040 -0.2041082040 0.1020541020
0.2551352549 -0.1530811530 0.0510270510
0.3061623059 -0.1020541020 0.0000000000
0.3571893569 -0.0510270510 -0.0510270510
0.4082164079 0.0000000000 -0.1020541020
0.4592434589 0.0510270510 -0.1530811530
0.5102705099 0.1020541020 -0.2041082040
-0.0000000000 -0.5102705099 0.4082164079
0.0510270510 -0.4592434589 0.3571893569
0.1020541020 -0.4082164079 0.3061623059
0.1530811530 -0.3571893569 0.2551352549
0.2041082040 -0.3061623059 0.2041082040
0.2551352549 -0.2551352549 0.1530811530
0.3061623059 -0.2041082040 0.1020541020
0.3571893569 -0.1530811530 0.0510270510
0.4082164079 -0.1020541020 0.0000000000
0.4592434589 -0.0510270510 -0.0510270510
0.5102705099 0.0000000000 -0.1020541020
0.5612975609 0.0510270510 -0.1530811530
0.0510270510 -0.5612975609 0.4592434589
0.1020541020 -0.5102705099 0.4082164079
0.1530811530 -0.4592434589 0.3571893569
0.2041082040 -0.4082164079 0.3061623059
0.2551352549 -0.3571893569 0.2551352549
0.3061623059 -0.3061623059 0.2041082040
0.3571893569 -0.2551352549 0.1530811530
0.4082164079 -0.2041082040 0.1020541020
0.4592434589 -0.1530811530 0.0510270510
0.5102705099 -0.1020541020 0.0000000000
0.5612975609 -0.0510270510 -0.0510270510
0.6123246119 0.0000000000 -0.1020541020
0.1020541020 -0.6123246119 0.5102705099
0.1530811530 -0.5612975609 0.4592434589
0.2041082040 -0.5102705099 0.4082164079
0.2551352549 -0.4592434589 0.3571893569
0.3061623059 -0.4082164079 0.3061623059
0.3571893569 -0.3571893569 0.2551352549
0.4082164079 -0.3061623059 0.2041082040
0.4592434589 -0.2551352549 0.1530811530
0.5102705099 -0.2041082040 0.1020541020
0.5612975609 -0.1530811530 0.0510270510
0.6123246119 -0.1020541020 0.0000000000
0.6633516628 -0.0510270510 -0.0510270510
-0.5102705099 -0.0000000000 -0.0000000000
-0.4592434589 0.0510270510 -0.0510270510
-0.4082164079 0.1020541020 -0.1020541020
-0.3571893569 0.1530811530 -0.1530811530
-0.3061623059 0.2041082040 -0.2041082040
-0.2551352549 0.2551352549 -0.2551352549
-0.2041082040 0.3061623059 -0.3061623059
-0.1530811530 0.3571893569 -0.3571893569
-0.1020541020 0.4082164079 -0.4082164079
-0.0510270510 0.4592434589 -0.4592434589
0.0000000000 0.5102705099 -0.5102705099
0.0510270510 0.5612975609 -0.5612975609
-0.4592434589 -0.0510270510 0.0510270510
-0.4082164079 -0.0000000000 -0.0000000000
-0.3571893569 0.0510270510 -0.0510270510
-0.3061623059 0.1020541020 -0.1020541020
-0.2551352549 0.1530811530 -0.1530811530
-0.2041082040 0.2041082040 -0.2041082040
-0.1530811530 0.2551352549 -0.2551352549
-0.1020541020 0.3061623059 -0.3061623059
-0.0510270510 0.3571893569 -0.3571893569
0.0000000000 0.4082164079 -0.4082164079
0.0510270510 0.4592434589 -0.4592434589
0.1020541020 0.5102705099 -0.5102705099
-0.4082164079 -0.1020541020 0.1020541020
-0.3571893569 -0.0510270510 0.0510270510
-0.3061623059 -0.0000000000 -0.0000000000
-0.2551352549 0.0510270510 -0.0510270510
-0.2041082040 0.1020541020 -0.1020541020
-0.1530811530 0.1530811530 -0.1530811530
-0.1020541020 0.2041082040 -0.2041082040
-0.0510270510 0.2551352549 -0.2551352549
0.0000000000 0.3061623059 -0.3061623059
0.0510270510 0.3571893569 -0.3571893569
0.1020541020 0.4082164079 -0.4082164079
0.1530811530 0.4592434589 -0.4592434589
-0.3571893569 -0.1530811530 0.1530811530
-0.3061623059 -0.1020541020 0.1020541020
-0.2551352549 -0.0510270510 0.0510270510
-0.2041082040 -0.0000000000 -0.0000000000
-0.1530811530 0.0510270510 -0.0510270510
-0.1020541020 0.1020541020 -0.1020541020
-0.0510270510 0.1530811530 -0.1530811530
0.0000000000 0.2041082040 -0.2041082040
0.0510270510 0.2551352549 -0.2551352549
0.1020541020 0.3061623059 -0.3061623059
0.1530811530 0.3571893569 -0.3571893569
0.2041082040 0.4082164079 -0.4082164079
-0.3061623059 -0.2041082040 0.2041082040
-0.2551352549 -0.1530811530 0.1530811530
-0.2041082040 -0.1020541020 0.1020541020
-0.1530811530 -0.0510270510 0.0510270510
-0.1020541020 -0.0000000000 -0.0000000000
-0.0510270510 0.0510270510 -0.0510270510
0.0000000000 0.1020541020 -0.1020541020
0.0510270510 0.1530811530 -0.1530811530
0.1020541020 0.2041082040 -0.2041082040
0.1530811530 0.2551352549 -0.2551352549
0.2041082040 0.3061623059 -0.3061623059
0.2551352549 0.3571893569 -0.3571893569
-0.2551352549 -0.2551352549 0.2551352549
-0.2041082040 -0.2041082040 0.2041082040
-0.1530811530 -0.1530811530 0.1530811530
-0.1020541020 -0.1020541020 0.1020541020
-0.0510270510 -0.0510270510 0.0510270510
0.0000000000 0.0000000000 0.0000000000
0.0510270510 0.0510270510 -0.0510270510
0.1020541020 0.1020541020 -0.1020541020
0.1530811530 0.1530811530 -0.1530811530
0.2041082040 0.2041082040 -0.2041082040
0.2551352549 0.2551352549 -0.2551352549
0.3061623059 0.3061623059 -0.3061623059
-0.2041082040 -0.3061623059 0.3061623059
-0.1530811530 -0.2551352549 0.2551352549
-0.1020541020 -0.2041082040 0.2041082040
-0.0510270510 -0.1530811530 0.1530811530
-0.0000000000 -0.1020541020 0.1020541020
0.0510270510 -0.0510270510 0.0510270510
0.1020541020 0.0000000000 0.0000000000
0.1530811530 0.0510270510 -0.0510270510
0.2041082040 0.1020541020 -0.1020541020
0.2551352549 0.1530811530 -0.1530811530
0.3061623059 0.2041082040 -0.2041082040
0.3571893569 0.2551352549 -0.2551352549
-0.1530811530 -0.3571893569 0.3571893569
-0.1020541020 -0.3061623059 0.3061623059
-0.0510270510 -0.2551352549 0.2551352549
-0.0000000000 -0.2041082040 0.2041082040
0.0510270510 -0.1530811530 0.1530811530
0.1020541020 -0.1020541020 0.1020541020
0.1530811530 -0.0510270510 0.0510270510
0.2041082040 0.0000000000 0.0000000000
0.2551352549 0.0510270510 -0.0510270510
0.3061623059 0.1020541020 -0.1020541020
0.3571893569 0.1530811530 -0.1530811530
0.4082164079 0.2041082040 -0.2041082040
-0.1020541020 -0.4082164079 0.4082164079
-0.0510270510 -0.3571893569 0.3571893569
-0.0000000000 -0.3061623059 0.3061623059
0.0510270510 -0.2551352549 0.2551352549
0.1020541020 -0.2041082040 0.2041082040
0.1530811530 -0.1530811530 0.1530811530
0.2041082040 -0.1020541020 0.1020541020
0.2551352549 -0.0510270510 0.0510270510
0.3061623059 0.0000000000 0.0000000000
0.3571893569 0.0510270510 -0.0510270510
0.4082164079 0.1020541020 -0.1020541020
0.4592434589 0.1530811530 -0.1530811530
-0.0510270510 -0.4592434589 0.4592434589
-0.0000000000 -0.4082164079 0.4082164079
0.0510270510 -0.3571893569 0.3571893569
0.1020541020 -0.3061623059 0.3061623059
0.1530811530 -0.2551352549 0.2551352549
0.2041082040 -0.2041082040 0.2041082040
0.2551352549 -0.1530811530 0.1530811530
0.3061623059 -0.1020541020 0.1020541020
0.3571893569 -0.0510270510 0.0510270510
0.4082164079 0.0000000000 0.0000000000
0.4592434589 0.0510270510 -0.0510270510
0.5102705099 0.1020541020 -0.1020541020
-0.0000000000 -0.5102705099 0.5102705099
0.0510270510 -0.4592434589 0.4592434589
0.1020541020 -0.4082164079 0.4082164079
0.1530811530 -0.3571893569 0.3571893569
0.2041082040 -0.3061623059 0.3061623059
0.2551352549 -0.2551352549 0.2551352549
0.3061623059 -0.2041082040 0.2041082040
0.3571893569 -0.1530811530 0.1530811530
0.4082164079 -0.1020541020 0.1020541020
0.4592434589 -0.0510270510 0.0510270510
0.5102705099 0.0000000000 0.0000000000
0.5612975609 0.0510270510 -0.0510270510
0.0510270510 -0.5612975609 0.5612975609
0.1020541020 -0.5102705099 0.5102705099
0.1530811530 -0.4592434589 0.4592434589
0.2041082040 -0.4082164079 0.4082164079
0.2551352549 -0.3571893569 0.3571893569
0.3061623059 -0.3061623059 0.3061623059
0.3571893569 -0.2551352549 0.2551352549
0.4082164079 -0.2041082040 0.2041082040
0.4592434589 -0.1530811530 0.1530811530
0.5102705099 -0.1020541020 0.1020541020
0.5612975609 -0.0510270510 0.0510270510
0.6123246119 0.0000000000 0.0000000000
-0.5612975609 0.0510270510 0.0510270510
-0.5102705099 0.1020541020 -0.0000000000
-0.4592434589 0.1530811530 -0.0510270510
-0.4082164079 0.2041082040 -0.1020541020
-0.3571893569 0.2551352549 -0.1530811530
-0.3061623059 0.3061623059 -0.2041082040
-0.2551352549 0.3571893569 -0.2551352549
-0.2041082040 0.4082164079 -0.3061623059
-0.1530811530 0.4592434589 -0.3571893569
-0.1020541020 0.5102705099 -0.4082164079
-0.0510270510 0.5612975609 -0.4592434589
0.0000000000 0.6123246119 -0.5102705099
-0.5102705099 -0.0000000000 0.1020541020
-0.4592434589 0.0510270510 0.0510270510
-0.4082164079 0.1020541020 -0.0000000000
-0.3571893569 0.1530811530 -0.0510270510
-0.3061623059 0.2041082040 -0.1020541020
-0.2551352549 0.2551352549 -0.1530811530
-0.2041082040 0.3061623059 -0.2041082040
-0.1530811530 0.3571893569 -0.2551352549
-0.1020541020 0.4082164079 -0.3061623059
-0.0510270510 0.4592434589 -0.3571893569
0.0000000000 0.5102705099 -0.4082164079
0.0510270510 0.5612975609 -0.4592434589
-0.4592434589 -0.0510270510 0.1530811530
-0.4082164079 -0.0000000000 0.1020541020
-0.3571893569 0.0510270510 0.0510270510
-0.3061623059 0.1020541020 -0.0000000000
-0.2551352549 0.1530811530 -0.0510270510
-0.2041082040 0.2041082040 -0.1020541020
-0.1530811530 0.2551352549 -0.1530811530
-0.1020541020 0.3061623059 -0.2041082040
-0.0510270510 0.3571893569 -0.2551352549
0.0000000000 0.4082164079 -0.3061623059
0.0510270510 0.4592434589 -0.3571893569
0.1020541020 0.5102705099 -0.4082164079
-0.4082164079 -0.1020541020 0.2041082040
-0.3571893569 -0.0510270510 0.1530811530
-0.3061623059 -0.0000000000 0.1020541020
-0.2551352549 0.0510270510 0.0510270510
-0.2041082040 0.1020541020 -0.0000000000
-0.1530811530 0.1530811530 -0.0510270510
-0.1020541020 0.2041082040 -0.1020541020
-0.0510270510 0.2551352549 -0.1530811530
0.0000000000 0.3061623059 -0.2041082040
0.0510270510 0.3571893569 -0.2551352549
0.1020541020 0.4082164079 -0.3061623059
0.1530811530 0.4592434589 -0.3571893569
-0.3571893569 -0.1530811530 0.2551352549
-0.3061623059 -0.1020541020 0.2041082040
-0.2551352549 -0.0510270510 0.1530811530
-0.2041082040 -0.0000000000 0.1020541020
-0.1530811530 0.0510270510 0.0510270510
-0.1020541020 0.1020541020 -0.0000000000
-0.0510270510 0.1530811530 -0.0510270510
0.0000000000 0.2041082040 -0.1020541020
0.0510270510 0.2551352549 -0.1530811530
0.1020541020 0.3061623059 -0.2041082040
0.1530811530 0.3571893569 -0.2551352549
0.2041082040 0.4082164079 -0.3061623059
-0.3061623059 -0.2041082040 0.3061623059
-0.2551352549 -0.1530811530 0.2551352549
-0.2041082040 -0.1020541020 0.2041082040
-0.1530811530 -0.0510270510 0.1530811530
-0.1020541020 -0.0000000000 0.1020541020
-0.0510270510 0.0510270510 0.0510270510
0.0000000000 0.1020541020 0.0000000000
0.0510270510 0.1530811530 -0.0510270510
0.1020541020 0.2041082040 -0.1020541020
0.1530811530 0.2551352549 -0.1530811530
0.2041082040 0.3061623059 -0.2041082040
0.2551352549 0.3571893569 -0.2551352549
-0.2551352549 -0.2551352549 0.3571893569
-0.2041082040 -0.2041082040 0.3061623059
-0.1530811530 -0.1530811530 0.2551352549
-0.1020541020 -0.1020541020 0.2041082040
-0.0510270510 -0.0510270510 0.1530811530
0.0000000000 0.0000000000 0.1020541020
0.0510270510 0.0510270510 0.0510270510
0.1020541020 0.1020541020 0.0000000000
0.1530811530 0.1530811530 -0.0510270510
0.2041082040 0.2041082040 -0.1020541020
0.2551352549 0.2551352549 -0.1530811530
0.3061623059 0.3061623059 -0.2041082040
-0.2041082040 -0.3061623059 0.4082164079
-0.1530811530 -0.2551352549 0.3571893569
-0.1020541020 -0.2041082040 0.3061623059
-0.0510270510 -0.1530811530 0.2551352549
-0.0000000000 -0.1020541020 0.2041082040
0.0510270510 -0.0510270510 0.1530811530
0.1020541020 0.0000000000 0.1020541020
0.1530811530 0.0510270510 0.0510270510
0.2041082040 0.1020541020 0.0000000000
0.2551352549 0.1530811530 -0.0510270510
0.3061623059 0.2041082040 -0.1020541020
0.3571893569 0.2551352549 -0.1530811530
-0.1530811530 -0.3571893569 0.4592434589
-0.1020541020 -0.3061623059 0.4082164079
-0.0510270510 -0.2551352549 0.3571893569
-0.0000000000 -0.2041082040 0.3061623059
0.0510270510 -0.1530811530 0.2551352549
0.1020541020 -0.1020541020 0.2041082040
0.1530811530 -0.0510270510 0.1530811530
0.2041082040 0.0000000000 0.1020541020
0.2551352549 0.0510270510 0.0510270510
0.3061623059 0.1020541020 0.0000000000
0.3571893569 0.1530811530 -0.0510270510
0.4082164079 0.2041082040 -0.1020541020
-0.1020541020 -0.4082164079 0.5102705099
-0.0510270510 -0.3571893569 0.4592434589
0.0000000000 -0.3061623059 0.4082164079
0.0510270510 -0.2551352549 0.3571893569
0.1020541020 -0.2041082040 0.3061623059
0.1530811530 -0.1530811530 0.2551352549
0.2041082040 -0.1020541020 0.2041082040
0.2551352549 -0.0510270510 0.1530811530
0.3061623059 0.0000000000 0.1020541020
0.3571893569 0.0510270510 0.0510270510
0.4082164079 0.1020541020 0.0000000000
0.4592434589 0.1530811530 -0.0510270510
-0.0510270510 -0.4592434589 0.5612975609
-0.0000000000 -0.4082164079 0.5102705099
0.0510270510 -0.3571893569 0.4592434589
0.1020541020 -0.3061623059 0.4082164079
0.1530811530 -0.2551352549 0.3571893569
0.2041082040 -0.2041082040 0.3061623059
0.2551352549 -0.1530811530 0.2551352549
0.3061623059 -0.1020541020 0.2041082040
0.3571893569 -0.0510270510 0.1530811530
0.4082164079 0.0000000000 0.1020541020
0.4592434589 0.0510270510 0.0510270510
0.5102705099 0.1020541020 0.0000000000
0.0000000000 -0.5102705099 0.6123246119
0.0510270510 -0.4592434589 0.5612975609
0.1020541020 -0.4082164079 0.5102705099
0.1530811530 -0.3571893569 0.4592434589
0.2041082040 -0.3061623059 0.4082164079
0.2551352549 -0.2551352549 0.3571893569
0.3061623059 -0.2041082040 0.3061623059
0.3571893569 -0.1530811530 0.2551352549
0.4082164079 -0.1020541020 0.2041082040
0.4592434589 -0.0510270510 0.1530811530
0.5102705099 0.0000000000 0.1020541020
0.5612975609 0.0510270510 0.0510270510
-0.6123246119 0.1020541020 0.1020541020
-0.5612975609 0.1530811530 0.0510270510
-0.5102705099 0.2041082040 -0.0000000000
-0.4592434589 0.2551352549 -0.0510270510
-0.4082164079 0.3061623059 -0.1020541020
-0.3571893569 0.3571893569 -0.1530811530
-0.3061623059 0.4082164079 -0.2041082040
-0.2551352549 0.4592434589 -0.2551352549
-0.2041082040 0.5102705099 -0.3061623059
-0.1530811530 0.5612975609 -0.3571893569
-0.1020541020 0.6123246119 -0.4082164079
-0.0510270510 0.6633516628 -0.4592434589
-0.5612975609 0.0510270510 0.1530811530
-0.5102705099 0.1020541020 0.1020541020
-0.4592434589 0.1530811530 0.0510270510
-0.4082164079 0.2041082040 -0.0000000000
-0.3571893569 0.2551352549 -0.0510270510
-0.3061623059 0.3061623059 -0.1020541020
-0.2551352549 0.3571893569 -0.1530811530
-0.2041082040 0.4082164079 -0.2041082040
-0.1530811530 0.4592434589 -0.2551352549
-0.1020541020 0.5102705099 -0.3061623059
-0.0510270510 0.5612975609 -0.3571893569
0.0000000000 0.6123246119 -0.4082164079
-0.5102705099 -0.0000000000 0.2041082040
-0.4592434589 0.0510270510 0.1530811530
-0.4082164079 0.1020541020 0.1020541020
-0.3571893569 0.1530811530 0.0510270510
-0.3061623059 0.2041082040 -0.0000000000
-0.2551352549 0.2551352549 -0.0510270510
-0.2041082040 0.3061623059 -0.1020541020
-0.1530811530 0.3571893569 -0.1530811530
-0.1020541020 0.4082164079 -0.2041082040
-0.0510270510 0.4592434589 -0.2551352549
0.0000000000 0.5102705099 -0.3061623059
0.0510270510 0.5612975609 -0.3571893569
-0.4592434589 -0.0510270510 0.2551352549
-0.4082164079 -0.0000000000 0.2041082040
-0.3571893569 0.0510270510 0.1530811530
-0.3061623059 0.1020541020 0.1020541020
-0.2551352549 0.1530811530 0.0510270510
-0.2041082040 0.2041082040 -0.0000000000
-0.1530811530 0.2551352549 -0.0510270510
-0.1020541020 0.3061623059 -0.1020541020
-0.0510270510 0.3571893569 -0.1530811530
0.0000000000 0.4082164079 -0.2041082040
0.0510270510 0.4592434589 -0.2551352549
0.1020541020 0.5102705099 -0.3061623059
-0.4082164079 -0.1020541020 0.3061623059
-0.3571893569 -0.0510270510 0.2551352549
-0.3061623059 0.0000000000 0.2041082040
-0.2551352549 0.0510270510 0.1530811530
-0.2041082040 0.1020541020 0.1020541020
-0.1530811530 0.1530811530 0.0510270510
-0.1020541020 0.2041082040 -0.0000000000
-0.0510270510 0.2551352549 -0.0510270510
0.0000000000 0.3061623059 -0.1020541020
0.0510270510 0.3571893569 -0.1530811530
0.1020541020 0.4082164079 -0.2041082040
0.1530811530 0.4592434589 -0.2551352549
-0.3571893569 -0.1530811530 0.3571893569
-0.3061623059 -0.1020541020 0.3061623059
-0.2551352549 -0.0510270510 0.2551352549
-0.2041082040 -0.0000000000 0.2041082040
-0.1530811530 0.0510270510 0.1530811530
-0.1020541020 0.1020541020 0.1020541020
-0.0510270510 0.1530811530 0.0510270510
0.0000000000 0.2041082040 0.0000000000
0.0510270510 0.2551352549 -0.0510270510
0.1020541020 0.3061623059 -0.1020541020
0.1530811530 0.3571893569 -0.1530811530
0.2041082040 0.4082164079 -0.2041082040
-0.3061623059 -0.2041082040 0.4082164079
-0.2551352549 -0.1530811530 0.3571893569
-0.2041082040 -0.1020541020 0.3061623059
-0.1530811530 -0.0510270510 0.2551352549
-0.1020541020 0.0000000000 0.2041082040
-0.0510270510 0.0510270510 0.1530811530
0.0000000000 0.1020541020 0.1020541020
0.0510270510 0.1530811530 0.0510270510
0.1020541020 0.2041082040 0.0000000000
0.1530811530 0.2551352549 -0.0510270510
0.2041082040 0.3061623059 -0.1020541020
0.2551352549 0.3571893569 -0.1530811530
-0.2551352549 -0.2551352549 0.4592434589
-0.2041082040 -0.2041082040 0.4082164079
-0.1530811530 -0.1530811530 0.3571893569
-0.1020541020 -0.1020541020 0.3061623059
-0.0510270510 -0.0510270510 0.2551352549
0.0000000000 0.0000000000 0.2041082040
0.0510270510 0.0510270510 0.1530811530
0.1020541020 0.1020541020 0.1020541020
0.1530811530 0.1530811530 0.0510270510
0.2041082040 0.2041082040 0.0000000000
0.2551352549 0.2551352549 -0.0510270510
0.3061623059 0.3061623059 -0.1020541020
-0.2041082040 -0.3061623059 0.5102705099
-0.1530811530 -0.2551352549 0.4592434589
-0.1020541020 -0.2041082040 0.4082164079
-0.0510270510 -0.1530811530 0.3571893569
0.0000000000 -0.1020541020 0.3061623059
0.0510270510 -0.0510270510 0.2551352549
0.1020541020 0.0000000000 0.2041082040
0.1530811530 0.0510270510 0.1530811530
0.2041082040 0.1020541020 0.1020541020
0.2551352549 0.1530811530 0.0510270510
0.3061623059 0.2041082040 0.0000000000
0.3571893569 0.2551352549 -0.0510270510
-0.1530811530 -0.3571893569 0.5612975609
-0.1020541020 -0.3061623059 0.5102705099
-0.0510270510 -0.2551352549 0.4592434589
0.0000000000 -0.2041082040 0.4082164079
0.0510270510 -0.1530811530 0.3571893569
0.1020541020 -0.1020541020 0.3061623059
0.1530811530 -0.0510270510 0.2551352549
0.2041082040 0.0000000000 0.2041082040
0.2551352549 0.0510270510 0.1530811530
0.3061623059 0.1020541020 0.1020541020
0.3571893569 0.1530811530 0.0510270510
0.4082164079 0.2041082040 0.0000000000
-0.1020541020 -0.4082164079 0.6123246119
-0.0510270510 -0.3571893569 0.5612975609
0.0000000000 -0.3061623059 0.5102705099
0.0510270510 -0.2551352549 0.4592434589
0.1020541020 -0.2041082040 0.4082164079
0.1530811530 -0.1530811530 0.3571893569
0.2041082040 -0.1020541020 0.3061623059
0.2551352549 -0.0510270510 0.2551352549
0.3061623059 0.0000000000 0.2041082040
0.3571893569 0.0510270510 0.1530811530
0.4082164079 0.1020541020 0.1020541020
0.4592434589 0.1530811530 0.0510270510
-0.0510270510 -0.4592434589 0.6633516628
0.0000000000 -0.4082164079 0.6123246119
0.0510270510 -0.3571893569 0.5612975609
0.1020541020 -0.3061623059 0.5102705099
0.1530811530 -0.2551352549 0.4592434589
0.2041082040 -0.2041082040 0.4082164079
0.2551352549 -0.1530811530 0.3571893569
0.3061623059 -0.1020541020 0.3061623059
0.3571893569 -0.0510270510 0.2551352549
0.4082164079 0.0000000000 0.2041082040
0.4592434589 0.0510270510 0.1530811530
0.5102705099 0.1020541020 0.1020541020
-0.6633516628 0.1530811530 0.1530811530
-0.6123246119 0.2041082040 0.1020541020
-0.5612975609 0.2551352549 0.0510270510
-0.5102705099 0.3061623059 -0.0000000000
-0.4592434589 0.3571893569 -0.0510270510
-0.4082164079 0.4082164079 -0.1020541020
-0.3571893569 0.4592434589 -0.1530811530
-0.3061623059 0.5102705099 -0.2041082040
-0.2551352549 0.5612975609 -0.2551352549
-0.2041082040 0.6123246119 -0.3061623059
-0.1530811530 0.6633516628 -0.3571893569
-0.1020541020 0.7143787138 -0.4082164079
-0.6123246119 0.1020541020 0.2041082040
-0.5612975609 0.1530811530 0.1530811530
-0.5102705099 0.2041082040 0.1020541020
-0.4592434589 0.2551352549 0.0510270510
-0.4082164079 0.3061623059 -0.0000000000
-0.3571893569 0.3571893569 -0.0510270510
-0.3061623059 0.4082164079 -0.1020541020
-0.2551352549 0.4592434589 -0.1530811530
-0.2041082040 0.5102705099 -0.2041082040
-0.1530811530 0.5612975609 -0.2551352549
-0.1020541020 0.6123246119 -0.3061623059
-0.0510270510 0.6633516628 -0.3571893569
-0.5612975609 0.0510270510 0.2551352549
-0.5102705099 0.1020541020 0.2041082040
-0.4592434589 0.1530811530 0.1530811530
-0.4082164079 0.2041082040 0.1020541020
-0.3571893569 0.2551352549 0.0510270510
-0.3061623059 0.3061623059 -0.0000000000
-0.2551352549 0.3571893569 -0.0510270510
-0.2041082040 0.4082164079 -0.1020541020
-0.1530811530 0.4592434589 -0.1530811530
-0.1020541020 0.5102705099 -0.2041082040
-0.0510270510 0.5612975609 -0.2551352549
0.0000000000 0.6123246119 -0.3061623059
-0.5102705099 0.0000000000 0.3061623059
-0.4592434589 0.0510270510 0.2551352549
-0.4082164079 0.1020541020 0.2041082040
-0.3571893569 0.1530811530 0.1530811530
-0.3061623059 0.2041082040 0.1020541020
-0.2551352549 0.2551352549 0.0510270510
-0.2041082040 0.3061623059 -0.0000000000
-0.1530811530 0.3571893569 -0.0510270510
-0.1020541020 0.4082164079 -0.1020541020
-0.0510270510 0.4592434589 -0.1530811530
0.0000000000 0.5102705099 -0.2041082040
0.0510270510 0.5612975609 -0.2551352549
-0.4592434589 -0.0510270510 0.3571893569
-0.4082164079 0.0000000000 0.3061623059
-0.3571893569 0.0510270510 0.2551352549
-0.3061623059 0.1020541020 0.2041082040
-0.2551352549 0.1530811530 0.1530811530
-0.2041082040 0.2041082040 0.1020541020
-0.1530811530 0.2551352549 0.0510270510
-0.1020541020 0.3061623059 0.0000000000
-0.0510270510 0.3571893569 -0.0510270510
0.0000000000 0.4082164079 -0.1020541020
0.0510270510 0.4592434589 -0.1530811530
0.1020541020 0.5102705099 -0.2041082040
-0.4082164079 -0.1020541020 0.4082164079
-0.3571893569 -0.0510270510 0.3571893569
-0.3061623059 0.0000000000 0.3061623059
-0.2551352549 0.0510270510 0.2551352549
-0.2041082040 0.1020541020 0.2041082040
-0.1530811530 0.1530811530 0.1530811530
-0.1020541020 0.2041082040 0.1020541020
-0.0510270510 0.2551352549 0.0510270510
0.0000000000 0.3061623059 0.0000000000
0.0510270510 0.3571893569 -0.0510270510
0.1020541020 0.4082164079 -0.1020541020
0.1530811530 0.4592434589 -0.1530811530
-0.3571893569 -0.1530811530 0.4592434589
-0.3061623059 -0.1020541020 0.4082164079
-0.2551352549 -0.0510270510 0.3571893569
-0.2041082040 0.0000000000 0.3061623059
-0.1530811530 0.0510270510 0.2551352549
-0.1020541020 0.1020541020 0.2041082040
-0.0510270510 0.1530811530 0.1530811530
0.0000000000 0.2041082040 0.1020541020
0.0510270510 0.2551352549 0.0510270510
0.1020541020 0.3061623059 0.0000000000
0.1530811530 0.3571893569 -0.0510270510
0.2041082040 0.4082164079 -0.1020541020
-0.3061623059 -0.2041082040 0.5102705099
-0.2551352549 -0.1530811530 0.4592434589
-0.2041082040 -0.1020541020 0.4082164079
-0.1530811530 -0.0510270510 0.3571893569
-0.1020541020 0.0000000000 0.3061623059
-0.0510270510 0.0510270510 0.2551352549
0.0000000000 0.1020541020 0.2041082040
0.0510270510 0.1530811530 0.1530811530
0.1020541020 0.2041082040 0.1020541020
0.1530811530 0.2551352549 0.0510270510
0.2041082040 0.3061623059 0.0000000000
0.2551352549 0.3571893569 -0.0510270510
-0.2551352549 -0.2551352549 0.5612975609
-0.2041082040 -0.2041082040 0.5102705099
-0.1530811530 -0.1530811530 0.4592434589
-0.1020541020 -0.1020541020 0.4082164079
-0.0510270510 -0.0510270510 0.3571893569
0.0000000000 0.0000000000 0.3061623059
0.0510270510 0.0510270510 0.2551352549
0.1020541020 0.1020541020 0.2041082040
0.1530811530 0.1530811530 0.1530811530
0.2041082040 0.2041082040 0.1020541020
0.2551352549 0.2551352549 0.0510270510
0.3061623059 0.3061623059 0.0000000000
-0.2041082040 -0.3061623059 0.6123246119
-0.1530811530 -0.2551352549 0.5612975609
-0.1020541020 -0.2041082040 0.5102705099
-0.0510270510 -0.1530811530 0.4592434589
0.0000000000 -0.1020541020 0.4082164079
0.0510270510 -0.0510270510 0.3571893569
0.1020541020 0.0000000000 0.3061623059
0.1530811530 0.0510270510 0.2551352549
0.2041082040 0.1020541020 0.2041082040
0.2551352549 0.1530811530 0.1530811530
0.3061623059 0.2041082040 0.1020541020
0.3571893569 0.2551352549 0.0510270510
-0.1530811530 -0.3571893569 0.6633516628
-0.1020541020 -0.3061623059 0.6123246119
-0.0510270510 -0.2551352549 0.5612975609
0.0000000000 -0.2041082040 0.5102705099
0.0510270510 -0.1530811530 0.4592434589
0.1020541020 -0.1020541020 0.4082164079
0.1530811530 -0.0510270510 0.3571893569
0.2041082040 0.0000000000 0.3061623059
0.2551352549 0.0510270510 0.2551352549
0.3061623059 0.1020541020 0.2041082040
0.3571893569 0.1530811530 0.1530811530
0.4082164079 0.2041082040 0.1020541020
-0.1020541020 -0.4082164079 0.7143787138
-0.0510270510 -0.3571893569 0.6633516628
0.0000000000 -0.3061623059 0.6123246119
0.0510270510 -0.2551352549 0.5612975609
0.1020541020 -0.2041082040 0.5102705099
0.1530811530 -0.1530811530 0.4592434589
0.2041082040 -0.1020541020 0.4082164079
0.2551352549 -0.0510270510 0.3571893569
0.3061623059 0.0000000000 0.3061623059
0.3571893569 0.0510270510 0.2551352549
0.4082164079 0.1020541020 0.2041082040
0.4592434589 0.1530811530 0.1530811530
-0.7143787138 0.2041082040 0.2041082040
-0.6633516628 0.2551352549 0.1530811530
-0.6123246119 0.3061623059 0.1020541020
-0.5612975609 0.3571893569 0.0510270510
-0.5102705099 0.4082164079 -0.0000000000
-0.4592434589 0.4592434589 -0.0510270510
-0.4082164079 0.5102705099 -0.1020541020
-0.3571893569 0.5612975609 -0.1530811530
-0.3061623059 0.6123246119 -0.2041082040
-0.2551352549 0.6633516628 -0.2551352549
-0.2041082040 0.7143787138 -0.3061623059
-0.1530811530 0.7654057648 -0.3571893569
-0.6633516628 0.1530811530 0.2551352549
-0.6123246119 0.2041082040 0.2041082040
-0.5612975609 0.2551352549 0.1530811530
-0.5102705099 0.3061623059 0.1020541020
-0.4592434589 0.3571893569 0.0510270510
-0.4082164079 0.4082164079 -0.0000000000
-0.3571893569 0.4592434589 -0.0510270510
-0.3061623059 0.5102705099 -0.1020541020
-0.2551352549 0.5612975609 -0.1530811530
-0.2041082040 0.6123246119 -0.2041082040
-0.1530811530 0.6633516628 -0.2551352549
-0.1020541020 0.7143787138 -0.3061623059
-0.6123246119 0.1020541020 0.3061623059
-0.5612975609 0.1530811530 0.2551352549
-0.5102705099 0.2041082040 0.2041082040
-0.4592434589 0.2551352549 0.1530811530
-0.4082164079 0.3061623059 0.1020541020
-0.3571893569 0.3571893569 0.0510270510
-0.3061623059 0.4082164079 -0.0000000000
-0.2551352549 0.4592434589 -0.0510270510
-0.2041082040 0.5102705099 -0.1020541020
-0.1530811530 0.5612975609 -0.1530811530
-0.1020541020 0.6123246119 -0.2041082040
-0.0510270510 0.6633516628 -0.2551352549
-0.5612975609 0.0510270510 0.3571893569
-0.5102705099 0.1020541020 0.3061623059
-0.4592434589 0.1530811530 0.2551352549
-0.4082164079 0.2041082040 0.2041082040
-0.3571893569 0.2551352549 0.1530811530
-0.3061623059 0.3061623059 0.1020541020
-0.2551352549 0.3571893569 0.0510270510
-0.2041082040 0.4082164079 -0.0000000000
-0.1530811530 0.4592434589 -0.0510270510
-0.1020541020 0.5102705099 -0.1020541020
-0.0510270510 0.5612975609 -0.1530811530
0.0000000000 0.6123246119 -0.2041082040
-0.5102705099 0.0000000000 0.4082164079
-0.4592434589 0.0510270510 0.3571893569
-0.4082164079 0.1020541020 0.3061623059
-0.3571893569 0.1530811530 0.2551352549
-0.3061623059 0.2041082040 0.2041082040
-0.2551352549 0.2551352549 0.1530811530
-0.2041082040 0.3061623059 0.1020541020
-0.1530811530 0.3571893569 0.0510270510
-0.1020541020 0.4082164079 0.0000000000
-0.0510270510 0.4592434589 -0.0510270510
0.0000000000 0.5102705099 -0.1020541020
0.0510270510 0.5612975609 -0.1530811530
-0.4592434589 -0.0510270510 0.4592434589
-0.4082164079 0.0000000000 0.4082164079
-0.3571893569 0.0510270510 0.3571893569
-0.3061623059 0.1020541020 0.3061623059
-0.2551352549 0.1530811530 0.2551352549
-0.2041082040 0.2041082040 0.2041082040
-0.1530811530 0.2551352549 0.1530811530
-0.1020541020 0.3061623059 0.1020541020
-0.0510270510 0.3571893569 0.0510270510
0.0000000000 0.4082164079 0.0000000000
0.0510270510 0.4592434589 -0.0510270510
0.1020541020 0.5102705099 -0.1020541020
-0.4082164079 -0.1020541020 0.5102705099
-0.3571893569 -0.0510270510 0.4592434589
-0.3061623059 0.0000000000 0.4082164079
-0.2551352549 0.0510270510 0.3571893569
-0.2041082040 0.1020541020 0.3061623059
-0.1530811530 0.1530811530 0.2551352549
-0.1020541020 0.2041082040 0.2041082040
-0.0510270510 0.2551352549 0.1530811530
0.0000000000 0.3061623059 0.1020541020
0.0510270510 0.3571893569 0.0510270510
0.1020541020 0.4082164079 0.0000000000
0.1530811530 0.4592434589 -0.0510270510
-0.3571893569 -0.1530811530 0.5612975609
-0.3061623059 -0.1020541020 0.5102705099
-0.2551352549 -0.0510270510 0.4592434589
-0.2041082040 0.0000000000 0.4082164079
-0.1530811530 0.0510270510 0.3571893569
-0.1020541020 0.1020541020 0.3061623059
-0.0510270510 0.1530811530 0.2551352549
0.0000000000 0.2041082040 0.2041082040
0.0510270510 0.2551352549 0.1530811530
0.1020541020 0.3061623059 0.1020541020
0.1530811530 0.3571893569 0.0510270510
0.2041082040 0.4082164079 0.0000000000
-0.3061623059 -0.2041082040 0.6123246119
-0.2551352549 -0.1530811530 0.5612975609
-0.2041082040 -0.1020541020 0.5102705099
-0.1530811530 -0.0510270510 0.4592434589
-0.1020541020 0.0000000000 0.4082164079
-0.0510270510 0.0510270510 0.3571893569
0.0000000000 0.1020541020 0.3061623059
0.0510270510 0.1530811530 0.2551352549
0.1020541020 0.2041082040 0.2041082040
0.1530811530 0.2551352549 0.1530811530
0.2041082040 0.3061623059 0.1020541020
0.2551352549 0.3571893569 0.0510270510
-0.2551352549 -0.2551352549 0.6633516628
-0.2041082040 -0.2041082040 0.6123246119
-0.1530811530 -0.1530811530 0.5612975609
-0.1020541020 -0.1020541020 0.5102705099
-0.0510270510 -0.0510270510 0.4592434589
0.0000000000 0.0000000000 0.4082164079
0.0510270510 0.0510270510 0.3571893569
0.1020541020 0.1020541020 0.3061623059
0.1530811530 0.1530811530 0.2551352549
0.2041082040 0.2041082040 0.2041082040
0.2551352549 0.2551352549 0.1530811530
0.3061623059 0.3061623059 0.1020541020
-0.2041082040 -0.3061623059 0.7143787138
-0.1530811530 -0.2551352549 0.6633516628
-0.1020541020 -0.2041082040 0.6123246119
-0.0510270510 -0.1530811530 0.5612975609
0.0000000000 -0.1020541020 0.5102705099
0.0510270510 -0.0510270510 0.4592434589
0.1020541020 0.0000000000 0.4082164079
0.1530811530 0.0510270510 0.3571893569
0.2041082040 0.1020541020 0.3061623059
0.2551352549 0.1530811530 0.2551352549
0.3061623059 0.2041082040 0.2041082040
0.3571893569 0.2551352549 0.1530811530
-0.1530811530 -0.3571893569 0.7654057648
-0.1020541020 -0.3061623059 0.7143787138
-0.0510270510 -0.2551352549 0.6633516628
0.0000000000 -0.2041082040 0.6123246119
0.0510270510 -0.1530811530 0.5612975609
0.1020541020 -0.1020541020 0.5102705099
0.1530811530 -0.0510270510 0.4592434589
0.2041082040 0.0000000000 0.4082164079
0.2551352549 0.0510270510 0.3571893569
0.3061623059 0.1020541020 0.3061623059
0.3571893569 0.1530811530 0.2551352549
0.4082164079 0.2041082040 0.2041082040
-0.7654057648 0.2551352549 0.2551352549
-0.7143787138 0.3061623059 0.2041082040
-0.6633516628 0.3571893569 0.1530811530
-0.6123246119 0.4082164079 0.1020541020
-0.5612975609 0.4592434589 0.0510270510
-0.5102705099 0.5102705099 -0.0000000000
-0.4592434589 0.5612975609 -0.0510270510
-0.4082164079 0.6123246119 -0.1020541020
-0.3571893569 0.6633516628 -0.1530811530
-0.3061623059 0.7143787138 -0.2041082040
-0.2551352549 0.7654057648 -0.2551352549
-0.2041082040 0.8164328158 -0.3061623059
-0.7143787138 0.2041082040 0.3061623059
-0.6633516628 0.2551352549 0.2551352549
-0.6123246119 0.3061623059 0.2041082040
-0.5612975609 0.3571893569 0.1530811530
-0.5102705099 0.4082164079 0.1020541020
-0.4592434589 0.4592434589 0.0510270510
-0.4082164079 0.5102705099 -0.0000000000
-0.3571893569 0.5612975609 -0.0510270510
-0.3061623059 0.6123246119 -0.1020541020
-0.2551352549 0.6633516628 -0.1530811530
-0.2041082040 0.7143787138 -0.2041082040
-0.1530811530 0.7654057648 -0.2551352549
-0.6633516628 0.1530811530 0.3571893569
-0.6123246119 0.2041082040 0.3061623059
-0.5612975609 0.2551352549 0.2551352549
-0.5102705099 0.3061623059 0.2041082040
-0.4592434589 0.3571893569 0.1530811530
-0.4082164079 0.4082164079 0.1020541020
-0.3571893569 0.4592434589 0.0510270510
-0.3061623059 0.5102705099 -0.0000000000
-0.2551352549 0.5612975609 -0.0510270510
-0.2041082040 0.6123246119 -0.1020541020
-0.1530811530 0.6633516628 -0.1530811530
-0.1020541020 0.7143787138 -0.2041082040
-0.6123246119 0.1020541020 0.4082164079
-0.5612975609 0.1530811530 0.3571893569
-0.5102705099 0.2041082040 0.3061623059
-0.4592434589 0.2551352549 0.2551352549
-0.4082164079 0.3061623059 0.2041082040
-0.3571893569 0.3571893569 0.1530811530
-0.3061623059 0.4082164079 0.1020541020
-0.2551352549 0.4592434589 0.0510270510
-0.2041082040 0.5102705099 -0.0000000000
-0.1530811530 0.5612975609 -0.0510270510
-0.1020541020 0.6123246119 -0.1020541020
-0.0510270510 0.6633516628 -0.1530811530
-0.5612975609 0.0510270510 0.4592434589
-0.5102705099 0.1020541020 0.4082164079
-0.4592434589 0.1530811530 0.3571893569
-0.4082164079 0.2041082040 0.3061623059
-0.3571893569 0.2551352549 0.2551352549
-0.3061623059 0.3061623059 0.2041082040
-0.2551352549 0.3571893569 0.1530811530
-0.2041082040 0.4082164079 0.1020541020
-0.1530811530 0.4592434589 0.0510270510
-0.1020541020 0.5102705099 -0.0000000000
-0.0510270510 0.5612975609 -0.0510270510
0.0000000000 0.6123246119 -0.1020541020
-0.5102705099 0.0000000000 0.5102705099
-0.4592434589 0.0510270510 0.4592434589
-0.4082164079 0.1020541020 0.4082164079
-0.3571893569 0.1530811530 0.3571893569
-0.3061623059 0.2041082040 0.3061623059
-0.2551352549 0.2551352549 0.2551352549
-0.2041082040 0.3061623059 0.2041082040
-0.1530811530 0.3571893569 0.1530811530
-0.1020541020 0.4082164079 0.1020541020
-0.0510270510 0.4592434589 0.0510270510
0.0000000000 0.5102705099 0.0000000000
0.0510270510 0.5612975609 -0.0510270510
-0.4592434589 -0.0510270510 0.5612975609
-0.4082164079 0.0000000000 0.5102705099
-0.3571893569 0.0510270510 0.4592434589
-0.3061623059 0.1020541020 0.4082164079
-0.2551352549 0.1530811530 0.3571893569
-0.2041082040 0.2041082040 0.3061623059
-0.1530811530 0.2551352549 0.2551352549
-0.1020541020 0.3061623059 0.2041082040
-0.0510270510 0.3571893569 0.1530811530
0.0000000000 0.4082164079 0.1020541020
0.0510270510 0.4592434589 0.0510270510
0.1020541020 0.5102705099 0.0000000000
-0.4082164079 -0.1020541020 0.6123246119
-0.3571893569 -0.0510270510 0.5612975609
-0.3061623059 0.0000000000 0.5102705099
-0.2551352549 0.0510270510 0.4592434589
-0.2041082040 0.1020541020 0.4082164079
-0.1530811530 0.1530811530 0.3571893569
-0.1020541020 0.2041082040 0.3061623059
-0.0510270510 0.2551352549 0.2551352549
0.0000000000 0.3061623059 0.2041082040
0.0510270510 0.3571893569 0.1530811530
0.1020541020 0.4082164079 0.1020541020
0.1530811530 0.4592434589 0.0510270510
-0.3571893569 -0.1530811530 0.6633516628
-0.3061623059 -0.1020541020 0.6123246119
-0.2551352549 -0.0510270510 0.5612975609
-0.2041082040 0.0000000000 0.5102705099
-0.1530811530 0.0510270510 0.4592434589
-0.1020541020 0.1020541020 0.4082164079
-0.0510270510 0.1530811530 0.3571893569
0.0000000000 0.2041082040 0.3061623059
0.0510270510 0.2551352549 0.2551352549
0.1020541020 0.3061623059 0.2041082040
0.1530811530 0.3571893569 0.1530811530
0.2041082040 0.4082164079 0.1020541020
-0.3061623059 -0.2041082040 0.7143787138
-0.2551352549 -0.1530811530 0.6633516628
-0.2041082040 -0.1020541020 0.6123246119
-0.1530811530 -0.0510270510 0.5612975609
-0.1020541020 0.0000000000 0.5102705099
-0.0510270510 0.0510270510 0.4592434589
0.0000000000 0.1020541020 0.4082164079
0.0510270510 0.1530811530 0.3571893569
0.1020541020 0.2041082040 0.3061623059
0.1530811530 0.2551352549 0.2551352549
0.2041082040 0.3061623059 0.2041082040
0.2551352549 0.3571893569 0.1530811530
-0.2551352549 -0.2551352549 0.7654057648
-0.2041082040 -0.2041082040 0.7143787138
-0.1530811530 -0.1530811530 0.6633516628
-0.1020541020 -0.1020541020 0.6123246119
-0.0510270510 -0.0510270510 0.5612975609
0.0000000000 0.0000000000 0.5102705099
0.0510270510 0.0510270510 0.4592434589
0.1020541020 0.1020541020 0.4082164079
0.1530811530 0.1530811530 0.3571893569
0.2041082040 0.2041082040 0.3061623059
0.2551352549 0.2551352549 0.2551352549
0.3061623059 0.3061623059 0.2041082040
-0.2041082040 -0.3061623059 0.8164328158
-0.1530811530 -0.2551352549 0.7654057648
-0.1020541020 -0.2041082040 0.7143787138
-0.0510270510 -0.1530811530 0.6633516628
0.0000000000 -0.1020541020 0.6123246119
0.0510270510 -0.0510270510 0.5612975609
0.1020541020 0.0000000000 0.5102705099
0.1530811530 0.0510270510 0.4592434589
0.2041082040 0.1020541020 0.4082164079
0.2551352549 0.1530811530 0.3571893569
0.3061623059 0.2041082040 0.3061623059
0.3571893569 0.2551352549 0.2551352549
-0.8164328158 0.3061623059 0.3061623059
-0.7654057648 0.3571893569 0.2551352549
-0.7143787138 0.4082164079 0.2041082040
-0.6633516628 0.4592434589 0.1530811530
-0.6123246119 0.5102705099 0.1020541020
-0.5612975609 0.5612975609 0.0510270510
-0.5102705099 0.6123246119 -0.0000000000
-0.4592434589 0.6633516628 -0.0510270510
-0.4082164079 0.7143787138 -0.1020541020
-0.3571893569 0.7654057648 -0.1530811530
-0.3061623059 0.8164328158 -0.2041082040
-0.2551352549 0.8674598668 -0.2551352549
-0.7654057648 0.2551352549 0.3571893569
-0.7143787138 0.3061623059 0.3061623059
-0.6633516628 0.3571893569 0.2551352549
-0.6123246119 0.4082164079 0.2041082040
-0.5612975609 0.4592434589 0.1530811530
-0.5102705099 0.5102705099 0.1020541020
-0.4592434589 0.5612975609 0.0510270510
-0.4082164079 0.6123246119 -0.0000000000
-0.3571893569 0.6633516628 -0.0510270510
-0.3061623059 0.7143787138 -0.1020541020
-0.2551352549 0.7654057648 -0.1530811530
-0.2041082040 0.8164328158 -0.2041082040
-0.7143787138 0.2041082040 0.4082164079
-0.6633516628 0.2551352549 0.3571893569
-0.6123246119 0.3061623059 0.3061623059
-0.5612975609 0.3571893569 0.2551352549
-0.5102705099 0.4082164079 0.2041082040
-0.4592434589 0.4592434589 0.1530811530
-0.4082164079 0.5102705099 0.1020541020
-0.3571893569 0.5612975609 0.0510270510
-0.3061623059 0.6123246119 -0.0000000000
-0.2551352549 0.6633516628 -0.0510270510
-0.2041082040 0.7143787138 -0.1020541020
-0.1530811530 0.7654057648 -0.1530811530
-0.6633516628 0.1530811530 0.4592434589
-0.6123246119 0.2041082040 0.4082164079
-0.5612975609 0.2551352549 0.3571893569
-0.5102705099 0.3061623059 0.3061623059
-0.4592434589 0.3571893569 0.2551352549
-0.4082164079 0.4082164079 0.2041082040
-0.3571893569 0.4592434589 0.1530811530
-0.3061623059 0.5102705099 0.1020541020
-0.2551352549 0.5612975609 0.0510270510
-0.2041082040 0.6123246119 -0.0000000000
-0.1530811530 0.6633516628 -0.0510270510
-0.1020541020 0.7143787138 -0.1020541020
-0.6123246119 0.1020541020 0.5102705099
-0.5612975609 0.1530811530 0.4592434589
-0.5102705099 0.2041082040 0.4082164079
-0.4592434589 0.2551352549 0.3571893569
-0.4082164079 0.3061623059 0.3061623059
-0.3571893569 0.3571893569 0.2551352549
-0.3061623059 0.4082164079 0.2041082040
-0.2551352549 0.4592434589 0.1530811530
-0.2041082040 0.5102705099 0.1020541020
-0.1530811530 0.5612975609 0.0510270510
-0.1020541020 0.6123246119 0.0000000000
-0.0510270510 0.6633516628 -0.0510270510
-0.5612975609 0.0510270510 0.5612975609
-0.5102705099 0.1020541020 0.5102705099
-0.4592434589 0.1530811530 0.4592434589
-0.4082164079 0.2041082040 0.4082164079
-0.3571893569 0.2551352549 0.3571893569
-0.3061623059 0.3061623059 0.3061623059
-0.2551352549 0.3571893569 0.2551352549
-0.2041082040 0.4082164079 0.2041082040
-0.1530811530 0.4592434589 0.1530811530
-0.1020541020 0.5102705099 0.1020541020
-0.0510270510 0.5612975609 0.0510270510
0.0000000000 0.6123246119 0.0000000000
-0.5102705099 0.0000000000 0.6123246119
-0.4592434589 0.0510270510 0.5612975609
-0.4082164079 0.1020541020 0.5102705099
-0.3571893569 0.1530811530 0.4592434589
-0.3061623059 0.2041082040 0.4082164079
-0.2551352549 0.2551352549 0.3571893569
-0.2041082040 0.3061623059 0.3061623059
-0.1530811530 0.3571893569 0.2551352549
-0.1020541020 0.4082164079 0.2041082040
-0.0510270510 0.4592434589 0.1530811530
0.0000000000 0.5102705099 0.1020541020
0.0510270510 0.5612975609 0.0510270510
-0.4592434589 -0.0510270510 0.6633516628
-0.4082164079 0.0000000000 0.6123246119
-0.3571893569 0.0510270510 0.5612975609
-0.3061623059 0.1020541020 0.5102705099
-0.2551352549 0.1530811530 0.4592434589
-0.2041082040 0.2041082040 0.4082164079
-0.1530811530 0.2551352549 0.3571893569
-0.1020541020 0.3061623059 0.3061623059
-0.0510270510 0.3571893569 0.2551352549
0.0000000000 0.4082164079 0.2041082040
0.0510270510 0.4592434589 0.1530811530
0.1020541020 0.5102705099 0.1020541020
-0.4082164079 -0.1020541020 0.7143787138
-0.3571893569 -0.0510270510 0.6633516628
-0.3061623059 0.0000000000 0.6123246119
-0.2551352549 0.0510270510 0.5612975609
-0.2041082040 0.1020541020 0.5102705099
-0.1530811530 0.1530811530 0.4592434589
-0.1020541020 0.2041082040 0.4082164079
-0.0510270510 0.2551352549 0.3571893569
0.0000000000 0.3061623059 0.3061623059
0.0510270510 0.3571893569 0.2551352549
0.1020541020 0.4082164079 0.2041082040
0.1530811530 0.4592434589 0.1530811530
-0.3571893569 -0.1530811530 0.7654057648
-0.3061623059 -0.1020541020 0.7143787138
-0.2551352549 -0.0510270510 0.6633516628
-0.2041082040 0.0000000000 0.6123246119
-0.1530811530 0.0510270510 0.5612975609
-0.1020541020 0.1020541020 0.5102705099
-0.0510270510 0.1530811530 0.4592434589
0.0000000000 0.2041082040 0.4082164079
0.0510270510 0.2551352549 0.3571893569
0.1020541020 0.3061623059 0.3061623059
0.1530811530 0.3571893569 0.2551352549
0.2041082040 0.4082164079 0.2041082040
-0.3061623059 -0.2041082040 0.8164328158
-0.2551352549 -0.1530811530 0.7654057648
-0.2041082040 -0.1020541020 0.7143787138
-0.1530811530 -0.0510270510 0.6633516628
-0.1020541020 0.0000000000 0.6123246119
-0.0510270510 0.0510270510 0.5612975609
0.0000000000 0.1020541020 0.5102705099
0.0510270510 0.1530811530 0.4592434589
0.1020541020 0.2041082040 0.4082164079
0.1530811530 0.2551352549 0.3571893569
0.2041082040 0.3061623059 0.3061623059
0.2551352549 0.3571893569 0.2551352549
-0.2551352549 -0.2551352549 0.8674598668
-0.2041082040 -0.2041082040 0.8164328158
-0.1530811530 -0.1530811530 0.7654057648
-0.1020541020 -0.1020541020 0.7143787138
-0.0510270510 -0.0510270510 0.6633516628
0.0000000000 0.0000000000 0.6123246119
0.0510270510 0.0510270510 0.5612975609
0.1020541020 0.1020541020 0.5102705099
0.1530811530 0.1530811530 0.4592434589
0.2041082040 0.2041082040 0.4082164079
0.2551352549 0.2551352549 0.3571893569
0.3061623059 0.3061623059 0.3061623059
 There are 14 alpha and 14 beta electrons
 Start computing overlap matrix
 Allocate 127844352 B from available memory: 1048575736800 B
[...]
 3.08862 3.14640 3.60574 3.76860 3.89019 4.00130 5.53377 7.61988
 == 1698-th k-point (-0.05103,0.15308,0.45924) occupation: 14==
 -64.99277 -64.99275 -4.62162 -4.62152 -3.03250 -3.03249 -3.03223 -3.03201 -3.03175 -3.03173
 -0.06819 0.05440 0.14861 0.17794 0.34126 0.38914 0.49138 0.55965 0.65984 0.67564
 0.74788 0.76112 0.81454 0.83761 0.92941 0.93783 1.02968 1.03069 1.09499 1.13891
 1.18592 1.21745 1.27030 1.36200 1.41859 1.46046 1.55921 1.57360 1.63247 1.66852
 1.70464 1.72773 1.80304 1.85617 1.88100 1.92806 2.00674 2.02746 2.08075 2.11492
 2.17257 2.22396 2.26993 2.34363 2.36608 2.39772 2.41054 2.51080 2.59936 2.77637
 3.03009 3.29802 3.54812 3.80912 3.87248 3.96485 6.27592 7.33647
 == 1699-th k-point (0.00000,0.20411,0.40822) occupation: 14==
 -64.99277 -64.99276 -4.62164 -4.62151 -3.03249 -3.03248 -3.03226 -3.03198 -3.03176 -3.03174
 -0.07994 0.06827 0.14339 0.19042 0.38284 0.41575 0.43421 0.54038 0.61674 0.64662
 0.76349 0.77593 0.79719 0.84167 0.91211 0.95735 1.02444 1.07195 1.10727 1.15198
 1.21065 1.21315 1.32218 1.37999 1.43466 1.45002 1.54977 1.55803 1.60389 1.64291
 1.67411 1.71531 1.78332 1.86080 1.91272 1.93817 1.97988 1.99465 2.05387 2.12326
 2.18977 2.21352 2.23343 2.35604 2.36750 2.39398 2.43980 2.49308 2.60901 2.78865
 2.93600 3.36076 3.51071 3.85075 3.91178 3.93571 6.81069 7.10015
 == 1700-th k-point (0.05103,0.25514,0.35719) occupation: 14==
 -64.99277 -64.99276 -4.62164 -4.62150 -3.03248 -3.03248 -3.03230 -3.03195 -3.03178 -3.03175
 -0.08610 0.06719 0.14558 0.21408 0.38786 0.41099 0.47366 0.49281 0.57917 0.63708
 0.73418 0.76794 0.80932 0.86422 0.92824 0.96115 1.00028 1.09830 1.14405 1.17187
 1.22901 1.26594 1.32240 1.37218 1.39904 1.47027 1.50348 1.54758 1.60191 1.64075
 1.68816 1.73019 1.77454 1.82225 1.90404 1.92640 1.96033 2.01763 2.07847 2.16277
 2.18187 2.21359 2.24468 2.34800 2.39093 2.41687 2.48366 2.53275 2.59711 2.71313
 2.94503 3.40220 3.49879 3.85112 3.93584 4.01558 6.76170 7.43274
 == 1701-th k-point (0.10205,0.30616,0.30616) occupation: 14==
 -64.99278 -64.99276 -4.62165 -4.62150 -3.03248 -3.03248 -3.03231 -3.03192 -3.03178 -3.03175
 -0.08665 0.05450 0.16291 0.22720 0.36828 0.43032 0.43458 0.54682 0.55580 0.62785
 0.70952 0.75896 0.83191 0.86505 0.89518 0.96725 1.04084 1.11694 1.15216 1.18919
 1.23902 1.26288 1.34086 1.37978 1.40500 1.42610 1.46872 1.57809 1.59609 1.63108
 1.63855 1.75417 1.80060 1.82294 1.88750 1.90012 1.99818 2.03888 2.07009 2.14037
 2.22894 2.25370 2.26822 2.35629 2.42006 2.42969 2.51546 2.54910 2.57431 2.63619
 3.01007 3.41975 3.50000 3.80020 3.98466 4.07126 6.66167 7.56552
 == 1702-th k-point (0.15308,0.35719,0.25514) occupation: 14==
 -64.99278 -64.99275 -4.62164 -4.62150 -3.03248 -3.03248 -3.03232 -3.03192 -3.03178 -3.03176
 -0.08188 0.04136 0.18084 0.21766 0.37385 0.39630 0.44631 0.52927 0.61671 0.64054
 0.70368 0.74576 0.77949 0.86495 0.92391 0.99921 1.05438 1.10581 1.12809 1.17870
 1.20995 1.31634 1.33212 1.36839 1.43589 1.44407 1.48566 1.52365 1.55065 1.61753
 1.64681 1.73996 1.80017 1.84213 1.89340 1.93909 1.99301 2.02537 2.07539 2.18172
 2.20580 2.25815 2.30004 2.36245 2.42912 2.44848 2.48781 2.52195 2.55907 2.61994
 3.19022 3.40114 3.51850 3.73938 4.00589 4.06904 6.08133 7.80706
 == 1703-th k-point (0.20411,0.40822,0.20411) occupation: 14==
 -64.99278 -64.99274 -4.62163 -4.62151 -3.03249 -3.03249 -3.03230 -3.03194 -3.03177 -3.03175
 -0.07242 0.03233 0.17297 0.20941 0.35314 0.43002 0.44971 0.51611 0.62887 0.67498
 0.72333 0.72509 0.74868 0.88444 0.95523 1.01879 1.05247 1.06678 1.08978 1.15421
 1.21076 1.31416 1.33286 1.36475 1.42407 1.43440 1.48196 1.53778 1.58264 1.61748
 1.64535 1.73866 1.80325 1.82288 1.89320 1.96179 1.98464 2.01070 2.09083 2.17712
 2.22051 2.25416 2.31806 2.38210 2.38800 2.44069 2.44607 2.52473 2.55886 2.63258
 3.25847 3.42206 3.53791 3.68183 4.01746 4.02446 5.82534 7.84906
 == 1704-th k-point (-0.30616,-0.20411,0.81643) occupation: 14==
 -64.99278 -64.99275 -4.62163 -4.62151 -3.03248 -3.03248 -3.03231 -3.03193 -3.03177 -3.03175
 -0.06934 0.02290 0.17954 0.21422 0.37310 0.39321 0.44477 0.57515 0.58858 0.65466
 0.70844 0.72695 0.80785 0.81535 1.00100 1.00440 1.07601 1.09196 1.09228 1.15093
 1.23932 1.30750 1.33740 1.34284 1.41927 1.44931 1.48130 1.51994 1.54783 1.63029
 1.66504 1.69496 1.80724 1.85555 1.90579 1.91644 1.95712 2.03304 2.07258 2.16798
 2.24671 2.26291 2.32707 2.37008 2.45414 2.47240 2.48657 2.49525 2.56786 2.59277
 3.21681 3.32681 3.58618 3.61138 4.01881 4.07726 5.98388 7.55478
 == 1705-th k-point (-0.25514,-0.15308,0.76541) occupation: 14==
 -64.99277 -64.99275 -4.62162 -4.62152 -3.03249 -3.03249 -3.03227 -3.03197 -3.03176 -3.03174
 -0.05927 0.02779 0.14734 0.19586 0.36536 0.42357 0.49708 0.51093 0.58606 0.67576
 0.72036 0.74454 0.82373 0.90101 0.95185 0.99442 1.01653 1.04393 1.11088 1.12207
 1.22531 1.24900 1.29790 1.36905 1.41574 1.45349 1.47843 1.51432 1.59203 1.64687
 1.65889 1.76877 1.77884 1.84418 1.89002 1.91335 1.95164 2.01880 2.10548 2.15726
 2.19768 2.23869 2.29147 2.35878 2.44409 2.45274 2.47132 2.52299 2.60871 2.66412
 3.05404 3.26089 3.59497 3.66206 3.93277 3.99347 6.25281 7.34198
 == 1706-th k-point (-0.20411,-0.10205,0.71438) occupation: 14==
 -64.99277 -64.99275 -4.62161 -4.62154 -3.03250 -3.03249 -3.03221 -3.03202 -3.03175 -3.03172
 -0.04642 0.02797 0.12941 0.17823 0.34711 0.43749 0.48018 0.55671 0.59363 0.68751
 0.73643 0.79226 0.83160 0.89044 0.94739 0.98281 0.99139 1.01409 1.08102 1.14354
 1.17119 1.19504 1.24595 1.36692 1.40320 1.46089 1.49674 1.55180 1.59101 1.65197
 1.73095 1.77444 1.80658 1.85478 1.88857 1.92891 1.97427 2.02129 2.07621 2.15156
 2.17316 2.23371 2.28944 2.36882 2.39747 2.42207 2.45378 2.53783 2.61986 2.70056
 2.96451 3.17374 3.60861 3.71824 3.85761 3.89713 6.10132 7.21534
 == 1707-th k-point (-0.15308,-0.05103,0.66335) occupation: 14==
 -64.99277 -64.99275 -4.62159 -4.62155 -3.03250 -3.03249 -3.03216 -3.03207 -3.03174 -3.03172
 -0.03020 0.01321 0.13652 0.16527 0.33353 0.37536 0.54211 0.59600 0.62656 0.68983
 0.74361 0.80414 0.83467 0.87627 0.89691 0.96576 0.99134 1.06156 1.07865 1.09380
 1.17364 1.18248 1.19689 1.26932 1.43603 1.49099 1.53755 1.55453 1.62545 1.66288
 1.76904 1.78885 1.82796 1.84562 1.90071 1.93430 2.00411 2.02889 2.07741 2.13248
 2.17538 2.22216 2.29428 2.33237 2.38106 2.41529 2.46239 2.54564 2.66062 2.72159
 2.92171 3.06706 3.65819 3.74719 3.81938 3.87198 6.14066 7.02205
 == 1708-th k-point (-0.10205,0.00000,0.61232) occupation: 14==
 -64.99276 -64.99276 -4.62157 -4.62157 -3.03249 -3.03249 -3.03212 -3.03212 -3.03174 -3.03174
 -0.01026 -0.01026 0.15831 0.15831 0.32652 0.32652 0.60846 0.60846 0.67666 0.67666
 0.75709 0.75709 0.81904 0.81904 0.95888 0.95888 1.02766 1.02766 1.08528 1.08528
 1.14885 1.14885 1.22894 1.22894 1.45430 1.45430 1.58538 1.58538 1.69449 1.69449
 1.79702 1.79702 1.81472 1.81472 1.91470 1.91470 2.03390 2.03390 2.13128 2.13128
 2.18974 2.18974 2.30271 2.30271 2.37351 2.37351 2.54206 2.54206 2.71654 2.71654
 2.92668 2.92668 3.74248 3.74248 3.89472 3.89472 6.43712 6.43712
 == 1709-th k-point (-0.05103,0.05103,0.56130) occupation: 14==
 -64.99276 -64.99274 -4.62159 -4.62155 -3.03250 -3.03249 -3.03216 -3.03208 -3.03176 -3.03174
 -0.03366 0.01289 0.15772 0.17229 0.30617 0.32726 0.61476 0.61788 0.68513 0.69056
 0.74273 0.75306 0.80435 0.80676 0.93038 0.99635 1.01746 1.03588 1.07442 1.11003
 1.12578 1.17181 1.22169 1.28076 1.41796 1.45430 1.60420 1.60472 1.73206 1.74721
 1.76655 1.77431 1.80239 1.85983 1.87895 1.91752 2.03230 2.05659 2.12828 2.16775
 2.17813 2.18605 2.27248 2.30977 2.33480 2.37897 2.53418 2.57343 2.61470 2.75277
 2.96094 2.98032 3.70998 3.81092 3.94255 4.07268 5.45657 6.79425
 == 1710-th k-point (0.00000,0.10205,0.51027) occupation: 14==
 -64.99276 -64.99276 -4.62161 -4.62154 -3.03250 -3.03249 -3.03219 -3.03205 -3.03175 -3.03174
 -0.05340 0.03690 0.15967 0.16687 0.32252 0.34191 0.55415 0.60531 0.67557 0.69545
 0.73771 0.76525 0.79995 0.87038 0.87695 0.94626 1.02136 1.02588 1.09670 1.11891
 1.18539 1.20308 1.22081 1.28418 1.43854 1.44664 1.59370 1.60366 1.68716 1.69594
 1.72102 1.77652 1.83428 1.83946 1.87007 1.91090 1.98347 2.08443 2.12157 2.12797
 2.15876 2.21982 2.25784 2.33022 2.34306 2.38167 2.44062 2.53673 2.61929 2.80841
 2.98315 3.19263 3.61937 3.82758 3.86324 3.99506 6.51832 6.53779
 == 1711-th k-point (0.05103,0.15308,0.45924) occupation: 14==
 -64.99277 -64.99275 -4.62162 -4.62152 -3.03250 -3.03249 -3.03223 -3.03201 -3.03175 -3.03173
 -0.06819 0.05440 0.14861 0.17794 0.34126 0.38914 0.49138 0.55965 0.65984 0.67564
 0.74788 0.76112 0.81454 0.83761 0.92941 0.93783 1.02968 1.03069 1.09499 1.13891
 1.18592 1.21745 1.27030 1.36200 1.41859 1.46046 1.55921 1.57360 1.63247 1.66852
 1.70464 1.72773 1.80304 1.85617 1.88100 1.92806 2.00674 2.02746 2.08075 2.11492
 2.17257 2.22396 2.26993 2.34363 2.36608 2.39772 2.41054 2.51080 2.59936 2.77637
 3.03009 3.29802 3.54812 3.80912 3.87248 3.96485 6.27592 7.33647
 == 1712-th k-point (0.10205,0.20411,0.40822) occupation: 14==
 -64.99278 -64.99275 -4.62164 -4.62151 -3.03249 -3.03249 -3.03228 -3.03196 -3.03176 -3.03174
 -0.07766 0.05396 0.15638 0.19656 0.36051 0.43387 0.45580 0.50108 0.64410 0.65787
 0.72270 0.75741 0.78233 0.86821 0.95627 0.97366 1.00164 1.07083 1.09730 1.16140
 1.19729 1.26571 1.31127 1.40486 1.43339 1.45683 1.49611 1.53474 1.59478 1.64030
 1.68696 1.72415 1.78225 1.83748 1.89322 1.95287 1.97536 2.02051 2.07888 2.14547
 2.18971 2.22324 2.28728 2.35126 2.39194 2.41387 2.44467 2.51727 2.58586 2.70018
 3.11515 3.36801 3.52239 3.79321 3.92487 3.99573 6.26349 7.68536
 == 1713-th k-point (0.15308,0.25514,0.35719) occupation: 14==
 -64.99278 -64.99275 -4.62164 -4.62150 -3.03248 -3.03248 -3.03232 -3.03192 -3.03178 -3.03176
 -0.08188 0.04136 0.18084 0.21766 0.37385 0.39630 0.44631 0.52927 0.61671 0.64054
 0.70368 0.74576 0.77949 0.86495 0.92391 0.99921 1.05438 1.10581 1.12809 1.17870
 1.20995 1.31634 1.33212 1.36839 1.43589 1.44407 1.48566 1.52365 1.55065 1.61753
 1.64681 1.73996 1.80017 1.84213 1.89340 1.93909 1.99301 2.02537 2.07539 2.18172
 2.20580 2.25815 2.30004 2.36245 2.42912 2.44848 2.48781 2.52195 2.55907 2.61994
 3.19022 3.40114 3.51850 3.73938 4.00589 4.06904 6.08133 7.80706
 == 1714-th k-point (0.20411,0.30616,0.30616) occupation: 14==
 -64.99278 -64.99272 -4.62164 -4.62150 -3.03248 -3.03248 -3.03233 -3.03189 -3.03178 -3.03177
 -0.08134 0.02914 0.20604 0.22954 0.35432 0.40325 0.41092 0.57505 0.61692 0.63554
 0.70282 0.73027 0.77699 0.79646 0.95507 1.04509 1.08812 1.08916 1.16012 1.18919
 1.24047 1.26249 1.34058 1.37733 1.40082 1.46049 1.47163 1.51496 1.57729 1.58746
 1.61725 1.69459 1.84743 1.87351 1.92561 1.93282 2.00968 2.03678 2.03725 2.15954
 2.28431 2.32357 2.32946 2.37687 2.42837 2.45730 2.49700 2.50280 2.51358 2.56215
 3.26557 3.42505 3.51231 3.67189 4.06548 4.09828 4.84354 7.84919
 == 1715-th k-point (0.25514,0.35719,0.25514) occupation: 14==
 -64.99278 -64.99272 -4.62164 -4.62150 -3.03248 -3.03248 -3.03233 -3.03189 -3.03178 -3.03177
 -0.07685 0.02255 0.20958 0.22423 0.35332 0.39893 0.41512 0.57103 0.62080 0.67764
 0.70751 0.71114 0.74146 0.80042 0.98795 1.05150 1.07169 1.10608 1.15041 1.15578
 1.26145 1.29197 1.31684 1.36617 1.39308 1.45883 1.49678 1.50056 1.56742 1.59569
 1.62204 1.68173 1.84193 1.87514 1.93058 1.96286 1.98255 2.02986 2.05137 2.13281
 2.30782 2.34253 2.34299 2.38559 2.42433 2.46452 2.48040 2.49216 2.52624 2.53751
 3.34331 3.43226 3.52027 3.62439 4.07955 4.09053 4.62749 7.77226
 == 1716-th k-point (-0.25514,-0.25514,0.86746) occupation: 14==
 -64.99278 -64.99272 -4.62164 -4.62150 -3.03248 -3.03248 -3.03233 -3.03189 -3.03178 -3.03177
 -0.07685 0.02255 0.20958 0.22423 0.35332 0.39893 0.41512 0.57103 0.62080 0.67764
 0.70751 0.71114 0.74146 0.80042 0.98795 1.05150 1.07169 1.10608 1.15041 1.15578
 1.26145 1.29197 1.31684 1.36617 1.39308 1.45883 1.49678 1.50056 1.56742 1.59569
 1.62204 1.68173 1.84193 1.87514 1.93058 1.96286 1.98255 2.02986 2.05137 2.13281
 2.30782 2.34253 2.34299 2.38559 2.42433 2.46452 2.48040 2.49216 2.52624 2.53751
 3.34331 3.43226 3.52027 3.62439 4.07955 4.09053 4.62749 7.77226
 == 1717-th k-point (-0.20411,-0.20411,0.81643) occupation: 14==
 -64.99278 -64.99274 -4.62163 -4.62151 -3.03249 -3.03249 -3.03230 -3.03194 -3.03177 -3.03175
 -0.07242 0.03233 0.17297 0.20941 0.35314 0.43002 0.44971 0.51611 0.62887 0.67498
 0.72333 0.72509 0.74868 0.88444 0.95523 1.01879 1.05247 1.06678 1.08978 1.15421
 1.21076 1.31416 1.33286 1.36475 1.42407 1.43440 1.48196 1.53778 1.58264 1.61748
 1.64535 1.73866 1.80325 1.82288 1.89320 1.96179 1.98464 2.01070 2.09083 2.17712
 2.22051 2.25416 2.31806 2.38210 2.38800 2.44069 2.44607 2.52473 2.55886 2.63258
 3.25847 3.42206 3.53791 3.68183 4.01746 4.02446 5.82534 7.84906
 == 1718-th k-point (-0.15308,-0.15308,0.76541) occupation: 14==
 -64.99278 -64.99274 -4.62162 -4.62152 -3.03250 -3.03250 -3.03225 -3.03199 -3.03176 -3.03173
 -0.06411 0.04087 0.14485 0.19351 0.33378 0.44292 0.48999 0.49813 0.65665 0.67640
 0.73793 0.75335 0.76653 0.90803 0.96055 0.98005 1.02538 1.02614 1.04386 1.16467
 1.18901 1.24832 1.26057 1.39502 1.43789 1.46501 1.47762 1.52483 1.62454 1.68807
 1.69853 1.72716 1.80546 1.81643 1.87928 1.94853 2.00471 2.01836 2.10094 2.10758
 2.18167 2.25803 2.30243 2.36414 2.39725 2.40126 2.42326 2.52723 2.57515 2.69067
 3.17572 3.32304 3.55652 3.73572 3.92847 3.97881 5.71923 7.84739
 == 1719-th k-point (-0.10205,-0.10205,0.71438) occupation: 14==
 -64.99277 -64.99274 -4.62161 -4.62154 -3.03250 -3.03250 -3.03220 -3.03204 -3.03175 -3.03173
 -0.05127 0.03440 0.14100 0.18055 0.31688 0.37823 0.55505 0.55522 0.67307 0.68212
 0.74389 0.75555 0.83321 0.87158 0.88408 0.98949 1.00399 1.02959 1.06429 1.15940
 1.17413 1.18342 1.21777 1.33141 1.40929 1.48094 1.54705 1.56095 1.67227 1.70925
 1.74293 1.76641 1.81387 1.83198 1.86243 1.94099 2.02595 2.03658 2.05996 2.12978
 2.15792 2.23071 2.29843 2.34067 2.35944 2.40918 2.45680 2.52729 2.58571 2.73276
 3.08862 3.14640 3.60574 3.76860 3.89019 4.00130 5.53377 7.61988
 == 1720-th k-point (-0.05103,-0.05103,0.66335) occupation: 14==
 -64.99276 -64.99274 -4.62159 -4.62155 -3.03250 -3.03249 -3.03216 -3.03208 -3.03176 -3.03174
 -0.03366 0.01289 0.15772 0.17229 0.30617 0.32726 0.61476 0.61788 0.68513 0.69056
 0.74273 0.75306 0.80435 0.80676 0.93038 0.99635 1.01746 1.03588 1.07442 1.11003
 1.12578 1.17181 1.22169 1.28076 1.41796 1.45430 1.60420 1.60472 1.73206 1.74721
 1.76655 1.77431 1.80239 1.85983 1.87895 1.91752 2.03230 2.05659 2.12828 2.16775
 2.17813 2.18605 2.27248 2.30977 2.33480 2.37897 2.53418 2.57343 2.61470 2.75277
 2.96093 2.98032 3.70998 3.81092 3.94255 4.07268 5.45657 6.79425
 == 1721-th k-point (0.00000,0.00000,0.61232) occupation: 14==
 -64.99274 -64.99274 -4.62157 -4.62157 -3.03249 -3.03249 -3.03211 -3.03211 -3.03176 -3.03176
 -0.01168 -0.01168 0.16947 0.16947 0.30391 0.30391 0.64989 0.64989 0.69679 0.69679
 0.75183 0.75183 0.75866 0.75866 0.99836 0.99836 1.04418 1.04418 1.06830 1.06830
 1.11739 1.11739 1.27230 1.27230 1.42106 1.42106 1.63524 1.63524 1.75533 1.75533
 1.76865 1.76865 1.84908 1.84908 1.89710 1.89710 2.11781 2.11781 2.15494 2.15494
 2.17075 2.17075 2.25557 2.25557 2.34457 2.34457 2.65420 2.65420 2.66303 2.66303
 2.83531 2.83531 3.83491 3.83491 4.13156 4.13156 5.45524 5.45524
 == 1722-th k-point (0.05103,0.05103,0.56130) occupation: 14==
 -64.99276 -64.99274 -4.62159 -4.62155 -3.03250 -3.03249 -3.03216 -3.03208 -3.03176 -3.03174
 -0.03366 0.01289 0.15772 0.17229 0.30617 0.32726 0.61476 0.61788 0.68513 0.69056
 0.74273 0.75306 0.80435 0.80676 0.93038 0.99635 1.01746 1.03588 1.07442 1.11003
 1.12578 1.17181 1.22169 1.28076 1.41796 1.45430 1.60420 1.60472 1.73206 1.74721
 1.76655 1.77431 1.80239 1.85983 1.87895 1.91752 2.03230 2.05659 2.12828 2.16775
 2.17813 2.18605 2.27248 2.30977 2.33480 2.37897 2.53418 2.57343 2.61470 2.75277
 2.96093 2.98032 3.70998 3.81092 3.94255 4.07268 5.45657 6.79425
 == 1723-th k-point (0.10205,0.10205,0.51027) occupation: 14==
 -64.99277 -64.99274 -4.62161 -4.62154 -3.03250 -3.03250 -3.03220 -3.03204 -3.03175 -3.03173
 -0.05127 0.03440 0.14100 0.18055 0.31688 0.37823 0.55505 0.55522 0.67307 0.68212
 0.74389 0.75555 0.83321 0.87158 0.88408 0.98949 1.00399 1.02959 1.06429 1.15940
 1.17413 1.18342 1.21777 1.33141 1.40929 1.48094 1.54705 1.56095 1.67227 1.70925
 1.74293 1.76641 1.81387 1.83198 1.86243 1.94099 2.02595 2.03658 2.05996 2.12978
 2.15792 2.23071 2.29843 2.34067 2.35944 2.40918 2.45680 2.52729 2.58571 2.73276
 3.08862 3.14640 3.60574 3.76860 3.89019 4.00130 5.53377 7.61988
 == 1724-th k-point (0.15308,0.15308,0.45924) occupation: 14==
 -64.99278 -64.99274 -4.62162 -4.62152 -3.03250 -3.03250 -3.03225 -3.03199 -3.03176 -3.03173
 -0.06411 0.04087 0.14485 0.19351 0.33378 0.44292 0.48999 0.49813 0.65665 0.67640
 0.73793 0.75335 0.76653 0.90803 0.96055 0.98005 1.02538 1.02614 1.04386 1.16467
 1.18901 1.24832 1.26057 1.39502 1.43789 1.46501 1.47762 1.52483 1.62454 1.68807
 1.69853 1.72716 1.80546 1.81643 1.87928 1.94853 2.00471 2.01836 2.10094 2.10758
 2.18167 2.25803 2.30243 2.36414 2.39725 2.40126 2.42326 2.52723 2.57515 2.69067
 3.17572 3.32304 3.55652 3.73572 3.92847 3.97881 5.71923 7.84739
 == 1725-th k-point (0.20411,0.20411,0.40822) occupation: 14==
 -64.99278 -64.99274 -4.62163 -4.62151 -3.03249 -3.03249 -3.03230 -3.03194 -3.03177 -3.03175
 -0.07242 0.03233 0.17297 0.20941 0.35314 0.43002 0.44971 0.51611 0.62887 0.67498
 0.72333 0.72509 0.74868 0.88444 0.95523 1.01879 1.05247 1.06678 1.08978 1.15421
 1.21076 1.31416 1.33286 1.36475 1.42407 1.43440 1.48196 1.53778 1.58264 1.61748
 1.64535 1.73866 1.80325 1.82288 1.89320 1.96179 1.98464 2.01070 2.09083 2.17712
 2.22051 2.25416 2.31806 2.38210 2.38800 2.44069 2.44607 2.52473 2.55886 2.63258
 3.25847 3.42206 3.53791 3.68183 4.01746 4.02446 5.82534 7.84906
 == 1726-th k-point (0.25514,0.25514,0.35719) occupation: 14==
 -64.99278 -64.99272 -4.62164 -4.62150 -3.03248 -3.03248 -3.03233 -3.03189 -3.03178 -3.03177
 -0.07685 0.02255 0.20958 0.22423 0.35332 0.39893 0.41512 0.57103 0.62080 0.67764
 0.70751 0.71114 0.74146 0.80042 0.98795 1.05150 1.07169 1.10608 1.15041 1.15578
 1.26145 1.29197 1.31684 1.36617 1.39308 1.45883 1.49678 1.50056 1.56742 1.59569
 1.62204 1.68173 1.84193 1.87514 1.93058 1.96286 1.98255 2.02986 2.05137 2.13281
 2.30782 2.34253 2.34299 2.38559 2.42433 2.46452 2.48040 2.49216 2.52624 2.53751
 3.34331 3.43226 3.52027 3.62439 4.07955 4.09053 4.62749 7.77226
 == 1727-th k-point (0.30616,0.30616,0.30616) occupation: 14==
 -64.99278 -64.99270 -4.62164 -4.62150 -3.03248 -3.03248 -3.03234 -3.03187 -3.03179 -3.03179
 -0.07821 0.01870 0.23077 0.23077 0.33466 0.40194 0.40194 0.56685 0.68049 0.68049
 0.69962 0.70406 0.70406 0.76576 1.01827 1.03394 1.10980 1.10980 1.15918 1.15918
 1.25343 1.29783 1.29783 1.36109 1.36109 1.42145 1.54722 1.54722 1.55494 1.55494
 1.63726 1.64274 1.86225 1.93245 1.96204 1.96204 2.01462 2.01462 2.01467 2.08819
 2.34478 2.34478 2.42823 2.42823 2.43669 2.43669 2.45889 2.49388 2.49388 2.50299
 3.42768 3.42768 3.47003 3.58063 3.67407 4.10115 4.10115 7.72820
 ---------------------------------------------------------------------------
 VBM is at 785-th k-point with 7.51135 eV
 CBM is at 1565-th k-point with 8.12460 eV
 Band gap is 0.61324 eV


           Ground-State Mulliken Net Atomic Charges

      Atom                 Charge (a.u.)          Spin (a.u.)
   --------------------------------------------------------
      1 Si               (0.000000,-0.000000)    (0.000000,0.000000)
      2 Si               (-0.000000,0.000000)    (0.000000,0.000000)
   --------------------------------------------------------
  Sum of atomic charges =     (-0.000000,-0.000000)
  Sum of spin   charges =       (0.000000,0.000000)



 Total job time:  470.39 s.
 Tue Sep  9 10:41:25 2025


        *************************************************************
        *                                                           *
        *  Thank you very much for using QCPBC. Have a nice day.    *
        *                                                           *
        *************************************************************

Running job 1 of 1
