                  Welcome to Q-Chem
           with Periodic Boundary Condition
     A Quantum Leap Into The Future Of Chemistry

 Adam Rettig, Xintian Feng, Meng-Fu Chen, Hieu Dinh, Stephen Quiton,
 Anton Ni, Paul J. Robinson, Jinghong Zhang, Joonho Lee

Contributors to earlier versions of Q-Chem not listed above:
 Evgeny Epifanovsky, Leo Cunha, Jerome F. Gonthier, Kuan-Yu Liu
 Input file: /n/netscratch/joonholee_lab/Lab/hieudinh//si_2_ccpvtz_omega_0.9_101010.scratch20250909100725/si_2_ccpvtz_omega_0.9_101010.0
 Scratch folder: /n/netscratch/joonholee_lab/Lab/hieudinh//si_2_ccpvtz_omega_0.9_101010.scratch20250909100725
 Auxillary files located at: /n/holylabs/LABS/joonholee_lab/Lab/qchem_base/qcaux
 Q-Chem begins on Tue Sep  9 10:07:26 2025

 -------------------------------------------------------------
 User input:
 -------------------------------------------------------------
 $lattice
 3
 0.000000 5.130600 5.130600
 5.130600 0.000000 5.130600
 5.130600 5.130600 0.000000
 $end
 
 $unitcell
 ABSOLUTE
 0 1
 Si 0.000000 0.000000 0.000000
 Si 2.565300 2.565300 2.565300
 $end
 
 $rem
 jobtype = sp
 method = pbe
 scf_convergence = 5
 scf_guess = autosad
 scf_algorithm = diis_gdm
 basis = cc-pvtz
 aux_basis = cc-pvtz-jk
 input_bohr = true
 symmetry = false
 rsdf_print_level 1
 is_basis_uctr true
 
 mp_mesh = [10,10,10]
 
 integral_direct true
 bvk_cgto true
 
 thresh 14
 mem_total 1000000
 threads 32
 
 MAX_SCF_CYCLES 500
 madelung = false
 omega 0.9
 do_rij_bigmem true
 automate_g true
 print_level 10
 grid_type_xc 1
 
 thresh_1e2c_sp 1e-14
 thresh_2e3c_bra_ket_sep 1e-10
 thresh_g 1e-12
 $end
 
 -------------------------------------------------------------
 Running PBC job

 Requested Exchange Correlation Functionals: 
  DFT Exchange:  1.00000 pbe_x
  DFT Correlation:  1.00000 pbe_c
 using 32 threads for computing.
 ---------------------------------------------------------------
      Coordinates of Atoms in Central Unit Cell (Angstroms)
    I     Atom         X            Y            Z
 ---------------------------------------------------------------
    1      Si      0.000000     0.000000     0.000000
    2      Si      1.357498     1.357498     1.357498
 ---------------------------------------------------------------
 --------------------------------------------------
              Lattice Vectors (Angstroms)
              X            Y            Z
 --------------------------------------------------
   X       0.000000     2.714997     2.714997
   Y       2.714997     0.000000     2.714997
   Z       2.714997     2.714997     0.000000
 --------------------------------------------------
 --------------------------------------------------
       Reciprocal Lattice Vectors (Angstroms^-1)
              X            Y            Z
 --------------------------------------------------
   X      -1.157126     1.157126     1.157126
   Y       1.157126    -1.157126     1.157126
   Z       1.157126     1.157126    -1.157126
 --------------------------------------------------

 Single point calculation requested

 Hamiltonian contributions:
 List of terms in Hamiltonian: kpts_nn, kpts_kinetic, kpts_vnuc_df, kpts_xc, kpts_rij_bigmem

 K-Points calculation started.

 Basis set information about using solid harmonic (1) or Cartesian (0):
  si : D(1) D(1) F(1) 

 Basis set information about using solid harmonic (1) or Cartesian (0):
  si : D(1) D(1) D(1) D(1) D(1) D(1) D(1) D(1) D(1) F(1) F(1) F(1) G(1) 

 There are 68 basis functions in the central unit cell.
 Print atomic basis of atoms in the central unit cell:
 -------------------------------------------------------------
2 104 104 24

  0.00000000000000e+00  0.00000000000000e+00  0.00000000000000e+00
  2.56530000000000e+00  2.56530000000000e+00  2.56530000000000e+00

  2.54900000000000e+05
  3.81900000000000e+04
  8.69000000000000e+03
  2.46200000000000e+03
  8.04800000000000e+02
  2.91300000000000e+02
  1.13600000000000e+02
  4.67500000000000e+01
  1.98200000000000e+01
  7.70800000000000e+00
  3.34000000000000e+00
  2.54900000000000e+05
  3.81900000000000e+04
  8.69000000000000e+03
  8.04800000000000e+02
  2.91300000000000e+02
  1.13600000000000e+02
  4.67500000000000e+01
  1.98200000000000e+01
  7.70800000000000e+00
  3.34000000000000e+00
  1.40200000000000e+00
  2.54900000000000e+05
  3.81900000000000e+04
  8.69000000000000e+03
  2.91300000000000e+02
  1.13600000000000e+02
  4.67500000000000e+01
  1.98200000000000e+01
  7.70800000000000e+00
  3.34000000000000e+00
  1.40200000000000e+00
  2.07000000000000e-01
  4.38700000000000e-01
  7.94400000000000e-02
  4.81500000000000e+02
  1.13900000000000e+02
  3.62300000000000e+01
  1.33400000000000e+01
  5.25200000000000e+00
  2.12000000000000e+00
  1.13900000000000e+02
  3.62300000000000e+01
  1.33400000000000e+01
  5.25200000000000e+00
  2.12000000000000e+00
  2.52800000000000e-01
  8.56100000000000e-01
  7.88900000000000e-02
  4.81000000000000e-01
  1.59000000000000e-01
  3.36000000000000e-01
  2.54900000000000e+05
  3.81900000000000e+04
  8.69000000000000e+03
  2.46200000000000e+03
  8.04800000000000e+02
  2.91300000000000e+02
  1.13600000000000e+02
  4.67500000000000e+01
  1.98200000000000e+01
  7.70800000000000e+00
  3.34000000000000e+00
  2.54900000000000e+05
  3.81900000000000e+04
  8.69000000000000e+03
  8.04800000000000e+02
  2.91300000000000e+02
  1.13600000000000e+02
  4.67500000000000e+01
  1.98200000000000e+01
  7.70800000000000e+00
  3.34000000000000e+00
  1.40200000000000e+00
  2.54900000000000e+05
  3.81900000000000e+04
  8.69000000000000e+03
  2.91300000000000e+02
  1.13600000000000e+02
  4.67500000000000e+01
  1.98200000000000e+01
  7.70800000000000e+00
  3.34000000000000e+00
  1.40200000000000e+00
  2.07000000000000e-01
  4.38700000000000e-01
  7.94400000000000e-02
  4.81500000000000e+02
  1.13900000000000e+02
  3.62300000000000e+01
  1.33400000000000e+01
  5.25200000000000e+00
  2.12000000000000e+00
  1.13900000000000e+02
  3.62300000000000e+01
  1.33400000000000e+01
  5.25200000000000e+00
  2.12000000000000e+00
  2.52800000000000e-01
  8.56100000000000e-01
  7.88900000000000e-02
  4.81000000000000e-01
  1.59000000000000e-01
  3.36000000000000e-01

  5.06121931014315e-01
  9.46667895564849e-01
  1.63484840115776e+00
  2.64073594005923e+00
  3.97699155153283e+00
  5.40905960736848e+00
  6.15868961670172e+00
  4.99170532032548e+00
  2.02857976424901e+00
  1.82839763527352e-01
 -1.25640690342342e-02
  1.10808750449959e-03
  1.94415577975663e-03
  2.70023730632789e-03
 -1.69098200112149e-02
 -8.66890848691569e-02
 -2.76125946359713e-01
 -6.25588788447604e-01
 -6.61701688370681e-01
  3.11114524237060e-01
  9.56658906468163e-01
  4.36891217824705e-01
  1.05873342256663e-04
  1.52975802748887e-04
  4.28394863673135e-04
 -4.94070443505333e-03
 -1.17298035021286e-02
 -2.95023896611804e-02
 -1.71455066569284e-02
  3.00007138114875e-03
 -6.19326651465540e-02
 -2.59989143457351e-01
  2.47187614608056e-01
  3.84180942836044e-01
  1.06644759418552e-01
  6.70509611941243e+00
  8.84487660481054e+00
  9.82415782069442e+00
  8.40902910540583e+00
  4.80448757555754e+00
  1.55989499299286e+00
 -1.15889775037608e-01
 -5.13312293701512e-02
 -2.64771097977823e-01
 -6.52512718105956e-02
 -1.94608613796415e-01
  2.59380435893970e-01
  1.17380433533106e+00
  5.95960578383022e-02
  4.57260134599596e-01
  6.58952976069849e-02
  1.26537084505476e-01
  5.06121931014315e-01
  9.46667895564849e-01
  1.63484840115776e+00
  2.64073594005923e+00
  3.97699155153283e+00
  5.40905960736848e+00
  6.15868961670172e+00
  4.99170532032548e+00
  2.02857976424901e+00
  1.82839763527352e-01
 -1.25640690342342e-02
  1.10808750449959e-03
  1.94415577975663e-03
  2.70023730632789e-03
 -1.69098200112149e-02
 -8.66890848691569e-02
 -2.76125946359713e-01
 -6.25588788447604e-01
 -6.61701688370681e-01
  3.11114524237060e-01
  9.56658906468163e-01
  4.36891217824705e-01
  1.05873342256663e-04
  1.52975802748887e-04
  4.28394863673135e-04
 -4.94070443505333e-03
 -1.17298035021286e-02
 -2.95023896611804e-02
 -1.71455066569284e-02
  3.00007138114875e-03
 -6.19326651465540e-02
 -2.59989143457351e-01
  2.47187614608056e-01
  3.84180942836044e-01
  1.06644759418552e-01
  6.70509611941243e+00
  8.84487660481054e+00
  9.82415782069442e+00
  8.40902910540583e+00
  4.80448757555754e+00
  1.55989499299286e+00
 -1.15889775037608e-01
 -5.13312293701512e-02
 -2.64771097977823e-01
 -6.52512718105956e-02
 -1.94608613796415e-01
  2.59380435893970e-01
  1.17380433533106e+00
  5.95960578383022e-02
  4.57260134599596e-01
  6.58952976069849e-02
  1.26537084505476e-01

0 0 0 0 1 1 1
0 0 
11 0

0 1 1 11 1 1 1
11 0 
11 0

0 2 2 22 1 1 1
22 0 
11 0

0 3 3 33 1 1 1
33 0 
1 0

0 4 4 34 1 1 1
34 0 
1 0

0 5 5 35 1 3 3
35 1 
6 0

0 8 8 41 1 3 3
41 1 
6 0

0 11 11 47 1 3 3
47 1 
1 0

0 14 14 48 1 3 3
48 1 
1 0

0 17 17 49 1 5 6
49 2 
1 1

0 22 22 50 1 5 6
50 2 
1 1

0 27 27 51 1 7 10
51 3 
1 1

1 34 34 52 1 1 1
52 0 
11 0

1 35 35 63 1 1 1
63 0 
11 0

1 36 36 74 1 1 1
74 0 
11 0

1 37 37 85 1 1 1
85 0 
1 0

1 38 38 86 1 1 1
86 0 
1 0

1 39 39 87 1 3 3
87 1 
6 0

1 42 42 93 1 3 3
93 1 
6 0

1 45 45 99 1 3 3
99 1 
1 0

1 48 48 100 1 3 3
100 1 
1 0

1 51 51 101 1 5 6
101 2 
1 1

1 56 56 102 1 5 6
102 2 
1 1

1 61 61 103 1 7 10
103 3 
1 1

 -------------------------------------------------------------
 Allocate 263208 B from available memory: 1048576000000 B
 There are 1331 image cells after screening.
 There are 1353 image cells for CGTO evaluation after screening.
 Real-Space grid for FFT initialized based on kinetic energy cutoff (eV) = 500.0
 Real-Space grid for FFT: (10,10,10)
 There are 9261 real-space grid points.
 There are 64 batches of real-space grid points. 
 Size of each grid batch is around 128
 Grid for AFT initialized based on kinetic energy cutoff (eV) = 500.0
 Real-Space grid for AFT: (10,10,10)
 There are 9261 real-space grid points.

 There are 5456 atom-centered grid points.

 Spacegroup symmetry group: Fd-3m
 Reducing spacegroup symmetry to symmorphic group: F -4 3 m
 Monkhorst-Pack mesh is [10,10,10]
 There are 1000 k points.
kpoints in Bohr
-0.2449298447 -0.2449298447 -0.2449298447
-0.1836973836 -0.1836973836 -0.3061623059
-0.1224649224 -0.1224649224 -0.3673947671
-0.0612324612 -0.0612324612 -0.4286272283
-0.0000000000 -0.0000000000 -0.4898596895
0.0612324612 0.0612324612 -0.5510921507
0.1224649224 0.1224649224 -0.6123246119
0.1836973836 0.1836973836 -0.6735570730
0.2449298447 0.2449298447 -0.7347895342
0.3061623059 0.3061623059 -0.7960219954
-0.1836973836 -0.3061623059 -0.1836973836
-0.1224649224 -0.2449298447 -0.2449298447
-0.0612324612 -0.1836973836 -0.3061623059
-0.0000000000 -0.1224649224 -0.3673947671
0.0612324612 -0.0612324612 -0.4286272283
0.1224649224 -0.0000000000 -0.4898596895
0.1836973836 0.0612324612 -0.5510921507
0.2449298447 0.1224649224 -0.6123246119
0.3061623059 0.1836973836 -0.6735570730
0.3673947671 0.2449298447 -0.7347895342
-0.1224649224 -0.3673947671 -0.1224649224
-0.0612324612 -0.3061623059 -0.1836973836
-0.0000000000 -0.2449298447 -0.2449298447
0.0612324612 -0.1836973836 -0.3061623059
0.1224649224 -0.1224649224 -0.3673947671
0.1836973836 -0.0612324612 -0.4286272283
0.2449298447 -0.0000000000 -0.4898596895
0.3061623059 0.0612324612 -0.5510921507
0.3673947671 0.1224649224 -0.6123246119
0.4286272283 0.1836973836 -0.6735570730
-0.0612324612 -0.4286272283 -0.0612324612
-0.0000000000 -0.3673947671 -0.1224649224
0.0612324612 -0.3061623059 -0.1836973836
0.1224649224 -0.2449298447 -0.2449298447
0.1836973836 -0.1836973836 -0.3061623059
0.2449298447 -0.1224649224 -0.3673947671
0.3061623059 -0.0612324612 -0.4286272283
0.3673947671 -0.0000000000 -0.4898596895
0.4286272283 0.0612324612 -0.5510921507
0.4898596895 0.1224649224 -0.6123246119
-0.0000000000 -0.4898596895 0.0000000000
0.0612324612 -0.4286272283 -0.0612324612
0.1224649224 -0.3673947671 -0.1224649224
0.1836973836 -0.3061623059 -0.1836973836
0.2449298447 -0.2449298447 -0.2449298447
0.3061623059 -0.1836973836 -0.3061623059
0.3673947671 -0.1224649224 -0.3673947671
0.4286272283 -0.0612324612 -0.4286272283
0.4898596895 -0.0000000000 -0.4898596895
0.5510921507 0.0612324612 -0.5510921507
0.0612324612 -0.5510921507 0.0612324612
0.1224649224 -0.4898596895 -0.0000000000
0.1836973836 -0.4286272283 -0.0612324612
0.2449298447 -0.3673947671 -0.1224649224
0.3061623059 -0.3061623059 -0.1836973836
0.3673947671 -0.2449298447 -0.2449298447
0.4286272283 -0.1836973836 -0.3061623059
0.4898596895 -0.1224649224 -0.3673947671
0.5510921507 -0.0612324612 -0.4286272283
0.6123246119 0.0000000000 -0.4898596895
0.1224649224 -0.6123246119 0.1224649224
0.1836973836 -0.5510921507 0.0612324612
0.2449298447 -0.4898596895 0.0000000000
0.3061623059 -0.4286272283 -0.0612324612
0.3673947671 -0.3673947671 -0.1224649224
0.4286272283 -0.3061623059 -0.1836973836
0.4898596895 -0.2449298447 -0.2449298447
0.5510921507 -0.1836973836 -0.3061623059
0.6123246119 -0.1224649224 -0.3673947671
0.6735570730 -0.0612324612 -0.4286272283
0.1836973836 -0.6735570730 0.1836973836
0.2449298447 -0.6123246119 0.1224649224
0.3061623059 -0.5510921507 0.0612324612
0.3673947671 -0.4898596895 -0.0000000000
0.4286272283 -0.4286272283 -0.0612324612
0.4898596895 -0.3673947671 -0.1224649224
0.5510921507 -0.3061623059 -0.1836973836
0.6123246119 -0.2449298447 -0.2449298447
0.6735570730 -0.1836973836 -0.3061623059
0.7347895342 -0.1224649224 -0.3673947671
0.2449298447 -0.7347895342 0.2449298447
0.3061623059 -0.6735570730 0.1836973836
0.3673947671 -0.6123246119 0.1224649224
0.4286272283 -0.5510921507 0.0612324612
0.4898596895 -0.4898596895 0.0000000000
0.5510921507 -0.4286272283 -0.0612324612
0.6123246119 -0.3673947671 -0.1224649224
0.6735570730 -0.3061623059 -0.1836973836
0.7347895342 -0.2449298447 -0.2449298447
0.7960219954 -0.1836973836 -0.3061623059
0.3061623059 -0.7960219954 0.3061623059
0.3673947671 -0.7347895342 0.2449298447
0.4286272283 -0.6735570730 0.1836973836
0.4898596895 -0.6123246119 0.1224649224
0.5510921507 -0.5510921507 0.0612324612
0.6123246119 -0.4898596895 0.0000000000
0.6735570730 -0.4286272283 -0.0612324612
0.7347895342 -0.3673947671 -0.1224649224
0.7960219954 -0.3061623059 -0.1836973836
0.8572544566 -0.2449298447 -0.2449298447
-0.3061623059 -0.1836973836 -0.1836973836
-0.2449298447 -0.1224649224 -0.2449298447
-0.1836973836 -0.0612324612 -0.3061623059
-0.1224649224 -0.0000000000 -0.3673947671
-0.0612324612 0.0612324612 -0.4286272283
-0.0000000000 0.1224649224 -0.4898596895
0.0612324612 0.1836973836 -0.5510921507
0.1224649224 0.2449298447 -0.6123246119
0.1836973836 0.3061623059 -0.6735570730
0.2449298447 0.3673947671 -0.7347895342
-0.2449298447 -0.2449298447 -0.1224649224
-0.1836973836 -0.1836973836 -0.1836973836
-0.1224649224 -0.1224649224 -0.2449298447
-0.0612324612 -0.0612324612 -0.3061623059
-0.0000000000 -0.0000000000 -0.3673947671
0.0612324612 0.0612324612 -0.4286272283
0.1224649224 0.1224649224 -0.4898596895
0.1836973836 0.1836973836 -0.5510921507
0.2449298447 0.2449298447 -0.6123246119
0.3061623059 0.3061623059 -0.6735570730
-0.1836973836 -0.3061623059 -0.0612324612
-0.1224649224 -0.2449298447 -0.1224649224
-0.0612324612 -0.1836973836 -0.1836973836
-0.0000000000 -0.1224649224 -0.2449298447
0.0612324612 -0.0612324612 -0.3061623059
0.1224649224 -0.0000000000 -0.3673947671
0.1836973836 0.0612324612 -0.4286272283
0.2449298447 0.1224649224 -0.4898596895
0.3061623059 0.1836973836 -0.5510921507
0.3673947671 0.2449298447 -0.6123246119
-0.1224649224 -0.3673947671 0.0000000000
-0.0612324612 -0.3061623059 -0.0612324612
-0.0000000000 -0.2449298447 -0.1224649224
0.0612324612 -0.1836973836 -0.1836973836
0.1224649224 -0.1224649224 -0.2449298447
0.1836973836 -0.0612324612 -0.3061623059
0.2449298447 -0.0000000000 -0.3673947671
0.3061623059 0.0612324612 -0.4286272283
0.3673947671 0.1224649224 -0.4898596895
0.4286272283 0.1836973836 -0.5510921507
-0.0612324612 -0.4286272283 0.0612324612
-0.0000000000 -0.3673947671 0.0000000000
0.0612324612 -0.3061623059 -0.0612324612
0.1224649224 -0.2449298447 -0.1224649224
0.1836973836 -0.1836973836 -0.1836973836
0.2449298447 -0.1224649224 -0.2449298447
0.3061623059 -0.0612324612 -0.3061623059
0.3673947671 0.0000000000 -0.3673947671
0.4286272283 0.0612324612 -0.4286272283
0.4898596895 0.1224649224 -0.4898596895
-0.0000000000 -0.4898596895 0.1224649224
0.0612324612 -0.4286272283 0.0612324612
0.1224649224 -0.3673947671 0.0000000000
0.1836973836 -0.3061623059 -0.0612324612
0.2449298447 -0.2449298447 -0.1224649224
0.3061623059 -0.1836973836 -0.1836973836
0.3673947671 -0.1224649224 -0.2449298447
0.4286272283 -0.0612324612 -0.3061623059
0.4898596895 0.0000000000 -0.3673947671
0.5510921507 0.0612324612 -0.4286272283
0.0612324612 -0.5510921507 0.1836973836
0.1224649224 -0.4898596895 0.1224649224
0.1836973836 -0.4286272283 0.0612324612
0.2449298447 -0.3673947671 0.0000000000
0.3061623059 -0.3061623059 -0.0612324612
0.3673947671 -0.2449298447 -0.1224649224
0.4286272283 -0.1836973836 -0.1836973836
0.4898596895 -0.1224649224 -0.2449298447
0.5510921507 -0.0612324612 -0.3061623059
0.6123246119 0.0000000000 -0.3673947671
0.1224649224 -0.6123246119 0.2449298447
0.1836973836 -0.5510921507 0.1836973836
0.2449298447 -0.4898596895 0.1224649224
0.3061623059 -0.4286272283 0.0612324612
0.3673947671 -0.3673947671 0.0000000000
0.4286272283 -0.3061623059 -0.0612324612
0.4898596895 -0.2449298447 -0.1224649224
0.5510921507 -0.1836973836 -0.1836973836
0.6123246119 -0.1224649224 -0.2449298447
0.6735570730 -0.0612324612 -0.3061623059
0.1836973836 -0.6735570730 0.3061623059
0.2449298447 -0.6123246119 0.2449298447
0.3061623059 -0.5510921507 0.1836973836
0.3673947671 -0.4898596895 0.1224649224
0.4286272283 -0.4286272283 0.0612324612
0.4898596895 -0.3673947671 0.0000000000
0.5510921507 -0.3061623059 -0.0612324612
0.6123246119 -0.2449298447 -0.1224649224
0.6735570730 -0.1836973836 -0.1836973836
0.7347895342 -0.1224649224 -0.2449298447
0.2449298447 -0.7347895342 0.3673947671
0.3061623059 -0.6735570730 0.3061623059
0.3673947671 -0.6123246119 0.2449298447
0.4286272283 -0.5510921507 0.1836973836
0.4898596895 -0.4898596895 0.1224649224
0.5510921507 -0.4286272283 0.0612324612
0.6123246119 -0.3673947671 0.0000000000
0.6735570730 -0.3061623059 -0.0612324612
0.7347895342 -0.2449298447 -0.1224649224
0.7960219954 -0.1836973836 -0.1836973836
-0.3673947671 -0.1224649224 -0.1224649224
-0.3061623059 -0.0612324612 -0.1836973836
-0.2449298447 -0.0000000000 -0.2449298447
-0.1836973836 0.0612324612 -0.3061623059
-0.1224649224 0.1224649224 -0.3673947671
-0.0612324612 0.1836973836 -0.4286272283
-0.0000000000 0.2449298447 -0.4898596895
0.0612324612 0.3061623059 -0.5510921507
0.1224649224 0.3673947671 -0.6123246119
0.1836973836 0.4286272283 -0.6735570730
-0.3061623059 -0.1836973836 -0.0612324612
-0.2449298447 -0.1224649224 -0.1224649224
-0.1836973836 -0.0612324612 -0.1836973836
-0.1224649224 -0.0000000000 -0.2449298447
-0.0612324612 0.0612324612 -0.3061623059
-0.0000000000 0.1224649224 -0.3673947671
0.0612324612 0.1836973836 -0.4286272283
0.1224649224 0.2449298447 -0.4898596895
0.1836973836 0.3061623059 -0.5510921507
0.2449298447 0.3673947671 -0.6123246119
-0.2449298447 -0.2449298447 0.0000000000
-0.1836973836 -0.1836973836 -0.0612324612
-0.1224649224 -0.1224649224 -0.1224649224
-0.0612324612 -0.0612324612 -0.1836973836
-0.0000000000 -0.0000000000 -0.2449298447
0.0612324612 0.0612324612 -0.3061623059
0.1224649224 0.1224649224 -0.3673947671
0.1836973836 0.1836973836 -0.4286272283
0.2449298447 0.2449298447 -0.4898596895
0.3061623059 0.3061623059 -0.5510921507
-0.1836973836 -0.3061623059 0.0612324612
-0.1224649224 -0.2449298447 -0.0000000000
-0.0612324612 -0.1836973836 -0.0612324612
-0.0000000000 -0.1224649224 -0.1224649224
0.0612324612 -0.0612324612 -0.1836973836
0.1224649224 -0.0000000000 -0.2449298447
0.1836973836 0.0612324612 -0.3061623059
0.2449298447 0.1224649224 -0.3673947671
0.3061623059 0.1836973836 -0.4286272283
0.3673947671 0.2449298447 -0.4898596895
-0.1224649224 -0.3673947671 0.1224649224
-0.0612324612 -0.3061623059 0.0612324612
-0.0000000000 -0.2449298447 0.0000000000
0.0612324612 -0.1836973836 -0.0612324612
0.1224649224 -0.1224649224 -0.1224649224
0.1836973836 -0.0612324612 -0.1836973836
0.2449298447 0.0000000000 -0.2449298447
0.3061623059 0.0612324612 -0.3061623059
0.3673947671 0.1224649224 -0.3673947671
0.4286272283 0.1836973836 -0.4286272283
-0.0612324612 -0.4286272283 0.1836973836
-0.0000000000 -0.3673947671 0.1224649224
0.0612324612 -0.3061623059 0.0612324612
0.1224649224 -0.2449298447 -0.0000000000
0.1836973836 -0.1836973836 -0.0612324612
0.2449298447 -0.1224649224 -0.1224649224
0.3061623059 -0.0612324612 -0.1836973836
0.3673947671 0.0000000000 -0.2449298447
0.4286272283 0.0612324612 -0.3061623059
0.4898596895 0.1224649224 -0.3673947671
-0.0000000000 -0.4898596895 0.2449298447
0.0612324612 -0.4286272283 0.1836973836
0.1224649224 -0.3673947671 0.1224649224
0.1836973836 -0.3061623059 0.0612324612
0.2449298447 -0.2449298447 0.0000000000
0.3061623059 -0.1836973836 -0.0612324612
0.3673947671 -0.1224649224 -0.1224649224
0.4286272283 -0.0612324612 -0.1836973836
0.4898596895 0.0000000000 -0.2449298447
0.5510921507 0.0612324612 -0.3061623059
0.0612324612 -0.5510921507 0.3061623059
0.1224649224 -0.4898596895 0.2449298447
0.1836973836 -0.4286272283 0.1836973836
0.2449298447 -0.3673947671 0.1224649224
0.3061623059 -0.3061623059 0.0612324612
0.3673947671 -0.2449298447 0.0000000000
0.4286272283 -0.1836973836 -0.0612324612
0.4898596895 -0.1224649224 -0.1224649224
0.5510921507 -0.0612324612 -0.1836973836
0.6123246119 0.0000000000 -0.2449298447
0.1224649224 -0.6123246119 0.3673947671
0.1836973836 -0.5510921507 0.3061623059
0.2449298447 -0.4898596895 0.2449298447
0.3061623059 -0.4286272283 0.1836973836
0.3673947671 -0.3673947671 0.1224649224
0.4286272283 -0.3061623059 0.0612324612
0.4898596895 -0.2449298447 0.0000000000
0.5510921507 -0.1836973836 -0.0612324612
0.6123246119 -0.1224649224 -0.1224649224
0.6735570730 -0.0612324612 -0.1836973836
0.1836973836 -0.6735570730 0.4286272283
0.2449298447 -0.6123246119 0.3673947671
0.3061623059 -0.5510921507 0.3061623059
0.3673947671 -0.4898596895 0.2449298447
0.4286272283 -0.4286272283 0.1836973836
0.4898596895 -0.3673947671 0.1224649224
0.5510921507 -0.3061623059 0.0612324612
0.6123246119 -0.2449298447 0.0000000000
0.6735570730 -0.1836973836 -0.0612324612
0.7347895342 -0.1224649224 -0.1224649224
-0.4286272283 -0.0612324612 -0.0612324612
-0.3673947671 -0.0000000000 -0.1224649224
-0.3061623059 0.0612324612 -0.1836973836
-0.2449298447 0.1224649224 -0.2449298447
-0.1836973836 0.1836973836 -0.3061623059
-0.1224649224 0.2449298447 -0.3673947671
-0.0612324612 0.3061623059 -0.4286272283
-0.0000000000 0.3673947671 -0.4898596895
0.0612324612 0.4286272283 -0.5510921507
0.1224649224 0.4898596895 -0.6123246119
-0.3673947671 -0.1224649224 0.0000000000
-0.3061623059 -0.0612324612 -0.0612324612
-0.2449298447 -0.0000000000 -0.1224649224
-0.1836973836 0.0612324612 -0.1836973836
-0.1224649224 0.1224649224 -0.2449298447
-0.0612324612 0.1836973836 -0.3061623059
0.0000000000 0.2449298447 -0.3673947671
0.0612324612 0.3061623059 -0.4286272283
0.1224649224 0.3673947671 -0.4898596895
0.1836973836 0.4286272283 -0.5510921507
-0.3061623059 -0.1836973836 0.0612324612
-0.2449298447 -0.1224649224 -0.0000000000
-0.1836973836 -0.0612324612 -0.0612324612
-0.1224649224 -0.0000000000 -0.1224649224
-0.0612324612 0.0612324612 -0.1836973836
-0.0000000000 0.1224649224 -0.2449298447
0.0612324612 0.1836973836 -0.3061623059
0.1224649224 0.2449298447 -0.3673947671
0.1836973836 0.3061623059 -0.4286272283
0.2449298447 0.3673947671 -0.4898596895
-0.2449298447 -0.2449298447 0.1224649224
-0.1836973836 -0.1836973836 0.0612324612
-0.1224649224 -0.1224649224 0.0000000000
-0.0612324612 -0.0612324612 -0.0612324612
-0.0000000000 -0.0000000000 -0.1224649224
0.0612324612 0.0612324612 -0.1836973836
0.1224649224 0.1224649224 -0.2449298447
0.1836973836 0.1836973836 -0.3061623059
0.2449298447 0.2449298447 -0.3673947671
0.3061623059 0.3061623059 -0.4286272283
-0.1836973836 -0.3061623059 0.1836973836
-0.1224649224 -0.2449298447 0.1224649224
-0.0612324612 -0.1836973836 0.0612324612
-0.0000000000 -0.1224649224 0.0000000000
0.0612324612 -0.0612324612 -0.0612324612
0.1224649224 0.0000000000 -0.1224649224
0.1836973836 0.0612324612 -0.1836973836
0.2449298447 0.1224649224 -0.2449298447
0.3061623059 0.1836973836 -0.3061623059
0.3673947671 0.2449298447 -0.3673947671
-0.1224649224 -0.3673947671 0.2449298447
-0.0612324612 -0.3061623059 0.1836973836
-0.0000000000 -0.2449298447 0.1224649224
0.0612324612 -0.1836973836 0.0612324612
0.1224649224 -0.1224649224 0.0000000000
0.1836973836 -0.0612324612 -0.0612324612
0.2449298447 0.0000000000 -0.1224649224
0.3061623059 0.0612324612 -0.1836973836
0.3673947671 0.1224649224 -0.2449298447
0.4286272283 0.1836973836 -0.3061623059
-0.0612324612 -0.4286272283 0.3061623059
-0.0000000000 -0.3673947671 0.2449298447
0.0612324612 -0.3061623059 0.1836973836
0.1224649224 -0.2449298447 0.1224649224
0.1836973836 -0.1836973836 0.0612324612
0.2449298447 -0.1224649224 0.0000000000
0.3061623059 -0.0612324612 -0.0612324612
0.3673947671 0.0000000000 -0.1224649224
0.4286272283 0.0612324612 -0.1836973836
0.4898596895 0.1224649224 -0.2449298447
-0.0000000000 -0.4898596895 0.3673947671
0.0612324612 -0.4286272283 0.3061623059
0.1224649224 -0.3673947671 0.2449298447
0.1836973836 -0.3061623059 0.1836973836
0.2449298447 -0.2449298447 0.1224649224
0.3061623059 -0.1836973836 0.0612324612
0.3673947671 -0.1224649224 0.0000000000
0.4286272283 -0.0612324612 -0.0612324612
0.4898596895 0.0000000000 -0.1224649224
0.5510921507 0.0612324612 -0.1836973836
0.0612324612 -0.5510921507 0.4286272283
0.1224649224 -0.4898596895 0.3673947671
0.1836973836 -0.4286272283 0.3061623059
0.2449298447 -0.3673947671 0.2449298447
0.3061623059 -0.3061623059 0.1836973836
0.3673947671 -0.2449298447 0.1224649224
0.4286272283 -0.1836973836 0.0612324612
0.4898596895 -0.1224649224 0.0000000000
0.5510921507 -0.0612324612 -0.0612324612
0.6123246119 0.0000000000 -0.1224649224
0.1224649224 -0.6123246119 0.4898596895
0.1836973836 -0.5510921507 0.4286272283
0.2449298447 -0.4898596895 0.3673947671
0.3061623059 -0.4286272283 0.3061623059
0.3673947671 -0.3673947671 0.2449298447
0.4286272283 -0.3061623059 0.1836973836
0.4898596895 -0.2449298447 0.1224649224
0.5510921507 -0.1836973836 0.0612324612
0.6123246119 -0.1224649224 0.0000000000
0.6735570730 -0.0612324612 -0.0612324612
-0.4898596895 -0.0000000000 -0.0000000000
-0.4286272283 0.0612324612 -0.0612324612
-0.3673947671 0.1224649224 -0.1224649224
-0.3061623059 0.1836973836 -0.1836973836
-0.2449298447 0.2449298447 -0.2449298447
-0.1836973836 0.3061623059 -0.3061623059
-0.1224649224 0.3673947671 -0.3673947671
-0.0612324612 0.4286272283 -0.4286272283
0.0000000000 0.4898596895 -0.4898596895
0.0612324612 0.5510921507 -0.5510921507
-0.4286272283 -0.0612324612 0.0612324612
-0.3673947671 -0.0000000000 -0.0000000000
-0.3061623059 0.0612324612 -0.0612324612
-0.2449298447 0.1224649224 -0.1224649224
-0.1836973836 0.1836973836 -0.1836973836
-0.1224649224 0.2449298447 -0.2449298447
-0.0612324612 0.3061623059 -0.3061623059
0.0000000000 0.3673947671 -0.3673947671
0.0612324612 0.4286272283 -0.4286272283
0.1224649224 0.4898596895 -0.4898596895
-0.3673947671 -0.1224649224 0.1224649224
-0.3061623059 -0.0612324612 0.0612324612
-0.2449298447 -0.0000000000 -0.0000000000
-0.1836973836 0.0612324612 -0.0612324612
-0.1224649224 0.1224649224 -0.1224649224
-0.0612324612 0.1836973836 -0.1836973836
0.0000000000 0.2449298447 -0.2449298447
0.0612324612 0.3061623059 -0.3061623059
0.1224649224 0.3673947671 -0.3673947671
0.1836973836 0.4286272283 -0.4286272283
-0.3061623059 -0.1836973836 0.1836973836
-0.2449298447 -0.1224649224 0.1224649224
-0.1836973836 -0.0612324612 0.0612324612
-0.1224649224 -0.0000000000 -0.0000000000
-0.0612324612 0.0612324612 -0.0612324612
0.0000000000 0.1224649224 -0.1224649224
0.0612324612 0.1836973836 -0.1836973836
0.1224649224 0.2449298447 -0.2449298447
0.1836973836 0.3061623059 -0.3061623059
0.2449298447 0.3673947671 -0.3673947671
-0.2449298447 -0.2449298447 0.2449298447
-0.1836973836 -0.1836973836 0.1836973836
-0.1224649224 -0.1224649224 0.1224649224
-0.0612324612 -0.0612324612 0.0612324612
0.0000000000 0.0000000000 0.0000000000
0.0612324612 0.0612324612 -0.0612324612
0.1224649224 0.1224649224 -0.1224649224
0.1836973836 0.1836973836 -0.1836973836
0.2449298447 0.2449298447 -0.2449298447
0.3061623059 0.3061623059 -0.3061623059
-0.1836973836 -0.3061623059 0.3061623059
-0.1224649224 -0.2449298447 0.2449298447
-0.0612324612 -0.1836973836 0.1836973836
0.0000000000 -0.1224649224 0.1224649224
0.0612324612 -0.0612324612 0.0612324612
0.1224649224 0.0000000000 0.0000000000
0.1836973836 0.0612324612 -0.0612324612
0.2449298447 0.1224649224 -0.1224649224
0.3061623059 0.1836973836 -0.1836973836
0.3673947671 0.2449298447 -0.2449298447
-0.1224649224 -0.3673947671 0.3673947671
-0.0612324612 -0.3061623059 0.3061623059
-0.0000000000 -0.2449298447 0.2449298447
0.0612324612 -0.1836973836 0.1836973836
0.1224649224 -0.1224649224 0.1224649224
0.1836973836 -0.0612324612 0.0612324612
0.2449298447 0.0000000000 0.0000000000
0.3061623059 0.0612324612 -0.0612324612
0.3673947671 0.1224649224 -0.1224649224
0.4286272283 0.1836973836 -0.1836973836
-0.0612324612 -0.4286272283 0.4286272283
-0.0000000000 -0.3673947671 0.3673947671
0.0612324612 -0.3061623059 0.3061623059
0.1224649224 -0.2449298447 0.2449298447
0.1836973836 -0.1836973836 0.1836973836
0.2449298447 -0.1224649224 0.1224649224
0.3061623059 -0.0612324612 0.0612324612
0.3673947671 0.0000000000 0.0000000000
0.4286272283 0.0612324612 -0.0612324612
0.4898596895 0.1224649224 -0.1224649224
-0.0000000000 -0.4898596895 0.4898596895
0.0612324612 -0.4286272283 0.4286272283
0.1224649224 -0.3673947671 0.3673947671
0.1836973836 -0.3061623059 0.3061623059
0.2449298447 -0.2449298447 0.2449298447
0.3061623059 -0.1836973836 0.1836973836
0.3673947671 -0.1224649224 0.1224649224
0.4286272283 -0.0612324612 0.0612324612
0.4898596895 0.0000000000 0.0000000000
0.5510921507 0.0612324612 -0.0612324612
0.0612324612 -0.5510921507 0.5510921507
0.1224649224 -0.4898596895 0.4898596895
0.1836973836 -0.4286272283 0.4286272283
0.2449298447 -0.3673947671 0.3673947671
0.3061623059 -0.3061623059 0.3061623059
0.3673947671 -0.2449298447 0.2449298447
0.4286272283 -0.1836973836 0.1836973836
0.4898596895 -0.1224649224 0.1224649224
0.5510921507 -0.0612324612 0.0612324612
0.6123246119 0.0000000000 0.0000000000
-0.5510921507 0.0612324612 0.0612324612
-0.4898596895 0.1224649224 -0.0000000000
-0.4286272283 0.1836973836 -0.0612324612
-0.3673947671 0.2449298447 -0.1224649224
-0.3061623059 0.3061623059 -0.1836973836
-0.2449298447 0.3673947671 -0.2449298447
-0.1836973836 0.4286272283 -0.3061623059
-0.1224649224 0.4898596895 -0.3673947671
-0.0612324612 0.5510921507 -0.4286272283
0.0000000000 0.6123246119 -0.4898596895
-0.4898596895 -0.0000000000 0.1224649224
-0.4286272283 0.0612324612 0.0612324612
-0.3673947671 0.1224649224 0.0000000000
-0.3061623059 0.1836973836 -0.0612324612
-0.2449298447 0.2449298447 -0.1224649224
-0.1836973836 0.3061623059 -0.1836973836
-0.1224649224 0.3673947671 -0.2449298447
-0.0612324612 0.4286272283 -0.3061623059
0.0000000000 0.4898596895 -0.3673947671
0.0612324612 0.5510921507 -0.4286272283
-0.4286272283 -0.0612324612 0.1836973836
-0.3673947671 -0.0000000000 0.1224649224
-0.3061623059 0.0612324612 0.0612324612
-0.2449298447 0.1224649224 -0.0000000000
-0.1836973836 0.1836973836 -0.0612324612
-0.1224649224 0.2449298447 -0.1224649224
-0.0612324612 0.3061623059 -0.1836973836
0.0000000000 0.3673947671 -0.2449298447
0.0612324612 0.4286272283 -0.3061623059
0.1224649224 0.4898596895 -0.3673947671
-0.3673947671 -0.1224649224 0.2449298447
-0.3061623059 -0.0612324612 0.1836973836
-0.2449298447 -0.0000000000 0.1224649224
-0.1836973836 0.0612324612 0.0612324612
-0.1224649224 0.1224649224 0.0000000000
-0.0612324612 0.1836973836 -0.0612324612
0.0000000000 0.2449298447 -0.1224649224
0.0612324612 0.3061623059 -0.1836973836
0.1224649224 0.3673947671 -0.2449298447
0.1836973836 0.4286272283 -0.3061623059
-0.3061623059 -0.1836973836 0.3061623059
-0.2449298447 -0.1224649224 0.2449298447
-0.1836973836 -0.0612324612 0.1836973836
-0.1224649224 0.0000000000 0.1224649224
-0.0612324612 0.0612324612 0.0612324612
0.0000000000 0.1224649224 0.0000000000
0.0612324612 0.1836973836 -0.0612324612
0.1224649224 0.2449298447 -0.1224649224
0.1836973836 0.3061623059 -0.1836973836
0.2449298447 0.3673947671 -0.2449298447
-0.2449298447 -0.2449298447 0.3673947671
-0.1836973836 -0.1836973836 0.3061623059
-0.1224649224 -0.1224649224 0.2449298447
-0.0612324612 -0.0612324612 0.1836973836
0.0000000000 0.0000000000 0.1224649224
0.0612324612 0.0612324612 0.0612324612
0.1224649224 0.1224649224 0.0000000000
0.1836973836 0.1836973836 -0.0612324612
0.2449298447 0.2449298447 -0.1224649224
0.3061623059 0.3061623059 -0.1836973836
-0.1836973836 -0.3061623059 0.4286272283
-0.1224649224 -0.2449298447 0.3673947671
-0.0612324612 -0.1836973836 0.3061623059
0.0000000000 -0.1224649224 0.2449298447
0.0612324612 -0.0612324612 0.1836973836
0.1224649224 0.0000000000 0.1224649224
0.1836973836 0.0612324612 0.0612324612
0.2449298447 0.1224649224 0.0000000000
0.3061623059 0.1836973836 -0.0612324612
0.3673947671 0.2449298447 -0.1224649224
-0.1224649224 -0.3673947671 0.4898596895
-0.0612324612 -0.3061623059 0.4286272283
-0.0000000000 -0.2449298447 0.3673947671
0.0612324612 -0.1836973836 0.3061623059
0.1224649224 -0.1224649224 0.2449298447
0.1836973836 -0.0612324612 0.1836973836
0.2449298447 0.0000000000 0.1224649224
0.3061623059 0.0612324612 0.0612324612
0.3673947671 0.1224649224 0.0000000000
0.4286272283 0.1836973836 -0.0612324612
-0.0612324612 -0.4286272283 0.5510921507
-0.0000000000 -0.3673947671 0.4898596895
0.0612324612 -0.3061623059 0.4286272283
0.1224649224 -0.2449298447 0.3673947671
0.1836973836 -0.1836973836 0.3061623059
0.2449298447 -0.1224649224 0.2449298447
0.3061623059 -0.0612324612 0.1836973836
0.3673947671 0.0000000000 0.1224649224
0.4286272283 0.0612324612 0.0612324612
0.4898596895 0.1224649224 0.0000000000
-0.0000000000 -0.4898596895 0.6123246119
0.0612324612 -0.4286272283 0.5510921507
0.1224649224 -0.3673947671 0.4898596895
0.1836973836 -0.3061623059 0.4286272283
0.2449298447 -0.2449298447 0.3673947671
0.3061623059 -0.1836973836 0.3061623059
0.3673947671 -0.1224649224 0.2449298447
0.4286272283 -0.0612324612 0.1836973836
0.4898596895 0.0000000000 0.1224649224
0.5510921507 0.0612324612 0.0612324612
-0.6123246119 0.1224649224 0.1224649224
-0.5510921507 0.1836973836 0.0612324612
-0.4898596895 0.2449298447 -0.0000000000
-0.4286272283 0.3061623059 -0.0612324612
-0.3673947671 0.3673947671 -0.1224649224
-0.3061623059 0.4286272283 -0.1836973836
-0.2449298447 0.4898596895 -0.2449298447
-0.1836973836 0.5510921507 -0.3061623059
-0.1224649224 0.6123246119 -0.3673947671
-0.0612324612 0.6735570730 -0.4286272283
-0.5510921507 0.0612324612 0.1836973836
-0.4898596895 0.1224649224 0.1224649224
-0.4286272283 0.1836973836 0.0612324612
-0.3673947671 0.2449298447 -0.0000000000
-0.3061623059 0.3061623059 -0.0612324612
-0.2449298447 0.3673947671 -0.1224649224
-0.1836973836 0.4286272283 -0.1836973836
-0.1224649224 0.4898596895 -0.2449298447
-0.0612324612 0.5510921507 -0.3061623059
0.0000000000 0.6123246119 -0.3673947671
-0.4898596895 -0.0000000000 0.2449298447
-0.4286272283 0.0612324612 0.1836973836
-0.3673947671 0.1224649224 0.1224649224
-0.3061623059 0.1836973836 0.0612324612
-0.2449298447 0.2449298447 -0.0000000000
-0.1836973836 0.3061623059 -0.0612324612
-0.1224649224 0.3673947671 -0.1224649224
-0.0612324612 0.4286272283 -0.1836973836
0.0000000000 0.4898596895 -0.2449298447
0.0612324612 0.5510921507 -0.3061623059
-0.4286272283 -0.0612324612 0.3061623059
-0.3673947671 0.0000000000 0.2449298447
-0.3061623059 0.0612324612 0.1836973836
-0.2449298447 0.1224649224 0.1224649224
-0.1836973836 0.1836973836 0.0612324612
-0.1224649224 0.2449298447 0.0000000000
-0.0612324612 0.3061623059 -0.0612324612
0.0000000000 0.3673947671 -0.1224649224
0.0612324612 0.4286272283 -0.1836973836
0.1224649224 0.4898596895 -0.2449298447
-0.3673947671 -0.1224649224 0.3673947671
-0.3061623059 -0.0612324612 0.3061623059
-0.2449298447 0.0000000000 0.2449298447
-0.1836973836 0.0612324612 0.1836973836
-0.1224649224 0.1224649224 0.1224649224
-0.0612324612 0.1836973836 0.0612324612
0.0000000000 0.2449298447 0.0000000000
0.0612324612 0.3061623059 -0.0612324612
0.1224649224 0.3673947671 -0.1224649224
0.1836973836 0.4286272283 -0.1836973836
-0.3061623059 -0.1836973836 0.4286272283
-0.2449298447 -0.1224649224 0.3673947671
-0.1836973836 -0.0612324612 0.3061623059
-0.1224649224 0.0000000000 0.2449298447
-0.0612324612 0.0612324612 0.1836973836
0.0000000000 0.1224649224 0.1224649224
0.0612324612 0.1836973836 0.0612324612
0.1224649224 0.2449298447 0.0000000000
0.1836973836 0.3061623059 -0.0612324612
0.2449298447 0.3673947671 -0.1224649224
-0.2449298447 -0.2449298447 0.4898596895
-0.1836973836 -0.1836973836 0.4286272283
-0.1224649224 -0.1224649224 0.3673947671
-0.0612324612 -0.0612324612 0.3061623059
0.0000000000 0.0000000000 0.2449298447
0.0612324612 0.0612324612 0.1836973836
0.1224649224 0.1224649224 0.1224649224
0.1836973836 0.1836973836 0.0612324612
0.2449298447 0.2449298447 0.0000000000
0.3061623059 0.3061623059 -0.0612324612
-0.1836973836 -0.3061623059 0.5510921507
-0.1224649224 -0.2449298447 0.4898596895
-0.0612324612 -0.1836973836 0.4286272283
0.0000000000 -0.1224649224 0.3673947671
0.0612324612 -0.0612324612 0.3061623059
0.1224649224 0.0000000000 0.2449298447
0.1836973836 0.0612324612 0.1836973836
0.2449298447 0.1224649224 0.1224649224
0.3061623059 0.1836973836 0.0612324612
0.3673947671 0.2449298447 0.0000000000
-0.1224649224 -0.3673947671 0.6123246119
-0.0612324612 -0.3061623059 0.5510921507
-0.0000000000 -0.2449298447 0.4898596895
0.0612324612 -0.1836973836 0.4286272283
0.1224649224 -0.1224649224 0.3673947671
0.1836973836 -0.0612324612 0.3061623059
0.2449298447 0.0000000000 0.2449298447
0.3061623059 0.0612324612 0.1836973836
0.3673947671 0.1224649224 0.1224649224
0.4286272283 0.1836973836 0.0612324612
-0.0612324612 -0.4286272283 0.6735570730
0.0000000000 -0.3673947671 0.6123246119
0.0612324612 -0.3061623059 0.5510921507
0.1224649224 -0.2449298447 0.4898596895
0.1836973836 -0.1836973836 0.4286272283
0.2449298447 -0.1224649224 0.3673947671
0.3061623059 -0.0612324612 0.3061623059
0.3673947671 0.0000000000 0.2449298447
0.4286272283 0.0612324612 0.1836973836
0.4898596895 0.1224649224 0.1224649224
-0.6735570730 0.1836973836 0.1836973836
-0.6123246119 0.2449298447 0.1224649224
-0.5510921507 0.3061623059 0.0612324612
-0.4898596895 0.3673947671 -0.0000000000
-0.4286272283 0.4286272283 -0.0612324612
-0.3673947671 0.4898596895 -0.1224649224
-0.3061623059 0.5510921507 -0.1836973836
-0.2449298447 0.6123246119 -0.2449298447
-0.1836973836 0.6735570730 -0.3061623059
-0.1224649224 0.7347895342 -0.3673947671
-0.6123246119 0.1224649224 0.2449298447
-0.5510921507 0.1836973836 0.1836973836
-0.4898596895 0.2449298447 0.1224649224
-0.4286272283 0.3061623059 0.0612324612
-0.3673947671 0.3673947671 -0.0000000000
-0.3061623059 0.4286272283 -0.0612324612
-0.2449298447 0.4898596895 -0.1224649224
-0.1836973836 0.5510921507 -0.1836973836
-0.1224649224 0.6123246119 -0.2449298447
-0.0612324612 0.6735570730 -0.3061623059
-0.5510921507 0.0612324612 0.3061623059
-0.4898596895 0.1224649224 0.2449298447
-0.4286272283 0.1836973836 0.1836973836
-0.3673947671 0.2449298447 0.1224649224
-0.3061623059 0.3061623059 0.0612324612
-0.2449298447 0.3673947671 -0.0000000000
-0.1836973836 0.4286272283 -0.0612324612
-0.1224649224 0.4898596895 -0.1224649224
-0.0612324612 0.5510921507 -0.1836973836
0.0000000000 0.6123246119 -0.2449298447
-0.4898596895 -0.0000000000 0.3673947671
-0.4286272283 0.0612324612 0.3061623059
-0.3673947671 0.1224649224 0.2449298447
-0.3061623059 0.1836973836 0.1836973836
-0.2449298447 0.2449298447 0.1224649224
-0.1836973836 0.3061623059 0.0612324612
-0.1224649224 0.3673947671 -0.0000000000
-0.0612324612 0.4286272283 -0.0612324612
0.0000000000 0.4898596895 -0.1224649224
0.0612324612 0.5510921507 -0.1836973836
-0.4286272283 -0.0612324612 0.4286272283
-0.3673947671 0.0000000000 0.3673947671
-0.3061623059 0.0612324612 0.3061623059
-0.2449298447 0.1224649224 0.2449298447
-0.1836973836 0.1836973836 0.1836973836
-0.1224649224 0.2449298447 0.1224649224
-0.0612324612 0.3061623059 0.0612324612
0.0000000000 0.3673947671 0.0000000000
0.0612324612 0.4286272283 -0.0612324612
0.1224649224 0.4898596895 -0.1224649224
-0.3673947671 -0.1224649224 0.4898596895
-0.3061623059 -0.0612324612 0.4286272283
-0.2449298447 0.0000000000 0.3673947671
-0.1836973836 0.0612324612 0.3061623059
-0.1224649224 0.1224649224 0.2449298447
-0.0612324612 0.1836973836 0.1836973836
0.0000000000 0.2449298447 0.1224649224
0.0612324612 0.3061623059 0.0612324612
0.1224649224 0.3673947671 0.0000000000
0.1836973836 0.4286272283 -0.0612324612
-0.3061623059 -0.1836973836 0.5510921507
-0.2449298447 -0.1224649224 0.4898596895
-0.1836973836 -0.0612324612 0.4286272283
-0.1224649224 0.0000000000 0.3673947671
-0.0612324612 0.0612324612 0.3061623059
0.0000000000 0.1224649224 0.2449298447
0.0612324612 0.1836973836 0.1836973836
0.1224649224 0.2449298447 0.1224649224
0.1836973836 0.3061623059 0.0612324612
0.2449298447 0.3673947671 0.0000000000
-0.2449298447 -0.2449298447 0.6123246119
-0.1836973836 -0.1836973836 0.5510921507
-0.1224649224 -0.1224649224 0.4898596895
-0.0612324612 -0.0612324612 0.4286272283
0.0000000000 0.0000000000 0.3673947671
0.0612324612 0.0612324612 0.3061623059
0.1224649224 0.1224649224 0.2449298447
0.1836973836 0.1836973836 0.1836973836
0.2449298447 0.2449298447 0.1224649224
0.3061623059 0.3061623059 0.0612324612
-0.1836973836 -0.3061623059 0.6735570730
-0.1224649224 -0.2449298447 0.6123246119
-0.0612324612 -0.1836973836 0.5510921507
0.0000000000 -0.1224649224 0.4898596895
0.0612324612 -0.0612324612 0.4286272283
0.1224649224 0.0000000000 0.3673947671
0.1836973836 0.0612324612 0.3061623059
0.2449298447 0.1224649224 0.2449298447
0.3061623059 0.1836973836 0.1836973836
0.3673947671 0.2449298447 0.1224649224
-0.1224649224 -0.3673947671 0.7347895342
-0.0612324612 -0.3061623059 0.6735570730
0.0000000000 -0.2449298447 0.6123246119
0.0612324612 -0.1836973836 0.5510921507
0.1224649224 -0.1224649224 0.4898596895
0.1836973836 -0.0612324612 0.4286272283
0.2449298447 0.0000000000 0.3673947671
0.3061623059 0.0612324612 0.3061623059
0.3673947671 0.1224649224 0.2449298447
0.4286272283 0.1836973836 0.1836973836
-0.7347895342 0.2449298447 0.2449298447
-0.6735570730 0.3061623059 0.1836973836
-0.6123246119 0.3673947671 0.1224649224
-0.5510921507 0.4286272283 0.0612324612
-0.4898596895 0.4898596895 -0.0000000000
-0.4286272283 0.5510921507 -0.0612324612
-0.3673947671 0.6123246119 -0.1224649224
-0.3061623059 0.6735570730 -0.1836973836
-0.2449298447 0.7347895342 -0.2449298447
-0.1836973836 0.7960219954 -0.3061623059
-0.6735570730 0.1836973836 0.3061623059
-0.6123246119 0.2449298447 0.2449298447
-0.5510921507 0.3061623059 0.1836973836
-0.4898596895 0.3673947671 0.1224649224
-0.4286272283 0.4286272283 0.0612324612
-0.3673947671 0.4898596895 -0.0000000000
-0.3061623059 0.5510921507 -0.0612324612
-0.2449298447 0.6123246119 -0.1224649224
-0.1836973836 0.6735570730 -0.1836973836
-0.1224649224 0.7347895342 -0.2449298447
-0.6123246119 0.1224649224 0.3673947671
-0.5510921507 0.1836973836 0.3061623059
-0.4898596895 0.2449298447 0.2449298447
-0.4286272283 0.3061623059 0.1836973836
-0.3673947671 0.3673947671 0.1224649224
-0.3061623059 0.4286272283 0.0612324612
-0.2449298447 0.4898596895 -0.0000000000
-0.1836973836 0.5510921507 -0.0612324612
-0.1224649224 0.6123246119 -0.1224649224
-0.0612324612 0.6735570730 -0.1836973836
-0.5510921507 0.0612324612 0.4286272283
-0.4898596895 0.1224649224 0.3673947671
-0.4286272283 0.1836973836 0.3061623059
-0.3673947671 0.2449298447 0.2449298447
-0.3061623059 0.3061623059 0.1836973836
-0.2449298447 0.3673947671 0.1224649224
-0.1836973836 0.4286272283 0.0612324612
-0.1224649224 0.4898596895 -0.0000000000
-0.0612324612 0.5510921507 -0.0612324612
0.0000000000 0.6123246119 -0.1224649224
-0.4898596895 -0.0000000000 0.4898596895
-0.4286272283 0.0612324612 0.4286272283
-0.3673947671 0.1224649224 0.3673947671
-0.3061623059 0.1836973836 0.3061623059
-0.2449298447 0.2449298447 0.2449298447
-0.1836973836 0.3061623059 0.1836973836
-0.1224649224 0.3673947671 0.1224649224
-0.0612324612 0.4286272283 0.0612324612
0.0000000000 0.4898596895 0.0000000000
0.0612324612 0.5510921507 -0.0612324612
-0.4286272283 -0.0612324612 0.5510921507
-0.3673947671 0.0000000000 0.4898596895
-0.3061623059 0.0612324612 0.4286272283
-0.2449298447 0.1224649224 0.3673947671
-0.1836973836 0.1836973836 0.3061623059
-0.1224649224 0.2449298447 0.2449298447
-0.0612324612 0.3061623059 0.1836973836
0.0000000000 0.3673947671 0.1224649224
0.0612324612 0.4286272283 0.0612324612
0.1224649224 0.4898596895 0.0000000000
-0.3673947671 -0.1224649224 0.6123246119
-0.3061623059 -0.0612324612 0.5510921507
-0.2449298447 0.0000000000 0.4898596895
-0.1836973836 0.0612324612 0.4286272283
-0.1224649224 0.1224649224 0.3673947671
-0.0612324612 0.1836973836 0.3061623059
0.0000000000 0.2449298447 0.2449298447
0.0612324612 0.3061623059 0.1836973836
0.1224649224 0.3673947671 0.1224649224
0.1836973836 0.4286272283 0.0612324612
-0.3061623059 -0.1836973836 0.6735570730
-0.2449298447 -0.1224649224 0.6123246119
-0.1836973836 -0.0612324612 0.5510921507
-0.1224649224 0.0000000000 0.4898596895
-0.0612324612 0.0612324612 0.4286272283
0.0000000000 0.1224649224 0.3673947671
0.0612324612 0.1836973836 0.3061623059
0.1224649224 0.2449298447 0.2449298447
0.1836973836 0.3061623059 0.1836973836
0.2449298447 0.3673947671 0.1224649224
-0.2449298447 -0.2449298447 0.7347895342
-0.1836973836 -0.1836973836 0.6735570730
-0.1224649224 -0.1224649224 0.6123246119
-0.0612324612 -0.0612324612 0.5510921507
0.0000000000 0.0000000000 0.4898596895
0.0612324612 0.0612324612 0.4286272283
0.1224649224 0.1224649224 0.3673947671
0.1836973836 0.1836973836 0.3061623059
0.2449298447 0.2449298447 0.2449298447
0.3061623059 0.3061623059 0.1836973836
-0.1836973836 -0.3061623059 0.7960219954
-0.1224649224 -0.2449298447 0.7347895342
-0.0612324612 -0.1836973836 0.6735570730
0.0000000000 -0.1224649224 0.6123246119
0.0612324612 -0.0612324612 0.5510921507
0.1224649224 0.0000000000 0.4898596895
0.1836973836 0.0612324612 0.4286272283
0.2449298447 0.1224649224 0.3673947671
0.3061623059 0.1836973836 0.3061623059
0.3673947671 0.2449298447 0.2449298447
-0.7960219954 0.3061623059 0.3061623059
-0.7347895342 0.3673947671 0.2449298447
-0.6735570730 0.4286272283 0.1836973836
-0.6123246119 0.4898596895 0.1224649224
-0.5510921507 0.5510921507 0.0612324612
-0.4898596895 0.6123246119 -0.0000000000
-0.4286272283 0.6735570730 -0.0612324612
-0.3673947671 0.7347895342 -0.1224649224
-0.3061623059 0.7960219954 -0.1836973836
-0.2449298447 0.8572544566 -0.2449298447
-0.7347895342 0.2449298447 0.3673947671
-0.6735570730 0.3061623059 0.3061623059
-0.6123246119 0.3673947671 0.2449298447
-0.5510921507 0.4286272283 0.1836973836
-0.4898596895 0.4898596895 0.1224649224
-0.4286272283 0.5510921507 0.0612324612
-0.3673947671 0.6123246119 -0.0000000000
-0.3061623059 0.6735570730 -0.0612324612
-0.2449298447 0.7347895342 -0.1224649224
-0.1836973836 0.7960219954 -0.1836973836
-0.6735570730 0.1836973836 0.4286272283
-0.6123246119 0.2449298447 0.3673947671
-0.5510921507 0.3061623059 0.3061623059
-0.4898596895 0.3673947671 0.2449298447
-0.4286272283 0.4286272283 0.1836973836
-0.3673947671 0.4898596895 0.1224649224
-0.3061623059 0.5510921507 0.0612324612
-0.2449298447 0.6123246119 0.0000000000
-0.1836973836 0.6735570730 -0.0612324612
-0.1224649224 0.7347895342 -0.1224649224
-0.6123246119 0.1224649224 0.4898596895
-0.5510921507 0.1836973836 0.4286272283
-0.4898596895 0.2449298447 0.3673947671
-0.4286272283 0.3061623059 0.3061623059
-0.3673947671 0.3673947671 0.2449298447
-0.3061623059 0.4286272283 0.1836973836
-0.2449298447 0.4898596895 0.1224649224
-0.1836973836 0.5510921507 0.0612324612
-0.1224649224 0.6123246119 0.0000000000
-0.0612324612 0.6735570730 -0.0612324612
-0.5510921507 0.0612324612 0.5510921507
-0.4898596895 0.1224649224 0.4898596895
-0.4286272283 0.1836973836 0.4286272283
-0.3673947671 0.2449298447 0.3673947671
-0.3061623059 0.3061623059 0.3061623059
-0.2449298447 0.3673947671 0.2449298447
-0.1836973836 0.4286272283 0.1836973836
-0.1224649224 0.4898596895 0.1224649224
-0.0612324612 0.5510921507 0.0612324612
0.0000000000 0.6123246119 0.0000000000
-0.4898596895 0.0000000000 0.6123246119
-0.4286272283 0.0612324612 0.5510921507
-0.3673947671 0.1224649224 0.4898596895
-0.3061623059 0.1836973836 0.4286272283
-0.2449298447 0.2449298447 0.3673947671
-0.1836973836 0.3061623059 0.3061623059
-0.1224649224 0.3673947671 0.2449298447
-0.0612324612 0.4286272283 0.1836973836
0.0000000000 0.4898596895 0.1224649224
0.0612324612 0.5510921507 0.0612324612
-0.4286272283 -0.0612324612 0.6735570730
-0.3673947671 0.0000000000 0.6123246119
-0.3061623059 0.0612324612 0.5510921507
-0.2449298447 0.1224649224 0.4898596895
-0.1836973836 0.1836973836 0.4286272283
-0.1224649224 0.2449298447 0.3673947671
-0.0612324612 0.3061623059 0.3061623059
0.0000000000 0.3673947671 0.2449298447
0.0612324612 0.4286272283 0.1836973836
0.1224649224 0.4898596895 0.1224649224
-0.3673947671 -0.1224649224 0.7347895342
-0.3061623059 -0.0612324612 0.6735570730
-0.2449298447 0.0000000000 0.6123246119
-0.1836973836 0.0612324612 0.5510921507
-0.1224649224 0.1224649224 0.4898596895
-0.0612324612 0.1836973836 0.4286272283
0.0000000000 0.2449298447 0.3673947671
0.0612324612 0.3061623059 0.3061623059
0.1224649224 0.3673947671 0.2449298447
0.1836973836 0.4286272283 0.1836973836
-0.3061623059 -0.1836973836 0.7960219954
-0.2449298447 -0.1224649224 0.7347895342
-0.1836973836 -0.0612324612 0.6735570730
-0.1224649224 0.0000000000 0.6123246119
-0.0612324612 0.0612324612 0.5510921507
0.0000000000 0.1224649224 0.4898596895
0.0612324612 0.1836973836 0.4286272283
0.1224649224 0.2449298447 0.3673947671
0.1836973836 0.3061623059 0.3061623059
0.2449298447 0.3673947671 0.2449298447
-0.2449298447 -0.2449298447 0.8572544566
-0.1836973836 -0.1836973836 0.7960219954
-0.1224649224 -0.1224649224 0.7347895342
-0.0612324612 -0.0612324612 0.6735570730
0.0000000000 0.0000000000 0.6123246119
0.0612324612 0.0612324612 0.5510921507
0.1224649224 0.1224649224 0.4898596895
0.1836973836 0.1836973836 0.4286272283
0.2449298447 0.2449298447 0.3673947671
0.3061623059 0.3061623059 0.3061623059
 There are 14 alpha and 14 beta electrons
 Start computing overlap matrix
 Allocate 73984000 B from available memory: 1048575736800 B
 Time for computing overlap matrix: 1.8760000000 s
 ====== Initialize compute kernels for all-electron RI-J (kpts) ====== 
 ========================================================== 
 Range-separated parameter omega        = 0.900000000000000022
 Threshold for 1e2c shellpair           = 0.000000000000010000
 Threshold for 2e2c SR integral         = 0.000000000000000001
 Threshold for 2e3c SR integral         = 0.000000000100000000
 Threshold for AFT G-space screening is = 0.000000000001000000
 The exponent cutoff for C/D classification (omega2 / 2) is  = 0.405000000000000027
 ========================================================== 
 === Post process the basis set for RI calculation (exp_cutoff = 0.405000000000000027 ) === 
nshells_b1 before uncontraction = 24
nshells_b1 after uncontraction = 28
nshells_baux before uncontraction = 74
nshells_baux after uncontraction = 74
===============================================
nbsf total   = 76
nbsf compact = 36
nbsf diffuse = 40
naux total   = 242
naux compact = 242
naux diffuse = 0
nshells_bnuc = 2

 Number of unique atoms is 1
 Unique atom #0 (si) has 8 shells.

Shell 0 to 7 belongs to atom si
Shell 8 to 15 belongs to atom si

 Number of unique atoms is 1
 Unique atom #0 (si) has 6 shells.

Shell 0 to 5 belongs to atom si
Shell 6 to 11 belongs to atom si

 Number of unique atom is 1
 Unique atom #0 (si) has 37 auxiliary shells.

Auxiliary Shell 0 to 36 belongs to atom si
Auxiliary Shell 37 to 73 belongs to atom si

================= Automatically determine grid size for reciprocal space summation =================
 Range-separated parameter = 0.90000000000000 and G-space screening threshold = 0.00000000000100
The number of grid points along each axis dimension is (10, 10, 10)
Total number of grid points = 9261

Use nonortho shellpair for diffuse density
======== Initializing relevant kernel for RIJ (DD type) ========
There are 78 shellpairs in the reference unit cell
There are 2659 images and we expect to have 207402 in total
There are 10362 shellpairs in the lattice sum after screening
======== Initializing relevant kernel for RIJ (CD type) ========
There are 192 shellpairs in the reference unit cell
There are 1657 images and we expect to have 318144 in total
There are 12656 shellpairs in the lattice sum after screening
****** AFT -> SR ******
Maximum bra distance cutoff is 20.000000000000
Maximum bra ket distance cutoff is 19.686314259486
Maximum bra ket screening distance is 18.000000000000
Number of auxiliary image is 437
There are 192 shellpairs in the reference unit cell
There are 437 images and we expect to have 83904 in total
There are 12656 shellpairs in the lattice sum after screening
Available memory per thread for 2e3c calculation is 32.765679775000Gb
Finish initializing 2e3c SR with the lattice sum!
=================================================
======== Initializing relevant kernel for RIJ (CC type) ========
There are 135 shellpairs in the reference unit cell
There are 551 images and we expect to have 74385 in total
There are 1200 shellpairs in the lattice sum after screening
****** AFT -> SR ******
Maximum bra distance cutoff is 11.000000000000
Maximum bra ket distance cutoff is 19.281250000000
Maximum bra ket screening distance is 17.500000000000
Number of auxiliary image is 437
There are 135 shellpairs in the reference unit cell
There are 117 images and we expect to have 15795 in total
There are 1200 shellpairs in the lattice sum after screening
Available memory per thread for 2e3c calculation is 32.765679775000Gb
Finish initializing 2e3c SR with the lattice sum!
=================================================
======== Initializing the SR component for Vnuc (CD type) ========
Maximum bra distance cutoff is 20.000000000000
Maximum bra ket distance cutoff is 11.052556209192
Maximum bra ket screening distance is 9.170821735065
Number of auxiliary image is 437
There are 192 shellpairs in the reference unit cell
There are 437 images and we expect to have 83904 in total
There are 12656 shellpairs in the lattice sum after screening
Available memory per thread for 2e3c calculation is 32.765679775000Gb
Finish initializing 2e3c SR with the lattice sum!
=================================================
======== Initialize the SR component for Vnuc (CC type) ========
Maximum bra distance cutoff is 11.000000000000
Maximum bra ket distance cutoff is 11.232824570356
Maximum bra ket screening distance is 8.201723935674
Number of auxiliary image is 117
There are 135 shellpairs in the reference unit cell
There are 117 images and we expect to have 15795 in total
There are 1200 shellpairs in the lattice sum after screening
Available memory per thread for 2e3c calculation is 32.765679775000Gb
Finish initializing 2e3c SR with the lattice sum!
=================================================
 Aufbau occupation scheme, occupation determined by eigenvalue
 == 0-th k-point nmo = 68 (-0.24493,-0.24493,-0.24493) ==
 == 1-th k-point nmo = 68 (-0.18370,-0.18370,-0.30616) ==
 == 2-th k-point nmo = 68 (-0.12246,-0.12246,-0.36739) ==
 == 3-th k-point nmo = 68 (-0.06123,-0.06123,-0.42863) ==
 == 4-th k-point nmo = 68 (-0.00000,-0.00000,-0.48986) ==
 == 5-th k-point nmo = 68 (0.06123,0.06123,-0.55109) ==
 == 6-th k-point nmo = 68 (0.12246,0.12246,-0.61232) ==
 == 7-th k-point nmo = 68 (0.18370,0.18370,-0.67356) ==
 == 8-th k-point nmo = 68 (0.24493,0.24493,-0.73479) ==
 == 9-th k-point nmo = 68 (0.30616,0.30616,-0.79602) ==
 == 10-th k-point nmo = 68 (-0.18370,-0.30616,-0.18370) ==
 == 11-th k-point nmo = 68 (-0.12246,-0.24493,-0.24493) ==
 == 12-th k-point nmo = 68 (-0.06123,-0.18370,-0.30616) ==
 == 13-th k-point nmo = 68 (-0.00000,-0.12246,-0.36739) ==
 == 14-th k-point nmo = 68 (0.06123,-0.06123,-0.42863) ==
 == 15-th k-point nmo = 68 (0.12246,-0.00000,-0.48986) ==
 == 16-th k-point nmo = 68 (0.18370,0.06123,-0.55109) ==
 == 17-th k-point nmo = 68 (0.24493,0.12246,-0.61232) ==
 == 18-th k-point nmo = 68 (0.30616,0.18370,-0.67356) ==
 == 19-th k-point nmo = 68 (0.36739,0.24493,-0.73479) ==
 == 20-th k-point nmo = 68 (-0.12246,-0.36739,-0.12246) ==
 == 21-th k-point nmo = 68 (-0.06123,-0.30616,-0.18370) ==
 == 22-th k-point nmo = 68 (-0.00000,-0.24493,-0.24493) ==
 == 23-th k-point nmo = 68 (0.06123,-0.18370,-0.30616) ==
 == 24-th k-point nmo = 68 (0.12246,-0.12246,-0.36739) ==
 == 25-th k-point nmo = 68 (0.18370,-0.06123,-0.42863) ==
 == 26-th k-point nmo = 68 (0.24493,-0.00000,-0.48986) ==
 == 27-th k-point nmo = 68 (0.30616,0.06123,-0.55109) ==
 == 28-th k-point nmo = 68 (0.36739,0.12246,-0.61232) ==
 == 29-th k-point nmo = 68 (0.42863,0.18370,-0.67356) ==
 == 30-th k-point nmo = 68 (-0.06123,-0.42863,-0.06123) ==
 == 31-th k-point nmo = 68 (-0.00000,-0.36739,-0.12246) ==
 == 32-th k-point nmo = 68 (0.06123,-0.30616,-0.18370) ==
 == 33-th k-point nmo = 68 (0.12246,-0.24493,-0.24493) ==
 == 34-th k-point nmo = 68 (0.18370,-0.18370,-0.30616) ==
 == 35-th k-point nmo = 68 (0.24493,-0.12246,-0.36739) ==
 == 36-th k-point nmo = 68 (0.30616,-0.06123,-0.42863) ==
 == 37-th k-point nmo = 68 (0.36739,-0.00000,-0.48986) ==
 == 38-th k-point nmo = 68 (0.42863,0.06123,-0.55109) ==
 == 39-th k-point nmo = 68 (0.48986,0.12246,-0.61232) ==
 == 40-th k-point nmo = 68 (-0.00000,-0.48986,0.00000) ==
 == 41-th k-point nmo = 68 (0.06123,-0.42863,-0.06123) ==
 == 42-th k-point nmo = 68 (0.12246,-0.36739,-0.12246) ==
 == 43-th k-point nmo = 68 (0.18370,-0.30616,-0.18370) ==
 == 44-th k-point nmo = 68 (0.24493,-0.24493,-0.24493) ==
 == 45-th k-point nmo = 68 (0.30616,-0.18370,-0.30616) ==
 == 46-th k-point nmo = 68 (0.36739,-0.12246,-0.36739) ==
 == 47-th k-point nmo = 68 (0.42863,-0.06123,-0.42863) ==
 == 48-th k-point nmo = 68 (0.48986,-0.00000,-0.48986) ==
 == 49-th k-point nmo = 68 (0.55109,0.06123,-0.55109) ==
 == 50-th k-point nmo = 68 (0.06123,-0.55109,0.06123) ==
 == 51-th k-point nmo = 68 (0.12246,-0.48986,-0.00000) ==
 == 52-th k-point nmo = 68 (0.18370,-0.42863,-0.06123) ==
 == 53-th k-point nmo = 68 (0.24493,-0.36739,-0.12246) ==
 == 54-th k-point nmo = 68 (0.30616,-0.30616,-0.18370) ==
 == 55-th k-point nmo = 68 (0.36739,-0.24493,-0.24493) ==
 == 56-th k-point nmo = 68 (0.42863,-0.18370,-0.30616) ==
 == 57-th k-point nmo = 68 (0.48986,-0.12246,-0.36739) ==
 == 58-th k-point nmo = 68 (0.55109,-0.06123,-0.42863) ==
 == 59-th k-point nmo = 68 (0.61232,0.00000,-0.48986) ==
 == 60-th k-point nmo = 68 (0.12246,-0.61232,0.12246) ==
 == 61-th k-point nmo = 68 (0.18370,-0.55109,0.06123) ==
 == 62-th k-point nmo = 68 (0.24493,-0.48986,0.00000) ==
 == 63-th k-point nmo = 68 (0.30616,-0.42863,-0.06123) ==
 == 64-th k-point nmo = 68 (0.36739,-0.36739,-0.12246) ==
 == 65-th k-point nmo = 68 (0.42863,-0.30616,-0.18370) ==
 == 66-th k-point nmo = 68 (0.48986,-0.24493,-0.24493) ==
 == 67-th k-point nmo = 68 (0.55109,-0.18370,-0.30616) ==
 == 68-th k-point nmo = 68 (0.61232,-0.12246,-0.36739) ==
 == 69-th k-point nmo = 68 (0.67356,-0.06123,-0.42863) ==
 == 70-th k-point nmo = 68 (0.18370,-0.67356,0.18370) ==
 == 71-th k-point nmo = 68 (0.24493,-0.61232,0.12246) ==
 == 72-th k-point nmo = 68 (0.30616,-0.55109,0.06123) ==
 == 73-th k-point nmo = 68 (0.36739,-0.48986,-0.00000) ==
 == 74-th k-point nmo = 68 (0.42863,-0.42863,-0.06123) ==
 == 75-th k-point nmo = 68 (0.48986,-0.36739,-0.12246) ==
 == 76-th k-point nmo = 68 (0.55109,-0.30616,-0.18370) ==
 == 77-th k-point nmo = 68 (0.61232,-0.24493,-0.24493) ==
 == 78-th k-point nmo = 68 (0.67356,-0.18370,-0.30616) ==
 == 79-th k-point nmo = 68 (0.73479,-0.12246,-0.36739) ==
 == 80-th k-point nmo = 68 (0.24493,-0.73479,0.24493) ==
 == 81-th k-point nmo = 68 (0.30616,-0.67356,0.18370) ==
 == 82-th k-point nmo = 68 (0.36739,-0.61232,0.12246) ==
 == 83-th k-point nmo = 68 (0.42863,-0.55109,0.06123) ==
 == 84-th k-point nmo = 68 (0.48986,-0.48986,0.00000) ==
 == 85-th k-point nmo = 68 (0.55109,-0.42863,-0.06123) ==
 == 86-th k-point nmo = 68 (0.61232,-0.36739,-0.12246) ==
 == 87-th k-point nmo = 68 (0.67356,-0.30616,-0.18370) ==
 == 88-th k-point nmo = 68 (0.73479,-0.24493,-0.24493) ==
 == 89-th k-point nmo = 68 (0.79602,-0.18370,-0.30616) ==
 == 90-th k-point nmo = 68 (0.30616,-0.79602,0.30616) ==
 == 91-th k-point nmo = 68 (0.36739,-0.73479,0.24493) ==
 == 92-th k-point nmo = 68 (0.42863,-0.67356,0.18370) ==
 == 93-th k-point nmo = 68 (0.48986,-0.61232,0.12246) ==
 == 94-th k-point nmo = 68 (0.55109,-0.55109,0.06123) ==
 == 95-th k-point nmo = 68 (0.61232,-0.48986,0.00000) ==
 == 96-th k-point nmo = 68 (0.67356,-0.42863,-0.06123) ==
 == 97-th k-point nmo = 68 (0.73479,-0.36739,-0.12246) ==
 == 98-th k-point nmo = 68 (0.79602,-0.30616,-0.18370) ==
 == 99-th k-point nmo = 68 (0.85725,-0.24493,-0.24493) ==
 == 100-th k-point nmo = 68 (-0.30616,-0.18370,-0.18370) ==
 == 101-th k-point nmo = 68 (-0.24493,-0.12246,-0.24493) ==
 == 102-th k-point nmo = 68 (-0.18370,-0.06123,-0.30616) ==
 == 103-th k-point nmo = 68 (-0.12246,-0.00000,-0.36739) ==
 == 104-th k-point nmo = 68 (-0.06123,0.06123,-0.42863) ==
 == 105-th k-point nmo = 68 (-0.00000,0.12246,-0.48986) ==
 == 106-th k-point nmo = 68 (0.06123,0.18370,-0.55109) ==
 == 107-th k-point nmo = 68 (0.12246,0.24493,-0.61232) ==
 == 108-th k-point nmo = 68 (0.18370,0.30616,-0.67356) ==
 == 109-th k-point nmo = 68 (0.24493,0.36739,-0.73479) ==
 == 110-th k-point nmo = 68 (-0.24493,-0.24493,-0.12246) ==
 == 111-th k-point nmo = 68 (-0.18370,-0.18370,-0.18370) ==
 == 112-th k-point nmo = 68 (-0.12246,-0.12246,-0.24493) ==
 == 113-th k-point nmo = 68 (-0.06123,-0.06123,-0.30616) ==
 == 114-th k-point nmo = 68 (-0.00000,-0.00000,-0.36739) ==
 == 115-th k-point nmo = 68 (0.06123,0.06123,-0.42863) ==
 == 116-th k-point nmo = 68 (0.12246,0.12246,-0.48986) ==
 == 117-th k-point nmo = 68 (0.18370,0.18370,-0.55109) ==
 == 118-th k-point nmo = 68 (0.24493,0.24493,-0.61232) ==
 == 119-th k-point nmo = 68 (0.30616,0.30616,-0.67356) ==
 == 120-th k-point nmo = 68 (-0.18370,-0.30616,-0.06123) ==
 == 121-th k-point nmo = 68 (-0.12246,-0.24493,-0.12246) ==
 == 122-th k-point nmo = 68 (-0.06123,-0.18370,-0.18370) ==
 == 123-th k-point nmo = 68 (-0.00000,-0.12246,-0.24493) ==
 == 124-th k-point nmo = 68 (0.06123,-0.06123,-0.30616) ==
 == 125-th k-point nmo = 68 (0.12246,-0.00000,-0.36739) ==
 == 126-th k-point nmo = 68 (0.18370,0.06123,-0.42863) ==
 == 127-th k-point nmo = 68 (0.24493,0.12246,-0.48986) ==
 == 128-th k-point nmo = 68 (0.30616,0.18370,-0.55109) ==
 == 129-th k-point nmo = 68 (0.36739,0.24493,-0.61232) ==
 == 130-th k-point nmo = 68 (-0.12246,-0.36739,0.00000) ==
 == 131-th k-point nmo = 68 (-0.06123,-0.30616,-0.06123) ==
 == 132-th k-point nmo = 68 (-0.00000,-0.24493,-0.12246) ==
 == 133-th k-point nmo = 68 (0.06123,-0.18370,-0.18370) ==
 == 134-th k-point nmo = 68 (0.12246,-0.12246,-0.24493) ==
 == 135-th k-point nmo = 68 (0.18370,-0.06123,-0.30616) ==
 == 136-th k-point nmo = 68 (0.24493,-0.00000,-0.36739) ==
 == 137-th k-point nmo = 68 (0.30616,0.06123,-0.42863) ==
 == 138-th k-point nmo = 68 (0.36739,0.12246,-0.48986) ==
 == 139-th k-point nmo = 68 (0.42863,0.18370,-0.55109) ==
 == 140-th k-point nmo = 68 (-0.06123,-0.42863,0.06123) ==
 == 141-th k-point nmo = 68 (-0.00000,-0.36739,0.00000) ==
 == 142-th k-point nmo = 68 (0.06123,-0.30616,-0.06123) ==
 == 143-th k-point nmo = 68 (0.12246,-0.24493,-0.12246) ==
 == 144-th k-point nmo = 68 (0.18370,-0.18370,-0.18370) ==
 == 145-th k-point nmo = 68 (0.24493,-0.12246,-0.24493) ==
 == 146-th k-point nmo = 68 (0.30616,-0.06123,-0.30616) ==
 == 147-th k-point nmo = 68 (0.36739,0.00000,-0.36739) ==
 == 148-th k-point nmo = 68 (0.42863,0.06123,-0.42863) ==
 == 149-th k-point nmo = 68 (0.48986,0.12246,-0.48986) ==
 == 150-th k-point nmo = 68 (-0.00000,-0.48986,0.12246) ==
 == 151-th k-point nmo = 68 (0.06123,-0.42863,0.06123) ==
 == 152-th k-point nmo = 68 (0.12246,-0.36739,0.00000) ==
 == 153-th k-point nmo = 68 (0.18370,-0.30616,-0.06123) ==
 == 154-th k-point nmo = 68 (0.24493,-0.24493,-0.12246) ==
 == 155-th k-point nmo = 68 (0.30616,-0.18370,-0.18370) ==
 == 156-th k-point nmo = 68 (0.36739,-0.12246,-0.24493) ==
 == 157-th k-point nmo = 68 (0.42863,-0.06123,-0.30616) ==
 == 158-th k-point nmo = 68 (0.48986,0.00000,-0.36739) ==
 == 159-th k-point nmo = 68 (0.55109,0.06123,-0.42863) ==
 == 160-th k-point nmo = 68 (0.06123,-0.55109,0.18370) ==
 == 161-th k-point nmo = 68 (0.12246,-0.48986,0.12246) ==
 == 162-th k-point nmo = 68 (0.18370,-0.42863,0.06123) ==
 == 163-th k-point nmo = 68 (0.24493,-0.36739,0.00000) ==
 == 164-th k-point nmo = 68 (0.30616,-0.30616,-0.06123) ==
 == 165-th k-point nmo = 68 (0.36739,-0.24493,-0.12246) ==
 == 166-th k-point nmo = 68 (0.42863,-0.18370,-0.18370) ==
 == 167-th k-point nmo = 68 (0.48986,-0.12246,-0.24493) ==
 == 168-th k-point nmo = 68 (0.55109,-0.06123,-0.30616) ==
 == 169-th k-point nmo = 68 (0.61232,0.00000,-0.36739) ==
 == 170-th k-point nmo = 68 (0.12246,-0.61232,0.24493) ==
 == 171-th k-point nmo = 68 (0.18370,-0.55109,0.18370) ==
 == 172-th k-point nmo = 68 (0.24493,-0.48986,0.12246) ==
 == 173-th k-point nmo = 68 (0.30616,-0.42863,0.06123) ==
 == 174-th k-point nmo = 68 (0.36739,-0.36739,0.00000) ==
 == 175-th k-point nmo = 68 (0.42863,-0.30616,-0.06123) ==
 == 176-th k-point nmo = 68 (0.48986,-0.24493,-0.12246) ==
 == 177-th k-point nmo = 68 (0.55109,-0.18370,-0.18370) ==
 == 178-th k-point nmo = 68 (0.61232,-0.12246,-0.24493) ==
 == 179-th k-point nmo = 68 (0.67356,-0.06123,-0.30616) ==
 == 180-th k-point nmo = 68 (0.18370,-0.67356,0.30616) ==
 == 181-th k-point nmo = 68 (0.24493,-0.61232,0.24493) ==
 == 182-th k-point nmo = 68 (0.30616,-0.55109,0.18370) ==
 == 183-th k-point nmo = 68 (0.36739,-0.48986,0.12246) ==
 == 184-th k-point nmo = 68 (0.42863,-0.42863,0.06123) ==
 == 185-th k-point nmo = 68 (0.48986,-0.36739,0.00000) ==
 == 186-th k-point nmo = 68 (0.55109,-0.30616,-0.06123) ==
 == 187-th k-point nmo = 68 (0.61232,-0.24493,-0.12246) ==
 == 188-th k-point nmo = 68 (0.67356,-0.18370,-0.18370) ==
 == 189-th k-point nmo = 68 (0.73479,-0.12246,-0.24493) ==
 == 190-th k-point nmo = 68 (0.24493,-0.73479,0.36739) ==
 == 191-th k-point nmo = 68 (0.30616,-0.67356,0.30616) ==
 == 192-th k-point nmo = 68 (0.36739,-0.61232,0.24493) ==
 == 193-th k-point nmo = 68 (0.42863,-0.55109,0.18370) ==
 == 194-th k-point nmo = 68 (0.48986,-0.48986,0.12246) ==
 == 195-th k-point nmo = 68 (0.55109,-0.42863,0.06123) ==
 == 196-th k-point nmo = 68 (0.61232,-0.36739,0.00000) ==
 == 197-th k-point nmo = 68 (0.67356,-0.30616,-0.06123) ==
 == 198-th k-point nmo = 68 (0.73479,-0.24493,-0.12246) ==
 == 199-th k-point nmo = 68 (0.79602,-0.18370,-0.18370) ==
 == 200-th k-point nmo = 68 (-0.36739,-0.12246,-0.12246) ==
 == 201-th k-point nmo = 68 (-0.30616,-0.06123,-0.18370) ==
 == 202-th k-point nmo = 68 (-0.24493,-0.00000,-0.24493) ==
 == 203-th k-point nmo = 68 (-0.18370,0.06123,-0.30616) ==
 == 204-th k-point nmo = 68 (-0.12246,0.12246,-0.36739) ==
 == 205-th k-point nmo = 68 (-0.06123,0.18370,-0.42863) ==
 == 206-th k-point nmo = 68 (-0.00000,0.24493,-0.48986) ==
 == 207-th k-point nmo = 68 (0.06123,0.30616,-0.55109) ==
 == 208-th k-point nmo = 68 (0.12246,0.36739,-0.61232) ==
 == 209-th k-point nmo = 68 (0.18370,0.42863,-0.67356) ==
 == 210-th k-point nmo = 68 (-0.30616,-0.18370,-0.06123) ==
 == 211-th k-point nmo = 68 (-0.24493,-0.12246,-0.12246) ==
 == 212-th k-point nmo = 68 (-0.18370,-0.06123,-0.18370) ==
 == 213-th k-point nmo = 68 (-0.12246,-0.00000,-0.24493) ==
 == 214-th k-point nmo = 68 (-0.06123,0.06123,-0.30616) ==
 == 215-th k-point nmo = 68 (-0.00000,0.12246,-0.36739) ==
 == 216-th k-point nmo = 68 (0.06123,0.18370,-0.42863) ==
 == 217-th k-point nmo = 68 (0.12246,0.24493,-0.48986) ==
 == 218-th k-point nmo = 68 (0.18370,0.30616,-0.55109) ==
 == 219-th k-point nmo = 68 (0.24493,0.36739,-0.61232) ==
 == 220-th k-point nmo = 68 (-0.24493,-0.24493,0.00000) ==
 == 221-th k-point nmo = 68 (-0.18370,-0.18370,-0.06123) ==
 == 222-th k-point nmo = 68 (-0.12246,-0.12246,-0.12246) ==
 == 223-th k-point nmo = 68 (-0.06123,-0.06123,-0.18370) ==
 == 224-th k-point nmo = 68 (-0.00000,-0.00000,-0.24493) ==
 == 225-th k-point nmo = 68 (0.06123,0.06123,-0.30616) ==
 == 226-th k-point nmo = 68 (0.12246,0.12246,-0.36739) ==
 == 227-th k-point nmo = 68 (0.18370,0.18370,-0.42863) ==
 == 228-th k-point nmo = 68 (0.24493,0.24493,-0.48986) ==
 == 229-th k-point nmo = 68 (0.30616,0.30616,-0.55109) ==
 == 230-th k-point nmo = 68 (-0.18370,-0.30616,0.06123) ==
 == 231-th k-point nmo = 68 (-0.12246,-0.24493,-0.00000) ==
 == 232-th k-point nmo = 68 (-0.06123,-0.18370,-0.06123) ==
 == 233-th k-point nmo = 68 (-0.00000,-0.12246,-0.12246) ==
 == 234-th k-point nmo = 68 (0.06123,-0.06123,-0.18370) ==
 == 235-th k-point nmo = 68 (0.12246,-0.00000,-0.24493) ==
 == 236-th k-point nmo = 68 (0.18370,0.06123,-0.30616) ==
 == 237-th k-point nmo = 68 (0.24493,0.12246,-0.36739) ==
 == 238-th k-point nmo = 68 (0.30616,0.18370,-0.42863) ==
 == 239-th k-point nmo = 68 (0.36739,0.24493,-0.48986) ==
 == 240-th k-point nmo = 68 (-0.12246,-0.36739,0.12246) ==
 == 241-th k-point nmo = 68 (-0.06123,-0.30616,0.06123) ==
 == 242-th k-point nmo = 68 (-0.00000,-0.24493,0.00000) ==
 == 243-th k-point nmo = 68 (0.06123,-0.18370,-0.06123) ==
 == 244-th k-point nmo = 68 (0.12246,-0.12246,-0.12246) ==
 == 245-th k-point nmo = 68 (0.18370,-0.06123,-0.18370) ==
 == 246-th k-point nmo = 68 (0.24493,0.00000,-0.24493) ==
 == 247-th k-point nmo = 68 (0.30616,0.06123,-0.30616) ==
 == 248-th k-point nmo = 68 (0.36739,0.12246,-0.36739) ==
 == 249-th k-point nmo = 68 (0.42863,0.18370,-0.42863) ==
 == 250-th k-point nmo = 68 (-0.06123,-0.42863,0.18370) ==
 == 251-th k-point nmo = 68 (-0.00000,-0.36739,0.12246) ==
 == 252-th k-point nmo = 68 (0.06123,-0.30616,0.06123) ==
 == 253-th k-point nmo = 68 (0.12246,-0.24493,-0.00000) ==
 == 254-th k-point nmo = 68 (0.18370,-0.18370,-0.06123) ==
 == 255-th k-point nmo = 68 (0.24493,-0.12246,-0.12246) ==
 == 256-th k-point nmo = 68 (0.30616,-0.06123,-0.18370) ==
 == 257-th k-point nmo = 68 (0.36739,0.00000,-0.24493) ==
 == 258-th k-point nmo = 68 (0.42863,0.06123,-0.30616) ==
 == 259-th k-point nmo = 68 (0.48986,0.12246,-0.36739) ==
 == 260-th k-point nmo = 68 (-0.00000,-0.48986,0.24493) ==
 == 261-th k-point nmo = 68 (0.06123,-0.42863,0.18370) ==
 == 262-th k-point nmo = 68 (0.12246,-0.36739,0.12246) ==
 == 263-th k-point nmo = 68 (0.18370,-0.30616,0.06123) ==
 == 264-th k-point nmo = 68 (0.24493,-0.24493,0.00000) ==
 == 265-th k-point nmo = 68 (0.30616,-0.18370,-0.06123) ==
 == 266-th k-point nmo = 68 (0.36739,-0.12246,-0.12246) ==
 == 267-th k-point nmo = 68 (0.42863,-0.06123,-0.18370) ==
 == 268-th k-point nmo = 68 (0.48986,0.00000,-0.24493) ==
 == 269-th k-point nmo = 68 (0.55109,0.06123,-0.30616) ==
 == 270-th k-point nmo = 68 (0.06123,-0.55109,0.30616) ==
 == 271-th k-point nmo = 68 (0.12246,-0.48986,0.24493) ==
 == 272-th k-point nmo = 68 (0.18370,-0.42863,0.18370) ==
 == 273-th k-point nmo = 68 (0.24493,-0.36739,0.12246) ==
 == 274-th k-point nmo = 68 (0.30616,-0.30616,0.06123) ==
 == 275-th k-point nmo = 68 (0.36739,-0.24493,0.00000) ==
 == 276-th k-point nmo = 68 (0.42863,-0.18370,-0.06123) ==
 == 277-th k-point nmo = 68 (0.48986,-0.12246,-0.12246) ==
 == 278-th k-point nmo = 68 (0.55109,-0.06123,-0.18370) ==
 == 279-th k-point nmo = 68 (0.61232,0.00000,-0.24493) ==
 == 280-th k-point nmo = 68 (0.12246,-0.61232,0.36739) ==
 == 281-th k-point nmo = 68 (0.18370,-0.55109,0.30616) ==
 == 282-th k-point nmo = 68 (0.24493,-0.48986,0.24493) ==
 == 283-th k-point nmo = 68 (0.30616,-0.42863,0.18370) ==
 == 284-th k-point nmo = 68 (0.36739,-0.36739,0.12246) ==
 == 285-th k-point nmo = 68 (0.42863,-0.30616,0.06123) ==
 == 286-th k-point nmo = 68 (0.48986,-0.24493,0.00000) ==
 == 287-th k-point nmo = 68 (0.55109,-0.18370,-0.06123) ==
 == 288-th k-point nmo = 68 (0.61232,-0.12246,-0.12246) ==
 == 289-th k-point nmo = 68 (0.67356,-0.06123,-0.18370) ==
 == 290-th k-point nmo = 68 (0.18370,-0.67356,0.42863) ==
 == 291-th k-point nmo = 68 (0.24493,-0.61232,0.36739) ==
 == 292-th k-point nmo = 68 (0.30616,-0.55109,0.30616) ==
 == 293-th k-point nmo = 68 (0.36739,-0.48986,0.24493) ==
 == 294-th k-point nmo = 68 (0.42863,-0.42863,0.18370) ==
 == 295-th k-point nmo = 68 (0.48986,-0.36739,0.12246) ==
 == 296-th k-point nmo = 68 (0.55109,-0.30616,0.06123) ==
 == 297-th k-point nmo = 68 (0.61232,-0.24493,0.00000) ==
 == 298-th k-point nmo = 68 (0.67356,-0.18370,-0.06123) ==
 == 299-th k-point nmo = 68 (0.73479,-0.12246,-0.12246) ==
 == 300-th k-point nmo = 68 (-0.42863,-0.06123,-0.06123) ==
 == 301-th k-point nmo = 68 (-0.36739,-0.00000,-0.12246) ==
 == 302-th k-point nmo = 68 (-0.30616,0.06123,-0.18370) ==
 == 303-th k-point nmo = 68 (-0.24493,0.12246,-0.24493) ==
 == 304-th k-point nmo = 68 (-0.18370,0.18370,-0.30616) ==
 == 305-th k-point nmo = 68 (-0.12246,0.24493,-0.36739) ==
 == 306-th k-point nmo = 68 (-0.06123,0.30616,-0.42863) ==
 == 307-th k-point nmo = 68 (-0.00000,0.36739,-0.48986) ==
 == 308-th k-point nmo = 68 (0.06123,0.42863,-0.55109) ==
 == 309-th k-point nmo = 68 (0.12246,0.48986,-0.61232) ==
 == 310-th k-point nmo = 68 (-0.36739,-0.12246,0.00000) ==
 == 311-th k-point nmo = 68 (-0.30616,-0.06123,-0.06123) ==
 == 312-th k-point nmo = 68 (-0.24493,-0.00000,-0.12246) ==
 == 313-th k-point nmo = 68 (-0.18370,0.06123,-0.18370) ==
 == 314-th k-point nmo = 68 (-0.12246,0.12246,-0.24493) ==
 == 315-th k-point nmo = 68 (-0.06123,0.18370,-0.30616) ==
 == 316-th k-point nmo = 68 (0.00000,0.24493,-0.36739) ==
 == 317-th k-point nmo = 68 (0.06123,0.30616,-0.42863) ==
 == 318-th k-point nmo = 68 (0.12246,0.36739,-0.48986) ==
 == 319-th k-point nmo = 68 (0.18370,0.42863,-0.55109) ==
 == 320-th k-point nmo = 68 (-0.30616,-0.18370,0.06123) ==
 == 321-th k-point nmo = 68 (-0.24493,-0.12246,-0.00000) ==
 == 322-th k-point nmo = 68 (-0.18370,-0.06123,-0.06123) ==
 == 323-th k-point nmo = 68 (-0.12246,-0.00000,-0.12246) ==
 == 324-th k-point nmo = 68 (-0.06123,0.06123,-0.18370) ==
 == 325-th k-point nmo = 68 (-0.00000,0.12246,-0.24493) ==
 == 326-th k-point nmo = 68 (0.06123,0.18370,-0.30616) ==
 == 327-th k-point nmo = 68 (0.12246,0.24493,-0.36739) ==
 == 328-th k-point nmo = 68 (0.18370,0.30616,-0.42863) ==
 == 329-th k-point nmo = 68 (0.24493,0.36739,-0.48986) ==
 == 330-th k-point nmo = 68 (-0.24493,-0.24493,0.12246) ==
 == 331-th k-point nmo = 68 (-0.18370,-0.18370,0.06123) ==
 == 332-th k-point nmo = 68 (-0.12246,-0.12246,0.00000) ==
 == 333-th k-point nmo = 68 (-0.06123,-0.06123,-0.06123) ==
 == 334-th k-point nmo = 68 (-0.00000,-0.00000,-0.12246) ==
 == 335-th k-point nmo = 68 (0.06123,0.06123,-0.18370) ==
 == 336-th k-point nmo = 68 (0.12246,0.12246,-0.24493) ==
 == 337-th k-point nmo = 68 (0.18370,0.18370,-0.30616) ==
 == 338-th k-point nmo = 68 (0.24493,0.24493,-0.36739) ==
 == 339-th k-point nmo = 68 (0.30616,0.30616,-0.42863) ==
 == 340-th k-point nmo = 68 (-0.18370,-0.30616,0.18370) ==
 == 341-th k-point nmo = 68 (-0.12246,-0.24493,0.12246) ==
 == 342-th k-point nmo = 68 (-0.06123,-0.18370,0.06123) ==
 == 343-th k-point nmo = 68 (-0.00000,-0.12246,0.00000) ==
 == 344-th k-point nmo = 68 (0.06123,-0.06123,-0.06123) ==
 == 345-th k-point nmo = 68 (0.12246,0.00000,-0.12246) ==
 == 346-th k-point nmo = 68 (0.18370,0.06123,-0.18370) ==
 == 347-th k-point nmo = 68 (0.24493,0.12246,-0.24493) ==
 == 348-th k-point nmo = 68 (0.30616,0.18370,-0.30616) ==
 == 349-th k-point nmo = 68 (0.36739,0.24493,-0.36739) ==
 == 350-th k-point nmo = 68 (-0.12246,-0.36739,0.24493) ==
 == 351-th k-point nmo = 68 (-0.06123,-0.30616,0.18370) ==
 == 352-th k-point nmo = 68 (-0.00000,-0.24493,0.12246) ==
 == 353-th k-point nmo = 68 (0.06123,-0.18370,0.06123) ==
 == 354-th k-point nmo = 68 (0.12246,-0.12246,0.00000) ==
 == 355-th k-point nmo = 68 (0.18370,-0.06123,-0.06123) ==
 == 356-th k-point nmo = 68 (0.24493,0.00000,-0.12246) ==
 == 357-th k-point nmo = 68 (0.30616,0.06123,-0.18370) ==
 == 358-th k-point nmo = 68 (0.36739,0.12246,-0.24493) ==
 == 359-th k-point nmo = 68 (0.42863,0.18370,-0.30616) ==
 == 360-th k-point nmo = 68 (-0.06123,-0.42863,0.30616) ==
 == 361-th k-point nmo = 68 (-0.00000,-0.36739,0.24493) ==
 == 362-th k-point nmo = 68 (0.06123,-0.30616,0.18370) ==
 == 363-th k-point nmo = 68 (0.12246,-0.24493,0.12246) ==
 == 364-th k-point nmo = 68 (0.18370,-0.18370,0.06123) ==
 == 365-th k-point nmo = 68 (0.24493,-0.12246,0.00000) ==
 == 366-th k-point nmo = 68 (0.30616,-0.06123,-0.06123) ==
 == 367-th k-point nmo = 68 (0.36739,0.00000,-0.12246) ==
 == 368-th k-point nmo = 68 (0.42863,0.06123,-0.18370) ==
 == 369-th k-point nmo = 68 (0.48986,0.12246,-0.24493) ==
 == 370-th k-point nmo = 68 (-0.00000,-0.48986,0.36739) ==
 == 371-th k-point nmo = 68 (0.06123,-0.42863,0.30616) ==
 == 372-th k-point nmo = 68 (0.12246,-0.36739,0.24493) ==
 == 373-th k-point nmo = 68 (0.18370,-0.30616,0.18370) ==
 == 374-th k-point nmo = 68 (0.24493,-0.24493,0.12246) ==
 == 375-th k-point nmo = 68 (0.30616,-0.18370,0.06123) ==
 == 376-th k-point nmo = 68 (0.36739,-0.12246,0.00000) ==
 == 377-th k-point nmo = 68 (0.42863,-0.06123,-0.06123) ==
 == 378-th k-point nmo = 68 (0.48986,0.00000,-0.12246) ==
 == 379-th k-point nmo = 68 (0.55109,0.06123,-0.18370) ==
 == 380-th k-point nmo = 68 (0.06123,-0.55109,0.42863) ==
 == 381-th k-point nmo = 68 (0.12246,-0.48986,0.36739) ==
 == 382-th k-point nmo = 68 (0.18370,-0.42863,0.30616) ==
 == 383-th k-point nmo = 68 (0.24493,-0.36739,0.24493) ==
 == 384-th k-point nmo = 68 (0.30616,-0.30616,0.18370) ==
 == 385-th k-point nmo = 68 (0.36739,-0.24493,0.12246) ==
 == 386-th k-point nmo = 68 (0.42863,-0.18370,0.06123) ==
 == 387-th k-point nmo = 68 (0.48986,-0.12246,0.00000) ==
 == 388-th k-point nmo = 68 (0.55109,-0.06123,-0.06123) ==
 == 389-th k-point nmo = 68 (0.61232,0.00000,-0.12246) ==
 == 390-th k-point nmo = 68 (0.12246,-0.61232,0.48986) ==
 == 391-th k-point nmo = 68 (0.18370,-0.55109,0.42863) ==
 == 392-th k-point nmo = 68 (0.24493,-0.48986,0.36739) ==
 == 393-th k-point nmo = 68 (0.30616,-0.42863,0.30616) ==
 == 394-th k-point nmo = 68 (0.36739,-0.36739,0.24493) ==
 == 395-th k-point nmo = 68 (0.42863,-0.30616,0.18370) ==
 == 396-th k-point nmo = 68 (0.48986,-0.24493,0.12246) ==
 == 397-th k-point nmo = 68 (0.55109,-0.18370,0.06123) ==
 == 398-th k-point nmo = 68 (0.61232,-0.12246,0.00000) ==
 == 399-th k-point nmo = 68 (0.67356,-0.06123,-0.06123) ==
 == 400-th k-point nmo = 68 (-0.48986,-0.00000,-0.00000) ==
 == 401-th k-point nmo = 68 (-0.42863,0.06123,-0.06123) ==
 == 402-th k-point nmo = 68 (-0.36739,0.12246,-0.12246) ==
 == 403-th k-point nmo = 68 (-0.30616,0.18370,-0.18370) ==
 == 404-th k-point nmo = 68 (-0.24493,0.24493,-0.24493) ==
 == 405-th k-point nmo = 68 (-0.18370,0.30616,-0.30616) ==
 == 406-th k-point nmo = 68 (-0.12246,0.36739,-0.36739) ==
 == 407-th k-point nmo = 68 (-0.06123,0.42863,-0.42863) ==
 == 408-th k-point nmo = 68 (0.00000,0.48986,-0.48986) ==
 == 409-th k-point nmo = 68 (0.06123,0.55109,-0.55109) ==
 == 410-th k-point nmo = 68 (-0.42863,-0.06123,0.06123) ==
 == 411-th k-point nmo = 68 (-0.36739,-0.00000,-0.00000) ==
 == 412-th k-point nmo = 68 (-0.30616,0.06123,-0.06123) ==
 == 413-th k-point nmo = 68 (-0.24493,0.12246,-0.12246) ==
 == 414-th k-point nmo = 68 (-0.18370,0.18370,-0.18370) ==
 == 415-th k-point nmo = 68 (-0.12246,0.24493,-0.24493) ==
 == 416-th k-point nmo = 68 (-0.06123,0.30616,-0.30616) ==
 == 417-th k-point nmo = 68 (0.00000,0.36739,-0.36739) ==
 == 418-th k-point nmo = 68 (0.06123,0.42863,-0.42863) ==
 == 419-th k-point nmo = 68 (0.12246,0.48986,-0.48986) ==
[...]
 3.12421 3.22086 3.58073 3.75846 3.89439 3.98583 5.59500 7.75324
 == 970-th k-point (-0.36739,-0.12246,0.73479) occupation: 14==
 -64.99275 -64.99273 -4.62160 -4.62151 -3.03248 -3.03247 -3.03222 -3.03198 -3.03174 -3.03171
 -0.05111 0.02782 0.13374 0.18385 0.36422 0.43983 0.48217 0.53296 0.57389 0.68681
 0.72749 0.76616 0.84425 0.92003 0.93468 0.98149 0.99279 1.02697 1.10096 1.12662
 1.19411 1.22105 1.27485 1.38071 1.39776 1.43898 1.49634 1.54064 1.57448 1.63936
 1.69016 1.77745 1.80766 1.83951 1.89549 1.92765 1.94710 2.02233 2.09749 2.14447
 2.19050 2.23165 2.28072 2.35883 2.42324 2.44868 2.46970 2.52999 2.61887 2.68911
 2.97511 3.20859 3.60869 3.68361 3.88383 3.92997 6.24933 7.14060
 == 971-th k-point (-0.30616,-0.06123,0.67356) occupation: 14==
 -64.99274 -64.99274 -4.62158 -4.62153 -3.03249 -3.03248 -3.03216 -3.03204 -3.03172 -3.03170
 -0.02928 0.01579 0.12238 0.15532 0.41391 0.42534 0.47853 0.49345 0.61025 0.69826
 0.73586 0.81361 0.85012 0.92828 0.93504 0.97028 0.97719 1.03871 1.06446 1.06543
 1.14343 1.22861 1.28760 1.33716 1.41164 1.41374 1.48746 1.53412 1.56484 1.57643
 1.73648 1.79771 1.83997 1.84355 1.95126 1.96102 1.97348 2.04307 2.04795 2.15002
 2.18817 2.20362 2.25313 2.32922 2.38791 2.47035 2.49625 2.51081 2.63118 2.71725
 2.96537 3.11054 3.67586 3.67954 3.79235 3.79877 6.39613 6.65017
 == 972-th k-point (-0.24493,0.00000,0.61232) occupation: 14==
 -64.99274 -64.99274 -4.62156 -4.62156 -3.03249 -3.03249 -3.03210 -3.03210 -3.03171 -3.03171
 -0.00618 -0.00618 0.13569 0.13569 0.40482 0.40482 0.49734 0.49734 0.67404 0.67404
 0.76466 0.76466 0.89769 0.89769 0.95296 0.95296 0.98883 0.98883 1.06879 1.06879
 1.17089 1.17089 1.28893 1.28894 1.44675 1.44675 1.48931 1.48933 1.58304 1.58305
 1.77510 1.77510 1.84810 1.84811 1.96267 1.96268 2.01544 2.01545 2.11073 2.11073
 2.17475 2.17476 2.28066 2.28067 2.43274 2.43276 2.50087 2.50088 2.69193 2.69199
 3.01958 3.01962 3.71077 3.71079 3.74587 3.74588 6.50688 6.50692
 == 973-th k-point (-0.18370,0.06123,0.55109) occupation: 14==
 -64.99275 -64.99273 -4.62158 -4.62153 -3.03249 -3.03248 -3.03216 -3.03205 -3.03172 -3.03170
 -0.03278 0.01702 0.13033 0.16486 0.34546 0.39925 0.51336 0.57920 0.61225 0.69161
 0.74125 0.81473 0.85204 0.86162 0.92224 0.96414 0.98222 1.05641 1.07348 1.10063
 1.16930 1.18651 1.21390 1.29866 1.42740 1.48283 1.52110 1.55532 1.59248 1.63411
 1.77083 1.77439 1.82907 1.85372 1.90666 1.94033 2.00205 2.01686 2.06756 2.13590
 2.17751 2.22309 2.29004 2.33947 2.38855 2.42913 2.45096 2.54088 2.65333 2.71636
 2.93247 3.09731 3.64368 3.73920 3.80748 3.84907 6.20754 6.97590
 == 974-th k-point (-0.12246,0.12246,0.48986) occupation: 14==
 -64.99276 -64.99272 -4.62160 -4.62151 -3.03248 -3.03248 -3.03220 -3.03200 -3.03174 -3.03171
 -0.05697 0.03941 0.13911 0.18525 0.32301 0.40295 0.52869 0.53164 0.66749 0.67938
 0.74257 0.75571 0.80516 0.88756 0.91595 0.99121 1.00750 1.02753 1.05121 1.15588
 1.19677 1.20294 1.22449 1.37316 1.40445 1.47670 1.52025 1.54868 1.64934 1.70550
 1.72481 1.74845 1.81492 1.81968 1.86805 1.94472 2.02339 2.03265 2.05866 2.11716
 2.16708 2.24521 2.30008 2.34836 2.37552 2.41603 2.43108 2.52487 2.58007 2.71658
 3.12422 3.22101 3.58074 3.75845 3.89438 3.98583 5.59500 7.75331
 == 975-th k-point (-0.06123,0.18370,0.42863) occupation: 14==
 -64.99275 -64.99274 -4.62162 -4.62150 -3.03248 -3.03247 -3.03224 -3.03197 -3.03174 -3.03172
 -0.07514 0.05976 0.14875 0.18593 0.35730 0.41712 0.45633 0.53572 0.65103 0.65466
 0.74792 0.76059 0.80304 0.84232 0.93864 0.95434 1.01953 1.05241 1.09902 1.14334
 1.20354 1.22366 1.30094 1.40037 1.41881 1.45011 1.53723 1.56003 1.60905 1.65425
 1.69232 1.71434 1.78823 1.85322 1.89501 1.94019 1.98753 2.01907 2.06876 2.12380
 2.18388 2.21588 2.26863 2.35345 2.37386 2.39434 2.42969 2.50291 2.59766 2.75543
 3.03018 3.34088 3.52576 3.81976 3.89046 3.96320 6.40152 7.42206
 == 976-th k-point (0.00000,0.24493,0.36739) occupation: 14==
 -64.99275 -64.99274 -4.62163 -4.62149 -3.03247 -3.03246 -3.03227 -3.03194 -3.03176 -3.03173
 -0.08569 0.07249 0.13916 0.20912 0.39533 0.41283 0.45291 0.51029 0.57710 0.63975
 0.75488 0.77331 0.78756 0.87487 0.91332 0.97316 0.99193 1.08989 1.13425 1.17639
 1.22908 1.24299 1.32722 1.36451 1.40610 1.47722 1.52106 1.54327 1.61138 1.63415
 1.69823 1.72646 1.75718 1.83873 1.92067 1.92934 1.94896 2.00103 2.08076 2.15572
 2.19228 2.19874 2.21477 2.34698 2.39616 2.39855 2.46818 2.52510 2.60455 2.74819
 2.91208 3.39595 3.49734 3.86844 3.92884 3.98215 6.80183 7.32733
 == 977-th k-point (0.06123,0.30616,0.30616) occupation: 14==
 -64.99275 -64.99274 -4.62163 -4.62148 -3.03246 -3.03246 -3.03229 -3.03192 -3.03176 -3.03173
 -0.08809 0.06541 0.14785 0.22652 0.36847 0.44538 0.44866 0.52525 0.53720 0.63305
 0.72425 0.76714 0.81259 0.89887 0.90106 0.94784 1.01444 1.10169 1.17543 1.18529
 1.25010 1.25558 1.32632 1.38013 1.39546 1.41039 1.48896 1.59911 1.60732 1.63400
 1.67413 1.75133 1.78222 1.79448 1.89311 1.90830 1.96849 2.04561 2.08765 2.14026
 2.21118 2.21323 2.28182 2.35308 2.38849 2.41632 2.50825 2.56990 2.59248 2.66716
 2.93817 3.41840 3.49465 3.84234 3.95985 4.05562 6.79194 7.52417
 == 978-th k-point (0.12246,0.36739,0.24493) occupation: 14==
 -64.99276 -64.99273 -4.62162 -4.62149 -3.03247 -3.03247 -3.03229 -3.03192 -3.03176 -3.03173
 -0.08246 0.04935 0.16836 0.21248 0.37944 0.39932 0.46542 0.50325 0.62207 0.63569
 0.70965 0.75407 0.79249 0.87075 0.92589 0.97918 1.03227 1.10930 1.11820 1.17374
 1.20564 1.30730 1.32339 1.37675 1.43013 1.46055 1.48851 1.52250 1.56403 1.63570
 1.65394 1.75520 1.77674 1.83572 1.89190 1.93619 1.98524 2.02286 2.07644 2.16438
 2.20971 2.22916 2.28864 2.35505 2.41173 2.43923 2.48431 2.52343 2.57535 2.65468
 3.11664 3.39530 3.51497 3.77727 3.97179 4.04654 6.38085 7.70808
 == 979-th k-point (0.18370,0.42863,0.18370) occupation: 14==
 -64.99276 -64.99273 -4.62161 -4.62150 -3.03248 -3.03248 -3.03226 -3.03194 -3.03175 -3.03173
 -0.06960 0.03660 0.15976 0.20290 0.34567 0.45206 0.46776 0.48698 0.64124 0.67501
 0.73072 0.73544 0.75209 0.90911 0.95280 0.99738 1.04747 1.04884 1.06025 1.16541
 1.19215 1.29274 1.30494 1.37902 1.44091 1.44302 1.49479 1.50695 1.60708 1.64087
 1.66108 1.74759 1.79108 1.81934 1.88858 1.95583 1.99790 2.00186 2.09957 2.15341
 2.20190 2.25353 2.30952 2.37859 2.38458 2.42465 2.43362 2.52790 2.56777 2.65973
 3.22590 3.39535 3.54345 3.70508 3.98474 3.99488 5.84024 7.86395
 == 980-th k-point (-0.30616,-0.18370,0.79602) occupation: 14==
 -64.99275 -64.99273 -4.62161 -4.62150 -3.03247 -3.03247 -3.03228 -3.03193 -3.03175 -3.03173
 -0.06546 0.02426 0.16619 0.20731 0.38057 0.39251 0.46425 0.56769 0.57043 0.66160
 0.71103 0.73112 0.83193 0.83289 0.98617 0.99693 1.05354 1.08370 1.08917 1.14240
 1.23814 1.29898 1.32795 1.33458 1.43000 1.44749 1.49040 1.49320 1.57581 1.63001
 1.65983 1.72717 1.78650 1.85654 1.89489 1.90459 1.95202 2.02861 2.08376 2.18778
 2.20991 2.24455 2.30824 2.36310 2.46244 2.47030 2.48610 2.50450 2.59513 2.62090
 3.13975 3.29578 3.60253 3.61743 3.98447 4.05380 6.28155 7.42530
 == 981-th k-point (-0.24493,-0.12246,0.73479) occupation: 14==
 -64.99275 -64.99273 -4.62160 -4.62151 -3.03248 -3.03247 -3.03222 -3.03198 -3.03174 -3.03171
 -0.05111 0.02782 0.13374 0.18385 0.36422 0.43983 0.48217 0.53296 0.57389 0.68681
 0.72749 0.76616 0.84425 0.92003 0.93468 0.98149 0.99279 1.02697 1.10096 1.12662
 1.19411 1.22105 1.27485 1.38071 1.39776 1.43898 1.49634 1.54064 1.57448 1.63936
 1.69016 1.77745 1.80766 1.83951 1.89549 1.92765 1.94710 2.02233 2.09749 2.14447
 2.19050 2.23165 2.28072 2.35883 2.42324 2.44868 2.46970 2.52999 2.61887 2.68911
 2.97511 3.20859 3.60869 3.68361 3.88383 3.92997 6.24933 7.14060
 == 982-th k-point (-0.18370,-0.06123,0.67356) occupation: 14==
 -64.99275 -64.99273 -4.62158 -4.62153 -3.03249 -3.03248 -3.03216 -3.03205 -3.03172 -3.03170
 -0.03278 0.01702 0.13033 0.16486 0.34546 0.39925 0.51336 0.57920 0.61225 0.69161
 0.74125 0.81473 0.85204 0.86162 0.92224 0.96414 0.98222 1.05641 1.07349 1.10063
 1.16930 1.18651 1.21390 1.29865 1.42740 1.48284 1.52110 1.55532 1.59244 1.63412
 1.77084 1.77439 1.82906 1.85372 1.90665 1.94033 2.00205 2.01686 2.06756 2.13589
 2.17752 2.22309 2.29003 2.33946 2.38854 2.42913 2.45092 2.54087 2.65322 2.71638
 2.93248 3.09724 3.64367 3.73920 3.80749 3.84906 6.20747 6.97595
 == 983-th k-point (-0.12246,0.00000,0.61232) occupation: 14==
 -64.99274 -64.99274 -4.62156 -4.62156 -3.03248 -3.03248 -3.03210 -3.03210 -3.03171 -3.03171
 -0.00969 -0.00969 0.15455 0.15455 0.33537 0.33537 0.59311 0.59311 0.67545 0.67545
 0.75812 0.75812 0.83635 0.83635 0.94922 0.94922 1.01874 1.01875 1.09373 1.09373
 1.15927 1.15928 1.21950 1.21951 1.46227 1.46227 1.57266 1.57266 1.66583 1.66584
 1.79707 1.79708 1.82139 1.82140 1.91987 1.91987 2.02359 2.02360 2.12605 2.12606
 2.18461 2.18462 2.30733 2.30733 2.38186 2.38186 2.52965 2.52967 2.71645 2.71646
 2.94923 2.94927 3.72886 3.72887 3.86168 3.86170 6.51800 6.51802
 == 984-th k-point (-0.06123,0.06123,0.55109) occupation: 14==
 -64.99274 -64.99272 -4.62158 -4.62153 -3.03248 -3.03248 -3.03215 -3.03205 -3.03174 -3.03172
 -0.03755 0.01775 0.15384 0.17353 0.30775 0.33583 0.60328 0.60629 0.68271 0.68881
 0.74314 0.75354 0.81605 0.82142 0.91254 0.99403 1.01267 1.03403 1.07431 1.12183
 1.13420 1.18583 1.20921 1.28402 1.41663 1.46284 1.59425 1.59426 1.72205 1.73826
 1.76877 1.77098 1.80343 1.85947 1.87099 1.92336 2.02418 2.04848 2.12355 2.15146
 2.16883 2.19522 2.28086 2.32266 2.33452 2.38644 2.51592 2.55854 2.60739 2.75427
 2.99711 3.00635 3.68459 3.79785 3.92467 4.05581 5.46402 7.03992
 == 985-th k-point (0.00000,0.12246,0.48986) occupation: 14==
 -64.99274 -64.99274 -4.62160 -4.62151 -3.03249 -3.03247 -3.03219 -3.03201 -3.03173 -3.03172
 -0.06003 0.04557 0.15620 0.16819 0.33221 0.35457 0.52852 0.59348 0.66899 0.68242
 0.74737 0.77225 0.80464 0.85389 0.89449 0.93312 1.02416 1.02770 1.10466 1.12837
 1.17182 1.21456 1.24464 1.30124 1.43657 1.45174 1.58790 1.59643 1.66246 1.67965
 1.70953 1.75577 1.83336 1.84870 1.87139 1.91164 1.98697 2.09097 2.09699 2.10313
 2.16219 2.23417 2.24444 2.33404 2.35564 2.38961 2.41664 2.51988 2.61570 2.81544
 2.98106 3.24088 3.58568 3.82602 3.84717 3.97939 6.64793 6.68177
 == 986-th k-point (0.06123,0.18370,0.42863) occupation: 14==
 -64.99275 -64.99274 -4.62162 -4.62150 -3.03248 -3.03247 -3.03224 -3.03197 -3.03174 -3.03172
 -0.07514 0.05976 0.14875 0.18593 0.35730 0.41712 0.45633 0.53572 0.65103 0.65466
 0.74792 0.76059 0.80304 0.84232 0.93864 0.95434 1.01953 1.05241 1.09902 1.14334
 1.20354 1.22367 1.30095 1.40037 1.41881 1.45011 1.53723 1.56003 1.60905 1.65426
 1.69232 1.71434 1.78823 1.85321 1.89501 1.94018 1.98752 2.01907 2.06876 2.12379
 2.18388 2.21590 2.26864 2.35346 2.37385 2.39433 2.42968 2.50290 2.59770 2.75541
 3.03017 3.34088 3.52575 3.81978 3.89046 3.96319 6.40154 7.42199
 == 987-th k-point (0.12246,0.24493,0.36739) occupation: 14==
 -64.99276 -64.99273 -4.62162 -4.62149 -3.03247 -3.03247 -3.03229 -3.03192 -3.03176 -3.03173
 -0.08246 0.04935 0.16836 0.21248 0.37944 0.39932 0.46542 0.50325 0.62207 0.63569
 0.70965 0.75407 0.79249 0.87075 0.92589 0.97918 1.03227 1.10930 1.11820 1.17374
 1.20564 1.30730 1.32339 1.37675 1.43013 1.46055 1.48851 1.52250 1.56403 1.63570
 1.65394 1.75520 1.77674 1.83572 1.89190 1.93619 1.98524 2.02286 2.07644 2.16438
 2.20971 2.22916 2.28864 2.35505 2.41173 2.43923 2.48431 2.52343 2.57535 2.65468
 3.11664 3.39530 3.51497 3.77727 3.97179 4.04654 6.38085 7.70808
 == 988-th k-point (0.18370,0.30616,0.30616) occupation: 14==
 -64.99276 -64.99271 -4.62162 -4.62148 -3.03247 -3.03246 -3.03231 -3.03188 -3.03177 -3.03175
 -0.08243 0.03339 0.19767 0.22909 0.35938 0.40551 0.41471 0.57518 0.60355 0.62797
 0.70197 0.73648 0.79443 0.80734 0.94008 1.02719 1.08088 1.10128 1.15276 1.19809
 1.22768 1.26376 1.34887 1.37884 1.41524 1.45459 1.46050 1.52168 1.57877 1.59408
 1.61976 1.71098 1.84435 1.85786 1.91553 1.92153 2.01250 2.03937 2.04373 2.17752
 2.24018 2.31050 2.31670 2.37145 2.43892 2.45311 2.50152 2.51688 2.51725 2.57723
 3.21149 3.42396 3.51169 3.69756 4.05093 4.09534 5.32945 7.83728
 == 989-th k-point (0.24493,0.36739,0.24493) occupation: 14==
 -64.99276 -64.99271 -4.62162 -4.62149 -3.03247 -3.03246 -3.03231 -3.03188 -3.03176 -3.03175
 -0.07623 0.02417 0.20244 0.22167 0.35708 0.40062 0.42060 0.56642 0.61497 0.67688
 0.70976 0.71370 0.74304 0.81686 0.98037 1.05363 1.06105 1.10198 1.14588 1.14620
 1.25276 1.29803 1.33501 1.36527 1.39534 1.45547 1.48862 1.50964 1.56610 1.60089
 1.62322 1.69333 1.83669 1.85940 1.91822 1.96545 1.97847 2.02893 2.06106 2.14680
 2.28134 2.32600 2.33923 2.38257 2.41494 2.46392 2.47468 2.50148 2.53321 2.55824
 3.32513 3.43324 3.52597 3.63492 4.06961 4.08300 4.99285 7.78847
 == 990-th k-point (-0.24493,-0.24493,0.85725) occupation: 14==
 -64.99276 -64.99271 -4.62162 -4.62149 -3.03247 -3.03246 -3.03231 -3.03188 -3.03176 -3.03175
 -0.07623 0.02417 0.20244 0.22167 0.35708 0.40062 0.42060 0.56642 0.61497 0.67688
 0.70976 0.71370 0.74304 0.81686 0.98037 1.05363 1.06105 1.10198 1.14588 1.14620
 1.25276 1.29803 1.33501 1.36527 1.39534 1.45547 1.48862 1.50964 1.56610 1.60089
 1.62322 1.69333 1.83669 1.85940 1.91822 1.96545 1.97847 2.02893 2.06106 2.14680
 2.28134 2.32600 2.33923 2.38257 2.41494 2.46392 2.47468 2.50148 2.53321 2.55824
 3.32513 3.43324 3.52597 3.63492 4.06961 4.08300 4.99285 7.78847
 == 991-th k-point (-0.18370,-0.18370,0.79602) occupation: 14==
 -64.99276 -64.99273 -4.62161 -4.62150 -3.03248 -3.03248 -3.03226 -3.03194 -3.03175 -3.03173
 -0.06960 0.03660 0.15976 0.20290 0.34567 0.45206 0.46776 0.48698 0.64124 0.67501
 0.73072 0.73544 0.75209 0.90911 0.95280 0.99738 1.04747 1.04884 1.06025 1.16541
 1.19215 1.29274 1.30494 1.37902 1.44091 1.44302 1.49479 1.50695 1.60708 1.64087
 1.66108 1.74759 1.79108 1.81934 1.88858 1.95583 1.99790 2.00186 2.09957 2.15341
 2.20190 2.25353 2.30952 2.37859 2.38458 2.42465 2.43362 2.52790 2.56777 2.65973
 3.22590 3.39535 3.54345 3.70508 3.98474 3.99488 5.84024 7.86395
 == 992-th k-point (-0.12246,-0.12246,0.73479) occupation: 14==
 -64.99276 -64.99272 -4.62160 -4.62151 -3.03248 -3.03248 -3.03220 -3.03200 -3.03174 -3.03171
 -0.05697 0.03941 0.13911 0.18525 0.32301 0.40295 0.52869 0.53164 0.66749 0.67938
 0.74257 0.75571 0.80516 0.88756 0.91595 0.99121 1.00751 1.02752 1.05121 1.15587
 1.19677 1.20295 1.22449 1.37316 1.40445 1.47669 1.52025 1.54868 1.64931 1.70550
 1.72481 1.74845 1.81491 1.81968 1.86805 1.94470 2.02337 2.03264 2.05865 2.11717
 2.16707 2.24521 2.30009 2.34836 2.37552 2.41603 2.43107 2.52481 2.58007 2.71657
 3.12421 3.22086 3.58073 3.75846 3.89439 3.98583 5.59500 7.75324
 == 993-th k-point (-0.06123,-0.06123,0.67356) occupation: 14==
 -64.99274 -64.99272 -4.62158 -4.62153 -3.03248 -3.03248 -3.03215 -3.03205 -3.03174 -3.03172
 -0.03755 0.01775 0.15384 0.17353 0.30775 0.33583 0.60328 0.60629 0.68271 0.68881
 0.74314 0.75354 0.81605 0.82142 0.91254 0.99403 1.01267 1.03402 1.07431 1.12185
 1.13420 1.18583 1.20920 1.28402 1.41664 1.46284 1.59425 1.59426 1.72213 1.73824
 1.76878 1.77097 1.80342 1.85947 1.87099 1.92333 2.02414 2.04868 2.12350 2.15145
 2.16904 2.19522 2.28097 2.32261 2.33452 2.38645 2.51587 2.55902 2.60724 2.75410
 2.99737 3.00626 3.68459 3.79784 3.92467 4.05611 5.46401 7.03947
 == 994-th k-point (0.00000,0.00000,0.61232) occupation: 14==
 -64.99272 -64.99272 -4.62156 -4.62155 -3.03247 -3.03247 -3.03210 -3.03210 -3.03175 -3.03175
 -0.01167 -0.01167 0.16948 0.16948 0.30392 0.30392 0.64990 0.64990 0.69679 0.69679
 0.75183 0.75183 0.75867 0.75867 0.99838 0.99838 1.04419 1.04420 1.06831 1.06831
 1.11741 1.11741 1.27232 1.27232 1.42107 1.42108 1.63523 1.63523 1.75534 1.75534
 1.76866 1.76866 1.84909 1.84909 1.89711 1.89711 2.11781 2.11781 2.15497 2.15498
 2.17189 2.17313 2.25555 2.25555 2.34458 2.34458 2.65587 2.65773 2.66305 2.66307
 2.83532 2.83532 3.83501 3.83502 4.13237 4.13322 5.45522 5.45525
 == 995-th k-point (0.06123,0.06123,0.55109) occupation: 14==
 -64.99274 -64.99272 -4.62158 -4.62153 -3.03248 -3.03248 -3.03215 -3.03205 -3.03174 -3.03172
 -0.03755 0.01775 0.15384 0.17353 0.30775 0.33583 0.60328 0.60629 0.68271 0.68881
 0.74314 0.75354 0.81605 0.82142 0.91254 0.99403 1.01267 1.03402 1.07431 1.12185
 1.13420 1.18583 1.20920 1.28402 1.41664 1.46284 1.59425 1.59426 1.72213 1.73824
 1.76878 1.77097 1.80342 1.85947 1.87099 1.92333 2.02414 2.04868 2.12350 2.15145
 2.16904 2.19522 2.28097 2.32261 2.33452 2.38645 2.51587 2.55902 2.60724 2.75410
 2.99737 3.00626 3.68459 3.79784 3.92467 4.05611 5.46401 7.03947
 == 996-th k-point (0.12246,0.12246,0.48986) occupation: 14==
 -64.99276 -64.99272 -4.62160 -4.62151 -3.03248 -3.03248 -3.03220 -3.03200 -3.03174 -3.03171
 -0.05697 0.03941 0.13911 0.18525 0.32301 0.40295 0.52869 0.53164 0.66749 0.67938
 0.74257 0.75571 0.80516 0.88756 0.91595 0.99121 1.00751 1.02752 1.05121 1.15587
 1.19677 1.20295 1.22449 1.37316 1.40445 1.47669 1.52025 1.54868 1.64931 1.70550
 1.72481 1.74845 1.81491 1.81968 1.86805 1.94470 2.02337 2.03264 2.05865 2.11717
 2.16707 2.24521 2.30009 2.34836 2.37552 2.41603 2.43107 2.52481 2.58007 2.71657
 3.12421 3.22086 3.58073 3.75846 3.89439 3.98583 5.59500 7.75324
 == 997-th k-point (0.18370,0.18370,0.42863) occupation: 14==
 -64.99276 -64.99273 -4.62161 -4.62150 -3.03248 -3.03248 -3.03226 -3.03194 -3.03175 -3.03173
 -0.06960 0.03660 0.15976 0.20290 0.34567 0.45206 0.46776 0.48698 0.64124 0.67501
 0.73072 0.73544 0.75209 0.90911 0.95280 0.99738 1.04747 1.04884 1.06025 1.16541
 1.19215 1.29274 1.30494 1.37902 1.44091 1.44302 1.49479 1.50695 1.60708 1.64087
 1.66108 1.74759 1.79108 1.81934 1.88858 1.95583 1.99790 2.00186 2.09957 2.15341
 2.20190 2.25353 2.30952 2.37859 2.38458 2.42465 2.43362 2.52790 2.56777 2.65973
 3.22590 3.39535 3.54345 3.70508 3.98474 3.99488 5.84024 7.86395
 == 998-th k-point (0.24493,0.24493,0.36739) occupation: 14==
 -64.99276 -64.99271 -4.62162 -4.62149 -3.03247 -3.03246 -3.03231 -3.03188 -3.03176 -3.03175
 -0.07623 0.02417 0.20244 0.22167 0.35708 0.40062 0.42060 0.56642 0.61497 0.67688
 0.70976 0.71370 0.74304 0.81686 0.98037 1.05363 1.06105 1.10198 1.14588 1.14620
 1.25276 1.29803 1.33501 1.36527 1.39534 1.45547 1.48862 1.50964 1.56610 1.60089
 1.62322 1.69333 1.83669 1.85940 1.91822 1.96545 1.97847 2.02893 2.06106 2.14680
 2.28134 2.32600 2.33923 2.38257 2.41494 2.46392 2.47468 2.50148 2.53321 2.55824
 3.32513 3.43324 3.52597 3.63492 4.06961 4.08300 4.99285 7.78847
 == 999-th k-point (0.30616,0.30616,0.30616) occupation: 14==
 -64.99276 -64.99268 -4.62162 -4.62148 -3.03246 -3.03246 -3.03232 -3.03185 -3.03177 -3.03177
 -0.07820 0.01871 0.23078 0.23078 0.33467 0.40195 0.40195 0.56686 0.68049 0.68049
 0.69963 0.70407 0.70407 0.76577 1.01827 1.03396 1.10982 1.10982 1.15915 1.15915
 1.25347 1.29786 1.29786 1.36108 1.36108 1.42143 1.54722 1.54722 1.55495 1.55495
 1.63731 1.64274 1.86225 1.93247 1.96202 1.96202 2.01461 2.01461 2.01469 2.08820
 2.34473 2.34473 2.42810 2.42810 2.43666 2.43666 2.45895 2.49389 2.49389 2.50311
 3.42764 3.42764 3.47018 3.58072 3.67409 4.10132 4.10132 7.72816
 ---------------------------------------------------------------------------
 VBM is at 444-th k-point with 7.51161 eV
 CBM is at 884-th k-point with 8.13226 eV
 Band gap is 0.62065 eV


           Ground-State Mulliken Net Atomic Charges

      Atom                 Charge (a.u.)          Spin (a.u.)
   --------------------------------------------------------
      1 Si               (0.000006,-0.000000)    (0.000000,0.000000)
      2 Si               (-0.000006,0.000000)    (0.000000,0.000000)
   --------------------------------------------------------
  Sum of atomic charges =     (-0.000000,-0.000000)
  Sum of spin   charges =       (0.000000,0.000000)



 Total job time:  316.00 s.
 Tue Sep  9 10:12:42 2025


        *************************************************************
        *                                                           *
        *  Thank you very much for using QCPBC. Have a nice day.    *
        *                                                           *
        *************************************************************

Running job 1 of 1
