                  Welcome to Q-Chem
           with Periodic Boundary Condition
     A Quantum Leap Into The Future Of Chemistry

 Adam Rettig, Xintian Feng, Meng-Fu Chen, Hieu Dinh, Stephen Quiton,
 Anton Ni, Paul J. Robinson, Jinghong Zhang, Joonho Lee

Contributors to earlier versions of Q-Chem not listed above:
 Evgeny Epifanovsky, Leo Cunha, Jerome F. Gonthier, Kuan-Yu Liu
 Input file: /n/netscratch/joonholee_lab/Lab/hieudinh//si_2_ccpvtz_omega_0.3_444.scratch20250909091531/si_2_ccpvtz_omega_0.3_444.0
 Scratch folder: /n/netscratch/joonholee_lab/Lab/hieudinh//si_2_ccpvtz_omega_0.3_444.scratch20250909091531
 Auxillary files located at: /n/holylabs/LABS/joonholee_lab/Lab/qchem_base/qcaux
 Q-Chem begins on Tue Sep  9 09:15:32 2025

 -------------------------------------------------------------
 User input:
 -------------------------------------------------------------
 $lattice
 3
 0.000000 5.130600 5.130600
 5.130600 0.000000 5.130600
 5.130600 5.130600 0.000000
 $end
 
 $unitcell
 ABSOLUTE
 0 1
 Si 0.000000 0.000000 0.000000
 Si 2.565300 2.565300 2.565300
 $end
 
 $rem
 jobtype = sp
 method = pbe
 scf_convergence = 5
 scf_guess = autosad
 scf_algorithm = diis_gdm
 basis = cc-pvtz
 aux_basis = cc-pvtz-jk
 input_bohr = true
 symmetry = false
 rsdf_print_level 1
 is_basis_uctr true
 
 mp_mesh = [4,4,4]
 
 integral_direct true
 bvk_cgto true
 
 thresh 14
 mem_total 1000000
 threads 32
 
 MAX_SCF_CYCLES 500
 madelung = false
 omega 0.3
 do_rij_bigmem true
 automate_g true
 print_level 10
 grid_type_xc 1
 
 thresh_1e2c_sp 1e-14
 thresh_2e3c_bra_ket_sep 1e-10
 thresh_g 1e-12
 $end
 
 -------------------------------------------------------------
 Running PBC job

 Requested Exchange Correlation Functionals: 
  DFT Exchange:  1.00000 pbe_x
  DFT Correlation:  1.00000 pbe_c
 using 32 threads for computing.
 ---------------------------------------------------------------
      Coordinates of Atoms in Central Unit Cell (Angstroms)
    I     Atom         X            Y            Z
 ---------------------------------------------------------------
    1      Si      0.000000     0.000000     0.000000
    2      Si      1.357498     1.357498     1.357498
 ---------------------------------------------------------------
 --------------------------------------------------
              Lattice Vectors (Angstroms)
              X            Y            Z
 --------------------------------------------------
   X       0.000000     2.714997     2.714997
   Y       2.714997     0.000000     2.714997
   Z       2.714997     2.714997     0.000000
 --------------------------------------------------
 --------------------------------------------------
       Reciprocal Lattice Vectors (Angstroms^-1)
              X            Y            Z
 --------------------------------------------------
   X      -1.157126     1.157126     1.157126
   Y       1.157126    -1.157126     1.157126
   Z       1.157126     1.157126    -1.157126
 --------------------------------------------------

 Single point calculation requested

 Hamiltonian contributions:
 List of terms in Hamiltonian: kpts_nn, kpts_kinetic, kpts_vnuc_df, kpts_xc, kpts_rij_bigmem

 K-Points calculation started.

 Basis set information about using solid harmonic (1) or Cartesian (0):
  si : D(1) D(1) F(1) 

 Basis set information about using solid harmonic (1) or Cartesian (0):
  si : D(1) D(1) D(1) D(1) D(1) D(1) D(1) D(1) D(1) F(1) F(1) F(1) G(1) 

 There are 68 basis functions in the central unit cell.
 Print atomic basis of atoms in the central unit cell:
 -------------------------------------------------------------
2 104 104 24

  0.00000000000000e+00  0.00000000000000e+00  0.00000000000000e+00
  2.56530000000000e+00  2.56530000000000e+00  2.56530000000000e+00

  2.54900000000000e+05
  3.81900000000000e+04
  8.69000000000000e+03
  2.46200000000000e+03
  8.04800000000000e+02
  2.91300000000000e+02
  1.13600000000000e+02
  4.67500000000000e+01
  1.98200000000000e+01
  7.70800000000000e+00
  3.34000000000000e+00
  2.54900000000000e+05
  3.81900000000000e+04
  8.69000000000000e+03
  8.04800000000000e+02
  2.91300000000000e+02
  1.13600000000000e+02
  4.67500000000000e+01
  1.98200000000000e+01
  7.70800000000000e+00
  3.34000000000000e+00
  1.40200000000000e+00
  2.54900000000000e+05
  3.81900000000000e+04
  8.69000000000000e+03
  2.91300000000000e+02
  1.13600000000000e+02
  4.67500000000000e+01
  1.98200000000000e+01
  7.70800000000000e+00
  3.34000000000000e+00
  1.40200000000000e+00
  2.07000000000000e-01
  4.38700000000000e-01
  7.94400000000000e-02
  4.81500000000000e+02
  1.13900000000000e+02
  3.62300000000000e+01
  1.33400000000000e+01
  5.25200000000000e+00
  2.12000000000000e+00
  1.13900000000000e+02
  3.62300000000000e+01
  1.33400000000000e+01
  5.25200000000000e+00
  2.12000000000000e+00
  2.52800000000000e-01
  8.56100000000000e-01
  7.88900000000000e-02
  4.81000000000000e-01
  1.59000000000000e-01
  3.36000000000000e-01
  2.54900000000000e+05
  3.81900000000000e+04
  8.69000000000000e+03
  2.46200000000000e+03
  8.04800000000000e+02
  2.91300000000000e+02
  1.13600000000000e+02
  4.67500000000000e+01
  1.98200000000000e+01
  7.70800000000000e+00
  3.34000000000000e+00
  2.54900000000000e+05
  3.81900000000000e+04
  8.69000000000000e+03
  8.04800000000000e+02
  2.91300000000000e+02
  1.13600000000000e+02
  4.67500000000000e+01
  1.98200000000000e+01
  7.70800000000000e+00
  3.34000000000000e+00
  1.40200000000000e+00
  2.54900000000000e+05
  3.81900000000000e+04
  8.69000000000000e+03
  2.91300000000000e+02
  1.13600000000000e+02
  4.67500000000000e+01
  1.98200000000000e+01
  7.70800000000000e+00
  3.34000000000000e+00
  1.40200000000000e+00
  2.07000000000000e-01
  4.38700000000000e-01
  7.94400000000000e-02
  4.81500000000000e+02
  1.13900000000000e+02
  3.62300000000000e+01
  1.33400000000000e+01
  5.25200000000000e+00
  2.12000000000000e+00
  1.13900000000000e+02
  3.62300000000000e+01
  1.33400000000000e+01
  5.25200000000000e+00
  2.12000000000000e+00
  2.52800000000000e-01
  8.56100000000000e-01
  7.88900000000000e-02
  4.81000000000000e-01
  1.59000000000000e-01
  3.36000000000000e-01

  5.06121931014315e-01
  9.46667895564849e-01
  1.63484840115776e+00
  2.64073594005923e+00
  3.97699155153283e+00
  5.40905960736848e+00
  6.15868961670172e+00
  4.99170532032548e+00
  2.02857976424901e+00
  1.82839763527352e-01
 -1.25640690342342e-02
  1.10808750449959e-03
  1.94415577975663e-03
  2.70023730632789e-03
 -1.69098200112149e-02
 -8.66890848691569e-02
 -2.76125946359713e-01
 -6.25588788447604e-01
 -6.61701688370681e-01
  3.11114524237060e-01
  9.56658906468163e-01
  4.36891217824705e-01
  1.05873342256663e-04
  1.52975802748887e-04
  4.28394863673135e-04
 -4.94070443505333e-03
 -1.17298035021286e-02
 -2.95023896611804e-02
 -1.71455066569284e-02
  3.00007138114875e-03
 -6.19326651465540e-02
 -2.59989143457351e-01
  2.47187614608056e-01
  3.84180942836044e-01
  1.06644759418552e-01
  6.70509611941243e+00
  8.84487660481054e+00
  9.82415782069442e+00
  8.40902910540583e+00
  4.80448757555754e+00
  1.55989499299286e+00
 -1.15889775037608e-01
 -5.13312293701512e-02
 -2.64771097977823e-01
 -6.52512718105956e-02
 -1.94608613796415e-01
  2.59380435893970e-01
  1.17380433533106e+00
  5.95960578383022e-02
  4.57260134599596e-01
  6.58952976069849e-02
  1.26537084505476e-01
  5.06121931014315e-01
  9.46667895564849e-01
  1.63484840115776e+00
  2.64073594005923e+00
  3.97699155153283e+00
  5.40905960736848e+00
  6.15868961670172e+00
  4.99170532032548e+00
  2.02857976424901e+00
  1.82839763527352e-01
 -1.25640690342342e-02
  1.10808750449959e-03
  1.94415577975663e-03
  2.70023730632789e-03
 -1.69098200112149e-02
 -8.66890848691569e-02
 -2.76125946359713e-01
 -6.25588788447604e-01
 -6.61701688370681e-01
  3.11114524237060e-01
  9.56658906468163e-01
  4.36891217824705e-01
  1.05873342256663e-04
  1.52975802748887e-04
  4.28394863673135e-04
 -4.94070443505333e-03
 -1.17298035021286e-02
 -2.95023896611804e-02
 -1.71455066569284e-02
  3.00007138114875e-03
 -6.19326651465540e-02
 -2.59989143457351e-01
  2.47187614608056e-01
  3.84180942836044e-01
  1.06644759418552e-01
  6.70509611941243e+00
  8.84487660481054e+00
  9.82415782069442e+00
  8.40902910540583e+00
  4.80448757555754e+00
  1.55989499299286e+00
 -1.15889775037608e-01
 -5.13312293701512e-02
 -2.64771097977823e-01
 -6.52512718105956e-02
 -1.94608613796415e-01
  2.59380435893970e-01
  1.17380433533106e+00
  5.95960578383022e-02
  4.57260134599596e-01
  6.58952976069849e-02
  1.26537084505476e-01

0 0 0 0 1 1 1
0 0 
11 0

0 1 1 11 1 1 1
11 0 
11 0

0 2 2 22 1 1 1
22 0 
11 0

0 3 3 33 1 1 1
33 0 
1 0

0 4 4 34 1 1 1
34 0 
1 0

0 5 5 35 1 3 3
35 1 
6 0

0 8 8 41 1 3 3
41 1 
6 0

0 11 11 47 1 3 3
47 1 
1 0

0 14 14 48 1 3 3
48 1 
1 0

0 17 17 49 1 5 6
49 2 
1 1

0 22 22 50 1 5 6
50 2 
1 1

0 27 27 51 1 7 10
51 3 
1 1

1 34 34 52 1 1 1
52 0 
11 0

1 35 35 63 1 1 1
63 0 
11 0

1 36 36 74 1 1 1
74 0 
11 0

1 37 37 85 1 1 1
85 0 
1 0

1 38 38 86 1 1 1
86 0 
1 0

1 39 39 87 1 3 3
87 1 
6 0

1 42 42 93 1 3 3
93 1 
6 0

1 45 45 99 1 3 3
99 1 
1 0

1 48 48 100 1 3 3
100 1 
1 0

1 51 51 101 1 5 6
101 2 
1 1

1 56 56 102 1 5 6
102 2 
1 1

1 61 61 103 1 7 10
103 3 
1 1

 -------------------------------------------------------------
 Allocate 263208 B from available memory: 1048576000000 B
 There are 1331 image cells after screening.
 There are 1353 image cells for CGTO evaluation after screening.
 Real-Space grid for FFT initialized based on kinetic energy cutoff (eV) = 500.0
 Real-Space grid for FFT: (10,10,10)
 There are 9261 real-space grid points.
 There are 64 batches of real-space grid points. 
 Size of each grid batch is around 128
 Grid for AFT initialized based on kinetic energy cutoff (eV) = 500.0
 Real-Space grid for AFT: (10,10,10)
 There are 9261 real-space grid points.

 There are 5456 atom-centered grid points.

 Spacegroup symmetry group: Fd-3m
 Reducing spacegroup symmetry to symmorphic group: F -4 3 m
 Monkhorst-Pack mesh is [4,4,4]
 There are 64 k points.
kpoints in Bohr
-0.1530811530 -0.1530811530 -0.1530811530
-0.0000000000 -0.0000000000 -0.3061623059
0.1530811530 0.1530811530 -0.4592434589
0.3061623059 0.3061623059 -0.6123246119
-0.0000000000 -0.3061623059 0.0000000000
0.1530811530 -0.1530811530 -0.1530811530
0.3061623059 0.0000000000 -0.3061623059
0.4592434589 0.1530811530 -0.4592434589
0.1530811530 -0.4592434589 0.1530811530
0.3061623059 -0.3061623059 0.0000000000
0.4592434589 -0.1530811530 -0.1530811530
0.6123246119 0.0000000000 -0.3061623059
0.3061623059 -0.6123246119 0.3061623059
0.4592434589 -0.4592434589 0.1530811530
0.6123246119 -0.3061623059 0.0000000000
0.7654057648 -0.1530811530 -0.1530811530
-0.3061623059 -0.0000000000 -0.0000000000
-0.1530811530 0.1530811530 -0.1530811530
0.0000000000 0.3061623059 -0.3061623059
0.1530811530 0.4592434589 -0.4592434589
-0.1530811530 -0.1530811530 0.1530811530
0.0000000000 0.0000000000 0.0000000000
0.1530811530 0.1530811530 -0.1530811530
0.3061623059 0.3061623059 -0.3061623059
-0.0000000000 -0.3061623059 0.3061623059
0.1530811530 -0.1530811530 0.1530811530
0.3061623059 0.0000000000 0.0000000000
0.4592434589 0.1530811530 -0.1530811530
0.1530811530 -0.4592434589 0.4592434589
0.3061623059 -0.3061623059 0.3061623059
0.4592434589 -0.1530811530 0.1530811530
0.6123246119 0.0000000000 0.0000000000
-0.4592434589 0.1530811530 0.1530811530
-0.3061623059 0.3061623059 -0.0000000000
-0.1530811530 0.4592434589 -0.1530811530
0.0000000000 0.6123246119 -0.3061623059
-0.3061623059 0.0000000000 0.3061623059
-0.1530811530 0.1530811530 0.1530811530
0.0000000000 0.3061623059 0.0000000000
0.1530811530 0.4592434589 -0.1530811530
-0.1530811530 -0.1530811530 0.4592434589
0.0000000000 0.0000000000 0.3061623059
0.1530811530 0.1530811530 0.1530811530
0.3061623059 0.3061623059 0.0000000000
0.0000000000 -0.3061623059 0.6123246119
0.1530811530 -0.1530811530 0.4592434589
0.3061623059 0.0000000000 0.3061623059
0.4592434589 0.1530811530 0.1530811530
-0.6123246119 0.3061623059 0.3061623059
-0.4592434589 0.4592434589 0.1530811530
-0.3061623059 0.6123246119 -0.0000000000
-0.1530811530 0.7654057648 -0.1530811530
-0.4592434589 0.1530811530 0.4592434589
-0.3061623059 0.3061623059 0.3061623059
-0.1530811530 0.4592434589 0.1530811530
0.0000000000 0.6123246119 0.0000000000
-0.3061623059 0.0000000000 0.6123246119
-0.1530811530 0.1530811530 0.4592434589
0.0000000000 0.3061623059 0.3061623059
0.1530811530 0.4592434589 0.1530811530
-0.1530811530 -0.1530811530 0.7654057648
0.0000000000 0.0000000000 0.6123246119
0.1530811530 0.1530811530 0.4592434589
0.3061623059 0.3061623059 0.3061623059
 There are 14 alpha and 14 beta electrons
 Start computing overlap matrix
 Allocate 4734976 B from available memory: 1048575736800 B
 Time for computing overlap matrix: 1.7310000000 s
 ====== Initialize compute kernels for all-electron RI-J (kpts) ====== 
 ========================================================== 
 Range-separated parameter omega        = 0.299999999999999989
 Threshold for 1e2c shellpair           = 0.000000000000010000
 Threshold for 2e2c SR integral         = 0.000000000000000001
 Threshold for 2e3c SR integral         = 0.000000000100000000
 Threshold for AFT G-space screening is = 0.000000000001000000
 The exponent cutoff for C/D classification (omega2 / 2) is  = 0.044999999999999998
 ========================================================== 
 === Post process the basis set for RI calculation (exp_cutoff = 0.044999999999999998 ) === 
nshells_b1 before uncontraction = 24
nshells_b1 after uncontraction = 24
nshells_baux before uncontraction = 74
nshells_baux after uncontraction = 74
===============================================
nbsf total   = 68
nbsf compact = 68
nbsf diffuse = 0
naux total   = 242
naux compact = 242
naux diffuse = 0
nshells_bnuc = 2

 Number of unique atoms is 1
 Unique atom #0 (si) has 12 shells.

Shell 0 to 11 belongs to atom si
Shell 12 to 23 belongs to atom si

 Number of unique atom is 1
 Unique atom #0 (si) has 37 auxiliary shells.

Auxiliary Shell 0 to 36 belongs to atom si
Auxiliary Shell 37 to 73 belongs to atom si

================= Automatically determine grid size for reciprocal space summation =================
 Range-separated parameter = 0.30000000000000 and G-space screening threshold = 0.00000000000100
The number of grid points along each axis dimension is (4, 4, 4)
Total number of grid points = 729

Use nonortho shellpair for diffuse density
======== Initializing relevant kernel for RIJ (CC type) ========
There are 299 shellpairs in the reference unit cell
There are 2707 images and we expect to have 809393 in total
There are 21144 shellpairs in the lattice sum after screening
****** AFT -> SR ******
Maximum bra distance cutoff is 26.000000000000
Maximum bra ket distance cutoff is 36.613925668604
Maximum bra ket screening distance is 28.531250000000
Number of auxiliary image is 1633
There are 299 shellpairs in the reference unit cell
There are 695 images and we expect to have 207805 in total
There are 21144 shellpairs in the lattice sum after screening
Available memory per thread for 2e3c calculation is 32.767843807000Gb
Finish initializing 2e3c SR with the lattice sum!
=================================================
======== Initialize the SR component for Vnuc (CC type) ========
Maximum bra distance cutoff is 26.000000000000
Maximum bra ket distance cutoff is 30.465105393952
Maximum bra ket screening distance is 22.160673009729
Number of auxiliary image is 1031
There are 299 shellpairs in the reference unit cell
There are 695 images and we expect to have 207805 in total
There are 21144 shellpairs in the lattice sum after screening
Available memory per thread for 2e3c calculation is 32.767843807000Gb
Finish initializing 2e3c SR with the lattice sum!
=================================================
 Aufbau occupation scheme, occupation determined by eigenvalue
 == 0-th k-point nmo = 68 (-0.15308,-0.15308,-0.15308) ==
 == 1-th k-point nmo = 68 (-0.00000,-0.00000,-0.30616) ==
 == 2-th k-point nmo = 68 (0.15308,0.15308,-0.45924) ==
 == 3-th k-point nmo = 68 (0.30616,0.30616,-0.61232) ==
 == 4-th k-point nmo = 68 (-0.00000,-0.30616,0.00000) ==
 == 5-th k-point nmo = 68 (0.15308,-0.15308,-0.15308) ==
 == 6-th k-point nmo = 68 (0.30616,0.00000,-0.30616) ==
 == 7-th k-point nmo = 68 (0.45924,0.15308,-0.45924) ==
 == 8-th k-point nmo = 68 (0.15308,-0.45924,0.15308) ==
 == 9-th k-point nmo = 68 (0.30616,-0.30616,0.00000) ==
 == 10-th k-point nmo = 68 (0.45924,-0.15308,-0.15308) ==
 == 11-th k-point nmo = 68 (0.61232,0.00000,-0.30616) ==
 == 12-th k-point nmo = 68 (0.30616,-0.61232,0.30616) ==
 == 13-th k-point nmo = 68 (0.45924,-0.45924,0.15308) ==
 == 14-th k-point nmo = 68 (0.61232,-0.30616,0.00000) ==
 == 15-th k-point nmo = 68 (0.76541,-0.15308,-0.15308) ==
 == 16-th k-point nmo = 68 (-0.30616,-0.00000,-0.00000) ==
 == 17-th k-point nmo = 68 (-0.15308,0.15308,-0.15308) ==
 == 18-th k-point nmo = 68 (0.00000,0.30616,-0.30616) ==
 == 19-th k-point nmo = 68 (0.15308,0.45924,-0.45924) ==
 == 20-th k-point nmo = 68 (-0.15308,-0.15308,0.15308) ==
 == 21-th k-point nmo = 68 (0.00000,0.00000,0.00000) ==
 == 22-th k-point nmo = 68 (0.15308,0.15308,-0.15308) ==
 == 23-th k-point nmo = 68 (0.30616,0.30616,-0.30616) ==
 == 24-th k-point nmo = 68 (-0.00000,-0.30616,0.30616) ==
 == 25-th k-point nmo = 68 (0.15308,-0.15308,0.15308) ==
 == 26-th k-point nmo = 68 (0.30616,0.00000,0.00000) ==
 == 27-th k-point nmo = 68 (0.45924,0.15308,-0.15308) ==
 == 28-th k-point nmo = 68 (0.15308,-0.45924,0.45924) ==
 == 29-th k-point nmo = 68 (0.30616,-0.30616,0.30616) ==
 == 30-th k-point nmo = 68 (0.45924,-0.15308,0.15308) ==
 == 31-th k-point nmo = 68 (0.61232,0.00000,0.00000) ==
 == 32-th k-point nmo = 68 (-0.45924,0.15308,0.15308) ==
 == 33-th k-point nmo = 68 (-0.30616,0.30616,-0.00000) ==
 == 34-th k-point nmo = 68 (-0.15308,0.45924,-0.15308) ==
 == 35-th k-point nmo = 68 (0.00000,0.61232,-0.30616) ==
 == 36-th k-point nmo = 68 (-0.30616,0.00000,0.30616) ==
 == 37-th k-point nmo = 68 (-0.15308,0.15308,0.15308) ==
 == 38-th k-point nmo = 68 (0.00000,0.30616,0.00000) ==
 == 39-th k-point nmo = 68 (0.15308,0.45924,-0.15308) ==
 == 40-th k-point nmo = 68 (-0.15308,-0.15308,0.45924) ==
 == 41-th k-point nmo = 68 (0.00000,0.00000,0.30616) ==
 == 42-th k-point nmo = 68 (0.15308,0.15308,0.15308) ==
 == 43-th k-point nmo = 68 (0.30616,0.30616,0.00000) ==
 == 44-th k-point nmo = 68 (0.00000,-0.30616,0.61232) ==
 == 45-th k-point nmo = 68 (0.15308,-0.15308,0.45924) ==
 == 46-th k-point nmo = 68 (0.30616,0.00000,0.30616) ==
 == 47-th k-point nmo = 68 (0.45924,0.15308,0.15308) ==
 == 48-th k-point nmo = 68 (-0.61232,0.30616,0.30616) ==
 == 49-th k-point nmo = 68 (-0.45924,0.45924,0.15308) ==
 == 50-th k-point nmo = 68 (-0.30616,0.61232,-0.00000) ==
 == 51-th k-point nmo = 68 (-0.15308,0.76541,-0.15308) ==
 == 52-th k-point nmo = 68 (-0.45924,0.15308,0.45924) ==
 == 53-th k-point nmo = 68 (-0.30616,0.30616,0.30616) ==
 == 54-th k-point nmo = 68 (-0.15308,0.45924,0.15308) ==
 == 55-th k-point nmo = 68 (0.00000,0.61232,0.00000) ==
 == 56-th k-point nmo = 68 (-0.30616,0.00000,0.61232) ==
 == 57-th k-point nmo = 68 (-0.15308,0.15308,0.45924) ==
 == 58-th k-point nmo = 68 (0.00000,0.30616,0.30616) ==
 == 59-th k-point nmo = 68 (0.15308,0.45924,0.15308) ==
 == 60-th k-point nmo = 68 (-0.15308,-0.15308,0.76541) ==
 == 61-th k-point nmo = 68 (0.00000,0.00000,0.61232) ==
 == 62-th k-point nmo = 68 (0.15308,0.15308,0.45924) ==
 == 63-th k-point nmo = 68 (0.30616,0.30616,0.30616) ==

 Generate autoSAD guess
backing up fragment data
Atom # 0: si, charge: 0, multiplicity: 3.000000
writing autosad to fragment context
Settings for isolated fragments: 
  frgm_gamma: TRUE
  frgm_center: FALSE

    Running SCF for isolated atom #0
    Fragment Input file: /n/netscratch/joonholee_lab/Lab/hieudinh//si_2_ccpvtz_omega_0.3_444.scratch20250909091531/autosad_frgmt_0/frgmt_input.in
    Fragment Output file: /n/netscratch/joonholee_lab/Lab/hieudinh//si_2_ccpvtz_omega_0.3_444.scratch20250909091531/autosad_frgmt_0/frgmt_job.out
    Fragment job begins at Tue Sep  9 09:15:35 2025

 Integrated density by DFT XC:
   Numerical integral  =    13.999999324657
   Relative error      =     0.0000048239 %
Final energy components:
 DFT Correlation            Energy =  -0.48419291960634
 DFT Exchange               Energy = -20.15457765326661
 Kinetic (alpha)            Energy = 145.16532593944433
 Kinetic (beta)             Energy = 143.17442658177222
 Nuclear Attraction (alpha) Energy = -351.25548439806875
 Nuclear Attraction (beta)  Energy = -337.63206466477931
 Nuclear Repulsion          Energy =   0.00000000000000
 SEOQF                      Energy =   0.00000000065999
 Total Coulomb              Energy = 131.95997984351322
----------------------------------------------
    SCF Energy: -289.2265872703
   Total fragment job time:  0.55 s.
restoring fragment data

 ------------------------------------------------------------------------
 Allocate 15590400 B from available memory: 1048571001824 B
 Time for generating SCF guess: 0.57 s

 Allocate 78392 B from available memory: 1048555411424 B
 Selected algorithms for each term:
  kpts_kinetic -> @0x146365e08680
  kpts_nn -> @0x146365e08800
  kpts_rij_bigmem -> @0x146365e083e0
  kpts_vnuc_df -> @0x146365e08380
  kpts_xc -> @0x146365e082c0
 Time for computing kinetic matrix is 1.98 s
Start calculating Vnuc CC type!
 Time for computing nuclear attraction matrix is 2.22 s
Compute (P|Q) and use solve on the fly!
Maximum distance between P and Q is 36.45654200218807
Number of images for (P|Qn) is 1633
 Time for computing 2e2c SR integral is 0.14 s
Maximum dynamic memory per thread for 2e3c SR integrals: 0.047 GiB
Batch size for basis function pair is 2451 out of 2451
 === bvk cell = 0 has 100.000 % of the basis function pairs === 
 === bvk cell = 1 has 94.492 % of the basis function pairs === 
 === bvk cell = 2 has 60.547 % of the basis function pairs === 
 === bvk cell = 3 has 92.738 % of the basis function pairs === 
 === bvk cell = 4 has 94.492 % of the basis function pairs === 
 === bvk cell = 5 has 66.463 % of the basis function pairs === 
 === bvk cell = 6 has 59.812 % of the basis function pairs === 
 === bvk cell = 7 has 95.675 % of the basis function pairs === 
 === bvk cell = 8 has 60.547 % of the basis function pairs === 
 === bvk cell = 9 has 59.812 % of the basis function pairs === 
 === bvk cell = 10 has 41.820 % of the basis function pairs === 
 === bvk cell = 11 has 64.586 % of the basis function pairs === 
 === bvk cell = 12 has 92.738 % of the basis function pairs === 
 === bvk cell = 13 has 95.675 % of the basis function pairs === 
 === bvk cell = 14 has 64.586 % of the basis function pairs === 
 === bvk cell = 15 has 58.752 % of the basis function pairs === 
 === bvk cell = 16 has 94.492 % of the basis function pairs === 
 === bvk cell = 17 has 66.463 % of the basis function pairs === 
 === bvk cell = 18 has 59.812 % of the basis function pairs === 
 === bvk cell = 19 has 95.675 % of the basis function pairs === 
 === bvk cell = 20 has 66.463 % of the basis function pairs === 
 === bvk cell = 21 has 34.109 % of the basis function pairs === 
 === bvk cell = 22 has 60.588 % of the basis function pairs === 
 === bvk cell = 23 has 83.476 % of the basis function pairs === 
 === bvk cell = 24 has 59.812 % of the basis function pairs === 
 === bvk cell = 25 has 60.588 % of the basis function pairs === 
 === bvk cell = 26 has 31.089 % of the basis function pairs === 
 === bvk cell = 27 has 41.412 % of the basis function pairs === 
 === bvk cell = 28 has 95.675 % of the basis function pairs === 
 === bvk cell = 29 has 83.476 % of the basis function pairs === 
 === bvk cell = 30 has 41.412 % of the basis function pairs === 
 === bvk cell = 31 has 78.254 % of the basis function pairs === 
 === bvk cell = 32 has 60.547 % of the basis function pairs === 
 === bvk cell = 33 has 59.812 % of the basis function pairs === 
 === bvk cell = 34 has 41.820 % of the basis function pairs === 
 === bvk cell = 35 has 64.586 % of the basis function pairs === 
 === bvk cell = 36 has 59.812 % of the basis function pairs === 
 === bvk cell = 37 has 60.588 % of the basis function pairs === 
 === bvk cell = 38 has 31.089 % of the basis function pairs === 
 === bvk cell = 39 has 41.412 % of the basis function pairs === 
 === bvk cell = 40 has 41.820 % of the basis function pairs === 
 === bvk cell = 41 has 31.089 % of the basis function pairs === 
 === bvk cell = 42 has 19.706 % of the basis function pairs === 
 === bvk cell = 43 has 28.641 % of the basis function pairs === 
 === bvk cell = 44 has 64.586 % of the basis function pairs === 
 === bvk cell = 45 has 41.412 % of the basis function pairs === 
 === bvk cell = 46 has 28.641 % of the basis function pairs === 
 === bvk cell = 47 has 60.588 % of the basis function pairs === 
 === bvk cell = 48 has 92.738 % of the basis function pairs === 
 === bvk cell = 49 has 95.675 % of the basis function pairs === 
 === bvk cell = 50 has 64.586 % of the basis function pairs === 
 === bvk cell = 51 has 58.752 % of the basis function pairs === 
 === bvk cell = 52 has 95.675 % of the basis function pairs === 
 === bvk cell = 53 has 83.476 % of the basis function pairs === 
 === bvk cell = 54 has 41.412 % of the basis function pairs === 
 === bvk cell = 55 has 78.254 % of the basis function pairs === 
 === bvk cell = 56 has 64.586 % of the basis function pairs === 
 === bvk cell = 57 has 41.412 % of the basis function pairs === 
 === bvk cell = 58 has 28.641 % of the basis function pairs === 
 === bvk cell = 59 has 60.588 % of the basis function pairs === 
 === bvk cell = 60 has 58.752 % of the basis function pairs === 
 === bvk cell = 61 has 78.254 % of the basis function pairs === 
 === bvk cell = 62 has 60.588 % of the basis function pairs === 
 === bvk cell = 63 has 31.620 % of the basis function pairs === 
Static memory requirement for 2e3c SR integrals: 0.178 GB
There are 1 munu batches for computing 2e3c SR integrals with latsum
There are 4 Q batches for computing 2e3c SR integrals with latsum
 Time for computing 2e3c SR integral (CC) is 3.77 s
 Time for RI-J this SCF iteration is 4.05 s
 Time for RI-J this SCF iteration is 0.10 s
 ----------------------------------------------
 Guess energy: -578.7760180388
 ----------------------------------------------
 Guess energy components:
 DFT Correlation    Energy =  -1.09301180420485
 DFT Exchange       Energy = -40.58906840626737
 Kinetic            Energy = 577.57840209352685
 Nuclear Attraction Energy = -1186.46105882285156
 Nuclear Repulsion  Energy = -102.89365928466421
 Total Coulomb      Energy = 174.68237818562130
 ----------------------------------------------
  Cycle       Energy         DIIS error
 ----------------------------------------------
 Time for RI-J this SCF iteration is 0.10 s
    1    -578.7809689467      1.71e-03  
 Energy components after cycle 1:
 DFT Correlation    Energy =  -1.09701980327684
 DFT Exchange       Energy = -40.50000577699748
 Kinetic            Energy = 576.72198465224642
 Nuclear Attraction Energy = -1184.65185856889457
 Nuclear Repulsion  Energy = -102.89365928466421
 Total Coulomb      Energy = 173.63958983492540
    2    -578.7809689467      9.65e-04  
 Energy components after cycle 2:
 DFT Correlation    Energy =  -1.09701980327684
 DFT Exchange       Energy = -40.50000577699748
 Kinetic            Energy = 576.72198465224642
 Nuclear Attraction Energy = -1184.65185856889457
 Nuclear Repulsion  Energy = -102.89365928466421
 Total Coulomb      Energy = 173.63958983492540
 ----------------------------------------------
  Cycle       Energy        RMS Gradient
 ----------------------------------------------
 Time for RI-J this SCF iteration is 0.10 s
    1    -578.7814850033      2.09e-02   Descent step
 Energy components after cycle 1:
 DFT Correlation    Energy =  -1.09596023561592
 DFT Exchange       Energy = -40.54599283304186
 Kinetic            Energy = 577.26014136473202
 Nuclear Attraction Energy = -1185.61867804526082
 Nuclear Repulsion  Energy = -102.89365928466421
 Total Coulomb      Energy = 174.11266403051059
 Time for RI-J this SCF iteration is 0.10 s
    2    -578.7820171374      2.13e-02   Normal BFGS step
 Energy components after cycle 2:
 DFT Correlation    Energy =  -1.09606897354223
 DFT Exchange       Energy = -40.53511376615162
 Kinetic            Energy = 577.12010397335644
 Nuclear Attraction Energy = -1185.38688085860963
 Nuclear Repulsion  Energy = -102.89365928466421
 Total Coulomb      Energy = 174.00960177222214
 Time for RI-J this SCF iteration is 0.10 s
    3    -578.7820348819      3.73e-03   Normal BFGS step
 Energy components after cycle 3:
 DFT Correlation    Energy =  -1.09623958542189
 DFT Exchange       Energy = -40.52700122444419
 Kinetic            Energy = 577.02394183614524
 Nuclear Attraction Energy = -1185.21650277767571
 Nuclear Repulsion  Energy = -102.89365928466421
 Total Coulomb      Energy = 173.92742615417257
 Time for RI-J this SCF iteration is 0.10 s
    4    -578.7820448246      2.03e-03   Normal BFGS step
 Energy components after cycle 4:
 DFT Correlation    Energy =  -1.09618574094483
 DFT Exchange       Energy = -40.53083861978902
 Kinetic            Energy = 577.07207376690485
 Nuclear Attraction Energy = -1185.29825437761338
 Nuclear Repulsion  Energy = -102.89365928466421
 Total Coulomb      Energy = 173.96481943146182
 Time for RI-J this SCF iteration is 0.15 s
    5    -578.7820448439      8.49e-05   Normal BFGS step
 Energy components after cycle 5:
 DFT Correlation    Energy =  -1.09617884784926
 DFT Exchange       Energy = -40.53079864170952
 Kinetic            Energy = 577.07086476274947
 Nuclear Attraction Energy = -1185.29714071454941
 Nuclear Repulsion  Energy = -102.89365928466421
 Total Coulomb      Energy = 173.96486788212496
 Time for RI-J this SCF iteration is 0.10 s
    6    -578.7820448472      3.27e-05   Normal BFGS step
 Energy components after cycle 6:
 DFT Correlation    Energy =  -1.09618065581464
 DFT Exchange       Energy = -40.53076956088123
 Kinetic            Energy = 577.07063407607552
 Nuclear Attraction Energy = -1185.29657312305835
 Nuclear Repulsion  Energy = -102.89365928466421
 Total Coulomb      Energy = 173.96450370111995
 Time for RI-J this SCF iteration is 0.10 s
    7    -578.7820448473      4.90e-06   Normal BFGS step
 Energy components after cycle 7:
 DFT Correlation    Energy =  -1.09618092442613
 DFT Exchange       Energy = -40.53078066843277
 Kinetic            Energy = 577.07081376963106
 Nuclear Attraction Energy = -1185.29682483571492
 Nuclear Repulsion  Energy = -102.89365928466421
 Total Coulomb      Energy = 173.96458709633075
    7    -578.7820448473      4.90e-06  Convergence criterion met
 ----------------------------------------------
 Final energy components:
 DFT Correlation    Energy =  -1.09618092442613
 DFT Exchange       Energy = -40.53078066843277
 Kinetic            Energy = 577.07081376963106
 Nuclear Attraction Energy = -1185.29682483571492
 Nuclear Repulsion  Energy = -102.89365928466421
 Total Coulomb      Energy = 173.96458709633075
 ----------------------------------------------
 Final energy is -578.7820448473

 SCF time:   CPU 779.55s  wall 28.00s 
 Total wall time for computing Kinetic: 0.00 s (10)
 Total wall time for computing RIJ-BIGMEM: 5.00 s (10)
 Total wall time for computing RSDF Vnuc: 0.01 s (10)
 Total wall time for computing DFT XC: 12.77 s (10)
 ---------------------------------------------------------------------------
                        Orbital Energies (a.u.)
 ---------------------------------------------------------------------------
 == 0-th k-point (-0.15308,-0.15308,-0.15308) occupation: 14==
 -64.98961 -64.98955 -4.61907 -4.61885 -3.02982 -3.02982 -3.02974 -3.02920 -3.02915 -3.02915
 -0.13349 0.13239 0.24879 0.24879 0.35361 0.40786 0.40786 0.53286 0.55193 0.55193
 0.62271 0.71704 0.83878 0.83878 0.96948 0.96948 0.97344 1.04849 1.22307 1.22307
 1.29639 1.29639 1.35835 1.39649 1.44685 1.55267 1.55267 1.58956 1.58956 1.61912
 1.61912 1.77833 1.78367 1.78367 1.90267 1.96569 1.98160 1.98160 1.98667 2.06868
 2.12100 2.12100 2.27310 2.27310 2.29404 2.33329 2.33329 2.49882 2.61416 2.61416
 3.33355 3.82510 3.82654 3.82654 4.03282 4.03282 4.35267 7.65578
 == 1-th k-point (-0.00000,-0.00000,-0.30616) occupation: 14==
 -64.98958 -64.98957 -4.61907 -4.61886 -3.02985 -3.02985 -3.02968 -3.02926 -3.02913 -3.02913
 -0.12312 0.14833 0.20663 0.20663 0.31962 0.39517 0.49213 0.49213 0.57947 0.61738
 0.69827 0.77732 0.77732 0.80223 0.94193 0.94193 0.97617 1.05348 1.10247 1.31013
 1.32064 1.33534 1.33534 1.40302 1.40302 1.45988 1.46207 1.63829 1.63829 1.64207
 1.74134 1.74134 1.75951 1.78139 1.88237 1.98229 1.98229 1.98249 2.05075 2.05075
 2.06636 2.10814 2.15260 2.22769 2.30482 2.30482 2.46125 2.56412 2.56412 2.72452
 3.48108 3.72460 3.72461 3.97699 4.28277 4.28277 5.26732 6.01451
 == 2-th k-point (0.15308,0.15308,-0.45924) occupation: 14==
 -64.98961 -64.98958 -4.61901 -4.61891 -3.02984 -3.02984 -3.02959 -3.02933 -3.02910 -3.02908
 -0.06277 0.04221 0.14601 0.19477 0.33474 0.44402 0.49130 0.49913 0.65797 0.67743
 0.73896 0.75489 0.76763 0.90947 0.96155 0.98144 1.02631 1.02736 1.04502 1.16570
 1.19040 1.24925 1.26161 1.39622 1.43909 1.46629 1.47874 1.52611 1.62545 1.68921
 1.69979 1.72850 1.80659 1.81757 1.88046 1.94970 2.00599 2.01943 2.10213 2.10858
 2.18319 2.25916 2.30357 2.36506 2.39850 2.40267 2.42435 2.52854 2.57670 2.69191
 3.17746 3.32472 3.55825 3.73746 3.93024 3.98065 5.72110 7.84935
 == 3-th k-point (0.30616,0.30616,-0.61232) occupation: 14==
 -64.98961 -64.98960 -4.61904 -4.61889 -3.02982 -3.02982 -3.02965 -3.02928 -3.02912 -3.02909
 -0.08764 0.07557 0.13778 0.22746 0.36918 0.45521 0.47021 0.50443 0.52478 0.63716
 0.74868 0.77508 0.78213 0.91530 0.93279 0.93449 0.98639 1.09237 1.18667 1.19787
 1.24465 1.25558 1.31719 1.38572 1.39280 1.39816 1.50355 1.61504 1.62467 1.62849
 1.71474 1.74475 1.75952 1.77350 1.90605 1.92107 1.94581 2.05238 2.12434 2.15182
 2.15563 2.19019 2.29614 2.35472 2.36336 2.40605 2.50343 2.58540 2.60062 2.69545
 2.89143 3.41964 3.49286 3.87302 3.94734 4.04403 6.78048 7.55366
 == 4-th k-point (-0.00000,-0.30616,0.00000) occupation: 14==
 -64.98958 -64.98957 -4.61907 -4.61886 -3.02985 -3.02985 -3.02968 -3.02926 -3.02913 -3.02913
 -0.12312 0.14833 0.20663 0.20663 0.31962 0.39517 0.49213 0.49213 0.57947 0.61738
 0.69827 0.77732 0.77732 0.80223 0.94193 0.94193 0.97617 1.05348 1.10247 1.31013
 1.32064 1.33534 1.33534 1.40302 1.40302 1.45988 1.46207 1.63829 1.63829 1.64207
 1.74134 1.74134 1.75951 1.78139 1.88237 1.98229 1.98229 1.98249 2.05075 2.05075
 2.06636 2.10814 2.15260 2.22769 2.30482 2.30482 2.46125 2.56412 2.56412 2.72452
 3.48108 3.72460 3.72461 3.97699 4.28277 4.28277 5.26732 6.01451
 == 5-th k-point (0.15308,-0.15308,-0.15308) occupation: 14==
 -64.98961 -64.98955 -4.61907 -4.61885 -3.02982 -3.02982 -3.02974 -3.02920 -3.02915 -3.02915
 -0.13349 0.13239 0.24879 0.24879 0.35361 0.40786 0.40786 0.53286 0.55193 0.55193
 0.62271 0.71704 0.83878 0.83878 0.96948 0.96948 0.97344 1.04849 1.22307 1.22307
 1.29639 1.29639 1.35835 1.39649 1.44685 1.55267 1.55267 1.58956 1.58956 1.61912
 1.61912 1.77833 1.78367 1.78367 1.90267 1.96569 1.98160 1.98160 1.98667 2.06868
 2.12100 2.12100 2.27310 2.27310 2.29404 2.33329 2.33329 2.49882 2.61416 2.61416
 3.33355 3.82510 3.82654 3.82654 4.03282 4.03282 4.35267 7.65578
 == 6-th k-point (0.30616,0.00000,-0.30616) occupation: 14==
 -64.98961 -64.98960 -4.61904 -4.61889 -3.02982 -3.02982 -3.02965 -3.02928 -3.02912 -3.02909
 -0.08764 0.07557 0.13778 0.22746 0.36918 0.45521 0.47021 0.50443 0.52478 0.63716
 0.74868 0.77508 0.78213 0.91530 0.93279 0.93449 0.98639 1.09237 1.18667 1.19787
 1.24465 1.25558 1.31719 1.38572 1.39280 1.39816 1.50355 1.61504 1.62467 1.62849
 1.71474 1.74475 1.75952 1.77350 1.90605 1.92107 1.94581 2.05238 2.12434 2.15182
 2.15563 2.19019 2.29614 2.35472 2.36336 2.40605 2.50343 2.58540 2.60062 2.69545
 2.89143 3.41964 3.49286 3.87302 3.94734 4.04403 6.78048 7.55366
 == 7-th k-point (0.45924,0.15308,-0.45924) occupation: 14==
 -64.98961 -64.98958 -4.61901 -4.61891 -3.02984 -3.02984 -3.02959 -3.02933 -3.02910 -3.02908
 -0.06277 0.04221 0.14601 0.19477 0.33474 0.44402 0.49130 0.49913 0.65797 0.67743
 0.73896 0.75489 0.76763 0.90947 0.96155 0.98144 1.02631 1.02736 1.04502 1.16570
 1.19040 1.24925 1.26161 1.39622 1.43909 1.46629 1.47874 1.52611 1.62545 1.68921
 1.69979 1.72850 1.80659 1.81757 1.88046 1.94970 2.00599 2.01943 2.10213 2.10858
 2.18319 2.25916 2.30357 2.36506 2.39850 2.40267 2.42435 2.52854 2.57670 2.69191
 3.17746 3.32472 3.55825 3.73746 3.93024 3.98065 5.72110 7.84935
 == 8-th k-point (0.15308,-0.45924,0.15308) occupation: 14==
 -64.98961 -64.98958 -4.61901 -4.61891 -3.02984 -3.02984 -3.02959 -3.02933 -3.02910 -3.02908
 -0.06277 0.04221 0.14601 0.19477 0.33474 0.44402 0.49130 0.49913 0.65797 0.67743
 0.73896 0.75489 0.76763 0.90947 0.96155 0.98144 1.02631 1.02736 1.04502 1.16570
 1.19040 1.24925 1.26161 1.39622 1.43909 1.46629 1.47874 1.52611 1.62545 1.68921
 1.69979 1.72850 1.80659 1.81757 1.88046 1.94970 2.00599 2.01943 2.10213 2.10858
 2.18319 2.25916 2.30357 2.36506 2.39850 2.40267 2.42435 2.52854 2.57670 2.69191
 3.17746 3.32472 3.55825 3.73746 3.93024 3.98065 5.72110 7.84935
 == 9-th k-point (0.30616,-0.30616,0.00000) occupation: 14==
 -64.98961 -64.98960 -4.61904 -4.61889 -3.02982 -3.02982 -3.02965 -3.02928 -3.02912 -3.02909
 -0.08764 0.07557 0.13778 0.22746 0.36918 0.45521 0.47021 0.50443 0.52478 0.63716
 0.74868 0.77508 0.78213 0.91530 0.93279 0.93449 0.98639 1.09237 1.18667 1.19787
 1.24465 1.25558 1.31719 1.38572 1.39280 1.39816 1.50355 1.61504 1.62467 1.62849
 1.71474 1.74475 1.75952 1.77350 1.90605 1.92107 1.94581 2.05238 2.12434 2.15182
 2.15563 2.19019 2.29614 2.35472 2.36336 2.40605 2.50343 2.58540 2.60062 2.69545
 2.89143 3.41964 3.49286 3.87302 3.94734 4.04403 6.78048 7.55366
 == 10-th k-point (0.45924,-0.15308,-0.15308) occupation: 14==
 -64.98961 -64.98958 -4.61901 -4.61891 -3.02984 -3.02984 -3.02959 -3.02933 -3.02910 -3.02908
 -0.06277 0.04221 0.14601 0.19477 0.33474 0.44402 0.49130 0.49913 0.65797 0.67743
 0.73896 0.75489 0.76763 0.90947 0.96155 0.98144 1.02631 1.02736 1.04502 1.16570
 1.19040 1.24925 1.26161 1.39622 1.43909 1.46629 1.47874 1.52611 1.62545 1.68921
 1.69979 1.72850 1.80659 1.81757 1.88046 1.94970 2.00599 2.01943 2.10213 2.10858
 2.18319 2.25916 2.30357 2.36506 2.39850 2.40267 2.42435 2.52854 2.57670 2.69191
 3.17746 3.32472 3.55825 3.73746 3.93024 3.98065 5.72110 7.84935
 == 11-th k-point (0.61232,0.00000,-0.30616) occupation: 14==
 -64.98960 -64.98960 -4.61896 -4.61896 -3.02985 -3.02985 -3.02946 -3.02946 -3.02907 -3.02907
 -0.00414 -0.00414 0.13390 0.13390 0.43775 0.43775 0.46328 0.46328 0.67542 0.67542
 0.76709 0.76709 0.89540 0.89540 0.98029 0.98029 0.99445 0.99445 1.03737 1.03737
 1.17715 1.17715 1.32782 1.32782 1.41811 1.41811 1.46745 1.46745 1.59222 1.59222
 1.76888 1.76888 1.85178 1.85178 1.97332 1.97332 2.01818 2.01818 2.11634 2.11634
 2.17102 2.17102 2.27252 2.27252 2.44623 2.44623 2.49795 2.49795 2.68779 2.68779
 3.02756 3.02756 3.71739 3.71739 3.73031 3.73031 6.48652 6.48652
 == 12-th k-point (0.30616,-0.61232,0.30616) occupation: 14==
 -64.98961 -64.98960 -4.61904 -4.61889 -3.02982 -3.02982 -3.02965 -3.02928 -3.02912 -3.02909
 -0.08764 0.07557 0.13778 0.22746 0.36918 0.45521 0.47021 0.50443 0.52478 0.63716
 0.74868 0.77508 0.78213 0.91530 0.93279 0.93449 0.98639 1.09237 1.18667 1.19787
 1.24465 1.25558 1.31719 1.38572 1.39280 1.39816 1.50355 1.61504 1.62467 1.62849
 1.71474 1.74475 1.75952 1.77350 1.90605 1.92107 1.94581 2.05238 2.12434 2.15182
 2.15563 2.19019 2.29614 2.35472 2.36336 2.40605 2.50343 2.58540 2.60062 2.69545
 2.89143 3.41964 3.49286 3.87302 3.94734 4.04403 6.78048 7.55366
 == 13-th k-point (0.45924,-0.45924,0.15308) occupation: 14==
 -64.98961 -64.98958 -4.61901 -4.61891 -3.02984 -3.02984 -3.02959 -3.02933 -3.02910 -3.02908
 -0.06277 0.04221 0.14601 0.19477 0.33474 0.44402 0.49130 0.49913 0.65797 0.67743
 0.73896 0.75489 0.76763 0.90947 0.96155 0.98144 1.02631 1.02736 1.04502 1.16570
 1.19040 1.24925 1.26161 1.39622 1.43909 1.46629 1.47874 1.52611 1.62545 1.68921
 1.69979 1.72850 1.80659 1.81757 1.88046 1.94970 2.00599 2.01943 2.10213 2.10858
 2.18319 2.25916 2.30357 2.36506 2.39850 2.40267 2.42435 2.52854 2.57670 2.69191
 3.17746 3.32472 3.55825 3.73746 3.93024 3.98065 5.72110 7.84935
 == 14-th k-point (0.61232,-0.30616,0.00000) occupation: 14==
 -64.98960 -64.98960 -4.61896 -4.61896 -3.02985 -3.02985 -3.02946 -3.02946 -3.02907 -3.02907
 -0.00414 -0.00414 0.13390 0.13390 0.43775 0.43775 0.46328 0.46328 0.67542 0.67542
 0.76709 0.76709 0.89540 0.89540 0.98029 0.98029 0.99445 0.99445 1.03737 1.03737
 1.17715 1.17715 1.32782 1.32782 1.41811 1.41811 1.46745 1.46745 1.59222 1.59222
 1.76888 1.76888 1.85178 1.85178 1.97332 1.97332 2.01818 2.01818 2.11634 2.11634
 2.17102 2.17102 2.27252 2.27252 2.44623 2.44623 2.49795 2.49795 2.68779 2.68779
 3.02756 3.02756 3.71739 3.71739 3.73031 3.73031 6.48652 6.48652
 == 15-th k-point (0.76541,-0.15308,-0.15308) occupation: 14==
 -64.98961 -64.98958 -4.61901 -4.61891 -3.02984 -3.02984 -3.02959 -3.02933 -3.02910 -3.02908
 -0.06277 0.04221 0.14601 0.19477 0.33474 0.44402 0.49130 0.49913 0.65797 0.67743
 0.73896 0.75489 0.76763 0.90947 0.96155 0.98144 1.02631 1.02736 1.04502 1.16570
 1.19040 1.24925 1.26161 1.39622 1.43909 1.46629 1.47874 1.52611 1.62545 1.68921
 1.69979 1.72850 1.80659 1.81757 1.88046 1.94970 2.00599 2.01943 2.10213 2.10858
 2.18319 2.25916 2.30357 2.36506 2.39850 2.40267 2.42435 2.52854 2.57670 2.69191
 3.17746 3.32472 3.55825 3.73746 3.93024 3.98065 5.72110 7.84935
 == 16-th k-point (-0.30616,-0.00000,-0.00000) occupation: 14==
 -64.98958 -64.98957 -4.61907 -4.61886 -3.02985 -3.02985 -3.02968 -3.02926 -3.02913 -3.02913
 -0.12312 0.14833 0.20663 0.20663 0.31962 0.39517 0.49213 0.49213 0.57947 0.61738
 0.69827 0.77732 0.77732 0.80223 0.94193 0.94193 0.97617 1.05348 1.10247 1.31013
 1.32064 1.33534 1.33534 1.40302 1.40302 1.45988 1.46207 1.63829 1.63829 1.64207
 1.74134 1.74134 1.75951 1.78139 1.88237 1.98229 1.98229 1.98249 2.05075 2.05075
 2.06636 2.10814 2.15260 2.22769 2.30482 2.30482 2.46125 2.56412 2.56412 2.72452
 3.48108 3.72461 3.72461 3.97699 4.28277 4.28277 5.26732 6.01451
 == 17-th k-point (-0.15308,0.15308,-0.15308) occupation: 14==
 -64.98961 -64.98955 -4.61907 -4.61885 -3.02982 -3.02982 -3.02974 -3.02920 -3.02915 -3.02915
 -0.13349 0.13239 0.24879 0.24879 0.35361 0.40786 0.40786 0.53286 0.55193 0.55193
 0.62271 0.71704 0.83878 0.83878 0.96948 0.96948 0.97344 1.04849 1.22307 1.22307
 1.29639 1.29639 1.35835 1.39649 1.44685 1.55267 1.55267 1.58956 1.58956 1.61912
 1.61912 1.77833 1.78367 1.78367 1.90267 1.96569 1.98160 1.98160 1.98667 2.06868
 2.12100 2.12100 2.27310 2.27310 2.29404 2.33329 2.33329 2.49882 2.61416 2.61416
 3.33355 3.82510 3.82654 3.82654 4.03282 4.03282 4.35267 7.65578
 == 18-th k-point (0.00000,0.30616,-0.30616) occupation: 14==
 -64.98961 -64.98960 -4.61904 -4.61889 -3.02982 -3.02982 -3.02965 -3.02928 -3.02912 -3.02909
 -0.08764 0.07557 0.13778 0.22746 0.36918 0.45521 0.47021 0.50443 0.52478 0.63716
 0.74868 0.77508 0.78213 0.91530 0.93279 0.93449 0.98639 1.09237 1.18667 1.19787
 1.24465 1.25558 1.31719 1.38572 1.39280 1.39816 1.50355 1.61504 1.62467 1.62849
 1.71474 1.74475 1.75952 1.77350 1.90605 1.92107 1.94581 2.05238 2.12434 2.15182
 2.15563 2.19019 2.29614 2.35472 2.36336 2.40605 2.50343 2.58540 2.60062 2.69545
 2.89143 3.41964 3.49286 3.87302 3.94734 4.04403 6.78048 7.55366
 == 19-th k-point (0.15308,0.45924,-0.45924) occupation: 14==
 -64.98961 -64.98958 -4.61901 -4.61891 -3.02984 -3.02984 -3.02959 -3.02933 -3.02910 -3.02908
 -0.06277 0.04221 0.14601 0.19477 0.33474 0.44402 0.49130 0.49913 0.65797 0.67743
 0.73896 0.75489 0.76763 0.90947 0.96155 0.98144 1.02631 1.02736 1.04502 1.16570
 1.19040 1.24925 1.26161 1.39622 1.43909 1.46629 1.47874 1.52611 1.62545 1.68921
 1.69979 1.72850 1.80659 1.81757 1.88046 1.94970 2.00599 2.01943 2.10213 2.10858
 2.18319 2.25916 2.30357 2.36506 2.39850 2.40267 2.42435 2.52854 2.57670 2.69191
 3.17746 3.32472 3.55825 3.73746 3.93024 3.98065 5.72110 7.84935
 == 20-th k-point (-0.15308,-0.15308,0.15308) occupation: 14==
 -64.98961 -64.98955 -4.61907 -4.61885 -3.02982 -3.02982 -3.02974 -3.02920 -3.02915 -3.02915
 -0.13349 0.13239 0.24879 0.24879 0.35361 0.40786 0.40786 0.53286 0.55193 0.55193
 0.62271 0.71704 0.83878 0.83878 0.96948 0.96948 0.97344 1.04849 1.22307 1.22307
 1.29639 1.29639 1.35835 1.39649 1.44685 1.55267 1.55267 1.58956 1.58956 1.61912
 1.61912 1.77833 1.78367 1.78367 1.90267 1.96569 1.98160 1.98160 1.98667 2.06868
 2.12100 2.12100 2.27310 2.27310 2.29404 2.33329 2.33329 2.49882 2.61416 2.61416
 3.33355 3.82510 3.82654 3.82654 4.03282 4.03282 4.35267 7.65578
 == 21-th k-point (0.00000,0.00000,0.00000) occupation: 14==
 -64.98956 -64.98952 -4.61909 -4.61882 -3.02978 -3.02978 -3.02978 -3.02917 -3.02917 -3.02917
 -0.16291 0.27760 0.27760 0.27760 0.37201 0.37201 0.37201 0.40311 0.57230 0.57230
 0.58579 0.70711 0.70711 0.70711 0.92087 1.18971 1.18971 1.18971 1.22295 1.22295
 1.24311 1.24311 1.24311 1.37652 1.37652 1.37652 1.63646 1.63646 1.63646 1.79768
 1.79768 1.86454 1.86454 1.86454 1.93400 1.95693 1.95693 1.95693 1.96819 1.96819
 2.07269 2.07269 2.07269 2.13578 2.13578 2.13578 2.26915 2.74289 2.86337 2.86337
 2.86337 3.46978 3.46978 3.46978 4.11746 4.11746 4.11746 4.46819
 == 22-th k-point (0.15308,0.15308,-0.15308) occupation: 14==
 -64.98961 -64.98955 -4.61907 -4.61885 -3.02982 -3.02982 -3.02974 -3.02920 -3.02915 -3.02915
 -0.13349 0.13239 0.24879 0.24879 0.35361 0.40786 0.40786 0.53286 0.55193 0.55193
 0.62271 0.71704 0.83878 0.83878 0.96948 0.96948 0.97344 1.04849 1.22307 1.22307
 1.29639 1.29639 1.35835 1.39649 1.44685 1.55267 1.55267 1.58956 1.58956 1.61912
 1.61912 1.77833 1.78367 1.78367 1.90267 1.96569 1.98160 1.98160 1.98667 2.06868
 2.12100 2.12100 2.27310 2.27310 2.29404 2.33329 2.33329 2.49882 2.61416 2.61416
 3.33355 3.82510 3.82654 3.82654 4.03282 4.03282 4.35267 7.65578
 == 23-th k-point (0.30616,0.30616,-0.30616) occupation: 14==
 -64.98961 -64.98954 -4.61903 -4.61889 -3.02982 -3.02982 -3.02968 -3.02921 -3.02913 -3.02913
 -0.07684 0.01988 0.23217 0.23217 0.33598 0.40275 0.40275 0.56789 0.68148 0.68148
 0.70138 0.70511 0.70511 0.76730 1.01989 1.03500 1.11075 1.11075 1.16039 1.16039
 1.25511 1.29884 1.29884 1.36267 1.36267 1.42238 1.54820 1.54820 1.55610 1.55610
 1.63883 1.64366 1.86291 1.93343 1.96309 1.96309 2.01587 2.01587 2.01614 2.08921
 2.34611 2.34611 2.42914 2.42914 2.43796 2.43796 2.46077 2.49481 2.49481 2.50438
 3.42948 3.42948 3.47172 3.58237 3.67591 4.10293 4.10293 7.73022
 == 24-th k-point (-0.00000,-0.30616,0.30616) occupation: 14==
 -64.98961 -64.98960 -4.61904 -4.61889 -3.02982 -3.02982 -3.02965 -3.02928 -3.02912 -3.02909
 -0.08764 0.07557 0.13778 0.22746 0.36918 0.45521 0.47021 0.50443 0.52478 0.63716
 0.74868 0.77508 0.78213 0.91530 0.93279 0.93449 0.98639 1.09237 1.18667 1.19787
 1.24465 1.25558 1.31719 1.38572 1.39280 1.39816 1.50355 1.61504 1.62467 1.62849
 1.71474 1.74475 1.75952 1.77350 1.90605 1.92107 1.94581 2.05238 2.12434 2.15182
 2.15563 2.19019 2.29614 2.35472 2.36336 2.40605 2.50343 2.58540 2.60062 2.69545
 2.89143 3.41964 3.49286 3.87302 3.94734 4.04403 6.78048 7.55366
 == 25-th k-point (0.15308,-0.15308,0.15308) occupation: 14==
 -64.98961 -64.98955 -4.61907 -4.61885 -3.02982 -3.02982 -3.02974 -3.02920 -3.02915 -3.02915
 -0.13349 0.13239 0.24879 0.24879 0.35361 0.40786 0.40786 0.53286 0.55193 0.55193
 0.62271 0.71704 0.83878 0.83878 0.96948 0.96948 0.97344 1.04849 1.22307 1.22307
 1.29639 1.29639 1.35835 1.39649 1.44685 1.55267 1.55267 1.58956 1.58956 1.61912
 1.61912 1.77833 1.78367 1.78367 1.90267 1.96569 1.98160 1.98160 1.98667 2.06868
 2.12100 2.12100 2.27310 2.27310 2.29404 2.33329 2.33329 2.49882 2.61416 2.61416
 3.33355 3.82510 3.82654 3.82654 4.03282 4.03282 4.35267 7.65578
 == 26-th k-point (0.30616,0.00000,0.00000) occupation: 14==
 -64.98958 -64.98957 -4.61907 -4.61886 -3.02985 -3.02985 -3.02968 -3.02926 -3.02913 -3.02913
 -0.12312 0.14833 0.20663 0.20663 0.31962 0.39517 0.49213 0.49213 0.57947 0.61738
 0.69827 0.77732 0.77732 0.80223 0.94193 0.94193 0.97617 1.05348 1.10247 1.31013
 1.32064 1.33534 1.33534 1.40302 1.40302 1.45988 1.46207 1.63829 1.63829 1.64207
 1.74134 1.74134 1.75951 1.78139 1.88237 1.98229 1.98229 1.98249 2.05075 2.05075
 2.06636 2.10814 2.15260 2.22769 2.30482 2.30482 2.46125 2.56412 2.56412 2.72452
 3.48108 3.72461 3.72461 3.97699 4.28277 4.28277 5.26732 6.01451
 == 27-th k-point (0.45924,0.15308,-0.15308) occupation: 14==
 -64.98961 -64.98958 -4.61901 -4.61891 -3.02984 -3.02984 -3.02959 -3.02933 -3.02910 -3.02908
 -0.06277 0.04221 0.14601 0.19477 0.33474 0.44402 0.49130 0.49913 0.65797 0.67743
 0.73896 0.75489 0.76763 0.90947 0.96155 0.98144 1.02631 1.02736 1.04502 1.16570
 1.19040 1.24925 1.26161 1.39622 1.43909 1.46629 1.47874 1.52611 1.62545 1.68921
 1.69979 1.72850 1.80659 1.81757 1.88046 1.94970 2.00599 2.01943 2.10213 2.10858
 2.18319 2.25916 2.30357 2.36506 2.39850 2.40267 2.42435 2.52854 2.57670 2.69191
 3.17746 3.32472 3.55825 3.73746 3.93024 3.98065 5.72110 7.84935
 == 28-th k-point (0.15308,-0.45924,0.45924) occupation: 14==
 -64.98961 -64.98958 -4.61901 -4.61891 -3.02984 -3.02984 -3.02959 -3.02933 -3.02910 -3.02908
 -0.06277 0.04221 0.14601 0.19477 0.33474 0.44402 0.49130 0.49913 0.65797 0.67743
 0.73896 0.75489 0.76763 0.90947 0.96155 0.98144 1.02631 1.02736 1.04502 1.16570
 1.19040 1.24925 1.26161 1.39622 1.43909 1.46629 1.47874 1.52611 1.62545 1.68921
 1.69979 1.72850 1.80659 1.81757 1.88046 1.94970 2.00599 2.01943 2.10213 2.10858
 2.18319 2.25916 2.30357 2.36506 2.39850 2.40267 2.42435 2.52854 2.57670 2.69191
 3.17746 3.32472 3.55825 3.73746 3.93024 3.98065 5.72110 7.84935
 == 29-th k-point (0.30616,-0.30616,0.30616) occupation: 14==
 -64.98961 -64.98954 -4.61903 -4.61889 -3.02982 -3.02982 -3.02968 -3.02921 -3.02913 -3.02913
 -0.07684 0.01988 0.23217 0.23217 0.33598 0.40275 0.40275 0.56789 0.68148 0.68148
 0.70138 0.70511 0.70511 0.76730 1.01989 1.03500 1.11075 1.11075 1.16039 1.16039
 1.25511 1.29884 1.29884 1.36267 1.36267 1.42238 1.54820 1.54820 1.55610 1.55610
 1.63883 1.64366 1.86291 1.93343 1.96309 1.96309 2.01587 2.01587 2.01614 2.08921
 2.34611 2.34611 2.42914 2.42914 2.43796 2.43796 2.46077 2.49481 2.49481 2.50438
 3.42948 3.42948 3.47172 3.58237 3.67591 4.10293 4.10293 7.73022
 == 30-th k-point (0.45924,-0.15308,0.15308) occupation: 14==
 -64.98961 -64.98958 -4.61901 -4.61891 -3.02984 -3.02984 -3.02959 -3.02933 -3.02910 -3.02908
 -0.06277 0.04221 0.14601 0.19477 0.33474 0.44402 0.49130 0.49913 0.65797 0.67743
 0.73896 0.75489 0.76763 0.90947 0.96155 0.98144 1.02631 1.02736 1.04502 1.16570
 1.19040 1.24925 1.26161 1.39622 1.43909 1.46629 1.47874 1.52611 1.62545 1.68921
 1.69979 1.72850 1.80659 1.81757 1.88046 1.94970 2.00599 2.01943 2.10213 2.10858
 2.18319 2.25916 2.30357 2.36506 2.39850 2.40267 2.42435 2.52854 2.57670 2.69191
 3.17746 3.32472 3.55825 3.73746 3.93024 3.98065 5.72110 7.84935
 == 31-th k-point (0.61232,0.00000,0.00000) occupation: 14==
 -64.98958 -64.98958 -4.61896 -4.61896 -3.02983 -3.02983 -3.02946 -3.02946 -3.02911 -3.02911
 -0.01031 -0.01031 0.17068 0.17068 0.30485 0.30485 0.65115 0.65115 0.69812 0.69812
 0.75263 0.75263 0.76036 0.76036 0.99991 0.99991 1.04481 1.04481 1.06926 1.06926
 1.11819 1.11819 1.27389 1.27389 1.42246 1.42246 1.63615 1.63615 1.75653 1.75653
 1.76971 1.76971 1.85045 1.85045 1.89852 1.89852 2.11877 2.11877 2.15648 2.15648
 2.17147 2.17147 2.25668 2.25668 2.34551 2.34551 2.65487 2.65487 2.66436 2.66436
 2.83735 2.83735 3.83665 3.83665 4.13337 4.13337 5.45711 5.45711
 == 32-th k-point (-0.45924,0.15308,0.15308) occupation: 14==
 -64.98961 -64.98958 -4.61901 -4.61891 -3.02984 -3.02984 -3.02959 -3.02933 -3.02910 -3.02908
 -0.06277 0.04221 0.14601 0.19477 0.33474 0.44402 0.49130 0.49913 0.65797 0.67743
 0.73896 0.75489 0.76763 0.90947 0.96155 0.98144 1.02631 1.02736 1.04502 1.16570
 1.19040 1.24925 1.26161 1.39622 1.43909 1.46629 1.47874 1.52611 1.62545 1.68921
 1.69979 1.72850 1.80659 1.81757 1.88046 1.94970 2.00599 2.01943 2.10213 2.10858
 2.18319 2.25916 2.30357 2.36506 2.39850 2.40267 2.42435 2.52854 2.57670 2.69191
 3.17746 3.32472 3.55825 3.73746 3.93024 3.98065 5.72110 7.84935
 == 33-th k-point (-0.30616,0.30616,-0.00000) occupation: 14==
 -64.98961 -64.98960 -4.61904 -4.61889 -3.02982 -3.02982 -3.02965 -3.02928 -3.02912 -3.02909
 -0.08764 0.07557 0.13778 0.22746 0.36918 0.45521 0.47021 0.50443 0.52478 0.63716
 0.74868 0.77508 0.78213 0.91530 0.93279 0.93449 0.98639 1.09237 1.18667 1.19787
 1.24465 1.25558 1.31719 1.38572 1.39280 1.39816 1.50355 1.61504 1.62467 1.62849
 1.71474 1.74475 1.75952 1.77350 1.90605 1.92107 1.94581 2.05238 2.12434 2.15182
 2.15563 2.19019 2.29614 2.35472 2.36336 2.40605 2.50343 2.58540 2.60062 2.69545
 2.89143 3.41964 3.49286 3.87302 3.94734 4.04403 6.78048 7.55366
 == 34-th k-point (-0.15308,0.45924,-0.15308) occupation: 14==
 -64.98961 -64.98958 -4.61901 -4.61891 -3.02984 -3.02984 -3.02959 -3.02933 -3.02910 -3.02908
 -0.06277 0.04221 0.14601 0.19477 0.33474 0.44402 0.49130 0.49913 0.65797 0.67743
 0.73896 0.75489 0.76763 0.90947 0.96155 0.98144 1.02631 1.02736 1.04502 1.16570
 1.19040 1.24925 1.26161 1.39622 1.43909 1.46629 1.47874 1.52611 1.62545 1.68921
 1.69979 1.72850 1.80659 1.81757 1.88046 1.94970 2.00599 2.01943 2.10213 2.10858
 2.18319 2.25916 2.30357 2.36506 2.39850 2.40267 2.42435 2.52854 2.57670 2.69191
 3.17746 3.32472 3.55825 3.73746 3.93024 3.98065 5.72110 7.84935
 == 35-th k-point (0.00000,0.61232,-0.30616) occupation: 14==
 -64.98960 -64.98960 -4.61896 -4.61896 -3.02985 -3.02985 -3.02946 -3.02946 -3.02907 -3.02907
 -0.00414 -0.00414 0.13390 0.13390 0.43775 0.43775 0.46328 0.46328 0.67542 0.67542
 0.76709 0.76709 0.89540 0.89540 0.98029 0.98029 0.99445 0.99445 1.03737 1.03737
 1.17715 1.17715 1.32782 1.32782 1.41811 1.41811 1.46745 1.46745 1.59222 1.59222
 1.76888 1.76888 1.85178 1.85178 1.97332 1.97332 2.01818 2.01818 2.11634 2.11634
 2.17102 2.17102 2.27252 2.27252 2.44623 2.44623 2.49795 2.49795 2.68779 2.68779
 3.02756 3.02756 3.71739 3.71739 3.73031 3.73031 6.48652 6.48652
 == 36-th k-point (-0.30616,0.00000,0.30616) occupation: 14==
 -64.98961 -64.98960 -4.61904 -4.61889 -3.02982 -3.02982 -3.02965 -3.02928 -3.02912 -3.02909
 -0.08764 0.07557 0.13778 0.22746 0.36918 0.45521 0.47021 0.50443 0.52478 0.63716
 0.74868 0.77508 0.78213 0.91530 0.93279 0.93449 0.98639 1.09237 1.18667 1.19787
 1.24465 1.25558 1.31719 1.38572 1.39280 1.39816 1.50355 1.61504 1.62467 1.62849
 1.71474 1.74475 1.75952 1.77350 1.90605 1.92107 1.94581 2.05238 2.12434 2.15182
 2.15563 2.19019 2.29614 2.35472 2.36336 2.40605 2.50343 2.58540 2.60062 2.69545
 2.89143 3.41964 3.49286 3.87302 3.94734 4.04403 6.78048 7.55366
 == 37-th k-point (-0.15308,0.15308,0.15308) occupation: 14==
 -64.98961 -64.98955 -4.61907 -4.61885 -3.02982 -3.02982 -3.02974 -3.02920 -3.02915 -3.02915
 -0.13349 0.13239 0.24879 0.24879 0.35361 0.40786 0.40786 0.53286 0.55193 0.55193
 0.62271 0.71704 0.83878 0.83878 0.96948 0.96948 0.97344 1.04849 1.22307 1.22307
 1.29639 1.29639 1.35835 1.39649 1.44685 1.55267 1.55267 1.58956 1.58956 1.61912
 1.61912 1.77833 1.78367 1.78367 1.90267 1.96569 1.98160 1.98160 1.98667 2.06868
 2.12100 2.12100 2.27310 2.27310 2.29404 2.33329 2.33329 2.49882 2.61416 2.61416
 3.33355 3.82510 3.82654 3.82654 4.03282 4.03282 4.35267 7.65578
 == 38-th k-point (0.00000,0.30616,0.00000) occupation: 14==
 -64.98958 -64.98957 -4.61907 -4.61886 -3.02985 -3.02985 -3.02968 -3.02926 -3.02913 -3.02913
 -0.12312 0.14833 0.20663 0.20663 0.31962 0.39517 0.49213 0.49213 0.57947 0.61738
 0.69827 0.77732 0.77732 0.80223 0.94193 0.94193 0.97617 1.05348 1.10247 1.31013
 1.32064 1.33534 1.33534 1.40302 1.40302 1.45988 1.46207 1.63829 1.63829 1.64207
 1.74134 1.74134 1.75951 1.78139 1.88237 1.98229 1.98229 1.98249 2.05075 2.05075
 2.06636 2.10814 2.15260 2.22769 2.30482 2.30482 2.46125 2.56412 2.56412 2.72452
 3.48108 3.72460 3.72461 3.97699 4.28277 4.28277 5.26732 6.01451
 == 39-th k-point (0.15308,0.45924,-0.15308) occupation: 14==
 -64.98961 -64.98958 -4.61901 -4.61891 -3.02984 -3.02984 -3.02959 -3.02933 -3.02910 -3.02908
 -0.06277 0.04221 0.14601 0.19477 0.33474 0.44402 0.49130 0.49913 0.65797 0.67743
 0.73896 0.75489 0.76763 0.90947 0.96155 0.98144 1.02631 1.02736 1.04502 1.16570
 1.19040 1.24925 1.26161 1.39622 1.43909 1.46629 1.47874 1.52611 1.62545 1.68921
 1.69979 1.72850 1.80659 1.81757 1.88046 1.94970 2.00599 2.01943 2.10213 2.10858
 2.18319 2.25916 2.30357 2.36506 2.39850 2.40267 2.42435 2.52854 2.57670 2.69191
 3.17746 3.32472 3.55825 3.73746 3.93024 3.98065 5.72110 7.84935
 == 40-th k-point (-0.15308,-0.15308,0.45924) occupation: 14==
 -64.98961 -64.98958 -4.61901 -4.61891 -3.02984 -3.02984 -3.02959 -3.02933 -3.02910 -3.02908
 -0.06277 0.04221 0.14601 0.19477 0.33474 0.44402 0.49130 0.49913 0.65797 0.67743
 0.73896 0.75489 0.76763 0.90947 0.96155 0.98144 1.02631 1.02736 1.04502 1.16570
 1.19040 1.24925 1.26161 1.39622 1.43909 1.46629 1.47874 1.52611 1.62545 1.68921
 1.69979 1.72850 1.80659 1.81757 1.88046 1.94970 2.00599 2.01943 2.10213 2.10858
 2.18319 2.25916 2.30357 2.36506 2.39850 2.40267 2.42435 2.52854 2.57670 2.69191
 3.17746 3.32472 3.55825 3.73746 3.93024 3.98065 5.72110 7.84935
 == 41-th k-point (0.00000,0.00000,0.30616) occupation: 14==
 -64.98958 -64.98957 -4.61907 -4.61886 -3.02985 -3.02985 -3.02968 -3.02926 -3.02913 -3.02913
 -0.12312 0.14833 0.20663 0.20663 0.31962 0.39517 0.49213 0.49213 0.57947 0.61738
 0.69827 0.77732 0.77732 0.80223 0.94193 0.94193 0.97617 1.05348 1.10247 1.31013
 1.32064 1.33534 1.33534 1.40302 1.40302 1.45988 1.46207 1.63829 1.63829 1.64207
 1.74134 1.74134 1.75951 1.78139 1.88237 1.98229 1.98229 1.98249 2.05075 2.05075
 2.06636 2.10814 2.15260 2.22769 2.30482 2.30482 2.46125 2.56412 2.56412 2.72452
 3.48108 3.72460 3.72461 3.97699 4.28277 4.28277 5.26732 6.01451
 == 42-th k-point (0.15308,0.15308,0.15308) occupation: 14==
 -64.98961 -64.98955 -4.61907 -4.61885 -3.02982 -3.02982 -3.02974 -3.02920 -3.02915 -3.02915
 -0.13349 0.13239 0.24879 0.24879 0.35361 0.40786 0.40786 0.53286 0.55193 0.55193
 0.62271 0.71704 0.83878 0.83878 0.96948 0.96948 0.97344 1.04849 1.22307 1.22307
 1.29639 1.29639 1.35835 1.39649 1.44685 1.55267 1.55267 1.58956 1.58956 1.61912
 1.61912 1.77833 1.78367 1.78367 1.90267 1.96569 1.98160 1.98160 1.98667 2.06868
 2.12100 2.12100 2.27310 2.27310 2.29404 2.33329 2.33329 2.49882 2.61416 2.61416
 3.33355 3.82510 3.82654 3.82654 4.03282 4.03282 4.35267 7.65578
 == 43-th k-point (0.30616,0.30616,0.00000) occupation: 14==
 -64.98961 -64.98960 -4.61904 -4.61889 -3.02982 -3.02982 -3.02965 -3.02928 -3.02912 -3.02909
 -0.08764 0.07557 0.13778 0.22746 0.36918 0.45521 0.47021 0.50443 0.52478 0.63716
 0.74868 0.77508 0.78213 0.91530 0.93279 0.93449 0.98639 1.09237 1.18667 1.19787
 1.24465 1.25558 1.31719 1.38572 1.39280 1.39816 1.50355 1.61504 1.62467 1.62849
 1.71474 1.74475 1.75952 1.77350 1.90605 1.92107 1.94581 2.05238 2.12434 2.15182
 2.15563 2.19019 2.29614 2.35472 2.36336 2.40605 2.50343 2.58540 2.60062 2.69545
 2.89143 3.41964 3.49286 3.87302 3.94734 4.04403 6.78048 7.55366
 == 44-th k-point (0.00000,-0.30616,0.61232) occupation: 14==
 -64.98960 -64.98960 -4.61896 -4.61896 -3.02985 -3.02985 -3.02946 -3.02946 -3.02907 -3.02907
 -0.00414 -0.00414 0.13390 0.13390 0.43775 0.43775 0.46328 0.46328 0.67542 0.67542
 0.76709 0.76709 0.89540 0.89540 0.98029 0.98029 0.99445 0.99445 1.03737 1.03737
 1.17715 1.17715 1.32782 1.32782 1.41811 1.41811 1.46745 1.46745 1.59222 1.59222
 1.76888 1.76888 1.85178 1.85178 1.97332 1.97332 2.01818 2.01818 2.11634 2.11634
 2.17102 2.17102 2.27252 2.27252 2.44623 2.44623 2.49795 2.49795 2.68779 2.68779
 3.02756 3.02756 3.71739 3.71739 3.73031 3.73031 6.48652 6.48652
 == 45-th k-point (0.15308,-0.15308,0.45924) occupation: 14==
 -64.98961 -64.98958 -4.61901 -4.61891 -3.02984 -3.02984 -3.02959 -3.02933 -3.02910 -3.02908
 -0.06277 0.04221 0.14601 0.19477 0.33474 0.44402 0.49130 0.49913 0.65797 0.67743
 0.73896 0.75489 0.76763 0.90947 0.96155 0.98144 1.02631 1.02736 1.04502 1.16570
 1.19040 1.24925 1.26161 1.39622 1.43909 1.46629 1.47874 1.52611 1.62545 1.68921
 1.69979 1.72850 1.80659 1.81757 1.88046 1.94970 2.00599 2.01943 2.10213 2.10858
 2.18319 2.25916 2.30357 2.36506 2.39850 2.40267 2.42435 2.52854 2.57670 2.69191
 3.17746 3.32472 3.55825 3.73746 3.93024 3.98065 5.72110 7.84935
 == 46-th k-point (0.30616,0.00000,0.30616) occupation: 14==
 -64.98961 -64.98960 -4.61904 -4.61889 -3.02982 -3.02982 -3.02965 -3.02928 -3.02912 -3.02909
 -0.08764 0.07557 0.13778 0.22746 0.36918 0.45521 0.47021 0.50443 0.52478 0.63716
 0.74868 0.77508 0.78213 0.91530 0.93279 0.93449 0.98639 1.09237 1.18667 1.19787
 1.24465 1.25558 1.31719 1.38572 1.39280 1.39816 1.50355 1.61504 1.62467 1.62849
 1.71474 1.74475 1.75952 1.77350 1.90605 1.92107 1.94581 2.05238 2.12434 2.15182
 2.15563 2.19019 2.29614 2.35472 2.36336 2.40605 2.50343 2.58540 2.60062 2.69545
 2.89143 3.41964 3.49286 3.87302 3.94734 4.04403 6.78048 7.55366
 == 47-th k-point (0.45924,0.15308,0.15308) occupation: 14==
 -64.98961 -64.98958 -4.61901 -4.61891 -3.02984 -3.02984 -3.02959 -3.02933 -3.02910 -3.02908
 -0.06277 0.04221 0.14601 0.19477 0.33474 0.44402 0.49130 0.49913 0.65797 0.67743
 0.73896 0.75489 0.76763 0.90947 0.96155 0.98144 1.02631 1.02736 1.04502 1.16570
 1.19040 1.24925 1.26161 1.39622 1.43909 1.46629 1.47874 1.52611 1.62545 1.68921
 1.69979 1.72850 1.80659 1.81757 1.88046 1.94970 2.00599 2.01943 2.10213 2.10858
 2.18319 2.25916 2.30357 2.36506 2.39850 2.40267 2.42435 2.52854 2.57670 2.69191
 3.17746 3.32472 3.55825 3.73746 3.93024 3.98065 5.72110 7.84935
 == 48-th k-point (-0.61232,0.30616,0.30616) occupation: 14==
 -64.98961 -64.98960 -4.61904 -4.61889 -3.02982 -3.02982 -3.02965 -3.02928 -3.02912 -3.02909
 -0.08764 0.07557 0.13778 0.22746 0.36918 0.45521 0.47021 0.50443 0.52478 0.63716
 0.74868 0.77508 0.78213 0.91530 0.93279 0.93449 0.98639 1.09237 1.18667 1.19787
 1.24465 1.25558 1.31719 1.38572 1.39280 1.39816 1.50355 1.61504 1.62467 1.62849
 1.71474 1.74475 1.75952 1.77350 1.90605 1.92107 1.94581 2.05238 2.12434 2.15182
 2.15563 2.19019 2.29614 2.35472 2.36336 2.40605 2.50343 2.58540 2.60062 2.69545
 2.89143 3.41964 3.49286 3.87302 3.94734 4.04403 6.78048 7.55366
 == 49-th k-point (-0.45924,0.45924,0.15308) occupation: 14==
 -64.98961 -64.98958 -4.61901 -4.61891 -3.02984 -3.02984 -3.02959 -3.02933 -3.02910 -3.02908
 -0.06277 0.04221 0.14601 0.19477 0.33474 0.44402 0.49130 0.49913 0.65797 0.67743
 0.73896 0.75489 0.76763 0.90947 0.96155 0.98144 1.02631 1.02736 1.04502 1.16570
 1.19040 1.24925 1.26161 1.39622 1.43909 1.46629 1.47874 1.52611 1.62545 1.68921
 1.69979 1.72850 1.80659 1.81757 1.88046 1.94970 2.00599 2.01943 2.10213 2.10858
 2.18319 2.25916 2.30357 2.36506 2.39850 2.40267 2.42435 2.52854 2.57670 2.69191
 3.17746 3.32472 3.55825 3.73746 3.93024 3.98065 5.72110 7.84935
 == 50-th k-point (-0.30616,0.61232,-0.00000) occupation: 14==
 -64.98960 -64.98960 -4.61896 -4.61896 -3.02985 -3.02985 -3.02946 -3.02946 -3.02907 -3.02907
 -0.00414 -0.00414 0.13390 0.13390 0.43775 0.43775 0.46328 0.46328 0.67542 0.67542
 0.76709 0.76709 0.89540 0.89540 0.98029 0.98029 0.99445 0.99445 1.03737 1.03737
 1.17715 1.17715 1.32782 1.32782 1.41811 1.41811 1.46745 1.46745 1.59222 1.59222
 1.76888 1.76888 1.85178 1.85178 1.97332 1.97332 2.01818 2.01818 2.11634 2.11634
 2.17102 2.17102 2.27252 2.27252 2.44623 2.44623 2.49795 2.49795 2.68779 2.68779
 3.02756 3.02756 3.71739 3.71739 3.73031 3.73031 6.48652 6.48652
 == 51-th k-point (-0.15308,0.76541,-0.15308) occupation: 14==
 -64.98961 -64.98958 -4.61901 -4.61891 -3.02984 -3.02984 -3.02959 -3.02933 -3.02910 -3.02908
 -0.06277 0.04221 0.14601 0.19477 0.33474 0.44402 0.49130 0.49913 0.65797 0.67743
 0.73896 0.75489 0.76763 0.90947 0.96155 0.98144 1.02631 1.02736 1.04502 1.16570
 1.19040 1.24925 1.26161 1.39622 1.43909 1.46629 1.47874 1.52611 1.62545 1.68921
 1.69979 1.72850 1.80659 1.81757 1.88046 1.94970 2.00599 2.01943 2.10213 2.10858
 2.18319 2.25916 2.30357 2.36506 2.39850 2.40267 2.42435 2.52854 2.57670 2.69191
 3.17746 3.32472 3.55825 3.73746 3.93024 3.98065 5.72110 7.84935
 == 52-th k-point (-0.45924,0.15308,0.45924) occupation: 14==
 -64.98961 -64.98958 -4.61901 -4.61891 -3.02984 -3.02984 -3.02959 -3.02933 -3.02910 -3.02908
 -0.06277 0.04221 0.14601 0.19477 0.33474 0.44402 0.49130 0.49913 0.65797 0.67743
 0.73896 0.75489 0.76763 0.90947 0.96155 0.98144 1.02631 1.02736 1.04502 1.16570
 1.19040 1.24925 1.26161 1.39622 1.43909 1.46629 1.47874 1.52611 1.62545 1.68921
 1.69979 1.72850 1.80659 1.81757 1.88046 1.94970 2.00599 2.01943 2.10213 2.10858
 2.18319 2.25916 2.30357 2.36506 2.39850 2.40267 2.42435 2.52854 2.57670 2.69191
 3.17746 3.32472 3.55825 3.73746 3.93024 3.98065 5.72110 7.84935
 == 53-th k-point (-0.30616,0.30616,0.30616) occupation: 14==
 -64.98961 -64.98954 -4.61903 -4.61889 -3.02982 -3.02982 -3.02968 -3.02921 -3.02913 -3.02913
 -0.07684 0.01988 0.23217 0.23217 0.33598 0.40275 0.40275 0.56789 0.68148 0.68148
 0.70138 0.70511 0.70511 0.76730 1.01989 1.03500 1.11075 1.11075 1.16039 1.16039
 1.25511 1.29884 1.29884 1.36267 1.36267 1.42238 1.54820 1.54820 1.55610 1.55610
 1.63883 1.64366 1.86291 1.93343 1.96309 1.96309 2.01587 2.01587 2.01614 2.08921
 2.34610 2.34611 2.42914 2.42914 2.43796 2.43796 2.46077 2.49481 2.49481 2.50438
 3.42948 3.42948 3.47172 3.58237 3.67591 4.10293 4.10293 7.73022
 == 54-th k-point (-0.15308,0.45924,0.15308) occupation: 14==
 -64.98961 -64.98958 -4.61901 -4.61891 -3.02984 -3.02984 -3.02959 -3.02933 -3.02910 -3.02908
 -0.06277 0.04221 0.14601 0.19477 0.33474 0.44402 0.49130 0.49913 0.65797 0.67743
 0.73896 0.75489 0.76763 0.90947 0.96155 0.98144 1.02631 1.02736 1.04502 1.16570
 1.19040 1.24925 1.26161 1.39622 1.43909 1.46629 1.47874 1.52611 1.62545 1.68921
 1.69979 1.72850 1.80659 1.81757 1.88046 1.94970 2.00599 2.01943 2.10213 2.10858
 2.18319 2.25916 2.30357 2.36506 2.39850 2.40267 2.42435 2.52854 2.57670 2.69191
 3.17746 3.32472 3.55825 3.73746 3.93024 3.98065 5.72110 7.84935
 == 55-th k-point (0.00000,0.61232,0.00000) occupation: 14==
 -64.98958 -64.98958 -4.61896 -4.61896 -3.02983 -3.02983 -3.02946 -3.02946 -3.02911 -3.02911
 -0.01031 -0.01031 0.17068 0.17068 0.30485 0.30485 0.65115 0.65115 0.69812 0.69812
 0.75263 0.75263 0.76036 0.76036 0.99991 0.99991 1.04481 1.04481 1.06926 1.06926
 1.11819 1.11819 1.27389 1.27389 1.42246 1.42246 1.63615 1.63615 1.75653 1.75653
 1.76971 1.76971 1.85045 1.85045 1.89852 1.89852 2.11877 2.11877 2.15648 2.15648
 2.17147 2.17147 2.25668 2.25668 2.34551 2.34551 2.65487 2.65487 2.66436 2.66436
 2.83735 2.83735 3.83665 3.83665 4.13337 4.13337 5.45711 5.45711
 == 56-th k-point (-0.30616,0.00000,0.61232) occupation: 14==
 -64.98960 -64.98960 -4.61896 -4.61896 -3.02985 -3.02985 -3.02946 -3.02946 -3.02907 -3.02907
 -0.00414 -0.00414 0.13390 0.13390 0.43775 0.43775 0.46328 0.46328 0.67542 0.67542
 0.76709 0.76709 0.89540 0.89540 0.98029 0.98029 0.99445 0.99445 1.03737 1.03737
 1.17715 1.17715 1.32782 1.32782 1.41811 1.41811 1.46745 1.46745 1.59222 1.59222
 1.76888 1.76888 1.85178 1.85178 1.97332 1.97332 2.01818 2.01818 2.11634 2.11634
 2.17102 2.17102 2.27252 2.27252 2.44623 2.44623 2.49795 2.49795 2.68779 2.68779
 3.02756 3.02756 3.71739 3.71739 3.73031 3.73031 6.48652 6.48652
 == 57-th k-point (-0.15308,0.15308,0.45924) occupation: 14==
 -64.98961 -64.98958 -4.61901 -4.61891 -3.02984 -3.02984 -3.02959 -3.02933 -3.02910 -3.02908
 -0.06277 0.04221 0.14601 0.19477 0.33474 0.44402 0.49130 0.49913 0.65797 0.67743
 0.73896 0.75489 0.76763 0.90947 0.96155 0.98144 1.02631 1.02736 1.04502 1.16570
 1.19040 1.24925 1.26161 1.39622 1.43909 1.46629 1.47874 1.52611 1.62545 1.68921
 1.69979 1.72850 1.80659 1.81757 1.88046 1.94970 2.00599 2.01943 2.10213 2.10858
 2.18319 2.25916 2.30357 2.36506 2.39850 2.40267 2.42435 2.52854 2.57670 2.69191
 3.17746 3.32472 3.55825 3.73746 3.93024 3.98065 5.72110 7.84935
 == 58-th k-point (0.00000,0.30616,0.30616) occupation: 14==
 -64.98961 -64.98960 -4.61904 -4.61889 -3.02982 -3.02982 -3.02965 -3.02928 -3.02912 -3.02909
 -0.08764 0.07557 0.13778 0.22746 0.36918 0.45521 0.47021 0.50443 0.52478 0.63716
 0.74868 0.77508 0.78213 0.91530 0.93279 0.93449 0.98639 1.09237 1.18667 1.19787
 1.24465 1.25558 1.31719 1.38572 1.39280 1.39816 1.50355 1.61504 1.62467 1.62849
 1.71474 1.74475 1.75952 1.77350 1.90605 1.92107 1.94581 2.05238 2.12434 2.15182
 2.15563 2.19019 2.29614 2.35472 2.36336 2.40605 2.50343 2.58540 2.60062 2.69545
 2.89143 3.41964 3.49286 3.87302 3.94734 4.04403 6.78048 7.55366
 == 59-th k-point (0.15308,0.45924,0.15308) occupation: 14==
 -64.98961 -64.98958 -4.61901 -4.61891 -3.02984 -3.02984 -3.02959 -3.02933 -3.02910 -3.02908
 -0.06277 0.04221 0.14601 0.19477 0.33474 0.44402 0.49130 0.49913 0.65797 0.67743
 0.73896 0.75489 0.76763 0.90947 0.96155 0.98144 1.02631 1.02736 1.04502 1.16570
 1.19040 1.24925 1.26161 1.39622 1.43909 1.46629 1.47874 1.52611 1.62545 1.68921
 1.69979 1.72850 1.80659 1.81757 1.88046 1.94970 2.00599 2.01943 2.10213 2.10858
 2.18319 2.25916 2.30357 2.36506 2.39850 2.40267 2.42435 2.52854 2.57670 2.69191
 3.17746 3.32472 3.55825 3.73746 3.93024 3.98065 5.72110 7.84935
 == 60-th k-point (-0.15308,-0.15308,0.76541) occupation: 14==
 -64.98961 -64.98958 -4.61901 -4.61891 -3.02984 -3.02984 -3.02959 -3.02933 -3.02910 -3.02908
 -0.06277 0.04221 0.14601 0.19477 0.33474 0.44402 0.49130 0.49913 0.65797 0.67743
 0.73896 0.75489 0.76763 0.90947 0.96155 0.98144 1.02631 1.02736 1.04502 1.16570
 1.19040 1.24925 1.26161 1.39622 1.43909 1.46629 1.47874 1.52611 1.62545 1.68921
 1.69979 1.72850 1.80659 1.81757 1.88046 1.94970 2.00599 2.01943 2.10213 2.10858
 2.18319 2.25916 2.30357 2.36506 2.39850 2.40267 2.42435 2.52854 2.57670 2.69191
 3.17746 3.32472 3.55825 3.73746 3.93024 3.98065 5.72110 7.84935
 == 61-th k-point (0.00000,0.00000,0.61232) occupation: 14==
 -64.98958 -64.98958 -4.61896 -4.61896 -3.02983 -3.02983 -3.02946 -3.02946 -3.02911 -3.02911
 -0.01031 -0.01031 0.17068 0.17068 0.30485 0.30485 0.65115 0.65115 0.69812 0.69812
 0.75263 0.75263 0.76036 0.76036 0.99991 0.99991 1.04481 1.04481 1.06926 1.06926
 1.11819 1.11819 1.27389 1.27389 1.42246 1.42246 1.63615 1.63615 1.75653 1.75653
 1.76971 1.76971 1.85045 1.85045 1.89852 1.89852 2.11877 2.11877 2.15648 2.15648
 2.17147 2.17147 2.25668 2.25668 2.34551 2.34551 2.65487 2.65487 2.66436 2.66436
 2.83735 2.83735 3.83665 3.83665 4.13337 4.13337 5.45711 5.45711
 == 62-th k-point (0.15308,0.15308,0.45924) occupation: 14==
 -64.98961 -64.98958 -4.61901 -4.61891 -3.02984 -3.02984 -3.02959 -3.02933 -3.02910 -3.02908
 -0.06277 0.04221 0.14601 0.19477 0.33474 0.44402 0.49130 0.49913 0.65797 0.67743
 0.73896 0.75489 0.76763 0.90947 0.96155 0.98144 1.02631 1.02736 1.04502 1.16570
 1.19040 1.24925 1.26161 1.39622 1.43909 1.46629 1.47874 1.52611 1.62545 1.68921
 1.69979 1.72850 1.80659 1.81757 1.88046 1.94970 2.00599 2.01943 2.10213 2.10858
 2.18319 2.25916 2.30357 2.36506 2.39850 2.40267 2.42435 2.52854 2.57670 2.69191
 3.17746 3.32472 3.55825 3.73746 3.93024 3.98065 5.72110 7.84935
 == 63-th k-point (0.30616,0.30616,0.30616) occupation: 14==
 -64.98961 -64.98954 -4.61903 -4.61889 -3.02982 -3.02982 -3.02968 -3.02921 -3.02913 -3.02913
 -0.07684 0.01988 0.23217 0.23217 0.33598 0.40275 0.40275 0.56789 0.68148 0.68148
 0.70138 0.70511 0.70511 0.76730 1.01989 1.03500 1.11075 1.11075 1.16039 1.16039
 1.25511 1.29884 1.29884 1.36267 1.36267 1.42238 1.54820 1.54820 1.55610 1.55610
 1.63883 1.64366 1.86291 1.93343 1.96309 1.96309 2.01587 2.01587 2.01614 2.08921
 2.34611 2.34611 2.42914 2.42914 2.43796 2.43796 2.46077 2.49481 2.49481 2.50438
 3.42948 3.42948 3.47172 3.58237 3.67591 4.10293 4.10293 7.73022
 ---------------------------------------------------------------------------
 VBM is at 21-th k-point with 7.55375 eV
 CBM is at 55-th k-point with 8.29540 eV
 Band gap is 0.74165 eV


           Ground-State Mulliken Net Atomic Charges

      Atom                 Charge (a.u.)          Spin (a.u.)
   --------------------------------------------------------
      1 Si               (0.000001,-0.000000)    (0.000000,0.000000)
      2 Si               (-0.000001,0.000000)    (0.000000,0.000000)
   --------------------------------------------------------
  Sum of atomic charges =     (-0.000000,-0.000000)
  Sum of spin   charges =       (0.000000,0.000000)



 Total job time:  28.55 s.
 Tue Sep  9 09:16:00 2025


        *************************************************************
        *                                                           *
        *  Thank you very much for using QCPBC. Have a nice day.    *
        *                                                           *
        *************************************************************

Running job 1 of 1
