                  Welcome to Q-Chem
           with Periodic Boundary Condition
     A Quantum Leap Into The Future Of Chemistry

 Adam Rettig, Xintian Feng, Meng-Fu Chen, Hieu Dinh, Stephen Quiton,
 Anton Ni, Paul J. Robinson, Jinghong Zhang, Joonho Lee

Contributors to earlier versions of Q-Chem not listed above:
 Evgeny Epifanovsky, Leo Cunha, Jerome F. Gonthier, Kuan-Yu Liu
 Input file: /n/netscratch/joonholee_lab/Lab/hieudinh//si_2_ccpvtz_omega_0.9_888.scratch20250909093818/si_2_ccpvtz_omega_0.9_888.0
 Scratch folder: /n/netscratch/joonholee_lab/Lab/hieudinh//si_2_ccpvtz_omega_0.9_888.scratch20250909093818
 Auxillary files located at: /n/holylabs/LABS/joonholee_lab/Lab/qchem_base/qcaux
 Q-Chem begins on Tue Sep  9 09:38:19 2025

 -------------------------------------------------------------
 User input:
 -------------------------------------------------------------
 $lattice
 3
 0.000000 5.130600 5.130600
 5.130600 0.000000 5.130600
 5.130600 5.130600 0.000000
 $end
 
 $unitcell
 ABSOLUTE
 0 1
 Si 0.000000 0.000000 0.000000
 Si 2.565300 2.565300 2.565300
 $end
 
 $rem
 jobtype = sp
 method = pbe
 scf_convergence = 5
 scf_guess = autosad
 scf_algorithm = diis_gdm
 basis = cc-pvtz
 aux_basis = cc-pvtz-jk
 input_bohr = true
 symmetry = false
 rsdf_print_level 1
 is_basis_uctr true
 
 mp_mesh = [8,8,8]
 
 integral_direct true
 bvk_cgto true
 
 thresh 14
 mem_total 1000000
 threads 32
 
 MAX_SCF_CYCLES 500
 madelung = false
 omega 0.9
 do_rij_bigmem true
 automate_g true
 print_level 10
 grid_type_xc 1
 
 thresh_1e2c_sp 1e-14
 thresh_2e3c_bra_ket_sep 1e-10
 thresh_g 1e-12
 $end
 
 -------------------------------------------------------------
 Running PBC job

 Requested Exchange Correlation Functionals: 
  DFT Exchange:  1.00000 pbe_x
  DFT Correlation:  1.00000 pbe_c
 using 32 threads for computing.
 ---------------------------------------------------------------
      Coordinates of Atoms in Central Unit Cell (Angstroms)
    I     Atom         X            Y            Z
 ---------------------------------------------------------------
    1      Si      0.000000     0.000000     0.000000
    2      Si      1.357498     1.357498     1.357498
 ---------------------------------------------------------------
 --------------------------------------------------
              Lattice Vectors (Angstroms)
              X            Y            Z
 --------------------------------------------------
   X       0.000000     2.714997     2.714997
   Y       2.714997     0.000000     2.714997
   Z       2.714997     2.714997     0.000000
 --------------------------------------------------
 --------------------------------------------------
       Reciprocal Lattice Vectors (Angstroms^-1)
              X            Y            Z
 --------------------------------------------------
   X      -1.157126     1.157126     1.157126
   Y       1.157126    -1.157126     1.157126
   Z       1.157126     1.157126    -1.157126
 --------------------------------------------------

 Single point calculation requested

 Hamiltonian contributions:
 List of terms in Hamiltonian: kpts_nn, kpts_kinetic, kpts_vnuc_df, kpts_xc, kpts_rij_bigmem

 K-Points calculation started.

 Basis set information about using solid harmonic (1) or Cartesian (0):
  si : D(1) D(1) F(1) 

 Basis set information about using solid harmonic (1) or Cartesian (0):
  si : D(1) D(1) D(1) D(1) D(1) D(1) D(1) D(1) D(1) F(1) F(1) F(1) G(1) 

 There are 68 basis functions in the central unit cell.
 Print atomic basis of atoms in the central unit cell:
 -------------------------------------------------------------
2 104 104 24

  0.00000000000000e+00  0.00000000000000e+00  0.00000000000000e+00
  2.56530000000000e+00  2.56530000000000e+00  2.56530000000000e+00

  2.54900000000000e+05
  3.81900000000000e+04
  8.69000000000000e+03
  2.46200000000000e+03
  8.04800000000000e+02
  2.91300000000000e+02
  1.13600000000000e+02
  4.67500000000000e+01
  1.98200000000000e+01
  7.70800000000000e+00
  3.34000000000000e+00
  2.54900000000000e+05
  3.81900000000000e+04
  8.69000000000000e+03
  8.04800000000000e+02
  2.91300000000000e+02
  1.13600000000000e+02
  4.67500000000000e+01
  1.98200000000000e+01
  7.70800000000000e+00
  3.34000000000000e+00
  1.40200000000000e+00
  2.54900000000000e+05
  3.81900000000000e+04
  8.69000000000000e+03
  2.91300000000000e+02
  1.13600000000000e+02
  4.67500000000000e+01
  1.98200000000000e+01
  7.70800000000000e+00
  3.34000000000000e+00
  1.40200000000000e+00
  2.07000000000000e-01
  4.38700000000000e-01
  7.94400000000000e-02
  4.81500000000000e+02
  1.13900000000000e+02
  3.62300000000000e+01
  1.33400000000000e+01
  5.25200000000000e+00
  2.12000000000000e+00
  1.13900000000000e+02
  3.62300000000000e+01
  1.33400000000000e+01
  5.25200000000000e+00
  2.12000000000000e+00
  2.52800000000000e-01
  8.56100000000000e-01
  7.88900000000000e-02
  4.81000000000000e-01
  1.59000000000000e-01
  3.36000000000000e-01
  2.54900000000000e+05
  3.81900000000000e+04
  8.69000000000000e+03
  2.46200000000000e+03
  8.04800000000000e+02
  2.91300000000000e+02
  1.13600000000000e+02
  4.67500000000000e+01
  1.98200000000000e+01
  7.70800000000000e+00
  3.34000000000000e+00
  2.54900000000000e+05
  3.81900000000000e+04
  8.69000000000000e+03
  8.04800000000000e+02
  2.91300000000000e+02
  1.13600000000000e+02
  4.67500000000000e+01
  1.98200000000000e+01
  7.70800000000000e+00
  3.34000000000000e+00
  1.40200000000000e+00
  2.54900000000000e+05
  3.81900000000000e+04
  8.69000000000000e+03
  2.91300000000000e+02
  1.13600000000000e+02
  4.67500000000000e+01
  1.98200000000000e+01
  7.70800000000000e+00
  3.34000000000000e+00
  1.40200000000000e+00
  2.07000000000000e-01
  4.38700000000000e-01
  7.94400000000000e-02
  4.81500000000000e+02
  1.13900000000000e+02
  3.62300000000000e+01
  1.33400000000000e+01
  5.25200000000000e+00
  2.12000000000000e+00
  1.13900000000000e+02
  3.62300000000000e+01
  1.33400000000000e+01
  5.25200000000000e+00
  2.12000000000000e+00
  2.52800000000000e-01
  8.56100000000000e-01
  7.88900000000000e-02
  4.81000000000000e-01
  1.59000000000000e-01
  3.36000000000000e-01

  5.06121931014315e-01
  9.46667895564849e-01
  1.63484840115776e+00
  2.64073594005923e+00
  3.97699155153283e+00
  5.40905960736848e+00
  6.15868961670172e+00
  4.99170532032548e+00
  2.02857976424901e+00
  1.82839763527352e-01
 -1.25640690342342e-02
  1.10808750449959e-03
  1.94415577975663e-03
  2.70023730632789e-03
 -1.69098200112149e-02
 -8.66890848691569e-02
 -2.76125946359713e-01
 -6.25588788447604e-01
 -6.61701688370681e-01
  3.11114524237060e-01
  9.56658906468163e-01
  4.36891217824705e-01
  1.05873342256663e-04
  1.52975802748887e-04
  4.28394863673135e-04
 -4.94070443505333e-03
 -1.17298035021286e-02
 -2.95023896611804e-02
 -1.71455066569284e-02
  3.00007138114875e-03
 -6.19326651465540e-02
 -2.59989143457351e-01
  2.47187614608056e-01
  3.84180942836044e-01
  1.06644759418552e-01
  6.70509611941243e+00
  8.84487660481054e+00
  9.82415782069442e+00
  8.40902910540583e+00
  4.80448757555754e+00
  1.55989499299286e+00
 -1.15889775037608e-01
 -5.13312293701512e-02
 -2.64771097977823e-01
 -6.52512718105956e-02
 -1.94608613796415e-01
  2.59380435893970e-01
  1.17380433533106e+00
  5.95960578383022e-02
  4.57260134599596e-01
  6.58952976069849e-02
  1.26537084505476e-01
  5.06121931014315e-01
  9.46667895564849e-01
  1.63484840115776e+00
  2.64073594005923e+00
  3.97699155153283e+00
  5.40905960736848e+00
  6.15868961670172e+00
  4.99170532032548e+00
  2.02857976424901e+00
  1.82839763527352e-01
 -1.25640690342342e-02
  1.10808750449959e-03
  1.94415577975663e-03
  2.70023730632789e-03
 -1.69098200112149e-02
 -8.66890848691569e-02
 -2.76125946359713e-01
 -6.25588788447604e-01
 -6.61701688370681e-01
  3.11114524237060e-01
  9.56658906468163e-01
  4.36891217824705e-01
  1.05873342256663e-04
  1.52975802748887e-04
  4.28394863673135e-04
 -4.94070443505333e-03
 -1.17298035021286e-02
 -2.95023896611804e-02
 -1.71455066569284e-02
  3.00007138114875e-03
 -6.19326651465540e-02
 -2.59989143457351e-01
  2.47187614608056e-01
  3.84180942836044e-01
  1.06644759418552e-01
  6.70509611941243e+00
  8.84487660481054e+00
  9.82415782069442e+00
  8.40902910540583e+00
  4.80448757555754e+00
  1.55989499299286e+00
 -1.15889775037608e-01
 -5.13312293701512e-02
 -2.64771097977823e-01
 -6.52512718105956e-02
 -1.94608613796415e-01
  2.59380435893970e-01
  1.17380433533106e+00
  5.95960578383022e-02
  4.57260134599596e-01
  6.58952976069849e-02
  1.26537084505476e-01

0 0 0 0 1 1 1
0 0 
11 0

0 1 1 11 1 1 1
11 0 
11 0

0 2 2 22 1 1 1
22 0 
11 0

0 3 3 33 1 1 1
33 0 
1 0

0 4 4 34 1 1 1
34 0 
1 0

0 5 5 35 1 3 3
35 1 
6 0

0 8 8 41 1 3 3
41 1 
6 0

0 11 11 47 1 3 3
47 1 
1 0

0 14 14 48 1 3 3
48 1 
1 0

0 17 17 49 1 5 6
49 2 
1 1

0 22 22 50 1 5 6
50 2 
1 1

0 27 27 51 1 7 10
51 3 
1 1

1 34 34 52 1 1 1
52 0 
11 0

1 35 35 63 1 1 1
63 0 
11 0

1 36 36 74 1 1 1
74 0 
11 0

1 37 37 85 1 1 1
85 0 
1 0

1 38 38 86 1 1 1
86 0 
1 0

1 39 39 87 1 3 3
87 1 
6 0

1 42 42 93 1 3 3
93 1 
6 0

1 45 45 99 1 3 3
99 1 
1 0

1 48 48 100 1 3 3
100 1 
1 0

1 51 51 101 1 5 6
101 2 
1 1

1 56 56 102 1 5 6
102 2 
1 1

1 61 61 103 1 7 10
103 3 
1 1

 -------------------------------------------------------------
 Allocate 263208 B from available memory: 1048576000000 B
 There are 1331 image cells after screening.
 There are 1353 image cells for CGTO evaluation after screening.
 Real-Space grid for FFT initialized based on kinetic energy cutoff (eV) = 500.0
 Real-Space grid for FFT: (10,10,10)
 There are 9261 real-space grid points.
 There are 64 batches of real-space grid points. 
 Size of each grid batch is around 128
 Grid for AFT initialized based on kinetic energy cutoff (eV) = 500.0
 Real-Space grid for AFT: (10,10,10)
 There are 9261 real-space grid points.

 There are 5456 atom-centered grid points.

 Spacegroup symmetry group: Fd-3m
 Reducing spacegroup symmetry to symmorphic group: F -4 3 m
 Monkhorst-Pack mesh is [8,8,8]
 There are 512 k points.
kpoints in Bohr
-0.2296217294 -0.2296217294 -0.2296217294
-0.1530811530 -0.1530811530 -0.3061623059
-0.0765405765 -0.0765405765 -0.3827028824
-0.0000000000 -0.0000000000 -0.4592434589
0.0765405765 0.0765405765 -0.5357840354
0.1530811530 0.1530811530 -0.6123246119
0.2296217294 0.2296217294 -0.6888651883
0.3061623059 0.3061623059 -0.7654057648
-0.1530811530 -0.3061623059 -0.1530811530
-0.0765405765 -0.2296217294 -0.2296217294
-0.0000000000 -0.1530811530 -0.3061623059
0.0765405765 -0.0765405765 -0.3827028824
0.1530811530 -0.0000000000 -0.4592434589
0.2296217294 0.0765405765 -0.5357840354
0.3061623059 0.1530811530 -0.6123246119
0.3827028824 0.2296217294 -0.6888651883
-0.0765405765 -0.3827028824 -0.0765405765
-0.0000000000 -0.3061623059 -0.1530811530
0.0765405765 -0.2296217294 -0.2296217294
0.1530811530 -0.1530811530 -0.3061623059
0.2296217294 -0.0765405765 -0.3827028824
0.3061623059 -0.0000000000 -0.4592434589
0.3827028824 0.0765405765 -0.5357840354
0.4592434589 0.1530811530 -0.6123246119
-0.0000000000 -0.4592434589 0.0000000000
0.0765405765 -0.3827028824 -0.0765405765
0.1530811530 -0.3061623059 -0.1530811530
0.2296217294 -0.2296217294 -0.2296217294
0.3061623059 -0.1530811530 -0.3061623059
0.3827028824 -0.0765405765 -0.3827028824
0.4592434589 0.0000000000 -0.4592434589
0.5357840354 0.0765405765 -0.5357840354
0.0765405765 -0.5357840354 0.0765405765
0.1530811530 -0.4592434589 0.0000000000
0.2296217294 -0.3827028824 -0.0765405765
0.3061623059 -0.3061623059 -0.1530811530
0.3827028824 -0.2296217294 -0.2296217294
0.4592434589 -0.1530811530 -0.3061623059
0.5357840354 -0.0765405765 -0.3827028824
0.6123246119 0.0000000000 -0.4592434589
0.1530811530 -0.6123246119 0.1530811530
0.2296217294 -0.5357840354 0.0765405765
0.3061623059 -0.4592434589 0.0000000000
0.3827028824 -0.3827028824 -0.0765405765
0.4592434589 -0.3061623059 -0.1530811530
0.5357840354 -0.2296217294 -0.2296217294
0.6123246119 -0.1530811530 -0.3061623059
0.6888651883 -0.0765405765 -0.3827028824
0.2296217294 -0.6888651883 0.2296217294
0.3061623059 -0.6123246119 0.1530811530
0.3827028824 -0.5357840354 0.0765405765
0.4592434589 -0.4592434589 0.0000000000
0.5357840354 -0.3827028824 -0.0765405765
0.6123246119 -0.3061623059 -0.1530811530
0.6888651883 -0.2296217294 -0.2296217294
0.7654057648 -0.1530811530 -0.3061623059
0.3061623059 -0.7654057648 0.3061623059
0.3827028824 -0.6888651883 0.2296217294
0.4592434589 -0.6123246119 0.1530811530
0.5357840354 -0.5357840354 0.0765405765
0.6123246119 -0.4592434589 0.0000000000
0.6888651883 -0.3827028824 -0.0765405765
0.7654057648 -0.3061623059 -0.1530811530
0.8419463413 -0.2296217294 -0.2296217294
-0.3061623059 -0.1530811530 -0.1530811530
-0.2296217294 -0.0765405765 -0.2296217294
-0.1530811530 -0.0000000000 -0.3061623059
-0.0765405765 0.0765405765 -0.3827028824
-0.0000000000 0.1530811530 -0.4592434589
0.0765405765 0.2296217294 -0.5357840354
0.1530811530 0.3061623059 -0.6123246119
0.2296217294 0.3827028824 -0.6888651883
-0.2296217294 -0.2296217294 -0.0765405765
-0.1530811530 -0.1530811530 -0.1530811530
-0.0765405765 -0.0765405765 -0.2296217294
-0.0000000000 -0.0000000000 -0.3061623059
0.0765405765 0.0765405765 -0.3827028824
0.1530811530 0.1530811530 -0.4592434589
0.2296217294 0.2296217294 -0.5357840354
0.3061623059 0.3061623059 -0.6123246119
-0.1530811530 -0.3061623059 -0.0000000000
-0.0765405765 -0.2296217294 -0.0765405765
-0.0000000000 -0.1530811530 -0.1530811530
0.0765405765 -0.0765405765 -0.2296217294
0.1530811530 -0.0000000000 -0.3061623059
0.2296217294 0.0765405765 -0.3827028824
0.3061623059 0.1530811530 -0.4592434589
0.3827028824 0.2296217294 -0.5357840354
-0.0765405765 -0.3827028824 0.0765405765
-0.0000000000 -0.3061623059 0.0000000000
0.0765405765 -0.2296217294 -0.0765405765
0.1530811530 -0.1530811530 -0.1530811530
0.2296217294 -0.0765405765 -0.2296217294
0.3061623059 0.0000000000 -0.3061623059
0.3827028824 0.0765405765 -0.3827028824
0.4592434589 0.1530811530 -0.4592434589
-0.0000000000 -0.4592434589 0.1530811530
0.0765405765 -0.3827028824 0.0765405765
0.1530811530 -0.3061623059 0.0000000000
0.2296217294 -0.2296217294 -0.0765405765
0.3061623059 -0.1530811530 -0.1530811530
0.3827028824 -0.0765405765 -0.2296217294
0.4592434589 0.0000000000 -0.3061623059
0.5357840354 0.0765405765 -0.3827028824
0.0765405765 -0.5357840354 0.2296217294
0.1530811530 -0.4592434589 0.1530811530
0.2296217294 -0.3827028824 0.0765405765
0.3061623059 -0.3061623059 0.0000000000
0.3827028824 -0.2296217294 -0.0765405765
0.4592434589 -0.1530811530 -0.1530811530
0.5357840354 -0.0765405765 -0.2296217294
0.6123246119 0.0000000000 -0.3061623059
0.1530811530 -0.6123246119 0.3061623059
0.2296217294 -0.5357840354 0.2296217294
0.3061623059 -0.4592434589 0.1530811530
0.3827028824 -0.3827028824 0.0765405765
0.4592434589 -0.3061623059 0.0000000000
0.5357840354 -0.2296217294 -0.0765405765
0.6123246119 -0.1530811530 -0.1530811530
0.6888651883 -0.0765405765 -0.2296217294
0.2296217294 -0.6888651883 0.3827028824
0.3061623059 -0.6123246119 0.3061623059
0.3827028824 -0.5357840354 0.2296217294
0.4592434589 -0.4592434589 0.1530811530
0.5357840354 -0.3827028824 0.0765405765
0.6123246119 -0.3061623059 0.0000000000
0.6888651883 -0.2296217294 -0.0765405765
0.7654057648 -0.1530811530 -0.1530811530
-0.3827028824 -0.0765405765 -0.0765405765
-0.3061623059 -0.0000000000 -0.1530811530
-0.2296217294 0.0765405765 -0.2296217294
-0.1530811530 0.1530811530 -0.3061623059
-0.0765405765 0.2296217294 -0.3827028824
0.0000000000 0.3061623059 -0.4592434589
0.0765405765 0.3827028824 -0.5357840354
0.1530811530 0.4592434589 -0.6123246119
-0.3061623059 -0.1530811530 -0.0000000000
-0.2296217294 -0.0765405765 -0.0765405765
-0.1530811530 -0.0000000000 -0.1530811530
-0.0765405765 0.0765405765 -0.2296217294
-0.0000000000 0.1530811530 -0.3061623059
0.0765405765 0.2296217294 -0.3827028824
0.1530811530 0.3061623059 -0.4592434589
0.2296217294 0.3827028824 -0.5357840354
-0.2296217294 -0.2296217294 0.0765405765
-0.1530811530 -0.1530811530 -0.0000000000
-0.0765405765 -0.0765405765 -0.0765405765
-0.0000000000 -0.0000000000 -0.1530811530
0.0765405765 0.0765405765 -0.2296217294
0.1530811530 0.1530811530 -0.3061623059
0.2296217294 0.2296217294 -0.3827028824
0.3061623059 0.3061623059 -0.4592434589
-0.1530811530 -0.3061623059 0.1530811530
-0.0765405765 -0.2296217294 0.0765405765
-0.0000000000 -0.1530811530 0.0000000000
0.0765405765 -0.0765405765 -0.0765405765
0.1530811530 0.0000000000 -0.1530811530
0.2296217294 0.0765405765 -0.2296217294
0.3061623059 0.1530811530 -0.3061623059
0.3827028824 0.2296217294 -0.3827028824
-0.0765405765 -0.3827028824 0.2296217294
-0.0000000000 -0.3061623059 0.1530811530
0.0765405765 -0.2296217294 0.0765405765
0.1530811530 -0.1530811530 0.0000000000
0.2296217294 -0.0765405765 -0.0765405765
0.3061623059 0.0000000000 -0.1530811530
0.3827028824 0.0765405765 -0.2296217294
0.4592434589 0.1530811530 -0.3061623059
-0.0000000000 -0.4592434589 0.3061623059
0.0765405765 -0.3827028824 0.2296217294
0.1530811530 -0.3061623059 0.1530811530
0.2296217294 -0.2296217294 0.0765405765
0.3061623059 -0.1530811530 0.0000000000
0.3827028824 -0.0765405765 -0.0765405765
0.4592434589 0.0000000000 -0.1530811530
0.5357840354 0.0765405765 -0.2296217294
0.0765405765 -0.5357840354 0.3827028824
0.1530811530 -0.4592434589 0.3061623059
0.2296217294 -0.3827028824 0.2296217294
0.3061623059 -0.3061623059 0.1530811530
0.3827028824 -0.2296217294 0.0765405765
0.4592434589 -0.1530811530 0.0000000000
0.5357840354 -0.0765405765 -0.0765405765
0.6123246119 0.0000000000 -0.1530811530
0.1530811530 -0.6123246119 0.4592434589
0.2296217294 -0.5357840354 0.3827028824
0.3061623059 -0.4592434589 0.3061623059
0.3827028824 -0.3827028824 0.2296217294
0.4592434589 -0.3061623059 0.1530811530
0.5357840354 -0.2296217294 0.0765405765
0.6123246119 -0.1530811530 0.0000000000
0.6888651883 -0.0765405765 -0.0765405765
-0.4592434589 -0.0000000000 -0.0000000000
-0.3827028824 0.0765405765 -0.0765405765
-0.3061623059 0.1530811530 -0.1530811530
-0.2296217294 0.2296217294 -0.2296217294
-0.1530811530 0.3061623059 -0.3061623059
-0.0765405765 0.3827028824 -0.3827028824
0.0000000000 0.4592434589 -0.4592434589
0.0765405765 0.5357840354 -0.5357840354
-0.3827028824 -0.0765405765 0.0765405765
-0.3061623059 -0.0000000000 -0.0000000000
-0.2296217294 0.0765405765 -0.0765405765
-0.1530811530 0.1530811530 -0.1530811530
-0.0765405765 0.2296217294 -0.2296217294
0.0000000000 0.3061623059 -0.3061623059
0.0765405765 0.3827028824 -0.3827028824
0.1530811530 0.4592434589 -0.4592434589
-0.3061623059 -0.1530811530 0.1530811530
-0.2296217294 -0.0765405765 0.0765405765
-0.1530811530 -0.0000000000 -0.0000000000
-0.0765405765 0.0765405765 -0.0765405765
0.0000000000 0.1530811530 -0.1530811530
0.0765405765 0.2296217294 -0.2296217294
0.1530811530 0.3061623059 -0.3061623059
0.2296217294 0.3827028824 -0.3827028824
-0.2296217294 -0.2296217294 0.2296217294
-0.1530811530 -0.1530811530 0.1530811530
-0.0765405765 -0.0765405765 0.0765405765
0.0000000000 0.0000000000 0.0000000000
0.0765405765 0.0765405765 -0.0765405765
0.1530811530 0.1530811530 -0.1530811530
0.2296217294 0.2296217294 -0.2296217294
0.3061623059 0.3061623059 -0.3061623059
-0.1530811530 -0.3061623059 0.3061623059
-0.0765405765 -0.2296217294 0.2296217294
-0.0000000000 -0.1530811530 0.1530811530
0.0765405765 -0.0765405765 0.0765405765
0.1530811530 0.0000000000 0.0000000000
0.2296217294 0.0765405765 -0.0765405765
0.3061623059 0.1530811530 -0.1530811530
0.3827028824 0.2296217294 -0.2296217294
-0.0765405765 -0.3827028824 0.3827028824
-0.0000000000 -0.3061623059 0.3061623059
0.0765405765 -0.2296217294 0.2296217294
0.1530811530 -0.1530811530 0.1530811530
0.2296217294 -0.0765405765 0.0765405765
0.3061623059 0.0000000000 0.0000000000
0.3827028824 0.0765405765 -0.0765405765
0.4592434589 0.1530811530 -0.1530811530
-0.0000000000 -0.4592434589 0.4592434589
0.0765405765 -0.3827028824 0.3827028824
0.1530811530 -0.3061623059 0.3061623059
0.2296217294 -0.2296217294 0.2296217294
0.3061623059 -0.1530811530 0.1530811530
0.3827028824 -0.0765405765 0.0765405765
0.4592434589 0.0000000000 0.0000000000
0.5357840354 0.0765405765 -0.0765405765
0.0765405765 -0.5357840354 0.5357840354
0.1530811530 -0.4592434589 0.4592434589
0.2296217294 -0.3827028824 0.3827028824
0.3061623059 -0.3061623059 0.3061623059
0.3827028824 -0.2296217294 0.2296217294
0.4592434589 -0.1530811530 0.1530811530
0.5357840354 -0.0765405765 0.0765405765
0.6123246119 0.0000000000 0.0000000000
-0.5357840354 0.0765405765 0.0765405765
-0.4592434589 0.1530811530 -0.0000000000
-0.3827028824 0.2296217294 -0.0765405765
-0.3061623059 0.3061623059 -0.1530811530
-0.2296217294 0.3827028824 -0.2296217294
-0.1530811530 0.4592434589 -0.3061623059
-0.0765405765 0.5357840354 -0.3827028824
0.0000000000 0.6123246119 -0.4592434589
-0.4592434589 -0.0000000000 0.1530811530
-0.3827028824 0.0765405765 0.0765405765
-0.3061623059 0.1530811530 -0.0000000000
-0.2296217294 0.2296217294 -0.0765405765
-0.1530811530 0.3061623059 -0.1530811530
-0.0765405765 0.3827028824 -0.2296217294
0.0000000000 0.4592434589 -0.3061623059
0.0765405765 0.5357840354 -0.3827028824
-0.3827028824 -0.0765405765 0.2296217294
-0.3061623059 -0.0000000000 0.1530811530
-0.2296217294 0.0765405765 0.0765405765
-0.1530811530 0.1530811530 -0.0000000000
-0.0765405765 0.2296217294 -0.0765405765
0.0000000000 0.3061623059 -0.1530811530
0.0765405765 0.3827028824 -0.2296217294
0.1530811530 0.4592434589 -0.3061623059
-0.3061623059 -0.1530811530 0.3061623059
-0.2296217294 -0.0765405765 0.2296217294
-0.1530811530 0.0000000000 0.1530811530
-0.0765405765 0.0765405765 0.0765405765
0.0000000000 0.1530811530 0.0000000000
0.0765405765 0.2296217294 -0.0765405765
0.1530811530 0.3061623059 -0.1530811530
0.2296217294 0.3827028824 -0.2296217294
-0.2296217294 -0.2296217294 0.3827028824
-0.1530811530 -0.1530811530 0.3061623059
-0.0765405765 -0.0765405765 0.2296217294
0.0000000000 0.0000000000 0.1530811530
0.0765405765 0.0765405765 0.0765405765
0.1530811530 0.1530811530 0.0000000000
0.2296217294 0.2296217294 -0.0765405765
0.3061623059 0.3061623059 -0.1530811530
-0.1530811530 -0.3061623059 0.4592434589
-0.0765405765 -0.2296217294 0.3827028824
0.0000000000 -0.1530811530 0.3061623059
0.0765405765 -0.0765405765 0.2296217294
0.1530811530 0.0000000000 0.1530811530
0.2296217294 0.0765405765 0.0765405765
0.3061623059 0.1530811530 0.0000000000
0.3827028824 0.2296217294 -0.0765405765
-0.0765405765 -0.3827028824 0.5357840354
0.0000000000 -0.3061623059 0.4592434589
0.0765405765 -0.2296217294 0.3827028824
0.1530811530 -0.1530811530 0.3061623059
0.2296217294 -0.0765405765 0.2296217294
0.3061623059 0.0000000000 0.1530811530
0.3827028824 0.0765405765 0.0765405765
0.4592434589 0.1530811530 0.0000000000
0.0000000000 -0.4592434589 0.6123246119
0.0765405765 -0.3827028824 0.5357840354
0.1530811530 -0.3061623059 0.4592434589
0.2296217294 -0.2296217294 0.3827028824
0.3061623059 -0.1530811530 0.3061623059
0.3827028824 -0.0765405765 0.2296217294
0.4592434589 0.0000000000 0.1530811530
0.5357840354 0.0765405765 0.0765405765
-0.6123246119 0.1530811530 0.1530811530
-0.5357840354 0.2296217294 0.0765405765
-0.4592434589 0.3061623059 -0.0000000000
-0.3827028824 0.3827028824 -0.0765405765
-0.3061623059 0.4592434589 -0.1530811530
-0.2296217294 0.5357840354 -0.2296217294
-0.1530811530 0.6123246119 -0.3061623059
-0.0765405765 0.6888651883 -0.3827028824
-0.5357840354 0.0765405765 0.2296217294
-0.4592434589 0.1530811530 0.1530811530
-0.3827028824 0.2296217294 0.0765405765
-0.3061623059 0.3061623059 -0.0000000000
-0.2296217294 0.3827028824 -0.0765405765
-0.1530811530 0.4592434589 -0.1530811530
-0.0765405765 0.5357840354 -0.2296217294
0.0000000000 0.6123246119 -0.3061623059
-0.4592434589 -0.0000000000 0.3061623059
-0.3827028824 0.0765405765 0.2296217294
-0.3061623059 0.1530811530 0.1530811530
-0.2296217294 0.2296217294 0.0765405765
-0.1530811530 0.3061623059 -0.0000000000
-0.0765405765 0.3827028824 -0.0765405765
0.0000000000 0.4592434589 -0.1530811530
0.0765405765 0.5357840354 -0.2296217294
-0.3827028824 -0.0765405765 0.3827028824
-0.3061623059 0.0000000000 0.3061623059
-0.2296217294 0.0765405765 0.2296217294
-0.1530811530 0.1530811530 0.1530811530
-0.0765405765 0.2296217294 0.0765405765
0.0000000000 0.3061623059 0.0000000000
0.0765405765 0.3827028824 -0.0765405765
0.1530811530 0.4592434589 -0.1530811530
-0.3061623059 -0.1530811530 0.4592434589
-0.2296217294 -0.0765405765 0.3827028824
-0.1530811530 0.0000000000 0.3061623059
-0.0765405765 0.0765405765 0.2296217294
0.0000000000 0.1530811530 0.1530811530
0.0765405765 0.2296217294 0.0765405765
0.1530811530 0.3061623059 0.0000000000
0.2296217294 0.3827028824 -0.0765405765
-0.2296217294 -0.2296217294 0.5357840354
-0.1530811530 -0.1530811530 0.4592434589
-0.0765405765 -0.0765405765 0.3827028824
0.0000000000 0.0000000000 0.3061623059
0.0765405765 0.0765405765 0.2296217294
0.1530811530 0.1530811530 0.1530811530
0.2296217294 0.2296217294 0.0765405765
0.3061623059 0.3061623059 0.0000000000
-0.1530811530 -0.3061623059 0.6123246119
-0.0765405765 -0.2296217294 0.5357840354
0.0000000000 -0.1530811530 0.4592434589
0.0765405765 -0.0765405765 0.3827028824
0.1530811530 0.0000000000 0.3061623059
0.2296217294 0.0765405765 0.2296217294
0.3061623059 0.1530811530 0.1530811530
0.3827028824 0.2296217294 0.0765405765
-0.0765405765 -0.3827028824 0.6888651883
0.0000000000 -0.3061623059 0.6123246119
0.0765405765 -0.2296217294 0.5357840354
0.1530811530 -0.1530811530 0.4592434589
0.2296217294 -0.0765405765 0.3827028824
0.3061623059 0.0000000000 0.3061623059
0.3827028824 0.0765405765 0.2296217294
0.4592434589 0.1530811530 0.1530811530
-0.6888651883 0.2296217294 0.2296217294
-0.6123246119 0.3061623059 0.1530811530
-0.5357840354 0.3827028824 0.0765405765
-0.4592434589 0.4592434589 -0.0000000000
-0.3827028824 0.5357840354 -0.0765405765
-0.3061623059 0.6123246119 -0.1530811530
-0.2296217294 0.6888651883 -0.2296217294
-0.1530811530 0.7654057648 -0.3061623059
-0.6123246119 0.1530811530 0.3061623059
-0.5357840354 0.2296217294 0.2296217294
-0.4592434589 0.3061623059 0.1530811530
-0.3827028824 0.3827028824 0.0765405765
-0.3061623059 0.4592434589 -0.0000000000
-0.2296217294 0.5357840354 -0.0765405765
-0.1530811530 0.6123246119 -0.1530811530
-0.0765405765 0.6888651883 -0.2296217294
-0.5357840354 0.0765405765 0.3827028824
-0.4592434589 0.1530811530 0.3061623059
-0.3827028824 0.2296217294 0.2296217294
-0.3061623059 0.3061623059 0.1530811530
-0.2296217294 0.3827028824 0.0765405765
-0.1530811530 0.4592434589 -0.0000000000
-0.0765405765 0.5357840354 -0.0765405765
0.0000000000 0.6123246119 -0.1530811530
-0.4592434589 0.0000000000 0.4592434589
-0.3827028824 0.0765405765 0.3827028824
-0.3061623059 0.1530811530 0.3061623059
-0.2296217294 0.2296217294 0.2296217294
-0.1530811530 0.3061623059 0.1530811530
-0.0765405765 0.3827028824 0.0765405765
0.0000000000 0.4592434589 0.0000000000
0.0765405765 0.5357840354 -0.0765405765
-0.3827028824 -0.0765405765 0.5357840354
-0.3061623059 0.0000000000 0.4592434589
-0.2296217294 0.0765405765 0.3827028824
-0.1530811530 0.1530811530 0.3061623059
-0.0765405765 0.2296217294 0.2296217294
0.0000000000 0.3061623059 0.1530811530
0.0765405765 0.3827028824 0.0765405765
0.1530811530 0.4592434589 0.0000000000
-0.3061623059 -0.1530811530 0.6123246119
-0.2296217294 -0.0765405765 0.5357840354
-0.1530811530 0.0000000000 0.4592434589
-0.0765405765 0.0765405765 0.3827028824
0.0000000000 0.1530811530 0.3061623059
0.0765405765 0.2296217294 0.2296217294
0.1530811530 0.3061623059 0.1530811530
0.2296217294 0.3827028824 0.0765405765
-0.2296217294 -0.2296217294 0.6888651883
-0.1530811530 -0.1530811530 0.6123246119
-0.0765405765 -0.0765405765 0.5357840354
0.0000000000 0.0000000000 0.4592434589
0.0765405765 0.0765405765 0.3827028824
0.1530811530 0.1530811530 0.3061623059
0.2296217294 0.2296217294 0.2296217294
0.3061623059 0.3061623059 0.1530811530
-0.1530811530 -0.3061623059 0.7654057648
-0.0765405765 -0.2296217294 0.6888651883
0.0000000000 -0.1530811530 0.6123246119
0.0765405765 -0.0765405765 0.5357840354
0.1530811530 0.0000000000 0.4592434589
0.2296217294 0.0765405765 0.3827028824
0.3061623059 0.1530811530 0.3061623059
0.3827028824 0.2296217294 0.2296217294
-0.7654057648 0.3061623059 0.3061623059
-0.6888651883 0.3827028824 0.2296217294
-0.6123246119 0.4592434589 0.1530811530
-0.5357840354 0.5357840354 0.0765405765
-0.4592434589 0.6123246119 -0.0000000000
-0.3827028824 0.6888651883 -0.0765405765
-0.3061623059 0.7654057648 -0.1530811530
-0.2296217294 0.8419463413 -0.2296217294
-0.6888651883 0.2296217294 0.3827028824
-0.6123246119 0.3061623059 0.3061623059
-0.5357840354 0.3827028824 0.2296217294
-0.4592434589 0.4592434589 0.1530811530
-0.3827028824 0.5357840354 0.0765405765
-0.3061623059 0.6123246119 -0.0000000000
-0.2296217294 0.6888651883 -0.0765405765
-0.1530811530 0.7654057648 -0.1530811530
-0.6123246119 0.1530811530 0.4592434589
-0.5357840354 0.2296217294 0.3827028824
-0.4592434589 0.3061623059 0.3061623059
-0.3827028824 0.3827028824 0.2296217294
-0.3061623059 0.4592434589 0.1530811530
-0.2296217294 0.5357840354 0.0765405765
-0.1530811530 0.6123246119 0.0000000000
-0.0765405765 0.6888651883 -0.0765405765
-0.5357840354 0.0765405765 0.5357840354
-0.4592434589 0.1530811530 0.4592434589
-0.3827028824 0.2296217294 0.3827028824
-0.3061623059 0.3061623059 0.3061623059
-0.2296217294 0.3827028824 0.2296217294
-0.1530811530 0.4592434589 0.1530811530
-0.0765405765 0.5357840354 0.0765405765
0.0000000000 0.6123246119 0.0000000000
-0.4592434589 0.0000000000 0.6123246119
-0.3827028824 0.0765405765 0.5357840354
-0.3061623059 0.1530811530 0.4592434589
-0.2296217294 0.2296217294 0.3827028824
-0.1530811530 0.3061623059 0.3061623059
-0.0765405765 0.3827028824 0.2296217294
0.0000000000 0.4592434589 0.1530811530
0.0765405765 0.5357840354 0.0765405765
-0.3827028824 -0.0765405765 0.6888651883
-0.3061623059 0.0000000000 0.6123246119
-0.2296217294 0.0765405765 0.5357840354
-0.1530811530 0.1530811530 0.4592434589
-0.0765405765 0.2296217294 0.3827028824
0.0000000000 0.3061623059 0.3061623059
0.0765405765 0.3827028824 0.2296217294
0.1530811530 0.4592434589 0.1530811530
-0.3061623059 -0.1530811530 0.7654057648
-0.2296217294 -0.0765405765 0.6888651883
-0.1530811530 0.0000000000 0.6123246119
-0.0765405765 0.0765405765 0.5357840354
0.0000000000 0.1530811530 0.4592434589
0.0765405765 0.2296217294 0.3827028824
0.1530811530 0.3061623059 0.3061623059
0.2296217294 0.3827028824 0.2296217294
-0.2296217294 -0.2296217294 0.8419463413
-0.1530811530 -0.1530811530 0.7654057648
-0.0765405765 -0.0765405765 0.6888651883
0.0000000000 0.0000000000 0.6123246119
0.0765405765 0.0765405765 0.5357840354
0.1530811530 0.1530811530 0.4592434589
0.2296217294 0.2296217294 0.3827028824
0.3061623059 0.3061623059 0.3061623059
 There are 14 alpha and 14 beta electrons
 Start computing overlap matrix
 Allocate 37879808 B from available memory: 1048575736800 B
 Time for computing overlap matrix: 2.2090000000 s
 ====== Initialize compute kernels for all-electron RI-J (kpts) ====== 
 ========================================================== 
 Range-separated parameter omega        = 0.900000000000000022
 Threshold for 1e2c shellpair           = 0.000000000000010000
 Threshold for 2e2c SR integral         = 0.000000000000000001
 Threshold for 2e3c SR integral         = 0.000000000100000000
 Threshold for AFT G-space screening is = 0.000000000001000000
 The exponent cutoff for C/D classification (omega2 / 2) is  = 0.405000000000000027
 ========================================================== 
 === Post process the basis set for RI calculation (exp_cutoff = 0.405000000000000027 ) === 
nshells_b1 before uncontraction = 24
nshells_b1 after uncontraction = 28
nshells_baux before uncontraction = 74
nshells_baux after uncontraction = 74
===============================================
nbsf total   = 76
nbsf compact = 36
nbsf diffuse = 40
naux total   = 242
naux compact = 242
naux diffuse = 0
nshells_bnuc = 2

 Number of unique atoms is 1
 Unique atom #0 (si) has 8 shells.

Shell 0 to 7 belongs to atom si
Shell 8 to 15 belongs to atom si

 Number of unique atoms is 1
 Unique atom #0 (si) has 6 shells.

Shell 0 to 5 belongs to atom si
Shell 6 to 11 belongs to atom si

 Number of unique atom is 1
 Unique atom #0 (si) has 37 auxiliary shells.

Auxiliary Shell 0 to 36 belongs to atom si
Auxiliary Shell 37 to 73 belongs to atom si

================= Automatically determine grid size for reciprocal space summation =================
 Range-separated parameter = 0.90000000000000 and G-space screening threshold = 0.00000000000100
The number of grid points along each axis dimension is (10, 10, 10)
Total number of grid points = 9261

Use nonortho shellpair for diffuse density
======== Initializing relevant kernel for RIJ (DD type) ========
There are 78 shellpairs in the reference unit cell
There are 2659 images and we expect to have 207402 in total
There are 10362 shellpairs in the lattice sum after screening
======== Initializing relevant kernel for RIJ (CD type) ========
There are 192 shellpairs in the reference unit cell
There are 1657 images and we expect to have 318144 in total
There are 12656 shellpairs in the lattice sum after screening
****** AFT -> SR ******
Maximum bra distance cutoff is 20.000000000000
Maximum bra ket distance cutoff is 19.686314259486
Maximum bra ket screening distance is 18.000000000000
Number of auxiliary image is 437
There are 192 shellpairs in the reference unit cell
There are 437 images and we expect to have 83904 in total
There are 12656 shellpairs in the lattice sum after screening
Available memory per thread for 2e3c calculation is 32.766808031000Gb
Finish initializing 2e3c SR with the lattice sum!
=================================================
======== Initializing relevant kernel for RIJ (CC type) ========
There are 135 shellpairs in the reference unit cell
There are 551 images and we expect to have 74385 in total
There are 1200 shellpairs in the lattice sum after screening
****** AFT -> SR ******
Maximum bra distance cutoff is 11.000000000000
Maximum bra ket distance cutoff is 19.281250000000
Maximum bra ket screening distance is 17.500000000000
Number of auxiliary image is 437
There are 135 shellpairs in the reference unit cell
There are 117 images and we expect to have 15795 in total
There are 1200 shellpairs in the lattice sum after screening
Available memory per thread for 2e3c calculation is 32.766808031000Gb
Finish initializing 2e3c SR with the lattice sum!
=================================================
======== Initializing the SR component for Vnuc (CD type) ========
Maximum bra distance cutoff is 20.000000000000
Maximum bra ket distance cutoff is 11.052556209192
Maximum bra ket screening distance is 9.170821735065
Number of auxiliary image is 437
There are 192 shellpairs in the reference unit cell
There are 437 images and we expect to have 83904 in total
There are 12656 shellpairs in the lattice sum after screening
Available memory per thread for 2e3c calculation is 32.766808031000Gb
Finish initializing 2e3c SR with the lattice sum!
=================================================
======== Initialize the SR component for Vnuc (CC type) ========
Maximum bra distance cutoff is 11.000000000000
Maximum bra ket distance cutoff is 11.232824570356
Maximum bra ket screening distance is 8.201723935674
Number of auxiliary image is 117
There are 135 shellpairs in the reference unit cell
There are 117 images and we expect to have 15795 in total
There are 1200 shellpairs in the lattice sum after screening
Available memory per thread for 2e3c calculation is 32.766808031000Gb
Finish initializing 2e3c SR with the lattice sum!
=================================================
 Aufbau occupation scheme, occupation determined by eigenvalue
 == 0-th k-point nmo = 68 (-0.22962,-0.22962,-0.22962) ==
 == 1-th k-point nmo = 68 (-0.15308,-0.15308,-0.30616) ==
 == 2-th k-point nmo = 68 (-0.07654,-0.07654,-0.38270) ==
 == 3-th k-point nmo = 68 (-0.00000,-0.00000,-0.45924) ==
 == 4-th k-point nmo = 68 (0.07654,0.07654,-0.53578) ==
 == 5-th k-point nmo = 68 (0.15308,0.15308,-0.61232) ==
 == 6-th k-point nmo = 68 (0.22962,0.22962,-0.68887) ==
 == 7-th k-point nmo = 68 (0.30616,0.30616,-0.76541) ==
 == 8-th k-point nmo = 68 (-0.15308,-0.30616,-0.15308) ==
 == 9-th k-point nmo = 68 (-0.07654,-0.22962,-0.22962) ==
 == 10-th k-point nmo = 68 (-0.00000,-0.15308,-0.30616) ==
 == 11-th k-point nmo = 68 (0.07654,-0.07654,-0.38270) ==
 == 12-th k-point nmo = 68 (0.15308,-0.00000,-0.45924) ==
 == 13-th k-point nmo = 68 (0.22962,0.07654,-0.53578) ==
 == 14-th k-point nmo = 68 (0.30616,0.15308,-0.61232) ==
 == 15-th k-point nmo = 68 (0.38270,0.22962,-0.68887) ==
 == 16-th k-point nmo = 68 (-0.07654,-0.38270,-0.07654) ==
 == 17-th k-point nmo = 68 (-0.00000,-0.30616,-0.15308) ==
 == 18-th k-point nmo = 68 (0.07654,-0.22962,-0.22962) ==
 == 19-th k-point nmo = 68 (0.15308,-0.15308,-0.30616) ==
 == 20-th k-point nmo = 68 (0.22962,-0.07654,-0.38270) ==
 == 21-th k-point nmo = 68 (0.30616,-0.00000,-0.45924) ==
 == 22-th k-point nmo = 68 (0.38270,0.07654,-0.53578) ==
 == 23-th k-point nmo = 68 (0.45924,0.15308,-0.61232) ==
 == 24-th k-point nmo = 68 (-0.00000,-0.45924,0.00000) ==
 == 25-th k-point nmo = 68 (0.07654,-0.38270,-0.07654) ==
 == 26-th k-point nmo = 68 (0.15308,-0.30616,-0.15308) ==
 == 27-th k-point nmo = 68 (0.22962,-0.22962,-0.22962) ==
 == 28-th k-point nmo = 68 (0.30616,-0.15308,-0.30616) ==
 == 29-th k-point nmo = 68 (0.38270,-0.07654,-0.38270) ==
 == 30-th k-point nmo = 68 (0.45924,0.00000,-0.45924) ==
 == 31-th k-point nmo = 68 (0.53578,0.07654,-0.53578) ==
 == 32-th k-point nmo = 68 (0.07654,-0.53578,0.07654) ==
 == 33-th k-point nmo = 68 (0.15308,-0.45924,0.00000) ==
 == 34-th k-point nmo = 68 (0.22962,-0.38270,-0.07654) ==
 == 35-th k-point nmo = 68 (0.30616,-0.30616,-0.15308) ==
 == 36-th k-point nmo = 68 (0.38270,-0.22962,-0.22962) ==
 == 37-th k-point nmo = 68 (0.45924,-0.15308,-0.30616) ==
 == 38-th k-point nmo = 68 (0.53578,-0.07654,-0.38270) ==
 == 39-th k-point nmo = 68 (0.61232,0.00000,-0.45924) ==
 == 40-th k-point nmo = 68 (0.15308,-0.61232,0.15308) ==
 == 41-th k-point nmo = 68 (0.22962,-0.53578,0.07654) ==
 == 42-th k-point nmo = 68 (0.30616,-0.45924,0.00000) ==
 == 43-th k-point nmo = 68 (0.38270,-0.38270,-0.07654) ==
 == 44-th k-point nmo = 68 (0.45924,-0.30616,-0.15308) ==
 == 45-th k-point nmo = 68 (0.53578,-0.22962,-0.22962) ==
 == 46-th k-point nmo = 68 (0.61232,-0.15308,-0.30616) ==
 == 47-th k-point nmo = 68 (0.68887,-0.07654,-0.38270) ==
 == 48-th k-point nmo = 68 (0.22962,-0.68887,0.22962) ==
 == 49-th k-point nmo = 68 (0.30616,-0.61232,0.15308) ==
 == 50-th k-point nmo = 68 (0.38270,-0.53578,0.07654) ==
 == 51-th k-point nmo = 68 (0.45924,-0.45924,0.00000) ==
 == 52-th k-point nmo = 68 (0.53578,-0.38270,-0.07654) ==
 == 53-th k-point nmo = 68 (0.61232,-0.30616,-0.15308) ==
 == 54-th k-point nmo = 68 (0.68887,-0.22962,-0.22962) ==
 == 55-th k-point nmo = 68 (0.76541,-0.15308,-0.30616) ==
 == 56-th k-point nmo = 68 (0.30616,-0.76541,0.30616) ==
 == 57-th k-point nmo = 68 (0.38270,-0.68887,0.22962) ==
 == 58-th k-point nmo = 68 (0.45924,-0.61232,0.15308) ==
 == 59-th k-point nmo = 68 (0.53578,-0.53578,0.07654) ==
 == 60-th k-point nmo = 68 (0.61232,-0.45924,0.00000) ==
 == 61-th k-point nmo = 68 (0.68887,-0.38270,-0.07654) ==
 == 62-th k-point nmo = 68 (0.76541,-0.30616,-0.15308) ==
 == 63-th k-point nmo = 68 (0.84195,-0.22962,-0.22962) ==
 == 64-th k-point nmo = 68 (-0.30616,-0.15308,-0.15308) ==
 == 65-th k-point nmo = 68 (-0.22962,-0.07654,-0.22962) ==
 == 66-th k-point nmo = 68 (-0.15308,-0.00000,-0.30616) ==
 == 67-th k-point nmo = 68 (-0.07654,0.07654,-0.38270) ==
 == 68-th k-point nmo = 68 (-0.00000,0.15308,-0.45924) ==
 == 69-th k-point nmo = 68 (0.07654,0.22962,-0.53578) ==
 == 70-th k-point nmo = 68 (0.15308,0.30616,-0.61232) ==
 == 71-th k-point nmo = 68 (0.22962,0.38270,-0.68887) ==
 == 72-th k-point nmo = 68 (-0.22962,-0.22962,-0.07654) ==
 == 73-th k-point nmo = 68 (-0.15308,-0.15308,-0.15308) ==
 == 74-th k-point nmo = 68 (-0.07654,-0.07654,-0.22962) ==
 == 75-th k-point nmo = 68 (-0.00000,-0.00000,-0.30616) ==
 == 76-th k-point nmo = 68 (0.07654,0.07654,-0.38270) ==
 == 77-th k-point nmo = 68 (0.15308,0.15308,-0.45924) ==
 == 78-th k-point nmo = 68 (0.22962,0.22962,-0.53578) ==
 == 79-th k-point nmo = 68 (0.30616,0.30616,-0.61232) ==
 == 80-th k-point nmo = 68 (-0.15308,-0.30616,-0.00000) ==
 == 81-th k-point nmo = 68 (-0.07654,-0.22962,-0.07654) ==
 == 82-th k-point nmo = 68 (-0.00000,-0.15308,-0.15308) ==
 == 83-th k-point nmo = 68 (0.07654,-0.07654,-0.22962) ==
 == 84-th k-point nmo = 68 (0.15308,-0.00000,-0.30616) ==
 == 85-th k-point nmo = 68 (0.22962,0.07654,-0.38270) ==
 == 86-th k-point nmo = 68 (0.30616,0.15308,-0.45924) ==
 == 87-th k-point nmo = 68 (0.38270,0.22962,-0.53578) ==
 == 88-th k-point nmo = 68 (-0.07654,-0.38270,0.07654) ==
 == 89-th k-point nmo = 68 (-0.00000,-0.30616,0.00000) ==
 == 90-th k-point nmo = 68 (0.07654,-0.22962,-0.07654) ==
 == 91-th k-point nmo = 68 (0.15308,-0.15308,-0.15308) ==
 == 92-th k-point nmo = 68 (0.22962,-0.07654,-0.22962) ==
 == 93-th k-point nmo = 68 (0.30616,0.00000,-0.30616) ==
 == 94-th k-point nmo = 68 (0.38270,0.07654,-0.38270) ==
 == 95-th k-point nmo = 68 (0.45924,0.15308,-0.45924) ==
 == 96-th k-point nmo = 68 (-0.00000,-0.45924,0.15308) ==
 == 97-th k-point nmo = 68 (0.07654,-0.38270,0.07654) ==
 == 98-th k-point nmo = 68 (0.15308,-0.30616,0.00000) ==
 == 99-th k-point nmo = 68 (0.22962,-0.22962,-0.07654) ==
 == 100-th k-point nmo = 68 (0.30616,-0.15308,-0.15308) ==
 == 101-th k-point nmo = 68 (0.38270,-0.07654,-0.22962) ==
 == 102-th k-point nmo = 68 (0.45924,0.00000,-0.30616) ==
 == 103-th k-point nmo = 68 (0.53578,0.07654,-0.38270) ==
 == 104-th k-point nmo = 68 (0.07654,-0.53578,0.22962) ==
 == 105-th k-point nmo = 68 (0.15308,-0.45924,0.15308) ==
 == 106-th k-point nmo = 68 (0.22962,-0.38270,0.07654) ==
 == 107-th k-point nmo = 68 (0.30616,-0.30616,0.00000) ==
 == 108-th k-point nmo = 68 (0.38270,-0.22962,-0.07654) ==
 == 109-th k-point nmo = 68 (0.45924,-0.15308,-0.15308) ==
 == 110-th k-point nmo = 68 (0.53578,-0.07654,-0.22962) ==
 == 111-th k-point nmo = 68 (0.61232,0.00000,-0.30616) ==
 == 112-th k-point nmo = 68 (0.15308,-0.61232,0.30616) ==
 == 113-th k-point nmo = 68 (0.22962,-0.53578,0.22962) ==
 == 114-th k-point nmo = 68 (0.30616,-0.45924,0.15308) ==
 == 115-th k-point nmo = 68 (0.38270,-0.38270,0.07654) ==
 == 116-th k-point nmo = 68 (0.45924,-0.30616,0.00000) ==
 == 117-th k-point nmo = 68 (0.53578,-0.22962,-0.07654) ==
 == 118-th k-point nmo = 68 (0.61232,-0.15308,-0.15308) ==
 == 119-th k-point nmo = 68 (0.68887,-0.07654,-0.22962) ==
 == 120-th k-point nmo = 68 (0.22962,-0.68887,0.38270) ==
 == 121-th k-point nmo = 68 (0.30616,-0.61232,0.30616) ==
 == 122-th k-point nmo = 68 (0.38270,-0.53578,0.22962) ==
 == 123-th k-point nmo = 68 (0.45924,-0.45924,0.15308) ==
 == 124-th k-point nmo = 68 (0.53578,-0.38270,0.07654) ==
 == 125-th k-point nmo = 68 (0.61232,-0.30616,0.00000) ==
 == 126-th k-point nmo = 68 (0.68887,-0.22962,-0.07654) ==
 == 127-th k-point nmo = 68 (0.76541,-0.15308,-0.15308) ==
 == 128-th k-point nmo = 68 (-0.38270,-0.07654,-0.07654) ==
 == 129-th k-point nmo = 68 (-0.30616,-0.00000,-0.15308) ==
 == 130-th k-point nmo = 68 (-0.22962,0.07654,-0.22962) ==
 == 131-th k-point nmo = 68 (-0.15308,0.15308,-0.30616) ==
 == 132-th k-point nmo = 68 (-0.07654,0.22962,-0.38270) ==
 == 133-th k-point nmo = 68 (0.00000,0.30616,-0.45924) ==
 == 134-th k-point nmo = 68 (0.07654,0.38270,-0.53578) ==
 == 135-th k-point nmo = 68 (0.15308,0.45924,-0.61232) ==
 == 136-th k-point nmo = 68 (-0.30616,-0.15308,-0.00000) ==
 == 137-th k-point nmo = 68 (-0.22962,-0.07654,-0.07654) ==
 == 138-th k-point nmo = 68 (-0.15308,-0.00000,-0.15308) ==
 == 139-th k-point nmo = 68 (-0.07654,0.07654,-0.22962) ==
 == 140-th k-point nmo = 68 (-0.00000,0.15308,-0.30616) ==
 == 141-th k-point nmo = 68 (0.07654,0.22962,-0.38270) ==
 == 142-th k-point nmo = 68 (0.15308,0.30616,-0.45924) ==
 == 143-th k-point nmo = 68 (0.22962,0.38270,-0.53578) ==
 == 144-th k-point nmo = 68 (-0.22962,-0.22962,0.07654) ==
 == 145-th k-point nmo = 68 (-0.15308,-0.15308,-0.00000) ==
 == 146-th k-point nmo = 68 (-0.07654,-0.07654,-0.07654) ==
 == 147-th k-point nmo = 68 (-0.00000,-0.00000,-0.15308) ==
 == 148-th k-point nmo = 68 (0.07654,0.07654,-0.22962) ==
 == 149-th k-point nmo = 68 (0.15308,0.15308,-0.30616) ==
 == 150-th k-point nmo = 68 (0.22962,0.22962,-0.38270) ==
 == 151-th k-point nmo = 68 (0.30616,0.30616,-0.45924) ==
 == 152-th k-point nmo = 68 (-0.15308,-0.30616,0.15308) ==
 == 153-th k-point nmo = 68 (-0.07654,-0.22962,0.07654) ==
 == 154-th k-point nmo = 68 (-0.00000,-0.15308,0.00000) ==
 == 155-th k-point nmo = 68 (0.07654,-0.07654,-0.07654) ==
 == 156-th k-point nmo = 68 (0.15308,0.00000,-0.15308) ==
 == 157-th k-point nmo = 68 (0.22962,0.07654,-0.22962) ==
 == 158-th k-point nmo = 68 (0.30616,0.15308,-0.30616) ==
 == 159-th k-point nmo = 68 (0.38270,0.22962,-0.38270) ==
 == 160-th k-point nmo = 68 (-0.07654,-0.38270,0.22962) ==
 == 161-th k-point nmo = 68 (-0.00000,-0.30616,0.15308) ==
 == 162-th k-point nmo = 68 (0.07654,-0.22962,0.07654) ==
 == 163-th k-point nmo = 68 (0.15308,-0.15308,0.00000) ==
 == 164-th k-point nmo = 68 (0.22962,-0.07654,-0.07654) ==
 == 165-th k-point nmo = 68 (0.30616,0.00000,-0.15308) ==
 == 166-th k-point nmo = 68 (0.38270,0.07654,-0.22962) ==
 == 167-th k-point nmo = 68 (0.45924,0.15308,-0.30616) ==
 == 168-th k-point nmo = 68 (-0.00000,-0.45924,0.30616) ==
 == 169-th k-point nmo = 68 (0.07654,-0.38270,0.22962) ==
 == 170-th k-point nmo = 68 (0.15308,-0.30616,0.15308) ==
 == 171-th k-point nmo = 68 (0.22962,-0.22962,0.07654) ==
 == 172-th k-point nmo = 68 (0.30616,-0.15308,0.00000) ==
 == 173-th k-point nmo = 68 (0.38270,-0.07654,-0.07654) ==
 == 174-th k-point nmo = 68 (0.45924,0.00000,-0.15308) ==
 == 175-th k-point nmo = 68 (0.53578,0.07654,-0.22962) ==
 == 176-th k-point nmo = 68 (0.07654,-0.53578,0.38270) ==
 == 177-th k-point nmo = 68 (0.15308,-0.45924,0.30616) ==
 == 178-th k-point nmo = 68 (0.22962,-0.38270,0.22962) ==
 == 179-th k-point nmo = 68 (0.30616,-0.30616,0.15308) ==
 == 180-th k-point nmo = 68 (0.38270,-0.22962,0.07654) ==
 == 181-th k-point nmo = 68 (0.45924,-0.15308,0.00000) ==
 == 182-th k-point nmo = 68 (0.53578,-0.07654,-0.07654) ==
 == 183-th k-point nmo = 68 (0.61232,0.00000,-0.15308) ==
 == 184-th k-point nmo = 68 (0.15308,-0.61232,0.45924) ==
 == 185-th k-point nmo = 68 (0.22962,-0.53578,0.38270) ==
 == 186-th k-point nmo = 68 (0.30616,-0.45924,0.30616) ==
 == 187-th k-point nmo = 68 (0.38270,-0.38270,0.22962) ==
 == 188-th k-point nmo = 68 (0.45924,-0.30616,0.15308) ==
 == 189-th k-point nmo = 68 (0.53578,-0.22962,0.07654) ==
 == 190-th k-point nmo = 68 (0.61232,-0.15308,0.00000) ==
 == 191-th k-point nmo = 68 (0.68887,-0.07654,-0.07654) ==
 == 192-th k-point nmo = 68 (-0.45924,-0.00000,-0.00000) ==
 == 193-th k-point nmo = 68 (-0.38270,0.07654,-0.07654) ==
 == 194-th k-point nmo = 68 (-0.30616,0.15308,-0.15308) ==
 == 195-th k-point nmo = 68 (-0.22962,0.22962,-0.22962) ==
 == 196-th k-point nmo = 68 (-0.15308,0.30616,-0.30616) ==
 == 197-th k-point nmo = 68 (-0.07654,0.38270,-0.38270) ==
 == 198-th k-point nmo = 68 (0.00000,0.45924,-0.45924) ==
 == 199-th k-point nmo = 68 (0.07654,0.53578,-0.53578) ==
 == 200-th k-point nmo = 68 (-0.38270,-0.07654,0.07654) ==
 == 201-th k-point nmo = 68 (-0.30616,-0.00000,-0.00000) ==
 == 202-th k-point nmo = 68 (-0.22962,0.07654,-0.07654) ==
 == 203-th k-point nmo = 68 (-0.15308,0.15308,-0.15308) ==
 == 204-th k-point nmo = 68 (-0.07654,0.22962,-0.22962) ==
 == 205-th k-point nmo = 68 (0.00000,0.30616,-0.30616) ==
 == 206-th k-point nmo = 68 (0.07654,0.38270,-0.38270) ==
 == 207-th k-point nmo = 68 (0.15308,0.45924,-0.45924) ==
 == 208-th k-point nmo = 68 (-0.30616,-0.15308,0.15308) ==
 == 209-th k-point nmo = 68 (-0.22962,-0.07654,0.07654) ==
 == 210-th k-point nmo = 68 (-0.15308,-0.00000,-0.00000) ==
 == 211-th k-point nmo = 68 (-0.07654,0.07654,-0.07654) ==
 == 212-th k-point nmo = 68 (0.00000,0.15308,-0.15308) ==
 == 213-th k-point nmo = 68 (0.07654,0.22962,-0.22962) ==
 == 214-th k-point nmo = 68 (0.15308,0.30616,-0.30616) ==
 == 215-th k-point nmo = 68 (0.22962,0.38270,-0.38270) ==
 == 216-th k-point nmo = 68 (-0.22962,-0.22962,0.22962) ==
 == 217-th k-point nmo = 68 (-0.15308,-0.15308,0.15308) ==
 == 218-th k-point nmo = 68 (-0.07654,-0.07654,0.07654) ==
 == 219-th k-point nmo = 68 (0.00000,0.00000,0.00000) ==
 == 220-th k-point nmo = 68 (0.07654,0.07654,-0.07654) ==
 == 221-th k-point nmo = 68 (0.15308,0.15308,-0.15308) ==
 == 222-th k-point nmo = 68 (0.22962,0.22962,-0.22962) ==
 == 223-th k-point nmo = 68 (0.30616,0.30616,-0.30616) ==
 == 224-th k-point nmo = 68 (-0.15308,-0.30616,0.30616) ==
 == 225-th k-point nmo = 68 (-0.07654,-0.22962,0.22962) ==
 == 226-th k-point nmo = 68 (-0.00000,-0.15308,0.15308) ==
 == 227-th k-point nmo = 68 (0.07654,-0.07654,0.07654) ==
 == 228-th k-point nmo = 68 (0.15308,0.00000,0.00000) ==
 == 229-th k-point nmo = 68 (0.22962,0.07654,-0.07654) ==
 == 230-th k-point nmo = 68 (0.30616,0.15308,-0.15308) ==
 == 231-th k-point nmo = 68 (0.38270,0.22962,-0.22962) ==
 == 232-th k-point nmo = 68 (-0.07654,-0.38270,0.38270) ==
 == 233-th k-point nmo = 68 (-0.00000,-0.30616,0.30616) ==
 == 234-th k-point nmo = 68 (0.07654,-0.22962,0.22962) ==
 == 235-th k-point nmo = 68 (0.15308,-0.15308,0.15308) ==
 == 236-th k-point nmo = 68 (0.22962,-0.07654,0.07654) ==
 == 237-th k-point nmo = 68 (0.30616,0.00000,0.00000) ==
 == 238-th k-point nmo = 68 (0.38270,0.07654,-0.07654) ==
 == 239-th k-point nmo = 68 (0.45924,0.15308,-0.15308) ==
 == 240-th k-point nmo = 68 (-0.00000,-0.45924,0.45924) ==
 == 241-th k-point nmo = 68 (0.07654,-0.38270,0.38270) ==
 == 242-th k-point nmo = 68 (0.15308,-0.30616,0.30616) ==
 == 243-th k-point nmo = 68 (0.22962,-0.22962,0.22962) ==
 == 244-th k-point nmo = 68 (0.30616,-0.15308,0.15308) ==
 == 245-th k-point nmo = 68 (0.38270,-0.07654,0.07654) ==
 == 246-th k-point nmo = 68 (0.45924,0.00000,0.00000) ==
 == 247-th k-point nmo = 68 (0.53578,0.07654,-0.07654) ==
 == 248-th k-point nmo = 68 (0.07654,-0.53578,0.53578) ==
 == 249-th k-point nmo = 68 (0.15308,-0.45924,0.45924) ==
 == 250-th k-point nmo = 68 (0.22962,-0.38270,0.38270) ==
 == 251-th k-point nmo = 68 (0.30616,-0.30616,0.30616) ==
 == 252-th k-point nmo = 68 (0.38270,-0.22962,0.22962) ==
 == 253-th k-point nmo = 68 (0.45924,-0.15308,0.15308) ==
 == 254-th k-point nmo = 68 (0.53578,-0.07654,0.07654) ==
 == 255-th k-point nmo = 68 (0.61232,0.00000,0.00000) ==
 == 256-th k-point nmo = 68 (-0.53578,0.07654,0.07654) ==
 == 257-th k-point nmo = 68 (-0.45924,0.15308,-0.00000) ==
 == 258-th k-point nmo = 68 (-0.38270,0.22962,-0.07654) ==
 == 259-th k-point nmo = 68 (-0.30616,0.30616,-0.15308) ==
 == 260-th k-point nmo = 68 (-0.22962,0.38270,-0.22962) ==
 == 261-th k-point nmo = 68 (-0.15308,0.45924,-0.30616) ==
 == 262-th k-point nmo = 68 (-0.07654,0.53578,-0.38270) ==
 == 263-th k-point nmo = 68 (0.00000,0.61232,-0.45924) ==
 == 264-th k-point nmo = 68 (-0.45924,-0.00000,0.15308) ==
 == 265-th k-point nmo = 68 (-0.38270,0.07654,0.07654) ==
 == 266-th k-point nmo = 68 (-0.30616,0.15308,-0.00000) ==
 == 267-th k-point nmo = 68 (-0.22962,0.22962,-0.07654) ==
 == 268-th k-point nmo = 68 (-0.15308,0.30616,-0.15308) ==
 == 269-th k-point nmo = 68 (-0.07654,0.38270,-0.22962) ==
 == 270-th k-point nmo = 68 (0.00000,0.45924,-0.30616) ==
 == 271-th k-point nmo = 68 (0.07654,0.53578,-0.38270) ==
 == 272-th k-point nmo = 68 (-0.38270,-0.07654,0.22962) ==
 == 273-th k-point nmo = 68 (-0.30616,-0.00000,0.15308) ==
 == 274-th k-point nmo = 68 (-0.22962,0.07654,0.07654) ==
 == 275-th k-point nmo = 68 (-0.15308,0.15308,-0.00000) ==
 == 276-th k-point nmo = 68 (-0.07654,0.22962,-0.07654) ==
 == 277-th k-point nmo = 68 (0.00000,0.30616,-0.15308) ==
 == 278-th k-point nmo = 68 (0.07654,0.38270,-0.22962) ==
 == 279-th k-point nmo = 68 (0.15308,0.45924,-0.30616) ==
 == 280-th k-point nmo = 68 (-0.30616,-0.15308,0.30616) ==
 == 281-th k-point nmo = 68 (-0.22962,-0.07654,0.22962) ==
 == 282-th k-point nmo = 68 (-0.15308,0.00000,0.15308) ==
 == 283-th k-point nmo = 68 (-0.07654,0.07654,0.07654) ==
 == 284-th k-point nmo = 68 (0.00000,0.15308,0.00000) ==
 == 285-th k-point nmo = 68 (0.07654,0.22962,-0.07654) ==
 == 286-th k-point nmo = 68 (0.15308,0.30616,-0.15308) ==
 == 287-th k-point nmo = 68 (0.22962,0.38270,-0.22962) ==
 == 288-th k-point nmo = 68 (-0.22962,-0.22962,0.38270) ==
 == 289-th k-point nmo = 68 (-0.15308,-0.15308,0.30616) ==
 == 290-th k-point nmo = 68 (-0.07654,-0.07654,0.22962) ==
 == 291-th k-point nmo = 68 (0.00000,0.00000,0.15308) ==
 == 292-th k-point nmo = 68 (0.07654,0.07654,0.07654) ==
 == 293-th k-point nmo = 68 (0.15308,0.15308,0.00000) ==
 == 294-th k-point nmo = 68 (0.22962,0.22962,-0.07654) ==
 == 295-th k-point nmo = 68 (0.30616,0.30616,-0.15308) ==
 == 296-th k-point nmo = 68 (-0.15308,-0.30616,0.45924) ==
 == 297-th k-point nmo = 68 (-0.07654,-0.22962,0.38270) ==
 == 298-th k-point nmo = 68 (0.00000,-0.15308,0.30616) ==
 == 299-th k-point nmo = 68 (0.07654,-0.07654,0.22962) ==
 == 300-th k-point nmo = 68 (0.15308,0.00000,0.15308) ==
 == 301-th k-point nmo = 68 (0.22962,0.07654,0.07654) ==
 == 302-th k-point nmo = 68 (0.30616,0.15308,0.00000) ==
 == 303-th k-point nmo = 68 (0.38270,0.22962,-0.07654) ==
 == 304-th k-point nmo = 68 (-0.07654,-0.38270,0.53578) ==
 == 305-th k-point nmo = 68 (0.00000,-0.30616,0.45924) ==
 == 306-th k-point nmo = 68 (0.07654,-0.22962,0.38270) ==
 == 307-th k-point nmo = 68 (0.15308,-0.15308,0.30616) ==
 == 308-th k-point nmo = 68 (0.22962,-0.07654,0.22962) ==
 == 309-th k-point nmo = 68 (0.30616,0.00000,0.15308) ==
 == 310-th k-point nmo = 68 (0.38270,0.07654,0.07654) ==
 == 311-th k-point nmo = 68 (0.45924,0.15308,0.00000) ==
 == 312-th k-point nmo = 68 (0.00000,-0.45924,0.61232) ==
 == 313-th k-point nmo = 68 (0.07654,-0.38270,0.53578) ==
 == 314-th k-point nmo = 68 (0.15308,-0.30616,0.45924) ==
 == 315-th k-point nmo = 68 (0.22962,-0.22962,0.38270) ==
 == 316-th k-point nmo = 68 (0.30616,-0.15308,0.30616) ==
 == 317-th k-point nmo = 68 (0.38270,-0.07654,0.22962) ==
 == 318-th k-point nmo = 68 (0.45924,0.00000,0.15308) ==
 == 319-th k-point nmo = 68 (0.53578,0.07654,0.07654) ==
 == 320-th k-point nmo = 68 (-0.61232,0.15308,0.15308) ==
 == 321-th k-point nmo = 68 (-0.53578,0.22962,0.07654) ==
 == 322-th k-point nmo = 68 (-0.45924,0.30616,-0.00000) ==
 == 323-th k-point nmo = 68 (-0.38270,0.38270,-0.07654) ==
 == 324-th k-point nmo = 68 (-0.30616,0.45924,-0.15308) ==
 == 325-th k-point nmo = 68 (-0.22962,0.53578,-0.22962) ==
 == 326-th k-point nmo = 68 (-0.15308,0.61232,-0.30616) ==
 == 327-th k-point nmo = 68 (-0.07654,0.68887,-0.38270) ==
 == 328-th k-point nmo = 68 (-0.53578,0.07654,0.22962) ==
 == 329-th k-point nmo = 68 (-0.45924,0.15308,0.15308) ==
 == 330-th k-point nmo = 68 (-0.38270,0.22962,0.07654) ==
 == 331-th k-point nmo = 68 (-0.30616,0.30616,-0.00000) ==
 == 332-th k-point nmo = 68 (-0.22962,0.38270,-0.07654) ==
 == 333-th k-point nmo = 68 (-0.15308,0.45924,-0.15308) ==
 == 334-th k-point nmo = 68 (-0.07654,0.53578,-0.22962) ==
 == 335-th k-point nmo = 68 (0.00000,0.61232,-0.30616) ==
 == 336-th k-point nmo = 68 (-0.45924,-0.00000,0.30616) ==
 == 337-th k-point nmo = 68 (-0.38270,0.07654,0.22962) ==
 == 338-th k-point nmo = 68 (-0.30616,0.15308,0.15308) ==
 == 339-th k-point nmo = 68 (-0.22962,0.22962,0.07654) ==
 == 340-th k-point nmo = 68 (-0.15308,0.30616,-0.00000) ==
 == 341-th k-point nmo = 68 (-0.07654,0.38270,-0.07654) ==
 == 342-th k-point nmo = 68 (0.00000,0.45924,-0.15308) ==
 == 343-th k-point nmo = 68 (0.07654,0.53578,-0.22962) ==
 == 344-th k-point nmo = 68 (-0.38270,-0.07654,0.38270) ==
 == 345-th k-point nmo = 68 (-0.30616,0.00000,0.30616) ==
 == 346-th k-point nmo = 68 (-0.22962,0.07654,0.22962) ==
 == 347-th k-point nmo = 68 (-0.15308,0.15308,0.15308) ==
 == 348-th k-point nmo = 68 (-0.07654,0.22962,0.07654) ==
 == 349-th k-point nmo = 68 (0.00000,0.30616,0.00000) ==
 == 350-th k-point nmo = 68 (0.07654,0.38270,-0.07654) ==
 == 351-th k-point nmo = 68 (0.15308,0.45924,-0.15308) ==
 == 352-th k-point nmo = 68 (-0.30616,-0.15308,0.45924) ==
 == 353-th k-point nmo = 68 (-0.22962,-0.07654,0.38270) ==
 == 354-th k-point nmo = 68 (-0.15308,0.00000,0.30616) ==
 == 355-th k-point nmo = 68 (-0.07654,0.07654,0.22962) ==
 == 356-th k-point nmo = 68 (0.00000,0.15308,0.15308) ==
 == 357-th k-point nmo = 68 (0.07654,0.22962,0.07654) ==
 == 358-th k-point nmo = 68 (0.15308,0.30616,0.00000) ==
 == 359-th k-point nmo = 68 (0.22962,0.38270,-0.07654) ==
 == 360-th k-point nmo = 68 (-0.22962,-0.22962,0.53578) ==
 == 361-th k-point nmo = 68 (-0.15308,-0.15308,0.45924) ==
 == 362-th k-point nmo = 68 (-0.07654,-0.07654,0.38270) ==
 == 363-th k-point nmo = 68 (0.00000,0.00000,0.30616) ==
 == 364-th k-point nmo = 68 (0.07654,0.07654,0.22962) ==
 == 365-th k-point nmo = 68 (0.15308,0.15308,0.15308) ==
 == 366-th k-point nmo = 68 (0.22962,0.22962,0.07654) ==
 == 367-th k-point nmo = 68 (0.30616,0.30616,0.00000) ==
 == 368-th k-point nmo = 68 (-0.15308,-0.30616,0.61232) ==
 == 369-th k-point nmo = 68 (-0.07654,-0.22962,0.53578) ==
 == 370-th k-point nmo = 68 (0.00000,-0.15308,0.45924) ==
 == 371-th k-point nmo = 68 (0.07654,-0.07654,0.38270) ==
 == 372-th k-point nmo = 68 (0.15308,0.00000,0.30616) ==
 == 373-th k-point nmo = 68 (0.22962,0.07654,0.22962) ==
 == 374-th k-point nmo = 68 (0.30616,0.15308,0.15308) ==
 == 375-th k-point nmo = 68 (0.38270,0.22962,0.07654) ==
 == 376-th k-point nmo = 68 (-0.07654,-0.38270,0.68887) ==
 == 377-th k-point nmo = 68 (0.00000,-0.30616,0.61232) ==
 == 378-th k-point nmo = 68 (0.07654,-0.22962,0.53578) ==
 == 379-th k-point nmo = 68 (0.15308,-0.15308,0.45924) ==
 == 380-th k-point nmo = 68 (0.22962,-0.07654,0.38270) ==
 == 381-th k-point nmo = 68 (0.30616,0.00000,0.30616) ==
 == 382-th k-point nmo = 68 (0.38270,0.07654,0.22962) ==
 == 383-th k-point nmo = 68 (0.45924,0.15308,0.15308) ==
 == 384-th k-point nmo = 68 (-0.68887,0.22962,0.22962) ==
 == 385-th k-point nmo = 68 (-0.61232,0.30616,0.15308) ==
 == 386-th k-point nmo = 68 (-0.53578,0.38270,0.07654) ==
 == 387-th k-point nmo = 68 (-0.45924,0.45924,-0.00000) ==
 == 388-th k-point nmo = 68 (-0.38270,0.53578,-0.07654) ==
 == 389-th k-point nmo = 68 (-0.30616,0.61232,-0.15308) ==
 == 390-th k-point nmo = 68 (-0.22962,0.68887,-0.22962) ==
 == 391-th k-point nmo = 68 (-0.15308,0.76541,-0.30616) ==
 == 392-th k-point nmo = 68 (-0.61232,0.15308,0.30616) ==
 == 393-th k-point nmo = 68 (-0.53578,0.22962,0.22962) ==
 == 394-th k-point nmo = 68 (-0.45924,0.30616,0.15308) ==
 == 395-th k-point nmo = 68 (-0.38270,0.38270,0.07654) ==
 == 396-th k-point nmo = 68 (-0.30616,0.45924,-0.00000) ==
 == 397-th k-point nmo = 68 (-0.22962,0.53578,-0.07654) ==
 == 398-th k-point nmo = 68 (-0.15308,0.61232,-0.15308) ==
 == 399-th k-point nmo = 68 (-0.07654,0.68887,-0.22962) ==
 == 400-th k-point nmo = 68 (-0.53578,0.07654,0.38270) ==
 == 401-th k-point nmo = 68 (-0.45924,0.15308,0.30616) ==
 == 402-th k-point nmo = 68 (-0.38270,0.22962,0.22962) ==
 == 403-th k-point nmo = 68 (-0.30616,0.30616,0.15308) ==
 == 404-th k-point nmo = 68 (-0.22962,0.38270,0.07654) ==
 == 405-th k-point nmo = 68 (-0.15308,0.45924,-0.00000) ==
 == 406-th k-point nmo = 68 (-0.07654,0.53578,-0.07654) ==
 == 407-th k-point nmo = 68 (0.00000,0.61232,-0.15308) ==
 == 408-th k-point nmo = 68 (-0.45924,0.00000,0.45924) ==
 == 409-th k-point nmo = 68 (-0.38270,0.07654,0.38270) ==
 == 410-th k-point nmo = 68 (-0.30616,0.15308,0.30616) ==
 == 411-th k-point nmo = 68 (-0.22962,0.22962,0.22962) ==
 == 412-th k-point nmo = 68 (-0.15308,0.30616,0.15308) ==
 == 413-th k-point nmo = 68 (-0.07654,0.38270,0.07654) ==
 == 414-th k-point nmo = 68 (0.00000,0.45924,0.00000) ==
 == 415-th k-point nmo = 68 (0.07654,0.53578,-0.07654) ==
 == 416-th k-point nmo = 68 (-0.38270,-0.07654,0.53578) ==
 == 417-th k-point nmo = 68 (-0.30616,0.00000,0.45924) ==
 == 418-th k-point nmo = 68 (-0.22962,0.07654,0.38270) ==
 == 419-th k-point nmo = 68 (-0.15308,0.15308,0.30616) ==
 == 420-th k-point nmo = 68 (-0.07654,0.22962,0.22962) ==
 == 421-th k-point nmo = 68 (0.00000,0.30616,0.15308) ==
 == 422-th k-point nmo = 68 (0.07654,0.38270,0.07654) ==
 == 423-th k-point nmo = 68 (0.15308,0.45924,0.00000) ==
 == 424-th k-point nmo = 68 (-0.30616,-0.15308,0.61232) ==
 == 425-th k-point nmo = 68 (-0.22962,-0.07654,0.53578) ==
 == 426-th k-point nmo = 68 (-0.15308,0.00000,0.45924) ==
 == 427-th k-point nmo = 68 (-0.07654,0.07654,0.38270) ==
 == 428-th k-point nmo = 68 (0.00000,0.15308,0.30616) ==
 == 429-th k-point nmo = 68 (0.07654,0.22962,0.22962) ==
 == 430-th k-point nmo = 68 (0.15308,0.30616,0.15308) ==
 == 431-th k-point nmo = 68 (0.22962,0.38270,0.07654) ==
 == 432-th k-point nmo = 68 (-0.22962,-0.22962,0.68887) ==
 == 433-th k-point nmo = 68 (-0.15308,-0.15308,0.61232) ==
 == 434-th k-point nmo = 68 (-0.07654,-0.07654,0.53578) ==
 == 435-th k-point nmo = 68 (0.00000,0.00000,0.45924) ==
 == 436-th k-point nmo = 68 (0.07654,0.07654,0.38270) ==
 == 437-th k-point nmo = 68 (0.15308,0.15308,0.30616) ==
 == 438-th k-point nmo = 68 (0.22962,0.22962,0.22962) ==
 == 439-th k-point nmo = 68 (0.30616,0.30616,0.15308) ==
 == 440-th k-point nmo = 68 (-0.15308,-0.30616,0.76541) ==
 == 441-th k-point nmo = 68 (-0.07654,-0.22962,0.68887) ==
 == 442-th k-point nmo = 68 (0.00000,-0.15308,0.61232) ==
 == 443-th k-point nmo = 68 (0.07654,-0.07654,0.53578) ==
 == 444-th k-point nmo = 68 (0.15308,0.00000,0.45924) ==
 == 445-th k-point nmo = 68 (0.22962,0.07654,0.38270) ==
 == 446-th k-point nmo = 68 (0.30616,0.15308,0.30616) ==
 == 447-th k-point nmo = 68 (0.38270,0.22962,0.22962) ==
 == 448-th k-point nmo = 68 (-0.76541,0.30616,0.30616) ==
 == 449-th k-point nmo = 68 (-0.68887,0.38270,0.22962) ==
 == 450-th k-point nmo = 68 (-0.61232,0.45924,0.15308) ==
 == 451-th k-point nmo = 68 (-0.53578,0.53578,0.07654) ==
 == 452-th k-point nmo = 68 (-0.45924,0.61232,-0.00000) ==
 == 453-th k-point nmo = 68 (-0.38270,0.68887,-0.07654) ==
 == 454-th k-point nmo = 68 (-0.30616,0.76541,-0.15308) ==
 == 455-th k-point nmo = 68 (-0.22962,0.84195,-0.22962) ==
 == 456-th k-point nmo = 68 (-0.68887,0.22962,0.38270) ==
 == 457-th k-point nmo = 68 (-0.61232,0.30616,0.30616) ==
 == 458-th k-point nmo = 68 (-0.53578,0.38270,0.22962) ==
 == 459-th k-point nmo = 68 (-0.45924,0.45924,0.15308) ==
 == 460-th k-point nmo = 68 (-0.38270,0.53578,0.07654) ==
 == 461-th k-point nmo = 68 (-0.30616,0.61232,-0.00000) ==
 == 462-th k-point nmo = 68 (-0.22962,0.68887,-0.07654) ==
 == 463-th k-point nmo = 68 (-0.15308,0.76541,-0.15308) ==
 == 464-th k-point nmo = 68 (-0.61232,0.15308,0.45924) ==
 == 465-th k-point nmo = 68 (-0.53578,0.22962,0.38270) ==
 == 466-th k-point nmo = 68 (-0.45924,0.30616,0.30616) ==
 == 467-th k-point nmo = 68 (-0.38270,0.38270,0.22962) ==
 == 468-th k-point nmo = 68 (-0.30616,0.45924,0.15308) ==
 == 469-th k-point nmo = 68 (-0.22962,0.53578,0.07654) ==
 == 470-th k-point nmo = 68 (-0.15308,0.61232,0.00000) ==
 == 471-th k-point nmo = 68 (-0.07654,0.68887,-0.07654) ==
 == 472-th k-point nmo = 68 (-0.53578,0.07654,0.53578) ==
 == 473-th k-point nmo = 68 (-0.45924,0.15308,0.45924) ==
 == 474-th k-point nmo = 68 (-0.38270,0.22962,0.38270) ==
 == 475-th k-point nmo = 68 (-0.30616,0.30616,0.30616) ==
 == 476-th k-point nmo = 68 (-0.22962,0.38270,0.22962) ==
 == 477-th k-point nmo = 68 (-0.15308,0.45924,0.15308) ==
 == 478-th k-point nmo = 68 (-0.07654,0.53578,0.07654) ==
 == 479-th k-point nmo = 68 (0.00000,0.61232,0.00000) ==
 == 480-th k-point nmo = 68 (-0.45924,0.00000,0.61232) ==
 == 481-th k-point nmo = 68 (-0.38270,0.07654,0.53578) ==
 == 482-th k-point nmo = 68 (-0.30616,0.15308,0.45924) ==
 == 483-th k-point nmo = 68 (-0.22962,0.22962,0.38270) ==
 == 484-th k-point nmo = 68 (-0.15308,0.30616,0.30616) ==
 == 485-th k-point nmo = 68 (-0.07654,0.38270,0.22962) ==
 == 486-th k-point nmo = 68 (0.00000,0.45924,0.15308) ==
 == 487-th k-point nmo = 68 (0.07654,0.53578,0.07654) ==
 == 488-th k-point nmo = 68 (-0.38270,-0.07654,0.68887) ==
 == 489-th k-point nmo = 68 (-0.30616,0.00000,0.61232) ==
 == 490-th k-point nmo = 68 (-0.22962,0.07654,0.53578) ==
 == 491-th k-point nmo = 68 (-0.15308,0.15308,0.45924) ==
 == 492-th k-point nmo = 68 (-0.07654,0.22962,0.38270) ==
 == 493-th k-point nmo = 68 (0.00000,0.30616,0.30616) ==
 == 494-th k-point nmo = 68 (0.07654,0.38270,0.22962) ==
 == 495-th k-point nmo = 68 (0.15308,0.45924,0.15308) ==
 == 496-th k-point nmo = 68 (-0.30616,-0.15308,0.76541) ==
 == 497-th k-point nmo = 68 (-0.22962,-0.07654,0.68887) ==
 == 498-th k-point nmo = 68 (-0.15308,0.00000,0.61232) ==
 == 499-th k-point nmo = 68 (-0.07654,0.07654,0.53578) ==
 == 500-th k-point nmo = 68 (0.00000,0.15308,0.45924) ==
 == 501-th k-point nmo = 68 (0.07654,0.22962,0.38270) ==
 == 502-th k-point nmo = 68 (0.15308,0.30616,0.30616) ==
 == 503-th k-point nmo = 68 (0.22962,0.38270,0.22962) ==
 == 504-th k-point nmo = 68 (-0.22962,-0.22962,0.84195) ==
 == 505-th k-point nmo = 68 (-0.15308,-0.15308,0.76541) ==
 == 506-th k-point nmo = 68 (-0.07654,-0.07654,0.68887) ==
 == 507-th k-point nmo = 68 (0.00000,0.00000,0.61232) ==
 == 508-th k-point nmo = 68 (0.07654,0.07654,0.53578) ==
 == 509-th k-point nmo = 68 (0.15308,0.15308,0.45924) ==
 == 510-th k-point nmo = 68 (0.22962,0.22962,0.38270) ==
 == 511-th k-point nmo = 68 (0.30616,0.30616,0.30616) ==

 Generate autoSAD guess
backing up fragment data
Atom # 0: si, charge: 0, multiplicity: 3.000000
writing autosad to fragment context
Settings for isolated fragments: 
  frgm_gamma: TRUE
  frgm_center: FALSE

    Running SCF for isolated atom #0
    Fragment Input file: /n/netscratch/joonholee_lab/Lab/hieudinh//si_2_ccpvtz_omega_0.9_888.scratch20250909093818/autosad_frgmt_0/frgmt_input.in
    Fragment Output file: /n/netscratch/joonholee_lab/Lab/hieudinh//si_2_ccpvtz_omega_0.9_888.scratch20250909093818/autosad_frgmt_0/frgmt_job.out
    Fragment job begins at Tue Sep  9 09:38:23 2025

 Integrated density by DFT XC:
   Numerical integral  =    13.999999324657
   Relative error      =     0.0000048239 %
Final energy components:
 DFT Correlation            Energy =  -0.48419291960633
 DFT Exchange               Energy = -20.15457765326662
 Kinetic (alpha)            Energy = 145.16532593944385
 Kinetic (beta)             Energy = 143.17442658177217
 Nuclear Attraction (alpha) Energy = -351.25548439806852
 Nuclear Attraction (beta)  Energy = -337.63206466477948
 Nuclear Repulsion          Energy =   0.00000000000000
 SEOQF                      Energy =   0.00000000065999
 Total Coulomb              Energy = 131.95997984351342
----------------------------------------------
    SCF Energy: -289.2265872703
   Total fragment job time:  0.55 s.
restoring fragment data

 ------------------------------------------------------------------------
 Allocate 124723200 B from available memory: 1048537856992 B
 Time for generating SCF guess: 0.60 s

 Allocate 78392 B from available memory: 1048413133792 B
 Selected algorithms for each term:
  kpts_kinetic -> @0x151ae0fbd680
  kpts_nn -> @0x151ae0fbd800
  kpts_rij_bigmem -> @0x151ae0fbd3e0
  kpts_vnuc_df -> @0x151ae0fbd380
  kpts_xc -> @0x151ae0fbd2c0
 Time for computing kinetic matrix is 2.17 s
Start calculating Vnuc DD type!
Start calculating Vnuc CD type!
Start calculating Vnuc CC type!
 Time for computing nuclear attraction matrix is 5.25 s
Compute (P|Q) and use solve on the fly!
Maximum distance between P and Q is 28.44997180930993
Number of images for (P|Qn) is 887
 Time for computing 2e2c SR integral is 0.10 s
Maximum dynamic memory per thread for 2e3c SR integrals: 0.036 GiB
Batch size for basis function pair is 1440 out of 1440
 === bvk cell = 0 has 100.000 % of the basis function pairs === 
 === bvk cell = 1 has 95.625 % of the basis function pairs === 
 === bvk cell = 2 has 42.014 % of the basis function pairs === 
 === bvk cell = 3 has 5.000 % of the basis function pairs === 
 === bvk cell = 4 has 0.000 % of the basis function pairs === 
 === bvk cell = 5 has 5.000 % of the basis function pairs === 
 === bvk cell = 6 has 42.014 % of the basis function pairs === 
 === bvk cell = 7 has 95.625 % of the basis function pairs === 
 === bvk cell = 8 has 95.625 % of the basis function pairs === 
 === bvk cell = 9 has 58.333 % of the basis function pairs === 
 === bvk cell = 10 has 15.833 % of the basis function pairs === 
 === bvk cell = 11 has 0.000 % of the basis function pairs === 
 === bvk cell = 12 has 0.000 % of the basis function pairs === 
 === bvk cell = 13 has 13.750 % of the basis function pairs === 
 === bvk cell = 14 has 56.042 % of the basis function pairs === 
 === bvk cell = 15 has 100.000 % of the basis function pairs === 
 === bvk cell = 16 has 42.014 % of the basis function pairs === 
 === bvk cell = 17 has 15.833 % of the basis function pairs === 
 === bvk cell = 18 has 0.000 % of the basis function pairs === 
 === bvk cell = 19 has 0.000 % of the basis function pairs === 
 === bvk cell = 20 has 0.000 % of the basis function pairs === 
 === bvk cell = 21 has 13.750 % of the basis function pairs === 
 === bvk cell = 22 has 30.556 % of the basis function pairs === 
 === bvk cell = 23 has 56.042 % of the basis function pairs === 
 === bvk cell = 24 has 5.000 % of the basis function pairs === 
 === bvk cell = 25 has 0.000 % of the basis function pairs === 
 === bvk cell = 26 has 0.000 % of the basis function pairs === 
 === bvk cell = 27 has 0.000 % of the basis function pairs === 
 === bvk cell = 28 has 0.000 % of the basis function pairs === 
 === bvk cell = 29 has 0.000 % of the basis function pairs === 
 === bvk cell = 30 has 13.750 % of the basis function pairs === 
 === bvk cell = 31 has 13.750 % of the basis function pairs === 
 === bvk cell = 32 has 0.000 % of the basis function pairs === 
 === bvk cell = 33 has 0.000 % of the basis function pairs === 
 === bvk cell = 34 has 0.000 % of the basis function pairs === 
 === bvk cell = 35 has 0.000 % of the basis function pairs === 
 === bvk cell = 36 has 0.000 % of the basis function pairs === 
 === bvk cell = 37 has 0.000 % of the basis function pairs === 
 === bvk cell = 38 has 0.000 % of the basis function pairs === 
 === bvk cell = 39 has 0.000 % of the basis function pairs === 
 === bvk cell = 40 has 5.000 % of the basis function pairs === 
 === bvk cell = 41 has 13.750 % of the basis function pairs === 
 === bvk cell = 42 has 13.750 % of the basis function pairs === 
 === bvk cell = 43 has 0.000 % of the basis function pairs === 
 === bvk cell = 44 has 0.000 % of the basis function pairs === 
 === bvk cell = 45 has 0.000 % of the basis function pairs === 
 === bvk cell = 46 has 0.000 % of the basis function pairs === 
 === bvk cell = 47 has 0.000 % of the basis function pairs === 
 === bvk cell = 48 has 42.014 % of the basis function pairs === 
 === bvk cell = 49 has 56.042 % of the basis function pairs === 
 === bvk cell = 50 has 30.556 % of the basis function pairs === 
 === bvk cell = 51 has 13.750 % of the basis function pairs === 
 === bvk cell = 52 has 0.000 % of the basis function pairs === 
 === bvk cell = 53 has 0.000 % of the basis function pairs === 
 === bvk cell = 54 has 0.000 % of the basis function pairs === 
 === bvk cell = 55 has 15.833 % of the basis function pairs === 
 === bvk cell = 56 has 95.625 % of the basis function pairs === 
 === bvk cell = 57 has 100.000 % of the basis function pairs === 
 === bvk cell = 58 has 56.042 % of the basis function pairs === 
 === bvk cell = 59 has 13.750 % of the basis function pairs === 
 === bvk cell = 60 has 0.000 % of the basis function pairs === 
 === bvk cell = 61 has 0.000 % of the basis function pairs === 
 === bvk cell = 62 has 15.833 % of the basis function pairs === 
 === bvk cell = 63 has 58.333 % of the basis function pairs === 
 === bvk cell = 64 has 95.625 % of the basis function pairs === 
 === bvk cell = 65 has 58.333 % of the basis function pairs === 
 === bvk cell = 66 has 15.833 % of the basis function pairs === 
 === bvk cell = 67 has 0.000 % of the basis function pairs === 
 === bvk cell = 68 has 0.000 % of the basis function pairs === 
 === bvk cell = 69 has 13.750 % of the basis function pairs === 
 === bvk cell = 70 has 56.042 % of the basis function pairs === 
 === bvk cell = 71 has 100.000 % of the basis function pairs === 
 === bvk cell = 72 has 58.333 % of the basis function pairs === 
 === bvk cell = 73 has 23.125 % of the basis function pairs === 
 === bvk cell = 74 has 3.611 % of the basis function pairs === 
 === bvk cell = 75 has 0.000 % of the basis function pairs === 
 === bvk cell = 76 has 0.000 % of the basis function pairs === 
 === bvk cell = 77 has 18.611 % of the basis function pairs === 
 === bvk cell = 78 has 54.583 % of the basis function pairs === 
 === bvk cell = 79 has 84.236 % of the basis function pairs === 
 === bvk cell = 80 has 15.833 % of the basis function pairs === 
 === bvk cell = 81 has 3.611 % of the basis function pairs === 
 === bvk cell = 82 has 0.000 % of the basis function pairs === 
 === bvk cell = 83 has 0.000 % of the basis function pairs === 
 === bvk cell = 84 has 0.000 % of the basis function pairs === 
 === bvk cell = 85 has 15.972 % of the basis function pairs === 
 === bvk cell = 86 has 22.083 % of the basis function pairs === 
 === bvk cell = 87 has 26.736 % of the basis function pairs === 
 === bvk cell = 88 has 0.000 % of the basis function pairs === 
 === bvk cell = 89 has 0.000 % of the basis function pairs === 
 === bvk cell = 90 has 0.000 % of the basis function pairs === 
 === bvk cell = 91 has 0.000 % of the basis function pairs === 
 === bvk cell = 92 has 0.000 % of the basis function pairs === 
 === bvk cell = 93 has 0.000 % of the basis function pairs === 
 === bvk cell = 94 has 3.611 % of the basis function pairs === 
 === bvk cell = 95 has 3.611 % of the basis function pairs === 
 === bvk cell = 96 has 0.000 % of the basis function pairs === 
 === bvk cell = 97 has 0.000 % of the basis function pairs === 
 === bvk cell = 98 has 0.000 % of the basis function pairs === 
 === bvk cell = 99 has 0.000 % of the basis function pairs === 
 === bvk cell = 100 has 0.000 % of the basis function pairs === 
 === bvk cell = 101 has 0.000 % of the basis function pairs === 
 === bvk cell = 102 has 0.000 % of the basis function pairs === 
 === bvk cell = 103 has 0.000 % of the basis function pairs === 
 === bvk cell = 104 has 13.750 % of the basis function pairs === 
 === bvk cell = 105 has 18.611 % of the basis function pairs === 
 === bvk cell = 106 has 15.972 % of the basis function pairs === 
 === bvk cell = 107 has 0.000 % of the basis function pairs === 
 === bvk cell = 108 has 0.000 % of the basis function pairs === 
 === bvk cell = 109 has 0.000 % of the basis function pairs === 
 === bvk cell = 110 has 0.000 % of the basis function pairs === 
 === bvk cell = 111 has 3.611 % of the basis function pairs === 
 === bvk cell = 112 has 56.042 % of the basis function pairs === 
 === bvk cell = 113 has 54.583 % of the basis function pairs === 
 === bvk cell = 114 has 22.083 % of the basis function pairs === 
 === bvk cell = 115 has 3.611 % of the basis function pairs === 
 === bvk cell = 116 has 0.000 % of the basis function pairs === 
 === bvk cell = 117 has 0.000 % of the basis function pairs === 
 === bvk cell = 118 has 5.000 % of the basis function pairs === 
 === bvk cell = 119 has 26.736 % of the basis function pairs === 
 === bvk cell = 120 has 100.000 % of the basis function pairs === 
 === bvk cell = 121 has 84.236 % of the basis function pairs === 
 === bvk cell = 122 has 26.736 % of the basis function pairs === 
 === bvk cell = 123 has 3.611 % of the basis function pairs === 
 === bvk cell = 124 has 0.000 % of the basis function pairs === 
 === bvk cell = 125 has 3.611 % of the basis function pairs === 
 === bvk cell = 126 has 26.736 % of the basis function pairs === 
 === bvk cell = 127 has 84.236 % of the basis function pairs === 
 === bvk cell = 128 has 42.014 % of the basis function pairs === 
 === bvk cell = 129 has 15.833 % of the basis function pairs === 
 === bvk cell = 130 has 0.000 % of the basis function pairs === 
 === bvk cell = 131 has 0.000 % of the basis function pairs === 
 === bvk cell = 132 has 0.000 % of the basis function pairs === 
 === bvk cell = 133 has 13.750 % of the basis function pairs === 
 === bvk cell = 134 has 30.556 % of the basis function pairs === 
 === bvk cell = 135 has 56.042 % of the basis function pairs === 
 === bvk cell = 136 has 15.833 % of the basis function pairs === 
 === bvk cell = 137 has 3.611 % of the basis function pairs === 
 === bvk cell = 138 has 0.000 % of the basis function pairs === 
 === bvk cell = 139 has 0.000 % of the basis function pairs === 
 === bvk cell = 140 has 0.000 % of the basis function pairs === 
 === bvk cell = 141 has 15.972 % of the basis function pairs === 
 === bvk cell = 142 has 22.083 % of the basis function pairs === 
 === bvk cell = 143 has 26.736 % of the basis function pairs === 
 === bvk cell = 144 has 0.000 % of the basis function pairs === 
 === bvk cell = 145 has 0.000 % of the basis function pairs === 
 === bvk cell = 146 has 0.000 % of the basis function pairs === 
 === bvk cell = 147 has 0.000 % of the basis function pairs === 
 === bvk cell = 148 has 0.000 % of the basis function pairs === 
 === bvk cell = 149 has 0.000 % of the basis function pairs === 
 === bvk cell = 150 has 8.333 % of the basis function pairs === 
 === bvk cell = 151 has 5.000 % of the basis function pairs === 
 === bvk cell = 152 has 0.000 % of the basis function pairs === 
 === bvk cell = 153 has 0.000 % of the basis function pairs === 
 === bvk cell = 154 has 0.000 % of the basis function pairs === 
 === bvk cell = 155 has 0.000 % of the basis function pairs === 
 === bvk cell = 156 has 0.000 % of the basis function pairs === 
 === bvk cell = 157 has 0.000 % of the basis function pairs === 
 === bvk cell = 158 has 0.000 % of the basis function pairs === 
 === bvk cell = 159 has 0.000 % of the basis function pairs === 
 === bvk cell = 160 has 0.000 % of the basis function pairs === 
 === bvk cell = 161 has 0.000 % of the basis function pairs === 
 === bvk cell = 162 has 0.000 % of the basis function pairs === 
 === bvk cell = 163 has 0.000 % of the basis function pairs === 
 === bvk cell = 164 has 0.000 % of the basis function pairs === 
 === bvk cell = 165 has 0.000 % of the basis function pairs === 
 === bvk cell = 166 has 0.000 % of the basis function pairs === 
 === bvk cell = 167 has 0.000 % of the basis function pairs === 
 === bvk cell = 168 has 13.750 % of the basis function pairs === 
 === bvk cell = 169 has 15.972 % of the basis function pairs === 
 === bvk cell = 170 has 0.000 % of the basis function pairs === 
 === bvk cell = 171 has 0.000 % of the basis function pairs === 
 === bvk cell = 172 has 0.000 % of the basis function pairs === 
 === bvk cell = 173 has 0.000 % of the basis function pairs === 
 === bvk cell = 174 has 0.000 % of the basis function pairs === 
 === bvk cell = 175 has 3.611 % of the basis function pairs === 
 === bvk cell = 176 has 30.556 % of the basis function pairs === 
 === bvk cell = 177 has 22.083 % of the basis function pairs === 
 === bvk cell = 178 has 8.333 % of the basis function pairs === 
 === bvk cell = 179 has 0.000 % of the basis function pairs === 
 === bvk cell = 180 has 0.000 % of the basis function pairs === 
 === bvk cell = 181 has 0.000 % of the basis function pairs === 
 === bvk cell = 182 has 8.333 % of the basis function pairs === 
 === bvk cell = 183 has 22.083 % of the basis function pairs === 
 === bvk cell = 184 has 56.042 % of the basis function pairs === 
 === bvk cell = 185 has 26.736 % of the basis function pairs === 
 === bvk cell = 186 has 5.000 % of the basis function pairs === 
 === bvk cell = 187 has 0.000 % of the basis function pairs === 
[...]
 2.94356 3.13137 3.63617 3.71359 3.81628 3.84027 6.29110 6.87538
 == 482-th k-point (-0.30616,0.15308,0.45924) occupation: 14==
 -64.99266 -64.99264 -4.62153 -4.62143 -3.03240 -3.03239 -3.03217 -3.03188 -3.03167 -3.03164
 -0.05837 0.02581 0.14811 0.19540 0.39109 0.39374 0.49751 0.54468 0.55088 0.67744
 0.71576 0.74224 0.85872 0.86774 0.95954 0.98346 1.01699 1.07978 1.08421 1.12931
 1.24289 1.24792 1.30758 1.34671 1.41490 1.45054 1.47896 1.51549 1.59070 1.63804
 1.64548 1.76988 1.77572 1.85086 1.89671 1.90718 1.93853 2.02637 2.09833 2.16458
 2.20714 2.22935 2.28311 2.35427 2.45744 2.46785 2.48944 2.51438 2.62116 2.66062
 3.02253 3.24963 3.62389 3.62852 3.93128 4.00127 6.41036 7.18116
 == 483-th k-point (-0.22962,0.22962,0.38270) occupation: 14==
 -64.99267 -64.99262 -4.62154 -4.62142 -3.03239 -3.03239 -3.03222 -3.03182 -3.03168 -3.03167
 -0.07502 0.02702 0.19134 0.21739 0.35879 0.40789 0.43030 0.55113 0.61581 0.67594
 0.71377 0.71787 0.74497 0.84273 0.96965 1.04510 1.05486 1.09106 1.12717 1.14472
 1.23749 1.30983 1.35075 1.36239 1.39942 1.44373 1.48091 1.53509 1.56109 1.60712
 1.62913 1.71108 1.83018 1.83650 1.90436 1.97119 1.97191 2.02426 2.07417 2.16634
 2.24979 2.29612 2.33162 2.38163 2.40244 2.45793 2.46459 2.51307 2.54369 2.58920
 3.29941 3.43330 3.53173 3.65213 4.05137 4.06605 5.46153 7.81372
 == 484-th k-point (-0.15308,0.30616,0.30616) occupation: 14==
 -64.99267 -64.99263 -4.62155 -4.62141 -3.03239 -3.03238 -3.03223 -3.03182 -3.03169 -3.03167
 -0.08408 0.04074 0.18459 0.22840 0.36491 0.41197 0.42145 0.56957 0.58447 0.62307
 0.70203 0.74557 0.82094 0.82278 0.91814 1.00168 1.06821 1.11924 1.14096 1.20339
 1.22007 1.26494 1.35234 1.38004 1.43137 1.43690 1.44978 1.54250 1.58394 1.60617
 1.62399 1.73416 1.83478 1.84006 1.90415 1.90434 2.01531 2.03969 2.05336 2.18053
 2.20755 2.28987 2.29506 2.36482 2.44391 2.44547 2.51618 2.51934 2.53955 2.59897
 3.12998 3.42233 3.50816 3.73703 4.02622 4.08844 6.00081 7.75714
 == 485-th k-point (-0.07654,0.38270,0.22962) occupation: 14==
 -64.99266 -64.99265 -4.62155 -4.62142 -3.03239 -3.03239 -3.03219 -3.03186 -3.03168 -3.03165
 -0.08250 0.06080 0.15279 0.20396 0.38398 0.40927 0.46375 0.49880 0.61720 0.63983
 0.72852 0.76305 0.81045 0.84903 0.94159 0.96679 1.00416 1.09209 1.12142 1.16055
 1.20932 1.26801 1.32074 1.38987 1.41860 1.47594 1.50170 1.53426 1.58529 1.63799
 1.68552 1.72535 1.78078 1.83508 1.90055 1.94194 1.96659 2.01536 2.07014 2.16018
 2.17953 2.21543 2.26759 2.34942 2.39087 2.42074 2.46735 2.51160 2.59350 2.71211
 3.01610 3.38476 3.50941 3.82587 3.92918 4.00245 6.58404 7.49991
 == 486-th k-point (0.00000,0.45924,0.15308) occupation: 14==
 -64.99265 -64.99265 -4.62153 -4.62143 -3.03241 -3.03239 -3.03214 -3.03192 -3.03166 -3.03164
 -0.06872 0.05662 0.15101 0.17321 0.34931 0.37583 0.49109 0.57477 0.65962 0.66043
 0.75790 0.78303 0.80642 0.82942 0.91501 0.92958 1.03205 1.03613 1.12025 1.12184
 1.17444 1.21452 1.27993 1.34391 1.42803 1.45442 1.58233 1.58307 1.62958 1.66567
 1.68933 1.72418 1.81786 1.86040 1.88619 1.91857 1.99696 2.05402 2.06745 2.10170
 2.17369 2.22785 2.24866 2.33735 2.37128 2.38997 2.40627 2.50013 2.61276 2.81537
 2.96768 3.29616 3.54747 3.83074 3.85138 3.95998 6.75915 6.84921
 == 487-th k-point (0.07654,0.53578,0.07654) occupation: 14==
 -64.99266 -64.99263 -4.62151 -4.62145 -3.03240 -3.03240 -3.03208 -3.03197 -3.03166 -3.03164
 -0.04301 0.02472 0.14821 0.17582 0.31069 0.35043 0.58542 0.58769 0.67922 0.68622
 0.74380 0.75445 0.83259 0.84441 0.88706 0.99115 1.00729 1.03182 1.07300 1.14057
 1.14854 1.18845 1.20639 1.29434 1.41429 1.47355 1.57751 1.57996 1.70439 1.72503
 1.76291 1.77082 1.80753 1.85687 1.85947 1.93146 2.01906 2.04122 2.09941 2.14843
 2.15331 2.20912 2.29079 2.33533 2.33814 2.39649 2.49189 2.54168 2.59767 2.74956
 3.04012 3.05250 3.65046 3.78321 3.90576 4.03228 5.48245 7.32217
 == 488-th k-point (-0.38270,-0.07654,0.68887) occupation: 14==
 -64.99265 -64.99264 -4.62151 -4.62145 -3.03241 -3.03240 -3.03210 -3.03195 -3.03165 -3.03163
 -0.03643 0.02090 0.12527 0.16580 0.36597 0.43677 0.47298 0.55359 0.59201 0.69462
 0.73587 0.81027 0.85662 0.88144 0.93985 0.97179 0.98945 1.01808 1.08747 1.10760
 1.14869 1.21390 1.24289 1.34431 1.40530 1.44613 1.52234 1.55261 1.56363 1.60016
 1.74217 1.78715 1.82405 1.85501 1.91801 1.94710 1.97315 2.02691 2.06238 2.14631
 2.18416 2.21732 2.27619 2.35265 2.38555 2.45260 2.45814 2.53458 2.63533 2.71359
 2.94357 3.13133 3.63615 3.71358 3.81631 3.84027 6.29106 6.87539
 == 489-th k-point (-0.30616,0.00000,0.61232) occupation: 14==
 -64.99265 -64.99265 -4.62148 -4.62148 -3.03241 -3.03241 -3.03202 -3.03202 -3.03163 -3.03163
 -0.00550 -0.00550 0.13287 0.13287 0.43662 0.43662 0.46229 0.46229 0.67411 0.67411
 0.76596 0.76596 0.89415 0.89415 0.97948 0.97948 0.99313 0.99313 1.03606 1.03606
 1.17601 1.17601 1.32698 1.32699 1.41703 1.41703 1.46668 1.46668 1.59062 1.59062
 1.76771 1.76771 1.85043 1.85045 1.97211 1.97212 2.01712 2.01713 2.11526 2.11527
 2.17002 2.17003 2.27107 2.27108 2.44511 2.44512 2.49695 2.49696 2.68661 2.68665
 3.02567 3.02568 3.71585 3.71585 3.72870 3.72872 6.48462 6.48464
 == 490-th k-point (-0.22962,0.07654,0.53578) occupation: 14==
 -64.99265 -64.99264 -4.62151 -4.62145 -3.03241 -3.03240 -3.03210 -3.03195 -3.03165 -3.03163
 -0.03643 0.02090 0.12527 0.16580 0.36597 0.43677 0.47298 0.55359 0.59201 0.69462
 0.73587 0.81027 0.85662 0.88144 0.93985 0.97179 0.98945 1.01808 1.08747 1.10760
 1.14869 1.21390 1.24289 1.34431 1.40530 1.44612 1.52234 1.55263 1.56363 1.60015
 1.74217 1.78715 1.82406 1.85500 1.91801 1.94710 1.97314 2.02692 2.06238 2.14631
 2.18416 2.21731 2.27620 2.35266 2.38556 2.45260 2.45816 2.53458 2.63544 2.71359
 2.94356 3.13137 3.63617 3.71359 3.81628 3.84027 6.29110 6.87538
 == 491-th k-point (-0.15308,0.15308,0.45924) occupation: 14==
 -64.99267 -64.99263 -4.62153 -4.62143 -3.03240 -3.03240 -3.03216 -3.03189 -3.03167 -3.03164
 -0.06406 0.04092 0.14489 0.19356 0.33382 0.44296 0.49004 0.49817 0.65670 0.67643
 0.73796 0.75340 0.76657 0.90808 0.96059 0.98010 1.02541 1.02619 1.04391 1.16472
 1.18907 1.24836 1.26063 1.39505 1.43794 1.46506 1.47765 1.52488 1.62451 1.68811
 1.69856 1.72721 1.80552 1.81645 1.87932 1.94857 2.00475 2.01838 2.10100 2.10758
 2.18175 2.25807 2.30244 2.36418 2.39730 2.40135 2.42327 2.52713 2.57530 2.69084
 3.17586 3.32281 3.55669 3.73588 3.92866 3.97892 5.71931 7.84760
 == 492-th k-point (-0.07654,0.22962,0.38270) occupation: 14==
 -64.99266 -64.99265 -4.62155 -4.62142 -3.03239 -3.03239 -3.03219 -3.03186 -3.03168 -3.03165
 -0.08250 0.06080 0.15279 0.20396 0.38398 0.40927 0.46375 0.49880 0.61720 0.63983
 0.72852 0.76305 0.81045 0.84903 0.94159 0.96679 1.00416 1.09209 1.12142 1.16055
 1.20932 1.26801 1.32074 1.38987 1.41860 1.47594 1.50170 1.53426 1.58529 1.63799
 1.68552 1.72535 1.78078 1.83508 1.90055 1.94194 1.96659 2.01536 2.07014 2.16018
 2.17953 2.21543 2.26759 2.34942 2.39087 2.42074 2.46735 2.51160 2.59350 2.71211
 3.01610 3.38476 3.50941 3.82587 3.92918 4.00245 6.58404 7.49991
 == 493-th k-point (0.00000,0.30616,0.30616) occupation: 14==
 -64.99266 -64.99265 -4.62155 -4.62141 -3.03239 -3.03238 -3.03221 -3.03185 -3.03169 -3.03165
 -0.08891 0.07423 0.13671 0.22615 0.36822 0.45430 0.46881 0.50327 0.52398 0.63600
 0.74751 0.77389 0.78114 0.91432 0.93166 0.93301 0.98526 1.09108 1.18595 1.19650
 1.24345 1.25453 1.31601 1.38456 1.39147 1.39733 1.50244 1.61403 1.62366 1.62707
 1.71365 1.74375 1.75812 1.77242 1.90512 1.91978 1.94473 2.05130 2.12344 2.15058
 2.15480 2.18865 2.29500 2.35372 2.36268 2.40502 2.50191 2.58426 2.59971 2.69408
 2.88956 3.41786 3.49126 3.87139 3.94560 4.04239 6.77877 7.55174
 == 494-th k-point (0.07654,0.38270,0.22962) occupation: 14==
 -64.99266 -64.99265 -4.62155 -4.62142 -3.03239 -3.03239 -3.03219 -3.03186 -3.03168 -3.03165
 -0.08250 0.06080 0.15279 0.20396 0.38398 0.40927 0.46375 0.49880 0.61720 0.63983
 0.72851 0.76305 0.81046 0.84903 0.94158 0.96679 1.00416 1.09209 1.12142 1.16055
 1.20932 1.26801 1.32074 1.38986 1.41860 1.47595 1.50170 1.53426 1.58528 1.63799
 1.68552 1.72535 1.78078 1.83507 1.90055 1.94193 1.96659 2.01534 2.07014 2.16018
 2.17953 2.21542 2.26760 2.34942 2.39086 2.42073 2.46734 2.51159 2.59351 2.71208
 3.01607 3.38475 3.50940 3.82589 3.92918 4.00241 6.58401 7.49987
 == 495-th k-point (0.15308,0.45924,0.15308) occupation: 14==
 -64.99267 -64.99263 -4.62153 -4.62143 -3.03240 -3.03240 -3.03216 -3.03189 -3.03167 -3.03164
 -0.06406 0.04092 0.14489 0.19356 0.33382 0.44296 0.49004 0.49817 0.65670 0.67643
 0.73796 0.75340 0.76657 0.90808 0.96059 0.98010 1.02542 1.02619 1.04391 1.16472
 1.18907 1.24836 1.26063 1.39505 1.43794 1.46506 1.47764 1.52488 1.62445 1.68811
 1.69855 1.72721 1.80551 1.81644 1.87932 1.94856 2.00474 2.01838 2.10100 2.10757
 2.18175 2.25807 2.30243 2.36418 2.39730 2.40134 2.42325 2.52702 2.57530 2.69084
 3.17584 3.32257 3.55667 3.73588 3.92867 3.97892 5.71930 7.84756
 == 496-th k-point (-0.30616,-0.15308,0.76541) occupation: 14==
 -64.99266 -64.99264 -4.62153 -4.62143 -3.03240 -3.03239 -3.03217 -3.03188 -3.03167 -3.03164
 -0.05837 0.02581 0.14811 0.19540 0.39109 0.39374 0.49751 0.54468 0.55088 0.67744
 0.71576 0.74224 0.85872 0.86774 0.95955 0.98346 1.01699 1.07978 1.08421 1.12931
 1.24290 1.24792 1.30758 1.34671 1.41490 1.45049 1.47896 1.51549 1.59071 1.63805
 1.64548 1.76987 1.77575 1.85086 1.89672 1.90717 1.93853 2.02638 2.09832 2.16457
 2.20713 2.22935 2.28311 2.35428 2.45741 2.46785 2.48943 2.51436 2.62101 2.66058
 3.02252 3.24963 3.62387 3.62848 3.93132 4.00127 6.41038 7.18114
 == 497-th k-point (-0.22962,-0.07654,0.68887) occupation: 14==
 -64.99265 -64.99264 -4.62151 -4.62145 -3.03241 -3.03240 -3.03210 -3.03195 -3.03165 -3.03163
 -0.03643 0.02090 0.12527 0.16580 0.36597 0.43677 0.47298 0.55359 0.59201 0.69462
 0.73587 0.81027 0.85662 0.88144 0.93985 0.97179 0.98945 1.01808 1.08747 1.10760
 1.14869 1.21390 1.24289 1.34431 1.40530 1.44613 1.52234 1.55261 1.56363 1.60016
 1.74217 1.78715 1.82405 1.85501 1.91801 1.94710 1.97315 2.02691 2.06238 2.14631
 2.18416 2.21732 2.27619 2.35265 2.38555 2.45260 2.45814 2.53458 2.63533 2.71359
 2.94357 3.13133 3.63615 3.71358 3.81631 3.84027 6.29106 6.87539
 == 498-th k-point (-0.15308,0.00000,0.61232) occupation: 14==
 -64.99265 -64.99265 -4.62148 -4.62148 -3.03241 -3.03241 -3.03203 -3.03202 -3.03163 -3.03163
 -0.00872 -0.00872 0.14890 0.14890 0.35049 0.35049 0.56914 0.56914 0.67458 0.67458
 0.75984 0.75984 0.86218 0.86218 0.93666 0.93667 1.00764 1.00764 1.10227 1.10227
 1.16739 1.16739 1.21759 1.21760 1.47008 1.47008 1.55701 1.55701 1.62288 1.62289
 1.79411 1.79412 1.83205 1.83205 1.92938 1.92938 2.01523 2.01524 2.11721 2.11721
 2.18205 2.18207 2.30636 2.30637 2.39471 2.39471 2.51719 2.51724 2.71177 2.71186
 2.97719 2.97724 3.71616 3.71617 3.82104 3.82105 6.55996 6.56002
 == 499-th k-point (-0.07654,0.07654,0.53578) occupation: 14==
 -64.99266 -64.99263 -4.62151 -4.62145 -3.03240 -3.03240 -3.03208 -3.03197 -3.03166 -3.03164
 -0.04301 0.02472 0.14821 0.17582 0.31069 0.35043 0.58542 0.58769 0.67922 0.68622
 0.74380 0.75445 0.83259 0.84441 0.88706 0.99115 1.00729 1.03183 1.07300 1.14056
 1.14854 1.18845 1.20639 1.29434 1.41428 1.47355 1.57751 1.57996 1.70432 1.72505
 1.76291 1.77081 1.80753 1.85687 1.85947 1.93149 2.01907 2.04111 2.09945 2.14844
 2.15318 2.20912 2.29071 2.33533 2.33815 2.39648 2.49192 2.54143 2.59775 2.74966
 3.04017 3.05235 3.65047 3.78321 3.90575 4.03211 5.48246 7.32246
 == 500-th k-point (0.00000,0.15308,0.45924) occupation: 14==
 -64.99265 -64.99265 -4.62153 -4.62143 -3.03241 -3.03239 -3.03214 -3.03192 -3.03166 -3.03164
 -0.06872 0.05662 0.15101 0.17321 0.34931 0.37583 0.49109 0.57477 0.65962 0.66043
 0.75790 0.78303 0.80642 0.82942 0.91501 0.92958 1.03205 1.03613 1.12025 1.12184
 1.17444 1.21452 1.27993 1.34391 1.42803 1.45442 1.58233 1.58307 1.62958 1.66567
 1.68933 1.72418 1.81786 1.86040 1.88619 1.91857 1.99696 2.05402 2.06745 2.10170
 2.17369 2.22785 2.24866 2.33735 2.37128 2.38997 2.40627 2.50013 2.61276 2.81537
 2.96768 3.29616 3.54747 3.83074 3.85138 3.95998 6.75915 6.84921
 == 501-th k-point (0.07654,0.22962,0.38270) occupation: 14==
 -64.99266 -64.99265 -4.62155 -4.62142 -3.03239 -3.03239 -3.03219 -3.03186 -3.03168 -3.03165
 -0.08250 0.06080 0.15279 0.20396 0.38398 0.40927 0.46375 0.49880 0.61720 0.63983
 0.72851 0.76305 0.81046 0.84903 0.94158 0.96679 1.00416 1.09209 1.12142 1.16055
 1.20932 1.26801 1.32074 1.38986 1.41860 1.47595 1.50170 1.53426 1.58528 1.63799
 1.68552 1.72535 1.78078 1.83507 1.90055 1.94193 1.96659 2.01534 2.07014 2.16018
 2.17953 2.21542 2.26760 2.34942 2.39086 2.42073 2.46734 2.51159 2.59351 2.71208
 3.01607 3.38475 3.50940 3.82589 3.92918 4.00241 6.58401 7.49987
 == 502-th k-point (0.15308,0.30616,0.30616) occupation: 14==
 -64.99267 -64.99263 -4.62155 -4.62141 -3.03239 -3.03238 -3.03223 -3.03182 -3.03169 -3.03167
 -0.08408 0.04074 0.18459 0.22840 0.36491 0.41197 0.42145 0.56957 0.58447 0.62307
 0.70203 0.74557 0.82094 0.82278 0.91814 1.00167 1.06821 1.11924 1.14096 1.20339
 1.22007 1.26493 1.35234 1.38004 1.43137 1.43690 1.44978 1.54250 1.58394 1.60617
 1.62399 1.73414 1.83478 1.84005 1.90415 1.90434 2.01531 2.03967 2.05336 2.18052
 2.20754 2.28987 2.29506 2.36480 2.44391 2.44546 2.51617 2.51932 2.53955 2.59890
 3.12994 3.42233 3.50813 3.73702 4.02621 4.08842 6.00066 7.75709
 == 503-th k-point (0.22962,0.38270,0.22962) occupation: 14==
 -64.99267 -64.99262 -4.62154 -4.62142 -3.03239 -3.03239 -3.03222 -3.03182 -3.03168 -3.03167
 -0.07502 0.02702 0.19134 0.21739 0.35879 0.40789 0.43030 0.55113 0.61581 0.67594
 0.71377 0.71787 0.74497 0.84273 0.96965 1.04510 1.05486 1.09107 1.12717 1.14472
 1.23749 1.30983 1.35076 1.36238 1.39942 1.44373 1.48091 1.53509 1.56109 1.60709
 1.62914 1.71108 1.83017 1.83650 1.90436 1.97119 1.97191 2.02426 2.07417 2.16634
 2.24978 2.29613 2.33156 2.38162 2.40244 2.45792 2.46460 2.51299 2.54368 2.58916
 3.29940 3.43320 3.53171 3.65210 4.05139 4.06606 5.46154 7.81368
 == 504-th k-point (-0.22962,-0.22962,0.84195) occupation: 14==
 -64.99267 -64.99262 -4.62154 -4.62142 -3.03239 -3.03239 -3.03222 -3.03182 -3.03168 -3.03167
 -0.07502 0.02702 0.19134 0.21739 0.35879 0.40789 0.43030 0.55113 0.61581 0.67594
 0.71377 0.71787 0.74497 0.84273 0.96965 1.04510 1.05486 1.09107 1.12717 1.14472
 1.23749 1.30983 1.35076 1.36238 1.39942 1.44373 1.48091 1.53509 1.56109 1.60709
 1.62914 1.71108 1.83017 1.83650 1.90436 1.97119 1.97191 2.02426 2.07417 2.16634
 2.24978 2.29613 2.33156 2.38162 2.40244 2.45792 2.46460 2.51299 2.54368 2.58916
 3.29940 3.43320 3.53171 3.65210 4.05139 4.06606 5.46154 7.81368
 == 505-th k-point (-0.15308,-0.15308,0.76541) occupation: 14==
 -64.99267 -64.99263 -4.62153 -4.62143 -3.03240 -3.03240 -3.03216 -3.03189 -3.03167 -3.03164
 -0.06406 0.04092 0.14489 0.19356 0.33382 0.44296 0.49004 0.49817 0.65670 0.67643
 0.73796 0.75340 0.76657 0.90808 0.96059 0.98010 1.02542 1.02619 1.04391 1.16472
 1.18907 1.24836 1.26063 1.39505 1.43794 1.46506 1.47764 1.52488 1.62445 1.68811
 1.69855 1.72721 1.80551 1.81644 1.87932 1.94856 2.00474 2.01838 2.10100 2.10757
 2.18175 2.25807 2.30243 2.36418 2.39730 2.40134 2.42325 2.52702 2.57530 2.69084
 3.17584 3.32257 3.55667 3.73588 3.92867 3.97892 5.71930 7.84756
 == 506-th k-point (-0.07654,-0.07654,0.68887) occupation: 14==
 -64.99266 -64.99263 -4.62151 -4.62145 -3.03240 -3.03240 -3.03208 -3.03197 -3.03166 -3.03164
 -0.04301 0.02472 0.14821 0.17582 0.31069 0.35043 0.58542 0.58769 0.67922 0.68622
 0.74380 0.75445 0.83259 0.84441 0.88706 0.99115 1.00729 1.03182 1.07300 1.14057
 1.14854 1.18845 1.20639 1.29434 1.41429 1.47355 1.57751 1.57996 1.70439 1.72503
 1.76291 1.77082 1.80753 1.85687 1.85947 1.93146 2.01906 2.04122 2.09941 2.14843
 2.15331 2.20912 2.29079 2.33533 2.33814 2.39649 2.49189 2.54168 2.59767 2.74956
 3.04012 3.05250 3.65046 3.78321 3.90576 4.03228 5.48245 7.32217
 == 507-th k-point (0.00000,0.00000,0.61232) occupation: 14==
 -64.99263 -64.99263 -4.62148 -4.62148 -3.03240 -3.03240 -3.03202 -3.03202 -3.03167 -3.03167
 -0.01163 -0.01163 0.16952 0.16952 0.30395 0.30395 0.64994 0.64994 0.69683 0.69683
 0.75186 0.75186 0.75872 0.75872 0.99842 0.99842 1.04421 1.04422 1.06834 1.06834
 1.11744 1.11744 1.27237 1.27237 1.42111 1.42113 1.63526 1.63526 1.75538 1.75538
 1.76869 1.76869 1.84913 1.84913 1.89715 1.89715 2.11784 2.11784 2.15502 2.15502
 2.17191 2.17315 2.25558 2.25558 2.34461 2.34461 2.65590 2.65776 2.66309 2.66311
 2.83538 2.83538 3.83506 3.83507 4.13243 4.13328 5.45528 5.45530
 == 508-th k-point (0.07654,0.07654,0.53578) occupation: 14==
 -64.99266 -64.99263 -4.62151 -4.62145 -3.03240 -3.03240 -3.03208 -3.03197 -3.03166 -3.03164
 -0.04301 0.02472 0.14821 0.17582 0.31069 0.35043 0.58542 0.58769 0.67922 0.68622
 0.74380 0.75445 0.83259 0.84441 0.88706 0.99115 1.00729 1.03182 1.07300 1.14057
 1.14854 1.18845 1.20639 1.29434 1.41429 1.47355 1.57751 1.57996 1.70439 1.72503
 1.76291 1.77082 1.80753 1.85687 1.85947 1.93146 2.01906 2.04122 2.09941 2.14843
 2.15331 2.20912 2.29079 2.33533 2.33814 2.39649 2.49189 2.54168 2.59767 2.74956
 3.04012 3.05250 3.65046 3.78321 3.90576 4.03228 5.48245 7.32217
 == 509-th k-point (0.15308,0.15308,0.45924) occupation: 14==
 -64.99267 -64.99263 -4.62153 -4.62143 -3.03240 -3.03240 -3.03216 -3.03189 -3.03167 -3.03164
 -0.06406 0.04092 0.14489 0.19356 0.33382 0.44296 0.49004 0.49817 0.65670 0.67643
 0.73796 0.75340 0.76657 0.90808 0.96059 0.98010 1.02542 1.02619 1.04391 1.16472
 1.18907 1.24836 1.26063 1.39505 1.43794 1.46506 1.47764 1.52488 1.62445 1.68811
 1.69855 1.72721 1.80551 1.81644 1.87932 1.94856 2.00474 2.01838 2.10100 2.10757
 2.18175 2.25807 2.30243 2.36418 2.39730 2.40134 2.42325 2.52702 2.57530 2.69084
 3.17584 3.32257 3.55667 3.73588 3.92867 3.97892 5.71930 7.84756
 == 510-th k-point (0.22962,0.22962,0.38270) occupation: 14==
 -64.99267 -64.99262 -4.62154 -4.62142 -3.03239 -3.03239 -3.03222 -3.03182 -3.03168 -3.03167
 -0.07502 0.02702 0.19134 0.21739 0.35879 0.40789 0.43030 0.55113 0.61581 0.67594
 0.71377 0.71787 0.74497 0.84273 0.96965 1.04510 1.05486 1.09107 1.12717 1.14472
 1.23749 1.30983 1.35076 1.36238 1.39942 1.44373 1.48091 1.53509 1.56109 1.60709
 1.62914 1.71108 1.83017 1.83650 1.90436 1.97119 1.97191 2.02426 2.07417 2.16634
 2.24978 2.29613 2.33156 2.38162 2.40244 2.45792 2.46460 2.51299 2.54368 2.58916
 3.29940 3.43320 3.53171 3.65210 4.05139 4.06606 5.46154 7.81368
 == 511-th k-point (0.30616,0.30616,0.30616) occupation: 14==
 -64.99267 -64.99259 -4.62154 -4.62141 -3.03238 -3.03238 -3.03225 -3.03178 -3.03169 -3.03169
 -0.07815 0.01874 0.23082 0.23082 0.33471 0.40197 0.40197 0.56689 0.68052 0.68052
 0.69968 0.70410 0.70410 0.76582 1.01832 1.03399 1.10985 1.10985 1.15919 1.15919
 1.25352 1.29789 1.29789 1.36113 1.36113 1.42146 1.54725 1.54725 1.55499 1.55499
 1.63736 1.64277 1.86227 1.93250 1.96205 1.96205 2.01465 2.01465 2.01473 2.08823
 2.34477 2.34477 2.42813 2.42813 2.43670 2.43670 2.45901 2.49392 2.49392 2.50315
 3.42769 3.42769 3.47023 3.58077 3.67415 4.10138 4.10138 7.72822
 ---------------------------------------------------------------------------
 VBM is at 219-th k-point with 7.51289 eV
 CBM is at 3-th k-point with 8.16564 eV
 Band gap is 0.65275 eV


           Ground-State Mulliken Net Atomic Charges

      Atom                 Charge (a.u.)          Spin (a.u.)
   --------------------------------------------------------
      1 Si               (0.000003,-0.000000)    (0.000000,0.000000)
      2 Si               (-0.000003,0.000000)    (0.000000,0.000000)
   --------------------------------------------------------
  Sum of atomic charges =     (-0.000000,-0.000000)
  Sum of spin   charges =       (0.000000,0.000000)



 Total job time:  252.34 s.
 Tue Sep  9 09:42:31 2025


        *************************************************************
        *                                                           *
        *  Thank you very much for using QCPBC. Have a nice day.    *
        *                                                           *
        *************************************************************

Running job 1 of 1
