                  Welcome to Q-Chem
           with Periodic Boundary Condition
     A Quantum Leap Into The Future Of Chemistry

 Adam Rettig, Xintian Feng, Meng-Fu Chen, Hieu Dinh, Stephen Quiton,
 Anton Ni, Paul J. Robinson, Jinghong Zhang, Joonho Lee

Contributors to earlier versions of Q-Chem not listed above:
 Evgeny Epifanovsky, Leo Cunha, Jerome F. Gonthier, Kuan-Yu Liu
 Input file: /n/netscratch/joonholee_lab/Lab/hieudinh//si_2_ccpvtz_omega_0.9_666.scratch20250909092157/si_2_ccpvtz_omega_0.9_666.0
 Scratch folder: /n/netscratch/joonholee_lab/Lab/hieudinh//si_2_ccpvtz_omega_0.9_666.scratch20250909092157
 Auxillary files located at: /n/holylabs/LABS/joonholee_lab/Lab/qchem_base/qcaux
 Q-Chem begins on Tue Sep  9 09:21:58 2025

 -------------------------------------------------------------
 User input:
 -------------------------------------------------------------
 $lattice
 3
 0.000000 5.130600 5.130600
 5.130600 0.000000 5.130600
 5.130600 5.130600 0.000000
 $end
 
 $unitcell
 ABSOLUTE
 0 1
 Si 0.000000 0.000000 0.000000
 Si 2.565300 2.565300 2.565300
 $end
 
 $rem
 jobtype = sp
 method = pbe
 scf_convergence = 5
 scf_guess = autosad
 scf_algorithm = diis_gdm
 basis = cc-pvtz
 aux_basis = cc-pvtz-jk
 input_bohr = true
 symmetry = false
 rsdf_print_level 1
 is_basis_uctr true
 
 mp_mesh = [6,6,6]
 
 integral_direct true
 bvk_cgto true
 
 thresh 14
 mem_total 1000000
 threads 32
 
 MAX_SCF_CYCLES 500
 madelung = false
 omega 0.9
 do_rij_bigmem true
 automate_g true
 print_level 10
 grid_type_xc 1
 
 thresh_1e2c_sp 1e-14
 thresh_2e3c_bra_ket_sep 1e-10
 thresh_g 1e-12
 $end
 
 -------------------------------------------------------------
 Running PBC job

 Requested Exchange Correlation Functionals: 
  DFT Exchange:  1.00000 pbe_x
  DFT Correlation:  1.00000 pbe_c
 using 32 threads for computing.
 ---------------------------------------------------------------
      Coordinates of Atoms in Central Unit Cell (Angstroms)
    I     Atom         X            Y            Z
 ---------------------------------------------------------------
    1      Si      0.000000     0.000000     0.000000
    2      Si      1.357498     1.357498     1.357498
 ---------------------------------------------------------------
 --------------------------------------------------
              Lattice Vectors (Angstroms)
              X            Y            Z
 --------------------------------------------------
   X       0.000000     2.714997     2.714997
   Y       2.714997     0.000000     2.714997
   Z       2.714997     2.714997     0.000000
 --------------------------------------------------
 --------------------------------------------------
       Reciprocal Lattice Vectors (Angstroms^-1)
              X            Y            Z
 --------------------------------------------------
   X      -1.157126     1.157126     1.157126
   Y       1.157126    -1.157126     1.157126
   Z       1.157126     1.157126    -1.157126
 --------------------------------------------------

 Single point calculation requested

 Hamiltonian contributions:
 List of terms in Hamiltonian: kpts_nn, kpts_kinetic, kpts_vnuc_df, kpts_xc, kpts_rij_bigmem

 K-Points calculation started.

 Basis set information about using solid harmonic (1) or Cartesian (0):
  si : D(1) D(1) F(1) 

 Basis set information about using solid harmonic (1) or Cartesian (0):
  si : D(1) D(1) D(1) D(1) D(1) D(1) D(1) D(1) D(1) F(1) F(1) F(1) G(1) 

 There are 68 basis functions in the central unit cell.
 Print atomic basis of atoms in the central unit cell:
 -------------------------------------------------------------
2 104 104 24

  0.00000000000000e+00  0.00000000000000e+00  0.00000000000000e+00
  2.56530000000000e+00  2.56530000000000e+00  2.56530000000000e+00

  2.54900000000000e+05
  3.81900000000000e+04
  8.69000000000000e+03
  2.46200000000000e+03
  8.04800000000000e+02
  2.91300000000000e+02
  1.13600000000000e+02
  4.67500000000000e+01
  1.98200000000000e+01
  7.70800000000000e+00
  3.34000000000000e+00
  2.54900000000000e+05
  3.81900000000000e+04
  8.69000000000000e+03
  8.04800000000000e+02
  2.91300000000000e+02
  1.13600000000000e+02
  4.67500000000000e+01
  1.98200000000000e+01
  7.70800000000000e+00
  3.34000000000000e+00
  1.40200000000000e+00
  2.54900000000000e+05
  3.81900000000000e+04
  8.69000000000000e+03
  2.91300000000000e+02
  1.13600000000000e+02
  4.67500000000000e+01
  1.98200000000000e+01
  7.70800000000000e+00
  3.34000000000000e+00
  1.40200000000000e+00
  2.07000000000000e-01
  4.38700000000000e-01
  7.94400000000000e-02
  4.81500000000000e+02
  1.13900000000000e+02
  3.62300000000000e+01
  1.33400000000000e+01
  5.25200000000000e+00
  2.12000000000000e+00
  1.13900000000000e+02
  3.62300000000000e+01
  1.33400000000000e+01
  5.25200000000000e+00
  2.12000000000000e+00
  2.52800000000000e-01
  8.56100000000000e-01
  7.88900000000000e-02
  4.81000000000000e-01
  1.59000000000000e-01
  3.36000000000000e-01
  2.54900000000000e+05
  3.81900000000000e+04
  8.69000000000000e+03
  2.46200000000000e+03
  8.04800000000000e+02
  2.91300000000000e+02
  1.13600000000000e+02
  4.67500000000000e+01
  1.98200000000000e+01
  7.70800000000000e+00
  3.34000000000000e+00
  2.54900000000000e+05
  3.81900000000000e+04
  8.69000000000000e+03
  8.04800000000000e+02
  2.91300000000000e+02
  1.13600000000000e+02
  4.67500000000000e+01
  1.98200000000000e+01
  7.70800000000000e+00
  3.34000000000000e+00
  1.40200000000000e+00
  2.54900000000000e+05
  3.81900000000000e+04
  8.69000000000000e+03
  2.91300000000000e+02
  1.13600000000000e+02
  4.67500000000000e+01
  1.98200000000000e+01
  7.70800000000000e+00
  3.34000000000000e+00
  1.40200000000000e+00
  2.07000000000000e-01
  4.38700000000000e-01
  7.94400000000000e-02
  4.81500000000000e+02
  1.13900000000000e+02
  3.62300000000000e+01
  1.33400000000000e+01
  5.25200000000000e+00
  2.12000000000000e+00
  1.13900000000000e+02
  3.62300000000000e+01
  1.33400000000000e+01
  5.25200000000000e+00
  2.12000000000000e+00
  2.52800000000000e-01
  8.56100000000000e-01
  7.88900000000000e-02
  4.81000000000000e-01
  1.59000000000000e-01
  3.36000000000000e-01

  5.06121931014315e-01
  9.46667895564849e-01
  1.63484840115776e+00
  2.64073594005923e+00
  3.97699155153283e+00
  5.40905960736848e+00
  6.15868961670172e+00
  4.99170532032548e+00
  2.02857976424901e+00
  1.82839763527352e-01
 -1.25640690342342e-02
  1.10808750449959e-03
  1.94415577975663e-03
  2.70023730632789e-03
 -1.69098200112149e-02
 -8.66890848691569e-02
 -2.76125946359713e-01
 -6.25588788447604e-01
 -6.61701688370681e-01
  3.11114524237060e-01
  9.56658906468163e-01
  4.36891217824705e-01
  1.05873342256663e-04
  1.52975802748887e-04
  4.28394863673135e-04
 -4.94070443505333e-03
 -1.17298035021286e-02
 -2.95023896611804e-02
 -1.71455066569284e-02
  3.00007138114875e-03
 -6.19326651465540e-02
 -2.59989143457351e-01
  2.47187614608056e-01
  3.84180942836044e-01
  1.06644759418552e-01
  6.70509611941243e+00
  8.84487660481054e+00
  9.82415782069442e+00
  8.40902910540583e+00
  4.80448757555754e+00
  1.55989499299286e+00
 -1.15889775037608e-01
 -5.13312293701512e-02
 -2.64771097977823e-01
 -6.52512718105956e-02
 -1.94608613796415e-01
  2.59380435893970e-01
  1.17380433533106e+00
  5.95960578383022e-02
  4.57260134599596e-01
  6.58952976069849e-02
  1.26537084505476e-01
  5.06121931014315e-01
  9.46667895564849e-01
  1.63484840115776e+00
  2.64073594005923e+00
  3.97699155153283e+00
  5.40905960736848e+00
  6.15868961670172e+00
  4.99170532032548e+00
  2.02857976424901e+00
  1.82839763527352e-01
 -1.25640690342342e-02
  1.10808750449959e-03
  1.94415577975663e-03
  2.70023730632789e-03
 -1.69098200112149e-02
 -8.66890848691569e-02
 -2.76125946359713e-01
 -6.25588788447604e-01
 -6.61701688370681e-01
  3.11114524237060e-01
  9.56658906468163e-01
  4.36891217824705e-01
  1.05873342256663e-04
  1.52975802748887e-04
  4.28394863673135e-04
 -4.94070443505333e-03
 -1.17298035021286e-02
 -2.95023896611804e-02
 -1.71455066569284e-02
  3.00007138114875e-03
 -6.19326651465540e-02
 -2.59989143457351e-01
  2.47187614608056e-01
  3.84180942836044e-01
  1.06644759418552e-01
  6.70509611941243e+00
  8.84487660481054e+00
  9.82415782069442e+00
  8.40902910540583e+00
  4.80448757555754e+00
  1.55989499299286e+00
 -1.15889775037608e-01
 -5.13312293701512e-02
 -2.64771097977823e-01
 -6.52512718105956e-02
 -1.94608613796415e-01
  2.59380435893970e-01
  1.17380433533106e+00
  5.95960578383022e-02
  4.57260134599596e-01
  6.58952976069849e-02
  1.26537084505476e-01

0 0 0 0 1 1 1
0 0 
11 0

0 1 1 11 1 1 1
11 0 
11 0

0 2 2 22 1 1 1
22 0 
11 0

0 3 3 33 1 1 1
33 0 
1 0

0 4 4 34 1 1 1
34 0 
1 0

0 5 5 35 1 3 3
35 1 
6 0

0 8 8 41 1 3 3
41 1 
6 0

0 11 11 47 1 3 3
47 1 
1 0

0 14 14 48 1 3 3
48 1 
1 0

0 17 17 49 1 5 6
49 2 
1 1

0 22 22 50 1 5 6
50 2 
1 1

0 27 27 51 1 7 10
51 3 
1 1

1 34 34 52 1 1 1
52 0 
11 0

1 35 35 63 1 1 1
63 0 
11 0

1 36 36 74 1 1 1
74 0 
11 0

1 37 37 85 1 1 1
85 0 
1 0

1 38 38 86 1 1 1
86 0 
1 0

1 39 39 87 1 3 3
87 1 
6 0

1 42 42 93 1 3 3
93 1 
6 0

1 45 45 99 1 3 3
99 1 
1 0

1 48 48 100 1 3 3
100 1 
1 0

1 51 51 101 1 5 6
101 2 
1 1

1 56 56 102 1 5 6
102 2 
1 1

1 61 61 103 1 7 10
103 3 
1 1

 -------------------------------------------------------------
 Allocate 263208 B from available memory: 1048576000000 B
 There are 1331 image cells after screening.
 There are 1353 image cells for CGTO evaluation after screening.
 Real-Space grid for FFT initialized based on kinetic energy cutoff (eV) = 500.0
 Real-Space grid for FFT: (10,10,10)
 There are 9261 real-space grid points.
 There are 64 batches of real-space grid points. 
 Size of each grid batch is around 128
 Grid for AFT initialized based on kinetic energy cutoff (eV) = 500.0
 Real-Space grid for AFT: (10,10,10)
 There are 9261 real-space grid points.

 There are 5456 atom-centered grid points.

 Spacegroup symmetry group: Fd-3m
 Reducing spacegroup symmetry to symmorphic group: F -4 3 m
 Monkhorst-Pack mesh is [6,6,6]
 There are 216 k points.
kpoints in Bohr
-0.2041082040 -0.2041082040 -0.2041082040
-0.1020541020 -0.1020541020 -0.3061623059
-0.0000000000 -0.0000000000 -0.4082164079
0.1020541020 0.1020541020 -0.5102705099
0.2041082040 0.2041082040 -0.6123246119
0.3061623059 0.3061623059 -0.7143787138
-0.1020541020 -0.3061623059 -0.1020541020
-0.0000000000 -0.2041082040 -0.2041082040
0.1020541020 -0.1020541020 -0.3061623059
0.2041082040 -0.0000000000 -0.4082164079
0.3061623059 0.1020541020 -0.5102705099
0.4082164079 0.2041082040 -0.6123246119
-0.0000000000 -0.4082164079 0.0000000000
0.1020541020 -0.3061623059 -0.1020541020
0.2041082040 -0.2041082040 -0.2041082040
0.3061623059 -0.1020541020 -0.3061623059
0.4082164079 -0.0000000000 -0.4082164079
0.5102705099 0.1020541020 -0.5102705099
0.1020541020 -0.5102705099 0.1020541020
0.2041082040 -0.4082164079 0.0000000000
0.3061623059 -0.3061623059 -0.1020541020
0.4082164079 -0.2041082040 -0.2041082040
0.5102705099 -0.1020541020 -0.3061623059
0.6123246119 0.0000000000 -0.4082164079
0.2041082040 -0.6123246119 0.2041082040
0.3061623059 -0.5102705099 0.1020541020
0.4082164079 -0.4082164079 0.0000000000
0.5102705099 -0.3061623059 -0.1020541020
0.6123246119 -0.2041082040 -0.2041082040
0.7143787138 -0.1020541020 -0.3061623059
0.3061623059 -0.7143787138 0.3061623059
0.4082164079 -0.6123246119 0.2041082040
0.5102705099 -0.5102705099 0.1020541020
0.6123246119 -0.4082164079 0.0000000000
0.7143787138 -0.3061623059 -0.1020541020
0.8164328158 -0.2041082040 -0.2041082040
-0.3061623059 -0.1020541020 -0.1020541020
-0.2041082040 -0.0000000000 -0.2041082040
-0.1020541020 0.1020541020 -0.3061623059
-0.0000000000 0.2041082040 -0.4082164079
0.1020541020 0.3061623059 -0.5102705099
0.2041082040 0.4082164079 -0.6123246119
-0.2041082040 -0.2041082040 -0.0000000000
-0.1020541020 -0.1020541020 -0.1020541020
-0.0000000000 -0.0000000000 -0.2041082040
0.1020541020 0.1020541020 -0.3061623059
0.2041082040 0.2041082040 -0.4082164079
0.3061623059 0.3061623059 -0.5102705099
-0.1020541020 -0.3061623059 0.1020541020
-0.0000000000 -0.2041082040 0.0000000000
0.1020541020 -0.1020541020 -0.1020541020
0.2041082040 -0.0000000000 -0.2041082040
0.3061623059 0.1020541020 -0.3061623059
0.4082164079 0.2041082040 -0.4082164079
-0.0000000000 -0.4082164079 0.2041082040
0.1020541020 -0.3061623059 0.1020541020
0.2041082040 -0.2041082040 0.0000000000
0.3061623059 -0.1020541020 -0.1020541020
0.4082164079 0.0000000000 -0.2041082040
0.5102705099 0.1020541020 -0.3061623059
0.1020541020 -0.5102705099 0.3061623059
0.2041082040 -0.4082164079 0.2041082040
0.3061623059 -0.3061623059 0.1020541020
0.4082164079 -0.2041082040 0.0000000000
0.5102705099 -0.1020541020 -0.1020541020
0.6123246119 0.0000000000 -0.2041082040
0.2041082040 -0.6123246119 0.4082164079
0.3061623059 -0.5102705099 0.3061623059
0.4082164079 -0.4082164079 0.2041082040
0.5102705099 -0.3061623059 0.1020541020
0.6123246119 -0.2041082040 0.0000000000
0.7143787138 -0.1020541020 -0.1020541020
-0.4082164079 -0.0000000000 -0.0000000000
-0.3061623059 0.1020541020 -0.1020541020
-0.2041082040 0.2041082040 -0.2041082040
-0.1020541020 0.3061623059 -0.3061623059
0.0000000000 0.4082164079 -0.4082164079
0.1020541020 0.5102705099 -0.5102705099
-0.3061623059 -0.1020541020 0.1020541020
-0.2041082040 -0.0000000000 -0.0000000000
-0.1020541020 0.1020541020 -0.1020541020
0.0000000000 0.2041082040 -0.2041082040
0.1020541020 0.3061623059 -0.3061623059
0.2041082040 0.4082164079 -0.4082164079
-0.2041082040 -0.2041082040 0.2041082040
-0.1020541020 -0.1020541020 0.1020541020
0.0000000000 0.0000000000 0.0000000000
0.1020541020 0.1020541020 -0.1020541020
0.2041082040 0.2041082040 -0.2041082040
0.3061623059 0.3061623059 -0.3061623059
-0.1020541020 -0.3061623059 0.3061623059
-0.0000000000 -0.2041082040 0.2041082040
0.1020541020 -0.1020541020 0.1020541020
0.2041082040 0.0000000000 0.0000000000
0.3061623059 0.1020541020 -0.1020541020
0.4082164079 0.2041082040 -0.2041082040
-0.0000000000 -0.4082164079 0.4082164079
0.1020541020 -0.3061623059 0.3061623059
0.2041082040 -0.2041082040 0.2041082040
0.3061623059 -0.1020541020 0.1020541020
0.4082164079 0.0000000000 0.0000000000
0.5102705099 0.1020541020 -0.1020541020
0.1020541020 -0.5102705099 0.5102705099
0.2041082040 -0.4082164079 0.4082164079
0.3061623059 -0.3061623059 0.3061623059
0.4082164079 -0.2041082040 0.2041082040
0.5102705099 -0.1020541020 0.1020541020
0.6123246119 0.0000000000 0.0000000000
-0.5102705099 0.1020541020 0.1020541020
-0.4082164079 0.2041082040 -0.0000000000
-0.3061623059 0.3061623059 -0.1020541020
-0.2041082040 0.4082164079 -0.2041082040
-0.1020541020 0.5102705099 -0.3061623059
0.0000000000 0.6123246119 -0.4082164079
-0.4082164079 -0.0000000000 0.2041082040
-0.3061623059 0.1020541020 0.1020541020
-0.2041082040 0.2041082040 -0.0000000000
-0.1020541020 0.3061623059 -0.1020541020
0.0000000000 0.4082164079 -0.2041082040
0.1020541020 0.5102705099 -0.3061623059
-0.3061623059 -0.1020541020 0.3061623059
-0.2041082040 -0.0000000000 0.2041082040
-0.1020541020 0.1020541020 0.1020541020
0.0000000000 0.2041082040 0.0000000000
0.1020541020 0.3061623059 -0.1020541020
0.2041082040 0.4082164079 -0.2041082040
-0.2041082040 -0.2041082040 0.4082164079
-0.1020541020 -0.1020541020 0.3061623059
0.0000000000 0.0000000000 0.2041082040
0.1020541020 0.1020541020 0.1020541020
0.2041082040 0.2041082040 0.0000000000
0.3061623059 0.3061623059 -0.1020541020
-0.1020541020 -0.3061623059 0.5102705099
-0.0000000000 -0.2041082040 0.4082164079
0.1020541020 -0.1020541020 0.3061623059
0.2041082040 0.0000000000 0.2041082040
0.3061623059 0.1020541020 0.1020541020
0.4082164079 0.2041082040 0.0000000000
-0.0000000000 -0.4082164079 0.6123246119
0.1020541020 -0.3061623059 0.5102705099
0.2041082040 -0.2041082040 0.4082164079
0.3061623059 -0.1020541020 0.3061623059
0.4082164079 0.0000000000 0.2041082040
0.5102705099 0.1020541020 0.1020541020
-0.6123246119 0.2041082040 0.2041082040
-0.5102705099 0.3061623059 0.1020541020
-0.4082164079 0.4082164079 -0.0000000000
-0.3061623059 0.5102705099 -0.1020541020
-0.2041082040 0.6123246119 -0.2041082040
-0.1020541020 0.7143787138 -0.3061623059
-0.5102705099 0.1020541020 0.3061623059
-0.4082164079 0.2041082040 0.2041082040
-0.3061623059 0.3061623059 0.1020541020
-0.2041082040 0.4082164079 -0.0000000000
-0.1020541020 0.5102705099 -0.1020541020
0.0000000000 0.6123246119 -0.2041082040
-0.4082164079 -0.0000000000 0.4082164079
-0.3061623059 0.1020541020 0.3061623059
-0.2041082040 0.2041082040 0.2041082040
-0.1020541020 0.3061623059 0.1020541020
0.0000000000 0.4082164079 0.0000000000
0.1020541020 0.5102705099 -0.1020541020
-0.3061623059 -0.1020541020 0.5102705099
-0.2041082040 0.0000000000 0.4082164079
-0.1020541020 0.1020541020 0.3061623059
0.0000000000 0.2041082040 0.2041082040
0.1020541020 0.3061623059 0.1020541020
0.2041082040 0.4082164079 0.0000000000
-0.2041082040 -0.2041082040 0.6123246119
-0.1020541020 -0.1020541020 0.5102705099
0.0000000000 0.0000000000 0.4082164079
0.1020541020 0.1020541020 0.3061623059
0.2041082040 0.2041082040 0.2041082040
0.3061623059 0.3061623059 0.1020541020
-0.1020541020 -0.3061623059 0.7143787138
0.0000000000 -0.2041082040 0.6123246119
0.1020541020 -0.1020541020 0.5102705099
0.2041082040 0.0000000000 0.4082164079
0.3061623059 0.1020541020 0.3061623059
0.4082164079 0.2041082040 0.2041082040
-0.7143787138 0.3061623059 0.3061623059
-0.6123246119 0.4082164079 0.2041082040
-0.5102705099 0.5102705099 0.1020541020
-0.4082164079 0.6123246119 -0.0000000000
-0.3061623059 0.7143787138 -0.1020541020
-0.2041082040 0.8164328158 -0.2041082040
-0.6123246119 0.2041082040 0.4082164079
-0.5102705099 0.3061623059 0.3061623059
-0.4082164079 0.4082164079 0.2041082040
-0.3061623059 0.5102705099 0.1020541020
-0.2041082040 0.6123246119 0.0000000000
-0.1020541020 0.7143787138 -0.1020541020
-0.5102705099 0.1020541020 0.5102705099
-0.4082164079 0.2041082040 0.4082164079
-0.3061623059 0.3061623059 0.3061623059
-0.2041082040 0.4082164079 0.2041082040
-0.1020541020 0.5102705099 0.1020541020
0.0000000000 0.6123246119 0.0000000000
-0.4082164079 0.0000000000 0.6123246119
-0.3061623059 0.1020541020 0.5102705099
-0.2041082040 0.2041082040 0.4082164079
-0.1020541020 0.3061623059 0.3061623059
0.0000000000 0.4082164079 0.2041082040
0.1020541020 0.5102705099 0.1020541020
-0.3061623059 -0.1020541020 0.7143787138
-0.2041082040 0.0000000000 0.6123246119
-0.1020541020 0.1020541020 0.5102705099
0.0000000000 0.2041082040 0.4082164079
0.1020541020 0.3061623059 0.3061623059
0.2041082040 0.4082164079 0.2041082040
-0.2041082040 -0.2041082040 0.8164328158
-0.1020541020 -0.1020541020 0.7143787138
0.0000000000 0.0000000000 0.6123246119
0.1020541020 0.1020541020 0.5102705099
0.2041082040 0.2041082040 0.4082164079
0.3061623059 0.3061623059 0.3061623059
 There are 14 alpha and 14 beta electrons
 Start computing overlap matrix
 Allocate 15980544 B from available memory: 1048575736800 B
 Time for computing overlap matrix: 1.7830000000 s
 ====== Initialize compute kernels for all-electron RI-J (kpts) ====== 
 ========================================================== 
 Range-separated parameter omega        = 0.900000000000000022
 Threshold for 1e2c shellpair           = 0.000000000000010000
 Threshold for 2e2c SR integral         = 0.000000000000000001
 Threshold for 2e3c SR integral         = 0.000000000100000000
 Threshold for AFT G-space screening is = 0.000000000001000000
 The exponent cutoff for C/D classification (omega2 / 2) is  = 0.405000000000000027
 ========================================================== 
 === Post process the basis set for RI calculation (exp_cutoff = 0.405000000000000027 ) === 
nshells_b1 before uncontraction = 24
nshells_b1 after uncontraction = 28
nshells_baux before uncontraction = 74
nshells_baux after uncontraction = 74
===============================================
nbsf total   = 76
nbsf compact = 36
nbsf diffuse = 40
naux total   = 242
naux compact = 242
naux diffuse = 0
nshells_bnuc = 2

 Number of unique atoms is 1
 Unique atom #0 (si) has 8 shells.

Shell 0 to 7 belongs to atom si
Shell 8 to 15 belongs to atom si

 Number of unique atoms is 1
 Unique atom #0 (si) has 6 shells.

Shell 0 to 5 belongs to atom si
Shell 6 to 11 belongs to atom si

 Number of unique atom is 1
 Unique atom #0 (si) has 37 auxiliary shells.

Auxiliary Shell 0 to 36 belongs to atom si
Auxiliary Shell 37 to 73 belongs to atom si

================= Automatically determine grid size for reciprocal space summation =================
 Range-separated parameter = 0.90000000000000 and G-space screening threshold = 0.00000000000100
The number of grid points along each axis dimension is (10, 10, 10)
Total number of grid points = 9261

Use nonortho shellpair for diffuse density
======== Initializing relevant kernel for RIJ (DD type) ========
There are 78 shellpairs in the reference unit cell
There are 2659 images and we expect to have 207402 in total
There are 10362 shellpairs in the lattice sum after screening
======== Initializing relevant kernel for RIJ (CD type) ========
There are 192 shellpairs in the reference unit cell
There are 1657 images and we expect to have 318144 in total
There are 12656 shellpairs in the lattice sum after screening
****** AFT -> SR ******
Maximum bra distance cutoff is 20.000000000000
Maximum bra ket distance cutoff is 19.686314259486
Maximum bra ket screening distance is 18.000000000000
Number of auxiliary image is 437
There are 192 shellpairs in the reference unit cell
There are 437 images and we expect to have 83904 in total
There are 12656 shellpairs in the lattice sum after screening
Available memory per thread for 2e3c calculation is 32.767492383000Gb
Finish initializing 2e3c SR with the lattice sum!
=================================================
======== Initializing relevant kernel for RIJ (CC type) ========
There are 135 shellpairs in the reference unit cell
There are 551 images and we expect to have 74385 in total
There are 1200 shellpairs in the lattice sum after screening
****** AFT -> SR ******
Maximum bra distance cutoff is 11.000000000000
Maximum bra ket distance cutoff is 19.281250000000
Maximum bra ket screening distance is 17.500000000000
Number of auxiliary image is 437
There are 135 shellpairs in the reference unit cell
There are 117 images and we expect to have 15795 in total
There are 1200 shellpairs in the lattice sum after screening
Available memory per thread for 2e3c calculation is 32.767492383000Gb
Finish initializing 2e3c SR with the lattice sum!
=================================================
======== Initializing the SR component for Vnuc (CD type) ========
Maximum bra distance cutoff is 20.000000000000
Maximum bra ket distance cutoff is 11.052556209192
Maximum bra ket screening distance is 9.170821735065
Number of auxiliary image is 437
There are 192 shellpairs in the reference unit cell
There are 437 images and we expect to have 83904 in total
There are 12656 shellpairs in the lattice sum after screening
Available memory per thread for 2e3c calculation is 32.767492383000Gb
Finish initializing 2e3c SR with the lattice sum!
=================================================
======== Initialize the SR component for Vnuc (CC type) ========
Maximum bra distance cutoff is 11.000000000000
Maximum bra ket distance cutoff is 11.232824570356
Maximum bra ket screening distance is 8.201723935674
Number of auxiliary image is 117
There are 135 shellpairs in the reference unit cell
There are 117 images and we expect to have 15795 in total
There are 1200 shellpairs in the lattice sum after screening
Available memory per thread for 2e3c calculation is 32.767492383000Gb
Finish initializing 2e3c SR with the lattice sum!
=================================================
 Aufbau occupation scheme, occupation determined by eigenvalue
 == 0-th k-point nmo = 68 (-0.20411,-0.20411,-0.20411) ==
 == 1-th k-point nmo = 68 (-0.10205,-0.10205,-0.30616) ==
 == 2-th k-point nmo = 68 (-0.00000,-0.00000,-0.40822) ==
 == 3-th k-point nmo = 68 (0.10205,0.10205,-0.51027) ==
 == 4-th k-point nmo = 68 (0.20411,0.20411,-0.61232) ==
 == 5-th k-point nmo = 68 (0.30616,0.30616,-0.71438) ==
 == 6-th k-point nmo = 68 (-0.10205,-0.30616,-0.10205) ==
 == 7-th k-point nmo = 68 (-0.00000,-0.20411,-0.20411) ==
 == 8-th k-point nmo = 68 (0.10205,-0.10205,-0.30616) ==
 == 9-th k-point nmo = 68 (0.20411,-0.00000,-0.40822) ==
 == 10-th k-point nmo = 68 (0.30616,0.10205,-0.51027) ==
 == 11-th k-point nmo = 68 (0.40822,0.20411,-0.61232) ==
 == 12-th k-point nmo = 68 (-0.00000,-0.40822,0.00000) ==
 == 13-th k-point nmo = 68 (0.10205,-0.30616,-0.10205) ==
 == 14-th k-point nmo = 68 (0.20411,-0.20411,-0.20411) ==
 == 15-th k-point nmo = 68 (0.30616,-0.10205,-0.30616) ==
 == 16-th k-point nmo = 68 (0.40822,-0.00000,-0.40822) ==
 == 17-th k-point nmo = 68 (0.51027,0.10205,-0.51027) ==
 == 18-th k-point nmo = 68 (0.10205,-0.51027,0.10205) ==
 == 19-th k-point nmo = 68 (0.20411,-0.40822,0.00000) ==
 == 20-th k-point nmo = 68 (0.30616,-0.30616,-0.10205) ==
 == 21-th k-point nmo = 68 (0.40822,-0.20411,-0.20411) ==
 == 22-th k-point nmo = 68 (0.51027,-0.10205,-0.30616) ==
 == 23-th k-point nmo = 68 (0.61232,0.00000,-0.40822) ==
 == 24-th k-point nmo = 68 (0.20411,-0.61232,0.20411) ==
 == 25-th k-point nmo = 68 (0.30616,-0.51027,0.10205) ==
 == 26-th k-point nmo = 68 (0.40822,-0.40822,0.00000) ==
 == 27-th k-point nmo = 68 (0.51027,-0.30616,-0.10205) ==
 == 28-th k-point nmo = 68 (0.61232,-0.20411,-0.20411) ==
 == 29-th k-point nmo = 68 (0.71438,-0.10205,-0.30616) ==
 == 30-th k-point nmo = 68 (0.30616,-0.71438,0.30616) ==
 == 31-th k-point nmo = 68 (0.40822,-0.61232,0.20411) ==
 == 32-th k-point nmo = 68 (0.51027,-0.51027,0.10205) ==
 == 33-th k-point nmo = 68 (0.61232,-0.40822,0.00000) ==
 == 34-th k-point nmo = 68 (0.71438,-0.30616,-0.10205) ==
 == 35-th k-point nmo = 68 (0.81643,-0.20411,-0.20411) ==
 == 36-th k-point nmo = 68 (-0.30616,-0.10205,-0.10205) ==
 == 37-th k-point nmo = 68 (-0.20411,-0.00000,-0.20411) ==
 == 38-th k-point nmo = 68 (-0.10205,0.10205,-0.30616) ==
 == 39-th k-point nmo = 68 (-0.00000,0.20411,-0.40822) ==
 == 40-th k-point nmo = 68 (0.10205,0.30616,-0.51027) ==
 == 41-th k-point nmo = 68 (0.20411,0.40822,-0.61232) ==
 == 42-th k-point nmo = 68 (-0.20411,-0.20411,-0.00000) ==
 == 43-th k-point nmo = 68 (-0.10205,-0.10205,-0.10205) ==
 == 44-th k-point nmo = 68 (-0.00000,-0.00000,-0.20411) ==
 == 45-th k-point nmo = 68 (0.10205,0.10205,-0.30616) ==
 == 46-th k-point nmo = 68 (0.20411,0.20411,-0.40822) ==
 == 47-th k-point nmo = 68 (0.30616,0.30616,-0.51027) ==
 == 48-th k-point nmo = 68 (-0.10205,-0.30616,0.10205) ==
 == 49-th k-point nmo = 68 (-0.00000,-0.20411,0.00000) ==
 == 50-th k-point nmo = 68 (0.10205,-0.10205,-0.10205) ==
 == 51-th k-point nmo = 68 (0.20411,-0.00000,-0.20411) ==
 == 52-th k-point nmo = 68 (0.30616,0.10205,-0.30616) ==
 == 53-th k-point nmo = 68 (0.40822,0.20411,-0.40822) ==
 == 54-th k-point nmo = 68 (-0.00000,-0.40822,0.20411) ==
 == 55-th k-point nmo = 68 (0.10205,-0.30616,0.10205) ==
 == 56-th k-point nmo = 68 (0.20411,-0.20411,0.00000) ==
 == 57-th k-point nmo = 68 (0.30616,-0.10205,-0.10205) ==
 == 58-th k-point nmo = 68 (0.40822,0.00000,-0.20411) ==
 == 59-th k-point nmo = 68 (0.51027,0.10205,-0.30616) ==
 == 60-th k-point nmo = 68 (0.10205,-0.51027,0.30616) ==
 == 61-th k-point nmo = 68 (0.20411,-0.40822,0.20411) ==
 == 62-th k-point nmo = 68 (0.30616,-0.30616,0.10205) ==
 == 63-th k-point nmo = 68 (0.40822,-0.20411,0.00000) ==
 == 64-th k-point nmo = 68 (0.51027,-0.10205,-0.10205) ==
 == 65-th k-point nmo = 68 (0.61232,0.00000,-0.20411) ==
 == 66-th k-point nmo = 68 (0.20411,-0.61232,0.40822) ==
 == 67-th k-point nmo = 68 (0.30616,-0.51027,0.30616) ==
 == 68-th k-point nmo = 68 (0.40822,-0.40822,0.20411) ==
 == 69-th k-point nmo = 68 (0.51027,-0.30616,0.10205) ==
 == 70-th k-point nmo = 68 (0.61232,-0.20411,0.00000) ==
 == 71-th k-point nmo = 68 (0.71438,-0.10205,-0.10205) ==
 == 72-th k-point nmo = 68 (-0.40822,-0.00000,-0.00000) ==
 == 73-th k-point nmo = 68 (-0.30616,0.10205,-0.10205) ==
 == 74-th k-point nmo = 68 (-0.20411,0.20411,-0.20411) ==
 == 75-th k-point nmo = 68 (-0.10205,0.30616,-0.30616) ==
 == 76-th k-point nmo = 68 (0.00000,0.40822,-0.40822) ==
 == 77-th k-point nmo = 68 (0.10205,0.51027,-0.51027) ==
 == 78-th k-point nmo = 68 (-0.30616,-0.10205,0.10205) ==
 == 79-th k-point nmo = 68 (-0.20411,-0.00000,-0.00000) ==
 == 80-th k-point nmo = 68 (-0.10205,0.10205,-0.10205) ==
 == 81-th k-point nmo = 68 (0.00000,0.20411,-0.20411) ==
 == 82-th k-point nmo = 68 (0.10205,0.30616,-0.30616) ==
 == 83-th k-point nmo = 68 (0.20411,0.40822,-0.40822) ==
 == 84-th k-point nmo = 68 (-0.20411,-0.20411,0.20411) ==
 == 85-th k-point nmo = 68 (-0.10205,-0.10205,0.10205) ==
 == 86-th k-point nmo = 68 (0.00000,0.00000,0.00000) ==
 == 87-th k-point nmo = 68 (0.10205,0.10205,-0.10205) ==
 == 88-th k-point nmo = 68 (0.20411,0.20411,-0.20411) ==
 == 89-th k-point nmo = 68 (0.30616,0.30616,-0.30616) ==
 == 90-th k-point nmo = 68 (-0.10205,-0.30616,0.30616) ==
 == 91-th k-point nmo = 68 (-0.00000,-0.20411,0.20411) ==
 == 92-th k-point nmo = 68 (0.10205,-0.10205,0.10205) ==
 == 93-th k-point nmo = 68 (0.20411,0.00000,0.00000) ==
 == 94-th k-point nmo = 68 (0.30616,0.10205,-0.10205) ==
 == 95-th k-point nmo = 68 (0.40822,0.20411,-0.20411) ==
 == 96-th k-point nmo = 68 (-0.00000,-0.40822,0.40822) ==
 == 97-th k-point nmo = 68 (0.10205,-0.30616,0.30616) ==
 == 98-th k-point nmo = 68 (0.20411,-0.20411,0.20411) ==
 == 99-th k-point nmo = 68 (0.30616,-0.10205,0.10205) ==
 == 100-th k-point nmo = 68 (0.40822,0.00000,0.00000) ==
 == 101-th k-point nmo = 68 (0.51027,0.10205,-0.10205) ==
 == 102-th k-point nmo = 68 (0.10205,-0.51027,0.51027) ==
 == 103-th k-point nmo = 68 (0.20411,-0.40822,0.40822) ==
 == 104-th k-point nmo = 68 (0.30616,-0.30616,0.30616) ==
 == 105-th k-point nmo = 68 (0.40822,-0.20411,0.20411) ==
 == 106-th k-point nmo = 68 (0.51027,-0.10205,0.10205) ==
 == 107-th k-point nmo = 68 (0.61232,0.00000,0.00000) ==
 == 108-th k-point nmo = 68 (-0.51027,0.10205,0.10205) ==
 == 109-th k-point nmo = 68 (-0.40822,0.20411,-0.00000) ==
 == 110-th k-point nmo = 68 (-0.30616,0.30616,-0.10205) ==
 == 111-th k-point nmo = 68 (-0.20411,0.40822,-0.20411) ==
 == 112-th k-point nmo = 68 (-0.10205,0.51027,-0.30616) ==
 == 113-th k-point nmo = 68 (0.00000,0.61232,-0.40822) ==
 == 114-th k-point nmo = 68 (-0.40822,-0.00000,0.20411) ==
 == 115-th k-point nmo = 68 (-0.30616,0.10205,0.10205) ==
 == 116-th k-point nmo = 68 (-0.20411,0.20411,-0.00000) ==
 == 117-th k-point nmo = 68 (-0.10205,0.30616,-0.10205) ==
 == 118-th k-point nmo = 68 (0.00000,0.40822,-0.20411) ==
 == 119-th k-point nmo = 68 (0.10205,0.51027,-0.30616) ==
 == 120-th k-point nmo = 68 (-0.30616,-0.10205,0.30616) ==
 == 121-th k-point nmo = 68 (-0.20411,-0.00000,0.20411) ==
 == 122-th k-point nmo = 68 (-0.10205,0.10205,0.10205) ==
 == 123-th k-point nmo = 68 (0.00000,0.20411,0.00000) ==
 == 124-th k-point nmo = 68 (0.10205,0.30616,-0.10205) ==
 == 125-th k-point nmo = 68 (0.20411,0.40822,-0.20411) ==
 == 126-th k-point nmo = 68 (-0.20411,-0.20411,0.40822) ==
 == 127-th k-point nmo = 68 (-0.10205,-0.10205,0.30616) ==
 == 128-th k-point nmo = 68 (0.00000,0.00000,0.20411) ==
 == 129-th k-point nmo = 68 (0.10205,0.10205,0.10205) ==
 == 130-th k-point nmo = 68 (0.20411,0.20411,0.00000) ==
 == 131-th k-point nmo = 68 (0.30616,0.30616,-0.10205) ==
 == 132-th k-point nmo = 68 (-0.10205,-0.30616,0.51027) ==
 == 133-th k-point nmo = 68 (-0.00000,-0.20411,0.40822) ==
 == 134-th k-point nmo = 68 (0.10205,-0.10205,0.30616) ==
 == 135-th k-point nmo = 68 (0.20411,0.00000,0.20411) ==
 == 136-th k-point nmo = 68 (0.30616,0.10205,0.10205) ==
 == 137-th k-point nmo = 68 (0.40822,0.20411,0.00000) ==
 == 138-th k-point nmo = 68 (-0.00000,-0.40822,0.61232) ==
 == 139-th k-point nmo = 68 (0.10205,-0.30616,0.51027) ==
 == 140-th k-point nmo = 68 (0.20411,-0.20411,0.40822) ==
 == 141-th k-point nmo = 68 (0.30616,-0.10205,0.30616) ==
 == 142-th k-point nmo = 68 (0.40822,0.00000,0.20411) ==
 == 143-th k-point nmo = 68 (0.51027,0.10205,0.10205) ==
 == 144-th k-point nmo = 68 (-0.61232,0.20411,0.20411) ==
 == 145-th k-point nmo = 68 (-0.51027,0.30616,0.10205) ==
 == 146-th k-point nmo = 68 (-0.40822,0.40822,-0.00000) ==
 == 147-th k-point nmo = 68 (-0.30616,0.51027,-0.10205) ==
 == 148-th k-point nmo = 68 (-0.20411,0.61232,-0.20411) ==
 == 149-th k-point nmo = 68 (-0.10205,0.71438,-0.30616) ==
 == 150-th k-point nmo = 68 (-0.51027,0.10205,0.30616) ==
 == 151-th k-point nmo = 68 (-0.40822,0.20411,0.20411) ==
 == 152-th k-point nmo = 68 (-0.30616,0.30616,0.10205) ==
 == 153-th k-point nmo = 68 (-0.20411,0.40822,-0.00000) ==
 == 154-th k-point nmo = 68 (-0.10205,0.51027,-0.10205) ==
 == 155-th k-point nmo = 68 (0.00000,0.61232,-0.20411) ==
 == 156-th k-point nmo = 68 (-0.40822,-0.00000,0.40822) ==
 == 157-th k-point nmo = 68 (-0.30616,0.10205,0.30616) ==
 == 158-th k-point nmo = 68 (-0.20411,0.20411,0.20411) ==
 == 159-th k-point nmo = 68 (-0.10205,0.30616,0.10205) ==
 == 160-th k-point nmo = 68 (0.00000,0.40822,0.00000) ==
 == 161-th k-point nmo = 68 (0.10205,0.51027,-0.10205) ==
 == 162-th k-point nmo = 68 (-0.30616,-0.10205,0.51027) ==
 == 163-th k-point nmo = 68 (-0.20411,0.00000,0.40822) ==
 == 164-th k-point nmo = 68 (-0.10205,0.10205,0.30616) ==
 == 165-th k-point nmo = 68 (0.00000,0.20411,0.20411) ==
 == 166-th k-point nmo = 68 (0.10205,0.30616,0.10205) ==
 == 167-th k-point nmo = 68 (0.20411,0.40822,0.00000) ==
 == 168-th k-point nmo = 68 (-0.20411,-0.20411,0.61232) ==
 == 169-th k-point nmo = 68 (-0.10205,-0.10205,0.51027) ==
 == 170-th k-point nmo = 68 (0.00000,0.00000,0.40822) ==
 == 171-th k-point nmo = 68 (0.10205,0.10205,0.30616) ==
 == 172-th k-point nmo = 68 (0.20411,0.20411,0.20411) ==
 == 173-th k-point nmo = 68 (0.30616,0.30616,0.10205) ==
 == 174-th k-point nmo = 68 (-0.10205,-0.30616,0.71438) ==
 == 175-th k-point nmo = 68 (0.00000,-0.20411,0.61232) ==
 == 176-th k-point nmo = 68 (0.10205,-0.10205,0.51027) ==
 == 177-th k-point nmo = 68 (0.20411,0.00000,0.40822) ==
 == 178-th k-point nmo = 68 (0.30616,0.10205,0.30616) ==
 == 179-th k-point nmo = 68 (0.40822,0.20411,0.20411) ==
 == 180-th k-point nmo = 68 (-0.71438,0.30616,0.30616) ==
 == 181-th k-point nmo = 68 (-0.61232,0.40822,0.20411) ==
 == 182-th k-point nmo = 68 (-0.51027,0.51027,0.10205) ==
 == 183-th k-point nmo = 68 (-0.40822,0.61232,-0.00000) ==
 == 184-th k-point nmo = 68 (-0.30616,0.71438,-0.10205) ==
 == 185-th k-point nmo = 68 (-0.20411,0.81643,-0.20411) ==
 == 186-th k-point nmo = 68 (-0.61232,0.20411,0.40822) ==
 == 187-th k-point nmo = 68 (-0.51027,0.30616,0.30616) ==
 == 188-th k-point nmo = 68 (-0.40822,0.40822,0.20411) ==
 == 189-th k-point nmo = 68 (-0.30616,0.51027,0.10205) ==
 == 190-th k-point nmo = 68 (-0.20411,0.61232,0.00000) ==
 == 191-th k-point nmo = 68 (-0.10205,0.71438,-0.10205) ==
 == 192-th k-point nmo = 68 (-0.51027,0.10205,0.51027) ==
 == 193-th k-point nmo = 68 (-0.40822,0.20411,0.40822) ==
 == 194-th k-point nmo = 68 (-0.30616,0.30616,0.30616) ==
 == 195-th k-point nmo = 68 (-0.20411,0.40822,0.20411) ==
 == 196-th k-point nmo = 68 (-0.10205,0.51027,0.10205) ==
 == 197-th k-point nmo = 68 (0.00000,0.61232,0.00000) ==
 == 198-th k-point nmo = 68 (-0.40822,0.00000,0.61232) ==
 == 199-th k-point nmo = 68 (-0.30616,0.10205,0.51027) ==
 == 200-th k-point nmo = 68 (-0.20411,0.20411,0.40822) ==
 == 201-th k-point nmo = 68 (-0.10205,0.30616,0.30616) ==
 == 202-th k-point nmo = 68 (0.00000,0.40822,0.20411) ==
 == 203-th k-point nmo = 68 (0.10205,0.51027,0.10205) ==
 == 204-th k-point nmo = 68 (-0.30616,-0.10205,0.71438) ==
 == 205-th k-point nmo = 68 (-0.20411,0.00000,0.61232) ==
 == 206-th k-point nmo = 68 (-0.10205,0.10205,0.51027) ==
 == 207-th k-point nmo = 68 (0.00000,0.20411,0.40822) ==
 == 208-th k-point nmo = 68 (0.10205,0.30616,0.30616) ==
 == 209-th k-point nmo = 68 (0.20411,0.40822,0.20411) ==
 == 210-th k-point nmo = 68 (-0.20411,-0.20411,0.81643) ==
 == 211-th k-point nmo = 68 (-0.10205,-0.10205,0.71438) ==
 == 212-th k-point nmo = 68 (0.00000,0.00000,0.61232) ==
 == 213-th k-point nmo = 68 (0.10205,0.10205,0.51027) ==
 == 214-th k-point nmo = 68 (0.20411,0.20411,0.40822) ==
 == 215-th k-point nmo = 68 (0.30616,0.30616,0.30616) ==

 Generate autoSAD guess
backing up fragment data
Atom # 0: si, charge: 0, multiplicity: 3.000000
writing autosad to fragment context
Settings for isolated fragments: 
  frgm_gamma: TRUE
  frgm_center: FALSE

    Running SCF for isolated atom #0
    Fragment Input file: /n/netscratch/joonholee_lab/Lab/hieudinh//si_2_ccpvtz_omega_0.9_666.scratch20250909092157/autosad_frgmt_0/frgmt_input.in
    Fragment Output file: /n/netscratch/joonholee_lab/Lab/hieudinh//si_2_ccpvtz_omega_0.9_666.scratch20250909092157/autosad_frgmt_0/frgmt_job.out
    Fragment job begins at Tue Sep  9 09:22:01 2025

 Integrated density by DFT XC:
   Numerical integral  =    13.999999324657
   Relative error      =     0.0000048239 %
Final energy components:
 DFT Correlation            Energy =  -0.48419291960635
 DFT Exchange               Energy = -20.15457765326661
 Kinetic (alpha)            Energy = 145.16532593944532
 Kinetic (beta)             Energy = 143.17442658177279
 Nuclear Attraction (alpha) Energy = -351.25548439806943
 Nuclear Attraction (beta)  Energy = -337.63206466478039
 Nuclear Repulsion          Energy =   0.00000000000000
 SEOQF                      Energy =   0.00000000065999
 Total Coulomb              Energy = 131.95997984351311
----------------------------------------------
    SCF Energy: -289.2265872703
   Total fragment job time:  0.53 s.
restoring fragment data

 ------------------------------------------------------------------------
 Allocate 52617600 B from available memory: 1048559756256 B
 Time for generating SCF guess: 0.56 s

 Allocate 78392 B from available memory: 1048507138656 B
 Selected algorithms for each term:
  kpts_kinetic -> @0x14ca27f2f680
  kpts_nn -> @0x14ca27f2f800
  kpts_rij_bigmem -> @0x14ca27f2f3e0
  kpts_vnuc_df -> @0x14ca27f2f380
  kpts_xc -> @0x14ca27f2f2c0
 Time for computing kinetic matrix is 1.91 s
Start calculating Vnuc DD type!
Start calculating Vnuc CD type!
Start calculating Vnuc CC type!
 Time for computing nuclear attraction matrix is 4.48 s
Compute (P|Q) and use solve on the fly!
Maximum distance between P and Q is 28.44997180930993
Number of images for (P|Qn) is 887
 Time for computing 2e2c SR integral is 0.10 s
Maximum dynamic memory per thread for 2e3c SR integrals: 0.036 GiB
Batch size for basis function pair is 1440 out of 1440
 === bvk cell = 0 has 100.000 % of the basis function pairs === 
 === bvk cell = 1 has 95.625 % of the basis function pairs === 
 === bvk cell = 2 has 42.014 % of the basis function pairs === 
 === bvk cell = 3 has 10.000 % of the basis function pairs === 
 === bvk cell = 4 has 42.014 % of the basis function pairs === 
 === bvk cell = 5 has 95.625 % of the basis function pairs === 
 === bvk cell = 6 has 95.625 % of the basis function pairs === 
 === bvk cell = 7 has 58.333 % of the basis function pairs === 
 === bvk cell = 8 has 15.833 % of the basis function pairs === 
 === bvk cell = 9 has 13.750 % of the basis function pairs === 
 === bvk cell = 10 has 56.042 % of the basis function pairs === 
 === bvk cell = 11 has 100.000 % of the basis function pairs === 
 === bvk cell = 12 has 42.014 % of the basis function pairs === 
 === bvk cell = 13 has 15.833 % of the basis function pairs === 
 === bvk cell = 14 has 0.000 % of the basis function pairs === 
 === bvk cell = 15 has 13.750 % of the basis function pairs === 
 === bvk cell = 16 has 30.556 % of the basis function pairs === 
 === bvk cell = 17 has 56.042 % of the basis function pairs === 
 === bvk cell = 18 has 10.000 % of the basis function pairs === 
 === bvk cell = 19 has 13.750 % of the basis function pairs === 
 === bvk cell = 20 has 13.750 % of the basis function pairs === 
 === bvk cell = 21 has 0.000 % of the basis function pairs === 
 === bvk cell = 22 has 13.750 % of the basis function pairs === 
 === bvk cell = 23 has 13.750 % of the basis function pairs === 
 === bvk cell = 24 has 42.014 % of the basis function pairs === 
 === bvk cell = 25 has 56.042 % of the basis function pairs === 
 === bvk cell = 26 has 30.556 % of the basis function pairs === 
 === bvk cell = 27 has 13.750 % of the basis function pairs === 
 === bvk cell = 28 has 0.000 % of the basis function pairs === 
 === bvk cell = 29 has 15.833 % of the basis function pairs === 
 === bvk cell = 30 has 95.625 % of the basis function pairs === 
 === bvk cell = 31 has 100.000 % of the basis function pairs === 
 === bvk cell = 32 has 56.042 % of the basis function pairs === 
 === bvk cell = 33 has 13.750 % of the basis function pairs === 
 === bvk cell = 34 has 15.833 % of the basis function pairs === 
 === bvk cell = 35 has 58.333 % of the basis function pairs === 
 === bvk cell = 36 has 95.625 % of the basis function pairs === 
 === bvk cell = 37 has 58.333 % of the basis function pairs === 
 === bvk cell = 38 has 15.833 % of the basis function pairs === 
 === bvk cell = 39 has 13.750 % of the basis function pairs === 
 === bvk cell = 40 has 56.042 % of the basis function pairs === 
 === bvk cell = 41 has 100.000 % of the basis function pairs === 
 === bvk cell = 42 has 58.333 % of the basis function pairs === 
 === bvk cell = 43 has 23.125 % of the basis function pairs === 
 === bvk cell = 44 has 3.611 % of the basis function pairs === 
 === bvk cell = 45 has 18.611 % of the basis function pairs === 
 === bvk cell = 46 has 54.583 % of the basis function pairs === 
 === bvk cell = 47 has 84.236 % of the basis function pairs === 
 === bvk cell = 48 has 15.833 % of the basis function pairs === 
 === bvk cell = 49 has 3.611 % of the basis function pairs === 
 === bvk cell = 50 has 0.000 % of the basis function pairs === 
 === bvk cell = 51 has 15.972 % of the basis function pairs === 
 === bvk cell = 52 has 22.083 % of the basis function pairs === 
 === bvk cell = 53 has 26.736 % of the basis function pairs === 
 === bvk cell = 54 has 13.750 % of the basis function pairs === 
 === bvk cell = 55 has 18.611 % of the basis function pairs === 
 === bvk cell = 56 has 15.972 % of the basis function pairs === 
 === bvk cell = 57 has 0.000 % of the basis function pairs === 
 === bvk cell = 58 has 3.611 % of the basis function pairs === 
 === bvk cell = 59 has 7.222 % of the basis function pairs === 
 === bvk cell = 60 has 56.042 % of the basis function pairs === 
 === bvk cell = 61 has 54.583 % of the basis function pairs === 
 === bvk cell = 62 has 22.083 % of the basis function pairs === 
 === bvk cell = 63 has 3.611 % of the basis function pairs === 
 === bvk cell = 64 has 5.000 % of the basis function pairs === 
 === bvk cell = 65 has 26.736 % of the basis function pairs === 
 === bvk cell = 66 has 100.000 % of the basis function pairs === 
 === bvk cell = 67 has 84.236 % of the basis function pairs === 
 === bvk cell = 68 has 26.736 % of the basis function pairs === 
 === bvk cell = 69 has 7.222 % of the basis function pairs === 
 === bvk cell = 70 has 26.736 % of the basis function pairs === 
 === bvk cell = 71 has 84.236 % of the basis function pairs === 
 === bvk cell = 72 has 42.014 % of the basis function pairs === 
 === bvk cell = 73 has 15.833 % of the basis function pairs === 
 === bvk cell = 74 has 0.000 % of the basis function pairs === 
 === bvk cell = 75 has 13.750 % of the basis function pairs === 
 === bvk cell = 76 has 30.556 % of the basis function pairs === 
 === bvk cell = 77 has 56.042 % of the basis function pairs === 
 === bvk cell = 78 has 15.833 % of the basis function pairs === 
 === bvk cell = 79 has 3.611 % of the basis function pairs === 
 === bvk cell = 80 has 0.000 % of the basis function pairs === 
 === bvk cell = 81 has 15.972 % of the basis function pairs === 
 === bvk cell = 82 has 22.083 % of the basis function pairs === 
 === bvk cell = 83 has 26.736 % of the basis function pairs === 
 === bvk cell = 84 has 0.000 % of the basis function pairs === 
 === bvk cell = 85 has 0.000 % of the basis function pairs === 
 === bvk cell = 86 has 0.000 % of the basis function pairs === 
 === bvk cell = 87 has 0.000 % of the basis function pairs === 
 === bvk cell = 88 has 8.333 % of the basis function pairs === 
 === bvk cell = 89 has 5.000 % of the basis function pairs === 
 === bvk cell = 90 has 13.750 % of the basis function pairs === 
 === bvk cell = 91 has 15.972 % of the basis function pairs === 
 === bvk cell = 92 has 0.000 % of the basis function pairs === 
 === bvk cell = 93 has 0.000 % of the basis function pairs === 
 === bvk cell = 94 has 0.000 % of the basis function pairs === 
 === bvk cell = 95 has 3.611 % of the basis function pairs === 
 === bvk cell = 96 has 30.556 % of the basis function pairs === 
 === bvk cell = 97 has 22.083 % of the basis function pairs === 
 === bvk cell = 98 has 8.333 % of the basis function pairs === 
 === bvk cell = 99 has 0.000 % of the basis function pairs === 
 === bvk cell = 100 has 8.333 % of the basis function pairs === 
 === bvk cell = 101 has 22.083 % of the basis function pairs === 
 === bvk cell = 102 has 56.042 % of the basis function pairs === 
 === bvk cell = 103 has 26.736 % of the basis function pairs === 
 === bvk cell = 104 has 5.000 % of the basis function pairs === 
 === bvk cell = 105 has 3.611 % of the basis function pairs === 
 === bvk cell = 106 has 22.083 % of the basis function pairs === 
 === bvk cell = 107 has 54.583 % of the basis function pairs === 
 === bvk cell = 108 has 10.000 % of the basis function pairs === 
 === bvk cell = 109 has 13.750 % of the basis function pairs === 
 === bvk cell = 110 has 13.750 % of the basis function pairs === 
 === bvk cell = 111 has 0.000 % of the basis function pairs === 
 === bvk cell = 112 has 13.750 % of the basis function pairs === 
 === bvk cell = 113 has 13.750 % of the basis function pairs === 
 === bvk cell = 114 has 13.750 % of the basis function pairs === 
 === bvk cell = 115 has 18.611 % of the basis function pairs === 
 === bvk cell = 116 has 15.972 % of the basis function pairs === 
 === bvk cell = 117 has 0.000 % of the basis function pairs === 
 === bvk cell = 118 has 3.611 % of the basis function pairs === 
 === bvk cell = 119 has 7.222 % of the basis function pairs === 
 === bvk cell = 120 has 13.750 % of the basis function pairs === 
 === bvk cell = 121 has 15.972 % of the basis function pairs === 
 === bvk cell = 122 has 0.000 % of the basis function pairs === 
 === bvk cell = 123 has 0.000 % of the basis function pairs === 
 === bvk cell = 124 has 0.000 % of the basis function pairs === 
 === bvk cell = 125 has 3.611 % of the basis function pairs === 
 === bvk cell = 126 has 0.000 % of the basis function pairs === 
 === bvk cell = 127 has 0.000 % of the basis function pairs === 
 === bvk cell = 128 has 0.000 % of the basis function pairs === 
 === bvk cell = 129 has 0.000 % of the basis function pairs === 
 === bvk cell = 130 has 0.000 % of the basis function pairs === 
 === bvk cell = 131 has 0.000 % of the basis function pairs === 
 === bvk cell = 132 has 13.750 % of the basis function pairs === 
 === bvk cell = 133 has 3.611 % of the basis function pairs === 
 === bvk cell = 134 has 0.000 % of the basis function pairs === 
 === bvk cell = 135 has 0.000 % of the basis function pairs === 
 === bvk cell = 136 has 0.000 % of the basis function pairs === 
 === bvk cell = 137 has 15.972 % of the basis function pairs === 
 === bvk cell = 138 has 13.750 % of the basis function pairs === 
 === bvk cell = 139 has 7.222 % of the basis function pairs === 
 === bvk cell = 140 has 3.611 % of the basis function pairs === 
 === bvk cell = 141 has 0.000 % of the basis function pairs === 
 === bvk cell = 142 has 15.972 % of the basis function pairs === 
 === bvk cell = 143 has 18.611 % of the basis function pairs === 
 === bvk cell = 144 has 42.014 % of the basis function pairs === 
 === bvk cell = 145 has 56.042 % of the basis function pairs === 
 === bvk cell = 146 has 30.556 % of the basis function pairs === 
 === bvk cell = 147 has 13.750 % of the basis function pairs === 
 === bvk cell = 148 has 0.000 % of the basis function pairs === 
 === bvk cell = 149 has 15.833 % of the basis function pairs === 
 === bvk cell = 150 has 56.042 % of the basis function pairs === 
 === bvk cell = 151 has 54.583 % of the basis function pairs === 
 === bvk cell = 152 has 22.083 % of the basis function pairs === 
 === bvk cell = 153 has 3.611 % of the basis function pairs === 
 === bvk cell = 154 has 5.000 % of the basis function pairs === 
 === bvk cell = 155 has 26.736 % of the basis function pairs === 
 === bvk cell = 156 has 30.556 % of the basis function pairs === 
 === bvk cell = 157 has 22.083 % of the basis function pairs === 
 === bvk cell = 158 has 8.333 % of the basis function pairs === 
 === bvk cell = 159 has 0.000 % of the basis function pairs === 
 === bvk cell = 160 has 8.333 % of the basis function pairs === 
 === bvk cell = 161 has 22.083 % of the basis function pairs === 
 === bvk cell = 162 has 13.750 % of the basis function pairs === 
 === bvk cell = 163 has 3.611 % of the basis function pairs === 
 === bvk cell = 164 has 0.000 % of the basis function pairs === 
 === bvk cell = 165 has 0.000 % of the basis function pairs === 
 === bvk cell = 166 has 0.000 % of the basis function pairs === 
 === bvk cell = 167 has 15.972 % of the basis function pairs === 
 === bvk cell = 168 has 0.000 % of the basis function pairs === 
 === bvk cell = 169 has 5.000 % of the basis function pairs === 
 === bvk cell = 170 has 8.333 % of the basis function pairs === 
 === bvk cell = 171 has 0.000 % of the basis function pairs === 
 === bvk cell = 172 has 0.000 % of the basis function pairs === 
 === bvk cell = 173 has 0.000 % of the basis function pairs === 
 === bvk cell = 174 has 15.833 % of the basis function pairs === 
 === bvk cell = 175 has 26.736 % of the basis function pairs === 
 === bvk cell = 176 has 22.083 % of the basis function pairs === 
 === bvk cell = 177 has 15.972 % of the basis function pairs === 
 === bvk cell = 178 has 0.000 % of the basis function pairs === 
 === bvk cell = 179 has 3.611 % of the basis function pairs === 
 === bvk cell = 180 has 95.625 % of the basis function pairs === 
 === bvk cell = 181 has 100.000 % of the basis function pairs === 
 === bvk cell = 182 has 56.042 % of the basis function pairs === 
 === bvk cell = 183 has 13.750 % of the basis function pairs === 
 === bvk cell = 184 has 15.833 % of the basis function pairs === 
 === bvk cell = 185 has 58.333 % of the basis function pairs === 
 === bvk cell = 186 has 100.000 % of the basis function pairs === 
 === bvk cell = 187 has 84.236 % of the basis function pairs === 
 === bvk cell = 188 has 26.736 % of the basis function pairs === 
 === bvk cell = 189 has 7.222 % of the basis function pairs === 
 === bvk cell = 190 has 26.736 % of the basis function pairs === 
 === bvk cell = 191 has 84.236 % of the basis function pairs === 
 === bvk cell = 192 has 56.042 % of the basis function pairs === 
 === bvk cell = 193 has 26.736 % of the basis function pairs === 
 === bvk cell = 194 has 5.000 % of the basis function pairs === 
 === bvk cell = 195 has 3.611 % of the basis function pairs === 
 === bvk cell = 196 has 22.083 % of the basis function pairs === 
 === bvk cell = 197 has 54.583 % of the basis function pairs === 
 === bvk cell = 198 has 13.750 % of the basis function pairs === 
 === bvk cell = 199 has 7.222 % of the basis function pairs === 
 === bvk cell = 200 has 3.611 % of the basis function pairs === 
 === bvk cell = 201 has 0.000 % of the basis function pairs === 
 === bvk cell = 202 has 15.972 % of the basis function pairs === 
 === bvk cell = 203 has 18.611 % of the basis function pairs === 
 === bvk cell = 204 has 15.833 % of the basis function pairs === 
 === bvk cell = 205 has 26.736 % of the basis function pairs === 
 === bvk cell = 206 has 22.083 % of the basis function pairs === 
 === bvk cell = 207 has 15.972 % of the basis function pairs === 
 === bvk cell = 208 has 0.000 % of the basis function pairs === 
 === bvk cell = 209 has 3.611 % of the basis function pairs === 
 === bvk cell = 210 has 58.333 % of the basis function pairs === 
 === bvk cell = 211 has 84.236 % of the basis function pairs === 
 === bvk cell = 212 has 54.583 % of the basis function pairs === 
 === bvk cell = 213 has 18.611 % of the basis function pairs === 
 === bvk cell = 214 has 3.611 % of the basis function pairs === 
 === bvk cell = 215 has 23.125 % of the basis function pairs === 
Static memory requirement for 2e3c SR integrals: 0.136 GB
There are 1 munu batches for computing 2e3c SR integrals with latsum
There are 4 Q batches for computing 2e3c SR integrals with latsum
 Time for computing 2e3c SR integral (CD) is 0.69 s
Maximum dynamic memory per thread for 2e3c SR integrals: 0.004 GiB
Batch size for basis function pair is 703 out of 703
 === bvk cell = 0 has 100.000 % of the basis function pairs === 
 === bvk cell = 1 has 68.421 % of the basis function pairs === 
 === bvk cell = 2 has 4.410 % of the basis function pairs === 
 === bvk cell = 3 has 0.000 % of the basis function pairs === 
 === bvk cell = 4 has 0.711 % of the basis function pairs === 
 === bvk cell = 5 has 54.908 % of the basis function pairs === 
 === bvk cell = 6 has 68.421 % of the basis function pairs === 
 === bvk cell = 7 has 15.647 % of the basis function pairs === 
 === bvk cell = 8 has 0.000 % of the basis function pairs === 
 === bvk cell = 9 has 0.000 % of the basis function pairs === 
 === bvk cell = 10 has 0.711 % of the basis function pairs === 
 === bvk cell = 11 has 61.593 % of the basis function pairs === 
 === bvk cell = 12 has 4.410 % of the basis function pairs === 
 === bvk cell = 13 has 0.000 % of the basis function pairs === 
 === bvk cell = 14 has 0.000 % of the basis function pairs === 
 === bvk cell = 15 has 0.000 % of the basis function pairs === 
 === bvk cell = 16 has 0.000 % of the basis function pairs === 
 === bvk cell = 17 has 4.410 % of the basis function pairs === 
 === bvk cell = 18 has 0.000 % of the basis function pairs === 
 === bvk cell = 19 has 0.000 % of the basis function pairs === 
 === bvk cell = 20 has 0.000 % of the basis function pairs === 
 === bvk cell = 21 has 0.000 % of the basis function pairs === 
 === bvk cell = 22 has 0.000 % of the basis function pairs === 
 === bvk cell = 23 has 0.000 % of the basis function pairs === 
 === bvk cell = 24 has 0.711 % of the basis function pairs === 
 === bvk cell = 25 has 0.711 % of the basis function pairs === 
 === bvk cell = 26 has 0.000 % of the basis function pairs === 
 === bvk cell = 27 has 0.000 % of the basis function pairs === 
 === bvk cell = 28 has 0.000 % of the basis function pairs === 
 === bvk cell = 29 has 0.000 % of the basis function pairs === 
 === bvk cell = 30 has 54.908 % of the basis function pairs === 
 === bvk cell = 31 has 61.593 % of the basis function pairs === 
 === bvk cell = 32 has 4.410 % of the basis function pairs === 
 === bvk cell = 33 has 0.000 % of the basis function pairs === 
 === bvk cell = 34 has 0.000 % of the basis function pairs === 
 === bvk cell = 35 has 9.815 % of the basis function pairs === 
 === bvk cell = 36 has 68.421 % of the basis function pairs === 
 === bvk cell = 37 has 15.647 % of the basis function pairs === 
 === bvk cell = 38 has 0.000 % of the basis function pairs === 
 === bvk cell = 39 has 0.000 % of the basis function pairs === 
 === bvk cell = 40 has 0.711 % of the basis function pairs === 
 === bvk cell = 41 has 61.593 % of the basis function pairs === 
 === bvk cell = 42 has 15.647 % of the basis function pairs === 
 === bvk cell = 43 has 0.000 % of the basis function pairs === 
 === bvk cell = 44 has 0.000 % of the basis function pairs === 
 === bvk cell = 45 has 0.000 % of the basis function pairs === 
 === bvk cell = 46 has 0.000 % of the basis function pairs === 
 === bvk cell = 47 has 25.320 % of the basis function pairs === 
 === bvk cell = 48 has 0.000 % of the basis function pairs === 
 === bvk cell = 49 has 0.000 % of the basis function pairs === 
 === bvk cell = 50 has 0.000 % of the basis function pairs === 
 === bvk cell = 51 has 0.000 % of the basis function pairs === 
 === bvk cell = 52 has 0.000 % of the basis function pairs === 
 === bvk cell = 53 has 0.000 % of the basis function pairs === 
 === bvk cell = 54 has 0.000 % of the basis function pairs === 
 === bvk cell = 55 has 0.000 % of the basis function pairs === 
 === bvk cell = 56 has 0.000 % of the basis function pairs === 
 === bvk cell = 57 has 0.000 % of the basis function pairs === 
 === bvk cell = 58 has 0.000 % of the basis function pairs === 
 === bvk cell = 59 has 0.000 % of the basis function pairs === 
 === bvk cell = 60 has 0.711 % of the basis function pairs === 
 === bvk cell = 61 has 0.000 % of the basis function pairs === 
 === bvk cell = 62 has 0.000 % of the basis function pairs === 
 === bvk cell = 63 has 0.000 % of the basis function pairs === 
 === bvk cell = 64 has 0.000 % of the basis function pairs === 
 === bvk cell = 65 has 0.000 % of the basis function pairs === 
 === bvk cell = 66 has 61.593 % of the basis function pairs === 
 === bvk cell = 67 has 25.320 % of the basis function pairs === 
 === bvk cell = 68 has 0.000 % of the basis function pairs === 
 === bvk cell = 69 has 0.000 % of the basis function pairs === 
 === bvk cell = 70 has 0.000 % of the basis function pairs === 
 === bvk cell = 71 has 19.488 % of the basis function pairs === 
 === bvk cell = 72 has 4.410 % of the basis function pairs === 
 === bvk cell = 73 has 0.000 % of the basis function pairs === 
 === bvk cell = 74 has 0.000 % of the basis function pairs === 
 === bvk cell = 75 has 0.000 % of the basis function pairs === 
 === bvk cell = 76 has 0.000 % of the basis function pairs === 
 === bvk cell = 77 has 4.410 % of the basis function pairs === 
 === bvk cell = 78 has 0.000 % of the basis function pairs === 
 === bvk cell = 79 has 0.000 % of the basis function pairs === 
 === bvk cell = 80 has 0.000 % of the basis function pairs === 
 === bvk cell = 81 has 0.000 % of the basis function pairs === 
 === bvk cell = 82 has 0.000 % of the basis function pairs === 
 === bvk cell = 83 has 0.000 % of the basis function pairs === 
 === bvk cell = 84 has 0.000 % of the basis function pairs === 
 === bvk cell = 85 has 0.000 % of the basis function pairs === 
 === bvk cell = 86 has 0.000 % of the basis function pairs === 
 === bvk cell = 87 has 0.000 % of the basis function pairs === 
 === bvk cell = 88 has 0.000 % of the basis function pairs === 
 === bvk cell = 89 has 0.000 % of the basis function pairs === 
 === bvk cell = 90 has 0.000 % of the basis function pairs === 
 === bvk cell = 91 has 0.000 % of the basis function pairs === 
 === bvk cell = 92 has 0.000 % of the basis function pairs === 
 === bvk cell = 93 has 0.000 % of the basis function pairs === 
 === bvk cell = 94 has 0.000 % of the basis function pairs === 
 === bvk cell = 95 has 0.000 % of the basis function pairs === 
 === bvk cell = 96 has 0.000 % of the basis function pairs === 
 === bvk cell = 97 has 0.000 % of the basis function pairs === 
 === bvk cell = 98 has 0.000 % of the basis function pairs === 
 === bvk cell = 99 has 0.000 % of the basis function pairs === 
 === bvk cell = 100 has 0.000 % of the basis function pairs === 
 === bvk cell = 101 has 0.000 % of the basis function pairs === 
 === bvk cell = 102 has 4.410 % of the basis function pairs === 
 === bvk cell = 103 has 0.000 % of the basis function pairs === 
 === bvk cell = 104 has 0.000 % of the basis function pairs === 
 === bvk cell = 105 has 0.000 % of the basis function pairs === 
 === bvk cell = 106 has 0.000 % of the basis function pairs === 
 === bvk cell = 107 has 0.000 % of the basis function pairs === 
 === bvk cell = 108 has 0.000 % of the basis function pairs === 
 === bvk cell = 109 has 0.000 % of the basis function pairs === 
 === bvk cell = 110 has 0.000 % of the basis function pairs === 
 === bvk cell = 111 has 0.000 % of the basis function pairs === 
 === bvk cell = 112 has 0.000 % of the basis function pairs === 
 === bvk cell = 113 has 0.000 % of the basis function pairs === 
 === bvk cell = 114 has 0.000 % of the basis function pairs === 
 === bvk cell = 115 has 0.000 % of the basis function pairs === 
 === bvk cell = 116 has 0.000 % of the basis function pairs === 
 === bvk cell = 117 has 0.000 % of the basis function pairs === 
 === bvk cell = 118 has 0.000 % of the basis function pairs === 
 === bvk cell = 119 has 0.000 % of the basis function pairs === 
 === bvk cell = 120 has 0.000 % of the basis function pairs === 
 === bvk cell = 121 has 0.000 % of the basis function pairs === 
 === bvk cell = 122 has 0.000 % of the basis function pairs === 
 === bvk cell = 123 has 0.000 % of the basis function pairs === 
 === bvk cell = 124 has 0.000 % of the basis function pairs === 
 === bvk cell = 125 has 0.000 % of the basis function pairs === 
 === bvk cell = 126 has 0.000 % of the basis function pairs === 
 === bvk cell = 127 has 0.000 % of the basis function pairs === 
 === bvk cell = 128 has 0.000 % of the basis function pairs === 
 === bvk cell = 129 has 0.000 % of the basis function pairs === 
 === bvk cell = 130 has 0.000 % of the basis function pairs === 
 === bvk cell = 131 has 0.000 % of the basis function pairs === 
 === bvk cell = 132 has 0.000 % of the basis function pairs === 
 === bvk cell = 133 has 0.000 % of the basis function pairs === 
 === bvk cell = 134 has 0.000 % of the basis function pairs === 
 === bvk cell = 135 has 0.000 % of the basis function pairs === 
 === bvk cell = 136 has 0.000 % of the basis function pairs === 
 === bvk cell = 137 has 0.000 % of the basis function pairs === 
 === bvk cell = 138 has 0.000 % of the basis function pairs === 
 === bvk cell = 139 has 0.000 % of the basis function pairs === 
 === bvk cell = 140 has 0.000 % of the basis function pairs === 
 === bvk cell = 141 has 0.000 % of the basis function pairs === 
 === bvk cell = 142 has 0.000 % of the basis function pairs === 
 === bvk cell = 143 has 0.000 % of the basis function pairs === 
 === bvk cell = 144 has 0.711 % of the basis function pairs === 
 === bvk cell = 145 has 0.711 % of the basis function pairs === 
 === bvk cell = 146 has 0.000 % of the basis function pairs === 
 === bvk cell = 147 has 0.000 % of the basis function pairs === 
 === bvk cell = 148 has 0.000 % of the basis function pairs === 
 === bvk cell = 149 has 0.000 % of the basis function pairs === 
 === bvk cell = 150 has 0.711 % of the basis function pairs === 
 === bvk cell = 151 has 0.000 % of the basis function pairs === 
 === bvk cell = 152 has 0.000 % of the basis function pairs === 
 === bvk cell = 153 has 0.000 % of the basis function pairs === 
 === bvk cell = 154 has 0.000 % of the basis function pairs === 
 === bvk cell = 155 has 0.000 % of the basis function pairs === 
 === bvk cell = 156 has 0.000 % of the basis function pairs === 
 === bvk cell = 157 has 0.000 % of the basis function pairs === 
 === bvk cell = 158 has 0.000 % of the basis function pairs === 
 === bvk cell = 159 has 0.000 % of the basis function pairs === 
 === bvk cell = 160 has 0.000 % of the basis function pairs === 
 === bvk cell = 161 has 0.000 % of the basis function pairs === 
 === bvk cell = 162 has 0.000 % of the basis function pairs === 
 === bvk cell = 163 has 0.000 % of the basis function pairs === 
 === bvk cell = 164 has 0.000 % of the basis function pairs === 
 === bvk cell = 165 has 0.000 % of the basis function pairs === 
 === bvk cell = 166 has 0.000 % of the basis function pairs === 
 === bvk cell = 167 has 0.000 % of the basis function pairs === 
 === bvk cell = 168 has 0.000 % of the basis function pairs === 
 === bvk cell = 169 has 0.000 % of the basis function pairs === 
 === bvk cell = 170 has 0.000 % of the basis function pairs === 
 === bvk cell = 171 has 0.000 % of the basis function pairs === 
 === bvk cell = 172 has 0.000 % of the basis function pairs === 
 === bvk cell = 173 has 0.000 % of the basis function pairs === 
 === bvk cell = 174 has 0.000 % of the basis function pairs === 
 === bvk cell = 175 has 0.000 % of the basis function pairs === 
 === bvk cell = 176 has 0.000 % of the basis function pairs === 
 === bvk cell = 177 has 0.000 % of the basis function pairs === 
 === bvk cell = 178 has 0.000 % of the basis function pairs === 
 === bvk cell = 179 has 0.000 % of the basis function pairs === 
 === bvk cell = 180 has 54.908 % of the basis function pairs === 
 === bvk cell = 181 has 61.593 % of the basis function pairs === 
 === bvk cell = 182 has 4.410 % of the basis function pairs === 
 === bvk cell = 183 has 0.000 % of the basis function pairs === 
 === bvk cell = 184 has 0.000 % of the basis function pairs === 
 === bvk cell = 185 has 9.815 % of the basis function pairs === 
 === bvk cell = 186 has 61.593 % of the basis function pairs === 
 === bvk cell = 187 has 25.320 % of the basis function pairs === 
 === bvk cell = 188 has 0.000 % of the basis function pairs === 
 === bvk cell = 189 has 0.000 % of the basis function pairs === 
 === bvk cell = 190 has 0.000 % of the basis function pairs === 
 === bvk cell = 191 has 19.488 % of the basis function pairs === 
 === bvk cell = 192 has 4.410 % of the basis function pairs === 
 === bvk cell = 193 has 0.000 % of the basis function pairs === 
 === bvk cell = 194 has 0.000 % of the basis function pairs === 
 === bvk cell = 195 has 0.000 % of the basis function pairs === 
 === bvk cell = 196 has 0.000 % of the basis function pairs === 
 === bvk cell = 197 has 0.000 % of the basis function pairs === 
 === bvk cell = 198 has 0.000 % of the basis function pairs === 
 === bvk cell = 199 has 0.000 % of the basis function pairs === 
 === bvk cell = 200 has 0.000 % of the basis function pairs === 
 === bvk cell = 201 has 0.000 % of the basis function pairs === 
 === bvk cell = 202 has 0.000 % of the basis function pairs === 
 === bvk cell = 203 has 0.000 % of the basis function pairs === 
 === bvk cell = 204 has 0.000 % of the basis function pairs === 
 === bvk cell = 205 has 0.000 % of the basis function pairs === 
 === bvk cell = 206 has 0.000 % of the basis function pairs === 
 === bvk cell = 207 has 0.000 % of the basis function pairs === 
 === bvk cell = 208 has 0.000 % of the basis function pairs === 
 === bvk cell = 209 has 0.000 % of the basis function pairs === 
 === bvk cell = 210 has 9.815 % of the basis function pairs === 
 === bvk cell = 211 has 19.488 % of the basis function pairs === 
 === bvk cell = 212 has 0.000 % of the basis function pairs === 
 === bvk cell = 213 has 0.000 % of the basis function pairs === 
 === bvk cell = 214 has 0.000 % of the basis function pairs === 
 === bvk cell = 215 has 0.000 % of the basis function pairs === 
Static memory requirement for 2e3c SR integrals: 0.014 GB
There are 1 munu batches for computing 2e3c SR integrals with latsum
There are 4 Q batches for computing 2e3c SR integrals with latsum
 Time for computing 2e3c SR integral (CC) is 0.12 s
 Time for RI-J this SCF iteration is 1.81 s
 Time for RI-J this SCF iteration is 0.98 s
 ----------------------------------------------
 Guess energy: -578.7822017099
 ----------------------------------------------
 Guess energy components:
 DFT Correlation    Energy =  -1.09351764930309
 DFT Exchange       Energy = -40.58214196488370
 Kinetic            Energy = 577.54528081743365
 Nuclear Attraction Energy = -1186.36893425831386
 Nuclear Repulsion  Energy = -102.89365928466421
 Total Coulomb      Energy = 174.61077062984296
 ----------------------------------------------
  Cycle       Energy         DIIS error
 ----------------------------------------------
 Time for RI-J this SCF iteration is 0.94 s
    1    -578.7869580241      1.66e-03  
 Energy components after cycle 1:
 DFT Correlation    Energy =  -1.09759470244376
 DFT Exchange       Energy = -40.49506089693739
 Kinetic            Energy = 576.71412026371979
 Nuclear Attraction Energy = -1184.60235769072733
 Nuclear Repulsion  Energy = -102.89365928466421
 Total Coulomb      Energy = 173.58759428693782
    2    -578.7869580241      9.39e-04  
 Energy components after cycle 2:
 DFT Correlation    Energy =  -1.09759470244376
 DFT Exchange       Energy = -40.49506089693739
 Kinetic            Energy = 576.71412026371979
 Nuclear Attraction Energy = -1184.60235769072733
 Nuclear Repulsion  Energy = -102.89365928466421
 Total Coulomb      Energy = 173.58759428693782
 ----------------------------------------------
  Cycle       Energy        RMS Gradient
 ----------------------------------------------
 Time for RI-J this SCF iteration is 1.23 s
    1    -578.7879484646      2.11e-02   Descent step
 Energy components after cycle 1:
 DFT Correlation    Energy =  -1.09697467140514
 DFT Exchange       Energy = -40.52040164971224
 Kinetic            Energy = 577.00924962341776
 Nuclear Attraction Energy = -1185.13625206529900
 Nuclear Repulsion  Energy = -102.89365928466421
 Total Coulomb      Energy = 173.85008958302541
 Time for RI-J this SCF iteration is 0.97 s
    2    -578.7879685431      3.84e-03   Normal BFGS step
 Energy components after cycle 2:
 DFT Correlation    Energy =  -1.09661736595753
 DFT Exchange       Energy = -40.52924557845962
 Kinetic            Energy = 577.09861185647310
 Nuclear Attraction Energy = -1185.31707507795636
 Nuclear Repulsion  Energy = -102.89365928466421
 Total Coulomb      Energy = 173.95001690750703
 Time for RI-J this SCF iteration is 0.95 s
    3    -578.7879925325      3.70e-03   Normal BFGS step
 Energy components after cycle 3:
 DFT Correlation    Energy =  -1.09671052562182
 DFT Exchange       Energy = -40.52521925470264
 Kinetic            Energy = 577.05150834037443
 Nuclear Attraction Energy = -1185.23274532927030
 Nuclear Repulsion  Energy = -102.89365928466421
 Total Coulomb      Energy = 173.90883352135214
 Time for RI-J this SCF iteration is 1.24 s
    4    -578.7879926529      1.92e-04   Normal BFGS step
 Energy components after cycle 4:
 DFT Correlation    Energy =  -1.09673219369987
 DFT Exchange       Energy = -40.52543666725127
 Kinetic            Energy = 577.05657277421483
 Nuclear Attraction Energy = -1185.23827237608748
 Nuclear Repulsion  Energy = -102.89365928466421
 Total Coulomb      Energy = 173.90953509458393
 Time for RI-J this SCF iteration is 0.95 s
    5    -578.7879926752      8.91e-05   Normal BFGS step
 Energy components after cycle 5:
 DFT Correlation    Energy =  -1.09672611001559
 DFT Exchange       Energy = -40.52543127990188
 Kinetic            Energy = 577.05592735675077
 Nuclear Attraction Energy = -1185.23794338785956
 Nuclear Repulsion  Energy = -102.89365928466421
 Total Coulomb      Energy = 173.90984003044838
 Time for RI-J this SCF iteration is 1.22 s
    6    -578.7879926754      7.84e-06   Normal BFGS step
 Energy components after cycle 6:
 DFT Correlation    Energy =  -1.09672574957399
 DFT Exchange       Energy = -40.52540870930378
 Kinetic            Energy = 577.05558036215484
 Nuclear Attraction Energy = -1185.23743963775382
 Nuclear Repulsion  Energy = -102.89365928466421
 Total Coulomb      Energy = 173.90966034375199
    6    -578.7879926754      7.84e-06  Convergence criterion met
 ----------------------------------------------
 Final energy components:
 DFT Correlation    Energy =  -1.09672574957399
 DFT Exchange       Energy = -40.52540870930378
 Kinetic            Energy = 577.05558036215484
 Nuclear Attraction Energy = -1185.23743963775382
 Nuclear Repulsion  Energy = -102.89365928466421
 Total Coulomb      Energy = 173.90966034375199
 ----------------------------------------------
 Final energy is -578.7879926754

 SCF time:   CPU 1669.02s  wall 83.00s 
 Total wall time for computing Kinetic: 0.06 s (9)
 Total wall time for computing RIJ-BIGMEM: 10.30 s (9)
 Total wall time for computing RSDF Vnuc: 0.07 s (9)
 Total wall time for computing DFT XC: 57.29 s (9)
 ---------------------------------------------------------------------------
                        Orbital Energies (a.u.)
 ---------------------------------------------------------------------------
 == 0-th k-point (-0.20411,-0.20411,-0.20411) occupation: 14==
 -64.99222 -64.99214 -4.62119 -4.62101 -3.03200 -3.03200 -3.03190 -3.03139 -3.03132 -3.03132
 -0.11327 0.07938 0.23853 0.23853 0.34301 0.40777 0.40777 0.56910 0.58062 0.58062
 0.62291 0.77934 0.83170 0.83170 0.92286 0.96700 0.96700 1.11470 1.22278 1.22278
 1.24618 1.30399 1.30399 1.40769 1.47628 1.47628 1.49392 1.54720 1.54720 1.59987
 1.59987 1.72499 1.84719 1.84719 1.90494 1.91355 1.99450 2.01782 2.01782 2.14212
 2.19534 2.19534 2.35193 2.35193 2.35764 2.42876 2.42876 2.52875 2.52875 2.54891
 3.36014 3.69118 3.69118 3.72854 4.05013 4.05013 4.09800 8.26786
 == 1-th k-point (-0.10205,-0.10205,-0.30616) occupation: 14==
 -64.99221 -64.99218 -4.62120 -4.62101 -3.03203 -3.03201 -3.03186 -3.03144 -3.03131 -3.03130
 -0.11615 0.11276 0.20221 0.21090 0.34996 0.42785 0.44637 0.46614 0.61825 0.62190
 0.66667 0.75583 0.80008 0.85894 0.89357 0.93267 1.03326 1.06375 1.11528 1.23068
 1.28968 1.30615 1.33529 1.41930 1.44329 1.47226 1.54288 1.55360 1.60866 1.61144
 1.68533 1.70805 1.78055 1.82377 1.87316 1.96853 1.99372 1.99910 2.03149 2.05216
 2.15965 2.17480 2.22813 2.27713 2.34418 2.35619 2.46474 2.54216 2.56716 2.67617
 3.33699 3.50337 3.78252 3.93952 3.99703 4.11563 5.79459 7.81205
 == 2-th k-point (-0.00000,-0.00000,-0.40822) occupation: 14==
 -64.99218 -64.99218 -4.62118 -4.62103 -3.03204 -3.03204 -3.03179 -3.03151 -3.03129 -3.03129
 -0.09391 0.09201 0.18590 0.18590 0.30421 0.35188 0.54764 0.54764 0.64322 0.65180
 0.75705 0.79178 0.79178 0.85448 0.89173 0.90690 0.90690 1.00589 1.16680 1.25454
 1.25455 1.25689 1.32278 1.37644 1.39199 1.39200 1.49411 1.67365 1.67369 1.70184
 1.75496 1.75498 1.76677 1.77427 1.85762 1.94215 1.94246 2.02066 2.11547 2.11548
 2.13872 2.15138 2.16556 2.30584 2.35799 2.35799 2.45393 2.52610 2.52640 2.91827
 3.46647 3.52340 3.52398 4.00049 4.30875 4.30941 5.33667 5.85478
 == 3-th k-point (0.10205,0.10205,-0.51027) occupation: 14==
 -64.99221 -64.99218 -4.62114 -4.62107 -3.03202 -3.03202 -3.03172 -3.03156 -3.03128 -3.03125
 -0.05103 0.03466 0.14120 0.18078 0.31705 0.37842 0.55530 0.55542 0.67333 0.68232
 0.74408 0.75585 0.83341 0.87184 0.88427 0.98973 1.00414 1.02980 1.06448 1.15963
 1.17432 1.18362 1.21803 1.33163 1.40953 1.48117 1.54723 1.56116 1.67248 1.70951
 1.74315 1.76662 1.81407 1.83221 1.86265 1.94126 2.02615 2.03677 2.06020 2.13005
 2.15822 2.23092 2.29869 2.34085 2.35972 2.40938 2.45705 2.52753 2.58605 2.73305
 3.08895 3.14659 3.60614 3.76899 3.89060 4.00175 5.53410 7.62039
 == 4-th k-point (0.20411,0.20411,-0.61232) occupation: 14==
 -64.99221 -64.99218 -4.62114 -4.62107 -3.03202 -3.03200 -3.03175 -3.03154 -3.03129 -3.03125
 -0.04369 0.02700 0.11239 0.19719 0.33575 0.49504 0.51737 0.54045 0.55055 0.56984
 0.81216 0.84081 0.86377 0.88145 0.90406 0.94607 0.97582 1.03439 1.12993 1.14559
 1.18849 1.20290 1.31616 1.37701 1.39408 1.40065 1.44025 1.50232 1.64683 1.65298
 1.77773 1.81430 1.81743 1.82623 1.88975 1.92368 1.92976 1.97014 2.06561 2.17948
 2.19861 2.26180 2.33140 2.33365 2.37221 2.40239 2.46914 2.52976 2.60231 2.78253
 2.92266 3.05944 3.61767 3.70735 3.92066 3.92881 5.72778 7.33792
 == 5-th k-point (0.30616,0.30616,-0.71438) occupation: 14==
 -64.99221 -64.99219 -4.62118 -4.62103 -3.03200 -3.03200 -3.03184 -3.03145 -3.03131 -3.03128
 -0.08640 0.05473 0.16313 0.22746 0.36848 0.43055 0.43475 0.54706 0.55596 0.62806
 0.70971 0.75920 0.83216 0.86526 0.89539 0.96745 1.04106 1.11720 1.15240 1.18934
 1.23922 1.26313 1.34108 1.38003 1.40524 1.42628 1.46892 1.57827 1.59632 1.63132
 1.63877 1.75438 1.80078 1.82316 1.88764 1.90035 1.99841 2.03907 2.07027 2.14064
 2.22920 2.25385 2.26844 2.35649 2.42031 2.42990 2.51577 2.54932 2.57462 2.63651
 3.01039 3.42002 3.50039 3.80059 3.98505 4.07163 6.66203 7.56583
 == 6-th k-point (-0.10205,-0.30616,-0.10205) occupation: 14==
 -64.99221 -64.99218 -4.62120 -4.62101 -3.03203 -3.03201 -3.03186 -3.03144 -3.03131 -3.03130
 -0.11615 0.11276 0.20221 0.21090 0.34996 0.42785 0.44637 0.46614 0.61825 0.62190
 0.66667 0.75583 0.80008 0.85894 0.89357 0.93267 1.03326 1.06375 1.11528 1.23068
 1.28968 1.30615 1.33529 1.41930 1.44329 1.47226 1.54288 1.55360 1.60866 1.61144
 1.68533 1.70805 1.78055 1.82377 1.87316 1.96853 1.99372 1.99910 2.03149 2.05216
 2.15965 2.17480 2.22813 2.27713 2.34418 2.35619 2.46474 2.54216 2.56716 2.67617
 3.33699 3.50337 3.78252 3.93952 3.99703 4.11563 5.79459 7.81205
 == 7-th k-point (-0.00000,-0.20411,-0.20411) occupation: 14==
 -64.99221 -64.99220 -4.62122 -4.62100 -3.03199 -3.03199 -3.03190 -3.03141 -3.03133 -3.03131
 -0.12903 0.13933 0.18648 0.25485 0.38981 0.40849 0.42022 0.48665 0.51101 0.62979
 0.66434 0.70827 0.78788 0.87453 0.89532 0.98788 1.06491 1.10052 1.11284 1.13958
 1.29531 1.32565 1.38644 1.41402 1.46029 1.50720 1.53564 1.58379 1.58742 1.63080
 1.63714 1.73409 1.79911 1.80131 1.89322 1.92027 1.94393 1.98699 2.06561 2.08143
 2.08559 2.12977 2.23397 2.28798 2.31354 2.33426 2.39997 2.51865 2.57529 2.72654
 3.07956 3.46083 3.59944 3.98202 4.04785 4.05846 6.75117 7.56090
 == 8-th k-point (0.10205,-0.10205,-0.30616) occupation: 14==
 -64.99221 -64.99218 -4.62120 -4.62101 -3.03203 -3.03201 -3.03186 -3.03144 -3.03131 -3.03130
 -0.11615 0.11276 0.20221 0.21090 0.34996 0.42785 0.44637 0.46614 0.61825 0.62190
 0.66667 0.75584 0.80008 0.85894 0.89357 0.93266 1.03326 1.06375 1.11528 1.23068
 1.28968 1.30615 1.33529 1.41931 1.44329 1.47226 1.54288 1.55360 1.60866 1.61143
 1.68535 1.70805 1.78056 1.82377 1.87316 1.96853 1.99372 1.99909 2.03152 2.05216
 2.15965 2.17482 2.22816 2.27713 2.34417 2.35617 2.46469 2.54225 2.56714 2.67613
 3.33695 3.50336 3.78263 3.93949 3.99700 4.11574 5.79457 7.81188
 == 9-th k-point (0.20411,-0.00000,-0.40822) occupation: 14==
 -64.99220 -64.99220 -4.62117 -4.62104 -3.03202 -3.03201 -3.03179 -3.03150 -3.03129 -3.03126
 -0.07969 0.06854 0.14359 0.19065 0.38304 0.41593 0.43441 0.54061 0.61694 0.64685
 0.76375 0.77612 0.79740 0.84192 0.91229 0.95755 1.02467 1.07220 1.10750 1.15220
 1.21090 1.21330 1.32241 1.38018 1.43490 1.45024 1.54998 1.55829 1.60412 1.64314
 1.67430 1.71553 1.78355 1.86106 1.91294 1.93845 1.98006 1.99495 2.05407 2.12345
 2.19006 2.21379 2.23363 2.35625 2.36774 2.39417 2.44006 2.49334 2.60942 2.78891
 2.93636 3.36107 3.51111 3.85113 3.91216 3.93613 6.81125 7.10050
 == 10-th k-point (0.30616,0.10205,-0.51027) occupation: 14==
 -64.99220 -64.99219 -4.62114 -4.62107 -3.03202 -3.03202 -3.03174 -3.03154 -3.03127 -3.03125
 -0.04332 0.02421 0.12743 0.17333 0.40223 0.40946 0.50535 0.51876 0.55983 0.69657
 0.72563 0.78018 0.88656 0.91298 0.92211 0.96229 0.97883 1.06365 1.07456 1.11317
 1.15930 1.26110 1.26850 1.33688 1.40364 1.42799 1.53041 1.53675 1.55208 1.59060
 1.69845 1.80400 1.82292 1.83686 1.92553 1.93170 1.93955 2.03370 2.07628 2.15104
 2.20919 2.20968 2.25655 2.35445 2.40706 2.46887 2.49489 2.51917 2.61287 2.70741
 2.94806 3.17294 3.65228 3.65607 3.84922 3.88521 6.39094 6.82743
 == 11-th k-point (0.40822,0.20411,-0.61232) occupation: 14==
 -64.99220 -64.99220 -4.62117 -4.62104 -3.03202 -3.03201 -3.03179 -3.03150 -3.03129 -3.03126
 -0.07969 0.06854 0.14359 0.19065 0.38304 0.41593 0.43441 0.54061 0.61694 0.64685
 0.76375 0.77612 0.79740 0.84192 0.91229 0.95755 1.02467 1.07220 1.10750 1.15220
 1.21090 1.21331 1.32241 1.38017 1.43490 1.45023 1.54998 1.55829 1.60412 1.64314
 1.67430 1.71553 1.78355 1.86103 1.91294 1.93845 1.98006 1.99491 2.05408 2.12345
 2.19006 2.21377 2.23363 2.35625 2.36774 2.39418 2.44006 2.49338 2.60941 2.78895
 2.93637 3.36110 3.51113 3.85114 3.91220 3.93618 6.81115 7.10052
 == 12-th k-point (-0.00000,-0.40822,0.00000) occupation: 14==
 -64.99218 -64.99218 -4.62118 -4.62103 -3.03204 -3.03204 -3.03179 -3.03151 -3.03129 -3.03129
[...]
 3.25877 3.42197 3.53831 3.68224 4.01790 4.02485 5.82574 7.84942
 == 186-th k-point (-0.61232,0.20411,0.40822) occupation: 14==
 -64.99220 -64.99220 -4.62117 -4.62104 -3.03202 -3.03201 -3.03179 -3.03150 -3.03129 -3.03126
 -0.07969 0.06854 0.14359 0.19065 0.38304 0.41593 0.43441 0.54061 0.61694 0.64685
 0.76375 0.77612 0.79740 0.84192 0.91229 0.95755 1.02467 1.07220 1.10750 1.15220
 1.21090 1.21331 1.32241 1.38017 1.43490 1.45023 1.54998 1.55829 1.60412 1.64314
 1.67430 1.71553 1.78355 1.86103 1.91294 1.93845 1.98006 1.99491 2.05408 2.12345
 2.19006 2.21377 2.23363 2.35625 2.36774 2.39418 2.44006 2.49338 2.60941 2.78895
 2.93637 3.36110 3.51113 3.85114 3.91220 3.93618 6.81115 7.10052
 == 187-th k-point (-0.51027,0.30616,0.30616) occupation: 14==
 -64.99221 -64.99219 -4.62118 -4.62103 -3.03200 -3.03200 -3.03184 -3.03145 -3.03131 -3.03128
 -0.08640 0.05473 0.16313 0.22746 0.36848 0.43055 0.43475 0.54706 0.55596 0.62806
 0.70971 0.75920 0.83216 0.86526 0.89539 0.96745 1.04106 1.11720 1.15240 1.18934
 1.23922 1.26314 1.34108 1.38003 1.40524 1.42628 1.46892 1.57827 1.59633 1.63132
 1.63877 1.75439 1.80079 1.82316 1.88764 1.90035 1.99841 2.03908 2.07027 2.14064
 2.22920 2.25385 2.26844 2.35650 2.42031 2.42990 2.51579 2.54933 2.57462 2.63656
 3.01041 3.42002 3.50040 3.80058 3.98505 4.07169 6.66212 7.56586
 == 188-th k-point (-0.40822,0.40822,0.20411) occupation: 14==
 -64.99221 -64.99218 -4.62117 -4.62104 -3.03201 -3.03201 -3.03182 -3.03146 -3.03130 -3.03127
 -0.07217 0.03256 0.17321 0.20965 0.35332 0.43024 0.44988 0.51631 0.62908 0.67517
 0.72356 0.72528 0.74895 0.88470 0.95548 1.01896 1.05269 1.06700 1.08999 1.15443
 1.21097 1.31435 1.33308 1.36492 1.42432 1.43460 1.48217 1.53802 1.58283 1.61763
 1.64558 1.73891 1.80343 1.82306 1.89343 1.96200 1.98481 2.01092 2.09102 2.17737
 2.22073 2.25441 2.31819 2.38229 2.38822 2.44099 2.44625 2.52484 2.55918 2.63293
 3.25879 3.42215 3.53833 3.68226 4.01788 4.02485 5.82573 7.84945
 == 189-th k-point (-0.30616,0.51027,0.10205) occupation: 14==
 -64.99220 -64.99219 -4.62114 -4.62107 -3.03202 -3.03202 -3.03174 -3.03154 -3.03127 -3.03125
 -0.04332 0.02421 0.12743 0.17333 0.40223 0.40946 0.50535 0.51876 0.55983 0.69657
 0.72563 0.78018 0.88656 0.91298 0.92211 0.96229 0.97883 1.06365 1.07456 1.11318
 1.15930 1.26110 1.26850 1.33689 1.40364 1.42802 1.53041 1.53675 1.55208 1.59060
 1.69844 1.80402 1.82292 1.83686 1.92553 1.93169 1.93955 2.03370 2.07630 2.15103
 2.20920 2.20967 2.25655 2.35445 2.40707 2.46887 2.49489 2.51918 2.61306 2.70742
 2.94806 3.17296 3.65227 3.65607 3.84919 3.88521 6.39096 6.82746
 == 190-th k-point (-0.20411,0.61232,0.00000) occupation: 14==
 -64.99220 -64.99220 -4.62111 -4.62111 -3.03203 -3.03203 -3.03164 -3.03164 -3.03125 -3.03125
 -0.00695 -0.00695 0.14068 0.14068 0.37955 0.37955 0.52889 0.52889 0.67431 0.67431
 0.76293 0.76293 0.89609 0.89609 0.92997 0.92998 0.99479 0.99480 1.09423 1.09423
 1.16618 1.16618 1.25174 1.25175 1.46486 1.46486 1.52727 1.52728 1.58039 1.58040
 1.78473 1.78473 1.84371 1.84372 1.94884 1.94884 2.01346 2.01347 2.10961 2.10961
 2.17926 2.17928 2.29369 2.29370 2.41670 2.41672 2.50620 2.50624 2.70033 2.70042
 3.00750 3.00755 3.70946 3.70948 3.77198 3.77198 6.53912 6.53919
 == 191-th k-point (-0.10205,0.71438,-0.10205) occupation: 14==
 -64.99221 -64.99218 -4.62114 -4.62107 -3.03202 -3.03202 -3.03172 -3.03156 -3.03128 -3.03125
 -0.05103 0.03466 0.14120 0.18078 0.31705 0.37842 0.55530 0.55542 0.67333 0.68232
 0.74408 0.75585 0.83341 0.87184 0.88427 0.98973 1.00414 1.02979 1.06448 1.15963
 1.17432 1.18360 1.21802 1.33163 1.40953 1.48117 1.54723 1.56116 1.67247 1.70949
 1.74314 1.76662 1.81405 1.83221 1.86266 1.94120 2.02615 2.03676 2.06018 2.13004
 2.15822 2.23092 2.29868 2.34085 2.35971 2.40938 2.45705 2.52752 2.58592 2.73295
 3.08886 3.14658 3.60615 3.76901 3.89065 4.00175 5.53409 7.62000
 == 192-th k-point (-0.51027,0.10205,0.51027) occupation: 14==
 -64.99221 -64.99218 -4.62114 -4.62107 -3.03202 -3.03202 -3.03172 -3.03156 -3.03128 -3.03125
 -0.05103 0.03466 0.14120 0.18078 0.31705 0.37842 0.55530 0.55542 0.67333 0.68232
 0.74408 0.75585 0.83341 0.87184 0.88427 0.98973 1.00413 1.02980 1.06448 1.15963
 1.17430 1.18360 1.21802 1.33163 1.40952 1.48117 1.54723 1.56116 1.67246 1.70950
 1.74314 1.76661 1.81405 1.83221 1.86266 1.94122 2.02615 2.03676 2.06021 2.12999
 2.15822 2.23092 2.29865 2.34085 2.35971 2.40937 2.45706 2.52749 2.58594 2.73298
 3.08889 3.14662 3.60616 3.76901 3.89065 4.00170 5.53410 7.62013
 == 193-th k-point (-0.40822,0.20411,0.40822) occupation: 14==
 -64.99221 -64.99218 -4.62117 -4.62104 -3.03201 -3.03201 -3.03182 -3.03146 -3.03130 -3.03127
 -0.07217 0.03256 0.17321 0.20965 0.35332 0.43024 0.44988 0.51631 0.62908 0.67517
 0.72356 0.72528 0.74895 0.88470 0.95548 1.01896 1.05269 1.06700 1.08999 1.15443
 1.21097 1.31435 1.33308 1.36492 1.42432 1.43460 1.48217 1.53802 1.58283 1.61763
 1.64558 1.73891 1.80343 1.82306 1.89343 1.96200 1.98481 2.01092 2.09102 2.17737
 2.22073 2.25441 2.31819 2.38229 2.38822 2.44099 2.44625 2.52484 2.55918 2.63293
 3.25879 3.42215 3.53833 3.68226 4.01788 4.02485 5.82573 7.84945
 == 194-th k-point (-0.30616,0.30616,0.30616) occupation: 14==
 -64.99221 -64.99214 -4.62117 -4.62103 -3.03200 -3.03200 -3.03187 -3.03140 -3.03131 -3.03131
 -0.07795 0.01891 0.23103 0.23103 0.33490 0.40209 0.40209 0.56704 0.68067 0.68067
 0.69994 0.70425 0.70425 0.76604 1.01856 1.03414 1.10999 1.10999 1.15937 1.15937
 1.25373 1.29804 1.29804 1.36136 1.36136 1.42160 1.54739 1.54740 1.55516 1.55516
 1.63757 1.64291 1.86237 1.93264 1.96221 1.96221 2.01483 2.01484 2.01494 2.08838
 2.34497 2.34499 2.42826 2.42834 2.43688 2.43689 2.45930 2.49405 2.49406 2.50340
 3.42795 3.42795 3.47050 3.58107 3.67441 4.10159 4.10164 7.72854
 == 195-th k-point (-0.20411,0.40822,0.20411) occupation: 14==
 -64.99221 -64.99218 -4.62117 -4.62104 -3.03201 -3.03201 -3.03182 -3.03146 -3.03130 -3.03127
 -0.07217 0.03256 0.17321 0.20965 0.35332 0.43024 0.44988 0.51631 0.62908 0.67517
 0.72356 0.72528 0.74895 0.88470 0.95548 1.01896 1.05269 1.06700 1.08999 1.15443
 1.21097 1.31435 1.33308 1.36492 1.42432 1.43460 1.48217 1.53802 1.58283 1.61763
 1.64558 1.73891 1.80343 1.82306 1.89343 1.96200 1.98481 2.01092 2.09102 2.17737
 2.22073 2.25441 2.31819 2.38229 2.38822 2.44099 2.44625 2.52484 2.55918 2.63293
 3.25879 3.42215 3.53833 3.68226 4.01788 4.02485 5.82573 7.84945
 == 196-th k-point (-0.10205,0.51027,0.10205) occupation: 14==
 -64.99221 -64.99218 -4.62114 -4.62107 -3.03202 -3.03202 -3.03172 -3.03156 -3.03128 -3.03125
 -0.05103 0.03466 0.14120 0.18078 0.31705 0.37842 0.55530 0.55542 0.67333 0.68232
 0.74408 0.75585 0.83341 0.87184 0.88427 0.98973 1.00413 1.02980 1.06448 1.15963
 1.17430 1.18360 1.21802 1.33163 1.40952 1.48117 1.54723 1.56116 1.67246 1.70950
 1.74314 1.76661 1.81405 1.83221 1.86266 1.94122 2.02615 2.03676 2.06021 2.12999
 2.15822 2.23092 2.29865 2.34085 2.35971 2.40937 2.45706 2.52749 2.58594 2.73298
 3.08889 3.14662 3.60616 3.76901 3.89065 4.00170 5.53410 7.62013
 == 197-th k-point (0.00000,0.61232,0.00000) occupation: 14==
 -64.99218 -64.99217 -4.62111 -4.62110 -3.03201 -3.03201 -3.03164 -3.03164 -3.03129 -3.03129
 -0.01143 -0.01143 0.16970 0.16970 0.30408 0.30408 0.65012 0.65012 0.69703 0.69703
 0.75198 0.75198 0.75897 0.75897 0.99864 0.99864 1.04430 1.04431 1.06847 1.06847
 1.11755 1.11755 1.27260 1.27260 1.42132 1.42133 1.63539 1.63539 1.75555 1.75555
 1.76885 1.76885 1.84933 1.84933 1.89735 1.89736 2.11799 2.11799 2.15525 2.15525
 2.17204 2.17328 2.25574 2.25575 2.34475 2.34475 2.65604 2.65790 2.66328 2.66330
 2.83567 2.83567 3.83532 3.83532 4.13270 4.13355 5.45554 5.45557
 == 198-th k-point (-0.40822,0.00000,0.61232) occupation: 14==
 -64.99220 -64.99220 -4.62111 -4.62111 -3.03203 -3.03203 -3.03164 -3.03164 -3.03125 -3.03125
 -0.00695 -0.00695 0.14068 0.14068 0.37955 0.37955 0.52889 0.52889 0.67431 0.67431
 0.76293 0.76293 0.89609 0.89609 0.92997 0.92998 0.99479 0.99480 1.09423 1.09423
 1.16618 1.16618 1.25174 1.25175 1.46486 1.46486 1.52727 1.52728 1.58039 1.58040
 1.78473 1.78473 1.84371 1.84372 1.94884 1.94884 2.01346 2.01347 2.10961 2.10961
 2.17926 2.17928 2.29369 2.29370 2.41670 2.41672 2.50620 2.50624 2.70033 2.70042
 3.00750 3.00755 3.70946 3.70948 3.77198 3.77198 6.53912 6.53919
 == 199-th k-point (-0.30616,0.10205,0.51027) occupation: 14==
 -64.99220 -64.99219 -4.62114 -4.62107 -3.03202 -3.03202 -3.03174 -3.03154 -3.03127 -3.03125
 -0.04332 0.02421 0.12743 0.17333 0.40223 0.40946 0.50535 0.51876 0.55983 0.69657
 0.72563 0.78018 0.88656 0.91298 0.92211 0.96229 0.97883 1.06365 1.07456 1.11318
 1.15930 1.26110 1.26850 1.33689 1.40364 1.42802 1.53041 1.53675 1.55208 1.59060
 1.69844 1.80402 1.82292 1.83686 1.92553 1.93169 1.93955 2.03370 2.07630 2.15103
 2.20920 2.20967 2.25655 2.35445 2.40707 2.46887 2.49489 2.51918 2.61306 2.70742
 2.94806 3.17296 3.65227 3.65607 3.84919 3.88521 6.39096 6.82746
 == 200-th k-point (-0.20411,0.20411,0.40822) occupation: 14==
 -64.99221 -64.99218 -4.62117 -4.62104 -3.03201 -3.03201 -3.03182 -3.03146 -3.03130 -3.03127
 -0.07217 0.03256 0.17321 0.20965 0.35332 0.43024 0.44988 0.51631 0.62908 0.67517
 0.72356 0.72528 0.74895 0.88470 0.95548 1.01896 1.05269 1.06700 1.08999 1.15443
 1.21097 1.31435 1.33308 1.36492 1.42432 1.43460 1.48217 1.53802 1.58283 1.61763
 1.64558 1.73891 1.80343 1.82306 1.89343 1.96200 1.98481 2.01092 2.09102 2.17737
 2.22073 2.25441 2.31819 2.38229 2.38822 2.44099 2.44625 2.52484 2.55918 2.63293
 3.25879 3.42215 3.53833 3.68226 4.01788 4.02485 5.82573 7.84945
 == 201-th k-point (-0.10205,0.30616,0.30616) occupation: 14==
 -64.99221 -64.99219 -4.62118 -4.62103 -3.03200 -3.03200 -3.03184 -3.03145 -3.03131 -3.03128
 -0.08640 0.05473 0.16313 0.22746 0.36848 0.43055 0.43475 0.54706 0.55596 0.62806
 0.70971 0.75920 0.83216 0.86526 0.89539 0.96745 1.04106 1.11720 1.15240 1.18934
 1.23922 1.26314 1.34108 1.38003 1.40524 1.42628 1.46892 1.57827 1.59633 1.63132
 1.63877 1.75439 1.80079 1.82316 1.88764 1.90035 1.99841 2.03908 2.07027 2.14064
 2.22920 2.25385 2.26844 2.35650 2.42031 2.42990 2.51579 2.54933 2.57462 2.63656
 3.01041 3.42002 3.50040 3.80058 3.98505 4.07169 6.66212 7.56586
 == 202-th k-point (0.00000,0.40822,0.20411) occupation: 14==
 -64.99220 -64.99220 -4.62117 -4.62104 -3.03202 -3.03201 -3.03179 -3.03150 -3.03129 -3.03126
 -0.07969 0.06854 0.14359 0.19065 0.38304 0.41593 0.43441 0.54061 0.61694 0.64685
 0.76375 0.77612 0.79740 0.84192 0.91229 0.95755 1.02467 1.07220 1.10750 1.15220
 1.21090 1.21331 1.32241 1.38017 1.43490 1.45023 1.54998 1.55829 1.60412 1.64314
 1.67430 1.71553 1.78355 1.86103 1.91294 1.93845 1.98006 1.99491 2.05408 2.12345
 2.19006 2.21377 2.23363 2.35625 2.36774 2.39418 2.44006 2.49338 2.60941 2.78895
 2.93637 3.36110 3.51113 3.85114 3.91220 3.93618 6.81115 7.10052
 == 203-th k-point (0.10205,0.51027,0.10205) occupation: 14==
 -64.99221 -64.99218 -4.62114 -4.62107 -3.03202 -3.03202 -3.03172 -3.03156 -3.03128 -3.03125
 -0.05103 0.03466 0.14120 0.18078 0.31705 0.37842 0.55530 0.55542 0.67333 0.68232
 0.74408 0.75585 0.83341 0.87184 0.88427 0.98973 1.00414 1.02979 1.06448 1.15963
 1.17432 1.18360 1.21802 1.33163 1.40953 1.48117 1.54723 1.56116 1.67247 1.70949
 1.74314 1.76662 1.81405 1.83221 1.86266 1.94120 2.02615 2.03676 2.06018 2.13004
 2.15822 2.23092 2.29868 2.34085 2.35971 2.40938 2.45705 2.52752 2.58592 2.73295
 3.08886 3.14658 3.60615 3.76901 3.89065 4.00175 5.53409 7.62000
 == 204-th k-point (-0.30616,-0.10205,0.71438) occupation: 14==
 -64.99220 -64.99219 -4.62114 -4.62107 -3.03202 -3.03202 -3.03174 -3.03154 -3.03127 -3.03125
 -0.04332 0.02421 0.12743 0.17333 0.40223 0.40946 0.50535 0.51876 0.55983 0.69657
 0.72563 0.78018 0.88656 0.91299 0.92211 0.96229 0.97883 1.06365 1.07456 1.11318
 1.15930 1.26111 1.26850 1.33688 1.40364 1.42799 1.53042 1.53676 1.55208 1.59060
 1.69845 1.80401 1.82292 1.83688 1.92553 1.93170 1.93955 2.03371 2.07628 2.15104
 2.20919 2.20968 2.25655 2.35445 2.40706 2.46887 2.49489 2.51916 2.61294 2.70740
 2.94806 3.17296 3.65224 3.65605 3.84922 3.88521 6.39097 6.82744
 == 205-th k-point (-0.20411,0.00000,0.61232) occupation: 14==
 -64.99220 -64.99220 -4.62111 -4.62111 -3.03203 -3.03203 -3.03164 -3.03164 -3.03125 -3.03125
 -0.00695 -0.00695 0.14068 0.14068 0.37955 0.37955 0.52889 0.52889 0.67431 0.67431
 0.76293 0.76293 0.89609 0.89609 0.92997 0.92998 0.99479 0.99480 1.09423 1.09423
 1.16618 1.16618 1.25174 1.25175 1.46486 1.46486 1.52727 1.52728 1.58039 1.58040
 1.78473 1.78473 1.84371 1.84372 1.94884 1.94884 2.01346 2.01347 2.10961 2.10961
 2.17926 2.17928 2.29369 2.29370 2.41670 2.41672 2.50620 2.50624 2.70033 2.70042
 3.00750 3.00755 3.70946 3.70948 3.77198 3.77198 6.53912 6.53919
 == 206-th k-point (-0.10205,0.10205,0.51027) occupation: 14==
 -64.99221 -64.99218 -4.62114 -4.62107 -3.03202 -3.03202 -3.03172 -3.03156 -3.03128 -3.03125
 -0.05103 0.03466 0.14120 0.18078 0.31705 0.37842 0.55530 0.55542 0.67333 0.68232
 0.74408 0.75585 0.83341 0.87184 0.88427 0.98973 1.00413 1.02980 1.06448 1.15963
 1.17430 1.18360 1.21802 1.33163 1.40952 1.48117 1.54723 1.56116 1.67246 1.70950
 1.74314 1.76661 1.81405 1.83221 1.86266 1.94122 2.02615 2.03676 2.06021 2.12999
 2.15822 2.23092 2.29865 2.34085 2.35971 2.40937 2.45706 2.52749 2.58594 2.73298
 3.08889 3.14662 3.60616 3.76901 3.89065 4.00170 5.53410 7.62013
 == 207-th k-point (0.00000,0.20411,0.40822) occupation: 14==
 -64.99220 -64.99220 -4.62117 -4.62104 -3.03202 -3.03201 -3.03179 -3.03150 -3.03129 -3.03126
 -0.07969 0.06854 0.14359 0.19065 0.38304 0.41593 0.43441 0.54061 0.61694 0.64685
 0.76375 0.77612 0.79740 0.84192 0.91229 0.95755 1.02467 1.07220 1.10750 1.15220
 1.21090 1.21331 1.32241 1.38017 1.43490 1.45023 1.54998 1.55829 1.60412 1.64314
 1.67430 1.71553 1.78355 1.86103 1.91294 1.93845 1.98006 1.99491 2.05408 2.12345
 2.19006 2.21377 2.23363 2.35625 2.36774 2.39418 2.44006 2.49338 2.60941 2.78895
 2.93637 3.36110 3.51113 3.85114 3.91220 3.93618 6.81115 7.10052
 == 208-th k-point (0.10205,0.30616,0.30616) occupation: 14==
 -64.99221 -64.99219 -4.62118 -4.62103 -3.03200 -3.03200 -3.03184 -3.03145 -3.03131 -3.03128
 -0.08640 0.05473 0.16313 0.22746 0.36848 0.43055 0.43475 0.54706 0.55596 0.62806
 0.70971 0.75920 0.83216 0.86526 0.89539 0.96745 1.04106 1.11720 1.15240 1.18934
 1.23922 1.26313 1.34108 1.38003 1.40524 1.42628 1.46892 1.57827 1.59632 1.63132
 1.63877 1.75438 1.80078 1.82316 1.88764 1.90035 1.99841 2.03907 2.07027 2.14064
 2.22920 2.25385 2.26844 2.35649 2.42031 2.42990 2.51577 2.54932 2.57462 2.63651
 3.01039 3.42002 3.50039 3.80059 3.98505 4.07163 6.66203 7.56583
 == 209-th k-point (0.20411,0.40822,0.20411) occupation: 14==
 -64.99221 -64.99218 -4.62117 -4.62104 -3.03201 -3.03201 -3.03182 -3.03146 -3.03130 -3.03127
 -0.07217 0.03256 0.17321 0.20965 0.35332 0.43024 0.44988 0.51631 0.62908 0.67517
 0.72356 0.72528 0.74895 0.88470 0.95548 1.01896 1.05269 1.06700 1.08999 1.15443
 1.21097 1.31435 1.33308 1.36490 1.42433 1.43460 1.48217 1.53802 1.58282 1.61760
 1.64558 1.73891 1.80343 1.82304 1.89343 1.96199 1.98481 2.01092 2.09101 2.17737
 2.22072 2.25442 2.31814 2.38228 2.38822 2.44098 2.44625 2.52474 2.55917 2.63291
 3.25877 3.42197 3.53831 3.68224 4.01790 4.02485 5.82574 7.84942
 == 210-th k-point (-0.20411,-0.20411,0.81643) occupation: 14==
 -64.99221 -64.99218 -4.62117 -4.62104 -3.03201 -3.03201 -3.03182 -3.03146 -3.03130 -3.03127
 -0.07217 0.03256 0.17321 0.20965 0.35332 0.43024 0.44988 0.51631 0.62908 0.67517
 0.72356 0.72528 0.74895 0.88470 0.95548 1.01896 1.05269 1.06700 1.08999 1.15443
 1.21097 1.31435 1.33308 1.36490 1.42433 1.43460 1.48217 1.53802 1.58282 1.61760
 1.64558 1.73891 1.80343 1.82304 1.89343 1.96199 1.98481 2.01092 2.09101 2.17737
 2.22072 2.25442 2.31814 2.38228 2.38822 2.44098 2.44625 2.52474 2.55917 2.63291
 3.25877 3.42197 3.53831 3.68224 4.01790 4.02485 5.82574 7.84942
 == 211-th k-point (-0.10205,-0.10205,0.71438) occupation: 14==
 -64.99221 -64.99218 -4.62114 -4.62107 -3.03202 -3.03202 -3.03172 -3.03156 -3.03128 -3.03125
 -0.05103 0.03466 0.14120 0.18078 0.31705 0.37842 0.55530 0.55542 0.67333 0.68232
 0.74408 0.75585 0.83341 0.87184 0.88427 0.98973 1.00414 1.02979 1.06448 1.15963
 1.17432 1.18360 1.21802 1.33163 1.40953 1.48117 1.54723 1.56116 1.67247 1.70949
 1.74314 1.76662 1.81405 1.83221 1.86266 1.94120 2.02615 2.03676 2.06018 2.13004
 2.15822 2.23092 2.29868 2.34085 2.35971 2.40938 2.45705 2.52752 2.58592 2.73295
 3.08886 3.14658 3.60615 3.76901 3.89065 4.00175 5.53409 7.62000
 == 212-th k-point (0.00000,0.00000,0.61232) occupation: 14==
 -64.99218 -64.99217 -4.62111 -4.62110 -3.03201 -3.03201 -3.03164 -3.03164 -3.03129 -3.03129
 -0.01143 -0.01143 0.16970 0.16970 0.30408 0.30408 0.65012 0.65012 0.69703 0.69703
 0.75198 0.75198 0.75897 0.75897 0.99864 0.99864 1.04430 1.04431 1.06847 1.06847
 1.11755 1.11755 1.27260 1.27260 1.42132 1.42133 1.63539 1.63539 1.75555 1.75555
 1.76885 1.76885 1.84933 1.84933 1.89735 1.89736 2.11799 2.11799 2.15525 2.15525
 2.17204 2.17328 2.25574 2.25575 2.34475 2.34475 2.65604 2.65790 2.66328 2.66330
 2.83567 2.83567 3.83532 3.83532 4.13270 4.13355 5.45554 5.45557
 == 213-th k-point (0.10205,0.10205,0.51027) occupation: 14==
 -64.99221 -64.99218 -4.62114 -4.62107 -3.03202 -3.03202 -3.03172 -3.03156 -3.03128 -3.03125
 -0.05103 0.03466 0.14120 0.18078 0.31705 0.37842 0.55530 0.55542 0.67333 0.68232
 0.74408 0.75585 0.83341 0.87184 0.88427 0.98973 1.00414 1.02979 1.06448 1.15963
 1.17432 1.18360 1.21802 1.33163 1.40953 1.48117 1.54723 1.56116 1.67247 1.70949
 1.74314 1.76662 1.81405 1.83221 1.86266 1.94120 2.02615 2.03676 2.06018 2.13004
 2.15822 2.23092 2.29868 2.34085 2.35971 2.40938 2.45705 2.52752 2.58592 2.73295
 3.08886 3.14658 3.60615 3.76901 3.89065 4.00175 5.53409 7.62000
 == 214-th k-point (0.20411,0.20411,0.40822) occupation: 14==
 -64.99221 -64.99218 -4.62117 -4.62104 -3.03201 -3.03201 -3.03182 -3.03146 -3.03130 -3.03127
 -0.07217 0.03256 0.17321 0.20965 0.35332 0.43024 0.44988 0.51631 0.62908 0.67517
 0.72356 0.72528 0.74895 0.88470 0.95548 1.01896 1.05269 1.06700 1.08999 1.15443
 1.21097 1.31435 1.33308 1.36490 1.42433 1.43460 1.48217 1.53802 1.58282 1.61760
 1.64558 1.73891 1.80343 1.82304 1.89343 1.96199 1.98481 2.01092 2.09101 2.17737
 2.22072 2.25442 2.31814 2.38228 2.38822 2.44098 2.44625 2.52474 2.55917 2.63291
 3.25877 3.42197 3.53831 3.68224 4.01790 4.02485 5.82574 7.84942
 == 215-th k-point (0.30616,0.30616,0.30616) occupation: 14==
 -64.99221 -64.99214 -4.62117 -4.62103 -3.03200 -3.03200 -3.03187 -3.03140 -3.03131 -3.03131
 -0.07795 0.01891 0.23103 0.23103 0.33490 0.40209 0.40209 0.56704 0.68067 0.68067
 0.69994 0.70425 0.70425 0.76604 1.01856 1.03414 1.10999 1.10999 1.15936 1.15936
 1.25375 1.29804 1.29804 1.36136 1.36136 1.42160 1.54739 1.54739 1.55516 1.55516
 1.63759 1.64291 1.86237 1.93264 1.96221 1.96221 2.01483 2.01483 2.01495 2.08838
 2.34496 2.34496 2.42826 2.42826 2.43688 2.43688 2.45928 2.49406 2.49406 2.50335
 3.42795 3.42795 3.47048 3.58102 3.67441 4.10164 4.10164 7.72851
 ---------------------------------------------------------------------------
 VBM is at 86-th k-point with 7.51916 eV
 CBM is at 197-th k-point with 8.27448 eV
 Band gap is 0.75532 eV


           Ground-State Mulliken Net Atomic Charges

      Atom                 Charge (a.u.)          Spin (a.u.)
   --------------------------------------------------------
      1 Si               (0.000001,-0.000000)    (0.000000,0.000000)
      2 Si               (-0.000001,0.000000)    (0.000000,0.000000)
   --------------------------------------------------------
  Sum of atomic charges =      (0.000000,-0.000000)
  Sum of spin   charges =       (0.000000,0.000000)



 Total job time:  83.68 s.
 Tue Sep  9 09:23:22 2025


        *************************************************************
        *                                                           *
        *  Thank you very much for using QCPBC. Have a nice day.    *
        *                                                           *
        *************************************************************

Running job 1 of 1
