                  Welcome to Q-Chem
           with Periodic Boundary Condition
     A Quantum Leap Into The Future Of Chemistry

 Adam Rettig, Xintian Feng, Meng-Fu Chen, Hieu Dinh, Stephen Quiton,
 Anton Ni, Paul J. Robinson, Jinghong Zhang, Joonho Lee

Contributors to earlier versions of Q-Chem not listed above:
 Evgeny Epifanovsky, Leo Cunha, Jerome F. Gonthier, Kuan-Yu Liu
 Input file: /n/netscratch/joonholee_lab/Lab/hieudinh//si_2_ccpvtz_omega_0.9_333.scratch20250909091505/si_2_ccpvtz_omega_0.9_333.0
 Scratch folder: /n/netscratch/joonholee_lab/Lab/hieudinh//si_2_ccpvtz_omega_0.9_333.scratch20250909091505
 Auxillary files located at: /n/holylabs/LABS/joonholee_lab/Lab/qchem_base/qcaux
 Q-Chem begins on Tue Sep  9 09:15:06 2025

 -------------------------------------------------------------
 User input:
 -------------------------------------------------------------
 $lattice
 3
 0.000000 5.130600 5.130600
 5.130600 0.000000 5.130600
 5.130600 5.130600 0.000000
 $end
 
 $unitcell
 ABSOLUTE
 0 1
 Si 0.000000 0.000000 0.000000
 Si 2.565300 2.565300 2.565300
 $end
 
 $rem
 jobtype = sp
 method = pbe
 scf_convergence = 5
 scf_guess = autosad
 scf_algorithm = diis_gdm
 basis = cc-pvtz
 aux_basis = cc-pvtz-jk
 input_bohr = true
 symmetry = false
 rsdf_print_level 1
 is_basis_uctr true
 
 mp_mesh = [3,3,3]
 
 integral_direct true
 bvk_cgto true
 
 thresh 14
 mem_total 1000000
 threads 32
 
 MAX_SCF_CYCLES 500
 madelung = false
 omega 0.9
 do_rij_bigmem true
 automate_g true
 print_level 10
 grid_type_xc 1
 
 thresh_1e2c_sp 1e-14
 thresh_2e3c_bra_ket_sep 1e-10
 thresh_g 1e-12
 $end
 
 -------------------------------------------------------------
 Running PBC job

 Requested Exchange Correlation Functionals: 
  DFT Exchange:  1.00000 pbe_x
  DFT Correlation:  1.00000 pbe_c
 using 32 threads for computing.
 ---------------------------------------------------------------
      Coordinates of Atoms in Central Unit Cell (Angstroms)
    I     Atom         X            Y            Z
 ---------------------------------------------------------------
    1      Si      0.000000     0.000000     0.000000
    2      Si      1.357498     1.357498     1.357498
 ---------------------------------------------------------------
 --------------------------------------------------
              Lattice Vectors (Angstroms)
              X            Y            Z
 --------------------------------------------------
   X       0.000000     2.714997     2.714997
   Y       2.714997     0.000000     2.714997
   Z       2.714997     2.714997     0.000000
 --------------------------------------------------
 --------------------------------------------------
       Reciprocal Lattice Vectors (Angstroms^-1)
              X            Y            Z
 --------------------------------------------------
   X      -1.157126     1.157126     1.157126
   Y       1.157126    -1.157126     1.157126
   Z       1.157126     1.157126    -1.157126
 --------------------------------------------------

 Single point calculation requested

 Hamiltonian contributions:
 List of terms in Hamiltonian: kpts_nn, kpts_kinetic, kpts_vnuc_df, kpts_xc, kpts_rij_bigmem

 K-Points calculation started.

 Basis set information about using solid harmonic (1) or Cartesian (0):
  si : D(1) D(1) F(1) 

 Basis set information about using solid harmonic (1) or Cartesian (0):
  si : D(1) D(1) D(1) D(1) D(1) D(1) D(1) D(1) D(1) F(1) F(1) F(1) G(1) 

 There are 68 basis functions in the central unit cell.
 Print atomic basis of atoms in the central unit cell:
 -------------------------------------------------------------
2 104 104 24

  0.00000000000000e+00  0.00000000000000e+00  0.00000000000000e+00
  2.56530000000000e+00  2.56530000000000e+00  2.56530000000000e+00

  2.54900000000000e+05
  3.81900000000000e+04
  8.69000000000000e+03
  2.46200000000000e+03
  8.04800000000000e+02
  2.91300000000000e+02
  1.13600000000000e+02
  4.67500000000000e+01
  1.98200000000000e+01
  7.70800000000000e+00
  3.34000000000000e+00
  2.54900000000000e+05
  3.81900000000000e+04
  8.69000000000000e+03
  8.04800000000000e+02
  2.91300000000000e+02
  1.13600000000000e+02
  4.67500000000000e+01
  1.98200000000000e+01
  7.70800000000000e+00
  3.34000000000000e+00
  1.40200000000000e+00
  2.54900000000000e+05
  3.81900000000000e+04
  8.69000000000000e+03
  2.91300000000000e+02
  1.13600000000000e+02
  4.67500000000000e+01
  1.98200000000000e+01
  7.70800000000000e+00
  3.34000000000000e+00
  1.40200000000000e+00
  2.07000000000000e-01
  4.38700000000000e-01
  7.94400000000000e-02
  4.81500000000000e+02
  1.13900000000000e+02
  3.62300000000000e+01
  1.33400000000000e+01
  5.25200000000000e+00
  2.12000000000000e+00
  1.13900000000000e+02
  3.62300000000000e+01
  1.33400000000000e+01
  5.25200000000000e+00
  2.12000000000000e+00
  2.52800000000000e-01
  8.56100000000000e-01
  7.88900000000000e-02
  4.81000000000000e-01
  1.59000000000000e-01
  3.36000000000000e-01
  2.54900000000000e+05
  3.81900000000000e+04
  8.69000000000000e+03
  2.46200000000000e+03
  8.04800000000000e+02
  2.91300000000000e+02
  1.13600000000000e+02
  4.67500000000000e+01
  1.98200000000000e+01
  7.70800000000000e+00
  3.34000000000000e+00
  2.54900000000000e+05
  3.81900000000000e+04
  8.69000000000000e+03
  8.04800000000000e+02
  2.91300000000000e+02
  1.13600000000000e+02
  4.67500000000000e+01
  1.98200000000000e+01
  7.70800000000000e+00
  3.34000000000000e+00
  1.40200000000000e+00
  2.54900000000000e+05
  3.81900000000000e+04
  8.69000000000000e+03
  2.91300000000000e+02
  1.13600000000000e+02
  4.67500000000000e+01
  1.98200000000000e+01
  7.70800000000000e+00
  3.34000000000000e+00
  1.40200000000000e+00
  2.07000000000000e-01
  4.38700000000000e-01
  7.94400000000000e-02
  4.81500000000000e+02
  1.13900000000000e+02
  3.62300000000000e+01
  1.33400000000000e+01
  5.25200000000000e+00
  2.12000000000000e+00
  1.13900000000000e+02
  3.62300000000000e+01
  1.33400000000000e+01
  5.25200000000000e+00
  2.12000000000000e+00
  2.52800000000000e-01
  8.56100000000000e-01
  7.88900000000000e-02
  4.81000000000000e-01
  1.59000000000000e-01
  3.36000000000000e-01

  5.06121931014315e-01
  9.46667895564849e-01
  1.63484840115776e+00
  2.64073594005923e+00
  3.97699155153283e+00
  5.40905960736848e+00
  6.15868961670172e+00
  4.99170532032548e+00
  2.02857976424901e+00
  1.82839763527352e-01
 -1.25640690342342e-02
  1.10808750449959e-03
  1.94415577975663e-03
  2.70023730632789e-03
 -1.69098200112149e-02
 -8.66890848691569e-02
 -2.76125946359713e-01
 -6.25588788447604e-01
 -6.61701688370681e-01
  3.11114524237060e-01
  9.56658906468163e-01
  4.36891217824705e-01
  1.05873342256663e-04
  1.52975802748887e-04
  4.28394863673135e-04
 -4.94070443505333e-03
 -1.17298035021286e-02
 -2.95023896611804e-02
 -1.71455066569284e-02
  3.00007138114875e-03
 -6.19326651465540e-02
 -2.59989143457351e-01
  2.47187614608056e-01
  3.84180942836044e-01
  1.06644759418552e-01
  6.70509611941243e+00
  8.84487660481054e+00
  9.82415782069442e+00
  8.40902910540583e+00
  4.80448757555754e+00
  1.55989499299286e+00
 -1.15889775037608e-01
 -5.13312293701512e-02
 -2.64771097977823e-01
 -6.52512718105956e-02
 -1.94608613796415e-01
  2.59380435893970e-01
  1.17380433533106e+00
  5.95960578383022e-02
  4.57260134599596e-01
  6.58952976069849e-02
  1.26537084505476e-01
  5.06121931014315e-01
  9.46667895564849e-01
  1.63484840115776e+00
  2.64073594005923e+00
  3.97699155153283e+00
  5.40905960736848e+00
  6.15868961670172e+00
  4.99170532032548e+00
  2.02857976424901e+00
  1.82839763527352e-01
 -1.25640690342342e-02
  1.10808750449959e-03
  1.94415577975663e-03
  2.70023730632789e-03
 -1.69098200112149e-02
 -8.66890848691569e-02
 -2.76125946359713e-01
 -6.25588788447604e-01
 -6.61701688370681e-01
  3.11114524237060e-01
  9.56658906468163e-01
  4.36891217824705e-01
  1.05873342256663e-04
  1.52975802748887e-04
  4.28394863673135e-04
 -4.94070443505333e-03
 -1.17298035021286e-02
 -2.95023896611804e-02
 -1.71455066569284e-02
  3.00007138114875e-03
 -6.19326651465540e-02
 -2.59989143457351e-01
  2.47187614608056e-01
  3.84180942836044e-01
  1.06644759418552e-01
  6.70509611941243e+00
  8.84487660481054e+00
  9.82415782069442e+00
  8.40902910540583e+00
  4.80448757555754e+00
  1.55989499299286e+00
 -1.15889775037608e-01
 -5.13312293701512e-02
 -2.64771097977823e-01
 -6.52512718105956e-02
 -1.94608613796415e-01
  2.59380435893970e-01
  1.17380433533106e+00
  5.95960578383022e-02
  4.57260134599596e-01
  6.58952976069849e-02
  1.26537084505476e-01

0 0 0 0 1 1 1
0 0 
11 0

0 1 1 11 1 1 1
11 0 
11 0

0 2 2 22 1 1 1
22 0 
11 0

0 3 3 33 1 1 1
33 0 
1 0

0 4 4 34 1 1 1
34 0 
1 0

0 5 5 35 1 3 3
35 1 
6 0

0 8 8 41 1 3 3
41 1 
6 0

0 11 11 47 1 3 3
47 1 
1 0

0 14 14 48 1 3 3
48 1 
1 0

0 17 17 49 1 5 6
49 2 
1 1

0 22 22 50 1 5 6
50 2 
1 1

0 27 27 51 1 7 10
51 3 
1 1

1 34 34 52 1 1 1
52 0 
11 0

1 35 35 63 1 1 1
63 0 
11 0

1 36 36 74 1 1 1
74 0 
11 0

1 37 37 85 1 1 1
85 0 
1 0

1 38 38 86 1 1 1
86 0 
1 0

1 39 39 87 1 3 3
87 1 
6 0

1 42 42 93 1 3 3
93 1 
6 0

1 45 45 99 1 3 3
99 1 
1 0

1 48 48 100 1 3 3
100 1 
1 0

1 51 51 101 1 5 6
101 2 
1 1

1 56 56 102 1 5 6
102 2 
1 1

1 61 61 103 1 7 10
103 3 
1 1

 -------------------------------------------------------------
 Allocate 263208 B from available memory: 1048576000000 B
 There are 1331 image cells after screening.
 There are 1353 image cells for CGTO evaluation after screening.
 Real-Space grid for FFT initialized based on kinetic energy cutoff (eV) = 500.0
 Real-Space grid for FFT: (10,10,10)
 There are 9261 real-space grid points.
 There are 64 batches of real-space grid points. 
 Size of each grid batch is around 128
 Grid for AFT initialized based on kinetic energy cutoff (eV) = 500.0
 Real-Space grid for AFT: (10,10,10)
 There are 9261 real-space grid points.

 There are 5456 atom-centered grid points.

 Spacegroup symmetry group: Fd-3m
 Reducing spacegroup symmetry to symmorphic group: F -4 3 m
 Monkhorst-Pack mesh is [3,3,3]
 There are 27 k points.
kpoints in Bohr
-0.2041082040 -0.2041082040 -0.2041082040
-0.0000000000 -0.0000000000 -0.4082164079
0.2041082040 0.2041082040 -0.6123246119
-0.0000000000 -0.4082164079 0.0000000000
0.2041082040 -0.2041082040 -0.2041082040
0.4082164079 0.0000000000 -0.4082164079
0.2041082040 -0.6123246119 0.2041082040
0.4082164079 -0.4082164079 0.0000000000
0.6123246119 -0.2041082040 -0.2041082040
-0.4082164079 -0.0000000000 -0.0000000000
-0.2041082040 0.2041082040 -0.2041082040
0.0000000000 0.4082164079 -0.4082164079
-0.2041082040 -0.2041082040 0.2041082040
0.0000000000 0.0000000000 0.0000000000
0.2041082040 0.2041082040 -0.2041082040
-0.0000000000 -0.4082164079 0.4082164079
0.2041082040 -0.2041082040 0.2041082040
0.4082164079 0.0000000000 0.0000000000
-0.6123246119 0.2041082040 0.2041082040
-0.4082164079 0.4082164079 -0.0000000000
-0.2041082040 0.6123246119 -0.2041082040
-0.4082164079 0.0000000000 0.4082164079
-0.2041082040 0.2041082040 0.2041082040
0.0000000000 0.4082164079 0.0000000000
-0.2041082040 -0.2041082040 0.6123246119
0.0000000000 0.0000000000 0.4082164079
0.2041082040 0.2041082040 0.2041082040
 There are 14 alpha and 14 beta electrons
 Start computing overlap matrix
 Allocate 1997568 B from available memory: 1048575736800 B
 Time for computing overlap matrix: 1.7280000000 s
 ====== Initialize compute kernels for all-electron RI-J (kpts) ====== 
 ========================================================== 
 Range-separated parameter omega        = 0.900000000000000022
 Threshold for 1e2c shellpair           = 0.000000000000010000
 Threshold for 2e2c SR integral         = 0.000000000000000001
 Threshold for 2e3c SR integral         = 0.000000000100000000
 Threshold for AFT G-space screening is = 0.000000000001000000
 The exponent cutoff for C/D classification (omega2 / 2) is  = 0.405000000000000027
 ========================================================== 
 === Post process the basis set for RI calculation (exp_cutoff = 0.405000000000000027 ) === 
nshells_b1 before uncontraction = 24
nshells_b1 after uncontraction = 28
nshells_baux before uncontraction = 74
nshells_baux after uncontraction = 74
===============================================
nbsf total   = 76
nbsf compact = 36
nbsf diffuse = 40
naux total   = 242
naux compact = 242
naux diffuse = 0
nshells_bnuc = 2

 Number of unique atoms is 1
 Unique atom #0 (si) has 8 shells.

Shell 0 to 7 belongs to atom si
Shell 8 to 15 belongs to atom si

 Number of unique atoms is 1
 Unique atom #0 (si) has 6 shells.

Shell 0 to 5 belongs to atom si
Shell 6 to 11 belongs to atom si

 Number of unique atom is 1
 Unique atom #0 (si) has 37 auxiliary shells.

Auxiliary Shell 0 to 36 belongs to atom si
Auxiliary Shell 37 to 73 belongs to atom si

================= Automatically determine grid size for reciprocal space summation =================
 Range-separated parameter = 0.90000000000000 and G-space screening threshold = 0.00000000000100
The number of grid points along each axis dimension is (10, 10, 10)
Total number of grid points = 9261

Use nonortho shellpair for diffuse density
======== Initializing relevant kernel for RIJ (DD type) ========
There are 78 shellpairs in the reference unit cell
There are 2659 images and we expect to have 207402 in total
There are 10362 shellpairs in the lattice sum after screening
======== Initializing relevant kernel for RIJ (CD type) ========
There are 192 shellpairs in the reference unit cell
There are 1657 images and we expect to have 318144 in total
There are 12656 shellpairs in the lattice sum after screening
****** AFT -> SR ******
Maximum bra distance cutoff is 20.000000000000
Maximum bra ket distance cutoff is 19.686314259486
Maximum bra ket screening distance is 18.000000000000
Number of auxiliary image is 437
There are 192 shellpairs in the reference unit cell
There are 437 images and we expect to have 83904 in total
There are 12656 shellpairs in the lattice sum after screening
Available memory per thread for 2e3c calculation is 32.767929351000Gb
Finish initializing 2e3c SR with the lattice sum!
=================================================
======== Initializing relevant kernel for RIJ (CC type) ========
There are 135 shellpairs in the reference unit cell
There are 551 images and we expect to have 74385 in total
There are 1200 shellpairs in the lattice sum after screening
****** AFT -> SR ******
Maximum bra distance cutoff is 11.000000000000
Maximum bra ket distance cutoff is 19.281250000000
Maximum bra ket screening distance is 17.500000000000
Number of auxiliary image is 437
There are 135 shellpairs in the reference unit cell
There are 117 images and we expect to have 15795 in total
There are 1200 shellpairs in the lattice sum after screening
Available memory per thread for 2e3c calculation is 32.767929351000Gb
Finish initializing 2e3c SR with the lattice sum!
=================================================
======== Initializing the SR component for Vnuc (CD type) ========
Maximum bra distance cutoff is 20.000000000000
Maximum bra ket distance cutoff is 11.052556209192
Maximum bra ket screening distance is 9.170821735065
Number of auxiliary image is 437
There are 192 shellpairs in the reference unit cell
There are 437 images and we expect to have 83904 in total
There are 12656 shellpairs in the lattice sum after screening
Available memory per thread for 2e3c calculation is 32.767929351000Gb
Finish initializing 2e3c SR with the lattice sum!
=================================================
======== Initialize the SR component for Vnuc (CC type) ========
Maximum bra distance cutoff is 11.000000000000
Maximum bra ket distance cutoff is 11.232824570356
Maximum bra ket screening distance is 8.201723935674
Number of auxiliary image is 117
There are 135 shellpairs in the reference unit cell
There are 117 images and we expect to have 15795 in total
There are 1200 shellpairs in the lattice sum after screening
Available memory per thread for 2e3c calculation is 32.767929351000Gb
Finish initializing 2e3c SR with the lattice sum!
=================================================
 Aufbau occupation scheme, occupation determined by eigenvalue
 == 0-th k-point nmo = 68 (-0.20411,-0.20411,-0.20411) ==
 == 1-th k-point nmo = 68 (-0.00000,-0.00000,-0.40822) ==
 == 2-th k-point nmo = 68 (0.20411,0.20411,-0.61232) ==
 == 3-th k-point nmo = 68 (-0.00000,-0.40822,0.00000) ==
 == 4-th k-point nmo = 68 (0.20411,-0.20411,-0.20411) ==
 == 5-th k-point nmo = 68 (0.40822,0.00000,-0.40822) ==
 == 6-th k-point nmo = 68 (0.20411,-0.61232,0.20411) ==
 == 7-th k-point nmo = 68 (0.40822,-0.40822,0.00000) ==
 == 8-th k-point nmo = 68 (0.61232,-0.20411,-0.20411) ==
 == 9-th k-point nmo = 68 (-0.40822,-0.00000,-0.00000) ==
 == 10-th k-point nmo = 68 (-0.20411,0.20411,-0.20411) ==
 == 11-th k-point nmo = 68 (0.00000,0.40822,-0.40822) ==
 == 12-th k-point nmo = 68 (-0.20411,-0.20411,0.20411) ==
 == 13-th k-point nmo = 68 (0.00000,0.00000,0.00000) ==
 == 14-th k-point nmo = 68 (0.20411,0.20411,-0.20411) ==
 == 15-th k-point nmo = 68 (-0.00000,-0.40822,0.40822) ==
 == 16-th k-point nmo = 68 (0.20411,-0.20411,0.20411) ==
 == 17-th k-point nmo = 68 (0.40822,0.00000,0.00000) ==
 == 18-th k-point nmo = 68 (-0.61232,0.20411,0.20411) ==
 == 19-th k-point nmo = 68 (-0.40822,0.40822,-0.00000) ==
 == 20-th k-point nmo = 68 (-0.20411,0.61232,-0.20411) ==
 == 21-th k-point nmo = 68 (-0.40822,0.00000,0.40822) ==
 == 22-th k-point nmo = 68 (-0.20411,0.20411,0.20411) ==
 == 23-th k-point nmo = 68 (0.00000,0.40822,0.00000) ==
 == 24-th k-point nmo = 68 (-0.20411,-0.20411,0.61232) ==
 == 25-th k-point nmo = 68 (0.00000,0.00000,0.40822) ==
 == 26-th k-point nmo = 68 (0.20411,0.20411,0.20411) ==

 Generate autoSAD guess
backing up fragment data
Atom # 0: si, charge: 0, multiplicity: 3.000000
writing autosad to fragment context
Settings for isolated fragments: 
  frgm_gamma: TRUE
  frgm_center: FALSE

    Running SCF for isolated atom #0
    Fragment Input file: /n/netscratch/joonholee_lab/Lab/hieudinh//si_2_ccpvtz_omega_0.9_333.scratch20250909091505/autosad_frgmt_0/frgmt_input.in
    Fragment Output file: /n/netscratch/joonholee_lab/Lab/hieudinh//si_2_ccpvtz_omega_0.9_333.scratch20250909091505/autosad_frgmt_0/frgmt_job.out
    Fragment job begins at Tue Sep  9 09:15:09 2025

 Integrated density by DFT XC:
   Numerical integral  =    13.999999324657
   Relative error      =     0.0000048239 %
Final energy components:
 DFT Correlation            Energy =  -0.48419291960634
 DFT Exchange               Energy = -20.15457765326664
 Kinetic (alpha)            Energy = 145.16532593944402
 Kinetic (beta)             Energy = 143.17442658177276
 Nuclear Attraction (alpha) Energy = -351.25548439806829
 Nuclear Attraction (beta)  Energy = -337.63206466478061
 Nuclear Repulsion          Energy =   0.00000000000000
 SEOQF                      Energy =   0.00000000065999
 Total Coulomb              Energy = 131.95997984351339
----------------------------------------------
    SCF Energy: -289.2265872703
   Total fragment job time:  0.55 s.
restoring fragment data

 ------------------------------------------------------------------------
 Allocate 6577200 B from available memory: 1048573739232 B
 Time for generating SCF guess: 0.57 s

 Allocate 78392 B from available memory: 1048567162048 B
 Selected algorithms for each term:
  kpts_kinetic -> @0x14ea0197f680
  kpts_nn -> @0x14ea0197f800
  kpts_rij_bigmem -> @0x14ea0197f3e0
  kpts_vnuc_df -> @0x14ea0197f380
  kpts_xc -> @0x14ea0197f2c0
 Time for computing kinetic matrix is 1.87 s
Start calculating Vnuc DD type!
Start calculating Vnuc CD type!
Start calculating Vnuc CC type!
 Time for computing nuclear attraction matrix is 4.25 s
Compute (P|Q) and use solve on the fly!
Maximum distance between P and Q is 28.44997180930993
Number of images for (P|Qn) is 887
 Time for computing 2e2c SR integral is 0.09 s
Maximum dynamic memory per thread for 2e3c SR integrals: 0.016 GiB
Batch size for basis function pair is 1440 out of 1440
 === bvk cell = 0 has 100.000 % of the basis function pairs === 
 === bvk cell = 1 has 95.625 % of the basis function pairs === 
 === bvk cell = 2 has 95.625 % of the basis function pairs === 
 === bvk cell = 3 has 95.625 % of the basis function pairs === 
 === bvk cell = 4 has 73.958 % of the basis function pairs === 
 === bvk cell = 5 has 100.000 % of the basis function pairs === 
 === bvk cell = 6 has 95.625 % of the basis function pairs === 
 === bvk cell = 7 has 100.000 % of the basis function pairs === 
 === bvk cell = 8 has 73.958 % of the basis function pairs === 
 === bvk cell = 9 has 95.625 % of the basis function pairs === 
 === bvk cell = 10 has 73.958 % of the basis function pairs === 
 === bvk cell = 11 has 100.000 % of the basis function pairs === 
 === bvk cell = 12 has 73.958 % of the basis function pairs === 
 === bvk cell = 13 has 54.583 % of the basis function pairs === 
 === bvk cell = 14 has 84.236 % of the basis function pairs === 
 === bvk cell = 15 has 100.000 % of the basis function pairs === 
 === bvk cell = 16 has 84.236 % of the basis function pairs === 
 === bvk cell = 17 has 84.236 % of the basis function pairs === 
 === bvk cell = 18 has 95.625 % of the basis function pairs === 
 === bvk cell = 19 has 100.000 % of the basis function pairs === 
 === bvk cell = 20 has 73.958 % of the basis function pairs === 
 === bvk cell = 21 has 100.000 % of the basis function pairs === 
 === bvk cell = 22 has 84.236 % of the basis function pairs === 
 === bvk cell = 23 has 84.236 % of the basis function pairs === 
 === bvk cell = 24 has 73.958 % of the basis function pairs === 
 === bvk cell = 25 has 84.236 % of the basis function pairs === 
 === bvk cell = 26 has 54.583 % of the basis function pairs === 
Static memory requirement for 2e3c SR integrals: 0.061 GB
There are 1 munu batches for computing 2e3c SR integrals with latsum
There are 4 Q batches for computing 2e3c SR integrals with latsum
 Time for computing 2e3c SR integral (CD) is 0.50 s
Maximum dynamic memory per thread for 2e3c SR integrals: 0.004 GiB
Batch size for basis function pair is 703 out of 703
 === bvk cell = 0 has 100.000 % of the basis function pairs === 
 === bvk cell = 1 has 68.421 % of the basis function pairs === 
 === bvk cell = 2 has 54.908 % of the basis function pairs === 
 === bvk cell = 3 has 68.421 % of the basis function pairs === 
 === bvk cell = 4 has 16.358 % of the basis function pairs === 
 === bvk cell = 5 has 61.593 % of the basis function pairs === 
 === bvk cell = 6 has 54.908 % of the basis function pairs === 
 === bvk cell = 7 has 61.593 % of the basis function pairs === 
 === bvk cell = 8 has 14.225 % of the basis function pairs === 
 === bvk cell = 9 has 68.421 % of the basis function pairs === 
 === bvk cell = 10 has 16.358 % of the basis function pairs === 
 === bvk cell = 11 has 61.593 % of the basis function pairs === 
 === bvk cell = 12 has 16.358 % of the basis function pairs === 
 === bvk cell = 13 has 0.000 % of the basis function pairs === 
 === bvk cell = 14 has 25.320 % of the basis function pairs === 
 === bvk cell = 15 has 61.593 % of the basis function pairs === 
 === bvk cell = 16 has 25.320 % of the basis function pairs === 
 === bvk cell = 17 has 19.488 % of the basis function pairs === 
 === bvk cell = 18 has 54.908 % of the basis function pairs === 
 === bvk cell = 19 has 61.593 % of the basis function pairs === 
 === bvk cell = 20 has 14.225 % of the basis function pairs === 
 === bvk cell = 21 has 61.593 % of the basis function pairs === 
 === bvk cell = 22 has 25.320 % of the basis function pairs === 
 === bvk cell = 23 has 19.488 % of the basis function pairs === 
 === bvk cell = 24 has 14.225 % of the basis function pairs === 
 === bvk cell = 25 has 19.488 % of the basis function pairs === 
 === bvk cell = 26 has 0.000 % of the basis function pairs === 
Static memory requirement for 2e3c SR integrals: 0.014 GB
There are 1 munu batches for computing 2e3c SR integrals with latsum
There are 4 Q batches for computing 2e3c SR integrals with latsum
 Time for computing 2e3c SR integral (CC) is 0.12 s
 Time for RI-J this SCF iteration is 1.58 s
 Time for RI-J this SCF iteration is 0.87 s
 ----------------------------------------------
 Guess energy: -578.7645893383
 ----------------------------------------------
 Guess energy components:
 DFT Correlation    Energy =  -1.09332252281809
 DFT Exchange       Energy = -40.57162700127044
 Kinetic            Energy = 577.35072653729412
 Nuclear Attraction Energy = -1186.00127160016700
 Nuclear Repulsion  Energy = -102.89365928466421
 Total Coulomb      Energy = 174.44456453335411
 ----------------------------------------------
  Cycle       Energy         DIIS error
 ----------------------------------------------
 Time for RI-J this SCF iteration is 0.85 s
    1    -578.7661572310      9.11e-04  
 Energy components after cycle 1:
 DFT Correlation    Energy =  -1.09572482701213
 DFT Exchange       Energy = -40.52404101796228
 Kinetic            Energy = 576.92377397745372
 Nuclear Attraction Energy = -1185.06430150311780
 Nuclear Repulsion  Energy = -102.89365928466421
 Total Coulomb      Energy = 173.88779542429026
    2    -578.7661572310      4.11e-04  
 Energy components after cycle 2:
 DFT Correlation    Energy =  -1.09572482701213
 DFT Exchange       Energy = -40.52404101796228
 Kinetic            Energy = 576.92377397745372
 Nuclear Attraction Energy = -1185.06430150311780
 Nuclear Repulsion  Energy = -102.89365928466421
 Total Coulomb      Energy = 173.88779542429026
 ----------------------------------------------
  Cycle       Energy        RMS Gradient
 ----------------------------------------------
 Time for RI-J this SCF iteration is 0.84 s
    1    -578.7663100288      7.22e-03   Normal BFGS step
 Energy components after cycle 1:
 DFT Correlation    Energy =  -1.09508656391723
 DFT Exchange       Energy = -40.54921038981597
 Kinetic            Energy = 577.20980427554343
 Nuclear Attraction Energy = -1185.58781060346473
 Nuclear Repulsion  Energy = -102.89365928466421
 Total Coulomb      Energy = 174.14965253755355
 Time for RI-J this SCF iteration is 0.86 s
    2    -578.7663422646      2.54e-03   Normal BFGS step
 Energy components after cycle 2:
 DFT Correlation    Energy =  -1.09520474376322
 DFT Exchange       Energy = -40.54005392588430
 Kinetic            Energy = 577.09463305071404
 Nuclear Attraction Energy = -1185.39290328518132
 Nuclear Repulsion  Energy = -102.89365928466421
 Total Coulomb      Energy = 174.06084592414334
 Time for RI-J this SCF iteration is 0.84 s
    3    -578.7663424269      1.28e-04   Normal BFGS step
 Energy components after cycle 3:
 DFT Correlation    Energy =  -1.09522796939114
 DFT Exchange       Energy = -40.54061232061109
 Kinetic            Energy = 577.10466458456585
 Nuclear Attraction Energy = -1185.40598960819557
 Nuclear Repulsion  Energy = -102.89365928466421
 Total Coulomb      Energy = 174.06448217136386
 Time for RI-J this SCF iteration is 0.84 s
    4    -578.7663424435      4.75e-05   Normal BFGS step
 Energy components after cycle 4:
 DFT Correlation    Energy =  -1.09522181697504
 DFT Exchange       Energy = -40.54052164369799
 Kinetic            Energy = 577.10280270658836
 Nuclear Attraction Energy = -1185.40377540251961
 Nuclear Repulsion  Energy = -102.89365928466421
 Total Coulomb      Energy = 174.06403299777216
 Time for RI-J this SCF iteration is 0.84 s
    5    -578.7663424435      1.90e-07   Normal BFGS step
 Energy components after cycle 5:
 DFT Correlation    Energy =  -1.09522182812466
 DFT Exchange       Energy = -40.54052110915860
 Kinetic            Energy = 577.10279644208651
 Nuclear Attraction Energy = -1185.40376413063132
 Nuclear Repulsion  Energy = -102.89365928466421
 Total Coulomb      Energy = 174.06402746699754
    5    -578.7663424435      1.90e-07  Convergence criterion met
 ----------------------------------------------
 Final energy components:
 DFT Correlation    Energy =  -1.09522182812466
 DFT Exchange       Energy = -40.54052110915860
 Kinetic            Energy = 577.10279644208651
 Nuclear Attraction Energy = -1185.40376413063132
 Nuclear Repulsion  Energy = -102.89365928466421
 Total Coulomb      Energy = 174.06402746699754
 ----------------------------------------------
 Final energy is -578.7663424435

 SCF time:   CPU 667.11s  wall 24.00s 
 Total wall time for computing Kinetic: 0.00 s (8)
 Total wall time for computing RIJ-BIGMEM: 7.53 s (8)
 Total wall time for computing RSDF Vnuc: 0.00 s (8)
 Total wall time for computing DFT XC: 6.02 s (8)
 ---------------------------------------------------------------------------
                        Orbital Energies (a.u.)
 ---------------------------------------------------------------------------
 == 0-th k-point (-0.20411,-0.20411,-0.20411) occupation: 14==
 -64.98492 -64.98485 -4.61517 -4.61499 -3.02587 -3.02587 -3.02577 -3.02526 -3.02519 -3.02519
 -0.11030 0.08228 0.24175 0.24175 0.34600 0.40979 0.40979 0.57205 0.58263 0.58263
 0.62608 0.78290 0.83411 0.83411 0.92602 0.96895 0.96895 1.11801 1.22596 1.22596
 1.24948 1.30720 1.30720 1.40980 1.47868 1.47868 1.49742 1.54985 1.54985 1.60250
 1.60250 1.72744 1.84972 1.84972 1.90779 1.91515 1.99775 2.02046 2.02046 2.14588
 2.19761 2.19761 2.35431 2.35431 2.36081 2.43092 2.43092 2.53207 2.53207 2.55277
 3.36425 3.69526 3.69526 3.73267 4.05423 4.05423 4.10198 8.27269
 == 1-th k-point (-0.00000,-0.00000,-0.40822) occupation: 14==
 -64.98489 -64.98488 -4.61516 -4.61501 -3.02591 -3.02591 -3.02566 -3.02537 -3.02516 -3.02516
 -0.09093 0.09537 0.18871 0.18871 0.30648 0.35394 0.55055 0.55055 0.64687 0.65357
 0.76083 0.79421 0.79421 0.85740 0.89366 0.90915 0.90915 1.00880 1.17035 1.25679
 1.25680 1.25974 1.32511 1.38030 1.39494 1.39494 1.49718 1.67571 1.67575 1.70473
 1.75799 1.75800 1.76902 1.77690 1.86016 1.94444 1.94476 2.02456 2.11795 2.11796
 2.14206 2.15480 2.16743 2.30789 2.36072 2.36072 2.45664 2.52954 2.52983 2.92132
 3.47053 3.52719 3.52777 4.00471 4.31296 4.31361 5.34098 5.85926
 == 2-th k-point (0.20411,0.20411,-0.61232) occupation: 14==
 -64.98491 -64.98489 -4.61512 -4.61505 -3.02589 -3.02587 -3.02562 -3.02541 -3.02515 -3.02511
 -0.04054 0.03015 0.11480 0.20010 0.33795 0.49784 0.51963 0.54359 0.55344 0.57202
 0.81516 0.84303 0.86701 0.88413 0.90666 0.94931 0.97890 1.03817 1.13247 1.14724
 1.19060 1.20485 1.31934 1.37956 1.39633 1.40342 1.44301 1.50562 1.64933 1.65527
 1.78001 1.81768 1.82070 1.82887 1.89290 1.92586 1.93249 1.97303 2.06828 2.18284
 2.20075 2.26403 2.33414 2.33582 2.37501 2.40540 2.47151 2.53312 2.60483 2.78579
 2.92702 3.06389 3.62168 3.71132 3.92500 3.93287 5.73203 7.34249
 == 3-th k-point (-0.00000,-0.40822,0.00000) occupation: 14==
 -64.98489 -64.98488 -4.61516 -4.61501 -3.02591 -3.02591 -3.02566 -3.02537 -3.02516 -3.02516
 -0.09093 0.09537 0.18871 0.18871 0.30648 0.35394 0.55055 0.55055 0.64687 0.65357
 0.76083 0.79421 0.79421 0.85740 0.89366 0.90915 0.90915 1.00880 1.17035 1.25679
 1.25680 1.25974 1.32511 1.38030 1.39494 1.39494 1.49718 1.67571 1.67575 1.70473
 1.75799 1.75800 1.76902 1.77690 1.86016 1.94444 1.94476 2.02456 2.11795 2.11796
 2.14206 2.15480 2.16743 2.30789 2.36072 2.36072 2.45664 2.52954 2.52983 2.92132
 3.47053 3.52719 3.52777 4.00471 4.31296 4.31361 5.34098 5.85926
 == 4-th k-point (0.20411,-0.20411,-0.20411) occupation: 14==
 -64.98492 -64.98485 -4.61517 -4.61499 -3.02587 -3.02587 -3.02577 -3.02526 -3.02519 -3.02519
 -0.11030 0.08228 0.24175 0.24175 0.34600 0.40979 0.40979 0.57205 0.58263 0.58263
 0.62608 0.78290 0.83411 0.83411 0.92602 0.96895 0.96896 1.11802 1.22596 1.22596
 1.24948 1.30720 1.30720 1.40980 1.47866 1.47868 1.49742 1.54985 1.54986 1.60250
 1.60250 1.72744 1.84971 1.84972 1.90778 1.91515 1.99774 2.02046 2.02047 2.14587
 2.19758 2.19761 2.35431 2.35431 2.36082 2.43091 2.43092 2.53197 2.53207 2.55273
 3.36425 3.69509 3.69526 3.73266 4.05418 4.05423 4.10193 8.27270
 == 5-th k-point (0.40822,0.00000,-0.40822) occupation: 14==
 -64.98491 -64.98489 -4.61512 -4.61505 -3.02589 -3.02587 -3.02562 -3.02541 -3.02515 -3.02511
 -0.04054 0.03015 0.11480 0.20010 0.33795 0.49784 0.51963 0.54359 0.55344 0.57202
 0.81516 0.84302 0.86701 0.88413 0.90666 0.94931 0.97890 1.03817 1.13247 1.14723
 1.19061 1.20485 1.31934 1.37956 1.39632 1.40340 1.44301 1.50562 1.64926 1.65527
 1.78001 1.81767 1.82070 1.82887 1.89291 1.92586 1.93249 1.97303 2.06827 2.18284
 2.20075 2.26404 2.33415 2.33535 2.37501 2.40541 2.47147 2.53314 2.60482 2.78587
 2.92702 3.06389 3.62170 3.71132 3.92498 3.93295 5.73202 7.34248
 == 6-th k-point (0.20411,-0.61232,0.20411) occupation: 14==
 -64.98491 -64.98489 -4.61512 -4.61505 -3.02589 -3.02587 -3.02562 -3.02541 -3.02515 -3.02511
 -0.04054 0.03015 0.11480 0.20010 0.33795 0.49784 0.51963 0.54359 0.55344 0.57202
 0.81516 0.84303 0.86701 0.88413 0.90666 0.94931 0.97890 1.03817 1.13247 1.14724
 1.19060 1.20485 1.31934 1.37956 1.39633 1.40342 1.44301 1.50562 1.64933 1.65527
 1.78001 1.81768 1.82070 1.82887 1.89290 1.92586 1.93249 1.97303 2.06828 2.18284
 2.20075 2.26403 2.33414 2.33582 2.37501 2.40540 2.47151 2.53312 2.60483 2.78579
 2.92702 3.06389 3.62168 3.71132 3.92500 3.93287 5.73203 7.34249
 == 7-th k-point (0.40822,-0.40822,0.00000) occupation: 14==
 -64.98491 -64.98489 -4.61512 -4.61505 -3.02589 -3.02587 -3.02562 -3.02541 -3.02515 -3.02511
 -0.04054 0.03015 0.11480 0.20010 0.33795 0.49784 0.51963 0.54359 0.55344 0.57202
 0.81516 0.84302 0.86701 0.88413 0.90666 0.94931 0.97890 1.03817 1.13247 1.14723
 1.19061 1.20485 1.31934 1.37956 1.39632 1.40340 1.44301 1.50562 1.64926 1.65527
 1.78001 1.81767 1.82070 1.82887 1.89291 1.92586 1.93249 1.97303 2.06827 2.18284
 2.20075 2.26404 2.33415 2.33535 2.37501 2.40541 2.47147 2.53314 2.60482 2.78587
 2.92702 3.06389 3.62170 3.71132 3.92498 3.93295 5.73202 7.34248
 == 8-th k-point (0.61232,-0.20411,-0.20411) occupation: 14==
 -64.98491 -64.98489 -4.61512 -4.61505 -3.02589 -3.02587 -3.02562 -3.02541 -3.02515 -3.02511
 -0.04054 0.03015 0.11480 0.20010 0.33795 0.49784 0.51963 0.54359 0.55344 0.57202
 0.81516 0.84303 0.86701 0.88413 0.90666 0.94931 0.97890 1.03817 1.13247 1.14724
 1.19060 1.20485 1.31934 1.37956 1.39633 1.40342 1.44301 1.50562 1.64933 1.65527
 1.78001 1.81768 1.82070 1.82887 1.89290 1.92586 1.93249 1.97303 2.06828 2.18284
 2.20075 2.26403 2.33414 2.33582 2.37501 2.40540 2.47151 2.53312 2.60483 2.78579
 2.92702 3.06389 3.62168 3.71132 3.92500 3.93287 5.73203 7.34249
 == 9-th k-point (-0.40822,-0.00000,-0.00000) occupation: 14==
 -64.98489 -64.98488 -4.61516 -4.61501 -3.02591 -3.02591 -3.02566 -3.02537 -3.02516 -3.02516
 -0.09093 0.09537 0.18871 0.18871 0.30648 0.35394 0.55055 0.55055 0.64687 0.65357
 0.76083 0.79421 0.79421 0.85740 0.89366 0.90915 0.90915 1.00880 1.17035 1.25679
 1.25680 1.25974 1.32511 1.38030 1.39494 1.39494 1.49718 1.67571 1.67575 1.70473
 1.75799 1.75800 1.76902 1.77690 1.86016 1.94444 1.94476 2.02456 2.11795 2.11796
 2.14206 2.15480 2.16743 2.30789 2.36072 2.36072 2.45664 2.52954 2.52983 2.92132
 3.47053 3.52719 3.52777 4.00471 4.31296 4.31361 5.34098 5.85926
 == 10-th k-point (-0.20411,0.20411,-0.20411) occupation: 14==
 -64.98492 -64.98485 -4.61517 -4.61499 -3.02587 -3.02587 -3.02577 -3.02526 -3.02519 -3.02519
 -0.11030 0.08228 0.24175 0.24175 0.34600 0.40979 0.40979 0.57205 0.58263 0.58263
 0.62608 0.78290 0.83411 0.83411 0.92602 0.96895 0.96896 1.11802 1.22596 1.22596
 1.24948 1.30720 1.30720 1.40980 1.47866 1.47868 1.49742 1.54985 1.54986 1.60250
 1.60250 1.72744 1.84971 1.84972 1.90778 1.91515 1.99774 2.02046 2.02047 2.14587
 2.19758 2.19761 2.35431 2.35431 2.36082 2.43091 2.43092 2.53197 2.53207 2.55273
 3.36425 3.69509 3.69526 3.73266 4.05418 4.05423 4.10193 8.27270
 == 11-th k-point (0.00000,0.40822,-0.40822) occupation: 14==
 -64.98491 -64.98489 -4.61512 -4.61505 -3.02589 -3.02587 -3.02562 -3.02541 -3.02515 -3.02511
 -0.04054 0.03015 0.11480 0.20010 0.33795 0.49784 0.51963 0.54359 0.55344 0.57202
 0.81516 0.84302 0.86701 0.88413 0.90666 0.94931 0.97890 1.03817 1.13247 1.14723
 1.19061 1.20485 1.31934 1.37956 1.39632 1.40340 1.44301 1.50562 1.64926 1.65527
 1.78001 1.81767 1.82070 1.82887 1.89291 1.92586 1.93249 1.97303 2.06827 2.18284
 2.20075 2.26404 2.33415 2.33535 2.37501 2.40541 2.47147 2.53314 2.60482 2.78587
 2.92702 3.06389 3.62170 3.71132 3.92498 3.93295 5.73202 7.34248
 == 12-th k-point (-0.20411,-0.20411,0.20411) occupation: 14==
 -64.98492 -64.98485 -4.61517 -4.61499 -3.02587 -3.02587 -3.02577 -3.02526 -3.02519 -3.02519
 -0.11030 0.08228 0.24175 0.24175 0.34600 0.40979 0.40979 0.57205 0.58263 0.58263
 0.62608 0.78290 0.83411 0.83411 0.92602 0.96895 0.96896 1.11802 1.22596 1.22596
 1.24948 1.30720 1.30720 1.40980 1.47866 1.47868 1.49742 1.54985 1.54986 1.60250
 1.60250 1.72744 1.84971 1.84972 1.90778 1.91515 1.99774 2.02046 2.02047 2.14587
 2.19758 2.19761 2.35431 2.35431 2.36082 2.43091 2.43092 2.53197 2.53207 2.55273
 3.36425 3.69509 3.69526 3.73266 4.05418 4.05423 4.10193 8.27270
 == 13-th k-point (0.00000,0.00000,0.00000) occupation: 14==
 -64.98486 -64.98482 -4.61521 -4.61494 -3.02583 -3.02583 -3.02583 -3.02522 -3.02522 -3.02522
 -0.16106 0.27988 0.27988 0.27988 0.37335 0.37335 0.37335 0.40556 0.57341 0.57341
 0.58792 0.70803 0.70803 0.70803 0.92345 1.19187 1.19187 1.19187 1.22465 1.22465
 1.24541 1.24541 1.24541 1.37781 1.37781 1.37781 1.63843 1.63843 1.63844 1.79933
 1.79933 1.86608 1.86608 1.86608 1.93671 1.95851 1.95851 1.95856 1.96927 1.96927
 2.07382 2.07382 2.07382 2.13767 2.13767 2.13767 2.27175 2.74581 2.86490 2.86490
 2.86531 3.47265 3.47265 3.47265 4.11979 4.11979 4.12012 4.47090
 == 14-th k-point (0.20411,0.20411,-0.20411) occupation: 14==
 -64.98492 -64.98485 -4.61517 -4.61499 -3.02587 -3.02587 -3.02577 -3.02526 -3.02519 -3.02519
 -0.11030 0.08228 0.24175 0.24175 0.34600 0.40979 0.40979 0.57205 0.58263 0.58263
 0.62608 0.78290 0.83411 0.83411 0.92602 0.96895 0.96896 1.11802 1.22596 1.22596
 1.24948 1.30720 1.30720 1.40980 1.47866 1.47868 1.49742 1.54985 1.54986 1.60250
 1.60250 1.72744 1.84971 1.84972 1.90778 1.91515 1.99774 2.02046 2.02047 2.14587
 2.19758 2.19761 2.35431 2.35431 2.36082 2.43091 2.43092 2.53197 2.53207 2.55273
 3.36425 3.69509 3.69526 3.73266 4.05418 4.05423 4.10193 8.27270
 == 15-th k-point (-0.00000,-0.40822,0.40822) occupation: 14==
 -64.98491 -64.98489 -4.61512 -4.61505 -3.02589 -3.02587 -3.02562 -3.02541 -3.02515 -3.02511
 -0.04054 0.03015 0.11480 0.20010 0.33795 0.49784 0.51963 0.54359 0.55344 0.57202
 0.81516 0.84302 0.86701 0.88413 0.90666 0.94931 0.97890 1.03817 1.13247 1.14723
 1.19061 1.20485 1.31934 1.37956 1.39632 1.40340 1.44301 1.50562 1.64926 1.65527
 1.78001 1.81767 1.82070 1.82887 1.89291 1.92586 1.93249 1.97303 2.06827 2.18284
 2.20075 2.26404 2.33415 2.33535 2.37501 2.40541 2.47147 2.53314 2.60482 2.78587
 2.92702 3.06389 3.62170 3.71132 3.92498 3.93295 5.73202 7.34248
 == 16-th k-point (0.20411,-0.20411,0.20411) occupation: 14==
 -64.98492 -64.98485 -4.61517 -4.61499 -3.02587 -3.02587 -3.02577 -3.02526 -3.02519 -3.02519
 -0.11030 0.08228 0.24175 0.24175 0.34600 0.40979 0.40979 0.57205 0.58263 0.58263
 0.62608 0.78290 0.83411 0.83411 0.92602 0.96895 0.96896 1.11802 1.22596 1.22596
 1.24948 1.30720 1.30720 1.40980 1.47866 1.47868 1.49742 1.54985 1.54986 1.60250
 1.60250 1.72744 1.84971 1.84972 1.90778 1.91515 1.99774 2.02046 2.02047 2.14587
 2.19758 2.19761 2.35431 2.35431 2.36082 2.43091 2.43092 2.53197 2.53207 2.55273
 3.36425 3.69509 3.69526 3.73266 4.05418 4.05423 4.10193 8.27270
 == 17-th k-point (0.40822,0.00000,0.00000) occupation: 14==
 -64.98489 -64.98488 -4.61516 -4.61501 -3.02591 -3.02591 -3.02566 -3.02537 -3.02516 -3.02516
 -0.09093 0.09537 0.18871 0.18871 0.30648 0.35394 0.55055 0.55055 0.64687 0.65357
 0.76083 0.79421 0.79421 0.85740 0.89366 0.90915 0.90915 1.00880 1.17035 1.25679
 1.25680 1.25974 1.32511 1.38030 1.39494 1.39494 1.49718 1.67571 1.67575 1.70473
 1.75799 1.75800 1.76902 1.77690 1.86016 1.94444 1.94476 2.02456 2.11795 2.11796
 2.14206 2.15480 2.16743 2.30789 2.36072 2.36072 2.45664 2.52954 2.52983 2.92132
 3.47053 3.52719 3.52777 4.00471 4.31296 4.31361 5.34098 5.85926
 == 18-th k-point (-0.61232,0.20411,0.20411) occupation: 14==
 -64.98491 -64.98489 -4.61512 -4.61505 -3.02589 -3.02587 -3.02562 -3.02541 -3.02515 -3.02511
 -0.04054 0.03015 0.11480 0.20010 0.33795 0.49784 0.51963 0.54359 0.55344 0.57202
 0.81516 0.84303 0.86701 0.88413 0.90666 0.94931 0.97890 1.03817 1.13247 1.14724
 1.19060 1.20485 1.31934 1.37956 1.39633 1.40342 1.44301 1.50562 1.64933 1.65527
 1.78001 1.81768 1.82070 1.82887 1.89290 1.92586 1.93249 1.97303 2.06828 2.18284
 2.20075 2.26403 2.33414 2.33582 2.37501 2.40540 2.47151 2.53312 2.60483 2.78579
 2.92702 3.06389 3.62168 3.71132 3.92500 3.93287 5.73203 7.34249
 == 19-th k-point (-0.40822,0.40822,-0.00000) occupation: 14==
 -64.98491 -64.98489 -4.61512 -4.61505 -3.02589 -3.02587 -3.02562 -3.02541 -3.02515 -3.02511
 -0.04054 0.03015 0.11480 0.20010 0.33795 0.49784 0.51963 0.54359 0.55344 0.57202
 0.81516 0.84302 0.86701 0.88413 0.90666 0.94931 0.97890 1.03817 1.13247 1.14723
 1.19061 1.20485 1.31934 1.37956 1.39632 1.40340 1.44301 1.50562 1.64926 1.65527
 1.78001 1.81767 1.82070 1.82887 1.89291 1.92586 1.93249 1.97303 2.06827 2.18284
 2.20075 2.26404 2.33415 2.33535 2.37501 2.40541 2.47147 2.53314 2.60482 2.78587
 2.92702 3.06389 3.62170 3.71132 3.92498 3.93295 5.73202 7.34248
 == 20-th k-point (-0.20411,0.61232,-0.20411) occupation: 14==
 -64.98491 -64.98489 -4.61512 -4.61505 -3.02589 -3.02587 -3.02562 -3.02541 -3.02515 -3.02511
 -0.04054 0.03015 0.11480 0.20010 0.33795 0.49784 0.51963 0.54359 0.55344 0.57202
 0.81516 0.84303 0.86701 0.88413 0.90666 0.94931 0.97890 1.03817 1.13247 1.14724
 1.19060 1.20485 1.31934 1.37956 1.39633 1.40342 1.44301 1.50562 1.64933 1.65527
 1.78001 1.81768 1.82070 1.82887 1.89290 1.92586 1.93249 1.97303 2.06828 2.18284
 2.20075 2.26403 2.33414 2.33582 2.37501 2.40540 2.47151 2.53312 2.60483 2.78579
 2.92702 3.06389 3.62168 3.71132 3.92500 3.93287 5.73203 7.34249
 == 21-th k-point (-0.40822,0.00000,0.40822) occupation: 14==
 -64.98491 -64.98489 -4.61512 -4.61505 -3.02589 -3.02587 -3.02562 -3.02541 -3.02515 -3.02511
 -0.04054 0.03015 0.11480 0.20010 0.33795 0.49784 0.51963 0.54359 0.55344 0.57202
 0.81516 0.84302 0.86701 0.88413 0.90666 0.94931 0.97890 1.03817 1.13247 1.14723
 1.19061 1.20485 1.31934 1.37956 1.39632 1.40340 1.44301 1.50562 1.64926 1.65527
 1.78001 1.81767 1.82070 1.82887 1.89291 1.92586 1.93249 1.97303 2.06827 2.18284
 2.20075 2.26404 2.33415 2.33535 2.37501 2.40541 2.47147 2.53314 2.60482 2.78587
 2.92702 3.06389 3.62170 3.71132 3.92498 3.93295 5.73202 7.34248
 == 22-th k-point (-0.20411,0.20411,0.20411) occupation: 14==
 -64.98492 -64.98485 -4.61517 -4.61499 -3.02587 -3.02587 -3.02577 -3.02526 -3.02519 -3.02519
 -0.11030 0.08228 0.24175 0.24175 0.34600 0.40979 0.40979 0.57205 0.58263 0.58263
 0.62608 0.78290 0.83411 0.83411 0.92602 0.96895 0.96896 1.11802 1.22596 1.22596
 1.24948 1.30720 1.30720 1.40980 1.47866 1.47868 1.49742 1.54985 1.54986 1.60250
 1.60250 1.72744 1.84971 1.84972 1.90778 1.91515 1.99774 2.02046 2.02047 2.14587
 2.19758 2.19761 2.35431 2.35431 2.36082 2.43091 2.43092 2.53197 2.53207 2.55273
 3.36425 3.69509 3.69526 3.73266 4.05418 4.05423 4.10193 8.27270
 == 23-th k-point (0.00000,0.40822,0.00000) occupation: 14==
 -64.98489 -64.98488 -4.61516 -4.61501 -3.02591 -3.02591 -3.02566 -3.02537 -3.02516 -3.02516
 -0.09093 0.09537 0.18871 0.18871 0.30648 0.35394 0.55055 0.55055 0.64687 0.65357
 0.76083 0.79421 0.79421 0.85740 0.89366 0.90915 0.90915 1.00880 1.17035 1.25679
 1.25680 1.25974 1.32511 1.38030 1.39494 1.39494 1.49718 1.67571 1.67575 1.70473
 1.75799 1.75800 1.76902 1.77690 1.86016 1.94444 1.94476 2.02456 2.11795 2.11796
 2.14206 2.15480 2.16743 2.30789 2.36072 2.36072 2.45664 2.52954 2.52983 2.92132
 3.47053 3.52719 3.52777 4.00471 4.31296 4.31361 5.34098 5.85926
 == 24-th k-point (-0.20411,-0.20411,0.61232) occupation: 14==
 -64.98491 -64.98489 -4.61512 -4.61505 -3.02589 -3.02587 -3.02562 -3.02541 -3.02515 -3.02511
 -0.04054 0.03015 0.11480 0.20010 0.33795 0.49784 0.51963 0.54359 0.55344 0.57202
 0.81516 0.84303 0.86701 0.88413 0.90666 0.94931 0.97890 1.03817 1.13247 1.14724
 1.19060 1.20485 1.31934 1.37956 1.39633 1.40342 1.44301 1.50562 1.64933 1.65527
 1.78001 1.81768 1.82070 1.82887 1.89290 1.92586 1.93249 1.97303 2.06828 2.18284
 2.20075 2.26403 2.33414 2.33582 2.37501 2.40540 2.47151 2.53312 2.60483 2.78579
 2.92702 3.06389 3.62168 3.71132 3.92500 3.93287 5.73203 7.34249
 == 25-th k-point (0.00000,0.00000,0.40822) occupation: 14==
 -64.98489 -64.98488 -4.61516 -4.61501 -3.02591 -3.02591 -3.02566 -3.02537 -3.02516 -3.02516
 -0.09093 0.09537 0.18871 0.18871 0.30648 0.35394 0.55055 0.55055 0.64687 0.65357
 0.76083 0.79421 0.79421 0.85740 0.89366 0.90915 0.90915 1.00880 1.17035 1.25679
 1.25680 1.25974 1.32511 1.38030 1.39494 1.39494 1.49718 1.67571 1.67575 1.70473
 1.75799 1.75800 1.76902 1.77690 1.86016 1.94444 1.94476 2.02456 2.11795 2.11796
 2.14206 2.15480 2.16743 2.30789 2.36072 2.36072 2.45664 2.52954 2.52983 2.92132
 3.47053 3.52719 3.52777 4.00471 4.31296 4.31361 5.34098 5.85926
 == 26-th k-point (0.20411,0.20411,0.20411) occupation: 14==
 -64.98492 -64.98485 -4.61517 -4.61499 -3.02587 -3.02587 -3.02577 -3.02526 -3.02519 -3.02519
 -0.11030 0.08228 0.24175 0.24175 0.34600 0.40979 0.40979 0.57205 0.58263 0.58263
 0.62608 0.78290 0.83411 0.83411 0.92602 0.96895 0.96895 1.11801 1.22596 1.22596
 1.24948 1.30720 1.30720 1.40980 1.47868 1.47868 1.49742 1.54985 1.54985 1.60250
 1.60250 1.72744 1.84972 1.84972 1.90779 1.91515 1.99775 2.02046 2.02046 2.14588
 2.19761 2.19761 2.35431 2.35431 2.36081 2.43092 2.43092 2.53207 2.53207 2.55277
 3.36425 3.69526 3.69526 3.73267 4.05423 4.05423 4.10198 8.27269
 ---------------------------------------------------------------------------
 VBM is at 13-th k-point with 7.61591 eV
 CBM is at 3-th k-point with 8.33975 eV
 Band gap is 0.72384 eV


           Ground-State Mulliken Net Atomic Charges

      Atom                 Charge (a.u.)          Spin (a.u.)
   --------------------------------------------------------
      1 Si              (-0.000000,-0.000000)    (0.000000,0.000000)
      2 Si                (0.000000,0.000000)    (0.000000,0.000000)
   --------------------------------------------------------
  Sum of atomic charges =     (-0.000000,-0.000000)
  Sum of spin   charges =       (0.000000,0.000000)



 Total job time:  24.20 s.
 Tue Sep  9 09:15:30 2025


        *************************************************************
        *                                                           *
        *  Thank you very much for using QCPBC. Have a nice day.    *
        *                                                           *
        *************************************************************

Running job 1 of 1
