                  Welcome to Q-Chem
           with Periodic Boundary Condition
     A Quantum Leap Into The Future Of Chemistry

 Adam Rettig, Xintian Feng, Meng-Fu Chen, Hieu Dinh, Stephen Quiton,
 Anton Ni, Paul J. Robinson, Jinghong Zhang, Joonho Lee

Contributors to earlier versions of Q-Chem not listed above:
 Evgeny Epifanovsky, Leo Cunha, Jerome F. Gonthier, Kuan-Yu Liu
 Input file: /n/netscratch/joonholee_lab/Lab/hieudinh//si_2_ccpvtz_omega_0.9_555.scratch20250909091831/si_2_ccpvtz_omega_0.9_555.0
 Scratch folder: /n/netscratch/joonholee_lab/Lab/hieudinh//si_2_ccpvtz_omega_0.9_555.scratch20250909091831
 Auxillary files located at: /n/holylabs/LABS/joonholee_lab/Lab/qchem_base/qcaux
 Q-Chem begins on Tue Sep  9 09:18:32 2025

 -------------------------------------------------------------
 User input:
 -------------------------------------------------------------
 $lattice
 3
 0.000000 5.130600 5.130600
 5.130600 0.000000 5.130600
 5.130600 5.130600 0.000000
 $end
 
 $unitcell
 ABSOLUTE
 0 1
 Si 0.000000 0.000000 0.000000
 Si 2.565300 2.565300 2.565300
 $end
 
 $rem
 jobtype = sp
 method = pbe
 scf_convergence = 5
 scf_guess = autosad
 scf_algorithm = diis_gdm
 basis = cc-pvtz
 aux_basis = cc-pvtz-jk
 input_bohr = true
 symmetry = false
 rsdf_print_level 1
 is_basis_uctr true
 
 mp_mesh = [5,5,5]
 
 integral_direct true
 bvk_cgto true
 
 thresh 14
 mem_total 1000000
 threads 32
 
 MAX_SCF_CYCLES 500
 madelung = false
 omega 0.9
 do_rij_bigmem true
 automate_g true
 print_level 10
 grid_type_xc 1
 
 thresh_1e2c_sp 1e-14
 thresh_2e3c_bra_ket_sep 1e-10
 thresh_g 1e-12
 $end
 
 -------------------------------------------------------------
 Running PBC job

 Requested Exchange Correlation Functionals: 
  DFT Exchange:  1.00000 pbe_x
  DFT Correlation:  1.00000 pbe_c
 using 32 threads for computing.
 ---------------------------------------------------------------
      Coordinates of Atoms in Central Unit Cell (Angstroms)
    I     Atom         X            Y            Z
 ---------------------------------------------------------------
    1      Si      0.000000     0.000000     0.000000
    2      Si      1.357498     1.357498     1.357498
 ---------------------------------------------------------------
 --------------------------------------------------
              Lattice Vectors (Angstroms)
              X            Y            Z
 --------------------------------------------------
   X       0.000000     2.714997     2.714997
   Y       2.714997     0.000000     2.714997
   Z       2.714997     2.714997     0.000000
 --------------------------------------------------
 --------------------------------------------------
       Reciprocal Lattice Vectors (Angstroms^-1)
              X            Y            Z
 --------------------------------------------------
   X      -1.157126     1.157126     1.157126
   Y       1.157126    -1.157126     1.157126
   Z       1.157126     1.157126    -1.157126
 --------------------------------------------------

 Single point calculation requested

 Hamiltonian contributions:
 List of terms in Hamiltonian: kpts_nn, kpts_kinetic, kpts_vnuc_df, kpts_xc, kpts_rij_bigmem

 K-Points calculation started.

 Basis set information about using solid harmonic (1) or Cartesian (0):
  si : D(1) D(1) F(1) 

 Basis set information about using solid harmonic (1) or Cartesian (0):
  si : D(1) D(1) D(1) D(1) D(1) D(1) D(1) D(1) D(1) F(1) F(1) F(1) G(1) 

 There are 68 basis functions in the central unit cell.
 Print atomic basis of atoms in the central unit cell:
 -------------------------------------------------------------
2 104 104 24

  0.00000000000000e+00  0.00000000000000e+00  0.00000000000000e+00
  2.56530000000000e+00  2.56530000000000e+00  2.56530000000000e+00

  2.54900000000000e+05
  3.81900000000000e+04
  8.69000000000000e+03
  2.46200000000000e+03
  8.04800000000000e+02
  2.91300000000000e+02
  1.13600000000000e+02
  4.67500000000000e+01
  1.98200000000000e+01
  7.70800000000000e+00
  3.34000000000000e+00
  2.54900000000000e+05
  3.81900000000000e+04
  8.69000000000000e+03
  8.04800000000000e+02
  2.91300000000000e+02
  1.13600000000000e+02
  4.67500000000000e+01
  1.98200000000000e+01
  7.70800000000000e+00
  3.34000000000000e+00
  1.40200000000000e+00
  2.54900000000000e+05
  3.81900000000000e+04
  8.69000000000000e+03
  2.91300000000000e+02
  1.13600000000000e+02
  4.67500000000000e+01
  1.98200000000000e+01
  7.70800000000000e+00
  3.34000000000000e+00
  1.40200000000000e+00
  2.07000000000000e-01
  4.38700000000000e-01
  7.94400000000000e-02
  4.81500000000000e+02
  1.13900000000000e+02
  3.62300000000000e+01
  1.33400000000000e+01
  5.25200000000000e+00
  2.12000000000000e+00
  1.13900000000000e+02
  3.62300000000000e+01
  1.33400000000000e+01
  5.25200000000000e+00
  2.12000000000000e+00
  2.52800000000000e-01
  8.56100000000000e-01
  7.88900000000000e-02
  4.81000000000000e-01
  1.59000000000000e-01
  3.36000000000000e-01
  2.54900000000000e+05
  3.81900000000000e+04
  8.69000000000000e+03
  2.46200000000000e+03
  8.04800000000000e+02
  2.91300000000000e+02
  1.13600000000000e+02
  4.67500000000000e+01
  1.98200000000000e+01
  7.70800000000000e+00
  3.34000000000000e+00
  2.54900000000000e+05
  3.81900000000000e+04
  8.69000000000000e+03
  8.04800000000000e+02
  2.91300000000000e+02
  1.13600000000000e+02
  4.67500000000000e+01
  1.98200000000000e+01
  7.70800000000000e+00
  3.34000000000000e+00
  1.40200000000000e+00
  2.54900000000000e+05
  3.81900000000000e+04
  8.69000000000000e+03
  2.91300000000000e+02
  1.13600000000000e+02
  4.67500000000000e+01
  1.98200000000000e+01
  7.70800000000000e+00
  3.34000000000000e+00
  1.40200000000000e+00
  2.07000000000000e-01
  4.38700000000000e-01
  7.94400000000000e-02
  4.81500000000000e+02
  1.13900000000000e+02
  3.62300000000000e+01
  1.33400000000000e+01
  5.25200000000000e+00
  2.12000000000000e+00
  1.13900000000000e+02
  3.62300000000000e+01
  1.33400000000000e+01
  5.25200000000000e+00
  2.12000000000000e+00
  2.52800000000000e-01
  8.56100000000000e-01
  7.88900000000000e-02
  4.81000000000000e-01
  1.59000000000000e-01
  3.36000000000000e-01

  5.06121931014315e-01
  9.46667895564849e-01
  1.63484840115776e+00
  2.64073594005923e+00
  3.97699155153283e+00
  5.40905960736848e+00
  6.15868961670172e+00
  4.99170532032548e+00
  2.02857976424901e+00
  1.82839763527352e-01
 -1.25640690342342e-02
  1.10808750449959e-03
  1.94415577975663e-03
  2.70023730632789e-03
 -1.69098200112149e-02
 -8.66890848691569e-02
 -2.76125946359713e-01
 -6.25588788447604e-01
 -6.61701688370681e-01
  3.11114524237060e-01
  9.56658906468163e-01
  4.36891217824705e-01
  1.05873342256663e-04
  1.52975802748887e-04
  4.28394863673135e-04
 -4.94070443505333e-03
 -1.17298035021286e-02
 -2.95023896611804e-02
 -1.71455066569284e-02
  3.00007138114875e-03
 -6.19326651465540e-02
 -2.59989143457351e-01
  2.47187614608056e-01
  3.84180942836044e-01
  1.06644759418552e-01
  6.70509611941243e+00
  8.84487660481054e+00
  9.82415782069442e+00
  8.40902910540583e+00
  4.80448757555754e+00
  1.55989499299286e+00
 -1.15889775037608e-01
 -5.13312293701512e-02
 -2.64771097977823e-01
 -6.52512718105956e-02
 -1.94608613796415e-01
  2.59380435893970e-01
  1.17380433533106e+00
  5.95960578383022e-02
  4.57260134599596e-01
  6.58952976069849e-02
  1.26537084505476e-01
  5.06121931014315e-01
  9.46667895564849e-01
  1.63484840115776e+00
  2.64073594005923e+00
  3.97699155153283e+00
  5.40905960736848e+00
  6.15868961670172e+00
  4.99170532032548e+00
  2.02857976424901e+00
  1.82839763527352e-01
 -1.25640690342342e-02
  1.10808750449959e-03
  1.94415577975663e-03
  2.70023730632789e-03
 -1.69098200112149e-02
 -8.66890848691569e-02
 -2.76125946359713e-01
 -6.25588788447604e-01
 -6.61701688370681e-01
  3.11114524237060e-01
  9.56658906468163e-01
  4.36891217824705e-01
  1.05873342256663e-04
  1.52975802748887e-04
  4.28394863673135e-04
 -4.94070443505333e-03
 -1.17298035021286e-02
 -2.95023896611804e-02
 -1.71455066569284e-02
  3.00007138114875e-03
 -6.19326651465540e-02
 -2.59989143457351e-01
  2.47187614608056e-01
  3.84180942836044e-01
  1.06644759418552e-01
  6.70509611941243e+00
  8.84487660481054e+00
  9.82415782069442e+00
  8.40902910540583e+00
  4.80448757555754e+00
  1.55989499299286e+00
 -1.15889775037608e-01
 -5.13312293701512e-02
 -2.64771097977823e-01
 -6.52512718105956e-02
 -1.94608613796415e-01
  2.59380435893970e-01
  1.17380433533106e+00
  5.95960578383022e-02
  4.57260134599596e-01
  6.58952976069849e-02
  1.26537084505476e-01

0 0 0 0 1 1 1
0 0 
11 0

0 1 1 11 1 1 1
11 0 
11 0

0 2 2 22 1 1 1
22 0 
11 0

0 3 3 33 1 1 1
33 0 
1 0

0 4 4 34 1 1 1
34 0 
1 0

0 5 5 35 1 3 3
35 1 
6 0

0 8 8 41 1 3 3
41 1 
6 0

0 11 11 47 1 3 3
47 1 
1 0

0 14 14 48 1 3 3
48 1 
1 0

0 17 17 49 1 5 6
49 2 
1 1

0 22 22 50 1 5 6
50 2 
1 1

0 27 27 51 1 7 10
51 3 
1 1

1 34 34 52 1 1 1
52 0 
11 0

1 35 35 63 1 1 1
63 0 
11 0

1 36 36 74 1 1 1
74 0 
11 0

1 37 37 85 1 1 1
85 0 
1 0

1 38 38 86 1 1 1
86 0 
1 0

1 39 39 87 1 3 3
87 1 
6 0

1 42 42 93 1 3 3
93 1 
6 0

1 45 45 99 1 3 3
99 1 
1 0

1 48 48 100 1 3 3
100 1 
1 0

1 51 51 101 1 5 6
101 2 
1 1

1 56 56 102 1 5 6
102 2 
1 1

1 61 61 103 1 7 10
103 3 
1 1

 -------------------------------------------------------------
 Allocate 263208 B from available memory: 1048576000000 B
 There are 1331 image cells after screening.
 There are 1353 image cells for CGTO evaluation after screening.
 Real-Space grid for FFT initialized based on kinetic energy cutoff (eV) = 500.0
 Real-Space grid for FFT: (10,10,10)
 There are 9261 real-space grid points.
 There are 64 batches of real-space grid points. 
 Size of each grid batch is around 128
 Grid for AFT initialized based on kinetic energy cutoff (eV) = 500.0
 Real-Space grid for AFT: (10,10,10)
 There are 9261 real-space grid points.

 There are 5456 atom-centered grid points.

 Spacegroup symmetry group: Fd-3m
 Reducing spacegroup symmetry to symmorphic group: F -4 3 m
 Monkhorst-Pack mesh is [5,5,5]
 There are 125 k points.
kpoints in Bohr
-0.2449298447 -0.2449298447 -0.2449298447
-0.1224649224 -0.1224649224 -0.3673947671
-0.0000000000 -0.0000000000 -0.4898596895
0.1224649224 0.1224649224 -0.6123246119
0.2449298447 0.2449298447 -0.7347895342
-0.1224649224 -0.3673947671 -0.1224649224
-0.0000000000 -0.2449298447 -0.2449298447
0.1224649224 -0.1224649224 -0.3673947671
0.2449298447 -0.0000000000 -0.4898596895
0.3673947671 0.1224649224 -0.6123246119
-0.0000000000 -0.4898596895 0.0000000000
0.1224649224 -0.3673947671 -0.1224649224
0.2449298447 -0.2449298447 -0.2449298447
0.3673947671 -0.1224649224 -0.3673947671
0.4898596895 0.0000000000 -0.4898596895
0.1224649224 -0.6123246119 0.1224649224
0.2449298447 -0.4898596895 0.0000000000
0.3673947671 -0.3673947671 -0.1224649224
0.4898596895 -0.2449298447 -0.2449298447
0.6123246119 -0.1224649224 -0.3673947671
0.2449298447 -0.7347895342 0.2449298447
0.3673947671 -0.6123246119 0.1224649224
0.4898596895 -0.4898596895 0.0000000000
0.6123246119 -0.3673947671 -0.1224649224
0.7347895342 -0.2449298447 -0.2449298447
-0.3673947671 -0.1224649224 -0.1224649224
-0.2449298447 -0.0000000000 -0.2449298447
-0.1224649224 0.1224649224 -0.3673947671
-0.0000000000 0.2449298447 -0.4898596895
0.1224649224 0.3673947671 -0.6123246119
-0.2449298447 -0.2449298447 0.0000000000
-0.1224649224 -0.1224649224 -0.1224649224
-0.0000000000 -0.0000000000 -0.2449298447
0.1224649224 0.1224649224 -0.3673947671
0.2449298447 0.2449298447 -0.4898596895
-0.1224649224 -0.3673947671 0.1224649224
-0.0000000000 -0.2449298447 0.0000000000
0.1224649224 -0.1224649224 -0.1224649224
0.2449298447 0.0000000000 -0.2449298447
0.3673947671 0.1224649224 -0.3673947671
-0.0000000000 -0.4898596895 0.2449298447
0.1224649224 -0.3673947671 0.1224649224
0.2449298447 -0.2449298447 0.0000000000
0.3673947671 -0.1224649224 -0.1224649224
0.4898596895 0.0000000000 -0.2449298447
0.1224649224 -0.6123246119 0.3673947671
0.2449298447 -0.4898596895 0.2449298447
0.3673947671 -0.3673947671 0.1224649224
0.4898596895 -0.2449298447 0.0000000000
0.6123246119 -0.1224649224 -0.1224649224
-0.4898596895 -0.0000000000 -0.0000000000
-0.3673947671 0.1224649224 -0.1224649224
-0.2449298447 0.2449298447 -0.2449298447
-0.1224649224 0.3673947671 -0.3673947671
0.0000000000 0.4898596895 -0.4898596895
-0.3673947671 -0.1224649224 0.1224649224
-0.2449298447 -0.0000000000 -0.0000000000
-0.1224649224 0.1224649224 -0.1224649224
0.0000000000 0.2449298447 -0.2449298447
0.1224649224 0.3673947671 -0.3673947671
-0.2449298447 -0.2449298447 0.2449298447
-0.1224649224 -0.1224649224 0.1224649224
0.0000000000 0.0000000000 0.0000000000
0.1224649224 0.1224649224 -0.1224649224
0.2449298447 0.2449298447 -0.2449298447
-0.1224649224 -0.3673947671 0.3673947671
-0.0000000000 -0.2449298447 0.2449298447
0.1224649224 -0.1224649224 0.1224649224
0.2449298447 0.0000000000 0.0000000000
0.3673947671 0.1224649224 -0.1224649224
-0.0000000000 -0.4898596895 0.4898596895
0.1224649224 -0.3673947671 0.3673947671
0.2449298447 -0.2449298447 0.2449298447
0.3673947671 -0.1224649224 0.1224649224
0.4898596895 0.0000000000 0.0000000000
-0.6123246119 0.1224649224 0.1224649224
-0.4898596895 0.2449298447 -0.0000000000
-0.3673947671 0.3673947671 -0.1224649224
-0.2449298447 0.4898596895 -0.2449298447
-0.1224649224 0.6123246119 -0.3673947671
-0.4898596895 -0.0000000000 0.2449298447
-0.3673947671 0.1224649224 0.1224649224
-0.2449298447 0.2449298447 -0.0000000000
-0.1224649224 0.3673947671 -0.1224649224
0.0000000000 0.4898596895 -0.2449298447
-0.3673947671 -0.1224649224 0.3673947671
-0.2449298447 0.0000000000 0.2449298447
-0.1224649224 0.1224649224 0.1224649224
0.0000000000 0.2449298447 0.0000000000
0.1224649224 0.3673947671 -0.1224649224
-0.2449298447 -0.2449298447 0.4898596895
-0.1224649224 -0.1224649224 0.3673947671
0.0000000000 0.0000000000 0.2449298447
0.1224649224 0.1224649224 0.1224649224
0.2449298447 0.2449298447 0.0000000000
-0.1224649224 -0.3673947671 0.6123246119
0.0000000000 -0.2449298447 0.4898596895
0.1224649224 -0.1224649224 0.3673947671
0.2449298447 0.0000000000 0.2449298447
0.3673947671 0.1224649224 0.1224649224
-0.7347895342 0.2449298447 0.2449298447
-0.6123246119 0.3673947671 0.1224649224
-0.4898596895 0.4898596895 -0.0000000000
-0.3673947671 0.6123246119 -0.1224649224
-0.2449298447 0.7347895342 -0.2449298447
-0.6123246119 0.1224649224 0.3673947671
-0.4898596895 0.2449298447 0.2449298447
-0.3673947671 0.3673947671 0.1224649224
-0.2449298447 0.4898596895 -0.0000000000
-0.1224649224 0.6123246119 -0.1224649224
-0.4898596895 0.0000000000 0.4898596895
-0.3673947671 0.1224649224 0.3673947671
-0.2449298447 0.2449298447 0.2449298447
-0.1224649224 0.3673947671 0.1224649224
0.0000000000 0.4898596895 0.0000000000
-0.3673947671 -0.1224649224 0.6123246119
-0.2449298447 0.0000000000 0.4898596895
-0.1224649224 0.1224649224 0.3673947671
0.0000000000 0.2449298447 0.2449298447
0.1224649224 0.3673947671 0.1224649224
-0.2449298447 -0.2449298447 0.7347895342
-0.1224649224 -0.1224649224 0.6123246119
0.0000000000 0.0000000000 0.4898596895
0.1224649224 0.1224649224 0.3673947671
0.2449298447 0.2449298447 0.2449298447
 There are 14 alpha and 14 beta electrons
 Start computing overlap matrix
 Allocate 9248000 B from available memory: 1048575736800 B
 Time for computing overlap matrix: 1.8370000000 s
 ====== Initialize compute kernels for all-electron RI-J (kpts) ====== 
 ========================================================== 
 Range-separated parameter omega        = 0.900000000000000022
 Threshold for 1e2c shellpair           = 0.000000000000010000
 Threshold for 2e2c SR integral         = 0.000000000000000001
 Threshold for 2e3c SR integral         = 0.000000000100000000
 Threshold for AFT G-space screening is = 0.000000000001000000
 The exponent cutoff for C/D classification (omega2 / 2) is  = 0.405000000000000027
 ========================================================== 
 === Post process the basis set for RI calculation (exp_cutoff = 0.405000000000000027 ) === 
nshells_b1 before uncontraction = 24
nshells_b1 after uncontraction = 28
nshells_baux before uncontraction = 74
nshells_baux after uncontraction = 74
===============================================
nbsf total   = 76
nbsf compact = 36
nbsf diffuse = 40
naux total   = 242
naux compact = 242
naux diffuse = 0
nshells_bnuc = 2

 Number of unique atoms is 1
 Unique atom #0 (si) has 8 shells.

Shell 0 to 7 belongs to atom si
Shell 8 to 15 belongs to atom si

 Number of unique atoms is 1
 Unique atom #0 (si) has 6 shells.

Shell 0 to 5 belongs to atom si
Shell 6 to 11 belongs to atom si

 Number of unique atom is 1
 Unique atom #0 (si) has 37 auxiliary shells.

Auxiliary Shell 0 to 36 belongs to atom si
Auxiliary Shell 37 to 73 belongs to atom si

================= Automatically determine grid size for reciprocal space summation =================
 Range-separated parameter = 0.90000000000000 and G-space screening threshold = 0.00000000000100
The number of grid points along each axis dimension is (10, 10, 10)
Total number of grid points = 9261

Use nonortho shellpair for diffuse density
======== Initializing relevant kernel for RIJ (DD type) ========
There are 78 shellpairs in the reference unit cell
There are 2659 images and we expect to have 207402 in total
There are 10362 shellpairs in the lattice sum after screening
======== Initializing relevant kernel for RIJ (CD type) ========
There are 192 shellpairs in the reference unit cell
There are 1657 images and we expect to have 318144 in total
There are 12656 shellpairs in the lattice sum after screening
****** AFT -> SR ******
Maximum bra distance cutoff is 20.000000000000
Maximum bra ket distance cutoff is 19.686314259486
Maximum bra ket screening distance is 18.000000000000
Number of auxiliary image is 437
There are 192 shellpairs in the reference unit cell
There are 437 images and we expect to have 83904 in total
There are 12656 shellpairs in the lattice sum after screening
Available memory per thread for 2e3c calculation is 32.767702775000Gb
Finish initializing 2e3c SR with the lattice sum!
=================================================
======== Initializing relevant kernel for RIJ (CC type) ========
There are 135 shellpairs in the reference unit cell
There are 551 images and we expect to have 74385 in total
There are 1200 shellpairs in the lattice sum after screening
****** AFT -> SR ******
Maximum bra distance cutoff is 11.000000000000
Maximum bra ket distance cutoff is 19.281250000000
Maximum bra ket screening distance is 17.500000000000
Number of auxiliary image is 437
There are 135 shellpairs in the reference unit cell
There are 117 images and we expect to have 15795 in total
There are 1200 shellpairs in the lattice sum after screening
Available memory per thread for 2e3c calculation is 32.767702775000Gb
Finish initializing 2e3c SR with the lattice sum!
=================================================
======== Initializing the SR component for Vnuc (CD type) ========
Maximum bra distance cutoff is 20.000000000000
Maximum bra ket distance cutoff is 11.052556209192
Maximum bra ket screening distance is 9.170821735065
Number of auxiliary image is 437
There are 192 shellpairs in the reference unit cell
There are 437 images and we expect to have 83904 in total
There are 12656 shellpairs in the lattice sum after screening
Available memory per thread for 2e3c calculation is 32.767702775000Gb
Finish initializing 2e3c SR with the lattice sum!
=================================================
======== Initialize the SR component for Vnuc (CC type) ========
Maximum bra distance cutoff is 11.000000000000
Maximum bra ket distance cutoff is 11.232824570356
Maximum bra ket screening distance is 8.201723935674
Number of auxiliary image is 117
There are 135 shellpairs in the reference unit cell
There are 117 images and we expect to have 15795 in total
There are 1200 shellpairs in the lattice sum after screening
Available memory per thread for 2e3c calculation is 32.767702775000Gb
Finish initializing 2e3c SR with the lattice sum!
=================================================
 Aufbau occupation scheme, occupation determined by eigenvalue
 == 0-th k-point nmo = 68 (-0.24493,-0.24493,-0.24493) ==
 == 1-th k-point nmo = 68 (-0.12246,-0.12246,-0.36739) ==
 == 2-th k-point nmo = 68 (-0.00000,-0.00000,-0.48986) ==
 == 3-th k-point nmo = 68 (0.12246,0.12246,-0.61232) ==
 == 4-th k-point nmo = 68 (0.24493,0.24493,-0.73479) ==
 == 5-th k-point nmo = 68 (-0.12246,-0.36739,-0.12246) ==
 == 6-th k-point nmo = 68 (-0.00000,-0.24493,-0.24493) ==
 == 7-th k-point nmo = 68 (0.12246,-0.12246,-0.36739) ==
 == 8-th k-point nmo = 68 (0.24493,-0.00000,-0.48986) ==
 == 9-th k-point nmo = 68 (0.36739,0.12246,-0.61232) ==
 == 10-th k-point nmo = 68 (-0.00000,-0.48986,0.00000) ==
 == 11-th k-point nmo = 68 (0.12246,-0.36739,-0.12246) ==
 == 12-th k-point nmo = 68 (0.24493,-0.24493,-0.24493) ==
 == 13-th k-point nmo = 68 (0.36739,-0.12246,-0.36739) ==
 == 14-th k-point nmo = 68 (0.48986,0.00000,-0.48986) ==
 == 15-th k-point nmo = 68 (0.12246,-0.61232,0.12246) ==
 == 16-th k-point nmo = 68 (0.24493,-0.48986,0.00000) ==
 == 17-th k-point nmo = 68 (0.36739,-0.36739,-0.12246) ==
 == 18-th k-point nmo = 68 (0.48986,-0.24493,-0.24493) ==
 == 19-th k-point nmo = 68 (0.61232,-0.12246,-0.36739) ==
 == 20-th k-point nmo = 68 (0.24493,-0.73479,0.24493) ==
 == 21-th k-point nmo = 68 (0.36739,-0.61232,0.12246) ==
 == 22-th k-point nmo = 68 (0.48986,-0.48986,0.00000) ==
 == 23-th k-point nmo = 68 (0.61232,-0.36739,-0.12246) ==
 == 24-th k-point nmo = 68 (0.73479,-0.24493,-0.24493) ==
 == 25-th k-point nmo = 68 (-0.36739,-0.12246,-0.12246) ==
 == 26-th k-point nmo = 68 (-0.24493,-0.00000,-0.24493) ==
 == 27-th k-point nmo = 68 (-0.12246,0.12246,-0.36739) ==
 == 28-th k-point nmo = 68 (-0.00000,0.24493,-0.48986) ==
 == 29-th k-point nmo = 68 (0.12246,0.36739,-0.61232) ==
 == 30-th k-point nmo = 68 (-0.24493,-0.24493,0.00000) ==
 == 31-th k-point nmo = 68 (-0.12246,-0.12246,-0.12246) ==
 == 32-th k-point nmo = 68 (-0.00000,-0.00000,-0.24493) ==
 == 33-th k-point nmo = 68 (0.12246,0.12246,-0.36739) ==
 == 34-th k-point nmo = 68 (0.24493,0.24493,-0.48986) ==
 == 35-th k-point nmo = 68 (-0.12246,-0.36739,0.12246) ==
 == 36-th k-point nmo = 68 (-0.00000,-0.24493,0.00000) ==
 == 37-th k-point nmo = 68 (0.12246,-0.12246,-0.12246) ==
 == 38-th k-point nmo = 68 (0.24493,0.00000,-0.24493) ==
 == 39-th k-point nmo = 68 (0.36739,0.12246,-0.36739) ==
 == 40-th k-point nmo = 68 (-0.00000,-0.48986,0.24493) ==
 == 41-th k-point nmo = 68 (0.12246,-0.36739,0.12246) ==
 == 42-th k-point nmo = 68 (0.24493,-0.24493,0.00000) ==
 == 43-th k-point nmo = 68 (0.36739,-0.12246,-0.12246) ==
 == 44-th k-point nmo = 68 (0.48986,0.00000,-0.24493) ==
 == 45-th k-point nmo = 68 (0.12246,-0.61232,0.36739) ==
 == 46-th k-point nmo = 68 (0.24493,-0.48986,0.24493) ==
 == 47-th k-point nmo = 68 (0.36739,-0.36739,0.12246) ==
 == 48-th k-point nmo = 68 (0.48986,-0.24493,0.00000) ==
 == 49-th k-point nmo = 68 (0.61232,-0.12246,-0.12246) ==
 == 50-th k-point nmo = 68 (-0.48986,-0.00000,-0.00000) ==
 == 51-th k-point nmo = 68 (-0.36739,0.12246,-0.12246) ==
 == 52-th k-point nmo = 68 (-0.24493,0.24493,-0.24493) ==
 == 53-th k-point nmo = 68 (-0.12246,0.36739,-0.36739) ==
 == 54-th k-point nmo = 68 (0.00000,0.48986,-0.48986) ==
 == 55-th k-point nmo = 68 (-0.36739,-0.12246,0.12246) ==
 == 56-th k-point nmo = 68 (-0.24493,-0.00000,-0.00000) ==
 == 57-th k-point nmo = 68 (-0.12246,0.12246,-0.12246) ==
 == 58-th k-point nmo = 68 (0.00000,0.24493,-0.24493) ==
 == 59-th k-point nmo = 68 (0.12246,0.36739,-0.36739) ==
 == 60-th k-point nmo = 68 (-0.24493,-0.24493,0.24493) ==
 == 61-th k-point nmo = 68 (-0.12246,-0.12246,0.12246) ==
 == 62-th k-point nmo = 68 (0.00000,0.00000,0.00000) ==
 == 63-th k-point nmo = 68 (0.12246,0.12246,-0.12246) ==
 == 64-th k-point nmo = 68 (0.24493,0.24493,-0.24493) ==
 == 65-th k-point nmo = 68 (-0.12246,-0.36739,0.36739) ==
 == 66-th k-point nmo = 68 (-0.00000,-0.24493,0.24493) ==
 == 67-th k-point nmo = 68 (0.12246,-0.12246,0.12246) ==
 == 68-th k-point nmo = 68 (0.24493,0.00000,0.00000) ==
 == 69-th k-point nmo = 68 (0.36739,0.12246,-0.12246) ==
 == 70-th k-point nmo = 68 (-0.00000,-0.48986,0.48986) ==
 == 71-th k-point nmo = 68 (0.12246,-0.36739,0.36739) ==
 == 72-th k-point nmo = 68 (0.24493,-0.24493,0.24493) ==
 == 73-th k-point nmo = 68 (0.36739,-0.12246,0.12246) ==
 == 74-th k-point nmo = 68 (0.48986,0.00000,0.00000) ==
 == 75-th k-point nmo = 68 (-0.61232,0.12246,0.12246) ==
 == 76-th k-point nmo = 68 (-0.48986,0.24493,-0.00000) ==
 == 77-th k-point nmo = 68 (-0.36739,0.36739,-0.12246) ==
 == 78-th k-point nmo = 68 (-0.24493,0.48986,-0.24493) ==
 == 79-th k-point nmo = 68 (-0.12246,0.61232,-0.36739) ==
 == 80-th k-point nmo = 68 (-0.48986,-0.00000,0.24493) ==
 == 81-th k-point nmo = 68 (-0.36739,0.12246,0.12246) ==
 == 82-th k-point nmo = 68 (-0.24493,0.24493,-0.00000) ==
 == 83-th k-point nmo = 68 (-0.12246,0.36739,-0.12246) ==
 == 84-th k-point nmo = 68 (0.00000,0.48986,-0.24493) ==
 == 85-th k-point nmo = 68 (-0.36739,-0.12246,0.36739) ==
 == 86-th k-point nmo = 68 (-0.24493,0.00000,0.24493) ==
 == 87-th k-point nmo = 68 (-0.12246,0.12246,0.12246) ==
 == 88-th k-point nmo = 68 (0.00000,0.24493,0.00000) ==
 == 89-th k-point nmo = 68 (0.12246,0.36739,-0.12246) ==
 == 90-th k-point nmo = 68 (-0.24493,-0.24493,0.48986) ==
 == 91-th k-point nmo = 68 (-0.12246,-0.12246,0.36739) ==
 == 92-th k-point nmo = 68 (0.00000,0.00000,0.24493) ==
 == 93-th k-point nmo = 68 (0.12246,0.12246,0.12246) ==
 == 94-th k-point nmo = 68 (0.24493,0.24493,0.00000) ==
 == 95-th k-point nmo = 68 (-0.12246,-0.36739,0.61232) ==
 == 96-th k-point nmo = 68 (0.00000,-0.24493,0.48986) ==
 == 97-th k-point nmo = 68 (0.12246,-0.12246,0.36739) ==
 == 98-th k-point nmo = 68 (0.24493,0.00000,0.24493) ==
 == 99-th k-point nmo = 68 (0.36739,0.12246,0.12246) ==
 == 100-th k-point nmo = 68 (-0.73479,0.24493,0.24493) ==
 == 101-th k-point nmo = 68 (-0.61232,0.36739,0.12246) ==
 == 102-th k-point nmo = 68 (-0.48986,0.48986,-0.00000) ==
 == 103-th k-point nmo = 68 (-0.36739,0.61232,-0.12246) ==
 == 104-th k-point nmo = 68 (-0.24493,0.73479,-0.24493) ==
 == 105-th k-point nmo = 68 (-0.61232,0.12246,0.36739) ==
 == 106-th k-point nmo = 68 (-0.48986,0.24493,0.24493) ==
 == 107-th k-point nmo = 68 (-0.36739,0.36739,0.12246) ==
 == 108-th k-point nmo = 68 (-0.24493,0.48986,-0.00000) ==
 == 109-th k-point nmo = 68 (-0.12246,0.61232,-0.12246) ==
 == 110-th k-point nmo = 68 (-0.48986,0.00000,0.48986) ==
 == 111-th k-point nmo = 68 (-0.36739,0.12246,0.36739) ==
 == 112-th k-point nmo = 68 (-0.24493,0.24493,0.24493) ==
 == 113-th k-point nmo = 68 (-0.12246,0.36739,0.12246) ==
 == 114-th k-point nmo = 68 (0.00000,0.48986,0.00000) ==
 == 115-th k-point nmo = 68 (-0.36739,-0.12246,0.61232) ==
 == 116-th k-point nmo = 68 (-0.24493,0.00000,0.48986) ==
 == 117-th k-point nmo = 68 (-0.12246,0.12246,0.36739) ==
 == 118-th k-point nmo = 68 (0.00000,0.24493,0.24493) ==
 == 119-th k-point nmo = 68 (0.12246,0.36739,0.12246) ==
 == 120-th k-point nmo = 68 (-0.24493,-0.24493,0.73479) ==
 == 121-th k-point nmo = 68 (-0.12246,-0.12246,0.61232) ==
 == 122-th k-point nmo = 68 (0.00000,0.00000,0.48986) ==
 == 123-th k-point nmo = 68 (0.12246,0.12246,0.36739) ==
 == 124-th k-point nmo = 68 (0.24493,0.24493,0.24493) ==

 Generate autoSAD guess
backing up fragment data
Atom # 0: si, charge: 0, multiplicity: 3.000000
writing autosad to fragment context
Settings for isolated fragments: 
  frgm_gamma: TRUE
  frgm_center: FALSE

    Running SCF for isolated atom #0
    Fragment Input file: /n/netscratch/joonholee_lab/Lab/hieudinh//si_2_ccpvtz_omega_0.9_555.scratch20250909091831/autosad_frgmt_0/frgmt_input.in
    Fragment Output file: /n/netscratch/joonholee_lab/Lab/hieudinh//si_2_ccpvtz_omega_0.9_555.scratch20250909091831/autosad_frgmt_0/frgmt_job.out
    Fragment job begins at Tue Sep  9 09:18:35 2025

 Integrated density by DFT XC:
   Numerical integral  =    13.999999324657
   Relative error      =     0.0000048239 %
Final energy components:
 DFT Correlation            Energy =  -0.48419291960634
 DFT Exchange               Energy = -20.15457765326662
 Kinetic (alpha)            Energy = 145.16532593944498
 Kinetic (beta)             Energy = 143.17442658177256
 Nuclear Attraction (alpha) Energy = -351.25548439806937
 Nuclear Attraction (beta)  Energy = -337.63206466478005
 Nuclear Repulsion          Energy =   0.00000000000000
 SEOQF                      Energy =   0.00000000065999
 Total Coulomb              Energy = 131.95997984351334
----------------------------------------------
    SCF Energy: -289.2265872703
   Total fragment job time:  0.58 s.
restoring fragment data

 ------------------------------------------------------------------------
 Allocate 30450000 B from available memory: 1048566488800 B
 Time for generating SCF guess: 0.61 s

 Allocate 78392 B from available memory: 1048536038816 B
 Selected algorithms for each term:
  kpts_kinetic -> @0x14897b34e680
  kpts_nn -> @0x14897b34e800
  kpts_rij_bigmem -> @0x14897b34e3e0
  kpts_vnuc_df -> @0x14897b34e380
  kpts_xc -> @0x14897b34e2c0
 Time for computing kinetic matrix is 1.92 s
Start calculating Vnuc DD type!
Start calculating Vnuc CD type!
Start calculating Vnuc CC type!
 Time for computing nuclear attraction matrix is 4.40 s
Compute (P|Q) and use solve on the fly!
Maximum distance between P and Q is 28.44997180930993
Number of images for (P|Qn) is 887
 Time for computing 2e2c SR integral is 0.09 s
Maximum dynamic memory per thread for 2e3c SR integrals: 0.033 GiB
Batch size for basis function pair is 1440 out of 1440
 === bvk cell = 0 has 100.000 % of the basis function pairs === 
 === bvk cell = 1 has 95.625 % of the basis function pairs === 
 === bvk cell = 2 has 42.014 % of the basis function pairs === 
 === bvk cell = 3 has 42.014 % of the basis function pairs === 
 === bvk cell = 4 has 95.625 % of the basis function pairs === 
 === bvk cell = 5 has 95.625 % of the basis function pairs === 
 === bvk cell = 6 has 58.333 % of the basis function pairs === 
 === bvk cell = 7 has 20.833 % of the basis function pairs === 
 === bvk cell = 8 has 56.042 % of the basis function pairs === 
 === bvk cell = 9 has 100.000 % of the basis function pairs === 
 === bvk cell = 10 has 42.014 % of the basis function pairs === 
 === bvk cell = 11 has 20.833 % of the basis function pairs === 
 === bvk cell = 12 has 13.750 % of the basis function pairs === 
 === bvk cell = 13 has 30.556 % of the basis function pairs === 
 === bvk cell = 14 has 56.042 % of the basis function pairs === 
 === bvk cell = 15 has 42.014 % of the basis function pairs === 
 === bvk cell = 16 has 56.042 % of the basis function pairs === 
 === bvk cell = 17 has 30.556 % of the basis function pairs === 
 === bvk cell = 18 has 13.750 % of the basis function pairs === 
 === bvk cell = 19 has 20.833 % of the basis function pairs === 
 === bvk cell = 20 has 95.625 % of the basis function pairs === 
 === bvk cell = 21 has 100.000 % of the basis function pairs === 
 === bvk cell = 22 has 56.042 % of the basis function pairs === 
 === bvk cell = 23 has 20.833 % of the basis function pairs === 
 === bvk cell = 24 has 58.333 % of the basis function pairs === 
 === bvk cell = 25 has 95.625 % of the basis function pairs === 
 === bvk cell = 26 has 58.333 % of the basis function pairs === 
 === bvk cell = 27 has 20.833 % of the basis function pairs === 
 === bvk cell = 28 has 56.042 % of the basis function pairs === 
 === bvk cell = 29 has 100.000 % of the basis function pairs === 
 === bvk cell = 30 has 58.333 % of the basis function pairs === 
 === bvk cell = 31 has 23.125 % of the basis function pairs === 
 === bvk cell = 32 has 18.611 % of the basis function pairs === 
 === bvk cell = 33 has 54.583 % of the basis function pairs === 
 === bvk cell = 34 has 84.236 % of the basis function pairs === 
 === bvk cell = 35 has 20.833 % of the basis function pairs === 
 === bvk cell = 36 has 18.611 % of the basis function pairs === 
 === bvk cell = 37 has 15.972 % of the basis function pairs === 
 === bvk cell = 38 has 22.083 % of the basis function pairs === 
 === bvk cell = 39 has 26.736 % of the basis function pairs === 
 === bvk cell = 40 has 56.042 % of the basis function pairs === 
 === bvk cell = 41 has 54.583 % of the basis function pairs === 
 === bvk cell = 42 has 22.083 % of the basis function pairs === 
 === bvk cell = 43 has 8.611 % of the basis function pairs === 
 === bvk cell = 44 has 26.736 % of the basis function pairs === 
 === bvk cell = 45 has 100.000 % of the basis function pairs === 
 === bvk cell = 46 has 84.236 % of the basis function pairs === 
 === bvk cell = 47 has 26.736 % of the basis function pairs === 
 === bvk cell = 48 has 26.736 % of the basis function pairs === 
 === bvk cell = 49 has 84.236 % of the basis function pairs === 
 === bvk cell = 50 has 42.014 % of the basis function pairs === 
 === bvk cell = 51 has 20.833 % of the basis function pairs === 
 === bvk cell = 52 has 13.750 % of the basis function pairs === 
 === bvk cell = 53 has 30.556 % of the basis function pairs === 
 === bvk cell = 54 has 56.042 % of the basis function pairs === 
 === bvk cell = 55 has 20.833 % of the basis function pairs === 
 === bvk cell = 56 has 18.611 % of the basis function pairs === 
 === bvk cell = 57 has 15.972 % of the basis function pairs === 
 === bvk cell = 58 has 22.083 % of the basis function pairs === 
 === bvk cell = 59 has 26.736 % of the basis function pairs === 
 === bvk cell = 60 has 13.750 % of the basis function pairs === 
 === bvk cell = 61 has 15.972 % of the basis function pairs === 
 === bvk cell = 62 has 0.000 % of the basis function pairs === 
 === bvk cell = 63 has 8.333 % of the basis function pairs === 
 === bvk cell = 64 has 8.611 % of the basis function pairs === 
 === bvk cell = 65 has 30.556 % of the basis function pairs === 
 === bvk cell = 66 has 22.083 % of the basis function pairs === 
 === bvk cell = 67 has 8.333 % of the basis function pairs === 
 === bvk cell = 68 has 8.333 % of the basis function pairs === 
 === bvk cell = 69 has 22.083 % of the basis function pairs === 
 === bvk cell = 70 has 56.042 % of the basis function pairs === 
 === bvk cell = 71 has 26.736 % of the basis function pairs === 
 === bvk cell = 72 has 8.611 % of the basis function pairs === 
 === bvk cell = 73 has 22.083 % of the basis function pairs === 
 === bvk cell = 74 has 54.583 % of the basis function pairs === 
 === bvk cell = 75 has 42.014 % of the basis function pairs === 
 === bvk cell = 76 has 56.042 % of the basis function pairs === 
 === bvk cell = 77 has 30.556 % of the basis function pairs === 
 === bvk cell = 78 has 13.750 % of the basis function pairs === 
 === bvk cell = 79 has 20.833 % of the basis function pairs === 
 === bvk cell = 80 has 56.042 % of the basis function pairs === 
 === bvk cell = 81 has 54.583 % of the basis function pairs === 
 === bvk cell = 82 has 22.083 % of the basis function pairs === 
 === bvk cell = 83 has 8.611 % of the basis function pairs === 
 === bvk cell = 84 has 26.736 % of the basis function pairs === 
 === bvk cell = 85 has 30.556 % of the basis function pairs === 
 === bvk cell = 86 has 22.083 % of the basis function pairs === 
 === bvk cell = 87 has 8.333 % of the basis function pairs === 
 === bvk cell = 88 has 8.333 % of the basis function pairs === 
 === bvk cell = 89 has 22.083 % of the basis function pairs === 
 === bvk cell = 90 has 13.750 % of the basis function pairs === 
 === bvk cell = 91 has 8.611 % of the basis function pairs === 
 === bvk cell = 92 has 8.333 % of the basis function pairs === 
 === bvk cell = 93 has 0.000 % of the basis function pairs === 
 === bvk cell = 94 has 15.972 % of the basis function pairs === 
 === bvk cell = 95 has 20.833 % of the basis function pairs === 
 === bvk cell = 96 has 26.736 % of the basis function pairs === 
 === bvk cell = 97 has 22.083 % of the basis function pairs === 
 === bvk cell = 98 has 15.972 % of the basis function pairs === 
 === bvk cell = 99 has 18.611 % of the basis function pairs === 
 === bvk cell = 100 has 95.625 % of the basis function pairs === 
 === bvk cell = 101 has 100.000 % of the basis function pairs === 
 === bvk cell = 102 has 56.042 % of the basis function pairs === 
 === bvk cell = 103 has 20.833 % of the basis function pairs === 
 === bvk cell = 104 has 58.333 % of the basis function pairs === 
 === bvk cell = 105 has 100.000 % of the basis function pairs === 
 === bvk cell = 106 has 84.236 % of the basis function pairs === 
 === bvk cell = 107 has 26.736 % of the basis function pairs === 
 === bvk cell = 108 has 26.736 % of the basis function pairs === 
 === bvk cell = 109 has 84.236 % of the basis function pairs === 
 === bvk cell = 110 has 56.042 % of the basis function pairs === 
 === bvk cell = 111 has 26.736 % of the basis function pairs === 
 === bvk cell = 112 has 8.611 % of the basis function pairs === 
 === bvk cell = 113 has 22.083 % of the basis function pairs === 
 === bvk cell = 114 has 54.583 % of the basis function pairs === 
 === bvk cell = 115 has 20.833 % of the basis function pairs === 
 === bvk cell = 116 has 26.736 % of the basis function pairs === 
 === bvk cell = 117 has 22.083 % of the basis function pairs === 
 === bvk cell = 118 has 15.972 % of the basis function pairs === 
 === bvk cell = 119 has 18.611 % of the basis function pairs === 
 === bvk cell = 120 has 58.333 % of the basis function pairs === 
 === bvk cell = 121 has 84.236 % of the basis function pairs === 
 === bvk cell = 122 has 54.583 % of the basis function pairs === 
 === bvk cell = 123 has 18.611 % of the basis function pairs === 
 === bvk cell = 124 has 23.125 % of the basis function pairs === 
Static memory requirement for 2e3c SR integrals: 0.126 GB
There are 1 munu batches for computing 2e3c SR integrals with latsum
There are 4 Q batches for computing 2e3c SR integrals with latsum
 Time for computing 2e3c SR integral (CD) is 0.64 s
Maximum dynamic memory per thread for 2e3c SR integrals: 0.004 GiB
Batch size for basis function pair is 703 out of 703
 === bvk cell = 0 has 100.000 % of the basis function pairs === 
 === bvk cell = 1 has 68.421 % of the basis function pairs === 
 === bvk cell = 2 has 4.410 % of the basis function pairs === 
 === bvk cell = 3 has 0.711 % of the basis function pairs === 
 === bvk cell = 4 has 54.908 % of the basis function pairs === 
 === bvk cell = 5 has 68.421 % of the basis function pairs === 
 === bvk cell = 6 has 15.647 % of the basis function pairs === 
 === bvk cell = 7 has 0.000 % of the basis function pairs === 
 === bvk cell = 8 has 0.711 % of the basis function pairs === 
 === bvk cell = 9 has 61.593 % of the basis function pairs === 
 === bvk cell = 10 has 4.410 % of the basis function pairs === 
 === bvk cell = 11 has 0.000 % of the basis function pairs === 
 === bvk cell = 12 has 0.000 % of the basis function pairs === 
 === bvk cell = 13 has 0.000 % of the basis function pairs === 
 === bvk cell = 14 has 4.410 % of the basis function pairs === 
 === bvk cell = 15 has 0.711 % of the basis function pairs === 
 === bvk cell = 16 has 0.711 % of the basis function pairs === 
 === bvk cell = 17 has 0.000 % of the basis function pairs === 
 === bvk cell = 18 has 0.000 % of the basis function pairs === 
 === bvk cell = 19 has 0.000 % of the basis function pairs === 
 === bvk cell = 20 has 54.908 % of the basis function pairs === 
 === bvk cell = 21 has 61.593 % of the basis function pairs === 
 === bvk cell = 22 has 4.410 % of the basis function pairs === 
 === bvk cell = 23 has 0.000 % of the basis function pairs === 
 === bvk cell = 24 has 9.815 % of the basis function pairs === 
 === bvk cell = 25 has 68.421 % of the basis function pairs === 
 === bvk cell = 26 has 15.647 % of the basis function pairs === 
 === bvk cell = 27 has 0.000 % of the basis function pairs === 
 === bvk cell = 28 has 0.711 % of the basis function pairs === 
 === bvk cell = 29 has 61.593 % of the basis function pairs === 
 === bvk cell = 30 has 15.647 % of the basis function pairs === 
 === bvk cell = 31 has 0.000 % of the basis function pairs === 
 === bvk cell = 32 has 0.000 % of the basis function pairs === 
 === bvk cell = 33 has 0.000 % of the basis function pairs === 
 === bvk cell = 34 has 25.320 % of the basis function pairs === 
 === bvk cell = 35 has 0.000 % of the basis function pairs === 
 === bvk cell = 36 has 0.000 % of the basis function pairs === 
 === bvk cell = 37 has 0.000 % of the basis function pairs === 
 === bvk cell = 38 has 0.000 % of the basis function pairs === 
 === bvk cell = 39 has 0.000 % of the basis function pairs === 
 === bvk cell = 40 has 0.711 % of the basis function pairs === 
 === bvk cell = 41 has 0.000 % of the basis function pairs === 
 === bvk cell = 42 has 0.000 % of the basis function pairs === 
 === bvk cell = 43 has 0.000 % of the basis function pairs === 
 === bvk cell = 44 has 0.000 % of the basis function pairs === 
 === bvk cell = 45 has 61.593 % of the basis function pairs === 
 === bvk cell = 46 has 25.320 % of the basis function pairs === 
 === bvk cell = 47 has 0.000 % of the basis function pairs === 
 === bvk cell = 48 has 0.000 % of the basis function pairs === 
 === bvk cell = 49 has 19.488 % of the basis function pairs === 
 === bvk cell = 50 has 4.410 % of the basis function pairs === 
 === bvk cell = 51 has 0.000 % of the basis function pairs === 
 === bvk cell = 52 has 0.000 % of the basis function pairs === 
 === bvk cell = 53 has 0.000 % of the basis function pairs === 
 === bvk cell = 54 has 4.410 % of the basis function pairs === 
 === bvk cell = 55 has 0.000 % of the basis function pairs === 
 === bvk cell = 56 has 0.000 % of the basis function pairs === 
 === bvk cell = 57 has 0.000 % of the basis function pairs === 
 === bvk cell = 58 has 0.000 % of the basis function pairs === 
 === bvk cell = 59 has 0.000 % of the basis function pairs === 
 === bvk cell = 60 has 0.000 % of the basis function pairs === 
 === bvk cell = 61 has 0.000 % of the basis function pairs === 
 === bvk cell = 62 has 0.000 % of the basis function pairs === 
 === bvk cell = 63 has 0.000 % of the basis function pairs === 
 === bvk cell = 64 has 0.000 % of the basis function pairs === 
 === bvk cell = 65 has 0.000 % of the basis function pairs === 
 === bvk cell = 66 has 0.000 % of the basis function pairs === 
 === bvk cell = 67 has 0.000 % of the basis function pairs === 
 === bvk cell = 68 has 0.000 % of the basis function pairs === 
 === bvk cell = 69 has 0.000 % of the basis function pairs === 
 === bvk cell = 70 has 4.410 % of the basis function pairs === 
 === bvk cell = 71 has 0.000 % of the basis function pairs === 
 === bvk cell = 72 has 0.000 % of the basis function pairs === 
 === bvk cell = 73 has 0.000 % of the basis function pairs === 
 === bvk cell = 74 has 0.000 % of the basis function pairs === 
 === bvk cell = 75 has 0.711 % of the basis function pairs === 
 === bvk cell = 76 has 0.711 % of the basis function pairs === 
 === bvk cell = 77 has 0.000 % of the basis function pairs === 
 === bvk cell = 78 has 0.000 % of the basis function pairs === 
 === bvk cell = 79 has 0.000 % of the basis function pairs === 
 === bvk cell = 80 has 0.711 % of the basis function pairs === 
 === bvk cell = 81 has 0.000 % of the basis function pairs === 
 === bvk cell = 82 has 0.000 % of the basis function pairs === 
 === bvk cell = 83 has 0.000 % of the basis function pairs === 
 === bvk cell = 84 has 0.000 % of the basis function pairs === 
 === bvk cell = 85 has 0.000 % of the basis function pairs === 
 === bvk cell = 86 has 0.000 % of the basis function pairs === 
 === bvk cell = 87 has 0.000 % of the basis function pairs === 
 === bvk cell = 88 has 0.000 % of the basis function pairs === 
 === bvk cell = 89 has 0.000 % of the basis function pairs === 
 === bvk cell = 90 has 0.000 % of the basis function pairs === 
 === bvk cell = 91 has 0.000 % of the basis function pairs === 
 === bvk cell = 92 has 0.000 % of the basis function pairs === 
 === bvk cell = 93 has 0.000 % of the basis function pairs === 
 === bvk cell = 94 has 0.000 % of the basis function pairs === 
 === bvk cell = 95 has 0.000 % of the basis function pairs === 
 === bvk cell = 96 has 0.000 % of the basis function pairs === 
 === bvk cell = 97 has 0.000 % of the basis function pairs === 
 === bvk cell = 98 has 0.000 % of the basis function pairs === 
 === bvk cell = 99 has 0.000 % of the basis function pairs === 
 === bvk cell = 100 has 54.908 % of the basis function pairs === 
 === bvk cell = 101 has 61.593 % of the basis function pairs === 
 === bvk cell = 102 has 4.410 % of the basis function pairs === 
 === bvk cell = 103 has 0.000 % of the basis function pairs === 
 === bvk cell = 104 has 9.815 % of the basis function pairs === 
 === bvk cell = 105 has 61.593 % of the basis function pairs === 
 === bvk cell = 106 has 25.320 % of the basis function pairs === 
 === bvk cell = 107 has 0.000 % of the basis function pairs === 
 === bvk cell = 108 has 0.000 % of the basis function pairs === 
 === bvk cell = 109 has 19.488 % of the basis function pairs === 
 === bvk cell = 110 has 4.410 % of the basis function pairs === 
 === bvk cell = 111 has 0.000 % of the basis function pairs === 
 === bvk cell = 112 has 0.000 % of the basis function pairs === 
 === bvk cell = 113 has 0.000 % of the basis function pairs === 
 === bvk cell = 114 has 0.000 % of the basis function pairs === 
 === bvk cell = 115 has 0.000 % of the basis function pairs === 
 === bvk cell = 116 has 0.000 % of the basis function pairs === 
 === bvk cell = 117 has 0.000 % of the basis function pairs === 
 === bvk cell = 118 has 0.000 % of the basis function pairs === 
 === bvk cell = 119 has 0.000 % of the basis function pairs === 
 === bvk cell = 120 has 9.815 % of the basis function pairs === 
 === bvk cell = 121 has 19.488 % of the basis function pairs === 
 === bvk cell = 122 has 0.000 % of the basis function pairs === 
 === bvk cell = 123 has 0.000 % of the basis function pairs === 
 === bvk cell = 124 has 0.000 % of the basis function pairs === 
Static memory requirement for 2e3c SR integrals: 0.014 GB
There are 1 munu batches for computing 2e3c SR integrals with latsum
There are 4 Q batches for computing 2e3c SR integrals with latsum
 Time for computing 2e3c SR integral (CC) is 0.12 s
 Time for RI-J this SCF iteration is 1.76 s
 Time for RI-J this SCF iteration is 0.91 s
 ----------------------------------------------
 Guess energy: -578.7851913068
 ----------------------------------------------
 Guess energy components:
 DFT Correlation    Energy =  -1.09479569034316
 DFT Exchange       Energy = -40.55296784897197
 Kinetic            Energy = 577.25696585973935
 Nuclear Attraction Energy = -1185.75119219991439
 Nuclear Repulsion  Energy = -102.89365928466421
 Total Coulomb      Energy = 174.25045785734056
 ----------------------------------------------
  Cycle       Energy         DIIS error
 ----------------------------------------------
 Time for RI-J this SCF iteration is 0.89 s
    1    -578.7863799111      7.77e-04  
 Energy components after cycle 1:
 DFT Correlation    Energy =  -1.09706749937431
 DFT Exchange       Energy = -40.51271522208403
 Kinetic            Energy = 576.90891031105821
 Nuclear Attraction Energy = -1184.96229305681914
 Nuclear Repulsion  Energy = -102.89365928466421
 Total Coulomb      Energy = 173.77044484076364
    2    -578.7863799111      3.52e-04  
 Energy components after cycle 2:
 DFT Correlation    Energy =  -1.09706749937431
 DFT Exchange       Energy = -40.51271522208403
 Kinetic            Energy = 576.90891031105821
 Nuclear Attraction Energy = -1184.96229305681914
 Nuclear Repulsion  Energy = -102.89365928466421
 Total Coulomb      Energy = 173.77044484076364
 ----------------------------------------------
  Cycle       Energy        RMS Gradient
 ----------------------------------------------
 Time for RI-J this SCF iteration is 0.91 s
    1    -578.7865039362      6.55e-03   Normal BFGS step
 Energy components after cycle 1:
 DFT Correlation    Energy =  -1.09642000607853
 DFT Exchange       Energy = -40.53469639660320
 Kinetic            Energy = 577.15313592542418
 Nuclear Attraction Energy = -1185.41770982367416
 Nuclear Repulsion  Energy = -102.89365928466421
 Total Coulomb      Energy = 174.00284564936010
 Time for RI-J this SCF iteration is 0.88 s
    2    -578.7865308060      2.39e-03   Normal BFGS step
 Energy components after cycle 2:
 DFT Correlation    Energy =  -1.09655094812680
 DFT Exchange       Energy = -40.52653506361965
 Kinetic            Energy = 577.05223777406275
 Nuclear Attraction Energy = -1185.24463660346851
 Nuclear Repulsion  Energy = -102.89365928466421
 Total Coulomb      Energy = 173.92261331982448
 Time for RI-J this SCF iteration is 0.93 s
    3    -578.7865309391      1.20e-04   Normal BFGS step
 Energy components after cycle 3:
 DFT Correlation    Energy =  -1.09657229084710
 DFT Exchange       Energy = -40.52707937179719
 Kinetic            Energy = 577.06181534012671
 Nuclear Attraction Energy = -1185.25728948970141
 Nuclear Repulsion  Energy = -102.89365928466421
 Total Coulomb      Energy = 173.92625415780861
 Time for RI-J this SCF iteration is 0.89 s
    4    -578.7865309541      4.21e-05   Normal BFGS step
 Energy components after cycle 4:
 DFT Correlation    Energy =  -1.09656636783067
 DFT Exchange       Energy = -40.52698291608511
 Kinetic            Energy = 577.05991744840753
 Nuclear Attraction Energy = -1185.25497259285021
 Nuclear Repulsion  Energy = -102.89365928466421
 Total Coulomb      Energy = 173.92573275893113
 Time for RI-J this SCF iteration is 0.87 s
    5    -578.7865309541      1.75e-07   Normal BFGS step
 Energy components after cycle 5:
 DFT Correlation    Energy =  -1.09656637926693
 DFT Exchange       Energy = -40.52698245958295
 Kinetic            Energy = 577.05991223608601
 Nuclear Attraction Energy = -1185.25496305409524
 Nuclear Repulsion  Energy = -102.89365928466421
 Total Coulomb      Energy = 173.92572798743160
    5    -578.7865309541      1.75e-07  Convergence criterion met
 ----------------------------------------------
 Final energy components:
 DFT Correlation    Energy =  -1.09656637926693
 DFT Exchange       Energy = -40.52698245958295
 Kinetic            Energy = 577.05991223608601
 Nuclear Attraction Energy = -1185.25496305409524
 Nuclear Repulsion  Energy = -102.89365928466421
 Total Coulomb      Energy = 173.92572798743160
 ----------------------------------------------
 Final energy is -578.7865309541

 SCF time:   CPU 1062.98s  wall 42.00s 
 Total wall time for computing Kinetic: 0.00 s (8)
 Total wall time for computing RIJ-BIGMEM: 8.01 s (8)
 Total wall time for computing RSDF Vnuc: 0.02 s (8)
 Total wall time for computing DFT XC: 21.85 s (8)
 ---------------------------------------------------------------------------
                        Orbital Energies (a.u.)
 ---------------------------------------------------------------------------
 == 0-th k-point (-0.24493,-0.24493,-0.24493) occupation: 14==
 -64.99145 -64.99137 -4.62055 -4.62040 -3.03137 -3.03137 -3.03124 -3.03076 -3.03068 -3.03068
 -0.09437 0.04505 0.23408 0.23408 0.33816 0.40493 0.40493 0.57134 0.61871 0.61871
 0.65541 0.77823 0.77823 0.79778 0.92703 1.02544 1.02544 1.14844 1.19166 1.21141
 1.21141 1.30425 1.30425 1.40290 1.40290 1.41624 1.54069 1.54069 1.54220 1.57913
 1.57913 1.68929 1.88209 1.91050 1.91050 1.91193 1.99947 2.02541 2.02541 2.18212
 2.26473 2.26473 2.37790 2.39877 2.39877 2.47635 2.47635 2.48824 2.48824 2.55572
 3.40305 3.52828 3.52828 3.68386 3.85843 4.07926 4.07926 8.25103
 == 1-th k-point (-0.12246,-0.12246,-0.36739) occupation: 14==
 -64.99145 -64.99141 -4.62056 -4.62040 -3.03139 -3.03138 -3.03119 -3.03083 -3.03066 -3.03064
 -0.09605 0.08098 0.17911 0.20185 0.34340 0.42965 0.46088 0.48026 0.66167 0.66907
 0.67724 0.76178 0.78226 0.84938 0.91341 0.96577 1.01406 1.03570 1.12173 1.19503
 1.24525 1.31392 1.32805 1.39579 1.40718 1.48086 1.52504 1.54714 1.61421 1.63669
 1.66282 1.71446 1.79191 1.82090 1.86205 1.98478 2.01048 2.02331 2.05367 2.09703
 2.17615 2.25119 2.27486 2.28437 2.37620 2.38496 2.45942 2.52785 2.54711 2.71840
 3.33912 3.47127 3.62672 3.86064 3.97472 4.05993 5.77433 8.08884
 == 2-th k-point (-0.00000,-0.00000,-0.48986) occupation: 14==
 -64.99141 -64.99141 -4.62052 -4.62044 -3.03140 -3.03140 -3.03109 -3.03092 -3.03065 -3.03065
 -0.06385 0.04932 0.17586 0.17586 0.29925 0.32674 0.59459 0.59459 0.68724 0.69429
 0.75506 0.75506 0.78410 0.83141 0.91131 0.94986 0.94987 0.99514 1.16985 1.16986
 1.18340 1.18837 1.24959 1.32890 1.40996 1.40996 1.64039 1.64353 1.64353 1.73120
 1.76879 1.76885 1.83492 1.83653 1.83654 1.95997 1.96002 1.97471 2.14528 2.15109
 2.16653 2.16655 2.25298 2.33094 2.33095 2.34891 2.47963 2.55256 2.55263 2.89839
 3.27981 3.28005 3.60648 3.96158 4.22548 4.22556 5.35433 5.68059
 == 3-th k-point (0.12246,0.12246,-0.61232) occupation: 14==
 -64.99144 -64.99141 -4.62049 -4.62047 -3.03139 -3.03137 -3.03105 -3.03096 -3.03064 -3.03061
 -0.01933 0.00277 0.12544 0.18025 0.31609 0.39485 0.57785 0.59890 0.60360 0.62288
 0.80626 0.82675 0.83320 0.86949 0.89318 0.93327 1.02760 1.06815 1.08030 1.12017
 1.12884 1.17800 1.21926 1.27954 1.41365 1.50438 1.50864 1.52633 1.68416 1.69269
 1.79641 1.81254 1.82553 1.85671 1.86404 1.93613 2.01016 2.01997 2.04275 2.12960
 2.23423 2.24971 2.25261 2.36570 2.39053 2.42466 2.48278 2.49290 2.57439 2.74003
 2.90147 2.95153 3.67876 3.71686 3.83358 3.94540 5.48274 7.49190
 == 4-th k-point (0.24493,0.24493,-0.73479) occupation: 14==
 -64.99144 -64.99142 -4.62054 -4.62043 -3.03138 -3.03137 -3.03117 -3.03084 -3.03066 -3.03063
 -0.06335 0.02939 0.14919 0.21228 0.35416 0.44887 0.45668 0.55999 0.58790 0.59755
 0.71455 0.81346 0.82151 0.84940 0.92961 1.02600 1.04068 1.04478 1.10652 1.15063
 1.27226 1.28217 1.30490 1.31879 1.42304 1.42937 1.45006 1.54733 1.59922 1.65618
 1.66555 1.73698 1.79988 1.83746 1.88546 1.92949 1.93067 2.00797 2.10023 2.15119
 2.21195 2.26887 2.30625 2.35878 2.42377 2.43798 2.50284 2.52572 2.57235 2.67129
 3.06436 3.29978 3.57531 3.66525 3.97341 4.04136 6.15855 7.41217
 == 5-th k-point (-0.12246,-0.36739,-0.12246) occupation: 14==
 -64.99145 -64.99141 -4.62056 -4.62040 -3.03139 -3.03138 -3.03119 -3.03083 -3.03066 -3.03064
 -0.09605 0.08098 0.17911 0.20185 0.34340 0.42965 0.46088 0.48026 0.66167 0.66907
 0.67724 0.76178 0.78226 0.84938 0.91341 0.96577 1.01406 1.03570 1.12173 1.19503
 1.24525 1.31392 1.32805 1.39579 1.40718 1.48086 1.52504 1.54714 1.61421 1.63669
 1.66282 1.71446 1.79191 1.82090 1.86205 1.98478 2.01048 2.02331 2.05367 2.09703
 2.17615 2.25119 2.27486 2.28437 2.37620 2.38496 2.45942 2.52785 2.54711 2.71840
 3.33912 3.47127 3.62672 3.86064 3.97472 4.05993 5.77433 8.08884
 == 6-th k-point (-0.00000,-0.24493,-0.24493) occupation: 14==
 -64.99144 -64.99143 -4.62058 -4.62039 -3.03136 -3.03136 -3.03124 -3.03079 -3.03068 -3.03066
 -0.11402 0.11174 0.16498 0.24468 0.38484 0.42496 0.43812 0.48934 0.51178 0.67426
 0.68167 0.72360 0.79807 0.85291 0.92740 0.96920 1.03309 1.12037 1.12483 1.15445
 1.28670 1.29151 1.37466 1.37510 1.43320 1.48178 1.55039 1.57869 1.59113 1.62986
 1.65063 1.73666 1.77603 1.79360 1.89994 1.92238 1.94546 2.03228 2.08398 2.10749
 2.12914 2.15017 2.28970 2.33088 2.34232 2.37594 2.48151 2.51832 2.61042 2.67879
 2.98717 3.45851 3.57065 3.96529 3.99109 4.05611 7.00482 7.63997
 == 7-th k-point (0.12246,-0.12246,-0.36739) occupation: 14==
 -64.99145 -64.99141 -4.62056 -4.62040 -3.03139 -3.03138 -3.03119 -3.03083 -3.03066 -3.03064
 -0.09605 0.08098 0.17911 0.20185 0.34340 0.42965 0.46088 0.48026 0.66167 0.66907
 0.67724 0.76178 0.78226 0.84938 0.91341 0.96577 1.01406 1.03570 1.12174 1.19503
 1.24525 1.31392 1.32805 1.39580 1.40718 1.48086 1.52504 1.54715 1.61422 1.63669
 1.66289 1.71446 1.79193 1.82090 1.86205 1.98478 2.01049 2.02330 2.05373 2.09703
 2.17615 2.25120 2.27490 2.28438 2.37620 2.38495 2.45942 2.52802 2.54712 2.71837
 3.33913 3.47125 3.62713 3.86060 3.97470 4.06000 5.77433 8.08891
 == 8-th k-point (0.24493,-0.00000,-0.48986) occupation: 14==
 -64.99143 -64.99143 -4.62052 -4.62045 -3.03139 -3.03139 -3.03109 -3.03092 -3.03063 -3.03061
 -0.04759 0.03516 0.12865 0.16509 0.40371 0.41825 0.44193 0.56739 0.59389 0.66159
 0.77830 0.81582 0.81969 0.86953 0.90264 0.99340 1.03511 1.04157 1.05879 1.10150
 1.16773 1.19336 1.26415 1.36119 1.42268 1.47675 1.50941 1.52665 1.58327 1.58696
 1.73069 1.73163 1.84539 1.85190 1.92623 1.95476 1.98745 2.01168 2.04221 2.12583
 2.21281 2.21738 2.25061 2.35196 2.37409 2.45385 2.46809 2.49728 2.62040 2.76525
 2.92876 3.18703 3.59337 3.77947 3.82289 3.82472 6.50182 6.75636
 == 9-th k-point (0.36739,0.12246,-0.61232) occupation: 14==
 -64.99143 -64.99143 -4.62052 -4.62045 -3.03139 -3.03139 -3.03109 -3.03092 -3.03063 -3.03061
 -0.04759 0.03516 0.12865 0.16509 0.40371 0.41825 0.44193 0.56739 0.59389 0.66159
 0.77830 0.81582 0.81969 0.86953 0.90263 0.99339 1.03511 1.04157 1.05879 1.10150
 1.16773 1.19336 1.26415 1.36118 1.42268 1.47674 1.50941 1.52665 1.58327 1.58696
 1.73069 1.73163 1.84539 1.85188 1.92623 1.95475 1.98745 2.01167 2.04221 2.12583
 2.21281 2.21738 2.25060 2.35196 2.37410 2.45385 2.46810 2.49728 2.62037 2.76523
 2.92876 3.18702 3.59337 3.77948 3.82292 3.82473 6.50181 6.75634
 == 10-th k-point (-0.00000,-0.48986,0.00000) occupation: 14==
 -64.99141 -64.99141 -4.62052 -4.62044 -3.03140 -3.03140 -3.03109 -3.03092 -3.03065 -3.03065
 -0.06385 0.04932 0.17586 0.17586 0.29925 0.32674 0.59459 0.59459 0.68724 0.69429
 0.75506 0.75506 0.78410 0.83141 0.91131 0.94986 0.94987 0.99514 1.16985 1.16986
 1.18340 1.18837 1.24959 1.32890 1.40996 1.40996 1.64039 1.64353 1.64353 1.73120
 1.76879 1.76885 1.83492 1.83653 1.83654 1.95997 1.96002 1.97471 2.14528 2.15109
 2.16653 2.16655 2.25298 2.33094 2.33095 2.34891 2.47963 2.55256 2.55263 2.89839
 3.27981 3.28005 3.60648 3.96158 4.22548 4.22556 5.35433 5.68059
 == 11-th k-point (0.12246,-0.36739,-0.12246) occupation: 14==
 -64.99145 -64.99141 -4.62056 -4.62040 -3.03139 -3.03138 -3.03119 -3.03083 -3.03066 -3.03064
 -0.09605 0.08098 0.17911 0.20185 0.34340 0.42965 0.46088 0.48026 0.66167 0.66907
 0.67724 0.76178 0.78226 0.84938 0.91341 0.96577 1.01406 1.03570 1.12174 1.19503
 1.24525 1.31392 1.32805 1.39580 1.40718 1.48086 1.52504 1.54715 1.61422 1.63669
 1.66289 1.71446 1.79193 1.82090 1.86205 1.98478 2.01049 2.02330 2.05373 2.09703
 2.17615 2.25120 2.27490 2.28438 2.37620 2.38495 2.45942 2.52802 2.54712 2.71837
 3.33913 3.47125 3.62713 3.86060 3.97470 4.06000 5.77433 8.08891
 == 12-th k-point (0.24493,-0.24493,-0.24493) occupation: 14==
 -64.99145 -64.99137 -4.62055 -4.62040 -3.03137 -3.03137 -3.03124 -3.03076 -3.03068 -3.03068
 -0.09437 0.04505 0.23408 0.23408 0.33816 0.40493 0.40493 0.57134 0.61871 0.61871
 0.65541 0.77823 0.77823 0.79778 0.92703 1.02544 1.02544 1.14844 1.19168 1.21141
 1.21142 1.30425 1.30425 1.40289 1.40290 1.41624 1.54069 1.54070 1.54220 1.57913
 1.57913 1.68930 1.88209 1.91050 1.91050 1.91193 1.99946 2.02541 2.02542 2.18213
 2.26471 2.26473 2.37793 2.39877 2.39881 2.47635 2.47635 2.48823 2.48825 2.55573
 3.40306 3.52824 3.52829 3.68385 3.85845 4.07921 4.07926 8.25112
 == 13-th k-point (0.36739,-0.12246,-0.36739) occupation: 14==
 -64.99144 -64.99142 -4.62054 -4.62043 -3.03138 -3.03137 -3.03117 -3.03084 -3.03066 -3.03063
 -0.06335 0.02939 0.14919 0.21228 0.35416 0.44887 0.45668 0.55999 0.58790 0.59755
 0.71455 0.81346 0.82151 0.84940 0.92961 1.02600 1.04068 1.04478 1.10652 1.15063
 1.27226 1.28216 1.30490 1.31877 1.42304 1.42937 1.45006 1.54733 1.59923 1.65618
 1.66555 1.73696 1.79988 1.83747 1.88547 1.92949 1.93067 2.00797 2.10023 2.15119
 2.21195 2.26887 2.30625 2.35879 2.42377 2.43798 2.50282 2.52575 2.57236 2.67135
 3.06436 3.29984 3.57533 3.66528 3.97342 4.04139 6.15850 7.41218
 == 14-th k-point (0.48986,0.00000,-0.48986) occupation: 14==
 -64.99144 -64.99141 -4.62049 -4.62047 -3.03139 -3.03137 -3.03105 -3.03096 -3.03064 -3.03061
 -0.01933 0.00277 0.12544 0.18025 0.31609 0.39485 0.57785 0.59890 0.60360 0.62288
 0.80626 0.82675 0.83320 0.86949 0.89318 0.93327 1.02760 1.06814 1.08030 1.12017
 1.12883 1.17800 1.21926 1.27954 1.41363 1.50438 1.50864 1.52633 1.68403 1.69267
 1.79641 1.81254 1.82552 1.85672 1.86404 1.93612 2.01017 2.01997 2.04271 2.12961
 2.23423 2.24921 2.25261 2.36570 2.39052 2.42394 2.48278 2.49290 2.57439 2.73981
 2.90147 2.95152 3.67879 3.71688 3.83362 3.94528 5.48274 7.49169
 == 15-th k-point (0.12246,-0.61232,0.12246) occupation: 14==
 -64.99144 -64.99141 -4.62049 -4.62047 -3.03139 -3.03137 -3.03105 -3.03096 -3.03064 -3.03061
 -0.01933 0.00277 0.12544 0.18025 0.31609 0.39485 0.57785 0.59890 0.60360 0.62288
 0.80626 0.82675 0.83320 0.86949 0.89318 0.93327 1.02760 1.06815 1.08030 1.12017
 1.12884 1.17800 1.21926 1.27954 1.41365 1.50438 1.50864 1.52633 1.68416 1.69269
 1.79641 1.81254 1.82553 1.85671 1.86404 1.93613 2.01016 2.01997 2.04275 2.12960
 2.23423 2.24971 2.25261 2.36570 2.39053 2.42466 2.48278 2.49290 2.57439 2.74003
 2.90147 2.95153 3.67876 3.71686 3.83358 3.94540 5.48274 7.49190
 == 16-th k-point (0.24493,-0.48986,0.00000) occupation: 14==
 -64.99143 -64.99143 -4.62052 -4.62045 -3.03139 -3.03139 -3.03109 -3.03092 -3.03063 -3.03061
 -0.04759 0.03516 0.12865 0.16509 0.40371 0.41825 0.44193 0.56739 0.59389 0.66159
 0.77830 0.81582 0.81969 0.86953 0.90264 0.99340 1.03511 1.04157 1.05879 1.10150
 1.16773 1.19336 1.26415 1.36119 1.42268 1.47675 1.50941 1.52665 1.58327 1.58696
 1.73069 1.73163 1.84539 1.85190 1.92623 1.95476 1.98745 2.01168 2.04221 2.12583
 2.21281 2.21738 2.25061 2.35196 2.37409 2.45385 2.46809 2.49728 2.62040 2.76525
 2.92876 3.18703 3.59337 3.77947 3.82289 3.82472 6.50182 6.75636
 == 17-th k-point (0.36739,-0.36739,-0.12246) occupation: 14==
 -64.99144 -64.99142 -4.62054 -4.62043 -3.03138 -3.03137 -3.03117 -3.03084 -3.03066 -3.03063
 -0.06335 0.02939 0.14919 0.21228 0.35416 0.44887 0.45668 0.55999 0.58790 0.59755
 0.71455 0.81346 0.82151 0.84940 0.92961 1.02600 1.04068 1.04478 1.10652 1.15063
 1.27226 1.28216 1.30490 1.31877 1.42304 1.42937 1.45006 1.54733 1.59923 1.65618
 1.66555 1.73696 1.79988 1.83747 1.88547 1.92949 1.93067 2.00797 2.10023 2.15119
 2.21195 2.26887 2.30625 2.35879 2.42377 2.43798 2.50282 2.52575 2.57236 2.67135
 3.06436 3.29984 3.57533 3.66528 3.97342 4.04139 6.15850 7.41218
 == 18-th k-point (0.48986,-0.24493,-0.24493) occupation: 14==
 -64.99144 -64.99142 -4.62054 -4.62043 -3.03138 -3.03137 -3.03117 -3.03084 -3.03066 -3.03063
 -0.06335 0.02939 0.14919 0.21228 0.35416 0.44887 0.45668 0.55999 0.58790 0.59755
 0.71455 0.81346 0.82151 0.84940 0.92961 1.02600 1.04068 1.04478 1.10652 1.15063
 1.27226 1.28216 1.30490 1.31879 1.42304 1.42937 1.45005 1.54732 1.59922 1.65618
 1.66554 1.73697 1.79987 1.83746 1.88547 1.92948 1.93067 2.00796 2.10023 2.15119
 2.21195 2.26887 2.30625 2.35880 2.42377 2.43798 2.50283 2.52573 2.57235 2.67136
 3.06436 3.29978 3.57534 3.66528 3.97341 4.04143 6.15845 7.41218
 == 19-th k-point (0.61232,-0.12246,-0.36739) occupation: 14==
 -64.99143 -64.99143 -4.62052 -4.62045 -3.03139 -3.03139 -3.03109 -3.03092 -3.03063 -3.03061
 -0.04759 0.03516 0.12865 0.16509 0.40371 0.41825 0.44193 0.56739 0.59389 0.66159
 0.77830 0.81582 0.81969 0.86953 0.90263 0.99339 1.03511 1.04157 1.05879 1.10150
 1.16773 1.19336 1.26415 1.36118 1.42268 1.47674 1.50941 1.52665 1.58327 1.58696
 1.73069 1.73163 1.84539 1.85188 1.92623 1.95475 1.98745 2.01167 2.04221 2.12583
 2.21281 2.21738 2.25060 2.35196 2.37410 2.45385 2.46810 2.49728 2.62037 2.76523
 2.92876 3.18702 3.59337 3.77948 3.82292 3.82473 6.50181 6.75634
 == 20-th k-point (0.24493,-0.73479,0.24493) occupation: 14==
 -64.99144 -64.99142 -4.62054 -4.62043 -3.03138 -3.03137 -3.03117 -3.03084 -3.03066 -3.03063
 -0.06335 0.02939 0.14919 0.21228 0.35416 0.44887 0.45668 0.55999 0.58790 0.59755
 0.71455 0.81346 0.82151 0.84940 0.92961 1.02600 1.04068 1.04478 1.10652 1.15063
 1.27226 1.28217 1.30490 1.31879 1.42304 1.42937 1.45006 1.54733 1.59922 1.65618
 1.66555 1.73698 1.79988 1.83746 1.88546 1.92949 1.93067 2.00797 2.10023 2.15119
 2.21195 2.26887 2.30625 2.35878 2.42377 2.43798 2.50284 2.52572 2.57235 2.67129
 3.06436 3.29978 3.57531 3.66525 3.97341 4.04136 6.15855 7.41217
 == 21-th k-point (0.36739,-0.61232,0.12246) occupation: 14==
 -64.99143 -64.99143 -4.62052 -4.62045 -3.03139 -3.03139 -3.03109 -3.03092 -3.03063 -3.03061
 -0.04759 0.03516 0.12865 0.16509 0.40371 0.41825 0.44193 0.56739 0.59389 0.66159
 0.77830 0.81582 0.81969 0.86953 0.90263 0.99339 1.03511 1.04157 1.05879 1.10150
 1.16773 1.19336 1.26415 1.36118 1.42268 1.47674 1.50941 1.52665 1.58327 1.58696
 1.73069 1.73163 1.84539 1.85188 1.92623 1.95475 1.98745 2.01167 2.04221 2.12583
 2.21281 2.21738 2.25060 2.35196 2.37410 2.45385 2.46810 2.49728 2.62037 2.76523
 2.92876 3.18702 3.59337 3.77948 3.82292 3.82473 6.50181 6.75634
 == 22-th k-point (0.48986,-0.48986,0.00000) occupation: 14==
 -64.99144 -64.99141 -4.62049 -4.62047 -3.03139 -3.03137 -3.03105 -3.03096 -3.03064 -3.03061
 -0.01933 0.00277 0.12544 0.18025 0.31609 0.39485 0.57785 0.59890 0.60360 0.62288
 0.80626 0.82675 0.83320 0.86949 0.89318 0.93327 1.02760 1.06814 1.08030 1.12017
 1.12883 1.17800 1.21926 1.27954 1.41363 1.50438 1.50864 1.52633 1.68403 1.69267
 1.79641 1.81254 1.82552 1.85672 1.86404 1.93612 2.01017 2.01997 2.04271 2.12961
 2.23423 2.24921 2.25261 2.36570 2.39052 2.42394 2.48278 2.49290 2.57439 2.73981
 2.90147 2.95152 3.67879 3.71688 3.83362 3.94528 5.48274 7.49169
 == 23-th k-point (0.61232,-0.36739,-0.12246) occupation: 14==
 -64.99143 -64.99143 -4.62052 -4.62045 -3.03139 -3.03139 -3.03109 -3.03092 -3.03063 -3.03061
 -0.04759 0.03516 0.12865 0.16509 0.40371 0.41825 0.44193 0.56739 0.59389 0.66159
 0.77830 0.81582 0.81969 0.86953 0.90263 0.99339 1.03511 1.04157 1.05879 1.10150
 1.16773 1.19336 1.26415 1.36118 1.42268 1.47674 1.50941 1.52665 1.58327 1.58696
 1.73069 1.73163 1.84539 1.85188 1.92623 1.95475 1.98745 2.01167 2.04221 2.12583
 2.21281 2.21738 2.25060 2.35196 2.37410 2.45385 2.46810 2.49728 2.62037 2.76523
 2.92876 3.18702 3.59337 3.77948 3.82292 3.82473 6.50181 6.75634
 == 24-th k-point (0.73479,-0.24493,-0.24493) occupation: 14==
 -64.99144 -64.99142 -4.62054 -4.62043 -3.03138 -3.03137 -3.03117 -3.03084 -3.03066 -3.03063
 -0.06335 0.02939 0.14919 0.21228 0.35416 0.44887 0.45668 0.55999 0.58790 0.59755
 0.71455 0.81346 0.82151 0.84940 0.92961 1.02600 1.04068 1.04478 1.10652 1.15063
 1.27226 1.28217 1.30490 1.31879 1.42304 1.42937 1.45006 1.54733 1.59922 1.65618
 1.66555 1.73698 1.79988 1.83746 1.88546 1.92949 1.93067 2.00797 2.10023 2.15119
 2.21195 2.26887 2.30625 2.35878 2.42377 2.43798 2.50284 2.52572 2.57235 2.67129
 3.06436 3.29978 3.57531 3.66525 3.97341 4.04136 6.15855 7.41217
 == 25-th k-point (-0.36739,-0.12246,-0.12246) occupation: 14==
 -64.99145 -64.99141 -4.62056 -4.62040 -3.03139 -3.03138 -3.03119 -3.03083 -3.03066 -3.03064
 -0.09605 0.08098 0.17911 0.20185 0.34340 0.42965 0.46088 0.48026 0.66167 0.66907
 0.67724 0.76178 0.78226 0.84938 0.91341 0.96577 1.01406 1.03570 1.12173 1.19503
 1.24525 1.31392 1.32805 1.39579 1.40718 1.48086 1.52504 1.54714 1.61421 1.63669
 1.66282 1.71446 1.79191 1.82090 1.86205 1.98478 2.01048 2.02331 2.05367 2.09703
 2.17615 2.25119 2.27486 2.28437 2.37620 2.38496 2.45942 2.52785 2.54711 2.71840
 3.33912 3.47127 3.62672 3.86064 3.97472 4.05993 5.77433 8.08884
 == 26-th k-point (-0.24493,-0.00000,-0.24493) occupation: 14==
 -64.99144 -64.99143 -4.62058 -4.62039 -3.03136 -3.03136 -3.03124 -3.03079 -3.03068 -3.03066
 -0.11402 0.11174 0.16498 0.24468 0.38484 0.42496 0.43812 0.48934 0.51178 0.67426
 0.68167 0.72360 0.79807 0.85291 0.92740 0.96920 1.03309 1.12037 1.12483 1.15445
 1.28670 1.29151 1.37466 1.37510 1.43320 1.48178 1.55039 1.57869 1.59113 1.62986
 1.65063 1.73666 1.77603 1.79360 1.89994 1.92238 1.94546 2.03228 2.08398 2.10749
 2.12914 2.15017 2.28970 2.33088 2.34232 2.37594 2.48151 2.51832 2.61042 2.67879
 2.98717 3.45851 3.57065 3.96529 3.99109 4.05611 7.00482 7.63997
 == 27-th k-point (-0.12246,0.12246,-0.36739) occupation: 14==
 -64.99145 -64.99141 -4.62056 -4.62040 -3.03139 -3.03138 -3.03119 -3.03083 -3.03066 -3.03064
 -0.09605 0.08098 0.17911 0.20185 0.34340 0.42965 0.46088 0.48026 0.66167 0.66907
 0.67724 0.76178 0.78226 0.84938 0.91341 0.96577 1.01406 1.03570 1.12174 1.19503
 1.24525 1.31392 1.32805 1.39580 1.40718 1.48086 1.52504 1.54715 1.61422 1.63669
 1.66289 1.71446 1.79193 1.82090 1.86205 1.98478 2.01049 2.02330 2.05373 2.09703
 2.17615 2.25120 2.27490 2.28438 2.37620 2.38495 2.45942 2.52802 2.54712 2.71837
 3.33913 3.47125 3.62713 3.86060 3.97470 4.06000 5.77433 8.08891
 == 28-th k-point (-0.00000,0.24493,-0.48986) occupation: 14==
 -64.99143 -64.99143 -4.62052 -4.62045 -3.03139 -3.03139 -3.03109 -3.03092 -3.03063 -3.03061
 -0.04759 0.03516 0.12865 0.16509 0.40371 0.41825 0.44193 0.56739 0.59389 0.66159
 0.77830 0.81582 0.81969 0.86953 0.90264 0.99340 1.03511 1.04157 1.05879 1.10150
 1.16773 1.19336 1.26415 1.36119 1.42268 1.47675 1.50941 1.52665 1.58327 1.58696
 1.73069 1.73163 1.84539 1.85190 1.92623 1.95476 1.98745 2.01168 2.04221 2.12583
 2.21281 2.21738 2.25061 2.35196 2.37409 2.45385 2.46809 2.49728 2.62040 2.76525
 2.92876 3.18703 3.59337 3.77947 3.82289 3.82472 6.50182 6.75636
 == 29-th k-point (0.12246,0.36739,-0.61232) occupation: 14==
 -64.99143 -64.99143 -4.62052 -4.62045 -3.03139 -3.03139 -3.03109 -3.03092 -3.03063 -3.03061
 -0.04759 0.03516 0.12865 0.16509 0.40371 0.41825 0.44193 0.56739 0.59389 0.66159
 0.77830 0.81582 0.81969 0.86953 0.90263 0.99339 1.03511 1.04157 1.05879 1.10150
 1.16773 1.19336 1.26415 1.36118 1.42268 1.47674 1.50941 1.52665 1.58327 1.58696
 1.73069 1.73163 1.84539 1.85188 1.92623 1.95475 1.98745 2.01167 2.04221 2.12583
 2.21281 2.21738 2.25060 2.35196 2.37410 2.45385 2.46810 2.49728 2.62037 2.76523
 2.92876 3.18702 3.59337 3.77948 3.82292 3.82473 6.50181 6.75634
 == 30-th k-point (-0.24493,-0.24493,0.00000) occupation: 14==
 -64.99144 -64.99143 -4.62058 -4.62039 -3.03136 -3.03136 -3.03124 -3.03079 -3.03068 -3.03066
 -0.11402 0.11174 0.16498 0.24468 0.38484 0.42496 0.43812 0.48934 0.51178 0.67426
 0.68167 0.72360 0.79807 0.85291 0.92740 0.96920 1.03309 1.12037 1.12483 1.15445
 1.28670 1.29151 1.37466 1.37510 1.43320 1.48178 1.55039 1.57869 1.59113 1.62986
 1.65063 1.73666 1.77603 1.79360 1.89994 1.92238 1.94546 2.03228 2.08398 2.10749
 2.12914 2.15017 2.28970 2.33088 2.34232 2.37594 2.48151 2.51832 2.61042 2.67879
 2.98717 3.45851 3.57065 3.96529 3.99109 4.05611 7.00482 7.63997
 == 31-th k-point (-0.12246,-0.12246,-0.12246) occupation: 14==
 -64.99144 -64.99138 -4.62060 -4.62035 -3.03135 -3.03135 -3.03130 -3.03074 -3.03070 -3.03070
 -0.14462 0.16554 0.25478 0.25478 0.35977 0.40170 0.40170 0.50029 0.54621 0.54621
 0.62485 0.68812 0.80556 0.80556 0.98244 1.01317 1.01317 1.04194 1.21916 1.21916
 1.28677 1.28677 1.38928 1.39049 1.44795 1.55222 1.55222 1.58715 1.58715 1.66728
 1.66728 1.78264 1.78264 1.80675 1.90061 1.94906 1.94906 1.97438 1.99764 2.04377
 2.08343 2.08343 2.21964 2.21964 2.23486 2.27124 2.27124 2.44892 2.68420 2.68420
 3.33674 3.76934 3.76934 3.89339 4.03936 4.03936 4.44432 7.17783
 == 32-th k-point (-0.00000,-0.00000,-0.24493) occupation: 14==
 -64.99142 -64.99140 -4.62060 -4.62036 -3.03138 -3.03138 -3.03127 -3.03078 -3.03069 -3.03069
 -0.13808 0.18038 0.22090 0.22090 0.33113 0.42266 0.45905 0.45905 0.54360 0.60073
 0.65972 0.75423 0.75424 0.77914 0.98833 0.98834 1.02977 1.04643 1.08761 1.26438
 1.31653 1.32999 1.32999 1.46034 1.46034 1.51296 1.53935 1.56610 1.56610 1.58926
 1.75953 1.78468 1.78901 1.78901 1.88865 1.94946 1.99008 1.99009 2.02314 2.03826
 2.03830 2.06519 2.14723 2.17850 2.25262 2.25265 2.39462 2.58953 2.61068 2.61077
 3.54025 3.81355 3.81386 3.92788 4.15136 4.15137 5.11397 6.06771
 == 33-th k-point (0.12246,0.12246,-0.36739) occupation: 14==
 -64.99145 -64.99141 -4.62056 -4.62040 -3.03139 -3.03138 -3.03119 -3.03083 -3.03066 -3.03064
 -0.09605 0.08098 0.17911 0.20185 0.34340 0.42965 0.46088 0.48026 0.66167 0.66907
 0.67724 0.76178 0.78226 0.84938 0.91341 0.96577 1.01406 1.03570 1.12173 1.19503
 1.24525 1.31392 1.32804 1.39579 1.40717 1.48086 1.52504 1.54714 1.61421 1.63669
 1.66282 1.71446 1.79190 1.82089 1.86205 1.98475 2.01050 2.02331 2.05367 2.09703
 2.17615 2.25119 2.27486 2.28438 2.37619 2.38496 2.45942 2.52785 2.54699 2.71834
 3.33900 3.47125 3.62672 3.86060 3.97470 4.05993 5.77433 8.08870
 == 34-th k-point (0.24493,0.24493,-0.48986) occupation: 14==
 -64.99144 -64.99142 -4.62054 -4.62043 -3.03138 -3.03137 -3.03117 -3.03084 -3.03066 -3.03063
 -0.06335 0.02939 0.14919 0.21228 0.35416 0.44887 0.45668 0.55999 0.58790 0.59755
 0.71455 0.81346 0.82151 0.84940 0.92961 1.02600 1.04068 1.04478 1.10652 1.15063
 1.27226 1.28216 1.30490 1.31879 1.42304 1.42937 1.45005 1.54732 1.59922 1.65618
 1.66554 1.73697 1.79987 1.83746 1.88547 1.92948 1.93067 2.00796 2.10023 2.15119
 2.21195 2.26887 2.30625 2.35880 2.42377 2.43798 2.50283 2.52573 2.57235 2.67136
 3.06436 3.29978 3.57534 3.66528 3.97341 4.04143 6.15845 7.41218
 == 35-th k-point (-0.12246,-0.36739,0.12246) occupation: 14==
 -64.99145 -64.99141 -4.62056 -4.62040 -3.03139 -3.03138 -3.03119 -3.03083 -3.03066 -3.03064
 -0.09605 0.08098 0.17911 0.20185 0.34340 0.42965 0.46088 0.48026 0.66167 0.66907
 0.67724 0.76178 0.78226 0.84938 0.91341 0.96577 1.01406 1.03570 1.12174 1.19503
 1.24525 1.31392 1.32805 1.39580 1.40718 1.48086 1.52504 1.54715 1.61422 1.63669
 1.66289 1.71446 1.79193 1.82090 1.86205 1.98478 2.01049 2.02330 2.05373 2.09703
 2.17615 2.25120 2.27490 2.28438 2.37620 2.38495 2.45942 2.52802 2.54712 2.71837
 3.33913 3.47125 3.62713 3.86060 3.97470 4.06000 5.77433 8.08891
 == 36-th k-point (-0.00000,-0.24493,0.00000) occupation: 14==
 -64.99142 -64.99140 -4.62060 -4.62036 -3.03138 -3.03138 -3.03127 -3.03078 -3.03069 -3.03069
 -0.13808 0.18038 0.22090 0.22090 0.33113 0.42266 0.45905 0.45905 0.54360 0.60073
 0.65972 0.75423 0.75424 0.77914 0.98833 0.98834 1.02977 1.04643 1.08761 1.26438
 1.31653 1.32999 1.32999 1.46034 1.46034 1.51296 1.53935 1.56610 1.56610 1.58926
 1.75953 1.78468 1.78901 1.78901 1.88865 1.94946 1.99008 1.99009 2.02314 2.03826
 2.03830 2.06519 2.14723 2.17850 2.25262 2.25265 2.39462 2.58953 2.61068 2.61077
 3.54025 3.81355 3.81386 3.92788 4.15136 4.15137 5.11397 6.06771
 == 37-th k-point (0.12246,-0.12246,-0.12246) occupation: 14==
 -64.99144 -64.99138 -4.62060 -4.62035 -3.03135 -3.03135 -3.03130 -3.03074 -3.03070 -3.03070
 -0.14462 0.16554 0.25478 0.25478 0.35977 0.40170 0.40170 0.50029 0.54621 0.54621
 0.62485 0.68812 0.80556 0.80556 0.98243 1.01317 1.01317 1.04193 1.21916 1.21916
 1.28677 1.28677 1.38928 1.39049 1.44795 1.55222 1.55222 1.58715 1.58715 1.66726
 1.66727 1.78264 1.78264 1.80674 1.90062 1.94905 1.94906 1.97439 1.99764 2.04376
 2.08342 2.08343 2.21961 2.21963 2.23484 2.27123 2.27124 2.44891 2.68402 2.68420
 3.33673 3.76904 3.76934 3.89341 4.03926 4.03936 4.44433 7.17775
 == 38-th k-point (0.24493,0.00000,-0.24493) occupation: 14==
 -64.99144 -64.99143 -4.62058 -4.62039 -3.03136 -3.03136 -3.03124 -3.03079 -3.03068 -3.03066
 -0.11402 0.11174 0.16498 0.24468 0.38484 0.42496 0.43812 0.48934 0.51178 0.67426
 0.68167 0.72360 0.79807 0.85291 0.92740 0.96920 1.03309 1.12037 1.12483 1.15445
 1.28670 1.29151 1.37466 1.37510 1.43319 1.48178 1.55039 1.57869 1.59112 1.62986
 1.65062 1.73666 1.77603 1.79359 1.89994 1.92238 1.94546 2.03228 2.08398 2.10752
 2.12914 2.15017 2.28969 2.33083 2.34231 2.37594 2.48151 2.51829 2.61037 2.67875
 2.98715 3.45850 3.57065 3.96533 3.99108 4.05609 7.00474 7.63989
 == 39-th k-point (0.36739,0.12246,-0.36739) occupation: 14==
 -64.99144 -64.99142 -4.62054 -4.62043 -3.03138 -3.03137 -3.03117 -3.03084 -3.03066 -3.03063
 -0.06335 0.02939 0.14919 0.21228 0.35416 0.44887 0.45668 0.55999 0.58790 0.59755
 0.71455 0.81346 0.82151 0.84940 0.92961 1.02600 1.04068 1.04478 1.10652 1.15063
 1.27226 1.28216 1.30490 1.31877 1.42304 1.42937 1.45006 1.54733 1.59923 1.65618
 1.66555 1.73696 1.79988 1.83747 1.88547 1.92949 1.93067 2.00797 2.10023 2.15119
 2.21195 2.26887 2.30625 2.35879 2.42377 2.43798 2.50282 2.52575 2.57236 2.67135
 3.06436 3.29984 3.57533 3.66528 3.97342 4.04139 6.15850 7.41218
 == 40-th k-point (-0.00000,-0.48986,0.24493) occupation: 14==
 -64.99143 -64.99143 -4.62052 -4.62045 -3.03139 -3.03139 -3.03109 -3.03092 -3.03063 -3.03061
 -0.04759 0.03516 0.12865 0.16509 0.40371 0.41825 0.44193 0.56739 0.59389 0.66159
 0.77830 0.81582 0.81969 0.86953 0.90264 0.99340 1.03511 1.04157 1.05879 1.10150
 1.16773 1.19336 1.26415 1.36119 1.42268 1.47675 1.50941 1.52665 1.58327 1.58696
 1.73069 1.73163 1.84539 1.85190 1.92623 1.95476 1.98745 2.01168 2.04221 2.12583
 2.21281 2.21738 2.25061 2.35196 2.37409 2.45385 2.46809 2.49728 2.62040 2.76525
 2.92876 3.18703 3.59337 3.77947 3.82289 3.82472 6.50182 6.75636
 == 41-th k-point (0.12246,-0.36739,0.12246) occupation: 14==
 -64.99145 -64.99141 -4.62056 -4.62040 -3.03139 -3.03138 -3.03119 -3.03083 -3.03066 -3.03064
 -0.09605 0.08098 0.17911 0.20185 0.34340 0.42965 0.46088 0.48026 0.66167 0.66907
 0.67724 0.76178 0.78226 0.84938 0.91341 0.96577 1.01406 1.03570 1.12173 1.19503
 1.24525 1.31392 1.32804 1.39579 1.40717 1.48086 1.52504 1.54714 1.61421 1.63669
 1.66282 1.71446 1.79190 1.82089 1.86205 1.98475 2.01050 2.02331 2.05367 2.09703
 2.17615 2.25119 2.27486 2.28438 2.37619 2.38496 2.45942 2.52785 2.54699 2.71834
 3.33900 3.47125 3.62672 3.86060 3.97470 4.05993 5.77433 8.08870
 == 42-th k-point (0.24493,-0.24493,0.00000) occupation: 14==
 -64.99144 -64.99143 -4.62058 -4.62039 -3.03136 -3.03136 -3.03124 -3.03079 -3.03068 -3.03066
 -0.11402 0.11174 0.16498 0.24468 0.38484 0.42496 0.43812 0.48934 0.51178 0.67426
 0.68167 0.72360 0.79807 0.85291 0.92740 0.96920 1.03309 1.12037 1.12483 1.15445
 1.28670 1.29151 1.37466 1.37510 1.43319 1.48178 1.55039 1.57869 1.59112 1.62986
 1.65062 1.73666 1.77603 1.79359 1.89994 1.92238 1.94546 2.03228 2.08398 2.10752
 2.12914 2.15017 2.28969 2.33083 2.34231 2.37594 2.48151 2.51829 2.61037 2.67875
 2.98715 3.45850 3.57065 3.96533 3.99108 4.05609 7.00474 7.63989
 == 43-th k-point (0.36739,-0.12246,-0.12246) occupation: 14==
 -64.99145 -64.99141 -4.62056 -4.62040 -3.03139 -3.03138 -3.03119 -3.03083 -3.03066 -3.03064
 -0.09605 0.08098 0.17911 0.20185 0.34340 0.42965 0.46088 0.48026 0.66167 0.66907
 0.67724 0.76178 0.78226 0.84938 0.91341 0.96577 1.01406 1.03570 1.12173 1.19503
 1.24525 1.31392 1.32804 1.39579 1.40717 1.48086 1.52504 1.54714 1.61421 1.63669
 1.66282 1.71446 1.79190 1.82089 1.86205 1.98475 2.01050 2.02331 2.05367 2.09703
 2.17615 2.25119 2.27486 2.28438 2.37619 2.38496 2.45942 2.52785 2.54699 2.71834
 3.33900 3.47125 3.62672 3.86060 3.97470 4.05993 5.77433 8.08870
 == 44-th k-point (0.48986,0.00000,-0.24493) occupation: 14==
 -64.99143 -64.99143 -4.62052 -4.62045 -3.03139 -3.03139 -3.03109 -3.03092 -3.03063 -3.03061
 -0.04759 0.03516 0.12865 0.16509 0.40371 0.41825 0.44193 0.56739 0.59389 0.66159
 0.77830 0.81582 0.81969 0.86953 0.90264 0.99340 1.03511 1.04157 1.05879 1.10150
 1.16773 1.19336 1.26415 1.36119 1.42268 1.47675 1.50941 1.52665 1.58327 1.58696
 1.73069 1.73163 1.84539 1.85190 1.92623 1.95476 1.98745 2.01168 2.04221 2.12583
 2.21281 2.21738 2.25061 2.35196 2.37409 2.45385 2.46809 2.49728 2.62040 2.76525
 2.92876 3.18703 3.59337 3.77947 3.82289 3.82472 6.50182 6.75636
 == 45-th k-point (0.12246,-0.61232,0.36739) occupation: 14==
 -64.99143 -64.99143 -4.62052 -4.62045 -3.03139 -3.03139 -3.03109 -3.03092 -3.03063 -3.03061
 -0.04759 0.03516 0.12865 0.16509 0.40371 0.41825 0.44193 0.56739 0.59389 0.66159
 0.77830 0.81582 0.81969 0.86953 0.90263 0.99339 1.03511 1.04157 1.05879 1.10150
 1.16773 1.19336 1.26415 1.36118 1.42268 1.47674 1.50941 1.52665 1.58327 1.58696
 1.73069 1.73163 1.84539 1.85188 1.92623 1.95475 1.98745 2.01167 2.04221 2.12583
 2.21281 2.21738 2.25060 2.35196 2.37410 2.45385 2.46810 2.49728 2.62037 2.76523
 2.92876 3.18702 3.59337 3.77948 3.82292 3.82473 6.50181 6.75634
 == 46-th k-point (0.24493,-0.48986,0.24493) occupation: 14==
[...]
 2.98717 3.45851 3.57065 3.96529 3.99109 4.05611 7.00482 7.63997
 == 95-th k-point (-0.12246,-0.36739,0.61232) occupation: 14==
 -64.99143 -64.99143 -4.62052 -4.62045 -3.03139 -3.03139 -3.03109 -3.03092 -3.03063 -3.03061
 -0.04759 0.03516 0.12865 0.16509 0.40371 0.41825 0.44193 0.56739 0.59389 0.66159
 0.77830 0.81582 0.81969 0.86953 0.90263 0.99339 1.03511 1.04157 1.05879 1.10150
 1.16773 1.19336 1.26415 1.36118 1.42268 1.47674 1.50941 1.52665 1.58327 1.58696
 1.73069 1.73163 1.84539 1.85188 1.92623 1.95475 1.98745 2.01167 2.04221 2.12583
 2.21281 2.21738 2.25060 2.35196 2.37410 2.45385 2.46810 2.49728 2.62037 2.76523
 2.92876 3.18702 3.59337 3.77948 3.82292 3.82473 6.50181 6.75634
 == 96-th k-point (0.00000,-0.24493,0.48986) occupation: 14==
 -64.99143 -64.99143 -4.62052 -4.62045 -3.03139 -3.03139 -3.03109 -3.03092 -3.03063 -3.03061
 -0.04759 0.03516 0.12865 0.16509 0.40371 0.41825 0.44193 0.56739 0.59389 0.66159
 0.77830 0.81582 0.81969 0.86953 0.90264 0.99340 1.03511 1.04157 1.05879 1.10150
 1.16773 1.19336 1.26415 1.36119 1.42268 1.47675 1.50941 1.52665 1.58327 1.58696
 1.73069 1.73163 1.84539 1.85190 1.92623 1.95476 1.98745 2.01168 2.04221 2.12583
 2.21281 2.21738 2.25061 2.35196 2.37409 2.45385 2.46809 2.49728 2.62040 2.76525
 2.92876 3.18703 3.59337 3.77947 3.82289 3.82472 6.50182 6.75636
 == 97-th k-point (0.12246,-0.12246,0.36739) occupation: 14==
 -64.99145 -64.99141 -4.62056 -4.62040 -3.03139 -3.03138 -3.03119 -3.03083 -3.03066 -3.03064
 -0.09605 0.08098 0.17911 0.20185 0.34340 0.42965 0.46088 0.48026 0.66167 0.66907
 0.67724 0.76178 0.78226 0.84938 0.91341 0.96577 1.01406 1.03570 1.12174 1.19503
 1.24525 1.31392 1.32805 1.39580 1.40718 1.48086 1.52504 1.54715 1.61422 1.63669
 1.66289 1.71446 1.79193 1.82090 1.86205 1.98478 2.01049 2.02330 2.05373 2.09703
 2.17615 2.25120 2.27490 2.28438 2.37620 2.38495 2.45942 2.52802 2.54712 2.71837
 3.33913 3.47125 3.62713 3.86060 3.97470 4.06000 5.77433 8.08891
 == 98-th k-point (0.24493,0.00000,0.24493) occupation: 14==
 -64.99144 -64.99143 -4.62058 -4.62039 -3.03136 -3.03136 -3.03124 -3.03079 -3.03068 -3.03066
 -0.11402 0.11174 0.16498 0.24468 0.38484 0.42496 0.43812 0.48934 0.51178 0.67426
 0.68167 0.72360 0.79807 0.85291 0.92740 0.96920 1.03309 1.12037 1.12483 1.15445
 1.28670 1.29151 1.37466 1.37510 1.43320 1.48178 1.55039 1.57869 1.59113 1.62986
 1.65063 1.73666 1.77603 1.79360 1.89994 1.92238 1.94546 2.03228 2.08398 2.10749
 2.12914 2.15017 2.28970 2.33088 2.34232 2.37594 2.48151 2.51832 2.61042 2.67879
 2.98717 3.45851 3.57065 3.96529 3.99109 4.05611 7.00482 7.63997
 == 99-th k-point (0.36739,0.12246,0.12246) occupation: 14==
 -64.99145 -64.99141 -4.62056 -4.62040 -3.03139 -3.03138 -3.03119 -3.03083 -3.03066 -3.03064
 -0.09605 0.08098 0.17911 0.20185 0.34340 0.42965 0.46088 0.48026 0.66167 0.66907
 0.67724 0.76178 0.78226 0.84938 0.91341 0.96577 1.01406 1.03570 1.12173 1.19503
 1.24525 1.31392 1.32805 1.39579 1.40718 1.48086 1.52504 1.54714 1.61421 1.63669
 1.66282 1.71446 1.79191 1.82090 1.86205 1.98478 2.01048 2.02331 2.05367 2.09703
 2.17615 2.25119 2.27486 2.28437 2.37620 2.38496 2.45942 2.52785 2.54711 2.71840
 3.33912 3.47127 3.62672 3.86064 3.97472 4.05993 5.77433 8.08884
 == 100-th k-point (-0.73479,0.24493,0.24493) occupation: 14==
 -64.99144 -64.99142 -4.62054 -4.62043 -3.03138 -3.03137 -3.03117 -3.03084 -3.03066 -3.03063
 -0.06335 0.02939 0.14919 0.21228 0.35416 0.44887 0.45668 0.55999 0.58790 0.59755
 0.71455 0.81346 0.82151 0.84940 0.92961 1.02600 1.04068 1.04478 1.10652 1.15063
 1.27226 1.28217 1.30490 1.31879 1.42304 1.42937 1.45006 1.54733 1.59922 1.65618
 1.66555 1.73698 1.79988 1.83746 1.88546 1.92949 1.93067 2.00797 2.10023 2.15119
 2.21195 2.26887 2.30625 2.35878 2.42377 2.43798 2.50284 2.52572 2.57235 2.67129
 3.06436 3.29978 3.57531 3.66525 3.97341 4.04136 6.15855 7.41217
 == 101-th k-point (-0.61232,0.36739,0.12246) occupation: 14==
 -64.99143 -64.99143 -4.62052 -4.62045 -3.03139 -3.03139 -3.03109 -3.03092 -3.03063 -3.03061
 -0.04759 0.03516 0.12865 0.16509 0.40371 0.41825 0.44193 0.56739 0.59389 0.66159
 0.77830 0.81582 0.81969 0.86953 0.90263 0.99339 1.03511 1.04157 1.05879 1.10150
 1.16773 1.19336 1.26415 1.36118 1.42268 1.47674 1.50941 1.52665 1.58327 1.58696
 1.73069 1.73163 1.84539 1.85188 1.92623 1.95475 1.98745 2.01167 2.04221 2.12583
 2.21281 2.21738 2.25060 2.35196 2.37410 2.45385 2.46810 2.49728 2.62037 2.76523
 2.92876 3.18702 3.59337 3.77948 3.82292 3.82473 6.50181 6.75634
 == 102-th k-point (-0.48986,0.48986,-0.00000) occupation: 14==
 -64.99144 -64.99141 -4.62049 -4.62047 -3.03139 -3.03137 -3.03105 -3.03096 -3.03064 -3.03061
 -0.01933 0.00277 0.12544 0.18025 0.31609 0.39485 0.57785 0.59890 0.60360 0.62288
 0.80626 0.82675 0.83320 0.86949 0.89318 0.93327 1.02760 1.06814 1.08030 1.12017
 1.12883 1.17800 1.21926 1.27954 1.41363 1.50438 1.50864 1.52633 1.68403 1.69267
 1.79641 1.81254 1.82552 1.85672 1.86404 1.93612 2.01017 2.01997 2.04271 2.12961
 2.23423 2.24921 2.25261 2.36570 2.39052 2.42394 2.48278 2.49290 2.57439 2.73981
 2.90147 2.95152 3.67879 3.71688 3.83362 3.94528 5.48274 7.49169
 == 103-th k-point (-0.36739,0.61232,-0.12246) occupation: 14==
 -64.99143 -64.99143 -4.62052 -4.62045 -3.03139 -3.03139 -3.03109 -3.03092 -3.03063 -3.03061
 -0.04759 0.03516 0.12865 0.16509 0.40371 0.41825 0.44193 0.56739 0.59389 0.66159
 0.77830 0.81582 0.81969 0.86953 0.90263 0.99339 1.03511 1.04157 1.05879 1.10150
 1.16773 1.19336 1.26415 1.36118 1.42268 1.47674 1.50941 1.52665 1.58327 1.58696
 1.73069 1.73163 1.84539 1.85188 1.92623 1.95475 1.98745 2.01167 2.04221 2.12583
 2.21281 2.21738 2.25060 2.35196 2.37410 2.45385 2.46810 2.49728 2.62037 2.76523
 2.92876 3.18702 3.59337 3.77948 3.82292 3.82473 6.50181 6.75634
 == 104-th k-point (-0.24493,0.73479,-0.24493) occupation: 14==
 -64.99144 -64.99142 -4.62054 -4.62043 -3.03138 -3.03137 -3.03117 -3.03084 -3.03066 -3.03063
 -0.06335 0.02939 0.14919 0.21228 0.35416 0.44887 0.45668 0.55999 0.58790 0.59755
 0.71455 0.81346 0.82151 0.84940 0.92961 1.02600 1.04068 1.04478 1.10652 1.15063
 1.27226 1.28217 1.30490 1.31879 1.42304 1.42937 1.45006 1.54733 1.59922 1.65618
 1.66555 1.73698 1.79988 1.83746 1.88546 1.92949 1.93067 2.00797 2.10023 2.15119
 2.21195 2.26887 2.30625 2.35878 2.42377 2.43798 2.50284 2.52572 2.57235 2.67129
 3.06436 3.29978 3.57531 3.66525 3.97341 4.04136 6.15855 7.41217
 == 105-th k-point (-0.61232,0.12246,0.36739) occupation: 14==
 -64.99143 -64.99143 -4.62052 -4.62045 -3.03139 -3.03139 -3.03109 -3.03092 -3.03063 -3.03061
 -0.04759 0.03516 0.12865 0.16509 0.40371 0.41825 0.44193 0.56739 0.59389 0.66159
 0.77830 0.81582 0.81969 0.86953 0.90263 0.99339 1.03511 1.04157 1.05879 1.10150
 1.16773 1.19336 1.26415 1.36118 1.42268 1.47674 1.50941 1.52665 1.58327 1.58696
 1.73069 1.73163 1.84539 1.85188 1.92623 1.95475 1.98745 2.01167 2.04221 2.12583
 2.21281 2.21738 2.25060 2.35196 2.37410 2.45385 2.46810 2.49728 2.62037 2.76523
 2.92876 3.18702 3.59337 3.77948 3.82292 3.82473 6.50181 6.75634
 == 106-th k-point (-0.48986,0.24493,0.24493) occupation: 14==
 -64.99144 -64.99142 -4.62054 -4.62043 -3.03138 -3.03137 -3.03117 -3.03084 -3.03066 -3.03063
 -0.06335 0.02939 0.14919 0.21228 0.35416 0.44887 0.45668 0.55999 0.58790 0.59755
 0.71455 0.81346 0.82151 0.84940 0.92961 1.02600 1.04068 1.04478 1.10652 1.15063
 1.27226 1.28216 1.30490 1.31879 1.42304 1.42937 1.45005 1.54732 1.59922 1.65618
 1.66554 1.73697 1.79987 1.83746 1.88547 1.92948 1.93067 2.00796 2.10023 2.15119
 2.21195 2.26887 2.30625 2.35880 2.42377 2.43798 2.50283 2.52573 2.57235 2.67136
 3.06436 3.29978 3.57534 3.66528 3.97341 4.04143 6.15845 7.41218
 == 107-th k-point (-0.36739,0.36739,0.12246) occupation: 14==
 -64.99144 -64.99142 -4.62054 -4.62043 -3.03138 -3.03137 -3.03117 -3.03084 -3.03066 -3.03063
 -0.06335 0.02939 0.14919 0.21228 0.35416 0.44887 0.45668 0.55999 0.58790 0.59755
 0.71455 0.81346 0.82151 0.84940 0.92961 1.02600 1.04068 1.04478 1.10652 1.15063
 1.27226 1.28216 1.30490 1.31877 1.42304 1.42937 1.45006 1.54733 1.59923 1.65618
 1.66555 1.73696 1.79988 1.83747 1.88547 1.92949 1.93067 2.00797 2.10023 2.15119
 2.21195 2.26887 2.30625 2.35879 2.42377 2.43798 2.50282 2.52575 2.57236 2.67135
 3.06436 3.29984 3.57533 3.66528 3.97342 4.04139 6.15850 7.41218
 == 108-th k-point (-0.24493,0.48986,-0.00000) occupation: 14==
 -64.99143 -64.99143 -4.62052 -4.62045 -3.03139 -3.03139 -3.03109 -3.03092 -3.03063 -3.03061
 -0.04759 0.03516 0.12865 0.16509 0.40371 0.41825 0.44193 0.56739 0.59389 0.66159
 0.77830 0.81582 0.81969 0.86953 0.90264 0.99340 1.03511 1.04157 1.05879 1.10150
 1.16773 1.19336 1.26415 1.36119 1.42268 1.47675 1.50941 1.52665 1.58327 1.58696
 1.73069 1.73163 1.84539 1.85190 1.92623 1.95476 1.98745 2.01168 2.04221 2.12583
 2.21281 2.21738 2.25061 2.35196 2.37409 2.45385 2.46809 2.49728 2.62040 2.76525
 2.92876 3.18703 3.59337 3.77947 3.82289 3.82472 6.50182 6.75636
 == 109-th k-point (-0.12246,0.61232,-0.12246) occupation: 14==
 -64.99144 -64.99141 -4.62049 -4.62047 -3.03139 -3.03137 -3.03105 -3.03096 -3.03064 -3.03061
 -0.01933 0.00277 0.12544 0.18025 0.31609 0.39485 0.57785 0.59890 0.60360 0.62288
 0.80626 0.82675 0.83320 0.86949 0.89318 0.93327 1.02760 1.06815 1.08030 1.12017
 1.12884 1.17800 1.21926 1.27954 1.41365 1.50438 1.50864 1.52633 1.68416 1.69269
 1.79641 1.81254 1.82553 1.85671 1.86404 1.93613 2.01016 2.01997 2.04275 2.12960
 2.23423 2.24971 2.25261 2.36570 2.39053 2.42466 2.48278 2.49290 2.57439 2.74003
 2.90147 2.95153 3.67876 3.71686 3.83358 3.94540 5.48274 7.49190
 == 110-th k-point (-0.48986,0.00000,0.48986) occupation: 14==
 -64.99144 -64.99141 -4.62049 -4.62047 -3.03139 -3.03137 -3.03105 -3.03096 -3.03064 -3.03061
 -0.01933 0.00277 0.12544 0.18025 0.31609 0.39485 0.57785 0.59890 0.60360 0.62288
 0.80626 0.82675 0.83320 0.86949 0.89318 0.93327 1.02760 1.06814 1.08030 1.12017
 1.12883 1.17800 1.21926 1.27954 1.41363 1.50438 1.50864 1.52633 1.68403 1.69267
 1.79641 1.81254 1.82552 1.85672 1.86404 1.93612 2.01017 2.01997 2.04271 2.12961
 2.23423 2.24921 2.25261 2.36570 2.39052 2.42394 2.48278 2.49290 2.57439 2.73981
 2.90147 2.95152 3.67879 3.71688 3.83362 3.94528 5.48274 7.49169
 == 111-th k-point (-0.36739,0.12246,0.36739) occupation: 14==
 -64.99144 -64.99142 -4.62054 -4.62043 -3.03138 -3.03137 -3.03117 -3.03084 -3.03066 -3.03063
 -0.06335 0.02939 0.14919 0.21228 0.35416 0.44887 0.45668 0.55999 0.58790 0.59755
 0.71455 0.81346 0.82151 0.84940 0.92961 1.02600 1.04068 1.04478 1.10652 1.15063
 1.27226 1.28216 1.30490 1.31877 1.42304 1.42937 1.45006 1.54733 1.59923 1.65618
 1.66555 1.73696 1.79988 1.83747 1.88547 1.92949 1.93067 2.00797 2.10023 2.15119
 2.21195 2.26887 2.30625 2.35879 2.42377 2.43798 2.50282 2.52575 2.57236 2.67135
 3.06436 3.29984 3.57533 3.66528 3.97342 4.04139 6.15850 7.41218
 == 112-th k-point (-0.24493,0.24493,0.24493) occupation: 14==
 -64.99145 -64.99137 -4.62055 -4.62040 -3.03137 -3.03137 -3.03124 -3.03076 -3.03068 -3.03068
 -0.09437 0.04505 0.23408 0.23408 0.33816 0.40493 0.40493 0.57134 0.61871 0.61871
 0.65541 0.77823 0.77823 0.79778 0.92703 1.02544 1.02544 1.14844 1.19168 1.21141
 1.21142 1.30425 1.30425 1.40289 1.40290 1.41624 1.54069 1.54070 1.54220 1.57913
 1.57913 1.68930 1.88209 1.91050 1.91050 1.91193 1.99946 2.02541 2.02542 2.18213
 2.26471 2.26473 2.37793 2.39877 2.39881 2.47635 2.47635 2.48823 2.48825 2.55573
 3.40306 3.52824 3.52829 3.68385 3.85845 4.07921 4.07926 8.25112
 == 113-th k-point (-0.12246,0.36739,0.12246) occupation: 14==
 -64.99145 -64.99141 -4.62056 -4.62040 -3.03139 -3.03138 -3.03119 -3.03083 -3.03066 -3.03064
 -0.09605 0.08098 0.17911 0.20185 0.34340 0.42965 0.46088 0.48026 0.66167 0.66907
 0.67724 0.76178 0.78226 0.84938 0.91341 0.96577 1.01406 1.03570 1.12174 1.19503
 1.24525 1.31392 1.32805 1.39580 1.40718 1.48086 1.52504 1.54715 1.61422 1.63669
 1.66289 1.71446 1.79193 1.82090 1.86205 1.98478 2.01049 2.02330 2.05373 2.09703
 2.17615 2.25120 2.27490 2.28438 2.37620 2.38495 2.45942 2.52802 2.54712 2.71837
 3.33913 3.47125 3.62713 3.86060 3.97470 4.06000 5.77433 8.08891
 == 114-th k-point (0.00000,0.48986,0.00000) occupation: 14==
 -64.99141 -64.99141 -4.62052 -4.62044 -3.03140 -3.03140 -3.03109 -3.03092 -3.03065 -3.03065
 -0.06385 0.04932 0.17586 0.17586 0.29925 0.32674 0.59459 0.59459 0.68724 0.69429
 0.75506 0.75506 0.78410 0.83141 0.91131 0.94986 0.94987 0.99514 1.16985 1.16986
 1.18340 1.18837 1.24959 1.32890 1.40996 1.40996 1.64039 1.64353 1.64353 1.73120
 1.76879 1.76885 1.83492 1.83653 1.83654 1.95997 1.96002 1.97471 2.14528 2.15109
 2.16653 2.16655 2.25298 2.33094 2.33095 2.34891 2.47963 2.55256 2.55263 2.89839
 3.27981 3.28005 3.60648 3.96158 4.22548 4.22556 5.35433 5.68059
 == 115-th k-point (-0.36739,-0.12246,0.61232) occupation: 14==
 -64.99143 -64.99143 -4.62052 -4.62045 -3.03139 -3.03139 -3.03109 -3.03092 -3.03063 -3.03061
 -0.04759 0.03516 0.12865 0.16509 0.40371 0.41825 0.44193 0.56739 0.59389 0.66159
 0.77830 0.81582 0.81969 0.86953 0.90263 0.99339 1.03511 1.04157 1.05879 1.10150
 1.16773 1.19336 1.26415 1.36118 1.42268 1.47674 1.50941 1.52665 1.58327 1.58696
 1.73069 1.73163 1.84539 1.85188 1.92623 1.95475 1.98745 2.01167 2.04221 2.12583
 2.21281 2.21738 2.25060 2.35196 2.37410 2.45385 2.46810 2.49728 2.62037 2.76523
 2.92876 3.18702 3.59337 3.77948 3.82292 3.82473 6.50181 6.75634
 == 116-th k-point (-0.24493,0.00000,0.48986) occupation: 14==
 -64.99143 -64.99143 -4.62052 -4.62045 -3.03139 -3.03139 -3.03109 -3.03092 -3.03063 -3.03061
 -0.04759 0.03516 0.12865 0.16509 0.40371 0.41825 0.44193 0.56739 0.59389 0.66159
 0.77830 0.81582 0.81969 0.86953 0.90264 0.99340 1.03511 1.04157 1.05879 1.10150
 1.16773 1.19336 1.26415 1.36119 1.42268 1.47675 1.50941 1.52665 1.58327 1.58696
 1.73069 1.73163 1.84539 1.85190 1.92623 1.95476 1.98745 2.01168 2.04221 2.12583
 2.21281 2.21738 2.25061 2.35196 2.37409 2.45385 2.46809 2.49728 2.62040 2.76525
 2.92876 3.18703 3.59337 3.77947 3.82289 3.82472 6.50182 6.75636
 == 117-th k-point (-0.12246,0.12246,0.36739) occupation: 14==
 -64.99145 -64.99141 -4.62056 -4.62040 -3.03139 -3.03138 -3.03119 -3.03083 -3.03066 -3.03064
 -0.09605 0.08098 0.17911 0.20185 0.34340 0.42965 0.46088 0.48026 0.66167 0.66907
 0.67724 0.76178 0.78226 0.84938 0.91341 0.96577 1.01406 1.03570 1.12174 1.19503
 1.24525 1.31392 1.32805 1.39580 1.40718 1.48086 1.52504 1.54715 1.61422 1.63669
 1.66289 1.71446 1.79193 1.82090 1.86205 1.98478 2.01049 2.02330 2.05373 2.09703
 2.17615 2.25120 2.27490 2.28438 2.37620 2.38495 2.45942 2.52802 2.54712 2.71837
 3.33913 3.47125 3.62713 3.86060 3.97470 4.06000 5.77433 8.08891
 == 118-th k-point (0.00000,0.24493,0.24493) occupation: 14==
 -64.99144 -64.99143 -4.62058 -4.62039 -3.03136 -3.03136 -3.03124 -3.03079 -3.03068 -3.03066
 -0.11402 0.11174 0.16498 0.24468 0.38484 0.42496 0.43812 0.48934 0.51178 0.67426
 0.68167 0.72360 0.79807 0.85291 0.92740 0.96920 1.03309 1.12037 1.12483 1.15445
 1.28670 1.29151 1.37466 1.37510 1.43320 1.48178 1.55039 1.57869 1.59113 1.62986
 1.65063 1.73666 1.77603 1.79360 1.89994 1.92238 1.94546 2.03228 2.08398 2.10749
 2.12914 2.15017 2.28970 2.33088 2.34232 2.37594 2.48151 2.51832 2.61042 2.67879
 2.98717 3.45851 3.57065 3.96529 3.99109 4.05611 7.00482 7.63997
 == 119-th k-point (0.12246,0.36739,0.12246) occupation: 14==
 -64.99145 -64.99141 -4.62056 -4.62040 -3.03139 -3.03138 -3.03119 -3.03083 -3.03066 -3.03064
 -0.09605 0.08098 0.17911 0.20185 0.34340 0.42965 0.46088 0.48026 0.66167 0.66907
 0.67724 0.76178 0.78226 0.84938 0.91341 0.96577 1.01406 1.03570 1.12173 1.19503
 1.24525 1.31392 1.32805 1.39579 1.40718 1.48086 1.52504 1.54714 1.61421 1.63669
 1.66282 1.71446 1.79191 1.82090 1.86205 1.98478 2.01048 2.02331 2.05367 2.09703
 2.17615 2.25119 2.27486 2.28437 2.37620 2.38496 2.45942 2.52785 2.54711 2.71840
 3.33912 3.47127 3.62672 3.86064 3.97472 4.05993 5.77433 8.08884
 == 120-th k-point (-0.24493,-0.24493,0.73479) occupation: 14==
 -64.99144 -64.99142 -4.62054 -4.62043 -3.03138 -3.03137 -3.03117 -3.03084 -3.03066 -3.03063
 -0.06335 0.02939 0.14919 0.21228 0.35416 0.44887 0.45668 0.55999 0.58790 0.59755
 0.71455 0.81346 0.82151 0.84940 0.92961 1.02600 1.04068 1.04478 1.10652 1.15063
 1.27226 1.28217 1.30490 1.31879 1.42304 1.42937 1.45006 1.54733 1.59922 1.65618
 1.66555 1.73698 1.79988 1.83746 1.88546 1.92949 1.93067 2.00797 2.10023 2.15119
 2.21195 2.26887 2.30625 2.35878 2.42377 2.43798 2.50284 2.52572 2.57235 2.67129
 3.06436 3.29978 3.57531 3.66525 3.97341 4.04136 6.15855 7.41217
 == 121-th k-point (-0.12246,-0.12246,0.61232) occupation: 14==
 -64.99144 -64.99141 -4.62049 -4.62047 -3.03139 -3.03137 -3.03105 -3.03096 -3.03064 -3.03061
 -0.01933 0.00277 0.12544 0.18025 0.31609 0.39485 0.57785 0.59890 0.60360 0.62288
 0.80626 0.82675 0.83320 0.86949 0.89318 0.93327 1.02760 1.06815 1.08030 1.12017
 1.12884 1.17800 1.21926 1.27954 1.41365 1.50438 1.50864 1.52633 1.68416 1.69269
 1.79641 1.81254 1.82553 1.85671 1.86404 1.93613 2.01016 2.01997 2.04275 2.12960
 2.23423 2.24971 2.25261 2.36570 2.39053 2.42466 2.48278 2.49290 2.57439 2.74003
 2.90147 2.95153 3.67876 3.71686 3.83358 3.94540 5.48274 7.49190
 == 122-th k-point (0.00000,0.00000,0.48986) occupation: 14==
 -64.99141 -64.99141 -4.62052 -4.62044 -3.03140 -3.03140 -3.03109 -3.03092 -3.03065 -3.03065
 -0.06385 0.04932 0.17586 0.17586 0.29925 0.32674 0.59459 0.59459 0.68724 0.69429
 0.75506 0.75506 0.78410 0.83141 0.91131 0.94986 0.94987 0.99514 1.16985 1.16986
 1.18340 1.18837 1.24959 1.32890 1.40996 1.40996 1.64039 1.64353 1.64353 1.73120
 1.76879 1.76885 1.83492 1.83653 1.83654 1.95997 1.96002 1.97471 2.14528 2.15109
 2.16653 2.16655 2.25298 2.33094 2.33095 2.34891 2.47963 2.55256 2.55263 2.89839
 3.27981 3.28005 3.60648 3.96158 4.22548 4.22556 5.35433 5.68059
 == 123-th k-point (0.12246,0.12246,0.36739) occupation: 14==
 -64.99145 -64.99141 -4.62056 -4.62040 -3.03139 -3.03138 -3.03119 -3.03083 -3.03066 -3.03064
 -0.09605 0.08098 0.17911 0.20185 0.34340 0.42965 0.46088 0.48026 0.66167 0.66907
 0.67724 0.76178 0.78226 0.84938 0.91341 0.96577 1.01406 1.03570 1.12173 1.19503
 1.24525 1.31392 1.32805 1.39579 1.40718 1.48086 1.52504 1.54714 1.61421 1.63669
 1.66282 1.71446 1.79191 1.82090 1.86205 1.98478 2.01048 2.02331 2.05367 2.09703
 2.17615 2.25119 2.27486 2.28437 2.37620 2.38496 2.45942 2.52785 2.54711 2.71840
 3.33912 3.47127 3.62672 3.86064 3.97472 4.05993 5.77433 8.08884
 == 124-th k-point (0.24493,0.24493,0.24493) occupation: 14==
 -64.99145 -64.99137 -4.62055 -4.62040 -3.03137 -3.03137 -3.03124 -3.03076 -3.03068 -3.03068
 -0.09437 0.04505 0.23408 0.23408 0.33816 0.40493 0.40493 0.57134 0.61871 0.61871
 0.65541 0.77823 0.77823 0.79778 0.92703 1.02544 1.02544 1.14844 1.19166 1.21141
 1.21141 1.30425 1.30425 1.40290 1.40290 1.41624 1.54069 1.54069 1.54220 1.57913
 1.57913 1.68929 1.88209 1.91050 1.91050 1.91193 1.99947 2.02541 2.02541 2.18212
 2.26473 2.26473 2.37790 2.39877 2.39877 2.47635 2.47635 2.48824 2.48824 2.55572
 3.40305 3.52828 3.52828 3.68386 3.85843 4.07926 4.07926 8.25103
 ---------------------------------------------------------------------------
 VBM is at 62-th k-point with 7.52926 eV
 CBM is at 10-th k-point with 8.14301 eV
 Band gap is 0.61375 eV


           Ground-State Mulliken Net Atomic Charges

      Atom                 Charge (a.u.)          Spin (a.u.)
   --------------------------------------------------------
      1 Si               (-0.000000,0.000000)    (0.000000,0.000000)
      2 Si               (0.000000,-0.000000)    (0.000000,0.000000)
   --------------------------------------------------------
  Sum of atomic charges =     (-0.000000,-0.000000)
  Sum of spin   charges =       (0.000000,0.000000)



 Total job time:  42.85 s.
 Tue Sep  9 09:19:15 2025


        *************************************************************
        *                                                           *
        *  Thank you very much for using QCPBC. Have a nice day.    *
        *                                                           *
        *************************************************************

Running job 1 of 1
