                  Welcome to Q-Chem
           with Periodic Boundary Condition
     A Quantum Leap Into The Future Of Chemistry

 Adam Rettig, Xintian Feng, Meng-Fu Chen, Hieu Dinh, Stephen Quiton,
 Anton Ni, Paul J. Robinson, Jinghong Zhang, Joonho Lee

Contributors to earlier versions of Q-Chem not listed above:
 Evgeny Epifanovsky, Leo Cunha, Jerome F. Gonthier, Kuan-Yu Liu
 Input file: /n/netscratch/joonholee_lab/Lab/hieudinh//si_2_ccpvtz_omega_0.3_777.scratch20250909092323/si_2_ccpvtz_omega_0.3_777.0
 Scratch folder: /n/netscratch/joonholee_lab/Lab/hieudinh//si_2_ccpvtz_omega_0.3_777.scratch20250909092323
 Auxillary files located at: /n/holylabs/LABS/joonholee_lab/Lab/qchem_base/qcaux
 Q-Chem begins on Tue Sep  9 09:23:24 2025

 -------------------------------------------------------------
 User input:
 -------------------------------------------------------------
 $lattice
 3
 0.000000 5.130600 5.130600
 5.130600 0.000000 5.130600
 5.130600 5.130600 0.000000
 $end
 
 $unitcell
 ABSOLUTE
 0 1
 Si 0.000000 0.000000 0.000000
 Si 2.565300 2.565300 2.565300
 $end
 
 $rem
 jobtype = sp
 method = pbe
 scf_convergence = 5
 scf_guess = autosad
 scf_algorithm = diis_gdm
 basis = cc-pvtz
 aux_basis = cc-pvtz-jk
 input_bohr = true
 symmetry = false
 rsdf_print_level 1
 is_basis_uctr true
 
 mp_mesh = [7,7,7]
 
 integral_direct true
 bvk_cgto true
 
 thresh 14
 mem_total 1000000
 threads 32
 
 MAX_SCF_CYCLES 500
 madelung = false
 omega 0.3
 do_rij_bigmem true
 automate_g true
 print_level 10
 grid_type_xc 1
 
 thresh_1e2c_sp 1e-14
 thresh_2e3c_bra_ket_sep 1e-10
 thresh_g 1e-12
 $end
 
 -------------------------------------------------------------
 Running PBC job

 Requested Exchange Correlation Functionals: 
  DFT Exchange:  1.00000 pbe_x
  DFT Correlation:  1.00000 pbe_c
 using 32 threads for computing.
 ---------------------------------------------------------------
      Coordinates of Atoms in Central Unit Cell (Angstroms)
    I     Atom         X            Y            Z
 ---------------------------------------------------------------
    1      Si      0.000000     0.000000     0.000000
    2      Si      1.357498     1.357498     1.357498
 ---------------------------------------------------------------
 --------------------------------------------------
              Lattice Vectors (Angstroms)
              X            Y            Z
 --------------------------------------------------
   X       0.000000     2.714997     2.714997
   Y       2.714997     0.000000     2.714997
   Z       2.714997     2.714997     0.000000
 --------------------------------------------------
 --------------------------------------------------
       Reciprocal Lattice Vectors (Angstroms^-1)
              X            Y            Z
 --------------------------------------------------
   X      -1.157126     1.157126     1.157126
   Y       1.157126    -1.157126     1.157126
   Z       1.157126     1.157126    -1.157126
 --------------------------------------------------

 Single point calculation requested

 Hamiltonian contributions:
 List of terms in Hamiltonian: kpts_nn, kpts_kinetic, kpts_vnuc_df, kpts_xc, kpts_rij_bigmem

 K-Points calculation started.

 Basis set information about using solid harmonic (1) or Cartesian (0):
  si : D(1) D(1) F(1) 

 Basis set information about using solid harmonic (1) or Cartesian (0):
  si : D(1) D(1) D(1) D(1) D(1) D(1) D(1) D(1) D(1) F(1) F(1) F(1) G(1) 

 There are 68 basis functions in the central unit cell.
 Print atomic basis of atoms in the central unit cell:
 -------------------------------------------------------------
2 104 104 24

  0.00000000000000e+00  0.00000000000000e+00  0.00000000000000e+00
  2.56530000000000e+00  2.56530000000000e+00  2.56530000000000e+00

  2.54900000000000e+05
  3.81900000000000e+04
  8.69000000000000e+03
  2.46200000000000e+03
  8.04800000000000e+02
  2.91300000000000e+02
  1.13600000000000e+02
  4.67500000000000e+01
  1.98200000000000e+01
  7.70800000000000e+00
  3.34000000000000e+00
  2.54900000000000e+05
  3.81900000000000e+04
  8.69000000000000e+03
  8.04800000000000e+02
  2.91300000000000e+02
  1.13600000000000e+02
  4.67500000000000e+01
  1.98200000000000e+01
  7.70800000000000e+00
  3.34000000000000e+00
  1.40200000000000e+00
  2.54900000000000e+05
  3.81900000000000e+04
  8.69000000000000e+03
  2.91300000000000e+02
  1.13600000000000e+02
  4.67500000000000e+01
  1.98200000000000e+01
  7.70800000000000e+00
  3.34000000000000e+00
  1.40200000000000e+00
  2.07000000000000e-01
  4.38700000000000e-01
  7.94400000000000e-02
  4.81500000000000e+02
  1.13900000000000e+02
  3.62300000000000e+01
  1.33400000000000e+01
  5.25200000000000e+00
  2.12000000000000e+00
  1.13900000000000e+02
  3.62300000000000e+01
  1.33400000000000e+01
  5.25200000000000e+00
  2.12000000000000e+00
  2.52800000000000e-01
  8.56100000000000e-01
  7.88900000000000e-02
  4.81000000000000e-01
  1.59000000000000e-01
  3.36000000000000e-01
  2.54900000000000e+05
  3.81900000000000e+04
  8.69000000000000e+03
  2.46200000000000e+03
  8.04800000000000e+02
  2.91300000000000e+02
  1.13600000000000e+02
  4.67500000000000e+01
  1.98200000000000e+01
  7.70800000000000e+00
  3.34000000000000e+00
  2.54900000000000e+05
  3.81900000000000e+04
  8.69000000000000e+03
  8.04800000000000e+02
  2.91300000000000e+02
  1.13600000000000e+02
  4.67500000000000e+01
  1.98200000000000e+01
  7.70800000000000e+00
  3.34000000000000e+00
  1.40200000000000e+00
  2.54900000000000e+05
  3.81900000000000e+04
  8.69000000000000e+03
  2.91300000000000e+02
  1.13600000000000e+02
  4.67500000000000e+01
  1.98200000000000e+01
  7.70800000000000e+00
  3.34000000000000e+00
  1.40200000000000e+00
  2.07000000000000e-01
  4.38700000000000e-01
  7.94400000000000e-02
  4.81500000000000e+02
  1.13900000000000e+02
  3.62300000000000e+01
  1.33400000000000e+01
  5.25200000000000e+00
  2.12000000000000e+00
  1.13900000000000e+02
  3.62300000000000e+01
  1.33400000000000e+01
  5.25200000000000e+00
  2.12000000000000e+00
  2.52800000000000e-01
  8.56100000000000e-01
  7.88900000000000e-02
  4.81000000000000e-01
  1.59000000000000e-01
  3.36000000000000e-01

  5.06121931014315e-01
  9.46667895564849e-01
  1.63484840115776e+00
  2.64073594005923e+00
  3.97699155153283e+00
  5.40905960736848e+00
  6.15868961670172e+00
  4.99170532032548e+00
  2.02857976424901e+00
  1.82839763527352e-01
 -1.25640690342342e-02
  1.10808750449959e-03
  1.94415577975663e-03
  2.70023730632789e-03
 -1.69098200112149e-02
 -8.66890848691569e-02
 -2.76125946359713e-01
 -6.25588788447604e-01
 -6.61701688370681e-01
  3.11114524237060e-01
  9.56658906468163e-01
  4.36891217824705e-01
  1.05873342256663e-04
  1.52975802748887e-04
  4.28394863673135e-04
 -4.94070443505333e-03
 -1.17298035021286e-02
 -2.95023896611804e-02
 -1.71455066569284e-02
  3.00007138114875e-03
 -6.19326651465540e-02
 -2.59989143457351e-01
  2.47187614608056e-01
  3.84180942836044e-01
  1.06644759418552e-01
  6.70509611941243e+00
  8.84487660481054e+00
  9.82415782069442e+00
  8.40902910540583e+00
  4.80448757555754e+00
  1.55989499299286e+00
 -1.15889775037608e-01
 -5.13312293701512e-02
 -2.64771097977823e-01
 -6.52512718105956e-02
 -1.94608613796415e-01
  2.59380435893970e-01
  1.17380433533106e+00
  5.95960578383022e-02
  4.57260134599596e-01
  6.58952976069849e-02
  1.26537084505476e-01
  5.06121931014315e-01
  9.46667895564849e-01
  1.63484840115776e+00
  2.64073594005923e+00
  3.97699155153283e+00
  5.40905960736848e+00
  6.15868961670172e+00
  4.99170532032548e+00
  2.02857976424901e+00
  1.82839763527352e-01
 -1.25640690342342e-02
  1.10808750449959e-03
  1.94415577975663e-03
  2.70023730632789e-03
 -1.69098200112149e-02
 -8.66890848691569e-02
 -2.76125946359713e-01
 -6.25588788447604e-01
 -6.61701688370681e-01
  3.11114524237060e-01
  9.56658906468163e-01
  4.36891217824705e-01
  1.05873342256663e-04
  1.52975802748887e-04
  4.28394863673135e-04
 -4.94070443505333e-03
 -1.17298035021286e-02
 -2.95023896611804e-02
 -1.71455066569284e-02
  3.00007138114875e-03
 -6.19326651465540e-02
 -2.59989143457351e-01
  2.47187614608056e-01
  3.84180942836044e-01
  1.06644759418552e-01
  6.70509611941243e+00
  8.84487660481054e+00
  9.82415782069442e+00
  8.40902910540583e+00
  4.80448757555754e+00
  1.55989499299286e+00
 -1.15889775037608e-01
 -5.13312293701512e-02
 -2.64771097977823e-01
 -6.52512718105956e-02
 -1.94608613796415e-01
  2.59380435893970e-01
  1.17380433533106e+00
  5.95960578383022e-02
  4.57260134599596e-01
  6.58952976069849e-02
  1.26537084505476e-01

0 0 0 0 1 1 1
0 0 
11 0

0 1 1 11 1 1 1
11 0 
11 0

0 2 2 22 1 1 1
22 0 
11 0

0 3 3 33 1 1 1
33 0 
1 0

0 4 4 34 1 1 1
34 0 
1 0

0 5 5 35 1 3 3
35 1 
6 0

0 8 8 41 1 3 3
41 1 
6 0

0 11 11 47 1 3 3
47 1 
1 0

0 14 14 48 1 3 3
48 1 
1 0

0 17 17 49 1 5 6
49 2 
1 1

0 22 22 50 1 5 6
50 2 
1 1

0 27 27 51 1 7 10
51 3 
1 1

1 34 34 52 1 1 1
52 0 
11 0

1 35 35 63 1 1 1
63 0 
11 0

1 36 36 74 1 1 1
74 0 
11 0

1 37 37 85 1 1 1
85 0 
1 0

1 38 38 86 1 1 1
86 0 
1 0

1 39 39 87 1 3 3
87 1 
6 0

1 42 42 93 1 3 3
93 1 
6 0

1 45 45 99 1 3 3
99 1 
1 0

1 48 48 100 1 3 3
100 1 
1 0

1 51 51 101 1 5 6
101 2 
1 1

1 56 56 102 1 5 6
102 2 
1 1

1 61 61 103 1 7 10
103 3 
1 1

 -------------------------------------------------------------
 Allocate 263208 B from available memory: 1048576000000 B
 There are 1331 image cells after screening.
 There are 1353 image cells for CGTO evaluation after screening.
 Real-Space grid for FFT initialized based on kinetic energy cutoff (eV) = 500.0
 Real-Space grid for FFT: (10,10,10)
 There are 9261 real-space grid points.
 There are 64 batches of real-space grid points. 
 Size of each grid batch is around 128
 Grid for AFT initialized based on kinetic energy cutoff (eV) = 500.0
 Real-Space grid for AFT: (10,10,10)
 There are 9261 real-space grid points.

 There are 5456 atom-centered grid points.

 Spacegroup symmetry group: Fd-3m
 Reducing spacegroup symmetry to symmorphic group: F -4 3 m
 Monkhorst-Pack mesh is [7,7,7]
 There are 343 k points.
kpoints in Bohr
-0.2624248337 -0.2624248337 -0.2624248337
-0.1749498891 -0.1749498891 -0.3498997782
-0.0874749446 -0.0874749446 -0.4373747228
-0.0000000000 -0.0000000000 -0.5248496673
0.0874749446 0.0874749446 -0.6123246119
0.1749498891 0.1749498891 -0.6997995564
0.2624248337 0.2624248337 -0.7872745010
-0.1749498891 -0.3498997782 -0.1749498891
-0.0874749446 -0.2624248337 -0.2624248337
-0.0000000000 -0.1749498891 -0.3498997782
0.0874749446 -0.0874749446 -0.4373747228
0.1749498891 -0.0000000000 -0.5248496673
0.2624248337 0.0874749446 -0.6123246119
0.3498997782 0.1749498891 -0.6997995564
-0.0874749446 -0.4373747228 -0.0874749446
-0.0000000000 -0.3498997782 -0.1749498891
0.0874749446 -0.2624248337 -0.2624248337
0.1749498891 -0.1749498891 -0.3498997782
0.2624248337 -0.0874749446 -0.4373747228
0.3498997782 -0.0000000000 -0.5248496673
0.4373747228 0.0874749446 -0.6123246119
-0.0000000000 -0.5248496673 0.0000000000
0.0874749446 -0.4373747228 -0.0874749446
0.1749498891 -0.3498997782 -0.1749498891
0.2624248337 -0.2624248337 -0.2624248337
0.3498997782 -0.1749498891 -0.3498997782
0.4373747228 -0.0874749446 -0.4373747228
0.5248496673 0.0000000000 -0.5248496673
0.0874749446 -0.6123246119 0.0874749446
0.1749498891 -0.5248496673 0.0000000000
0.2624248337 -0.4373747228 -0.0874749446
0.3498997782 -0.3498997782 -0.1749498891
0.4373747228 -0.2624248337 -0.2624248337
0.5248496673 -0.1749498891 -0.3498997782
0.6123246119 -0.0874749446 -0.4373747228
0.1749498891 -0.6997995564 0.1749498891
0.2624248337 -0.6123246119 0.0874749446
0.3498997782 -0.5248496673 0.0000000000
0.4373747228 -0.4373747228 -0.0874749446
0.5248496673 -0.3498997782 -0.1749498891
0.6123246119 -0.2624248337 -0.2624248337
0.6997995564 -0.1749498891 -0.3498997782
0.2624248337 -0.7872745010 0.2624248337
0.3498997782 -0.6997995564 0.1749498891
0.4373747228 -0.6123246119 0.0874749446
0.5248496673 -0.5248496673 0.0000000000
0.6123246119 -0.4373747228 -0.0874749446
0.6997995564 -0.3498997782 -0.1749498891
0.7872745010 -0.2624248337 -0.2624248337
-0.3498997782 -0.1749498891 -0.1749498891
-0.2624248337 -0.0874749446 -0.2624248337
-0.1749498891 -0.0000000000 -0.3498997782
-0.0874749446 0.0874749446 -0.4373747228
-0.0000000000 0.1749498891 -0.5248496673
0.0874749446 0.2624248337 -0.6123246119
0.1749498891 0.3498997782 -0.6997995564
-0.2624248337 -0.2624248337 -0.0874749446
-0.1749498891 -0.1749498891 -0.1749498891
-0.0874749446 -0.0874749446 -0.2624248337
-0.0000000000 -0.0000000000 -0.3498997782
0.0874749446 0.0874749446 -0.4373747228
0.1749498891 0.1749498891 -0.5248496673
0.2624248337 0.2624248337 -0.6123246119
-0.1749498891 -0.3498997782 0.0000000000
-0.0874749446 -0.2624248337 -0.0874749446
-0.0000000000 -0.1749498891 -0.1749498891
0.0874749446 -0.0874749446 -0.2624248337
0.1749498891 -0.0000000000 -0.3498997782
0.2624248337 0.0874749446 -0.4373747228
0.3498997782 0.1749498891 -0.5248496673
-0.0874749446 -0.4373747228 0.0874749446
-0.0000000000 -0.3498997782 0.0000000000
0.0874749446 -0.2624248337 -0.0874749446
0.1749498891 -0.1749498891 -0.1749498891
0.2624248337 -0.0874749446 -0.2624248337
0.3498997782 0.0000000000 -0.3498997782
0.4373747228 0.0874749446 -0.4373747228
-0.0000000000 -0.5248496673 0.1749498891
0.0874749446 -0.4373747228 0.0874749446
0.1749498891 -0.3498997782 0.0000000000
0.2624248337 -0.2624248337 -0.0874749446
0.3498997782 -0.1749498891 -0.1749498891
0.4373747228 -0.0874749446 -0.2624248337
0.5248496673 0.0000000000 -0.3498997782
0.0874749446 -0.6123246119 0.2624248337
0.1749498891 -0.5248496673 0.1749498891
0.2624248337 -0.4373747228 0.0874749446
0.3498997782 -0.3498997782 0.0000000000
0.4373747228 -0.2624248337 -0.0874749446
0.5248496673 -0.1749498891 -0.1749498891
0.6123246119 -0.0874749446 -0.2624248337
0.1749498891 -0.6997995564 0.3498997782
0.2624248337 -0.6123246119 0.2624248337
0.3498997782 -0.5248496673 0.1749498891
0.4373747228 -0.4373747228 0.0874749446
0.5248496673 -0.3498997782 0.0000000000
0.6123246119 -0.2624248337 -0.0874749446
0.6997995564 -0.1749498891 -0.1749498891
-0.4373747228 -0.0874749446 -0.0874749446
-0.3498997782 -0.0000000000 -0.1749498891
-0.2624248337 0.0874749446 -0.2624248337
-0.1749498891 0.1749498891 -0.3498997782
-0.0874749446 0.2624248337 -0.4373747228
-0.0000000000 0.3498997782 -0.5248496673
0.0874749446 0.4373747228 -0.6123246119
-0.3498997782 -0.1749498891 0.0000000000
-0.2624248337 -0.0874749446 -0.0874749446
-0.1749498891 -0.0000000000 -0.1749498891
-0.0874749446 0.0874749446 -0.2624248337
-0.0000000000 0.1749498891 -0.3498997782
0.0874749446 0.2624248337 -0.4373747228
0.1749498891 0.3498997782 -0.5248496673
-0.2624248337 -0.2624248337 0.0874749446
-0.1749498891 -0.1749498891 0.0000000000
-0.0874749446 -0.0874749446 -0.0874749446
-0.0000000000 -0.0000000000 -0.1749498891
0.0874749446 0.0874749446 -0.2624248337
0.1749498891 0.1749498891 -0.3498997782
0.2624248337 0.2624248337 -0.4373747228
-0.1749498891 -0.3498997782 0.1749498891
-0.0874749446 -0.2624248337 0.0874749446
-0.0000000000 -0.1749498891 0.0000000000
0.0874749446 -0.0874749446 -0.0874749446
0.1749498891 0.0000000000 -0.1749498891
0.2624248337 0.0874749446 -0.2624248337
0.3498997782 0.1749498891 -0.3498997782
-0.0874749446 -0.4373747228 0.2624248337
-0.0000000000 -0.3498997782 0.1749498891
0.0874749446 -0.2624248337 0.0874749446
0.1749498891 -0.1749498891 0.0000000000
0.2624248337 -0.0874749446 -0.0874749446
0.3498997782 0.0000000000 -0.1749498891
0.4373747228 0.0874749446 -0.2624248337
-0.0000000000 -0.5248496673 0.3498997782
0.0874749446 -0.4373747228 0.2624248337
0.1749498891 -0.3498997782 0.1749498891
0.2624248337 -0.2624248337 0.0874749446
0.3498997782 -0.1749498891 0.0000000000
0.4373747228 -0.0874749446 -0.0874749446
0.5248496673 0.0000000000 -0.1749498891
0.0874749446 -0.6123246119 0.4373747228
0.1749498891 -0.5248496673 0.3498997782
0.2624248337 -0.4373747228 0.2624248337
0.3498997782 -0.3498997782 0.1749498891
0.4373747228 -0.2624248337 0.0874749446
0.5248496673 -0.1749498891 0.0000000000
0.6123246119 -0.0874749446 -0.0874749446
-0.5248496673 -0.0000000000 -0.0000000000
-0.4373747228 0.0874749446 -0.0874749446
-0.3498997782 0.1749498891 -0.1749498891
-0.2624248337 0.2624248337 -0.2624248337
-0.1749498891 0.3498997782 -0.3498997782
-0.0874749446 0.4373747228 -0.4373747228
0.0000000000 0.5248496673 -0.5248496673
-0.4373747228 -0.0874749446 0.0874749446
-0.3498997782 -0.0000000000 -0.0000000000
-0.2624248337 0.0874749446 -0.0874749446
-0.1749498891 0.1749498891 -0.1749498891
-0.0874749446 0.2624248337 -0.2624248337
0.0000000000 0.3498997782 -0.3498997782
0.0874749446 0.4373747228 -0.4373747228
-0.3498997782 -0.1749498891 0.1749498891
-0.2624248337 -0.0874749446 0.0874749446
-0.1749498891 -0.0000000000 -0.0000000000
-0.0874749446 0.0874749446 -0.0874749446
0.0000000000 0.1749498891 -0.1749498891
0.0874749446 0.2624248337 -0.2624248337
0.1749498891 0.3498997782 -0.3498997782
-0.2624248337 -0.2624248337 0.2624248337
-0.1749498891 -0.1749498891 0.1749498891
-0.0874749446 -0.0874749446 0.0874749446
0.0000000000 0.0000000000 0.0000000000
0.0874749446 0.0874749446 -0.0874749446
0.1749498891 0.1749498891 -0.1749498891
0.2624248337 0.2624248337 -0.2624248337
-0.1749498891 -0.3498997782 0.3498997782
-0.0874749446 -0.2624248337 0.2624248337
-0.0000000000 -0.1749498891 0.1749498891
0.0874749446 -0.0874749446 0.0874749446
0.1749498891 0.0000000000 0.0000000000
0.2624248337 0.0874749446 -0.0874749446
0.3498997782 0.1749498891 -0.1749498891
-0.0874749446 -0.4373747228 0.4373747228
-0.0000000000 -0.3498997782 0.3498997782
0.0874749446 -0.2624248337 0.2624248337
0.1749498891 -0.1749498891 0.1749498891
0.2624248337 -0.0874749446 0.0874749446
0.3498997782 0.0000000000 0.0000000000
0.4373747228 0.0874749446 -0.0874749446
-0.0000000000 -0.5248496673 0.5248496673
0.0874749446 -0.4373747228 0.4373747228
0.1749498891 -0.3498997782 0.3498997782
0.2624248337 -0.2624248337 0.2624248337
0.3498997782 -0.1749498891 0.1749498891
0.4373747228 -0.0874749446 0.0874749446
0.5248496673 0.0000000000 0.0000000000
-0.6123246119 0.0874749446 0.0874749446
-0.5248496673 0.1749498891 -0.0000000000
-0.4373747228 0.2624248337 -0.0874749446
-0.3498997782 0.3498997782 -0.1749498891
-0.2624248337 0.4373747228 -0.2624248337
-0.1749498891 0.5248496673 -0.3498997782
-0.0874749446 0.6123246119 -0.4373747228
-0.5248496673 -0.0000000000 0.1749498891
-0.4373747228 0.0874749446 0.0874749446
-0.3498997782 0.1749498891 -0.0000000000
-0.2624248337 0.2624248337 -0.0874749446
-0.1749498891 0.3498997782 -0.1749498891
-0.0874749446 0.4373747228 -0.2624248337
0.0000000000 0.5248496673 -0.3498997782
-0.4373747228 -0.0874749446 0.2624248337
-0.3498997782 -0.0000000000 0.1749498891
-0.2624248337 0.0874749446 0.0874749446
-0.1749498891 0.1749498891 -0.0000000000
-0.0874749446 0.2624248337 -0.0874749446
0.0000000000 0.3498997782 -0.1749498891
0.0874749446 0.4373747228 -0.2624248337
-0.3498997782 -0.1749498891 0.3498997782
-0.2624248337 -0.0874749446 0.2624248337
-0.1749498891 0.0000000000 0.1749498891
-0.0874749446 0.0874749446 0.0874749446
0.0000000000 0.1749498891 0.0000000000
0.0874749446 0.2624248337 -0.0874749446
0.1749498891 0.3498997782 -0.1749498891
-0.2624248337 -0.2624248337 0.4373747228
-0.1749498891 -0.1749498891 0.3498997782
-0.0874749446 -0.0874749446 0.2624248337
0.0000000000 0.0000000000 0.1749498891
0.0874749446 0.0874749446 0.0874749446
0.1749498891 0.1749498891 0.0000000000
0.2624248337 0.2624248337 -0.0874749446
-0.1749498891 -0.3498997782 0.5248496673
-0.0874749446 -0.2624248337 0.4373747228
0.0000000000 -0.1749498891 0.3498997782
0.0874749446 -0.0874749446 0.2624248337
0.1749498891 0.0000000000 0.1749498891
0.2624248337 0.0874749446 0.0874749446
0.3498997782 0.1749498891 0.0000000000
-0.0874749446 -0.4373747228 0.6123246119
0.0000000000 -0.3498997782 0.5248496673
0.0874749446 -0.2624248337 0.4373747228
0.1749498891 -0.1749498891 0.3498997782
0.2624248337 -0.0874749446 0.2624248337
0.3498997782 0.0000000000 0.1749498891
0.4373747228 0.0874749446 0.0874749446
-0.6997995564 0.1749498891 0.1749498891
-0.6123246119 0.2624248337 0.0874749446
-0.5248496673 0.3498997782 -0.0000000000
-0.4373747228 0.4373747228 -0.0874749446
-0.3498997782 0.5248496673 -0.1749498891
-0.2624248337 0.6123246119 -0.2624248337
-0.1749498891 0.6997995564 -0.3498997782
-0.6123246119 0.0874749446 0.2624248337
-0.5248496673 0.1749498891 0.1749498891
-0.4373747228 0.2624248337 0.0874749446
-0.3498997782 0.3498997782 -0.0000000000
-0.2624248337 0.4373747228 -0.0874749446
-0.1749498891 0.5248496673 -0.1749498891
-0.0874749446 0.6123246119 -0.2624248337
-0.5248496673 -0.0000000000 0.3498997782
-0.4373747228 0.0874749446 0.2624248337
-0.3498997782 0.1749498891 0.1749498891
-0.2624248337 0.2624248337 0.0874749446
-0.1749498891 0.3498997782 -0.0000000000
-0.0874749446 0.4373747228 -0.0874749446
0.0000000000 0.5248496673 -0.1749498891
-0.4373747228 -0.0874749446 0.4373747228
-0.3498997782 0.0000000000 0.3498997782
-0.2624248337 0.0874749446 0.2624248337
-0.1749498891 0.1749498891 0.1749498891
-0.0874749446 0.2624248337 0.0874749446
0.0000000000 0.3498997782 0.0000000000
0.0874749446 0.4373747228 -0.0874749446
-0.3498997782 -0.1749498891 0.5248496673
-0.2624248337 -0.0874749446 0.4373747228
-0.1749498891 0.0000000000 0.3498997782
-0.0874749446 0.0874749446 0.2624248337
0.0000000000 0.1749498891 0.1749498891
0.0874749446 0.2624248337 0.0874749446
0.1749498891 0.3498997782 0.0000000000
-0.2624248337 -0.2624248337 0.6123246119
-0.1749498891 -0.1749498891 0.5248496673
-0.0874749446 -0.0874749446 0.4373747228
0.0000000000 0.0000000000 0.3498997782
0.0874749446 0.0874749446 0.2624248337
0.1749498891 0.1749498891 0.1749498891
0.2624248337 0.2624248337 0.0874749446
-0.1749498891 -0.3498997782 0.6997995564
-0.0874749446 -0.2624248337 0.6123246119
0.0000000000 -0.1749498891 0.5248496673
0.0874749446 -0.0874749446 0.4373747228
0.1749498891 0.0000000000 0.3498997782
0.2624248337 0.0874749446 0.2624248337
0.3498997782 0.1749498891 0.1749498891
-0.7872745010 0.2624248337 0.2624248337
-0.6997995564 0.3498997782 0.1749498891
-0.6123246119 0.4373747228 0.0874749446
-0.5248496673 0.5248496673 -0.0000000000
-0.4373747228 0.6123246119 -0.0874749446
-0.3498997782 0.6997995564 -0.1749498891
-0.2624248337 0.7872745010 -0.2624248337
-0.6997995564 0.1749498891 0.3498997782
-0.6123246119 0.2624248337 0.2624248337
-0.5248496673 0.3498997782 0.1749498891
-0.4373747228 0.4373747228 0.0874749446
-0.3498997782 0.5248496673 -0.0000000000
-0.2624248337 0.6123246119 -0.0874749446
-0.1749498891 0.6997995564 -0.1749498891
-0.6123246119 0.0874749446 0.4373747228
-0.5248496673 0.1749498891 0.3498997782
-0.4373747228 0.2624248337 0.2624248337
-0.3498997782 0.3498997782 0.1749498891
-0.2624248337 0.4373747228 0.0874749446
-0.1749498891 0.5248496673 0.0000000000
-0.0874749446 0.6123246119 -0.0874749446
-0.5248496673 0.0000000000 0.5248496673
-0.4373747228 0.0874749446 0.4373747228
-0.3498997782 0.1749498891 0.3498997782
-0.2624248337 0.2624248337 0.2624248337
-0.1749498891 0.3498997782 0.1749498891
-0.0874749446 0.4373747228 0.0874749446
0.0000000000 0.5248496673 0.0000000000
-0.4373747228 -0.0874749446 0.6123246119
-0.3498997782 0.0000000000 0.5248496673
-0.2624248337 0.0874749446 0.4373747228
-0.1749498891 0.1749498891 0.3498997782
-0.0874749446 0.2624248337 0.2624248337
0.0000000000 0.3498997782 0.1749498891
0.0874749446 0.4373747228 0.0874749446
-0.3498997782 -0.1749498891 0.6997995564
-0.2624248337 -0.0874749446 0.6123246119
-0.1749498891 0.0000000000 0.5248496673
-0.0874749446 0.0874749446 0.4373747228
0.0000000000 0.1749498891 0.3498997782
0.0874749446 0.2624248337 0.2624248337
0.1749498891 0.3498997782 0.1749498891
-0.2624248337 -0.2624248337 0.7872745010
-0.1749498891 -0.1749498891 0.6997995564
-0.0874749446 -0.0874749446 0.6123246119
0.0000000000 0.0000000000 0.5248496673
0.0874749446 0.0874749446 0.4373747228
0.1749498891 0.1749498891 0.3498997782
0.2624248337 0.2624248337 0.2624248337
 There are 14 alpha and 14 beta electrons
 Start computing overlap matrix
 Allocate 25376512 B from available memory: 1048575736800 B
 Time for computing overlap matrix: 1.9270000000 s
 ====== Initialize compute kernels for all-electron RI-J (kpts) ====== 
 ========================================================== 
 Range-separated parameter omega        = 0.299999999999999989
 Threshold for 1e2c shellpair           = 0.000000000000010000
 Threshold for 2e2c SR integral         = 0.000000000000000001
 Threshold for 2e3c SR integral         = 0.000000000100000000
 Threshold for AFT G-space screening is = 0.000000000001000000
 The exponent cutoff for C/D classification (omega2 / 2) is  = 0.044999999999999998
 ========================================================== 
 === Post process the basis set for RI calculation (exp_cutoff = 0.044999999999999998 ) === 
nshells_b1 before uncontraction = 24
nshells_b1 after uncontraction = 24
nshells_baux before uncontraction = 74
nshells_baux after uncontraction = 74
===============================================
nbsf total   = 68
nbsf compact = 68
nbsf diffuse = 0
naux total   = 242
naux compact = 242
naux diffuse = 0
nshells_bnuc = 2

 Number of unique atoms is 1
 Unique atom #0 (si) has 12 shells.

Shell 0 to 11 belongs to atom si
Shell 12 to 23 belongs to atom si

 Number of unique atom is 1
 Unique atom #0 (si) has 37 auxiliary shells.

Auxiliary Shell 0 to 36 belongs to atom si
Auxiliary Shell 37 to 73 belongs to atom si

================= Automatically determine grid size for reciprocal space summation =================
 Range-separated parameter = 0.30000000000000 and G-space screening threshold = 0.00000000000100
The number of grid points along each axis dimension is (4, 4, 4)
Total number of grid points = 729

Use nonortho shellpair for diffuse density
======== Initializing relevant kernel for RIJ (CC type) ========
There are 299 shellpairs in the reference unit cell
There are 2707 images and we expect to have 809393 in total
There are 21144 shellpairs in the lattice sum after screening
****** AFT -> SR ******
Maximum bra distance cutoff is 26.000000000000
Maximum bra ket distance cutoff is 36.613925668604
Maximum bra ket screening distance is 28.531250000000
Number of auxiliary image is 1633
There are 299 shellpairs in the reference unit cell
There are 695 images and we expect to have 207805 in total
There are 21144 shellpairs in the lattice sum after screening
Available memory per thread for 2e3c calculation is 32.767198759000Gb
Finish initializing 2e3c SR with the lattice sum!
=================================================
======== Initialize the SR component for Vnuc (CC type) ========
Maximum bra distance cutoff is 26.000000000000
Maximum bra ket distance cutoff is 30.465105393952
Maximum bra ket screening distance is 22.160673009729
Number of auxiliary image is 1031
There are 299 shellpairs in the reference unit cell
There are 695 images and we expect to have 207805 in total
There are 21144 shellpairs in the lattice sum after screening
Available memory per thread for 2e3c calculation is 32.767198759000Gb
Finish initializing 2e3c SR with the lattice sum!
=================================================
 Aufbau occupation scheme, occupation determined by eigenvalue
 == 0-th k-point nmo = 68 (-0.26242,-0.26242,-0.26242) ==
 == 1-th k-point nmo = 68 (-0.17495,-0.17495,-0.34990) ==
 == 2-th k-point nmo = 68 (-0.08747,-0.08747,-0.43737) ==
 == 3-th k-point nmo = 68 (-0.00000,-0.00000,-0.52485) ==
 == 4-th k-point nmo = 68 (0.08747,0.08747,-0.61232) ==
 == 5-th k-point nmo = 68 (0.17495,0.17495,-0.69980) ==
 == 6-th k-point nmo = 68 (0.26242,0.26242,-0.78727) ==
 == 7-th k-point nmo = 68 (-0.17495,-0.34990,-0.17495) ==
 == 8-th k-point nmo = 68 (-0.08747,-0.26242,-0.26242) ==
 == 9-th k-point nmo = 68 (-0.00000,-0.17495,-0.34990) ==
 == 10-th k-point nmo = 68 (0.08747,-0.08747,-0.43737) ==
 == 11-th k-point nmo = 68 (0.17495,-0.00000,-0.52485) ==
 == 12-th k-point nmo = 68 (0.26242,0.08747,-0.61232) ==
 == 13-th k-point nmo = 68 (0.34990,0.17495,-0.69980) ==
 == 14-th k-point nmo = 68 (-0.08747,-0.43737,-0.08747) ==
 == 15-th k-point nmo = 68 (-0.00000,-0.34990,-0.17495) ==
 == 16-th k-point nmo = 68 (0.08747,-0.26242,-0.26242) ==
 == 17-th k-point nmo = 68 (0.17495,-0.17495,-0.34990) ==
 == 18-th k-point nmo = 68 (0.26242,-0.08747,-0.43737) ==
 == 19-th k-point nmo = 68 (0.34990,-0.00000,-0.52485) ==
 == 20-th k-point nmo = 68 (0.43737,0.08747,-0.61232) ==
 == 21-th k-point nmo = 68 (-0.00000,-0.52485,0.00000) ==
 == 22-th k-point nmo = 68 (0.08747,-0.43737,-0.08747) ==
 == 23-th k-point nmo = 68 (0.17495,-0.34990,-0.17495) ==
 == 24-th k-point nmo = 68 (0.26242,-0.26242,-0.26242) ==
 == 25-th k-point nmo = 68 (0.34990,-0.17495,-0.34990) ==
 == 26-th k-point nmo = 68 (0.43737,-0.08747,-0.43737) ==
 == 27-th k-point nmo = 68 (0.52485,0.00000,-0.52485) ==
 == 28-th k-point nmo = 68 (0.08747,-0.61232,0.08747) ==
 == 29-th k-point nmo = 68 (0.17495,-0.52485,0.00000) ==
 == 30-th k-point nmo = 68 (0.26242,-0.43737,-0.08747) ==
 == 31-th k-point nmo = 68 (0.34990,-0.34990,-0.17495) ==
 == 32-th k-point nmo = 68 (0.43737,-0.26242,-0.26242) ==
 == 33-th k-point nmo = 68 (0.52485,-0.17495,-0.34990) ==
 == 34-th k-point nmo = 68 (0.61232,-0.08747,-0.43737) ==
 == 35-th k-point nmo = 68 (0.17495,-0.69980,0.17495) ==
 == 36-th k-point nmo = 68 (0.26242,-0.61232,0.08747) ==
 == 37-th k-point nmo = 68 (0.34990,-0.52485,0.00000) ==
 == 38-th k-point nmo = 68 (0.43737,-0.43737,-0.08747) ==
 == 39-th k-point nmo = 68 (0.52485,-0.34990,-0.17495) ==
 == 40-th k-point nmo = 68 (0.61232,-0.26242,-0.26242) ==
 == 41-th k-point nmo = 68 (0.69980,-0.17495,-0.34990) ==
 == 42-th k-point nmo = 68 (0.26242,-0.78727,0.26242) ==
 == 43-th k-point nmo = 68 (0.34990,-0.69980,0.17495) ==
 == 44-th k-point nmo = 68 (0.43737,-0.61232,0.08747) ==
 == 45-th k-point nmo = 68 (0.52485,-0.52485,0.00000) ==
 == 46-th k-point nmo = 68 (0.61232,-0.43737,-0.08747) ==
 == 47-th k-point nmo = 68 (0.69980,-0.34990,-0.17495) ==
 == 48-th k-point nmo = 68 (0.78727,-0.26242,-0.26242) ==
 == 49-th k-point nmo = 68 (-0.34990,-0.17495,-0.17495) ==
 == 50-th k-point nmo = 68 (-0.26242,-0.08747,-0.26242) ==
 == 51-th k-point nmo = 68 (-0.17495,-0.00000,-0.34990) ==
 == 52-th k-point nmo = 68 (-0.08747,0.08747,-0.43737) ==
 == 53-th k-point nmo = 68 (-0.00000,0.17495,-0.52485) ==
 == 54-th k-point nmo = 68 (0.08747,0.26242,-0.61232) ==
 == 55-th k-point nmo = 68 (0.17495,0.34990,-0.69980) ==
 == 56-th k-point nmo = 68 (-0.26242,-0.26242,-0.08747) ==
 == 57-th k-point nmo = 68 (-0.17495,-0.17495,-0.17495) ==
 == 58-th k-point nmo = 68 (-0.08747,-0.08747,-0.26242) ==
 == 59-th k-point nmo = 68 (-0.00000,-0.00000,-0.34990) ==
 == 60-th k-point nmo = 68 (0.08747,0.08747,-0.43737) ==
 == 61-th k-point nmo = 68 (0.17495,0.17495,-0.52485) ==
 == 62-th k-point nmo = 68 (0.26242,0.26242,-0.61232) ==
 == 63-th k-point nmo = 68 (-0.17495,-0.34990,0.00000) ==
 == 64-th k-point nmo = 68 (-0.08747,-0.26242,-0.08747) ==
 == 65-th k-point nmo = 68 (-0.00000,-0.17495,-0.17495) ==
 == 66-th k-point nmo = 68 (0.08747,-0.08747,-0.26242) ==
 == 67-th k-point nmo = 68 (0.17495,-0.00000,-0.34990) ==
 == 68-th k-point nmo = 68 (0.26242,0.08747,-0.43737) ==
 == 69-th k-point nmo = 68 (0.34990,0.17495,-0.52485) ==
 == 70-th k-point nmo = 68 (-0.08747,-0.43737,0.08747) ==
 == 71-th k-point nmo = 68 (-0.00000,-0.34990,0.00000) ==
 == 72-th k-point nmo = 68 (0.08747,-0.26242,-0.08747) ==
 == 73-th k-point nmo = 68 (0.17495,-0.17495,-0.17495) ==
 == 74-th k-point nmo = 68 (0.26242,-0.08747,-0.26242) ==
 == 75-th k-point nmo = 68 (0.34990,0.00000,-0.34990) ==
 == 76-th k-point nmo = 68 (0.43737,0.08747,-0.43737) ==
 == 77-th k-point nmo = 68 (-0.00000,-0.52485,0.17495) ==
 == 78-th k-point nmo = 68 (0.08747,-0.43737,0.08747) ==
 == 79-th k-point nmo = 68 (0.17495,-0.34990,0.00000) ==
 == 80-th k-point nmo = 68 (0.26242,-0.26242,-0.08747) ==
 == 81-th k-point nmo = 68 (0.34990,-0.17495,-0.17495) ==
 == 82-th k-point nmo = 68 (0.43737,-0.08747,-0.26242) ==
 == 83-th k-point nmo = 68 (0.52485,0.00000,-0.34990) ==
 == 84-th k-point nmo = 68 (0.08747,-0.61232,0.26242) ==
 == 85-th k-point nmo = 68 (0.17495,-0.52485,0.17495) ==
 == 86-th k-point nmo = 68 (0.26242,-0.43737,0.08747) ==
 == 87-th k-point nmo = 68 (0.34990,-0.34990,0.00000) ==
 == 88-th k-point nmo = 68 (0.43737,-0.26242,-0.08747) ==
 == 89-th k-point nmo = 68 (0.52485,-0.17495,-0.17495) ==
 == 90-th k-point nmo = 68 (0.61232,-0.08747,-0.26242) ==
 == 91-th k-point nmo = 68 (0.17495,-0.69980,0.34990) ==
 == 92-th k-point nmo = 68 (0.26242,-0.61232,0.26242) ==
 == 93-th k-point nmo = 68 (0.34990,-0.52485,0.17495) ==
 == 94-th k-point nmo = 68 (0.43737,-0.43737,0.08747) ==
 == 95-th k-point nmo = 68 (0.52485,-0.34990,0.00000) ==
 == 96-th k-point nmo = 68 (0.61232,-0.26242,-0.08747) ==
 == 97-th k-point nmo = 68 (0.69980,-0.17495,-0.17495) ==
 == 98-th k-point nmo = 68 (-0.43737,-0.08747,-0.08747) ==
 == 99-th k-point nmo = 68 (-0.34990,-0.00000,-0.17495) ==
 == 100-th k-point nmo = 68 (-0.26242,0.08747,-0.26242) ==
 == 101-th k-point nmo = 68 (-0.17495,0.17495,-0.34990) ==
 == 102-th k-point nmo = 68 (-0.08747,0.26242,-0.43737) ==
 == 103-th k-point nmo = 68 (-0.00000,0.34990,-0.52485) ==
 == 104-th k-point nmo = 68 (0.08747,0.43737,-0.61232) ==
 == 105-th k-point nmo = 68 (-0.34990,-0.17495,0.00000) ==
 == 106-th k-point nmo = 68 (-0.26242,-0.08747,-0.08747) ==
 == 107-th k-point nmo = 68 (-0.17495,-0.00000,-0.17495) ==
 == 108-th k-point nmo = 68 (-0.08747,0.08747,-0.26242) ==
 == 109-th k-point nmo = 68 (-0.00000,0.17495,-0.34990) ==
 == 110-th k-point nmo = 68 (0.08747,0.26242,-0.43737) ==
 == 111-th k-point nmo = 68 (0.17495,0.34990,-0.52485) ==
 == 112-th k-point nmo = 68 (-0.26242,-0.26242,0.08747) ==
 == 113-th k-point nmo = 68 (-0.17495,-0.17495,0.00000) ==
 == 114-th k-point nmo = 68 (-0.08747,-0.08747,-0.08747) ==
 == 115-th k-point nmo = 68 (-0.00000,-0.00000,-0.17495) ==
 == 116-th k-point nmo = 68 (0.08747,0.08747,-0.26242) ==
 == 117-th k-point nmo = 68 (0.17495,0.17495,-0.34990) ==
 == 118-th k-point nmo = 68 (0.26242,0.26242,-0.43737) ==
 == 119-th k-point nmo = 68 (-0.17495,-0.34990,0.17495) ==
 == 120-th k-point nmo = 68 (-0.08747,-0.26242,0.08747) ==
 == 121-th k-point nmo = 68 (-0.00000,-0.17495,0.00000) ==
 == 122-th k-point nmo = 68 (0.08747,-0.08747,-0.08747) ==
 == 123-th k-point nmo = 68 (0.17495,0.00000,-0.17495) ==
 == 124-th k-point nmo = 68 (0.26242,0.08747,-0.26242) ==
 == 125-th k-point nmo = 68 (0.34990,0.17495,-0.34990) ==
 == 126-th k-point nmo = 68 (-0.08747,-0.43737,0.26242) ==
 == 127-th k-point nmo = 68 (-0.00000,-0.34990,0.17495) ==
 == 128-th k-point nmo = 68 (0.08747,-0.26242,0.08747) ==
 == 129-th k-point nmo = 68 (0.17495,-0.17495,0.00000) ==
 == 130-th k-point nmo = 68 (0.26242,-0.08747,-0.08747) ==
 == 131-th k-point nmo = 68 (0.34990,0.00000,-0.17495) ==
 == 132-th k-point nmo = 68 (0.43737,0.08747,-0.26242) ==
 == 133-th k-point nmo = 68 (-0.00000,-0.52485,0.34990) ==
 == 134-th k-point nmo = 68 (0.08747,-0.43737,0.26242) ==
 == 135-th k-point nmo = 68 (0.17495,-0.34990,0.17495) ==
 == 136-th k-point nmo = 68 (0.26242,-0.26242,0.08747) ==
 == 137-th k-point nmo = 68 (0.34990,-0.17495,0.00000) ==
 == 138-th k-point nmo = 68 (0.43737,-0.08747,-0.08747) ==
 == 139-th k-point nmo = 68 (0.52485,0.00000,-0.17495) ==
 == 140-th k-point nmo = 68 (0.08747,-0.61232,0.43737) ==
 == 141-th k-point nmo = 68 (0.17495,-0.52485,0.34990) ==
 == 142-th k-point nmo = 68 (0.26242,-0.43737,0.26242) ==
 == 143-th k-point nmo = 68 (0.34990,-0.34990,0.17495) ==
 == 144-th k-point nmo = 68 (0.43737,-0.26242,0.08747) ==
 == 145-th k-point nmo = 68 (0.52485,-0.17495,0.00000) ==
 == 146-th k-point nmo = 68 (0.61232,-0.08747,-0.08747) ==
 == 147-th k-point nmo = 68 (-0.52485,-0.00000,-0.00000) ==
 == 148-th k-point nmo = 68 (-0.43737,0.08747,-0.08747) ==
 == 149-th k-point nmo = 68 (-0.34990,0.17495,-0.17495) ==
 == 150-th k-point nmo = 68 (-0.26242,0.26242,-0.26242) ==
 == 151-th k-point nmo = 68 (-0.17495,0.34990,-0.34990) ==
 == 152-th k-point nmo = 68 (-0.08747,0.43737,-0.43737) ==
 == 153-th k-point nmo = 68 (0.00000,0.52485,-0.52485) ==
 == 154-th k-point nmo = 68 (-0.43737,-0.08747,0.08747) ==
 == 155-th k-point nmo = 68 (-0.34990,-0.00000,-0.00000) ==
 == 156-th k-point nmo = 68 (-0.26242,0.08747,-0.08747) ==
 == 157-th k-point nmo = 68 (-0.17495,0.17495,-0.17495) ==
 == 158-th k-point nmo = 68 (-0.08747,0.26242,-0.26242) ==
 == 159-th k-point nmo = 68 (0.00000,0.34990,-0.34990) ==
 == 160-th k-point nmo = 68 (0.08747,0.43737,-0.43737) ==
 == 161-th k-point nmo = 68 (-0.34990,-0.17495,0.17495) ==
 == 162-th k-point nmo = 68 (-0.26242,-0.08747,0.08747) ==
 == 163-th k-point nmo = 68 (-0.17495,-0.00000,-0.00000) ==
 == 164-th k-point nmo = 68 (-0.08747,0.08747,-0.08747) ==
 == 165-th k-point nmo = 68 (0.00000,0.17495,-0.17495) ==
 == 166-th k-point nmo = 68 (0.08747,0.26242,-0.26242) ==
 == 167-th k-point nmo = 68 (0.17495,0.34990,-0.34990) ==
 == 168-th k-point nmo = 68 (-0.26242,-0.26242,0.26242) ==
 == 169-th k-point nmo = 68 (-0.17495,-0.17495,0.17495) ==
 == 170-th k-point nmo = 68 (-0.08747,-0.08747,0.08747) ==
 == 171-th k-point nmo = 68 (0.00000,0.00000,0.00000) ==
 == 172-th k-point nmo = 68 (0.08747,0.08747,-0.08747) ==
 == 173-th k-point nmo = 68 (0.17495,0.17495,-0.17495) ==
 == 174-th k-point nmo = 68 (0.26242,0.26242,-0.26242) ==
 == 175-th k-point nmo = 68 (-0.17495,-0.34990,0.34990) ==
 == 176-th k-point nmo = 68 (-0.08747,-0.26242,0.26242) ==
 == 177-th k-point nmo = 68 (-0.00000,-0.17495,0.17495) ==
 == 178-th k-point nmo = 68 (0.08747,-0.08747,0.08747) ==
 == 179-th k-point nmo = 68 (0.17495,0.00000,0.00000) ==
 == 180-th k-point nmo = 68 (0.26242,0.08747,-0.08747) ==
 == 181-th k-point nmo = 68 (0.34990,0.17495,-0.17495) ==
 == 182-th k-point nmo = 68 (-0.08747,-0.43737,0.43737) ==
 == 183-th k-point nmo = 68 (-0.00000,-0.34990,0.34990) ==
 == 184-th k-point nmo = 68 (0.08747,-0.26242,0.26242) ==
 == 185-th k-point nmo = 68 (0.17495,-0.17495,0.17495) ==
 == 186-th k-point nmo = 68 (0.26242,-0.08747,0.08747) ==
 == 187-th k-point nmo = 68 (0.34990,0.00000,0.00000) ==
 == 188-th k-point nmo = 68 (0.43737,0.08747,-0.08747) ==
 == 189-th k-point nmo = 68 (-0.00000,-0.52485,0.52485) ==
 == 190-th k-point nmo = 68 (0.08747,-0.43737,0.43737) ==
 == 191-th k-point nmo = 68 (0.17495,-0.34990,0.34990) ==
 == 192-th k-point nmo = 68 (0.26242,-0.26242,0.26242) ==
 == 193-th k-point nmo = 68 (0.34990,-0.17495,0.17495) ==
 == 194-th k-point nmo = 68 (0.43737,-0.08747,0.08747) ==
 == 195-th k-point nmo = 68 (0.52485,0.00000,0.00000) ==
 == 196-th k-point nmo = 68 (-0.61232,0.08747,0.08747) ==
 == 197-th k-point nmo = 68 (-0.52485,0.17495,-0.00000) ==
 == 198-th k-point nmo = 68 (-0.43737,0.26242,-0.08747) ==
 == 199-th k-point nmo = 68 (-0.34990,0.34990,-0.17495) ==
 == 200-th k-point nmo = 68 (-0.26242,0.43737,-0.26242) ==
 == 201-th k-point nmo = 68 (-0.17495,0.52485,-0.34990) ==
 == 202-th k-point nmo = 68 (-0.08747,0.61232,-0.43737) ==
 == 203-th k-point nmo = 68 (-0.52485,-0.00000,0.17495) ==
 == 204-th k-point nmo = 68 (-0.43737,0.08747,0.08747) ==
 == 205-th k-point nmo = 68 (-0.34990,0.17495,-0.00000) ==
 == 206-th k-point nmo = 68 (-0.26242,0.26242,-0.08747) ==
 == 207-th k-point nmo = 68 (-0.17495,0.34990,-0.17495) ==
 == 208-th k-point nmo = 68 (-0.08747,0.43737,-0.26242) ==
 == 209-th k-point nmo = 68 (0.00000,0.52485,-0.34990) ==
 == 210-th k-point nmo = 68 (-0.43737,-0.08747,0.26242) ==
 == 211-th k-point nmo = 68 (-0.34990,-0.00000,0.17495) ==
 == 212-th k-point nmo = 68 (-0.26242,0.08747,0.08747) ==
 == 213-th k-point nmo = 68 (-0.17495,0.17495,-0.00000) ==
 == 214-th k-point nmo = 68 (-0.08747,0.26242,-0.08747) ==
 == 215-th k-point nmo = 68 (0.00000,0.34990,-0.17495) ==
 == 216-th k-point nmo = 68 (0.08747,0.43737,-0.26242) ==
 == 217-th k-point nmo = 68 (-0.34990,-0.17495,0.34990) ==
 == 218-th k-point nmo = 68 (-0.26242,-0.08747,0.26242) ==
 == 219-th k-point nmo = 68 (-0.17495,0.00000,0.17495) ==
 == 220-th k-point nmo = 68 (-0.08747,0.08747,0.08747) ==
 == 221-th k-point nmo = 68 (0.00000,0.17495,0.00000) ==
 == 222-th k-point nmo = 68 (0.08747,0.26242,-0.08747) ==
 == 223-th k-point nmo = 68 (0.17495,0.34990,-0.17495) ==
 == 224-th k-point nmo = 68 (-0.26242,-0.26242,0.43737) ==
 == 225-th k-point nmo = 68 (-0.17495,-0.17495,0.34990) ==
 == 226-th k-point nmo = 68 (-0.08747,-0.08747,0.26242) ==
 == 227-th k-point nmo = 68 (0.00000,0.00000,0.17495) ==
 == 228-th k-point nmo = 68 (0.08747,0.08747,0.08747) ==
 == 229-th k-point nmo = 68 (0.17495,0.17495,0.00000) ==
 == 230-th k-point nmo = 68 (0.26242,0.26242,-0.08747) ==
 == 231-th k-point nmo = 68 (-0.17495,-0.34990,0.52485) ==
 == 232-th k-point nmo = 68 (-0.08747,-0.26242,0.43737) ==
 == 233-th k-point nmo = 68 (0.00000,-0.17495,0.34990) ==
 == 234-th k-point nmo = 68 (0.08747,-0.08747,0.26242) ==
 == 235-th k-point nmo = 68 (0.17495,0.00000,0.17495) ==
 == 236-th k-point nmo = 68 (0.26242,0.08747,0.08747) ==
 == 237-th k-point nmo = 68 (0.34990,0.17495,0.00000) ==
 == 238-th k-point nmo = 68 (-0.08747,-0.43737,0.61232) ==
 == 239-th k-point nmo = 68 (0.00000,-0.34990,0.52485) ==
 == 240-th k-point nmo = 68 (0.08747,-0.26242,0.43737) ==
 == 241-th k-point nmo = 68 (0.17495,-0.17495,0.34990) ==
 == 242-th k-point nmo = 68 (0.26242,-0.08747,0.26242) ==
 == 243-th k-point nmo = 68 (0.34990,0.00000,0.17495) ==
 == 244-th k-point nmo = 68 (0.43737,0.08747,0.08747) ==
 == 245-th k-point nmo = 68 (-0.69980,0.17495,0.17495) ==
 == 246-th k-point nmo = 68 (-0.61232,0.26242,0.08747) ==
 == 247-th k-point nmo = 68 (-0.52485,0.34990,-0.00000) ==
 == 248-th k-point nmo = 68 (-0.43737,0.43737,-0.08747) ==
 == 249-th k-point nmo = 68 (-0.34990,0.52485,-0.17495) ==
 == 250-th k-point nmo = 68 (-0.26242,0.61232,-0.26242) ==
 == 251-th k-point nmo = 68 (-0.17495,0.69980,-0.34990) ==
 == 252-th k-point nmo = 68 (-0.61232,0.08747,0.26242) ==
 == 253-th k-point nmo = 68 (-0.52485,0.17495,0.17495) ==
 == 254-th k-point nmo = 68 (-0.43737,0.26242,0.08747) ==
 == 255-th k-point nmo = 68 (-0.34990,0.34990,-0.00000) ==
 == 256-th k-point nmo = 68 (-0.26242,0.43737,-0.08747) ==
 == 257-th k-point nmo = 68 (-0.17495,0.52485,-0.17495) ==
 == 258-th k-point nmo = 68 (-0.08747,0.61232,-0.26242) ==
 == 259-th k-point nmo = 68 (-0.52485,-0.00000,0.34990) ==
 == 260-th k-point nmo = 68 (-0.43737,0.08747,0.26242) ==
 == 261-th k-point nmo = 68 (-0.34990,0.17495,0.17495) ==
 == 262-th k-point nmo = 68 (-0.26242,0.26242,0.08747) ==
 == 263-th k-point nmo = 68 (-0.17495,0.34990,-0.00000) ==
 == 264-th k-point nmo = 68 (-0.08747,0.43737,-0.08747) ==
 == 265-th k-point nmo = 68 (0.00000,0.52485,-0.17495) ==
 == 266-th k-point nmo = 68 (-0.43737,-0.08747,0.43737) ==
 == 267-th k-point nmo = 68 (-0.34990,0.00000,0.34990) ==
 == 268-th k-point nmo = 68 (-0.26242,0.08747,0.26242) ==
 == 269-th k-point nmo = 68 (-0.17495,0.17495,0.17495) ==
 == 270-th k-point nmo = 68 (-0.08747,0.26242,0.08747) ==
 == 271-th k-point nmo = 68 (0.00000,0.34990,0.00000) ==
 == 272-th k-point nmo = 68 (0.08747,0.43737,-0.08747) ==
 == 273-th k-point nmo = 68 (-0.34990,-0.17495,0.52485) ==
 == 274-th k-point nmo = 68 (-0.26242,-0.08747,0.43737) ==
 == 275-th k-point nmo = 68 (-0.17495,0.00000,0.34990) ==
 == 276-th k-point nmo = 68 (-0.08747,0.08747,0.26242) ==
 == 277-th k-point nmo = 68 (0.00000,0.17495,0.17495) ==
 == 278-th k-point nmo = 68 (0.08747,0.26242,0.08747) ==
 == 279-th k-point nmo = 68 (0.17495,0.34990,0.00000) ==
 == 280-th k-point nmo = 68 (-0.26242,-0.26242,0.61232) ==
 == 281-th k-point nmo = 68 (-0.17495,-0.17495,0.52485) ==
 == 282-th k-point nmo = 68 (-0.08747,-0.08747,0.43737) ==
 == 283-th k-point nmo = 68 (0.00000,0.00000,0.34990) ==
 == 284-th k-point nmo = 68 (0.08747,0.08747,0.26242) ==
 == 285-th k-point nmo = 68 (0.17495,0.17495,0.17495) ==
 == 286-th k-point nmo = 68 (0.26242,0.26242,0.08747) ==
 == 287-th k-point nmo = 68 (-0.17495,-0.34990,0.69980) ==
 == 288-th k-point nmo = 68 (-0.08747,-0.26242,0.61232) ==
 == 289-th k-point nmo = 68 (0.00000,-0.17495,0.52485) ==
 == 290-th k-point nmo = 68 (0.08747,-0.08747,0.43737) ==
 == 291-th k-point nmo = 68 (0.17495,0.00000,0.34990) ==
 == 292-th k-point nmo = 68 (0.26242,0.08747,0.26242) ==
 == 293-th k-point nmo = 68 (0.34990,0.17495,0.17495) ==
 == 294-th k-point nmo = 68 (-0.78727,0.26242,0.26242) ==
 == 295-th k-point nmo = 68 (-0.69980,0.34990,0.17495) ==
 == 296-th k-point nmo = 68 (-0.61232,0.43737,0.08747) ==
 == 297-th k-point nmo = 68 (-0.52485,0.52485,-0.00000) ==
 == 298-th k-point nmo = 68 (-0.43737,0.61232,-0.08747) ==
 == 299-th k-point nmo = 68 (-0.34990,0.69980,-0.17495) ==
 == 300-th k-point nmo = 68 (-0.26242,0.78727,-0.26242) ==
 == 301-th k-point nmo = 68 (-0.69980,0.17495,0.34990) ==
 == 302-th k-point nmo = 68 (-0.61232,0.26242,0.26242) ==
 == 303-th k-point nmo = 68 (-0.52485,0.34990,0.17495) ==
 == 304-th k-point nmo = 68 (-0.43737,0.43737,0.08747) ==
 == 305-th k-point nmo = 68 (-0.34990,0.52485,-0.00000) ==
 == 306-th k-point nmo = 68 (-0.26242,0.61232,-0.08747) ==
 == 307-th k-point nmo = 68 (-0.17495,0.69980,-0.17495) ==
 == 308-th k-point nmo = 68 (-0.61232,0.08747,0.43737) ==
 == 309-th k-point nmo = 68 (-0.52485,0.17495,0.34990) ==
 == 310-th k-point nmo = 68 (-0.43737,0.26242,0.26242) ==
 == 311-th k-point nmo = 68 (-0.34990,0.34990,0.17495) ==
 == 312-th k-point nmo = 68 (-0.26242,0.43737,0.08747) ==
 == 313-th k-point nmo = 68 (-0.17495,0.52485,0.00000) ==
 == 314-th k-point nmo = 68 (-0.08747,0.61232,-0.08747) ==
 == 315-th k-point nmo = 68 (-0.52485,0.00000,0.52485) ==
 == 316-th k-point nmo = 68 (-0.43737,0.08747,0.43737) ==
 == 317-th k-point nmo = 68 (-0.34990,0.17495,0.34990) ==
 == 318-th k-point nmo = 68 (-0.26242,0.26242,0.26242) ==
 == 319-th k-point nmo = 68 (-0.17495,0.34990,0.17495) ==
 == 320-th k-point nmo = 68 (-0.08747,0.43737,0.08747) ==
 == 321-th k-point nmo = 68 (0.00000,0.52485,0.00000) ==
 == 322-th k-point nmo = 68 (-0.43737,-0.08747,0.61232) ==
 == 323-th k-point nmo = 68 (-0.34990,0.00000,0.52485) ==
 == 324-th k-point nmo = 68 (-0.26242,0.08747,0.43737) ==
 == 325-th k-point nmo = 68 (-0.17495,0.17495,0.34990) ==
 == 326-th k-point nmo = 68 (-0.08747,0.26242,0.26242) ==
 == 327-th k-point nmo = 68 (0.00000,0.34990,0.17495) ==
 == 328-th k-point nmo = 68 (0.08747,0.43737,0.08747) ==
 == 329-th k-point nmo = 68 (-0.34990,-0.17495,0.69980) ==
 == 330-th k-point nmo = 68 (-0.26242,-0.08747,0.61232) ==
 == 331-th k-point nmo = 68 (-0.17495,0.00000,0.52485) ==
 == 332-th k-point nmo = 68 (-0.08747,0.08747,0.43737) ==
 == 333-th k-point nmo = 68 (0.00000,0.17495,0.34990) ==
 == 334-th k-point nmo = 68 (0.08747,0.26242,0.26242) ==
 == 335-th k-point nmo = 68 (0.17495,0.34990,0.17495) ==
 == 336-th k-point nmo = 68 (-0.26242,-0.26242,0.78727) ==
 == 337-th k-point nmo = 68 (-0.17495,-0.17495,0.69980) ==
 == 338-th k-point nmo = 68 (-0.08747,-0.08747,0.61232) ==
 == 339-th k-point nmo = 68 (0.00000,0.00000,0.52485) ==
 == 340-th k-point nmo = 68 (0.08747,0.08747,0.43737) ==
 == 341-th k-point nmo = 68 (0.17495,0.17495,0.34990) ==
 == 342-th k-point nmo = 68 (0.26242,0.26242,0.26242) ==

 Generate autoSAD guess
backing up fragment data
Atom # 0: si, charge: 0, multiplicity: 3.000000
writing autosad to fragment context
Settings for isolated fragments: 
  frgm_gamma: TRUE
  frgm_center: FALSE

    Running SCF for isolated atom #0
    Fragment Input file: /n/netscratch/joonholee_lab/Lab/hieudinh//si_2_ccpvtz_omega_0.3_777.scratch20250909092323/autosad_frgmt_0/frgmt_input.in
    Fragment Output file: /n/netscratch/joonholee_lab/Lab/hieudinh//si_2_ccpvtz_omega_0.3_777.scratch20250909092323/autosad_frgmt_0/frgmt_job.out
    Fragment job begins at Tue Sep  9 09:23:28 2025

 Integrated density by DFT XC:
   Numerical integral  =    13.999999324657
   Relative error      =     0.0000048239 %
Final energy components:
 DFT Correlation            Energy =  -0.48419291960634
 DFT Exchange               Energy = -20.15457765326667
 Kinetic (alpha)            Energy = 145.16532593944493
 Kinetic (beta)             Energy = 143.17442658177339
 Nuclear Attraction (alpha) Energy = -351.25548439806897
 Nuclear Attraction (beta)  Energy = -337.63206466478198
 Nuclear Repulsion          Energy =   0.00000000000000
 SEOQF                      Energy =   0.00000000065999
 Total Coulomb              Energy = 131.95997984351371
----------------------------------------------
    SCF Energy: -289.2265872703
   Total fragment job time:  0.47 s.
restoring fragment data

 ------------------------------------------------------------------------
 Allocate 83554800 B from available memory: 1048550360288 B
 Time for generating SCF guess: 0.50 s

 Allocate 78392 B from available memory: 1048466805504 B
 Selected algorithms for each term:
  kpts_kinetic -> @0x14ea71f3c680
  kpts_nn -> @0x14ea71f3c800
  kpts_rij_bigmem -> @0x14ea71f3c3e0
  kpts_vnuc_df -> @0x14ea71f3c380
  kpts_xc -> @0x14ea71f3c2c0
 Time for computing kinetic matrix is 2.07 s
Start calculating Vnuc CC type!
 Time for computing nuclear attraction matrix is 2.68 s
Compute (P|Q) and use solve on the fly!
Maximum distance between P and Q is 36.45654200218807
Number of images for (P|Qn) is 1633
 Time for computing 2e2c SR integral is 0.17 s
Maximum dynamic memory per thread for 2e3c SR integrals: 0.073 GiB
Batch size for basis function pair is 2451 out of 2451
 === bvk cell = 0 has 100.000 % of the basis function pairs === 
 === bvk cell = 1 has 94.492 % of the basis function pairs === 
 === bvk cell = 2 has 51.000 % of the basis function pairs === 
 === bvk cell = 3 has 11.098 % of the basis function pairs === 
 === bvk cell = 4 has 7.548 % of the basis function pairs === 
 === bvk cell = 5 has 43.778 % of the basis function pairs === 
 === bvk cell = 6 has 92.738 % of the basis function pairs === 
 === bvk cell = 7 has 94.492 % of the basis function pairs === 
 === bvk cell = 8 has 66.463 % of the basis function pairs === 
 === bvk cell = 9 has 23.705 % of the basis function pairs === 
 === bvk cell = 10 has 1.877 % of the basis function pairs === 
 === bvk cell = 11 has 16.850 % of the basis function pairs === 
 === bvk cell = 12 has 59.812 % of the basis function pairs === 
 === bvk cell = 13 has 95.675 % of the basis function pairs === 
 === bvk cell = 14 has 51.000 % of the basis function pairs === 
 === bvk cell = 15 has 23.705 % of the basis function pairs === 
 === bvk cell = 16 has 3.468 % of the basis function pairs === 
 === bvk cell = 17 has 1.183 % of the basis function pairs === 
 === bvk cell = 18 has 17.013 % of the basis function pairs === 
 === bvk cell = 19 has 41.820 % of the basis function pairs === 
 === bvk cell = 20 has 64.586 % of the basis function pairs === 
 === bvk cell = 21 has 11.098 % of the basis function pairs === 
 === bvk cell = 22 has 1.877 % of the basis function pairs === 
 === bvk cell = 23 has 1.183 % of the basis function pairs === 
 === bvk cell = 24 has 0.449 % of the basis function pairs === 
 === bvk cell = 25 has 5.630 % of the basis function pairs === 
 === bvk cell = 26 has 19.747 % of the basis function pairs === 
 === bvk cell = 27 has 20.359 % of the basis function pairs === 
 === bvk cell = 28 has 7.548 % of the basis function pairs === 
 === bvk cell = 29 has 16.850 % of the basis function pairs === 
 === bvk cell = 30 has 17.013 % of the basis function pairs === 
 === bvk cell = 31 has 5.630 % of the basis function pairs === 
 === bvk cell = 32 has 0.857 % of the basis function pairs === 
 === bvk cell = 33 has 1.591 % of the basis function pairs === 
 === bvk cell = 34 has 1.795 % of the basis function pairs === 
 === bvk cell = 35 has 43.778 % of the basis function pairs === 
 === bvk cell = 36 has 59.812 % of the basis function pairs === 
 === bvk cell = 37 has 41.820 % of the basis function pairs === 
 === bvk cell = 38 has 19.747 % of the basis function pairs === 
 === bvk cell = 39 has 1.591 % of the basis function pairs === 
 === bvk cell = 40 has 2.244 % of the basis function pairs === 
 === bvk cell = 41 has 17.707 % of the basis function pairs === 
 === bvk cell = 42 has 92.738 % of the basis function pairs === 
 === bvk cell = 43 has 95.675 % of the basis function pairs === 
 === bvk cell = 44 has 64.586 % of the basis function pairs === 
 === bvk cell = 45 has 20.359 % of the basis function pairs === 
 === bvk cell = 46 has 1.795 % of the basis function pairs === 
 === bvk cell = 47 has 17.707 % of the basis function pairs === 
 === bvk cell = 48 has 58.752 % of the basis function pairs === 
 === bvk cell = 49 has 94.492 % of the basis function pairs === 
 === bvk cell = 50 has 66.463 % of the basis function pairs === 
 === bvk cell = 51 has 23.705 % of the basis function pairs === 
 === bvk cell = 52 has 1.877 % of the basis function pairs === 
 === bvk cell = 53 has 16.850 % of the basis function pairs === 
 === bvk cell = 54 has 59.812 % of the basis function pairs === 
 === bvk cell = 55 has 95.675 % of the basis function pairs === 
 === bvk cell = 56 has 66.463 % of the basis function pairs === 
 === bvk cell = 57 has 30.477 % of the basis function pairs === 
 === bvk cell = 58 has 7.548 % of the basis function pairs === 
 === bvk cell = 59 has 1.999 % of the basis function pairs === 
 === bvk cell = 60 has 23.949 % of the basis function pairs === 
 === bvk cell = 61 has 60.588 % of the basis function pairs === 
 === bvk cell = 62 has 83.476 % of the basis function pairs === 
 === bvk cell = 63 has 23.705 % of the basis function pairs === 
 === bvk cell = 64 has 7.548 % of the basis function pairs === 
 === bvk cell = 65 has 0.530 % of the basis function pairs === 
 === bvk cell = 66 has 1.714 % of the basis function pairs === 
 === bvk cell = 67 has 20.971 % of the basis function pairs === 
 === bvk cell = 68 has 31.089 % of the basis function pairs === 
 === bvk cell = 69 has 34.884 % of the basis function pairs === 
 === bvk cell = 70 has 1.877 % of the basis function pairs === 
 === bvk cell = 71 has 1.999 % of the basis function pairs === 
 === bvk cell = 72 has 1.714 % of the basis function pairs === 
 === bvk cell = 73 has 0.326 % of the basis function pairs === 
 === bvk cell = 74 has 2.611 % of the basis function pairs === 
 === bvk cell = 75 has 9.874 % of the basis function pairs === 
 === bvk cell = 76 has 7.548 % of the basis function pairs === 
 === bvk cell = 77 has 16.850 % of the basis function pairs === 
 === bvk cell = 78 has 23.949 % of the basis function pairs === 
 === bvk cell = 79 has 20.971 % of the basis function pairs === 
 === bvk cell = 80 has 2.611 % of the basis function pairs === 
 === bvk cell = 81 has 0.000 % of the basis function pairs === 
 === bvk cell = 82 has 0.653 % of the basis function pairs === 
 === bvk cell = 83 has 4.692 % of the basis function pairs === 
 === bvk cell = 84 has 59.812 % of the basis function pairs === 
 === bvk cell = 85 has 60.588 % of the basis function pairs === 
 === bvk cell = 86 has 31.089 % of the basis function pairs === 
 === bvk cell = 87 has 9.874 % of the basis function pairs === 
 === bvk cell = 88 has 0.653 % of the basis function pairs === 
 === bvk cell = 89 has 7.548 % of the basis function pairs === 
 === bvk cell = 90 has 31.253 % of the basis function pairs === 
 === bvk cell = 91 has 95.675 % of the basis function pairs === 
 === bvk cell = 92 has 83.476 % of the basis function pairs === 
 === bvk cell = 93 has 34.884 % of the basis function pairs === 
 === bvk cell = 94 has 7.548 % of the basis function pairs === 
 === bvk cell = 95 has 4.692 % of the basis function pairs === 
 === bvk cell = 96 has 31.253 % of the basis function pairs === 
 === bvk cell = 97 has 78.254 % of the basis function pairs === 
 === bvk cell = 98 has 51.000 % of the basis function pairs === 
 === bvk cell = 99 has 23.705 % of the basis function pairs === 
 === bvk cell = 100 has 3.468 % of the basis function pairs === 
 === bvk cell = 101 has 1.183 % of the basis function pairs === 
 === bvk cell = 102 has 17.013 % of the basis function pairs === 
 === bvk cell = 103 has 41.820 % of the basis function pairs === 
 === bvk cell = 104 has 64.586 % of the basis function pairs === 
 === bvk cell = 105 has 23.705 % of the basis function pairs === 
 === bvk cell = 106 has 7.548 % of the basis function pairs === 
 === bvk cell = 107 has 0.530 % of the basis function pairs === 
 === bvk cell = 108 has 1.714 % of the basis function pairs === 
 === bvk cell = 109 has 20.971 % of the basis function pairs === 
 === bvk cell = 110 has 31.089 % of the basis function pairs === 
 === bvk cell = 111 has 34.884 % of the basis function pairs === 
 === bvk cell = 112 has 3.468 % of the basis function pairs === 
 === bvk cell = 113 has 0.530 % of the basis function pairs === 
 === bvk cell = 114 has 0.000 % of the basis function pairs === 
 === bvk cell = 115 has 1.714 % of the basis function pairs === 
 === bvk cell = 116 has 5.794 % of the basis function pairs === 
 === bvk cell = 117 has 16.075 % of the basis function pairs === 
 === bvk cell = 118 has 11.098 % of the basis function pairs === 
 === bvk cell = 119 has 1.183 % of the basis function pairs === 
 === bvk cell = 120 has 1.714 % of the basis function pairs === 
 === bvk cell = 121 has 1.714 % of the basis function pairs === 
 === bvk cell = 122 has 0.000 % of the basis function pairs === 
 === bvk cell = 123 has 0.857 % of the basis function pairs === 
 === bvk cell = 124 has 0.857 % of the basis function pairs === 
 === bvk cell = 125 has 0.653 % of the basis function pairs === 
 === bvk cell = 126 has 17.013 % of the basis function pairs === 
 === bvk cell = 127 has 20.971 % of the basis function pairs === 
 === bvk cell = 128 has 5.794 % of the basis function pairs === 
 === bvk cell = 129 has 0.857 % of the basis function pairs === 
 === bvk cell = 130 has 0.000 % of the basis function pairs === 
 === bvk cell = 131 has 0.449 % of the basis function pairs === 
 === bvk cell = 132 has 7.426 % of the basis function pairs === 
 === bvk cell = 133 has 41.820 % of the basis function pairs === 
 === bvk cell = 134 has 31.089 % of the basis function pairs === 
 === bvk cell = 135 has 16.075 % of the basis function pairs === 
 === bvk cell = 136 has 0.857 % of the basis function pairs === 
 === bvk cell = 137 has 0.449 % of the basis function pairs === 
 === bvk cell = 138 has 12.525 % of the basis function pairs === 
 === bvk cell = 139 has 28.641 % of the basis function pairs === 
 === bvk cell = 140 has 64.586 % of the basis function pairs === 
 === bvk cell = 141 has 34.884 % of the basis function pairs === 
 === bvk cell = 142 has 11.098 % of the basis function pairs === 
 === bvk cell = 143 has 0.653 % of the basis function pairs === 
 === bvk cell = 144 has 7.426 % of the basis function pairs === 
 === bvk cell = 145 has 28.641 % of the basis function pairs === 
 === bvk cell = 146 has 60.588 % of the basis function pairs === 
 === bvk cell = 147 has 11.098 % of the basis function pairs === 
 === bvk cell = 148 has 1.877 % of the basis function pairs === 
 === bvk cell = 149 has 1.183 % of the basis function pairs === 
 === bvk cell = 150 has 0.449 % of the basis function pairs === 
 === bvk cell = 151 has 5.630 % of the basis function pairs === 
 === bvk cell = 152 has 19.747 % of the basis function pairs === 
 === bvk cell = 153 has 20.359 % of the basis function pairs === 
 === bvk cell = 154 has 1.877 % of the basis function pairs === 
 === bvk cell = 155 has 1.999 % of the basis function pairs === 
 === bvk cell = 156 has 1.714 % of the basis function pairs === 
 === bvk cell = 157 has 0.326 % of the basis function pairs === 
 === bvk cell = 158 has 2.611 % of the basis function pairs === 
 === bvk cell = 159 has 9.874 % of the basis function pairs === 
 === bvk cell = 160 has 7.548 % of the basis function pairs === 
 === bvk cell = 161 has 1.183 % of the basis function pairs === 
 === bvk cell = 162 has 1.714 % of the basis function pairs === 
 === bvk cell = 163 has 1.714 % of the basis function pairs === 
 === bvk cell = 164 has 0.000 % of the basis function pairs === 
 === bvk cell = 165 has 0.857 % of the basis function pairs === 
 === bvk cell = 166 has 0.857 % of the basis function pairs === 
 === bvk cell = 167 has 0.653 % of the basis function pairs === 
 === bvk cell = 168 has 0.449 % of the basis function pairs === 
 === bvk cell = 169 has 0.326 % of the basis function pairs === 
 === bvk cell = 170 has 0.000 % of the basis function pairs === 
 === bvk cell = 171 has 0.000 % of the basis function pairs === 
 === bvk cell = 172 has 0.000 % of the basis function pairs === 
 === bvk cell = 173 has 0.000 % of the basis function pairs === 
 === bvk cell = 174 has 0.000 % of the basis function pairs === 
 === bvk cell = 175 has 5.630 % of the basis function pairs === 
 === bvk cell = 176 has 2.611 % of the basis function pairs === 
 === bvk cell = 177 has 0.857 % of the basis function pairs === 
 === bvk cell = 178 has 0.000 % of the basis function pairs === 
 === bvk cell = 179 has 0.000 % of the basis function pairs === 
 === bvk cell = 180 has 0.449 % of the basis function pairs === 
 === bvk cell = 181 has 2.530 % of the basis function pairs === 
 === bvk cell = 182 has 19.747 % of the basis function pairs === 
 === bvk cell = 183 has 9.874 % of the basis function pairs === 
 === bvk cell = 184 has 0.857 % of the basis function pairs === 
 === bvk cell = 185 has 0.000 % of the basis function pairs === 
 === bvk cell = 186 has 0.449 % of the basis function pairs === 
 === bvk cell = 187 has 4.978 % of the basis function pairs === 
 === bvk cell = 188 has 20.971 % of the basis function pairs === 
 === bvk cell = 189 has 20.359 % of the basis function pairs === 
 === bvk cell = 190 has 7.548 % of the basis function pairs === 
 === bvk cell = 191 has 0.653 % of the basis function pairs === 
 === bvk cell = 192 has 0.000 % of the basis function pairs === 
 === bvk cell = 193 has 2.530 % of the basis function pairs === 
 === bvk cell = 194 has 20.971 % of the basis function pairs === 
 === bvk cell = 195 has 25.092 % of the basis function pairs === 
 === bvk cell = 196 has 7.548 % of the basis function pairs === 
 === bvk cell = 197 has 16.850 % of the basis function pairs === 
 === bvk cell = 198 has 17.013 % of the basis function pairs === 
 === bvk cell = 199 has 5.630 % of the basis function pairs === 
 === bvk cell = 200 has 0.857 % of the basis function pairs === 
 === bvk cell = 201 has 1.591 % of the basis function pairs === 
 === bvk cell = 202 has 1.795 % of the basis function pairs === 
 === bvk cell = 203 has 16.850 % of the basis function pairs === 
 === bvk cell = 204 has 23.949 % of the basis function pairs === 
 === bvk cell = 205 has 20.971 % of the basis function pairs === 
 === bvk cell = 206 has 2.611 % of the basis function pairs === 
 === bvk cell = 207 has 0.000 % of the basis function pairs === 
 === bvk cell = 208 has 0.653 % of the basis function pairs === 
 === bvk cell = 209 has 4.692 % of the basis function pairs === 
 === bvk cell = 210 has 17.013 % of the basis function pairs === 
 === bvk cell = 211 has 20.971 % of the basis function pairs === 
 === bvk cell = 212 has 5.794 % of the basis function pairs === 
 === bvk cell = 213 has 0.857 % of the basis function pairs === 
 === bvk cell = 214 has 0.000 % of the basis function pairs === 
 === bvk cell = 215 has 0.449 % of the basis function pairs === 
 === bvk cell = 216 has 7.426 % of the basis function pairs === 
 === bvk cell = 217 has 5.630 % of the basis function pairs === 
 === bvk cell = 218 has 2.611 % of the basis function pairs === 
 === bvk cell = 219 has 0.857 % of the basis function pairs === 
 === bvk cell = 220 has 0.000 % of the basis function pairs === 
 === bvk cell = 221 has 0.000 % of the basis function pairs === 
 === bvk cell = 222 has 0.449 % of the basis function pairs === 
 === bvk cell = 223 has 2.530 % of the basis function pairs === 
 === bvk cell = 224 has 0.857 % of the basis function pairs === 
 === bvk cell = 225 has 0.000 % of the basis function pairs === 
 === bvk cell = 226 has 0.000 % of the basis function pairs === 
 === bvk cell = 227 has 0.000 % of the basis function pairs === 
 === bvk cell = 228 has 0.000 % of the basis function pairs === 
 === bvk cell = 229 has 0.000 % of the basis function pairs === 
 === bvk cell = 230 has 0.326 % of the basis function pairs === 
 === bvk cell = 231 has 1.591 % of the basis function pairs === 
 === bvk cell = 232 has 0.653 % of the basis function pairs === 
 === bvk cell = 233 has 0.449 % of the basis function pairs === 
 === bvk cell = 234 has 0.449 % of the basis function pairs === 
 === bvk cell = 235 has 0.000 % of the basis function pairs === 
 === bvk cell = 236 has 1.714 % of the basis function pairs === 
 === bvk cell = 237 has 1.714 % of the basis function pairs === 
 === bvk cell = 238 has 1.795 % of the basis function pairs === 
 === bvk cell = 239 has 4.692 % of the basis function pairs === 
 === bvk cell = 240 has 7.426 % of the basis function pairs === 
 === bvk cell = 241 has 2.530 % of the basis function pairs === 
 === bvk cell = 242 has 0.326 % of the basis function pairs === 
 === bvk cell = 243 has 1.714 % of the basis function pairs === 
 === bvk cell = 244 has 2.489 % of the basis function pairs === 
 === bvk cell = 245 has 43.778 % of the basis function pairs === 
 === bvk cell = 246 has 59.812 % of the basis function pairs === 
 === bvk cell = 247 has 41.820 % of the basis function pairs === 
 === bvk cell = 248 has 19.747 % of the basis function pairs === 
 === bvk cell = 249 has 1.591 % of the basis function pairs === 
 === bvk cell = 250 has 2.244 % of the basis function pairs === 
 === bvk cell = 251 has 17.707 % of the basis function pairs === 
 === bvk cell = 252 has 59.812 % of the basis function pairs === 
 === bvk cell = 253 has 60.588 % of the basis function pairs === 
 === bvk cell = 254 has 31.089 % of the basis function pairs === 
 === bvk cell = 255 has 9.874 % of the basis function pairs === 
 === bvk cell = 256 has 0.653 % of the basis function pairs === 
 === bvk cell = 257 has 7.548 % of the basis function pairs === 
 === bvk cell = 258 has 31.253 % of the basis function pairs === 
 === bvk cell = 259 has 41.820 % of the basis function pairs === 
 === bvk cell = 260 has 31.089 % of the basis function pairs === 
 === bvk cell = 261 has 16.075 % of the basis function pairs === 
 === bvk cell = 262 has 0.857 % of the basis function pairs === 
 === bvk cell = 263 has 0.449 % of the basis function pairs === 
 === bvk cell = 264 has 12.525 % of the basis function pairs === 
 === bvk cell = 265 has 28.641 % of the basis function pairs === 
 === bvk cell = 266 has 19.747 % of the basis function pairs === 
 === bvk cell = 267 has 9.874 % of the basis function pairs === 
 === bvk cell = 268 has 0.857 % of the basis function pairs === 
 === bvk cell = 269 has 0.000 % of the basis function pairs === 
 === bvk cell = 270 has 0.449 % of the basis function pairs === 
 === bvk cell = 271 has 4.978 % of the basis function pairs === 
 === bvk cell = 272 has 20.971 % of the basis function pairs === 
 === bvk cell = 273 has 1.591 % of the basis function pairs === 
 === bvk cell = 274 has 0.653 % of the basis function pairs === 
 === bvk cell = 275 has 0.449 % of the basis function pairs === 
 === bvk cell = 276 has 0.449 % of the basis function pairs === 
 === bvk cell = 277 has 0.000 % of the basis function pairs === 
 === bvk cell = 278 has 1.714 % of the basis function pairs === 
 === bvk cell = 279 has 1.714 % of the basis function pairs === 
 === bvk cell = 280 has 2.244 % of the basis function pairs === 
 === bvk cell = 281 has 7.548 % of the basis function pairs === 
 === bvk cell = 282 has 12.525 % of the basis function pairs === 
 === bvk cell = 283 has 4.978 % of the basis function pairs === 
 === bvk cell = 284 has 1.714 % of the basis function pairs === 
 === bvk cell = 285 has 0.000 % of the basis function pairs === 
 === bvk cell = 286 has 0.122 % of the basis function pairs === 
 === bvk cell = 287 has 17.707 % of the basis function pairs === 
 === bvk cell = 288 has 31.253 % of the basis function pairs === 
 === bvk cell = 289 has 28.641 % of the basis function pairs === 
 === bvk cell = 290 has 20.971 % of the basis function pairs === 
 === bvk cell = 291 has 1.714 % of the basis function pairs === 
 === bvk cell = 292 has 0.122 % of the basis function pairs === 
 === bvk cell = 293 has 4.692 % of the basis function pairs === 
 === bvk cell = 294 has 92.738 % of the basis function pairs === 
 === bvk cell = 295 has 95.675 % of the basis function pairs === 
 === bvk cell = 296 has 64.586 % of the basis function pairs === 
 === bvk cell = 297 has 20.359 % of the basis function pairs === 
 === bvk cell = 298 has 1.795 % of the basis function pairs === 
 === bvk cell = 299 has 17.707 % of the basis function pairs === 
 === bvk cell = 300 has 58.752 % of the basis function pairs === 
 === bvk cell = 301 has 95.675 % of the basis function pairs === 
 === bvk cell = 302 has 83.476 % of the basis function pairs === 
 === bvk cell = 303 has 34.884 % of the basis function pairs === 
 === bvk cell = 304 has 7.548 % of the basis function pairs === 
 === bvk cell = 305 has 4.692 % of the basis function pairs === 
 === bvk cell = 306 has 31.253 % of the basis function pairs === 
 === bvk cell = 307 has 78.254 % of the basis function pairs === 
 === bvk cell = 308 has 64.586 % of the basis function pairs === 
 === bvk cell = 309 has 34.884 % of the basis function pairs === 
 === bvk cell = 310 has 11.098 % of the basis function pairs === 
 === bvk cell = 311 has 0.653 % of the basis function pairs === 
 === bvk cell = 312 has 7.426 % of the basis function pairs === 
 === bvk cell = 313 has 28.641 % of the basis function pairs === 
 === bvk cell = 314 has 60.588 % of the basis function pairs === 
 === bvk cell = 315 has 20.359 % of the basis function pairs === 
 === bvk cell = 316 has 7.548 % of the basis function pairs === 
 === bvk cell = 317 has 0.653 % of the basis function pairs === 
 === bvk cell = 318 has 0.000 % of the basis function pairs === 
 === bvk cell = 319 has 2.530 % of the basis function pairs === 
 === bvk cell = 320 has 20.971 % of the basis function pairs === 
 === bvk cell = 321 has 25.092 % of the basis function pairs === 
 === bvk cell = 322 has 1.795 % of the basis function pairs === 
 === bvk cell = 323 has 4.692 % of the basis function pairs === 
 === bvk cell = 324 has 7.426 % of the basis function pairs === 
 === bvk cell = 325 has 2.530 % of the basis function pairs === 
 === bvk cell = 326 has 0.326 % of the basis function pairs === 
 === bvk cell = 327 has 1.714 % of the basis function pairs === 
 === bvk cell = 328 has 2.489 % of the basis function pairs === 
 === bvk cell = 329 has 17.707 % of the basis function pairs === 
 === bvk cell = 330 has 31.253 % of the basis function pairs === 
 === bvk cell = 331 has 28.641 % of the basis function pairs === 
 === bvk cell = 332 has 20.971 % of the basis function pairs === 
 === bvk cell = 333 has 1.714 % of the basis function pairs === 
 === bvk cell = 334 has 0.122 % of the basis function pairs === 
 === bvk cell = 335 has 4.692 % of the basis function pairs === 
 === bvk cell = 336 has 58.752 % of the basis function pairs === 
 === bvk cell = 337 has 78.254 % of the basis function pairs === 
 === bvk cell = 338 has 60.588 % of the basis function pairs === 
 === bvk cell = 339 has 25.092 % of the basis function pairs === 
 === bvk cell = 340 has 2.489 % of the basis function pairs === 
 === bvk cell = 341 has 4.692 % of the basis function pairs === 
 === bvk cell = 342 has 24.480 % of the basis function pairs === 
Static memory requirement for 2e3c SR integrals: 0.278 GB
There are 1 munu batches for computing 2e3c SR integrals with latsum
There are 4 Q batches for computing 2e3c SR integrals with latsum
 Time for computing 2e3c SR integral (CC) is 4.33 s
 Time for RI-J this SCF iteration is 4.74 s
 Time for RI-J this SCF iteration is 0.30 s
 ----------------------------------------------
 Guess energy: -578.7872291346
 ----------------------------------------------
 Guess energy components:
 DFT Correlation    Energy =  -1.09503627883814
 DFT Exchange       Energy = -40.55002115201898
 Kinetic            Energy = 577.24330337583660
 Nuclear Attraction Energy = -1185.71153543396713
 Nuclear Repulsion  Energy = -102.89365928466421
 Total Coulomb      Energy = 174.21971963901194
 ----------------------------------------------
  Cycle       Energy         DIIS error
 ----------------------------------------------
 Time for RI-J this SCF iteration is 0.40 s
    1    -578.7883640646      7.56e-04  
 Energy components after cycle 1:
 DFT Correlation    Energy =  -1.09730077487607
 DFT Exchange       Energy = -40.51075282546120
 Kinetic            Energy = 576.90711262141508
 Nuclear Attraction Energy = -1184.94382500503048
 Nuclear Repulsion  Energy = -102.89365928466421
 Total Coulomb      Energy = 173.75006120402247
    2    -578.7883640646      3.44e-04  
 Energy components after cycle 2:
 DFT Correlation    Energy =  -1.09730077487607
 DFT Exchange       Energy = -40.51075282546120
 Kinetic            Energy = 576.90711262141508
 Nuclear Attraction Energy = -1184.94382500503048
 Nuclear Repulsion  Energy = -102.89365928466421
 Total Coulomb      Energy = 173.75006120402247
 ----------------------------------------------
  Cycle       Energy        RMS Gradient
 ----------------------------------------------
 Time for RI-J this SCF iteration is 0.23 s
    1    -578.7884851148      6.47e-03   Normal BFGS step
 Energy components after cycle 1:
 DFT Correlation    Energy =  -1.09664374049054
 DFT Exchange       Energy = -40.53237185512066
 Kinetic            Energy = 577.14581429102225
 Nuclear Attraction Energy = -1185.39100690559644
 Nuclear Repulsion  Energy = -102.89365928466421
 Total Coulomb      Energy = 173.97938238003852
 Time for RI-J this SCF iteration is 0.24 s
    2    -578.7885116710      2.39e-03   Normal BFGS step
 Energy components after cycle 2:
 DFT Correlation    Energy =  -1.09677945689403
 DFT Exchange       Energy = -40.52430580678531
 Kinetic            Energy = 577.04659754704358
 Nuclear Attraction Energy = -1185.22020101568569
 Nuclear Repulsion  Energy = -102.89365928466421
 Total Coulomb      Energy = 173.89983634602419
 Time for RI-J this SCF iteration is 0.23 s
    3    -578.7885118005      1.20e-04   Normal BFGS step
 Energy components after cycle 3:
 DFT Correlation    Energy =  -1.09680060642839
 DFT Exchange       Energy = -40.52485076314048
 Kinetic            Energy = 577.05615669131782
 Nuclear Attraction Energy = -1185.23285892383205
 Nuclear Repulsion  Energy = -102.89365928466421
 Total Coulomb      Energy = 173.90350108621499
 Time for RI-J this SCF iteration is 0.22 s
    4    -578.7885118155      4.11e-05   Normal BFGS step
 Energy components after cycle 4:
 DFT Correlation    Energy =  -1.09679468194948
 DFT Exchange       Energy = -40.52475214792140
 Kinetic            Energy = 577.05423144388931
 Nuclear Attraction Energy = -1185.23049561394510
 Nuclear Repulsion  Energy = -102.89365928466421
 Total Coulomb      Energy = 173.90295846907875
 Time for RI-J this SCF iteration is 0.21 s
    5    -578.7885118155      1.72e-07   Normal BFGS step
 Energy components after cycle 5:
 DFT Correlation    Energy =  -1.09679469345846
 DFT Exchange       Energy = -40.52475171053440
 Kinetic            Energy = 577.05422650360254
 Nuclear Attraction Energy = -1185.23048652538591
 Nuclear Repulsion  Energy = -102.89365928466421
 Total Coulomb      Energy = 173.90295389492735
    5    -578.7885118155      1.72e-07  Convergence criterion met
 ----------------------------------------------
 Final energy components:
 DFT Correlation    Energy =  -1.09679469345846
 DFT Exchange       Energy = -40.52475171053440
 Kinetic            Energy = 577.05422650360254
 Nuclear Attraction Energy = -1185.23048652538591
 Nuclear Repulsion  Energy = -102.89365928466421
 Total Coulomb      Energy = 173.90295389492735
 ----------------------------------------------
 Final energy is -578.7885118155

 SCF time:   CPU 1820.18s  wall 128.00s 
 Total wall time for computing Kinetic: 0.04 s (8)
 Total wall time for computing RIJ-BIGMEM: 6.57 s (8)
 Total wall time for computing RSDF Vnuc: 0.08 s (8)
 Total wall time for computing DFT XC: 104.28 s (8)
 ---------------------------------------------------------------------------
                        Orbital Energies (a.u.)
 ---------------------------------------------------------------------------
 == 0-th k-point (-0.26242,-0.26242,-0.26242) occupation: 14==
 -64.99253 -64.99245 -4.62144 -4.62129 -3.03227 -3.03227 -3.03214 -3.03166 -3.03158 -3.03158
 -0.08759 0.03295 0.23227 0.23227 0.33628 0.40343 0.40343 0.56930 0.63730 0.63730
 0.67183 0.75341 0.75341 0.78854 0.94834 1.05402 1.05402 1.11479 1.19845 1.19845
 1.21579 1.30186 1.30186 1.38114 1.38114 1.41859 1.54096 1.54096 1.56863 1.57001
 1.57001 1.67620 1.87245 1.91684 1.93261 1.93261 2.00159 2.02288 2.02288 2.16636
 2.29464 2.29464 2.39543 2.41258 2.41258 2.47046 2.47046 2.48647 2.48647 2.54630
 3.42272 3.47839 3.47839 3.66879 3.75866 4.08899 4.08899 8.07174
 == 1-th k-point (-0.17495,-0.17495,-0.34990) occupation: 14==
 -64.99253 -64.99249 -4.62144 -4.62129 -3.03228 -3.03228 -3.03211 -3.03171 -3.03157 -3.03155
 -0.09142 0.05678 0.19279 0.21220 0.35684 0.41934 0.44632 0.49281 0.63329 0.66664
 0.68486 0.73982 0.76791 0.86807 0.94217 0.96176 1.02286 1.10212 1.13385 1.19270
 1.21364 1.33082 1.33144 1.40559 1.41293 1.46269 1.49509 1.54700 1.55091 1.60708
 1.63297 1.75220 1.79462 1.81900 1.88320 1.98129 1.99014 2.01759 2.07879 2.14007
 2.23176 2.26042 2.27710 2.33244 2.41547 2.42015 2.46488 2.51712 2.55803 2.64396
 3.34500 3.48484 3.58147 3.79344 4.01383 4.03877 5.64741 8.16521
 == 2-th k-point (-0.08747,-0.08747,-0.43737) occupation: 14==
 -64.99252 -64.99249 -4.62143 -4.62131 -3.03230 -3.03229 -3.03204 -3.03178 -3.03155 -3.03153
 -0.07904 0.06767 0.16007 0.18642 0.32232 0.37778 0.52332 0.53027 0.69042 0.69696
 0.71167 0.73958 0.81375 0.84077 0.90528 0.96197 0.96691 1.01981 1.12534 1.16056
 1.23820 1.24859 1.25983 1.38896 1.39823 1.44641 1.55776 1.58639 1.64944 1.67628
 1.71970 1.73708 1.79074 1.82343 1.84907 1.95622 2.02592 2.05055 2.08241 2.08750
 2.14926 2.24572 2.25703 2.32167 2.36161 2.37439 2.43070 2.52899 2.54412 2.79390
 3.25740 3.43339 3.51514 3.83168 3.95355 4.08850 5.64390 7.69879
 == 3-th k-point (-0.00000,-0.00000,-0.52485) occupation: 14==
 -64.99249 -64.99249 -4.62140 -4.62133 -3.03229 -3.03229 -3.03197 -3.03185 -3.03155 -3.03155
 -0.05017 0.03096 0.17257 0.17257 0.29872 0.31814 0.61406 0.61406 0.70404 0.71415
 0.73419 0.73419 0.78379 0.80705 0.93769 0.97784 0.97784 0.99982 1.13577 1.13577
 1.15092 1.17224 1.24411 1.31110 1.41537 1.41537 1.63761 1.63761 1.69491 1.73960
 1.76545 1.76899 1.82658 1.86445 1.86445 1.93770 1.99114 1.99114 2.14994 2.15155
 2.18537 2.18537 2.28595 2.30303 2.30303 2.35695 2.51689 2.57508 2.57508 2.84123
 3.13739 3.13739 3.68130 3.93332 4.18441 4.18441 5.37059 5.60572
 == 4-th k-point (0.08747,0.08747,-0.61232) occupation: 14==
 -64.99252 -64.99249 -4.62137 -4.62136 -3.03229 -3.03228 -3.03193 -3.03188 -3.03154 -3.03151
 -0.01502 -0.00449 0.13966 0.17485 0.31004 0.35669 0.60438 0.61903 0.63379 0.64777
 0.78724 0.80103 0.80210 0.83246 0.92436 0.96274 1.02727 1.06237 1.09482 1.09541
 1.11176 1.17372 1.20349 1.26525 1.41709 1.49572 1.55282 1.55626 1.70703 1.73510
 1.79401 1.79479 1.80105 1.85274 1.87913 1.93117 2.04108 2.05638 2.06357 2.13053
 2.21783 2.21896 2.23856 2.34033 2.36800 2.42808 2.50187 2.54069 2.59089 2.73530
 2.86703 2.94282 3.70810 3.73290 3.86680 3.98635 5.44349 7.35802
 == 5-th k-point (0.17495,0.17495,-0.69980) occupation: 14==
 -64.99252 -64.99249 -4.62140 -4.62133 -3.03229 -3.03228 -3.03201 -3.03180 -3.03155 -3.03151
[...]
 2.97163 3.26180 3.56260 3.74027 3.89168 3.95734 6.46656 7.12073
 == 313-th k-point (-0.17495,0.52485,0.00000) occupation: 14==
 -64.99251 -64.99251 -4.62140 -4.62134 -3.03229 -3.03228 -3.03197 -3.03185 -3.03153 -3.03152
 -0.04255 0.02782 0.14220 0.15734 0.35930 0.37324 0.50621 0.59852 0.62184 0.69328
 0.74619 0.80166 0.82540 0.86227 0.90946 0.94950 1.01883 1.07008 1.07019 1.08785
 1.16437 1.18218 1.22824 1.29992 1.43946 1.48462 1.54984 1.56271 1.60317 1.62661
 1.73171 1.75806 1.84622 1.85114 1.90923 1.93627 2.00601 2.02829 2.07665 2.10844
 2.17679 2.22340 2.27264 2.32732 2.38102 2.42339 2.46270 2.50215 2.66197 2.76507
 2.91267 3.15355 3.61962 3.77923 3.80194 3.85917 6.60160 6.67572
 == 314-th k-point (-0.08747,0.61232,-0.08747) occupation: 14==
 -64.99252 -64.99249 -4.62137 -4.62136 -3.03229 -3.03228 -3.03193 -3.03188 -3.03154 -3.03151
 -0.01502 -0.00449 0.13966 0.17485 0.31004 0.35669 0.60438 0.61903 0.63379 0.64777
 0.78724 0.80103 0.80210 0.83246 0.92436 0.96274 1.02727 1.06237 1.09482 1.09541
 1.11176 1.17372 1.20349 1.26525 1.41709 1.49572 1.55282 1.55626 1.70703 1.73510
 1.79401 1.79479 1.80105 1.85274 1.87913 1.93117 2.04108 2.05638 2.06357 2.13053
 2.21783 2.21896 2.23856 2.34033 2.36800 2.42808 2.50187 2.54069 2.59089 2.73530
 2.86703 2.94282 3.70810 3.73290 3.86680 3.98635 5.44349 7.35802
 == 315-th k-point (-0.52485,0.00000,0.52485) occupation: 14==
 -64.99252 -64.99249 -4.62137 -4.62136 -3.03229 -3.03228 -3.03193 -3.03188 -3.03154 -3.03151
 -0.01502 -0.00449 0.13966 0.17485 0.31004 0.35669 0.60438 0.61903 0.63379 0.64777
 0.78724 0.80103 0.80210 0.83246 0.92436 0.96274 1.02727 1.06237 1.09482 1.09541
 1.11176 1.17372 1.20349 1.26525 1.41709 1.49572 1.55282 1.55626 1.70703 1.73510
 1.79401 1.79479 1.80105 1.85274 1.87913 1.93117 2.04108 2.05638 2.06357 2.13053
 2.21783 2.21896 2.23856 2.34033 2.36801 2.42808 2.50187 2.54069 2.59089 2.73530
 2.86703 2.94282 3.70810 3.73290 3.86680 3.98635 5.44349 7.35802
 == 316-th k-point (-0.43737,0.08747,0.43737) occupation: 14==
 -64.99252 -64.99249 -4.62140 -4.62133 -3.03229 -3.03228 -3.03201 -3.03180 -3.03155 -3.03151
 -0.04504 0.02395 0.12487 0.19267 0.33144 0.46181 0.51149 0.51303 0.61362 0.62046
 0.78146 0.80052 0.80820 0.94042 0.94107 0.95890 0.96992 1.03774 1.08113 1.14220
 1.21113 1.21114 1.22973 1.38995 1.40674 1.43955 1.45859 1.52803 1.63230 1.66255
 1.75341 1.78008 1.81830 1.83721 1.86624 1.91964 1.97684 1.99034 2.08479 2.15020
 2.16794 2.29064 2.29284 2.38046 2.40485 2.41264 2.43963 2.54655 2.55859 2.72231
 3.03231 3.12457 3.62923 3.67359 3.91371 3.93892 5.68579 7.51874
 == 317-th k-point (-0.34990,0.17495,0.34990) occupation: 14==
 -64.99252 -64.99249 -4.62143 -4.62130 -3.03227 -3.03227 -3.03210 -3.03172 -3.03157 -3.03154
 -0.07068 0.02472 0.17738 0.21951 0.36074 0.41606 0.43162 0.57969 0.60351 0.62033
 0.69445 0.77797 0.79227 0.80945 0.96848 1.04128 1.06766 1.07186 1.11878 1.15383
 1.25590 1.27670 1.34894 1.35166 1.41527 1.43900 1.44497 1.56049 1.57675 1.60556
 1.66923 1.69603 1.83064 1.83367 1.90192 1.93774 1.94480 2.03549 2.07102 2.16246
 2.24532 2.27317 2.33499 2.37203 2.42437 2.45068 2.49388 2.52439 2.53787 2.60580
 3.17316 3.37356 3.56137 3.63254 4.02723 4.07861 5.94431 7.53877
 == 318-th k-point (-0.26242,0.26242,0.26242) occupation: 14==
 -64.99253 -64.99245 -4.62144 -4.62129 -3.03227 -3.03227 -3.03214 -3.03166 -3.03158 -3.03158
 -0.08759 0.03295 0.23227 0.23227 0.33628 0.40343 0.40343 0.56930 0.63730 0.63730
 0.67183 0.75341 0.75341 0.78854 0.94834 1.05402 1.05402 1.11479 1.19845 1.19845
 1.21579 1.30186 1.30186 1.38114 1.38114 1.41859 1.54096 1.54096 1.56863 1.57001
 1.57001 1.67620 1.87245 1.91684 1.93261 1.93261 2.00159 2.02288 2.02288 2.16636
 2.29464 2.29464 2.39543 2.41258 2.41258 2.47046 2.47046 2.48647 2.48647 2.54630
 3.42272 3.47839 3.47839 3.66879 3.75866 4.08899 4.08899 8.07174
 == 319-th k-point (-0.17495,0.34990,0.17495) occupation: 14==
 -64.99253 -64.99249 -4.62144 -4.62129 -3.03228 -3.03228 -3.03211 -3.03171 -3.03157 -3.03155
 -0.09142 0.05678 0.19279 0.21220 0.35684 0.41934 0.44632 0.49281 0.63329 0.66664
 0.68486 0.73982 0.76791 0.86807 0.94217 0.96176 1.02286 1.10212 1.13385 1.19270
 1.21364 1.33082 1.33144 1.40559 1.41293 1.46269 1.49509 1.54700 1.55091 1.60708
 1.63297 1.75220 1.79462 1.81900 1.88320 1.98129 1.99014 2.01759 2.07879 2.14007
 2.23176 2.26042 2.27710 2.33244 2.41547 2.42015 2.46488 2.51712 2.55803 2.64396
 3.34500 3.48484 3.58147 3.79344 4.01383 4.03877 5.64741 8.16521
 == 320-th k-point (-0.08747,0.43737,0.08747) occupation: 14==
 -64.99252 -64.99249 -4.62143 -4.62131 -3.03230 -3.03229 -3.03204 -3.03178 -3.03155 -3.03153
 -0.07904 0.06767 0.16007 0.18642 0.32232 0.37778 0.52332 0.53027 0.69042 0.69696
 0.71167 0.73958 0.81375 0.84077 0.90528 0.96197 0.96691 1.01981 1.12534 1.16056
 1.23820 1.24859 1.25983 1.38896 1.39823 1.44641 1.55776 1.58639 1.64944 1.67629
 1.71970 1.73708 1.79074 1.82343 1.84907 1.95622 2.02592 2.05055 2.08241 2.08750
 2.14926 2.24572 2.25703 2.32167 2.36161 2.37439 2.43070 2.52899 2.54413 2.79390
 3.25740 3.43339 3.51514 3.83168 3.95355 4.08850 5.64390 7.69880
 == 321-th k-point (0.00000,0.52485,0.00000) occupation: 14==
 -64.99249 -64.99249 -4.62140 -4.62133 -3.03229 -3.03229 -3.03197 -3.03185 -3.03155 -3.03155
 -0.05017 0.03096 0.17257 0.17257 0.29872 0.31814 0.61406 0.61406 0.70404 0.71415
 0.73419 0.73419 0.78379 0.80705 0.93769 0.97784 0.97784 0.99982 1.13577 1.13577
 1.15092 1.17224 1.24411 1.31110 1.41537 1.41537 1.63761 1.63761 1.69491 1.73960
 1.76545 1.76899 1.82658 1.86445 1.86445 1.93770 1.99114 1.99114 2.14994 2.15155
 2.18537 2.18537 2.28595 2.30303 2.30303 2.35695 2.51689 2.57508 2.57508 2.84123
 3.13739 3.13739 3.68130 3.93332 4.18441 4.18441 5.37059 5.60572
 == 322-th k-point (-0.43737,-0.08747,0.61232) occupation: 14==
 -64.99251 -64.99251 -4.62140 -4.62134 -3.03229 -3.03228 -3.03197 -3.03185 -3.03153 -3.03152
 -0.04255 0.02782 0.14220 0.15734 0.35930 0.37324 0.50621 0.59852 0.62184 0.69328
 0.74619 0.80166 0.82540 0.86227 0.90946 0.94950 1.01883 1.07008 1.07019 1.08785
 1.16437 1.18218 1.22824 1.29992 1.43946 1.48462 1.54984 1.56271 1.60317 1.62661
 1.73171 1.75806 1.84622 1.85113 1.90923 1.93627 2.00601 2.02829 2.07665 2.10844
 2.17679 2.22340 2.27264 2.32732 2.38102 2.42339 2.46270 2.50215 2.66197 2.76507
 2.91267 3.15355 3.61962 3.77923 3.80194 3.85917 6.60160 6.67572
 == 323-th k-point (-0.34990,0.00000,0.52485) occupation: 14==
 -64.99251 -64.99251 -4.62139 -4.62135 -3.03230 -3.03229 -3.03197 -3.03185 -3.03153 -3.03151
 -0.02631 0.01312 0.11853 0.16079 0.37901 0.45822 0.48635 0.49259 0.61673 0.66278
 0.77260 0.81994 0.84983 0.89894 0.94564 0.97067 0.99287 1.00232 1.06186 1.10043
 1.14230 1.21729 1.29663 1.31882 1.39318 1.41466 1.52145 1.54972 1.55133 1.57063
 1.77255 1.79029 1.84161 1.84340 1.93454 1.95604 1.99826 2.00394 2.05225 2.14565
 2.19494 2.21917 2.26963 2.33871 2.38409 2.44352 2.48024 2.55133 2.62274 2.71392
 2.97209 3.08243 3.67084 3.69672 3.79065 3.80206 6.29621 6.74070
 == 324-th k-point (-0.26242,0.08747,0.43737) occupation: 14==
 -64.99252 -64.99251 -4.62142 -4.62132 -3.03228 -3.03228 -3.03205 -3.03177 -3.03155 -3.03152
 -0.06241 0.03909 0.13924 0.18927 0.39126 0.40680 0.48080 0.52372 0.58803 0.65385
 0.73521 0.78015 0.82824 0.87961 0.93851 0.97451 1.01309 1.06031 1.09121 1.16070
 1.19553 1.21776 1.29861 1.37506 1.43592 1.44869 1.48017 1.53678 1.57942 1.63242
 1.67522 1.75566 1.79367 1.84087 1.90721 1.92924 1.93995 2.01883 2.08294 2.15012
 2.19013 2.22582 2.27158 2.36212 2.41739 2.45176 2.46761 2.51990 2.59787 2.71690
 2.97163 3.26180 3.56260 3.74027 3.89168 3.95734 6.46656 7.12073
 == 325-th k-point (-0.17495,0.17495,0.34990) occupation: 14==
 -64.99253 -64.99249 -4.62144 -4.62129 -3.03228 -3.03228 -3.03211 -3.03171 -3.03157 -3.03155
 -0.09142 0.05678 0.19279 0.21220 0.35684 0.41934 0.44632 0.49281 0.63329 0.66664
 0.68486 0.73982 0.76791 0.86807 0.94217 0.96176 1.02286 1.10212 1.13385 1.19270
 1.21364 1.33082 1.33144 1.40559 1.41293 1.46269 1.49509 1.54700 1.55091 1.60708
 1.63297 1.75220 1.79462 1.81900 1.88320 1.98129 1.99014 2.01759 2.07879 2.14007
 2.23176 2.26042 2.27710 2.33244 2.41547 2.42015 2.46488 2.51712 2.55803 2.64396
 3.34500 3.48484 3.58147 3.79344 4.01383 4.03877 5.64741 8.16521
 == 326-th k-point (-0.08747,0.26242,0.26242) occupation: 14==
 -64.99253 -64.99251 -4.62145 -4.62128 -3.03227 -3.03226 -3.03213 -3.03169 -3.03158 -3.03156
 -0.10503 0.08196 0.17745 0.23871 0.37562 0.42196 0.42345 0.52334 0.53452 0.64455
 0.69797 0.73672 0.80655 0.89178 0.89584 0.94296 1.02930 1.13193 1.15824 1.18358
 1.23751 1.27728 1.35494 1.41036 1.42895 1.45496 1.52485 1.55613 1.55754 1.63331
 1.64062 1.77296 1.78093 1.80168 1.89262 1.91413 1.98258 2.04270 2.04685 2.12222
 2.20196 2.20262 2.30739 2.32315 2.38809 2.41595 2.50038 2.52300 2.61075 2.61266
 3.03716 3.47075 3.54012 3.91070 3.98729 4.06881 6.68727 7.78930
 == 327-th k-point (0.00000,0.34990,0.17495) occupation: 14==
 -64.99252 -64.99251 -4.62145 -4.62129 -3.03228 -3.03227 -3.03210 -3.03173 -3.03157 -3.03155
 -0.10092 0.09584 0.16023 0.20929 0.37276 0.42016 0.43120 0.50584 0.58902 0.68488
 0.70496 0.74894 0.79437 0.87119 0.87458 0.98327 0.99574 1.08668 1.09008 1.23419
 1.23824 1.26884 1.32584 1.39877 1.42353 1.47488 1.53745 1.54879 1.60637 1.66186
 1.68986 1.70827 1.73984 1.86218 1.91626 1.94778 1.96159 2.01007 2.05530 2.14176
 2.15357 2.20519 2.22182 2.32790 2.34461 2.38433 2.42354 2.50421 2.61240 2.74675
 3.04963 3.46217 3.49829 3.90158 3.96639 4.02302 6.99736 7.32045
 == 328-th k-point (0.08747,0.43737,0.08747) occupation: 14==
 -64.99252 -64.99249 -4.62143 -4.62131 -3.03230 -3.03229 -3.03204 -3.03178 -3.03155 -3.03153
 -0.07904 0.06767 0.16007 0.18642 0.32232 0.37778 0.52332 0.53027 0.69042 0.69696
 0.71167 0.73958 0.81375 0.84077 0.90528 0.96197 0.96691 1.01981 1.12534 1.16056
 1.23820 1.24859 1.25983 1.38896 1.39823 1.44641 1.55776 1.58639 1.64944 1.67628
 1.71970 1.73708 1.79074 1.82343 1.84907 1.95622 2.02592 2.05055 2.08241 2.08750
 2.14926 2.24572 2.25703 2.32167 2.36161 2.37439 2.43070 2.52899 2.54412 2.79390
 3.25740 3.43339 3.51514 3.83168 3.95355 4.08850 5.64390 7.69879
 == 329-th k-point (-0.34990,-0.17495,0.69980) occupation: 14==
 -64.99252 -64.99251 -4.62142 -4.62132 -3.03228 -3.03228 -3.03205 -3.03177 -3.03155 -3.03152
 -0.06241 0.03909 0.13924 0.18927 0.39126 0.40680 0.48080 0.52372 0.58803 0.65385
 0.73521 0.78015 0.82824 0.87961 0.93851 0.97451 1.01309 1.06031 1.09121 1.16070
 1.19553 1.21776 1.29861 1.37506 1.43592 1.44869 1.48017 1.53678 1.57942 1.63242
 1.67522 1.75566 1.79367 1.84087 1.90721 1.92924 1.93995 2.01883 2.08294 2.15012
 2.19013 2.22582 2.27158 2.36212 2.41739 2.45176 2.46761 2.51990 2.59787 2.71690
 2.97163 3.26180 3.56260 3.74027 3.89168 3.95734 6.46656 7.12073
 == 330-th k-point (-0.26242,-0.08747,0.61232) occupation: 14==
 -64.99251 -64.99251 -4.62139 -4.62135 -3.03230 -3.03229 -3.03197 -3.03185 -3.03153 -3.03151
 -0.02631 0.01312 0.11853 0.16079 0.37901 0.45822 0.48635 0.49259 0.61673 0.66278
 0.77260 0.81994 0.84983 0.89894 0.94564 0.97067 0.99287 1.00232 1.06186 1.10043
 1.14230 1.21729 1.29663 1.31882 1.39318 1.41466 1.52145 1.54972 1.55133 1.57063
 1.77255 1.79029 1.84161 1.84340 1.93454 1.95604 1.99826 2.00394 2.05225 2.14565
 2.19494 2.21917 2.26963 2.33871 2.38409 2.44352 2.48024 2.55133 2.62274 2.71392
 2.97209 3.08243 3.67084 3.69672 3.79065 3.80206 6.29621 6.74070
 == 331-th k-point (-0.17495,0.00000,0.52485) occupation: 14==
 -64.99251 -64.99251 -4.62140 -4.62134 -3.03229 -3.03228 -3.03197 -3.03185 -3.03153 -3.03152
 -0.04255 0.02782 0.14220 0.15734 0.35930 0.37324 0.50621 0.59852 0.62184 0.69328
 0.74619 0.80166 0.82540 0.86227 0.90946 0.94950 1.01883 1.07008 1.07019 1.08785
 1.16437 1.18218 1.22824 1.29992 1.43946 1.48462 1.54984 1.56271 1.60317 1.62661
 1.73171 1.75806 1.84622 1.85114 1.90923 1.93627 2.00601 2.02829 2.07665 2.10844
 2.17679 2.22340 2.27264 2.32732 2.38102 2.42339 2.46270 2.50215 2.66197 2.76507
 2.91267 3.15355 3.61962 3.77923 3.80194 3.85917 6.60160 6.67572
 == 332-th k-point (-0.08747,0.08747,0.43737) occupation: 14==
 -64.99252 -64.99249 -4.62143 -4.62131 -3.03230 -3.03229 -3.03204 -3.03178 -3.03155 -3.03153
 -0.07904 0.06767 0.16007 0.18642 0.32232 0.37778 0.52332 0.53027 0.69042 0.69696
 0.71167 0.73958 0.81375 0.84077 0.90528 0.96197 0.96691 1.01981 1.12534 1.16056
 1.23820 1.24859 1.25983 1.38896 1.39823 1.44641 1.55776 1.58639 1.64944 1.67629
 1.71970 1.73708 1.79074 1.82343 1.84907 1.95622 2.02592 2.05055 2.08241 2.08750
 2.14926 2.24572 2.25703 2.32167 2.36161 2.37439 2.43070 2.52899 2.54413 2.79390
 3.25740 3.43339 3.51514 3.83168 3.95355 4.08850 5.64390 7.69880
 == 333-th k-point (0.00000,0.17495,0.34990) occupation: 14==
 -64.99252 -64.99251 -4.62145 -4.62129 -3.03228 -3.03227 -3.03210 -3.03173 -3.03157 -3.03155
 -0.10092 0.09584 0.16023 0.20929 0.37276 0.42016 0.43120 0.50584 0.58902 0.68488
 0.70496 0.74894 0.79437 0.87119 0.87458 0.98327 0.99574 1.08668 1.09008 1.23419
 1.23824 1.26884 1.32584 1.39877 1.42353 1.47488 1.53745 1.54879 1.60637 1.66186
 1.68986 1.70827 1.73984 1.86218 1.91626 1.94778 1.96159 2.01007 2.05530 2.14176
 2.15357 2.20519 2.22182 2.32790 2.34461 2.38433 2.42354 2.50421 2.61240 2.74675
 3.04963 3.46217 3.49829 3.90158 3.96639 4.02302 6.99736 7.32045
 == 334-th k-point (0.08747,0.26242,0.26242) occupation: 14==
 -64.99253 -64.99251 -4.62145 -4.62128 -3.03227 -3.03226 -3.03213 -3.03169 -3.03158 -3.03156
 -0.10503 0.08196 0.17745 0.23871 0.37562 0.42196 0.42345 0.52334 0.53452 0.64455
 0.69797 0.73672 0.80655 0.89178 0.89584 0.94296 1.02930 1.13193 1.15824 1.18358
 1.23751 1.27728 1.35494 1.41036 1.42895 1.45496 1.52485 1.55613 1.55754 1.63331
 1.64062 1.77296 1.78093 1.80168 1.89262 1.91413 1.98258 2.04270 2.04685 2.12222
 2.20196 2.20262 2.30739 2.32315 2.38809 2.41595 2.50038 2.52300 2.61075 2.61266
 3.03716 3.47075 3.54012 3.91070 3.98729 4.06881 6.68727 7.78930
 == 335-th k-point (0.17495,0.34990,0.17495) occupation: 14==
 -64.99253 -64.99249 -4.62144 -4.62129 -3.03228 -3.03228 -3.03211 -3.03171 -3.03157 -3.03155
 -0.09142 0.05678 0.19279 0.21220 0.35684 0.41934 0.44632 0.49281 0.63329 0.66664
 0.68486 0.73982 0.76791 0.86807 0.94217 0.96176 1.02286 1.10212 1.13385 1.19270
 1.21364 1.33082 1.33144 1.40559 1.41293 1.46269 1.49509 1.54700 1.55091 1.60708
 1.63297 1.75220 1.79462 1.81900 1.88320 1.98129 1.99014 2.01759 2.07879 2.14007
 2.23176 2.26042 2.27710 2.33244 2.41547 2.42015 2.46488 2.51712 2.55803 2.64396
 3.34500 3.48484 3.58147 3.79344 4.01383 4.03877 5.64741 8.16521
 == 336-th k-point (-0.26242,-0.26242,0.78727) occupation: 14==
 -64.99252 -64.99249 -4.62143 -4.62130 -3.03227 -3.03227 -3.03210 -3.03172 -3.03157 -3.03154
 -0.07068 0.02472 0.17738 0.21951 0.36074 0.41606 0.43162 0.57969 0.60351 0.62033
 0.69445 0.77797 0.79227 0.80945 0.96848 1.04128 1.06766 1.07186 1.11878 1.15383
 1.25590 1.27670 1.34894 1.35166 1.41527 1.43900 1.44497 1.56049 1.57675 1.60556
 1.66923 1.69603 1.83064 1.83367 1.90192 1.93774 1.94480 2.03549 2.07102 2.16246
 2.24532 2.27317 2.33499 2.37203 2.42437 2.45068 2.49388 2.52439 2.53787 2.60580
 3.17316 3.37356 3.56137 3.63254 4.02723 4.07861 5.94431 7.53877
 == 337-th k-point (-0.17495,-0.17495,0.69980) occupation: 14==
 -64.99252 -64.99249 -4.62140 -4.62133 -3.03229 -3.03228 -3.03201 -3.03180 -3.03155 -3.03151
 -0.04504 0.02395 0.12487 0.19267 0.33144 0.46181 0.51149 0.51303 0.61362 0.62046
 0.78146 0.80052 0.80820 0.94042 0.94107 0.95890 0.96992 1.03774 1.08113 1.14220
 1.21113 1.21114 1.22973 1.38995 1.40674 1.43955 1.45859 1.52803 1.63230 1.66255
 1.75341 1.78009 1.81830 1.83721 1.86624 1.91964 1.97684 1.99034 2.08479 2.15020
 2.16794 2.29064 2.29283 2.38046 2.40485 2.41264 2.43963 2.54655 2.55859 2.72231
 3.03231 3.12457 3.62923 3.67359 3.91371 3.93892 5.68579 7.51874
 == 338-th k-point (-0.08747,-0.08747,0.61232) occupation: 14==
 -64.99252 -64.99249 -4.62137 -4.62136 -3.03229 -3.03228 -3.03193 -3.03188 -3.03154 -3.03151
 -0.01502 -0.00449 0.13966 0.17485 0.31004 0.35669 0.60438 0.61903 0.63379 0.64777
 0.78724 0.80103 0.80210 0.83246 0.92436 0.96274 1.02727 1.06237 1.09482 1.09541
 1.11176 1.17372 1.20349 1.26525 1.41709 1.49572 1.55282 1.55626 1.70703 1.73510
 1.79401 1.79479 1.80105 1.85274 1.87913 1.93117 2.04108 2.05638 2.06357 2.13053
 2.21783 2.21896 2.23856 2.34033 2.36800 2.42808 2.50187 2.54069 2.59089 2.73530
 2.86703 2.94282 3.70810 3.73290 3.86680 3.98635 5.44349 7.35802
 == 339-th k-point (0.00000,0.00000,0.52485) occupation: 14==
 -64.99249 -64.99249 -4.62140 -4.62133 -3.03229 -3.03229 -3.03197 -3.03185 -3.03155 -3.03155
 -0.05017 0.03096 0.17257 0.17257 0.29872 0.31814 0.61406 0.61406 0.70404 0.71415
 0.73419 0.73419 0.78379 0.80705 0.93769 0.97784 0.97784 0.99982 1.13577 1.13577
 1.15092 1.17224 1.24411 1.31110 1.41537 1.41537 1.63761 1.63761 1.69491 1.73960
 1.76545 1.76899 1.82658 1.86445 1.86445 1.93770 1.99114 1.99114 2.14994 2.15155
 2.18537 2.18537 2.28595 2.30303 2.30303 2.35695 2.51689 2.57508 2.57508 2.84123
 3.13739 3.13739 3.68130 3.93332 4.18441 4.18441 5.37059 5.60572
 == 340-th k-point (0.08747,0.08747,0.43737) occupation: 14==
 -64.99252 -64.99249 -4.62143 -4.62131 -3.03230 -3.03229 -3.03204 -3.03178 -3.03155 -3.03153
 -0.07904 0.06767 0.16007 0.18642 0.32232 0.37778 0.52332 0.53027 0.69042 0.69696
 0.71167 0.73958 0.81375 0.84077 0.90528 0.96197 0.96691 1.01981 1.12534 1.16056
 1.23820 1.24859 1.25983 1.38896 1.39823 1.44641 1.55776 1.58639 1.64944 1.67628
 1.71970 1.73708 1.79074 1.82343 1.84907 1.95622 2.02592 2.05055 2.08241 2.08750
 2.14926 2.24572 2.25703 2.32167 2.36161 2.37439 2.43070 2.52899 2.54412 2.79390
 3.25740 3.43339 3.51514 3.83168 3.95355 4.08850 5.64390 7.69879
 == 341-th k-point (0.17495,0.17495,0.34990) occupation: 14==
 -64.99253 -64.99249 -4.62144 -4.62129 -3.03228 -3.03228 -3.03211 -3.03171 -3.03157 -3.03155
 -0.09142 0.05678 0.19279 0.21220 0.35684 0.41934 0.44632 0.49281 0.63329 0.66664
 0.68486 0.73982 0.76791 0.86807 0.94217 0.96176 1.02286 1.10212 1.13385 1.19270
 1.21364 1.33082 1.33144 1.40559 1.41293 1.46269 1.49509 1.54700 1.55091 1.60708
 1.63297 1.75220 1.79462 1.81900 1.88320 1.98129 1.99014 2.01759 2.07879 2.14007
 2.23176 2.26042 2.27710 2.33244 2.41547 2.42015 2.46488 2.51712 2.55803 2.64396
 3.34500 3.48484 3.58147 3.79344 4.01383 4.03877 5.64741 8.16521
 == 342-th k-point (0.26242,0.26242,0.26242) occupation: 14==
 -64.99253 -64.99245 -4.62144 -4.62129 -3.03227 -3.03227 -3.03214 -3.03166 -3.03158 -3.03158
 -0.08759 0.03295 0.23227 0.23227 0.33628 0.40343 0.40343 0.56930 0.63730 0.63730
 0.67183 0.75341 0.75341 0.78854 0.94834 1.05402 1.05402 1.11479 1.19845 1.19845
 1.21579 1.30186 1.30186 1.38114 1.38114 1.41859 1.54096 1.54096 1.56863 1.57001
 1.57001 1.67620 1.87245 1.91684 1.93261 1.93261 2.00159 2.02288 2.02288 2.16636
 2.29464 2.29464 2.39543 2.41258 2.41258 2.47046 2.47046 2.48647 2.48647 2.54630
 3.42272 3.47839 3.47839 3.66879 3.75866 4.08899 4.08899 8.07174
 ---------------------------------------------------------------------------
 VBM is at 171-th k-point with 7.51485 eV
 CBM is at 3-th k-point with 8.12854 eV
 Band gap is 0.61369 eV


           Ground-State Mulliken Net Atomic Charges

      Atom                 Charge (a.u.)          Spin (a.u.)
   --------------------------------------------------------
      1 Si               (0.000000,-0.000000)    (0.000000,0.000000)
      2 Si               (-0.000000,0.000000)    (0.000000,0.000000)
   --------------------------------------------------------
  Sum of atomic charges =     (-0.000000,-0.000000)
  Sum of spin   charges =       (0.000000,0.000000)



 Total job time:  128.14 s.
 Tue Sep  9 09:25:32 2025


        *************************************************************
        *                                                           *
        *  Thank you very much for using QCPBC. Have a nice day.    *
        *                                                           *
        *************************************************************

Running job 1 of 1
