                  Welcome to Q-Chem
           with Periodic Boundary Condition
     A Quantum Leap Into The Future Of Chemistry

 Adam Rettig, Xintian Feng, Meng-Fu Chen, Hieu Dinh, Stephen Quiton,
 Anton Ni, Paul J. Robinson, Jinghong Zhang, Joonho Lee

Contributors to earlier versions of Q-Chem not listed above:
 Evgeny Epifanovsky, Leo Cunha, Jerome F. Gonthier, Kuan-Yu Liu
 Input file: /n/netscratch/joonholee_lab/Lab/hieudinh//si_2_ccpvtz_omega_0.6_111111.scratch20250909101939/si_2_ccpvtz_omega_0.6_111111.0
 Scratch folder: /n/netscratch/joonholee_lab/Lab/hieudinh//si_2_ccpvtz_omega_0.6_111111.scratch20250909101939
 Auxillary files located at: /n/holylabs/LABS/joonholee_lab/Lab/qchem_base/qcaux
 Q-Chem begins on Tue Sep  9 10:19:40 2025

 -------------------------------------------------------------
 User input:
 -------------------------------------------------------------
 $lattice
 3
 0.000000 5.130600 5.130600
 5.130600 0.000000 5.130600
 5.130600 5.130600 0.000000
 $end
 
 $unitcell
 ABSOLUTE
 0 1
 Si 0.000000 0.000000 0.000000
 Si 2.565300 2.565300 2.565300
 $end
 
 $rem
 jobtype = sp
 method = pbe
 scf_convergence = 5
 scf_guess = autosad
 scf_algorithm = diis_gdm
 basis = cc-pvtz
 aux_basis = cc-pvtz-jk
 input_bohr = true
 symmetry = false
 rsdf_print_level 1
 is_basis_uctr true
 
 mp_mesh = [11,11,11]
 
 integral_direct true
 bvk_cgto true
 
 thresh 14
 mem_total 1000000
 threads 32
 
 MAX_SCF_CYCLES 500
 madelung = false
 omega 0.6
 do_rij_bigmem true
 automate_g true
 print_level 10
 grid_type_xc 1
 
 thresh_1e2c_sp 1e-14
 thresh_2e3c_bra_ket_sep 1e-10
 thresh_g 1e-12
 $end
 
 -------------------------------------------------------------
 Running PBC job

 Requested Exchange Correlation Functionals: 
  DFT Exchange:  1.00000 pbe_x
  DFT Correlation:  1.00000 pbe_c
 using 32 threads for computing.
 ---------------------------------------------------------------
      Coordinates of Atoms in Central Unit Cell (Angstroms)
    I     Atom         X            Y            Z
 ---------------------------------------------------------------
    1      Si      0.000000     0.000000     0.000000
    2      Si      1.357498     1.357498     1.357498
 ---------------------------------------------------------------
 --------------------------------------------------
              Lattice Vectors (Angstroms)
              X            Y            Z
 --------------------------------------------------
   X       0.000000     2.714997     2.714997
   Y       2.714997     0.000000     2.714997
   Z       2.714997     2.714997     0.000000
 --------------------------------------------------
 --------------------------------------------------
       Reciprocal Lattice Vectors (Angstroms^-1)
              X            Y            Z
 --------------------------------------------------
   X      -1.157126     1.157126     1.157126
   Y       1.157126    -1.157126     1.157126
   Z       1.157126     1.157126    -1.157126
 --------------------------------------------------

 Single point calculation requested

 Hamiltonian contributions:
 List of terms in Hamiltonian: kpts_nn, kpts_kinetic, kpts_vnuc_df, kpts_xc, kpts_rij_bigmem

 K-Points calculation started.

 Basis set information about using solid harmonic (1) or Cartesian (0):
  si : D(1) D(1) F(1) 

 Basis set information about using solid harmonic (1) or Cartesian (0):
  si : D(1) D(1) D(1) D(1) D(1) D(1) D(1) D(1) D(1) F(1) F(1) F(1) G(1) 

 There are 68 basis functions in the central unit cell.
 Print atomic basis of atoms in the central unit cell:
 -------------------------------------------------------------
2 104 104 24

  0.00000000000000e+00  0.00000000000000e+00  0.00000000000000e+00
  2.56530000000000e+00  2.56530000000000e+00  2.56530000000000e+00

  2.54900000000000e+05
  3.81900000000000e+04
  8.69000000000000e+03
  2.46200000000000e+03
  8.04800000000000e+02
  2.91300000000000e+02
  1.13600000000000e+02
  4.67500000000000e+01
  1.98200000000000e+01
  7.70800000000000e+00
  3.34000000000000e+00
  2.54900000000000e+05
  3.81900000000000e+04
  8.69000000000000e+03
  8.04800000000000e+02
  2.91300000000000e+02
  1.13600000000000e+02
  4.67500000000000e+01
  1.98200000000000e+01
  7.70800000000000e+00
  3.34000000000000e+00
  1.40200000000000e+00
  2.54900000000000e+05
  3.81900000000000e+04
  8.69000000000000e+03
  2.91300000000000e+02
  1.13600000000000e+02
  4.67500000000000e+01
  1.98200000000000e+01
  7.70800000000000e+00
  3.34000000000000e+00
  1.40200000000000e+00
  2.07000000000000e-01
  4.38700000000000e-01
  7.94400000000000e-02
  4.81500000000000e+02
  1.13900000000000e+02
  3.62300000000000e+01
  1.33400000000000e+01
  5.25200000000000e+00
  2.12000000000000e+00
  1.13900000000000e+02
  3.62300000000000e+01
  1.33400000000000e+01
  5.25200000000000e+00
  2.12000000000000e+00
  2.52800000000000e-01
  8.56100000000000e-01
  7.88900000000000e-02
  4.81000000000000e-01
  1.59000000000000e-01
  3.36000000000000e-01
  2.54900000000000e+05
  3.81900000000000e+04
  8.69000000000000e+03
  2.46200000000000e+03
  8.04800000000000e+02
  2.91300000000000e+02
  1.13600000000000e+02
  4.67500000000000e+01
  1.98200000000000e+01
  7.70800000000000e+00
  3.34000000000000e+00
  2.54900000000000e+05
  3.81900000000000e+04
  8.69000000000000e+03
  8.04800000000000e+02
  2.91300000000000e+02
  1.13600000000000e+02
  4.67500000000000e+01
  1.98200000000000e+01
  7.70800000000000e+00
  3.34000000000000e+00
  1.40200000000000e+00
  2.54900000000000e+05
  3.81900000000000e+04
  8.69000000000000e+03
  2.91300000000000e+02
  1.13600000000000e+02
  4.67500000000000e+01
  1.98200000000000e+01
  7.70800000000000e+00
  3.34000000000000e+00
  1.40200000000000e+00
  2.07000000000000e-01
  4.38700000000000e-01
  7.94400000000000e-02
  4.81500000000000e+02
  1.13900000000000e+02
  3.62300000000000e+01
  1.33400000000000e+01
  5.25200000000000e+00
  2.12000000000000e+00
  1.13900000000000e+02
  3.62300000000000e+01
  1.33400000000000e+01
  5.25200000000000e+00
  2.12000000000000e+00
  2.52800000000000e-01
  8.56100000000000e-01
  7.88900000000000e-02
  4.81000000000000e-01
  1.59000000000000e-01
  3.36000000000000e-01

  5.06121931014315e-01
  9.46667895564849e-01
  1.63484840115776e+00
  2.64073594005923e+00
  3.97699155153283e+00
  5.40905960736848e+00
  6.15868961670172e+00
  4.99170532032548e+00
  2.02857976424901e+00
  1.82839763527352e-01
 -1.25640690342342e-02
  1.10808750449959e-03
  1.94415577975663e-03
  2.70023730632789e-03
 -1.69098200112149e-02
 -8.66890848691569e-02
 -2.76125946359713e-01
 -6.25588788447604e-01
 -6.61701688370681e-01
  3.11114524237060e-01
  9.56658906468163e-01
  4.36891217824705e-01
  1.05873342256663e-04
  1.52975802748887e-04
  4.28394863673135e-04
 -4.94070443505333e-03
 -1.17298035021286e-02
 -2.95023896611804e-02
 -1.71455066569284e-02
  3.00007138114875e-03
 -6.19326651465540e-02
 -2.59989143457351e-01
  2.47187614608056e-01
  3.84180942836044e-01
  1.06644759418552e-01
  6.70509611941243e+00
  8.84487660481054e+00
  9.82415782069442e+00
  8.40902910540583e+00
  4.80448757555754e+00
  1.55989499299286e+00
 -1.15889775037608e-01
 -5.13312293701512e-02
 -2.64771097977823e-01
 -6.52512718105956e-02
 -1.94608613796415e-01
  2.59380435893970e-01
  1.17380433533106e+00
  5.95960578383022e-02
  4.57260134599596e-01
  6.58952976069849e-02
  1.26537084505476e-01
  5.06121931014315e-01
  9.46667895564849e-01
  1.63484840115776e+00
  2.64073594005923e+00
  3.97699155153283e+00
  5.40905960736848e+00
  6.15868961670172e+00
  4.99170532032548e+00
  2.02857976424901e+00
  1.82839763527352e-01
 -1.25640690342342e-02
  1.10808750449959e-03
  1.94415577975663e-03
  2.70023730632789e-03
 -1.69098200112149e-02
 -8.66890848691569e-02
 -2.76125946359713e-01
 -6.25588788447604e-01
 -6.61701688370681e-01
  3.11114524237060e-01
  9.56658906468163e-01
  4.36891217824705e-01
  1.05873342256663e-04
  1.52975802748887e-04
  4.28394863673135e-04
 -4.94070443505333e-03
 -1.17298035021286e-02
 -2.95023896611804e-02
 -1.71455066569284e-02
  3.00007138114875e-03
 -6.19326651465540e-02
 -2.59989143457351e-01
  2.47187614608056e-01
  3.84180942836044e-01
  1.06644759418552e-01
  6.70509611941243e+00
  8.84487660481054e+00
  9.82415782069442e+00
  8.40902910540583e+00
  4.80448757555754e+00
  1.55989499299286e+00
 -1.15889775037608e-01
 -5.13312293701512e-02
 -2.64771097977823e-01
 -6.52512718105956e-02
 -1.94608613796415e-01
  2.59380435893970e-01
  1.17380433533106e+00
  5.95960578383022e-02
  4.57260134599596e-01
  6.58952976069849e-02
  1.26537084505476e-01

0 0 0 0 1 1 1
0 0 
11 0

0 1 1 11 1 1 1
11 0 
11 0

0 2 2 22 1 1 1
22 0 
11 0

0 3 3 33 1 1 1
33 0 
1 0

0 4 4 34 1 1 1
34 0 
1 0

0 5 5 35 1 3 3
35 1 
6 0

0 8 8 41 1 3 3
41 1 
6 0

0 11 11 47 1 3 3
47 1 
1 0

0 14 14 48 1 3 3
48 1 
1 0

0 17 17 49 1 5 6
49 2 
1 1

0 22 22 50 1 5 6
50 2 
1 1

0 27 27 51 1 7 10
51 3 
1 1

1 34 34 52 1 1 1
52 0 
11 0

1 35 35 63 1 1 1
63 0 
11 0

1 36 36 74 1 1 1
74 0 
11 0

1 37 37 85 1 1 1
85 0 
1 0

1 38 38 86 1 1 1
86 0 
1 0

1 39 39 87 1 3 3
87 1 
6 0

1 42 42 93 1 3 3
93 1 
6 0

1 45 45 99 1 3 3
99 1 
1 0

1 48 48 100 1 3 3
100 1 
1 0

1 51 51 101 1 5 6
101 2 
1 1

1 56 56 102 1 5 6
102 2 
1 1

1 61 61 103 1 7 10
103 3 
1 1

 -------------------------------------------------------------
 Allocate 263208 B from available memory: 1048576000000 B
 There are 1331 image cells after screening.
 There are 1353 image cells for CGTO evaluation after screening.
 Real-Space grid for FFT initialized based on kinetic energy cutoff (eV) = 500.0
 Real-Space grid for FFT: (10,10,10)
 There are 9261 real-space grid points.
 There are 64 batches of real-space grid points. 
 Size of each grid batch is around 128
 Grid for AFT initialized based on kinetic energy cutoff (eV) = 500.0
 Real-Space grid for AFT: (10,10,10)
 There are 9261 real-space grid points.

 There are 5456 atom-centered grid points.

 Spacegroup symmetry group: Fd-3m
 Reducing spacegroup symmetry to symmorphic group: F -4 3 m
 Monkhorst-Pack mesh is [11,11,11]
 There are 1331 k points.
kpoints in Bohr
-0.2783293690 -0.2783293690 -0.2783293690
-0.2226634952 -0.2226634952 -0.3339952428
-0.1669976214 -0.1669976214 -0.3896611166
-0.1113317476 -0.1113317476 -0.4453269904
-0.0556658738 -0.0556658738 -0.5009928642
-0.0000000000 -0.0000000000 -0.5566587381
0.0556658738 0.0556658738 -0.6123246119
0.1113317476 0.1113317476 -0.6679904857
0.1669976214 0.1669976214 -0.7236563595
0.2226634952 0.2226634952 -0.7793222333
0.2783293690 0.2783293690 -0.8349881071
-0.2226634952 -0.3339952428 -0.2226634952
-0.1669976214 -0.2783293690 -0.2783293690
-0.1113317476 -0.2226634952 -0.3339952428
-0.0556658738 -0.1669976214 -0.3896611166
-0.0000000000 -0.1113317476 -0.4453269904
0.0556658738 -0.0556658738 -0.5009928642
0.1113317476 -0.0000000000 -0.5566587381
0.1669976214 0.0556658738 -0.6123246119
0.2226634952 0.1113317476 -0.6679904857
0.2783293690 0.1669976214 -0.7236563595
0.3339952428 0.2226634952 -0.7793222333
-0.1669976214 -0.3896611166 -0.1669976214
-0.1113317476 -0.3339952428 -0.2226634952
-0.0556658738 -0.2783293690 -0.2783293690
-0.0000000000 -0.2226634952 -0.3339952428
0.0556658738 -0.1669976214 -0.3896611166
0.1113317476 -0.1113317476 -0.4453269904
0.1669976214 -0.0556658738 -0.5009928642
0.2226634952 -0.0000000000 -0.5566587381
0.2783293690 0.0556658738 -0.6123246119
0.3339952428 0.1113317476 -0.6679904857
0.3896611166 0.1669976214 -0.7236563595
-0.1113317476 -0.4453269904 -0.1113317476
-0.0556658738 -0.3896611166 -0.1669976214
-0.0000000000 -0.3339952428 -0.2226634952
0.0556658738 -0.2783293690 -0.2783293690
0.1113317476 -0.2226634952 -0.3339952428
0.1669976214 -0.1669976214 -0.3896611166
0.2226634952 -0.1113317476 -0.4453269904
0.2783293690 -0.0556658738 -0.5009928642
0.3339952428 0.0000000000 -0.5566587381
0.3896611166 0.0556658738 -0.6123246119
0.4453269904 0.1113317476 -0.6679904857
-0.0556658738 -0.5009928642 -0.0556658738
-0.0000000000 -0.4453269904 -0.1113317476
0.0556658738 -0.3896611166 -0.1669976214
0.1113317476 -0.3339952428 -0.2226634952
0.1669976214 -0.2783293690 -0.2783293690
0.2226634952 -0.2226634952 -0.3339952428
0.2783293690 -0.1669976214 -0.3896611166
0.3339952428 -0.1113317476 -0.4453269904
0.3896611166 -0.0556658738 -0.5009928642
0.4453269904 0.0000000000 -0.5566587381
0.5009928642 0.0556658738 -0.6123246119
-0.0000000000 -0.5566587381 0.0000000000
0.0556658738 -0.5009928642 -0.0556658738
0.1113317476 -0.4453269904 -0.1113317476
0.1669976214 -0.3896611166 -0.1669976214
0.2226634952 -0.3339952428 -0.2226634952
0.2783293690 -0.2783293690 -0.2783293690
0.3339952428 -0.2226634952 -0.3339952428
0.3896611166 -0.1669976214 -0.3896611166
0.4453269904 -0.1113317476 -0.4453269904
0.5009928642 -0.0556658738 -0.5009928642
0.5566587381 0.0000000000 -0.5566587381
0.0556658738 -0.6123246119 0.0556658738
0.1113317476 -0.5566587381 0.0000000000
0.1669976214 -0.5009928642 -0.0556658738
0.2226634952 -0.4453269904 -0.1113317476
0.2783293690 -0.3896611166 -0.1669976214
0.3339952428 -0.3339952428 -0.2226634952
0.3896611166 -0.2783293690 -0.2783293690
0.4453269904 -0.2226634952 -0.3339952428
0.5009928642 -0.1669976214 -0.3896611166
0.5566587381 -0.1113317476 -0.4453269904
0.6123246119 -0.0556658738 -0.5009928642
0.1113317476 -0.6679904857 0.1113317476
0.1669976214 -0.6123246119 0.0556658738
0.2226634952 -0.5566587381 0.0000000000
0.2783293690 -0.5009928642 -0.0556658738
0.3339952428 -0.4453269904 -0.1113317476
0.3896611166 -0.3896611166 -0.1669976214
0.4453269904 -0.3339952428 -0.2226634952
0.5009928642 -0.2783293690 -0.2783293690
0.5566587381 -0.2226634952 -0.3339952428
0.6123246119 -0.1669976214 -0.3896611166
0.6679904857 -0.1113317476 -0.4453269904
0.1669976214 -0.7236563595 0.1669976214
0.2226634952 -0.6679904857 0.1113317476
0.2783293690 -0.6123246119 0.0556658738
0.3339952428 -0.5566587381 0.0000000000
0.3896611166 -0.5009928642 -0.0556658738
0.4453269904 -0.4453269904 -0.1113317476
0.5009928642 -0.3896611166 -0.1669976214
0.5566587381 -0.3339952428 -0.2226634952
0.6123246119 -0.2783293690 -0.2783293690
0.6679904857 -0.2226634952 -0.3339952428
0.7236563595 -0.1669976214 -0.3896611166
0.2226634952 -0.7793222333 0.2226634952
0.2783293690 -0.7236563595 0.1669976214
0.3339952428 -0.6679904857 0.1113317476
0.3896611166 -0.6123246119 0.0556658738
0.4453269904 -0.5566587381 0.0000000000
0.5009928642 -0.5009928642 -0.0556658738
0.5566587381 -0.4453269904 -0.1113317476
0.6123246119 -0.3896611166 -0.1669976214
0.6679904857 -0.3339952428 -0.2226634952
0.7236563595 -0.2783293690 -0.2783293690
0.7793222333 -0.2226634952 -0.3339952428
0.2783293690 -0.8349881071 0.2783293690
0.3339952428 -0.7793222333 0.2226634952
0.3896611166 -0.7236563595 0.1669976214
0.4453269904 -0.6679904857 0.1113317476
0.5009928642 -0.6123246119 0.0556658738
0.5566587381 -0.5566587381 0.0000000000
0.6123246119 -0.5009928642 -0.0556658738
0.6679904857 -0.4453269904 -0.1113317476
0.7236563595 -0.3896611166 -0.1669976214
0.7793222333 -0.3339952428 -0.2226634952
0.8349881071 -0.2783293690 -0.2783293690
-0.3339952428 -0.2226634952 -0.2226634952
-0.2783293690 -0.1669976214 -0.2783293690
-0.2226634952 -0.1113317476 -0.3339952428
-0.1669976214 -0.0556658738 -0.3896611166
-0.1113317476 -0.0000000000 -0.4453269904
-0.0556658738 0.0556658738 -0.5009928642
-0.0000000000 0.1113317476 -0.5566587381
0.0556658738 0.1669976214 -0.6123246119
0.1113317476 0.2226634952 -0.6679904857
0.1669976214 0.2783293690 -0.7236563595
0.2226634952 0.3339952428 -0.7793222333
-0.2783293690 -0.2783293690 -0.1669976214
-0.2226634952 -0.2226634952 -0.2226634952
-0.1669976214 -0.1669976214 -0.2783293690
-0.1113317476 -0.1113317476 -0.3339952428
-0.0556658738 -0.0556658738 -0.3896611166
-0.0000000000 -0.0000000000 -0.4453269904
0.0556658738 0.0556658738 -0.5009928642
0.1113317476 0.1113317476 -0.5566587381
0.1669976214 0.1669976214 -0.6123246119
0.2226634952 0.2226634952 -0.6679904857
0.2783293690 0.2783293690 -0.7236563595
-0.2226634952 -0.3339952428 -0.1113317476
-0.1669976214 -0.2783293690 -0.1669976214
-0.1113317476 -0.2226634952 -0.2226634952
-0.0556658738 -0.1669976214 -0.2783293690
-0.0000000000 -0.1113317476 -0.3339952428
0.0556658738 -0.0556658738 -0.3896611166
0.1113317476 -0.0000000000 -0.4453269904
0.1669976214 0.0556658738 -0.5009928642
0.2226634952 0.1113317476 -0.5566587381
0.2783293690 0.1669976214 -0.6123246119
0.3339952428 0.2226634952 -0.6679904857
-0.1669976214 -0.3896611166 -0.0556658738
-0.1113317476 -0.3339952428 -0.1113317476
-0.0556658738 -0.2783293690 -0.1669976214
-0.0000000000 -0.2226634952 -0.2226634952
0.0556658738 -0.1669976214 -0.2783293690
0.1113317476 -0.1113317476 -0.3339952428
0.1669976214 -0.0556658738 -0.3896611166
0.2226634952 -0.0000000000 -0.4453269904
0.2783293690 0.0556658738 -0.5009928642
0.3339952428 0.1113317476 -0.5566587381
0.3896611166 0.1669976214 -0.6123246119
-0.1113317476 -0.4453269904 0.0000000000
-0.0556658738 -0.3896611166 -0.0556658738
-0.0000000000 -0.3339952428 -0.1113317476
0.0556658738 -0.2783293690 -0.1669976214
0.1113317476 -0.2226634952 -0.2226634952
0.1669976214 -0.1669976214 -0.2783293690
0.2226634952 -0.1113317476 -0.3339952428
0.2783293690 -0.0556658738 -0.3896611166
0.3339952428 -0.0000000000 -0.4453269904
0.3896611166 0.0556658738 -0.5009928642
0.4453269904 0.1113317476 -0.5566587381
-0.0556658738 -0.5009928642 0.0556658738
-0.0000000000 -0.4453269904 0.0000000000
0.0556658738 -0.3896611166 -0.0556658738
0.1113317476 -0.3339952428 -0.1113317476
0.1669976214 -0.2783293690 -0.1669976214
0.2226634952 -0.2226634952 -0.2226634952
0.2783293690 -0.1669976214 -0.2783293690
0.3339952428 -0.1113317476 -0.3339952428
0.3896611166 -0.0556658738 -0.3896611166
0.4453269904 0.0000000000 -0.4453269904
0.5009928642 0.0556658738 -0.5009928642
-0.0000000000 -0.5566587381 0.1113317476
0.0556658738 -0.5009928642 0.0556658738
0.1113317476 -0.4453269904 -0.0000000000
0.1669976214 -0.3896611166 -0.0556658738
0.2226634952 -0.3339952428 -0.1113317476
0.2783293690 -0.2783293690 -0.1669976214
0.3339952428 -0.2226634952 -0.2226634952
0.3896611166 -0.1669976214 -0.2783293690
0.4453269904 -0.1113317476 -0.3339952428
0.5009928642 -0.0556658738 -0.3896611166
0.5566587381 0.0000000000 -0.4453269904
0.0556658738 -0.6123246119 0.1669976214
0.1113317476 -0.5566587381 0.1113317476
0.1669976214 -0.5009928642 0.0556658738
0.2226634952 -0.4453269904 0.0000000000
0.2783293690 -0.3896611166 -0.0556658738
0.3339952428 -0.3339952428 -0.1113317476
0.3896611166 -0.2783293690 -0.1669976214
0.4453269904 -0.2226634952 -0.2226634952
0.5009928642 -0.1669976214 -0.2783293690
0.5566587381 -0.1113317476 -0.3339952428
0.6123246119 -0.0556658738 -0.3896611166
0.1113317476 -0.6679904857 0.2226634952
0.1669976214 -0.6123246119 0.1669976214
0.2226634952 -0.5566587381 0.1113317476
0.2783293690 -0.5009928642 0.0556658738
0.3339952428 -0.4453269904 0.0000000000
0.3896611166 -0.3896611166 -0.0556658738
0.4453269904 -0.3339952428 -0.1113317476
0.5009928642 -0.2783293690 -0.1669976214
0.5566587381 -0.2226634952 -0.2226634952
0.6123246119 -0.1669976214 -0.2783293690
0.6679904857 -0.1113317476 -0.3339952428
0.1669976214 -0.7236563595 0.2783293690
0.2226634952 -0.6679904857 0.2226634952
0.2783293690 -0.6123246119 0.1669976214
0.3339952428 -0.5566587381 0.1113317476
0.3896611166 -0.5009928642 0.0556658738
0.4453269904 -0.4453269904 0.0000000000
0.5009928642 -0.3896611166 -0.0556658738
0.5566587381 -0.3339952428 -0.1113317476
0.6123246119 -0.2783293690 -0.1669976214
0.6679904857 -0.2226634952 -0.2226634952
0.7236563595 -0.1669976214 -0.2783293690
0.2226634952 -0.7793222333 0.3339952428
0.2783293690 -0.7236563595 0.2783293690
0.3339952428 -0.6679904857 0.2226634952
0.3896611166 -0.6123246119 0.1669976214
0.4453269904 -0.5566587381 0.1113317476
0.5009928642 -0.5009928642 0.0556658738
0.5566587381 -0.4453269904 -0.0000000000
0.6123246119 -0.3896611166 -0.0556658738
0.6679904857 -0.3339952428 -0.1113317476
0.7236563595 -0.2783293690 -0.1669976214
0.7793222333 -0.2226634952 -0.2226634952
-0.3896611166 -0.1669976214 -0.1669976214
-0.3339952428 -0.1113317476 -0.2226634952
-0.2783293690 -0.0556658738 -0.2783293690
-0.2226634952 -0.0000000000 -0.3339952428
-0.1669976214 0.0556658738 -0.3896611166
-0.1113317476 0.1113317476 -0.4453269904
-0.0556658738 0.1669976214 -0.5009928642
-0.0000000000 0.2226634952 -0.5566587381
0.0556658738 0.2783293690 -0.6123246119
0.1113317476 0.3339952428 -0.6679904857
0.1669976214 0.3896611166 -0.7236563595
-0.3339952428 -0.2226634952 -0.1113317476
-0.2783293690 -0.1669976214 -0.1669976214
-0.2226634952 -0.1113317476 -0.2226634952
-0.1669976214 -0.0556658738 -0.2783293690
-0.1113317476 -0.0000000000 -0.3339952428
-0.0556658738 0.0556658738 -0.3896611166
-0.0000000000 0.1113317476 -0.4453269904
0.0556658738 0.1669976214 -0.5009928642
0.1113317476 0.2226634952 -0.5566587381
0.1669976214 0.2783293690 -0.6123246119
0.2226634952 0.3339952428 -0.6679904857
-0.2783293690 -0.2783293690 -0.0556658738
-0.2226634952 -0.2226634952 -0.1113317476
-0.1669976214 -0.1669976214 -0.1669976214
-0.1113317476 -0.1113317476 -0.2226634952
-0.0556658738 -0.0556658738 -0.2783293690
-0.0000000000 -0.0000000000 -0.3339952428
0.0556658738 0.0556658738 -0.3896611166
0.1113317476 0.1113317476 -0.4453269904
0.1669976214 0.1669976214 -0.5009928642
0.2226634952 0.2226634952 -0.5566587381
0.2783293690 0.2783293690 -0.6123246119
-0.2226634952 -0.3339952428 0.0000000000
-0.1669976214 -0.2783293690 -0.0556658738
-0.1113317476 -0.2226634952 -0.1113317476
-0.0556658738 -0.1669976214 -0.1669976214
-0.0000000000 -0.1113317476 -0.2226634952
0.0556658738 -0.0556658738 -0.2783293690
0.1113317476 -0.0000000000 -0.3339952428
0.1669976214 0.0556658738 -0.3896611166
0.2226634952 0.1113317476 -0.4453269904
0.2783293690 0.1669976214 -0.5009928642
0.3339952428 0.2226634952 -0.5566587381
-0.1669976214 -0.3896611166 0.0556658738
-0.1113317476 -0.3339952428 0.0000000000
-0.0556658738 -0.2783293690 -0.0556658738
-0.0000000000 -0.2226634952 -0.1113317476
0.0556658738 -0.1669976214 -0.1669976214
0.1113317476 -0.1113317476 -0.2226634952
0.1669976214 -0.0556658738 -0.2783293690
0.2226634952 0.0000000000 -0.3339952428
0.2783293690 0.0556658738 -0.3896611166
0.3339952428 0.1113317476 -0.4453269904
0.3896611166 0.1669976214 -0.5009928642
-0.1113317476 -0.4453269904 0.1113317476
-0.0556658738 -0.3896611166 0.0556658738
-0.0000000000 -0.3339952428 0.0000000000
0.0556658738 -0.2783293690 -0.0556658738
0.1113317476 -0.2226634952 -0.1113317476
0.1669976214 -0.1669976214 -0.1669976214
0.2226634952 -0.1113317476 -0.2226634952
0.2783293690 -0.0556658738 -0.2783293690
0.3339952428 0.0000000000 -0.3339952428
0.3896611166 0.0556658738 -0.3896611166
0.4453269904 0.1113317476 -0.4453269904
-0.0556658738 -0.5009928642 0.1669976214
-0.0000000000 -0.4453269904 0.1113317476
0.0556658738 -0.3896611166 0.0556658738
0.1113317476 -0.3339952428 0.0000000000
0.1669976214 -0.2783293690 -0.0556658738
0.2226634952 -0.2226634952 -0.1113317476
0.2783293690 -0.1669976214 -0.1669976214
0.3339952428 -0.1113317476 -0.2226634952
0.3896611166 -0.0556658738 -0.2783293690
0.4453269904 0.0000000000 -0.3339952428
0.5009928642 0.0556658738 -0.3896611166
-0.0000000000 -0.5566587381 0.2226634952
0.0556658738 -0.5009928642 0.1669976214
0.1113317476 -0.4453269904 0.1113317476
0.1669976214 -0.3896611166 0.0556658738
0.2226634952 -0.3339952428 0.0000000000
0.2783293690 -0.2783293690 -0.0556658738
0.3339952428 -0.2226634952 -0.1113317476
0.3896611166 -0.1669976214 -0.1669976214
0.4453269904 -0.1113317476 -0.2226634952
0.5009928642 -0.0556658738 -0.2783293690
0.5566587381 0.0000000000 -0.3339952428
0.0556658738 -0.6123246119 0.2783293690
0.1113317476 -0.5566587381 0.2226634952
0.1669976214 -0.5009928642 0.1669976214
0.2226634952 -0.4453269904 0.1113317476
0.2783293690 -0.3896611166 0.0556658738
0.3339952428 -0.3339952428 0.0000000000
0.3896611166 -0.2783293690 -0.0556658738
0.4453269904 -0.2226634952 -0.1113317476
0.5009928642 -0.1669976214 -0.1669976214
0.5566587381 -0.1113317476 -0.2226634952
0.6123246119 -0.0556658738 -0.2783293690
0.1113317476 -0.6679904857 0.3339952428
0.1669976214 -0.6123246119 0.2783293690
0.2226634952 -0.5566587381 0.2226634952
0.2783293690 -0.5009928642 0.1669976214
0.3339952428 -0.4453269904 0.1113317476
0.3896611166 -0.3896611166 0.0556658738
0.4453269904 -0.3339952428 0.0000000000
0.5009928642 -0.2783293690 -0.0556658738
0.5566587381 -0.2226634952 -0.1113317476
0.6123246119 -0.1669976214 -0.1669976214
0.6679904857 -0.1113317476 -0.2226634952
0.1669976214 -0.7236563595 0.3896611166
0.2226634952 -0.6679904857 0.3339952428
0.2783293690 -0.6123246119 0.2783293690
0.3339952428 -0.5566587381 0.2226634952
0.3896611166 -0.5009928642 0.1669976214
0.4453269904 -0.4453269904 0.1113317476
0.5009928642 -0.3896611166 0.0556658738
0.5566587381 -0.3339952428 0.0000000000
0.6123246119 -0.2783293690 -0.0556658738
0.6679904857 -0.2226634952 -0.1113317476
0.7236563595 -0.1669976214 -0.1669976214
-0.4453269904 -0.1113317476 -0.1113317476
-0.3896611166 -0.0556658738 -0.1669976214
-0.3339952428 -0.0000000000 -0.2226634952
-0.2783293690 0.0556658738 -0.2783293690
-0.2226634952 0.1113317476 -0.3339952428
-0.1669976214 0.1669976214 -0.3896611166
-0.1113317476 0.2226634952 -0.4453269904
-0.0556658738 0.2783293690 -0.5009928642
-0.0000000000 0.3339952428 -0.5566587381
0.0556658738 0.3896611166 -0.6123246119
0.1113317476 0.4453269904 -0.6679904857
-0.3896611166 -0.1669976214 -0.0556658738
-0.3339952428 -0.1113317476 -0.1113317476
-0.2783293690 -0.0556658738 -0.1669976214
-0.2226634952 -0.0000000000 -0.2226634952
-0.1669976214 0.0556658738 -0.2783293690
-0.1113317476 0.1113317476 -0.3339952428
-0.0556658738 0.1669976214 -0.3896611166
-0.0000000000 0.2226634952 -0.4453269904
0.0556658738 0.2783293690 -0.5009928642
0.1113317476 0.3339952428 -0.5566587381
0.1669976214 0.3896611166 -0.6123246119
-0.3339952428 -0.2226634952 0.0000000000
-0.2783293690 -0.1669976214 -0.0556658738
-0.2226634952 -0.1113317476 -0.1113317476
-0.1669976214 -0.0556658738 -0.1669976214
-0.1113317476 -0.0000000000 -0.2226634952
-0.0556658738 0.0556658738 -0.2783293690
-0.0000000000 0.1113317476 -0.3339952428
0.0556658738 0.1669976214 -0.3896611166
0.1113317476 0.2226634952 -0.4453269904
0.1669976214 0.2783293690 -0.5009928642
0.2226634952 0.3339952428 -0.5566587381
-0.2783293690 -0.2783293690 0.0556658738
-0.2226634952 -0.2226634952 -0.0000000000
-0.1669976214 -0.1669976214 -0.0556658738
-0.1113317476 -0.1113317476 -0.1113317476
-0.0556658738 -0.0556658738 -0.1669976214
-0.0000000000 -0.0000000000 -0.2226634952
0.0556658738 0.0556658738 -0.2783293690
0.1113317476 0.1113317476 -0.3339952428
0.1669976214 0.1669976214 -0.3896611166
0.2226634952 0.2226634952 -0.4453269904
0.2783293690 0.2783293690 -0.5009928642
-0.2226634952 -0.3339952428 0.1113317476
-0.1669976214 -0.2783293690 0.0556658738
-0.1113317476 -0.2226634952 -0.0000000000
-0.0556658738 -0.1669976214 -0.0556658738
-0.0000000000 -0.1113317476 -0.1113317476
0.0556658738 -0.0556658738 -0.1669976214
0.1113317476 -0.0000000000 -0.2226634952
0.1669976214 0.0556658738 -0.2783293690
0.2226634952 0.1113317476 -0.3339952428
0.2783293690 0.1669976214 -0.3896611166
0.3339952428 0.2226634952 -0.4453269904
-0.1669976214 -0.3896611166 0.1669976214
-0.1113317476 -0.3339952428 0.1113317476
-0.0556658738 -0.2783293690 0.0556658738
-0.0000000000 -0.2226634952 0.0000000000
0.0556658738 -0.1669976214 -0.0556658738
0.1113317476 -0.1113317476 -0.1113317476
0.1669976214 -0.0556658738 -0.1669976214
0.2226634952 0.0000000000 -0.2226634952
0.2783293690 0.0556658738 -0.2783293690
0.3339952428 0.1113317476 -0.3339952428
0.3896611166 0.1669976214 -0.3896611166
-0.1113317476 -0.4453269904 0.2226634952
-0.0556658738 -0.3896611166 0.1669976214
-0.0000000000 -0.3339952428 0.1113317476
0.0556658738 -0.2783293690 0.0556658738
0.1113317476 -0.2226634952 0.0000000000
0.1669976214 -0.1669976214 -0.0556658738
0.2226634952 -0.1113317476 -0.1113317476
0.2783293690 -0.0556658738 -0.1669976214
0.3339952428 0.0000000000 -0.2226634952
0.3896611166 0.0556658738 -0.2783293690
0.4453269904 0.1113317476 -0.3339952428
-0.0556658738 -0.5009928642 0.2783293690
-0.0000000000 -0.4453269904 0.2226634952
0.0556658738 -0.3896611166 0.1669976214
0.1113317476 -0.3339952428 0.1113317476
0.1669976214 -0.2783293690 0.0556658738
0.2226634952 -0.2226634952 0.0000000000
0.2783293690 -0.1669976214 -0.0556658738
0.3339952428 -0.1113317476 -0.1113317476
0.3896611166 -0.0556658738 -0.1669976214
0.4453269904 0.0000000000 -0.2226634952
0.5009928642 0.0556658738 -0.2783293690
-0.0000000000 -0.5566587381 0.3339952428
0.0556658738 -0.5009928642 0.2783293690
0.1113317476 -0.4453269904 0.2226634952
0.1669976214 -0.3896611166 0.1669976214
0.2226634952 -0.3339952428 0.1113317476
0.2783293690 -0.2783293690 0.0556658738
0.3339952428 -0.2226634952 0.0000000000
0.3896611166 -0.1669976214 -0.0556658738
0.4453269904 -0.1113317476 -0.1113317476
0.5009928642 -0.0556658738 -0.1669976214
0.5566587381 0.0000000000 -0.2226634952
0.0556658738 -0.6123246119 0.3896611166
0.1113317476 -0.5566587381 0.3339952428
0.1669976214 -0.5009928642 0.2783293690
0.2226634952 -0.4453269904 0.2226634952
0.2783293690 -0.3896611166 0.1669976214
0.3339952428 -0.3339952428 0.1113317476
0.3896611166 -0.2783293690 0.0556658738
0.4453269904 -0.2226634952 0.0000000000
0.5009928642 -0.1669976214 -0.0556658738
0.5566587381 -0.1113317476 -0.1113317476
0.6123246119 -0.0556658738 -0.1669976214
0.1113317476 -0.6679904857 0.4453269904
0.1669976214 -0.6123246119 0.3896611166
0.2226634952 -0.5566587381 0.3339952428
0.2783293690 -0.5009928642 0.2783293690
0.3339952428 -0.4453269904 0.2226634952
0.3896611166 -0.3896611166 0.1669976214
0.4453269904 -0.3339952428 0.1113317476
0.5009928642 -0.2783293690 0.0556658738
0.5566587381 -0.2226634952 0.0000000000
0.6123246119 -0.1669976214 -0.0556658738
0.6679904857 -0.1113317476 -0.1113317476
-0.5009928642 -0.0556658738 -0.0556658738
-0.4453269904 -0.0000000000 -0.1113317476
-0.3896611166 0.0556658738 -0.1669976214
-0.3339952428 0.1113317476 -0.2226634952
-0.2783293690 0.1669976214 -0.2783293690
-0.2226634952 0.2226634952 -0.3339952428
-0.1669976214 0.2783293690 -0.3896611166
-0.1113317476 0.3339952428 -0.4453269904
-0.0556658738 0.3896611166 -0.5009928642
0.0000000000 0.4453269904 -0.5566587381
0.0556658738 0.5009928642 -0.6123246119
-0.4453269904 -0.1113317476 -0.0000000000
-0.3896611166 -0.0556658738 -0.0556658738
-0.3339952428 -0.0000000000 -0.1113317476
-0.2783293690 0.0556658738 -0.1669976214
-0.2226634952 0.1113317476 -0.2226634952
-0.1669976214 0.1669976214 -0.2783293690
-0.1113317476 0.2226634952 -0.3339952428
-0.0556658738 0.2783293690 -0.3896611166
0.0000000000 0.3339952428 -0.4453269904
0.0556658738 0.3896611166 -0.5009928642
0.1113317476 0.4453269904 -0.5566587381
-0.3896611166 -0.1669976214 0.0556658738
-0.3339952428 -0.1113317476 0.0000000000
-0.2783293690 -0.0556658738 -0.0556658738
-0.2226634952 -0.0000000000 -0.1113317476
-0.1669976214 0.0556658738 -0.1669976214
-0.1113317476 0.1113317476 -0.2226634952
-0.0556658738 0.1669976214 -0.2783293690
0.0000000000 0.2226634952 -0.3339952428
0.0556658738 0.2783293690 -0.3896611166
0.1113317476 0.3339952428 -0.4453269904
0.1669976214 0.3896611166 -0.5009928642
-0.3339952428 -0.2226634952 0.1113317476
-0.2783293690 -0.1669976214 0.0556658738
-0.2226634952 -0.1113317476 -0.0000000000
-0.1669976214 -0.0556658738 -0.0556658738
-0.1113317476 -0.0000000000 -0.1113317476
-0.0556658738 0.0556658738 -0.1669976214
-0.0000000000 0.1113317476 -0.2226634952
0.0556658738 0.1669976214 -0.2783293690
0.1113317476 0.2226634952 -0.3339952428
0.1669976214 0.2783293690 -0.3896611166
0.2226634952 0.3339952428 -0.4453269904
-0.2783293690 -0.2783293690 0.1669976214
-0.2226634952 -0.2226634952 0.1113317476
-0.1669976214 -0.1669976214 0.0556658738
-0.1113317476 -0.1113317476 -0.0000000000
-0.0556658738 -0.0556658738 -0.0556658738
-0.0000000000 -0.0000000000 -0.1113317476
0.0556658738 0.0556658738 -0.1669976214
0.1113317476 0.1113317476 -0.2226634952
0.1669976214 0.1669976214 -0.2783293690
0.2226634952 0.2226634952 -0.3339952428
0.2783293690 0.2783293690 -0.3896611166
-0.2226634952 -0.3339952428 0.2226634952
-0.1669976214 -0.2783293690 0.1669976214
-0.1113317476 -0.2226634952 0.1113317476
-0.0556658738 -0.1669976214 0.0556658738
-0.0000000000 -0.1113317476 0.0000000000
0.0556658738 -0.0556658738 -0.0556658738
0.1113317476 0.0000000000 -0.1113317476
0.1669976214 0.0556658738 -0.1669976214
0.2226634952 0.1113317476 -0.2226634952
0.2783293690 0.1669976214 -0.2783293690
0.3339952428 0.2226634952 -0.3339952428
-0.1669976214 -0.3896611166 0.2783293690
-0.1113317476 -0.3339952428 0.2226634952
-0.0556658738 -0.2783293690 0.1669976214
-0.0000000000 -0.2226634952 0.1113317476
0.0556658738 -0.1669976214 0.0556658738
0.1113317476 -0.1113317476 0.0000000000
0.1669976214 -0.0556658738 -0.0556658738
0.2226634952 0.0000000000 -0.1113317476
0.2783293690 0.0556658738 -0.1669976214
0.3339952428 0.1113317476 -0.2226634952
0.3896611166 0.1669976214 -0.2783293690
-0.1113317476 -0.4453269904 0.3339952428
-0.0556658738 -0.3896611166 0.2783293690
-0.0000000000 -0.3339952428 0.2226634952
0.0556658738 -0.2783293690 0.1669976214
0.1113317476 -0.2226634952 0.1113317476
0.1669976214 -0.1669976214 0.0556658738
0.2226634952 -0.1113317476 0.0000000000
0.2783293690 -0.0556658738 -0.0556658738
0.3339952428 0.0000000000 -0.1113317476
0.3896611166 0.0556658738 -0.1669976214
0.4453269904 0.1113317476 -0.2226634952
-0.0556658738 -0.5009928642 0.3896611166
-0.0000000000 -0.4453269904 0.3339952428
0.0556658738 -0.3896611166 0.2783293690
0.1113317476 -0.3339952428 0.2226634952
0.1669976214 -0.2783293690 0.1669976214
0.2226634952 -0.2226634952 0.1113317476
0.2783293690 -0.1669976214 0.0556658738
0.3339952428 -0.1113317476 0.0000000000
0.3896611166 -0.0556658738 -0.0556658738
0.4453269904 0.0000000000 -0.1113317476
0.5009928642 0.0556658738 -0.1669976214
0.0000000000 -0.5566587381 0.4453269904
0.0556658738 -0.5009928642 0.3896611166
0.1113317476 -0.4453269904 0.3339952428
0.1669976214 -0.3896611166 0.2783293690
0.2226634952 -0.3339952428 0.2226634952
0.2783293690 -0.2783293690 0.1669976214
0.3339952428 -0.2226634952 0.1113317476
0.3896611166 -0.1669976214 0.0556658738
0.4453269904 -0.1113317476 0.0000000000
0.5009928642 -0.0556658738 -0.0556658738
0.5566587381 0.0000000000 -0.1113317476
0.0556658738 -0.6123246119 0.5009928642
0.1113317476 -0.5566587381 0.4453269904
0.1669976214 -0.5009928642 0.3896611166
0.2226634952 -0.4453269904 0.3339952428
0.2783293690 -0.3896611166 0.2783293690
0.3339952428 -0.3339952428 0.2226634952
0.3896611166 -0.2783293690 0.1669976214
0.4453269904 -0.2226634952 0.1113317476
0.5009928642 -0.1669976214 0.0556658738
0.5566587381 -0.1113317476 0.0000000000
0.6123246119 -0.0556658738 -0.0556658738
-0.5566587381 -0.0000000000 0.0000000000
-0.5009928642 0.0556658738 -0.0556658738
-0.4453269904 0.1113317476 -0.1113317476
-0.3896611166 0.1669976214 -0.1669976214
-0.3339952428 0.2226634952 -0.2226634952
-0.2783293690 0.2783293690 -0.2783293690
-0.2226634952 0.3339952428 -0.3339952428
-0.1669976214 0.3896611166 -0.3896611166
-0.1113317476 0.4453269904 -0.4453269904
-0.0556658738 0.5009928642 -0.5009928642
0.0000000000 0.5566587381 -0.5566587381
-0.5009928642 -0.0556658738 0.0556658738
-0.4453269904 -0.0000000000 -0.0000000000
-0.3896611166 0.0556658738 -0.0556658738
-0.3339952428 0.1113317476 -0.1113317476
-0.2783293690 0.1669976214 -0.1669976214
-0.2226634952 0.2226634952 -0.2226634952
-0.1669976214 0.2783293690 -0.2783293690
-0.1113317476 0.3339952428 -0.3339952428
-0.0556658738 0.3896611166 -0.3896611166
0.0000000000 0.4453269904 -0.4453269904
0.0556658738 0.5009928642 -0.5009928642
-0.4453269904 -0.1113317476 0.1113317476
-0.3896611166 -0.0556658738 0.0556658738
-0.3339952428 -0.0000000000 -0.0000000000
-0.2783293690 0.0556658738 -0.0556658738
-0.2226634952 0.1113317476 -0.1113317476
-0.1669976214 0.1669976214 -0.1669976214
-0.1113317476 0.2226634952 -0.2226634952
-0.0556658738 0.2783293690 -0.2783293690
0.0000000000 0.3339952428 -0.3339952428
0.0556658738 0.3896611166 -0.3896611166
0.1113317476 0.4453269904 -0.4453269904
-0.3896611166 -0.1669976214 0.1669976214
-0.3339952428 -0.1113317476 0.1113317476
-0.2783293690 -0.0556658738 0.0556658738
-0.2226634952 -0.0000000000 -0.0000000000
-0.1669976214 0.0556658738 -0.0556658738
-0.1113317476 0.1113317476 -0.1113317476
-0.0556658738 0.1669976214 -0.1669976214
0.0000000000 0.2226634952 -0.2226634952
0.0556658738 0.2783293690 -0.2783293690
0.1113317476 0.3339952428 -0.3339952428
0.1669976214 0.3896611166 -0.3896611166
-0.3339952428 -0.2226634952 0.2226634952
-0.2783293690 -0.1669976214 0.1669976214
-0.2226634952 -0.1113317476 0.1113317476
-0.1669976214 -0.0556658738 0.0556658738
-0.1113317476 -0.0000000000 -0.0000000000
-0.0556658738 0.0556658738 -0.0556658738
0.0000000000 0.1113317476 -0.1113317476
0.0556658738 0.1669976214 -0.1669976214
0.1113317476 0.2226634952 -0.2226634952
0.1669976214 0.2783293690 -0.2783293690
0.2226634952 0.3339952428 -0.3339952428
-0.2783293690 -0.2783293690 0.2783293690
-0.2226634952 -0.2226634952 0.2226634952
-0.1669976214 -0.1669976214 0.1669976214
-0.1113317476 -0.1113317476 0.1113317476
-0.0556658738 -0.0556658738 0.0556658738
0.0000000000 0.0000000000 0.0000000000
0.0556658738 0.0556658738 -0.0556658738
0.1113317476 0.1113317476 -0.1113317476
0.1669976214 0.1669976214 -0.1669976214
0.2226634952 0.2226634952 -0.2226634952
0.2783293690 0.2783293690 -0.2783293690
-0.2226634952 -0.3339952428 0.3339952428
-0.1669976214 -0.2783293690 0.2783293690
-0.1113317476 -0.2226634952 0.2226634952
-0.0556658738 -0.1669976214 0.1669976214
-0.0000000000 -0.1113317476 0.1113317476
0.0556658738 -0.0556658738 0.0556658738
0.1113317476 0.0000000000 0.0000000000
0.1669976214 0.0556658738 -0.0556658738
0.2226634952 0.1113317476 -0.1113317476
0.2783293690 0.1669976214 -0.1669976214
0.3339952428 0.2226634952 -0.2226634952
-0.1669976214 -0.3896611166 0.3896611166
-0.1113317476 -0.3339952428 0.3339952428
-0.0556658738 -0.2783293690 0.2783293690
-0.0000000000 -0.2226634952 0.2226634952
0.0556658738 -0.1669976214 0.1669976214
0.1113317476 -0.1113317476 0.1113317476
0.1669976214 -0.0556658738 0.0556658738
0.2226634952 0.0000000000 0.0000000000
0.2783293690 0.0556658738 -0.0556658738
0.3339952428 0.1113317476 -0.1113317476
0.3896611166 0.1669976214 -0.1669976214
-0.1113317476 -0.4453269904 0.4453269904
-0.0556658738 -0.3896611166 0.3896611166
-0.0000000000 -0.3339952428 0.3339952428
0.0556658738 -0.2783293690 0.2783293690
0.1113317476 -0.2226634952 0.2226634952
0.1669976214 -0.1669976214 0.1669976214
0.2226634952 -0.1113317476 0.1113317476
0.2783293690 -0.0556658738 0.0556658738
0.3339952428 0.0000000000 0.0000000000
0.3896611166 0.0556658738 -0.0556658738
0.4453269904 0.1113317476 -0.1113317476
-0.0556658738 -0.5009928642 0.5009928642
-0.0000000000 -0.4453269904 0.4453269904
0.0556658738 -0.3896611166 0.3896611166
0.1113317476 -0.3339952428 0.3339952428
0.1669976214 -0.2783293690 0.2783293690
0.2226634952 -0.2226634952 0.2226634952
0.2783293690 -0.1669976214 0.1669976214
0.3339952428 -0.1113317476 0.1113317476
0.3896611166 -0.0556658738 0.0556658738
0.4453269904 0.0000000000 0.0000000000
0.5009928642 0.0556658738 -0.0556658738
0.0000000000 -0.5566587381 0.5566587381
0.0556658738 -0.5009928642 0.5009928642
0.1113317476 -0.4453269904 0.4453269904
0.1669976214 -0.3896611166 0.3896611166
0.2226634952 -0.3339952428 0.3339952428
0.2783293690 -0.2783293690 0.2783293690
0.3339952428 -0.2226634952 0.2226634952
0.3896611166 -0.1669976214 0.1669976214
0.4453269904 -0.1113317476 0.1113317476
0.5009928642 -0.0556658738 0.0556658738
0.5566587381 0.0000000000 0.0000000000
-0.6123246119 0.0556658738 0.0556658738
-0.5566587381 0.1113317476 0.0000000000
-0.5009928642 0.1669976214 -0.0556658738
-0.4453269904 0.2226634952 -0.1113317476
-0.3896611166 0.2783293690 -0.1669976214
-0.3339952428 0.3339952428 -0.2226634952
-0.2783293690 0.3896611166 -0.2783293690
-0.2226634952 0.4453269904 -0.3339952428
-0.1669976214 0.5009928642 -0.3896611166
-0.1113317476 0.5566587381 -0.4453269904
-0.0556658738 0.6123246119 -0.5009928642
-0.5566587381 -0.0000000000 0.1113317476
-0.5009928642 0.0556658738 0.0556658738
-0.4453269904 0.1113317476 -0.0000000000
-0.3896611166 0.1669976214 -0.0556658738
-0.3339952428 0.2226634952 -0.1113317476
-0.2783293690 0.2783293690 -0.1669976214
-0.2226634952 0.3339952428 -0.2226634952
-0.1669976214 0.3896611166 -0.2783293690
-0.1113317476 0.4453269904 -0.3339952428
-0.0556658738 0.5009928642 -0.3896611166
0.0000000000 0.5566587381 -0.4453269904
-0.5009928642 -0.0556658738 0.1669976214
-0.4453269904 -0.0000000000 0.1113317476
-0.3896611166 0.0556658738 0.0556658738
-0.3339952428 0.1113317476 -0.0000000000
-0.2783293690 0.1669976214 -0.0556658738
-0.2226634952 0.2226634952 -0.1113317476
-0.1669976214 0.2783293690 -0.1669976214
-0.1113317476 0.3339952428 -0.2226634952
-0.0556658738 0.3896611166 -0.2783293690
0.0000000000 0.4453269904 -0.3339952428
0.0556658738 0.5009928642 -0.3896611166
-0.4453269904 -0.1113317476 0.2226634952
-0.3896611166 -0.0556658738 0.1669976214
-0.3339952428 -0.0000000000 0.1113317476
-0.2783293690 0.0556658738 0.0556658738
-0.2226634952 0.1113317476 -0.0000000000
-0.1669976214 0.1669976214 -0.0556658738
-0.1113317476 0.2226634952 -0.1113317476
-0.0556658738 0.2783293690 -0.1669976214
0.0000000000 0.3339952428 -0.2226634952
0.0556658738 0.3896611166 -0.2783293690
0.1113317476 0.4453269904 -0.3339952428
-0.3896611166 -0.1669976214 0.2783293690
-0.3339952428 -0.1113317476 0.2226634952
-0.2783293690 -0.0556658738 0.1669976214
-0.2226634952 -0.0000000000 0.1113317476
-0.1669976214 0.0556658738 0.0556658738
-0.1113317476 0.1113317476 -0.0000000000
-0.0556658738 0.1669976214 -0.0556658738
0.0000000000 0.2226634952 -0.1113317476
0.0556658738 0.2783293690 -0.1669976214
0.1113317476 0.3339952428 -0.2226634952
0.1669976214 0.3896611166 -0.2783293690
-0.3339952428 -0.2226634952 0.3339952428
-0.2783293690 -0.1669976214 0.2783293690
-0.2226634952 -0.1113317476 0.2226634952
-0.1669976214 -0.0556658738 0.1669976214
-0.1113317476 0.0000000000 0.1113317476
-0.0556658738 0.0556658738 0.0556658738
0.0000000000 0.1113317476 0.0000000000
0.0556658738 0.1669976214 -0.0556658738
0.1113317476 0.2226634952 -0.1113317476
0.1669976214 0.2783293690 -0.1669976214
0.2226634952 0.3339952428 -0.2226634952
-0.2783293690 -0.2783293690 0.3896611166
-0.2226634952 -0.2226634952 0.3339952428
-0.1669976214 -0.1669976214 0.2783293690
-0.1113317476 -0.1113317476 0.2226634952
-0.0556658738 -0.0556658738 0.1669976214
0.0000000000 0.0000000000 0.1113317476
0.0556658738 0.0556658738 0.0556658738
0.1113317476 0.1113317476 0.0000000000
0.1669976214 0.1669976214 -0.0556658738
0.2226634952 0.2226634952 -0.1113317476
0.2783293690 0.2783293690 -0.1669976214
-0.2226634952 -0.3339952428 0.4453269904
-0.1669976214 -0.2783293690 0.3896611166
-0.1113317476 -0.2226634952 0.3339952428
-0.0556658738 -0.1669976214 0.2783293690
0.0000000000 -0.1113317476 0.2226634952
0.0556658738 -0.0556658738 0.1669976214
0.1113317476 0.0000000000 0.1113317476
0.1669976214 0.0556658738 0.0556658738
0.2226634952 0.1113317476 0.0000000000
0.2783293690 0.1669976214 -0.0556658738
0.3339952428 0.2226634952 -0.1113317476
-0.1669976214 -0.3896611166 0.5009928642
-0.1113317476 -0.3339952428 0.4453269904
-0.0556658738 -0.2783293690 0.3896611166
-0.0000000000 -0.2226634952 0.3339952428
0.0556658738 -0.1669976214 0.2783293690
0.1113317476 -0.1113317476 0.2226634952
0.1669976214 -0.0556658738 0.1669976214
0.2226634952 0.0000000000 0.1113317476
0.2783293690 0.0556658738 0.0556658738
0.3339952428 0.1113317476 0.0000000000
0.3896611166 0.1669976214 -0.0556658738
-0.1113317476 -0.4453269904 0.5566587381
-0.0556658738 -0.3896611166 0.5009928642
0.0000000000 -0.3339952428 0.4453269904
0.0556658738 -0.2783293690 0.3896611166
0.1113317476 -0.2226634952 0.3339952428
0.1669976214 -0.1669976214 0.2783293690
0.2226634952 -0.1113317476 0.2226634952
0.2783293690 -0.0556658738 0.1669976214
0.3339952428 0.0000000000 0.1113317476
0.3896611166 0.0556658738 0.0556658738
0.4453269904 0.1113317476 0.0000000000
-0.0556658738 -0.5009928642 0.6123246119
0.0000000000 -0.4453269904 0.5566587381
0.0556658738 -0.3896611166 0.5009928642
0.1113317476 -0.3339952428 0.4453269904
0.1669976214 -0.2783293690 0.3896611166
0.2226634952 -0.2226634952 0.3339952428
0.2783293690 -0.1669976214 0.2783293690
0.3339952428 -0.1113317476 0.2226634952
0.3896611166 -0.0556658738 0.1669976214
0.4453269904 0.0000000000 0.1113317476
0.5009928642 0.0556658738 0.0556658738
-0.6679904857 0.1113317476 0.1113317476
-0.6123246119 0.1669976214 0.0556658738
-0.5566587381 0.2226634952 -0.0000000000
-0.5009928642 0.2783293690 -0.0556658738
-0.4453269904 0.3339952428 -0.1113317476
-0.3896611166 0.3896611166 -0.1669976214
-0.3339952428 0.4453269904 -0.2226634952
-0.2783293690 0.5009928642 -0.2783293690
-0.2226634952 0.5566587381 -0.3339952428
-0.1669976214 0.6123246119 -0.3896611166
-0.1113317476 0.6679904857 -0.4453269904
-0.6123246119 0.0556658738 0.1669976214
-0.5566587381 0.1113317476 0.1113317476
-0.5009928642 0.1669976214 0.0556658738
-0.4453269904 0.2226634952 -0.0000000000
-0.3896611166 0.2783293690 -0.0556658738
-0.3339952428 0.3339952428 -0.1113317476
-0.2783293690 0.3896611166 -0.1669976214
-0.2226634952 0.4453269904 -0.2226634952
-0.1669976214 0.5009928642 -0.2783293690
-0.1113317476 0.5566587381 -0.3339952428
-0.0556658738 0.6123246119 -0.3896611166
-0.5566587381 -0.0000000000 0.2226634952
-0.5009928642 0.0556658738 0.1669976214
-0.4453269904 0.1113317476 0.1113317476
-0.3896611166 0.1669976214 0.0556658738
-0.3339952428 0.2226634952 -0.0000000000
-0.2783293690 0.2783293690 -0.0556658738
-0.2226634952 0.3339952428 -0.1113317476
-0.1669976214 0.3896611166 -0.1669976214
-0.1113317476 0.4453269904 -0.2226634952
-0.0556658738 0.5009928642 -0.2783293690
0.0000000000 0.5566587381 -0.3339952428
-0.5009928642 -0.0556658738 0.2783293690
-0.4453269904 -0.0000000000 0.2226634952
-0.3896611166 0.0556658738 0.1669976214
-0.3339952428 0.1113317476 0.1113317476
-0.2783293690 0.1669976214 0.0556658738
-0.2226634952 0.2226634952 -0.0000000000
-0.1669976214 0.2783293690 -0.0556658738
-0.1113317476 0.3339952428 -0.1113317476
-0.0556658738 0.3896611166 -0.1669976214
0.0000000000 0.4453269904 -0.2226634952
0.0556658738 0.5009928642 -0.2783293690
-0.4453269904 -0.1113317476 0.3339952428
-0.3896611166 -0.0556658738 0.2783293690
-0.3339952428 0.0000000000 0.2226634952
-0.2783293690 0.0556658738 0.1669976214
-0.2226634952 0.1113317476 0.1113317476
-0.1669976214 0.1669976214 0.0556658738
-0.1113317476 0.2226634952 -0.0000000000
-0.0556658738 0.2783293690 -0.0556658738
0.0000000000 0.3339952428 -0.1113317476
0.0556658738 0.3896611166 -0.1669976214
0.1113317476 0.4453269904 -0.2226634952
-0.3896611166 -0.1669976214 0.3896611166
-0.3339952428 -0.1113317476 0.3339952428
-0.2783293690 -0.0556658738 0.2783293690
-0.2226634952 0.0000000000 0.2226634952
-0.1669976214 0.0556658738 0.1669976214
-0.1113317476 0.1113317476 0.1113317476
-0.0556658738 0.1669976214 0.0556658738
0.0000000000 0.2226634952 0.0000000000
0.0556658738 0.2783293690 -0.0556658738
0.1113317476 0.3339952428 -0.1113317476
0.1669976214 0.3896611166 -0.1669976214
-0.3339952428 -0.2226634952 0.4453269904
-0.2783293690 -0.1669976214 0.3896611166
-0.2226634952 -0.1113317476 0.3339952428
-0.1669976214 -0.0556658738 0.2783293690
-0.1113317476 0.0000000000 0.2226634952
-0.0556658738 0.0556658738 0.1669976214
0.0000000000 0.1113317476 0.1113317476
0.0556658738 0.1669976214 0.0556658738
0.1113317476 0.2226634952 0.0000000000
0.1669976214 0.2783293690 -0.0556658738
0.2226634952 0.3339952428 -0.1113317476
-0.2783293690 -0.2783293690 0.5009928642
-0.2226634952 -0.2226634952 0.4453269904
-0.1669976214 -0.1669976214 0.3896611166
-0.1113317476 -0.1113317476 0.3339952428
-0.0556658738 -0.0556658738 0.2783293690
0.0000000000 0.0000000000 0.2226634952
0.0556658738 0.0556658738 0.1669976214
0.1113317476 0.1113317476 0.1113317476
0.1669976214 0.1669976214 0.0556658738
0.2226634952 0.2226634952 0.0000000000
0.2783293690 0.2783293690 -0.0556658738
-0.2226634952 -0.3339952428 0.5566587381
-0.1669976214 -0.2783293690 0.5009928642
-0.1113317476 -0.2226634952 0.4453269904
-0.0556658738 -0.1669976214 0.3896611166
0.0000000000 -0.1113317476 0.3339952428
0.0556658738 -0.0556658738 0.2783293690
0.1113317476 0.0000000000 0.2226634952
0.1669976214 0.0556658738 0.1669976214
0.2226634952 0.1113317476 0.1113317476
0.2783293690 0.1669976214 0.0556658738
0.3339952428 0.2226634952 0.0000000000
-0.1669976214 -0.3896611166 0.6123246119
-0.1113317476 -0.3339952428 0.5566587381
-0.0556658738 -0.2783293690 0.5009928642
0.0000000000 -0.2226634952 0.4453269904
0.0556658738 -0.1669976214 0.3896611166
0.1113317476 -0.1113317476 0.3339952428
0.1669976214 -0.0556658738 0.2783293690
0.2226634952 0.0000000000 0.2226634952
0.2783293690 0.0556658738 0.1669976214
0.3339952428 0.1113317476 0.1113317476
0.3896611166 0.1669976214 0.0556658738
-0.1113317476 -0.4453269904 0.6679904857
-0.0556658738 -0.3896611166 0.6123246119
0.0000000000 -0.3339952428 0.5566587381
0.0556658738 -0.2783293690 0.5009928642
0.1113317476 -0.2226634952 0.4453269904
0.1669976214 -0.1669976214 0.3896611166
0.2226634952 -0.1113317476 0.3339952428
0.2783293690 -0.0556658738 0.2783293690
0.3339952428 0.0000000000 0.2226634952
0.3896611166 0.0556658738 0.1669976214
0.4453269904 0.1113317476 0.1113317476
-0.7236563595 0.1669976214 0.1669976214
-0.6679904857 0.2226634952 0.1113317476
-0.6123246119 0.2783293690 0.0556658738
-0.5566587381 0.3339952428 -0.0000000000
-0.5009928642 0.3896611166 -0.0556658738
-0.4453269904 0.4453269904 -0.1113317476
-0.3896611166 0.5009928642 -0.1669976214
-0.3339952428 0.5566587381 -0.2226634952
-0.2783293690 0.6123246119 -0.2783293690
-0.2226634952 0.6679904857 -0.3339952428
-0.1669976214 0.7236563595 -0.3896611166
-0.6679904857 0.1113317476 0.2226634952
-0.6123246119 0.1669976214 0.1669976214
-0.5566587381 0.2226634952 0.1113317476
-0.5009928642 0.2783293690 0.0556658738
-0.4453269904 0.3339952428 -0.0000000000
-0.3896611166 0.3896611166 -0.0556658738
-0.3339952428 0.4453269904 -0.1113317476
-0.2783293690 0.5009928642 -0.1669976214
-0.2226634952 0.5566587381 -0.2226634952
-0.1669976214 0.6123246119 -0.2783293690
-0.1113317476 0.6679904857 -0.3339952428
-0.6123246119 0.0556658738 0.2783293690
-0.5566587381 0.1113317476 0.2226634952
-0.5009928642 0.1669976214 0.1669976214
-0.4453269904 0.2226634952 0.1113317476
-0.3896611166 0.2783293690 0.0556658738
-0.3339952428 0.3339952428 -0.0000000000
-0.2783293690 0.3896611166 -0.0556658738
-0.2226634952 0.4453269904 -0.1113317476
-0.1669976214 0.5009928642 -0.1669976214
-0.1113317476 0.5566587381 -0.2226634952
-0.0556658738 0.6123246119 -0.2783293690
-0.5566587381 0.0000000000 0.3339952428
-0.5009928642 0.0556658738 0.2783293690
-0.4453269904 0.1113317476 0.2226634952
-0.3896611166 0.1669976214 0.1669976214
-0.3339952428 0.2226634952 0.1113317476
-0.2783293690 0.2783293690 0.0556658738
-0.2226634952 0.3339952428 -0.0000000000
-0.1669976214 0.3896611166 -0.0556658738
-0.1113317476 0.4453269904 -0.1113317476
-0.0556658738 0.5009928642 -0.1669976214
0.0000000000 0.5566587381 -0.2226634952
-0.5009928642 -0.0556658738 0.3896611166
-0.4453269904 -0.0000000000 0.3339952428
-0.3896611166 0.0556658738 0.2783293690
-0.3339952428 0.1113317476 0.2226634952
-0.2783293690 0.1669976214 0.1669976214
-0.2226634952 0.2226634952 0.1113317476
-0.1669976214 0.2783293690 0.0556658738
-0.1113317476 0.3339952428 -0.0000000000
-0.0556658738 0.3896611166 -0.0556658738
0.0000000000 0.4453269904 -0.1113317476
0.0556658738 0.5009928642 -0.1669976214
-0.4453269904 -0.1113317476 0.4453269904
-0.3896611166 -0.0556658738 0.3896611166
-0.3339952428 0.0000000000 0.3339952428
-0.2783293690 0.0556658738 0.2783293690
-0.2226634952 0.1113317476 0.2226634952
-0.1669976214 0.1669976214 0.1669976214
-0.1113317476 0.2226634952 0.1113317476
-0.0556658738 0.2783293690 0.0556658738
0.0000000000 0.3339952428 0.0000000000
0.0556658738 0.3896611166 -0.0556658738
0.1113317476 0.4453269904 -0.1113317476
-0.3896611166 -0.1669976214 0.5009928642
-0.3339952428 -0.1113317476 0.4453269904
-0.2783293690 -0.0556658738 0.3896611166
-0.2226634952 0.0000000000 0.3339952428
-0.1669976214 0.0556658738 0.2783293690
-0.1113317476 0.1113317476 0.2226634952
-0.0556658738 0.1669976214 0.1669976214
0.0000000000 0.2226634952 0.1113317476
0.0556658738 0.2783293690 0.0556658738
0.1113317476 0.3339952428 -0.0000000000
0.1669976214 0.3896611166 -0.0556658738
-0.3339952428 -0.2226634952 0.5566587381
-0.2783293690 -0.1669976214 0.5009928642
-0.2226634952 -0.1113317476 0.4453269904
-0.1669976214 -0.0556658738 0.3896611166
-0.1113317476 0.0000000000 0.3339952428
-0.0556658738 0.0556658738 0.2783293690
0.0000000000 0.1113317476 0.2226634952
0.0556658738 0.1669976214 0.1669976214
0.1113317476 0.2226634952 0.1113317476
0.1669976214 0.2783293690 0.0556658738
0.2226634952 0.3339952428 0.0000000000
-0.2783293690 -0.2783293690 0.6123246119
-0.2226634952 -0.2226634952 0.5566587381
-0.1669976214 -0.1669976214 0.5009928642
-0.1113317476 -0.1113317476 0.4453269904
-0.0556658738 -0.0556658738 0.3896611166
0.0000000000 0.0000000000 0.3339952428
0.0556658738 0.0556658738 0.2783293690
0.1113317476 0.1113317476 0.2226634952
0.1669976214 0.1669976214 0.1669976214
0.2226634952 0.2226634952 0.1113317476
0.2783293690 0.2783293690 0.0556658738
-0.2226634952 -0.3339952428 0.6679904857
-0.1669976214 -0.2783293690 0.6123246119
-0.1113317476 -0.2226634952 0.5566587381
-0.0556658738 -0.1669976214 0.5009928642
0.0000000000 -0.1113317476 0.4453269904
0.0556658738 -0.0556658738 0.3896611166
0.1113317476 0.0000000000 0.3339952428
0.1669976214 0.0556658738 0.2783293690
0.2226634952 0.1113317476 0.2226634952
0.2783293690 0.1669976214 0.1669976214
0.3339952428 0.2226634952 0.1113317476
-0.1669976214 -0.3896611166 0.7236563595
-0.1113317476 -0.3339952428 0.6679904857
-0.0556658738 -0.2783293690 0.6123246119
0.0000000000 -0.2226634952 0.5566587381
0.0556658738 -0.1669976214 0.5009928642
0.1113317476 -0.1113317476 0.4453269904
0.1669976214 -0.0556658738 0.3896611166
0.2226634952 0.0000000000 0.3339952428
0.2783293690 0.0556658738 0.2783293690
0.3339952428 0.1113317476 0.2226634952
0.3896611166 0.1669976214 0.1669976214
-0.7793222333 0.2226634952 0.2226634952
-0.7236563595 0.2783293690 0.1669976214
-0.6679904857 0.3339952428 0.1113317476
-0.6123246119 0.3896611166 0.0556658738
-0.5566587381 0.4453269904 0.0000000000
-0.5009928642 0.5009928642 -0.0556658738
-0.4453269904 0.5566587381 -0.1113317476
-0.3896611166 0.6123246119 -0.1669976214
-0.3339952428 0.6679904857 -0.2226634952
-0.2783293690 0.7236563595 -0.2783293690
-0.2226634952 0.7793222333 -0.3339952428
-0.7236563595 0.1669976214 0.2783293690
-0.6679904857 0.2226634952 0.2226634952
-0.6123246119 0.2783293690 0.1669976214
-0.5566587381 0.3339952428 0.1113317476
-0.5009928642 0.3896611166 0.0556658738
-0.4453269904 0.4453269904 -0.0000000000
-0.3896611166 0.5009928642 -0.0556658738
-0.3339952428 0.5566587381 -0.1113317476
-0.2783293690 0.6123246119 -0.1669976214
-0.2226634952 0.6679904857 -0.2226634952
-0.1669976214 0.7236563595 -0.2783293690
-0.6679904857 0.1113317476 0.3339952428
-0.6123246119 0.1669976214 0.2783293690
-0.5566587381 0.2226634952 0.2226634952
-0.5009928642 0.2783293690 0.1669976214
-0.4453269904 0.3339952428 0.1113317476
-0.3896611166 0.3896611166 0.0556658738
-0.3339952428 0.4453269904 -0.0000000000
-0.2783293690 0.5009928642 -0.0556658738
-0.2226634952 0.5566587381 -0.1113317476
-0.1669976214 0.6123246119 -0.1669976214
-0.1113317476 0.6679904857 -0.2226634952
-0.6123246119 0.0556658738 0.3896611166
-0.5566587381 0.1113317476 0.3339952428
-0.5009928642 0.1669976214 0.2783293690
-0.4453269904 0.2226634952 0.2226634952
-0.3896611166 0.2783293690 0.1669976214
-0.3339952428 0.3339952428 0.1113317476
-0.2783293690 0.3896611166 0.0556658738
-0.2226634952 0.4453269904 -0.0000000000
-0.1669976214 0.5009928642 -0.0556658738
-0.1113317476 0.5566587381 -0.1113317476
-0.0556658738 0.6123246119 -0.1669976214
-0.5566587381 0.0000000000 0.4453269904
-0.5009928642 0.0556658738 0.3896611166
-0.4453269904 0.1113317476 0.3339952428
-0.3896611166 0.1669976214 0.2783293690
-0.3339952428 0.2226634952 0.2226634952
-0.2783293690 0.2783293690 0.1669976214
-0.2226634952 0.3339952428 0.1113317476
-0.1669976214 0.3896611166 0.0556658738
-0.1113317476 0.4453269904 0.0000000000
-0.0556658738 0.5009928642 -0.0556658738
0.0000000000 0.5566587381 -0.1113317476
-0.5009928642 -0.0556658738 0.5009928642
-0.4453269904 0.0000000000 0.4453269904
-0.3896611166 0.0556658738 0.3896611166
-0.3339952428 0.1113317476 0.3339952428
-0.2783293690 0.1669976214 0.2783293690
-0.2226634952 0.2226634952 0.2226634952
-0.1669976214 0.2783293690 0.1669976214
-0.1113317476 0.3339952428 0.1113317476
-0.0556658738 0.3896611166 0.0556658738
0.0000000000 0.4453269904 0.0000000000
0.0556658738 0.5009928642 -0.0556658738
-0.4453269904 -0.1113317476 0.5566587381
-0.3896611166 -0.0556658738 0.5009928642
-0.3339952428 0.0000000000 0.4453269904
-0.2783293690 0.0556658738 0.3896611166
-0.2226634952 0.1113317476 0.3339952428
-0.1669976214 0.1669976214 0.2783293690
-0.1113317476 0.2226634952 0.2226634952
-0.0556658738 0.2783293690 0.1669976214
0.0000000000 0.3339952428 0.1113317476
0.0556658738 0.3896611166 0.0556658738
0.1113317476 0.4453269904 0.0000000000
-0.3896611166 -0.1669976214 0.6123246119
-0.3339952428 -0.1113317476 0.5566587381
-0.2783293690 -0.0556658738 0.5009928642
-0.2226634952 0.0000000000 0.4453269904
-0.1669976214 0.0556658738 0.3896611166
-0.1113317476 0.1113317476 0.3339952428
-0.0556658738 0.1669976214 0.2783293690
0.0000000000 0.2226634952 0.2226634952
0.0556658738 0.2783293690 0.1669976214
0.1113317476 0.3339952428 0.1113317476
0.1669976214 0.3896611166 0.0556658738
-0.3339952428 -0.2226634952 0.6679904857
-0.2783293690 -0.1669976214 0.6123246119
-0.2226634952 -0.1113317476 0.5566587381
-0.1669976214 -0.0556658738 0.5009928642
-0.1113317476 0.0000000000 0.4453269904
-0.0556658738 0.0556658738 0.3896611166
0.0000000000 0.1113317476 0.3339952428
0.0556658738 0.1669976214 0.2783293690
0.1113317476 0.2226634952 0.2226634952
0.1669976214 0.2783293690 0.1669976214
0.2226634952 0.3339952428 0.1113317476
-0.2783293690 -0.2783293690 0.7236563595
-0.2226634952 -0.2226634952 0.6679904857
-0.1669976214 -0.1669976214 0.6123246119
-0.1113317476 -0.1113317476 0.5566587381
-0.0556658738 -0.0556658738 0.5009928642
0.0000000000 0.0000000000 0.4453269904
0.0556658738 0.0556658738 0.3896611166
0.1113317476 0.1113317476 0.3339952428
0.1669976214 0.1669976214 0.2783293690
0.2226634952 0.2226634952 0.2226634952
0.2783293690 0.2783293690 0.1669976214
-0.2226634952 -0.3339952428 0.7793222333
-0.1669976214 -0.2783293690 0.7236563595
-0.1113317476 -0.2226634952 0.6679904857
-0.0556658738 -0.1669976214 0.6123246119
0.0000000000 -0.1113317476 0.5566587381
0.0556658738 -0.0556658738 0.5009928642
0.1113317476 0.0000000000 0.4453269904
0.1669976214 0.0556658738 0.3896611166
0.2226634952 0.1113317476 0.3339952428
0.2783293690 0.1669976214 0.2783293690
0.3339952428 0.2226634952 0.2226634952
-0.8349881071 0.2783293690 0.2783293690
-0.7793222333 0.3339952428 0.2226634952
-0.7236563595 0.3896611166 0.1669976214
-0.6679904857 0.4453269904 0.1113317476
-0.6123246119 0.5009928642 0.0556658738
-0.5566587381 0.5566587381 0.0000000000
-0.5009928642 0.6123246119 -0.0556658738
-0.4453269904 0.6679904857 -0.1113317476
-0.3896611166 0.7236563595 -0.1669976214
-0.3339952428 0.7793222333 -0.2226634952
-0.2783293690 0.8349881071 -0.2783293690
-0.7793222333 0.2226634952 0.3339952428
-0.7236563595 0.2783293690 0.2783293690
-0.6679904857 0.3339952428 0.2226634952
-0.6123246119 0.3896611166 0.1669976214
-0.5566587381 0.4453269904 0.1113317476
-0.5009928642 0.5009928642 0.0556658738
-0.4453269904 0.5566587381 -0.0000000000
-0.3896611166 0.6123246119 -0.0556658738
-0.3339952428 0.6679904857 -0.1113317476
-0.2783293690 0.7236563595 -0.1669976214
-0.2226634952 0.7793222333 -0.2226634952
-0.7236563595 0.1669976214 0.3896611166
-0.6679904857 0.2226634952 0.3339952428
-0.6123246119 0.2783293690 0.2783293690
-0.5566587381 0.3339952428 0.2226634952
-0.5009928642 0.3896611166 0.1669976214
-0.4453269904 0.4453269904 0.1113317476
-0.3896611166 0.5009928642 0.0556658738
-0.3339952428 0.5566587381 -0.0000000000
-0.2783293690 0.6123246119 -0.0556658738
-0.2226634952 0.6679904857 -0.1113317476
-0.1669976214 0.7236563595 -0.1669976214
-0.6679904857 0.1113317476 0.4453269904
-0.6123246119 0.1669976214 0.3896611166
-0.5566587381 0.2226634952 0.3339952428
-0.5009928642 0.2783293690 0.2783293690
-0.4453269904 0.3339952428 0.2226634952
-0.3896611166 0.3896611166 0.1669976214
-0.3339952428 0.4453269904 0.1113317476
-0.2783293690 0.5009928642 0.0556658738
-0.2226634952 0.5566587381 0.0000000000
-0.1669976214 0.6123246119 -0.0556658738
-0.1113317476 0.6679904857 -0.1113317476
-0.6123246119 0.0556658738 0.5009928642
-0.5566587381 0.1113317476 0.4453269904
-0.5009928642 0.1669976214 0.3896611166
-0.4453269904 0.2226634952 0.3339952428
-0.3896611166 0.2783293690 0.2783293690
-0.3339952428 0.3339952428 0.2226634952
-0.2783293690 0.3896611166 0.1669976214
-0.2226634952 0.4453269904 0.1113317476
-0.1669976214 0.5009928642 0.0556658738
-0.1113317476 0.5566587381 -0.0000000000
-0.0556658738 0.6123246119 -0.0556658738
-0.5566587381 0.0000000000 0.5566587381
-0.5009928642 0.0556658738 0.5009928642
-0.4453269904 0.1113317476 0.4453269904
-0.3896611166 0.1669976214 0.3896611166
-0.3339952428 0.2226634952 0.3339952428
-0.2783293690 0.2783293690 0.2783293690
-0.2226634952 0.3339952428 0.2226634952
-0.1669976214 0.3896611166 0.1669976214
-0.1113317476 0.4453269904 0.1113317476
-0.0556658738 0.5009928642 0.0556658738
0.0000000000 0.5566587381 0.0000000000
-0.5009928642 -0.0556658738 0.6123246119
-0.4453269904 -0.0000000000 0.5566587381
-0.3896611166 0.0556658738 0.5009928642
-0.3339952428 0.1113317476 0.4453269904
-0.2783293690 0.1669976214 0.3896611166
-0.2226634952 0.2226634952 0.3339952428
-0.1669976214 0.2783293690 0.2783293690
-0.1113317476 0.3339952428 0.2226634952
-0.0556658738 0.3896611166 0.1669976214
0.0000000000 0.4453269904 0.1113317476
0.0556658738 0.5009928642 0.0556658738
-0.4453269904 -0.1113317476 0.6679904857
-0.3896611166 -0.0556658738 0.6123246119
-0.3339952428 0.0000000000 0.5566587381
-0.2783293690 0.0556658738 0.5009928642
-0.2226634952 0.1113317476 0.4453269904
-0.1669976214 0.1669976214 0.3896611166
-0.1113317476 0.2226634952 0.3339952428
-0.0556658738 0.2783293690 0.2783293690
0.0000000000 0.3339952428 0.2226634952
0.0556658738 0.3896611166 0.1669976214
0.1113317476 0.4453269904 0.1113317476
-0.3896611166 -0.1669976214 0.7236563595
-0.3339952428 -0.1113317476 0.6679904857
-0.2783293690 -0.0556658738 0.6123246119
-0.2226634952 0.0000000000 0.5566587381
-0.1669976214 0.0556658738 0.5009928642
-0.1113317476 0.1113317476 0.4453269904
-0.0556658738 0.1669976214 0.3896611166
0.0000000000 0.2226634952 0.3339952428
0.0556658738 0.2783293690 0.2783293690
0.1113317476 0.3339952428 0.2226634952
0.1669976214 0.3896611166 0.1669976214
-0.3339952428 -0.2226634952 0.7793222333
-0.2783293690 -0.1669976214 0.7236563595
-0.2226634952 -0.1113317476 0.6679904857
-0.1669976214 -0.0556658738 0.6123246119
-0.1113317476 0.0000000000 0.5566587381
-0.0556658738 0.0556658738 0.5009928642
0.0000000000 0.1113317476 0.4453269904
0.0556658738 0.1669976214 0.3896611166
0.1113317476 0.2226634952 0.3339952428
0.1669976214 0.2783293690 0.2783293690
0.2226634952 0.3339952428 0.2226634952
-0.2783293690 -0.2783293690 0.8349881071
-0.2226634952 -0.2226634952 0.7793222333
-0.1669976214 -0.1669976214 0.7236563595
-0.1113317476 -0.1113317476 0.6679904857
-0.0556658738 -0.0556658738 0.6123246119
0.0000000000 0.0000000000 0.5566587381
0.0556658738 0.0556658738 0.5009928642
0.1113317476 0.1113317476 0.4453269904
0.1669976214 0.1669976214 0.3896611166
0.2226634952 0.2226634952 0.3339952428
0.2783293690 0.2783293690 0.2783293690
 There are 14 alpha and 14 beta electrons
 Start computing overlap matrix
 Allocate 98472704 B from available memory: 1048575736800 B
 Time for computing overlap matrix: 1.8570000000 s
 ====== Initialize compute kernels for all-electron RI-J (kpts) ====== 
 ========================================================== 
 Range-separated parameter omega        = 0.599999999999999978
 Threshold for 1e2c shellpair           = 0.000000000000010000
 Threshold for 2e2c SR integral         = 0.000000000000000001
 Threshold for 2e3c SR integral         = 0.000000000100000000
 Threshold for AFT G-space screening is = 0.000000000001000000
 The exponent cutoff for C/D classification (omega2 / 2) is  = 0.179999999999999993
 ========================================================== 
 === Post process the basis set for RI calculation (exp_cutoff = 0.179999999999999993 ) === 
nshells_b1 before uncontraction = 24
nshells_b1 after uncontraction = 24
nshells_baux before uncontraction = 74
nshells_baux after uncontraction = 74
===============================================
nbsf total   = 68
nbsf compact = 50
nbsf diffuse = 18
naux total   = 242
naux compact = 242
naux diffuse = 0
nshells_bnuc = 2

 Number of unique atoms is 1
 Unique atom #0 (si) has 9 shells.

Shell 0 to 8 belongs to atom si
Shell 9 to 17 belongs to atom si

 Number of unique atoms is 1
 Unique atom #0 (si) has 3 shells.

Shell 0 to 2 belongs to atom si
Shell 3 to 5 belongs to atom si

 Number of unique atom is 1
 Unique atom #0 (si) has 37 auxiliary shells.

Auxiliary Shell 0 to 36 belongs to atom si
Auxiliary Shell 37 to 73 belongs to atom si

================= Automatically determine grid size for reciprocal space summation =================
 Range-separated parameter = 0.60000000000000 and G-space screening threshold = 0.00000000000100
The number of grid points along each axis dimension is (7, 7, 7)
Total number of grid points = 3375

Use nonortho shellpair for diffuse density
======== Initializing relevant kernel for RIJ (DD type) ========
There are 21 shellpairs in the reference unit cell
There are 2659 images and we expect to have 55839 in total
There are 4592 shellpairs in the lattice sum after screening
======== Initializing relevant kernel for RIJ (CD type) ========
There are 108 shellpairs in the reference unit cell
There are 1873 images and we expect to have 202284 in total
There are 12338 shellpairs in the lattice sum after screening
****** AFT -> SR ******
Maximum bra distance cutoff is 22.000000000000
Maximum bra ket distance cutoff is 22.225409836066
Maximum bra ket screening distance is 20.281250000000
Number of auxiliary image is 527
There are 108 shellpairs in the reference unit cell
There are 527 images and we expect to have 56916 in total
There are 12338 shellpairs in the lattice sum after screening
Available memory per thread for 2e3c calculation is 32.764914503000Gb
Finish initializing 2e3c SR with the lattice sum!
=================================================
======== Initializing relevant kernel for RIJ (CC type) ========
There are 170 shellpairs in the reference unit cell
There are 887 images and we expect to have 150790 in total
There are 4214 shellpairs in the lattice sum after screening
****** AFT -> SR ******
Maximum bra distance cutoff is 16.000000000000
Maximum bra ket distance cutoff is 26.411028484891
Maximum bra ket screening distance is 20.062500000000
Number of auxiliary image is 815
There are 170 shellpairs in the reference unit cell
There are 237 images and we expect to have 40290 in total
There are 4214 shellpairs in the lattice sum after screening
Available memory per thread for 2e3c calculation is 32.764914503000Gb
Finish initializing 2e3c SR with the lattice sum!
=================================================
======== Initializing the SR component for Vnuc (CD type) ========
Maximum bra distance cutoff is 22.000000000000
Maximum bra ket distance cutoff is 15.007314228490
Maximum bra ket screening distance is 12.593607526610
Number of auxiliary image is 527
There are 108 shellpairs in the reference unit cell
There are 527 images and we expect to have 56916 in total
There are 12338 shellpairs in the lattice sum after screening
Available memory per thread for 2e3c calculation is 32.764914503000Gb
Finish initializing 2e3c SR with the lattice sum!
=================================================
======== Initialize the SR component for Vnuc (CC type) ========
Maximum bra distance cutoff is 16.000000000000
Maximum bra ket distance cutoff is 19.169655743138
Maximum bra ket screening distance is 11.882365827597
Number of auxiliary image is 341
There are 170 shellpairs in the reference unit cell
There are 237 images and we expect to have 40290 in total
There are 4214 shellpairs in the lattice sum after screening
Available memory per thread for 2e3c calculation is 32.764914503000Gb
Finish initializing 2e3c SR with the lattice sum!
=================================================
 Aufbau occupation scheme, occupation determined by eigenvalue
 == 0-th k-point nmo = 68 (-0.27833,-0.27833,-0.27833) ==
 == 1-th k-point nmo = 68 (-0.22266,-0.22266,-0.33400) ==
 == 2-th k-point nmo = 68 (-0.16700,-0.16700,-0.38966) ==
 == 3-th k-point nmo = 68 (-0.11133,-0.11133,-0.44533) ==
 == 4-th k-point nmo = 68 (-0.05567,-0.05567,-0.50099) ==
 == 5-th k-point nmo = 68 (-0.00000,-0.00000,-0.55666) ==
 == 6-th k-point nmo = 68 (0.05567,0.05567,-0.61232) ==
 == 7-th k-point nmo = 68 (0.11133,0.11133,-0.66799) ==
 == 8-th k-point nmo = 68 (0.16700,0.16700,-0.72366) ==
 == 9-th k-point nmo = 68 (0.22266,0.22266,-0.77932) ==
 == 10-th k-point nmo = 68 (0.27833,0.27833,-0.83499) ==
 == 11-th k-point nmo = 68 (-0.22266,-0.33400,-0.22266) ==
 == 12-th k-point nmo = 68 (-0.16700,-0.27833,-0.27833) ==
 == 13-th k-point nmo = 68 (-0.11133,-0.22266,-0.33400) ==
 == 14-th k-point nmo = 68 (-0.05567,-0.16700,-0.38966) ==
 == 15-th k-point nmo = 68 (-0.00000,-0.11133,-0.44533) ==
 == 16-th k-point nmo = 68 (0.05567,-0.05567,-0.50099) ==
 == 17-th k-point nmo = 68 (0.11133,-0.00000,-0.55666) ==
 == 18-th k-point nmo = 68 (0.16700,0.05567,-0.61232) ==
 == 19-th k-point nmo = 68 (0.22266,0.11133,-0.66799) ==
 == 20-th k-point nmo = 68 (0.27833,0.16700,-0.72366) ==
 == 21-th k-point nmo = 68 (0.33400,0.22266,-0.77932) ==
 == 22-th k-point nmo = 68 (-0.16700,-0.38966,-0.16700) ==
 == 23-th k-point nmo = 68 (-0.11133,-0.33400,-0.22266) ==
 == 24-th k-point nmo = 68 (-0.05567,-0.27833,-0.27833) ==
 == 25-th k-point nmo = 68 (-0.00000,-0.22266,-0.33400) ==
 == 26-th k-point nmo = 68 (0.05567,-0.16700,-0.38966) ==
 == 27-th k-point nmo = 68 (0.11133,-0.11133,-0.44533) ==
 == 28-th k-point nmo = 68 (0.16700,-0.05567,-0.50099) ==
 == 29-th k-point nmo = 68 (0.22266,-0.00000,-0.55666) ==
 == 30-th k-point nmo = 68 (0.27833,0.05567,-0.61232) ==
 == 31-th k-point nmo = 68 (0.33400,0.11133,-0.66799) ==
 == 32-th k-point nmo = 68 (0.38966,0.16700,-0.72366) ==
 == 33-th k-point nmo = 68 (-0.11133,-0.44533,-0.11133) ==
 == 34-th k-point nmo = 68 (-0.05567,-0.38966,-0.16700) ==
 == 35-th k-point nmo = 68 (-0.00000,-0.33400,-0.22266) ==
 == 36-th k-point nmo = 68 (0.05567,-0.27833,-0.27833) ==
 == 37-th k-point nmo = 68 (0.11133,-0.22266,-0.33400) ==
 == 38-th k-point nmo = 68 (0.16700,-0.16700,-0.38966) ==
 == 39-th k-point nmo = 68 (0.22266,-0.11133,-0.44533) ==
 == 40-th k-point nmo = 68 (0.27833,-0.05567,-0.50099) ==
 == 41-th k-point nmo = 68 (0.33400,0.00000,-0.55666) ==
 == 42-th k-point nmo = 68 (0.38966,0.05567,-0.61232) ==
 == 43-th k-point nmo = 68 (0.44533,0.11133,-0.66799) ==
 == 44-th k-point nmo = 68 (-0.05567,-0.50099,-0.05567) ==
 == 45-th k-point nmo = 68 (-0.00000,-0.44533,-0.11133) ==
 == 46-th k-point nmo = 68 (0.05567,-0.38966,-0.16700) ==
 == 47-th k-point nmo = 68 (0.11133,-0.33400,-0.22266) ==
 == 48-th k-point nmo = 68 (0.16700,-0.27833,-0.27833) ==
 == 49-th k-point nmo = 68 (0.22266,-0.22266,-0.33400) ==
 == 50-th k-point nmo = 68 (0.27833,-0.16700,-0.38966) ==
 == 51-th k-point nmo = 68 (0.33400,-0.11133,-0.44533) ==
 == 52-th k-point nmo = 68 (0.38966,-0.05567,-0.50099) ==
 == 53-th k-point nmo = 68 (0.44533,0.00000,-0.55666) ==
 == 54-th k-point nmo = 68 (0.50099,0.05567,-0.61232) ==
 == 55-th k-point nmo = 68 (-0.00000,-0.55666,0.00000) ==
 == 56-th k-point nmo = 68 (0.05567,-0.50099,-0.05567) ==
 == 57-th k-point nmo = 68 (0.11133,-0.44533,-0.11133) ==
 == 58-th k-point nmo = 68 (0.16700,-0.38966,-0.16700) ==
 == 59-th k-point nmo = 68 (0.22266,-0.33400,-0.22266) ==
 == 60-th k-point nmo = 68 (0.27833,-0.27833,-0.27833) ==
 == 61-th k-point nmo = 68 (0.33400,-0.22266,-0.33400) ==
 == 62-th k-point nmo = 68 (0.38966,-0.16700,-0.38966) ==
 == 63-th k-point nmo = 68 (0.44533,-0.11133,-0.44533) ==
 == 64-th k-point nmo = 68 (0.50099,-0.05567,-0.50099) ==
 == 65-th k-point nmo = 68 (0.55666,0.00000,-0.55666) ==
 == 66-th k-point nmo = 68 (0.05567,-0.61232,0.05567) ==
 == 67-th k-point nmo = 68 (0.11133,-0.55666,0.00000) ==
 == 68-th k-point nmo = 68 (0.16700,-0.50099,-0.05567) ==
 == 69-th k-point nmo = 68 (0.22266,-0.44533,-0.11133) ==
 == 70-th k-point nmo = 68 (0.27833,-0.38966,-0.16700) ==
 == 71-th k-point nmo = 68 (0.33400,-0.33400,-0.22266) ==
 == 72-th k-point nmo = 68 (0.38966,-0.27833,-0.27833) ==
 == 73-th k-point nmo = 68 (0.44533,-0.22266,-0.33400) ==
 == 74-th k-point nmo = 68 (0.50099,-0.16700,-0.38966) ==
 == 75-th k-point nmo = 68 (0.55666,-0.11133,-0.44533) ==
 == 76-th k-point nmo = 68 (0.61232,-0.05567,-0.50099) ==
 == 77-th k-point nmo = 68 (0.11133,-0.66799,0.11133) ==
 == 78-th k-point nmo = 68 (0.16700,-0.61232,0.05567) ==
 == 79-th k-point nmo = 68 (0.22266,-0.55666,0.00000) ==
 == 80-th k-point nmo = 68 (0.27833,-0.50099,-0.05567) ==
 == 81-th k-point nmo = 68 (0.33400,-0.44533,-0.11133) ==
 == 82-th k-point nmo = 68 (0.38966,-0.38966,-0.16700) ==
 == 83-th k-point nmo = 68 (0.44533,-0.33400,-0.22266) ==
 == 84-th k-point nmo = 68 (0.50099,-0.27833,-0.27833) ==
 == 85-th k-point nmo = 68 (0.55666,-0.22266,-0.33400) ==
 == 86-th k-point nmo = 68 (0.61232,-0.16700,-0.38966) ==
 == 87-th k-point nmo = 68 (0.66799,-0.11133,-0.44533) ==
 == 88-th k-point nmo = 68 (0.16700,-0.72366,0.16700) ==
 == 89-th k-point nmo = 68 (0.22266,-0.66799,0.11133) ==
 == 90-th k-point nmo = 68 (0.27833,-0.61232,0.05567) ==
 == 91-th k-point nmo = 68 (0.33400,-0.55666,0.00000) ==
 == 92-th k-point nmo = 68 (0.38966,-0.50099,-0.05567) ==
 == 93-th k-point nmo = 68 (0.44533,-0.44533,-0.11133) ==
 == 94-th k-point nmo = 68 (0.50099,-0.38966,-0.16700) ==
 == 95-th k-point nmo = 68 (0.55666,-0.33400,-0.22266) ==
 == 96-th k-point nmo = 68 (0.61232,-0.27833,-0.27833) ==
 == 97-th k-point nmo = 68 (0.66799,-0.22266,-0.33400) ==
 == 98-th k-point nmo = 68 (0.72366,-0.16700,-0.38966) ==
 == 99-th k-point nmo = 68 (0.22266,-0.77932,0.22266) ==
 == 100-th k-point nmo = 68 (0.27833,-0.72366,0.16700) ==
 == 101-th k-point nmo = 68 (0.33400,-0.66799,0.11133) ==
 == 102-th k-point nmo = 68 (0.38966,-0.61232,0.05567) ==
 == 103-th k-point nmo = 68 (0.44533,-0.55666,0.00000) ==
 == 104-th k-point nmo = 68 (0.50099,-0.50099,-0.05567) ==
 == 105-th k-point nmo = 68 (0.55666,-0.44533,-0.11133) ==
 == 106-th k-point nmo = 68 (0.61232,-0.38966,-0.16700) ==
 == 107-th k-point nmo = 68 (0.66799,-0.33400,-0.22266) ==
 == 108-th k-point nmo = 68 (0.72366,-0.27833,-0.27833) ==
 == 109-th k-point nmo = 68 (0.77932,-0.22266,-0.33400) ==
 == 110-th k-point nmo = 68 (0.27833,-0.83499,0.27833) ==
 == 111-th k-point nmo = 68 (0.33400,-0.77932,0.22266) ==
 == 112-th k-point nmo = 68 (0.38966,-0.72366,0.16700) ==
 == 113-th k-point nmo = 68 (0.44533,-0.66799,0.11133) ==
 == 114-th k-point nmo = 68 (0.50099,-0.61232,0.05567) ==
 == 115-th k-point nmo = 68 (0.55666,-0.55666,0.00000) ==
 == 116-th k-point nmo = 68 (0.61232,-0.50099,-0.05567) ==
 == 117-th k-point nmo = 68 (0.66799,-0.44533,-0.11133) ==
 == 118-th k-point nmo = 68 (0.72366,-0.38966,-0.16700) ==
 == 119-th k-point nmo = 68 (0.77932,-0.33400,-0.22266) ==
 == 120-th k-point nmo = 68 (0.83499,-0.27833,-0.27833) ==
 == 121-th k-point nmo = 68 (-0.33400,-0.22266,-0.22266) ==
 == 122-th k-point nmo = 68 (-0.27833,-0.16700,-0.27833) ==
 == 123-th k-point nmo = 68 (-0.22266,-0.11133,-0.33400) ==
 == 124-th k-point nmo = 68 (-0.16700,-0.05567,-0.38966) ==
 == 125-th k-point nmo = 68 (-0.11133,-0.00000,-0.44533) ==
 == 126-th k-point nmo = 68 (-0.05567,0.05567,-0.50099) ==
 == 127-th k-point nmo = 68 (-0.00000,0.11133,-0.55666) ==
 == 128-th k-point nmo = 68 (0.05567,0.16700,-0.61232) ==
 == 129-th k-point nmo = 68 (0.11133,0.22266,-0.66799) ==
 == 130-th k-point nmo = 68 (0.16700,0.27833,-0.72366) ==
 == 131-th k-point nmo = 68 (0.22266,0.33400,-0.77932) ==
 == 132-th k-point nmo = 68 (-0.27833,-0.27833,-0.16700) ==
 == 133-th k-point nmo = 68 (-0.22266,-0.22266,-0.22266) ==
 == 134-th k-point nmo = 68 (-0.16700,-0.16700,-0.27833) ==
 == 135-th k-point nmo = 68 (-0.11133,-0.11133,-0.33400) ==
 == 136-th k-point nmo = 68 (-0.05567,-0.05567,-0.38966) ==
 == 137-th k-point nmo = 68 (-0.00000,-0.00000,-0.44533) ==
 == 138-th k-point nmo = 68 (0.05567,0.05567,-0.50099) ==
 == 139-th k-point nmo = 68 (0.11133,0.11133,-0.55666) ==
 == 140-th k-point nmo = 68 (0.16700,0.16700,-0.61232) ==
 == 141-th k-point nmo = 68 (0.22266,0.22266,-0.66799) ==
 == 142-th k-point nmo = 68 (0.27833,0.27833,-0.72366) ==
 == 143-th k-point nmo = 68 (-0.22266,-0.33400,-0.11133) ==
 == 144-th k-point nmo = 68 (-0.16700,-0.27833,-0.16700) ==
 == 145-th k-point nmo = 68 (-0.11133,-0.22266,-0.22266) ==
 == 146-th k-point nmo = 68 (-0.05567,-0.16700,-0.27833) ==
 == 147-th k-point nmo = 68 (-0.00000,-0.11133,-0.33400) ==
 == 148-th k-point nmo = 68 (0.05567,-0.05567,-0.38966) ==
 == 149-th k-point nmo = 68 (0.11133,-0.00000,-0.44533) ==
 == 150-th k-point nmo = 68 (0.16700,0.05567,-0.50099) ==
 == 151-th k-point nmo = 68 (0.22266,0.11133,-0.55666) ==
 == 152-th k-point nmo = 68 (0.27833,0.16700,-0.61232) ==
 == 153-th k-point nmo = 68 (0.33400,0.22266,-0.66799) ==
 == 154-th k-point nmo = 68 (-0.16700,-0.38966,-0.05567) ==
 == 155-th k-point nmo = 68 (-0.11133,-0.33400,-0.11133) ==
 == 156-th k-point nmo = 68 (-0.05567,-0.27833,-0.16700) ==
 == 157-th k-point nmo = 68 (-0.00000,-0.22266,-0.22266) ==
 == 158-th k-point nmo = 68 (0.05567,-0.16700,-0.27833) ==
 == 159-th k-point nmo = 68 (0.11133,-0.11133,-0.33400) ==
 == 160-th k-point nmo = 68 (0.16700,-0.05567,-0.38966) ==
 == 161-th k-point nmo = 68 (0.22266,-0.00000,-0.44533) ==
 == 162-th k-point nmo = 68 (0.27833,0.05567,-0.50099) ==
 == 163-th k-point nmo = 68 (0.33400,0.11133,-0.55666) ==
 == 164-th k-point nmo = 68 (0.38966,0.16700,-0.61232) ==
 == 165-th k-point nmo = 68 (-0.11133,-0.44533,0.00000) ==
 == 166-th k-point nmo = 68 (-0.05567,-0.38966,-0.05567) ==
 == 167-th k-point nmo = 68 (-0.00000,-0.33400,-0.11133) ==
 == 168-th k-point nmo = 68 (0.05567,-0.27833,-0.16700) ==
 == 169-th k-point nmo = 68 (0.11133,-0.22266,-0.22266) ==
 == 170-th k-point nmo = 68 (0.16700,-0.16700,-0.27833) ==
 == 171-th k-point nmo = 68 (0.22266,-0.11133,-0.33400) ==
 == 172-th k-point nmo = 68 (0.27833,-0.05567,-0.38966) ==
 == 173-th k-point nmo = 68 (0.33400,-0.00000,-0.44533) ==
 == 174-th k-point nmo = 68 (0.38966,0.05567,-0.50099) ==
 == 175-th k-point nmo = 68 (0.44533,0.11133,-0.55666) ==
 == 176-th k-point nmo = 68 (-0.05567,-0.50099,0.05567) ==
 == 177-th k-point nmo = 68 (-0.00000,-0.44533,0.00000) ==
 == 178-th k-point nmo = 68 (0.05567,-0.38966,-0.05567) ==
 == 179-th k-point nmo = 68 (0.11133,-0.33400,-0.11133) ==
 == 180-th k-point nmo = 68 (0.16700,-0.27833,-0.16700) ==
 == 181-th k-point nmo = 68 (0.22266,-0.22266,-0.22266) ==
 == 182-th k-point nmo = 68 (0.27833,-0.16700,-0.27833) ==
 == 183-th k-point nmo = 68 (0.33400,-0.11133,-0.33400) ==
 == 184-th k-point nmo = 68 (0.38966,-0.05567,-0.38966) ==
 == 185-th k-point nmo = 68 (0.44533,0.00000,-0.44533) ==
 == 186-th k-point nmo = 68 (0.50099,0.05567,-0.50099) ==
 == 187-th k-point nmo = 68 (-0.00000,-0.55666,0.11133) ==
[...]
 2.98769 3.06798 3.68800 3.70118 3.75496 3.77343 6.38752 6.61284
 == 1301-th k-point (-0.22266,0.00000,0.55666) occupation: 14==
 -64.99276 -64.99275 -4.62159 -4.62155 -3.03250 -3.03250 -3.03215 -3.03207 -3.03172 -3.03172
 -0.02705 0.01358 0.13316 0.14727 0.38827 0.39610 0.48564 0.54506 0.63865 0.69486
 0.74487 0.79297 0.86206 0.89835 0.91557 0.97121 0.98181 1.03770 1.07232 1.07662
 1.15728 1.19344 1.23396 1.31236 1.43349 1.48120 1.51223 1.51771 1.57017 1.59183
 1.75880 1.77046 1.84486 1.85359 1.94219 1.95865 2.00898 2.01996 2.07084 2.12110
 2.18259 2.19826 2.27219 2.30875 2.39760 2.44957 2.49116 2.49575 2.66366 2.73184
 2.95443 3.09317 3.65356 3.75358 3.77064 3.77802 6.50820 6.59313
 == 1302-th k-point (-0.16700,0.05567,0.50099) occupation: 14==
 -64.99276 -64.99275 -4.62161 -4.62153 -3.03250 -3.03248 -3.03220 -3.03203 -3.03174 -3.03172
 -0.05200 0.03650 0.13930 0.17090 0.34242 0.39182 0.50112 0.58081 0.62661 0.69972
 0.73076 0.79443 0.82710 0.84720 0.92191 0.95620 1.02386 1.05129 1.06241 1.13099
 1.15982 1.19611 1.23913 1.33134 1.42304 1.48094 1.53430 1.56787 1.61393 1.67527
 1.71595 1.74929 1.81942 1.86048 1.88822 1.92686 2.00934 2.01518 2.07926 2.12684
 2.17043 2.22956 2.27925 2.34698 2.37885 2.41357 2.43262 2.51948 2.63025 2.74782
 2.95466 3.20002 3.59300 3.77317 3.84097 3.90634 6.23561 7.15491
 == 1303-th k-point (-0.11133,0.11133,0.44533) occupation: 14==
 -64.99277 -64.99274 -4.62162 -4.62151 -3.03250 -3.03249 -3.03224 -3.03199 -3.03175 -3.03173
 -0.07367 0.05820 0.15262 0.18830 0.32661 0.39863 0.51102 0.51894 0.68921 0.70617
 0.71727 0.72020 0.79648 0.86288 0.92379 0.98291 0.98631 1.01816 1.09797 1.14839
 1.22960 1.23936 1.25720 1.39893 1.40532 1.45744 1.54801 1.54986 1.65186 1.66985
 1.71413 1.72243 1.80092 1.81919 1.85860 1.96365 2.04016 2.04087 2.07160 2.08350
 2.16015 2.25399 2.29019 2.31898 2.37352 2.39153 2.42695 2.52760 2.55503 2.74646
 3.22479 3.39251 3.53012 3.79991 3.92704 4.03068 5.65300 7.88224
 == 1304-th k-point (-0.05567,0.16700,0.38966) occupation: 14==
 -64.99277 -64.99275 -4.62164 -4.62150 -3.03249 -3.03248 -3.03228 -3.03196 -3.03176 -3.03174
 -0.08943 0.07730 0.15966 0.19574 0.35618 0.41549 0.45098 0.51672 0.63015 0.67683
 0.72324 0.75019 0.80606 0.83793 0.90990 0.96885 1.00419 1.05290 1.10953 1.17993
 1.22802 1.26299 1.32113 1.40827 1.41878 1.44270 1.54544 1.56144 1.59979 1.66279
 1.68905 1.70550 1.76872 1.85458 1.88813 1.95662 1.98732 2.02357 2.05727 2.14253
 2.16369 2.21755 2.25645 2.31760 2.36059 2.40036 2.41738 2.50620 2.58601 2.75874
 3.10827 3.43340 3.49321 3.86297 3.92564 4.01312 6.45296 7.60952
 == 1305-th k-point (0.00000,0.22266,0.33400) occupation: 14==
 -64.99277 -64.99276 -4.62165 -4.62149 -3.03248 -3.03247 -3.03231 -3.03193 -3.03178 -3.03175
 -0.09835 0.08881 0.15035 0.21976 0.39936 0.40306 0.45086 0.49079 0.56296 0.66677
 0.72584 0.74694 0.78579 0.88531 0.89167 0.99056 0.99168 1.10177 1.10671 1.22347
 1.24618 1.25382 1.32587 1.37816 1.42169 1.47068 1.55175 1.55419 1.57859 1.65663
 1.68971 1.71558 1.74312 1.84083 1.92419 1.93248 1.94101 2.02213 2.07604 2.15180
 2.16486 2.19338 2.23919 2.32781 2.38263 2.38427 2.47507 2.50505 2.62522 2.71418
 2.94881 3.46964 3.48520 3.90539 3.97145 4.00452 7.00403 7.45644
 == 1306-th k-point (0.05567,0.27833,0.27833) occupation: 14==
 -64.99277 -64.99276 -4.62165 -4.62149 -3.03247 -3.03247 -3.03232 -3.03191 -3.03178 -3.03175
 -0.10010 0.08191 0.15837 0.23448 0.37567 0.43405 0.43928 0.51217 0.52651 0.65359
 0.72185 0.73350 0.79855 0.88976 0.91335 0.94418 1.02161 1.11385 1.15650 1.19973
 1.23261 1.27286 1.34610 1.38969 1.41882 1.42430 1.52369 1.58476 1.58669 1.64091
 1.65727 1.76674 1.76879 1.78667 1.89566 1.91488 1.96223 2.05452 2.07122 2.13654
 2.18376 2.19327 2.31229 2.33327 2.37433 2.40811 2.51164 2.53547 2.62150 2.64064
 2.95752 3.47414 3.50023 3.90483 3.96624 4.05960 6.95680 7.63302
 == 1307-th k-point (0.11133,0.33400,0.22266) occupation: 14==
 -64.99277 -64.99275 -4.62165 -4.62149 -3.03248 -3.03248 -3.03232 -3.03191 -3.03178 -3.03175
 -0.09472 0.06595 0.17737 0.22021 0.37710 0.40177 0.45583 0.49165 0.60288 0.64430
 0.71531 0.72852 0.80768 0.85755 0.92579 0.95691 1.02284 1.10866 1.14293 1.18802
 1.22969 1.28966 1.33824 1.38389 1.44392 1.48561 1.48979 1.52761 1.56142 1.61857
 1.65471 1.75729 1.78226 1.82139 1.89239 1.93648 1.99070 2.03225 2.05980 2.14343
 2.21670 2.23658 2.27976 2.32306 2.39527 2.44480 2.46937 2.52479 2.57729 2.65350
 3.14182 3.47403 3.49987 3.84652 3.98248 4.05337 6.34714 7.90023
 == 1308-th k-point (0.16700,0.38966,0.16700) occupation: 14==
 -64.99277 -64.99274 -4.62163 -4.62150 -3.03249 -3.03249 -3.03229 -3.03194 -3.03176 -3.03175
 -0.08257 0.05154 0.17373 0.20476 0.34859 0.44271 0.46331 0.47358 0.64847 0.69073
 0.70996 0.71740 0.75844 0.88280 0.95789 0.96747 1.02480 1.06432 1.10357 1.17758
 1.20180 1.31234 1.32865 1.39470 1.41752 1.46652 1.49211 1.52562 1.59590 1.63357
 1.64006 1.74275 1.79380 1.81266 1.88022 1.98554 2.00276 2.01111 2.08568 2.14116
 2.20836 2.26251 2.28960 2.33648 2.40674 2.41584 2.43138 2.52262 2.56359 2.66518
 3.30418 3.50094 3.50870 3.76758 3.98519 4.01726 5.78984 8.08541
 == 1309-th k-point (-0.33400,-0.22266,0.77932) occupation: 14==
 -64.99277 -64.99274 -4.62163 -4.62151 -3.03248 -3.03248 -3.03230 -3.03193 -3.03177 -3.03175
 -0.07191 0.02952 0.17378 0.21227 0.37658 0.39398 0.45370 0.54618 0.60381 0.65201
 0.69856 0.75194 0.78571 0.85449 0.94907 1.03729 1.04874 1.06778 1.12194 1.15765
 1.21854 1.31597 1.32964 1.35188 1.42854 1.43991 1.48777 1.51213 1.55791 1.63014
 1.65559 1.72504 1.79577 1.85169 1.89421 1.93368 1.95753 2.02698 2.08011 2.18434
 2.20587 2.25652 2.31182 2.37131 2.44305 2.45741 2.49016 2.51211 2.57348 2.61544
 3.17530 3.33661 3.55254 3.67292 3.99931 4.06544 6.17281 7.58333
 == 1310-th k-point (-0.27833,-0.16700,0.72366) occupation: 14==
 -64.99276 -64.99275 -4.62161 -4.62152 -3.03249 -3.03248 -3.03225 -3.03198 -3.03175 -3.03173
 -0.05457 0.02676 0.13702 0.19323 0.36937 0.42625 0.51085 0.53040 0.54808 0.65464
 0.73493 0.76748 0.86572 0.88713 0.93196 0.97597 1.01433 1.05716 1.08931 1.13308
 1.22280 1.25419 1.29070 1.35223 1.39001 1.45238 1.49026 1.51179 1.58425 1.64042
 1.67385 1.77710 1.79305 1.84656 1.89074 1.92025 1.93134 2.01585 2.10429 2.14698
 2.19092 2.25871 2.27486 2.35214 2.44919 2.45339 2.47514 2.54998 2.59132 2.69417
 2.98516 3.22204 3.61443 3.65547 3.91036 3.97561 6.29503 7.15437
 == 1311-th k-point (-0.22266,-0.11133,0.66799) occupation: 14==
 -64.99276 -64.99275 -4.62160 -4.62154 -3.03250 -3.03248 -3.03219 -3.03204 -3.03174 -3.03171
 -0.03454 0.01795 0.11996 0.17524 0.35047 0.45075 0.48960 0.54921 0.58054 0.65832
 0.77057 0.81082 0.86556 0.88444 0.93390 0.96410 0.98356 1.01637 1.09804 1.12454
 1.14245 1.22117 1.24872 1.33969 1.39940 1.42801 1.50733 1.55464 1.57925 1.61582
 1.76294 1.81121 1.81697 1.84623 1.89857 1.93923 1.96709 2.01065 2.06034 2.15135
 2.18864 2.24041 2.29002 2.36488 2.39226 2.44718 2.44935 2.56453 2.60253 2.70598
 2.94631 3.10168 3.65713 3.68306 3.83945 3.85900 6.10102 7.03495
 == 1312-th k-point (-0.16700,-0.05567,0.61232) occupation: 14==
 -64.99276 -64.99275 -4.62158 -4.62156 -3.03250 -3.03249 -3.03214 -3.03209 -3.03173 -3.03172
 -0.01523 -0.00142 0.13144 0.16309 0.33752 0.38409 0.55452 0.56325 0.64198 0.66742
 0.76432 0.79563 0.86049 0.88649 0.90997 0.93109 0.99904 1.04401 1.08231 1.10356
 1.16858 1.16933 1.22000 1.24676 1.43812 1.48898 1.53782 1.53800 1.61013 1.63806
 1.78979 1.80722 1.82953 1.83656 1.91096 1.94285 2.00476 2.02118 2.06966 2.12526
 2.19822 2.21029 2.29978 2.32884 2.39237 2.41787 2.46560 2.55712 2.66140 2.70706
 2.97365 2.98494 3.68877 3.72282 3.79788 3.84127 6.15123 6.95551
 == 1313-th k-point (-0.11133,0.00000,0.55666) occupation: 14==
 -64.99275 -64.99275 -4.62159 -4.62155 -3.03250 -3.03249 -3.03215 -3.03207 -3.03173 -3.03173
 -0.03401 0.01513 0.15591 0.16037 0.32699 0.33718 0.57177 0.62265 0.65240 0.70495
 0.73125 0.78498 0.79523 0.85594 0.90893 0.96491 1.02166 1.05590 1.07129 1.08128
 1.17715 1.17825 1.20105 1.25327 1.45017 1.45813 1.58170 1.58632 1.67749 1.69642
 1.74947 1.79661 1.82741 1.83007 1.89864 1.91796 1.99679 2.07556 2.10613 2.13311
 2.16893 2.20795 2.28604 2.31934 2.36148 2.38710 2.49004 2.54406 2.67631 2.75543
 2.90148 3.06930 3.67647 3.78331 3.85151 3.92828 6.50784 6.51525
 == 1314-th k-point (-0.05567,0.05567,0.50099) occupation: 14==
 -64.99276 -64.99274 -4.62161 -4.62153 -3.03250 -3.03250 -3.03219 -3.03203 -3.03175 -3.03174
 -0.05827 0.04190 0.16061 0.17642 0.30875 0.33959 0.58077 0.58108 0.70765 0.70997
 0.72311 0.72702 0.81847 0.85044 0.87910 0.97019 0.97640 1.01633 1.11067 1.16571
 1.17132 1.20500 1.22274 1.31276 1.41060 1.44739 1.60833 1.61008 1.67399 1.72112
 1.75044 1.77278 1.81599 1.83774 1.85014 1.93182 2.00694 2.01816 2.13774 2.14503
 2.14966 2.20179 2.28763 2.31822 2.33108 2.37165 2.46310 2.54706 2.57383 2.81873
 3.13986 3.21291 3.61326 3.83963 3.96143 4.11183 5.52580 6.98402
 == 1315-th k-point (0.00000,0.11133,0.44533) occupation: 14==
 -64.99275 -64.99275 -4.62163 -4.62151 -3.03250 -3.03249 -3.03223 -3.03200 -3.03175 -3.03174
 -0.07716 0.06691 0.16309 0.17752 0.32941 0.36151 0.51441 0.56729 0.65901 0.69938
 0.72092 0.78117 0.80325 0.83550 0.90259 0.92001 0.99081 1.02140 1.14192 1.16074
 1.19912 1.23629 1.28451 1.33902 1.42608 1.43219 1.58149 1.60274 1.63641 1.69767
 1.72339 1.73034 1.80015 1.84613 1.86853 1.91837 1.98430 2.08463 2.09001 2.11883
 2.15774 2.21423 2.23816 2.33043 2.33092 2.38009 2.39681 2.51493 2.57956 2.84739
 3.11129 3.35164 3.52684 3.86698 3.88354 4.04732 6.67398 6.74828
 == 1316-th k-point (0.05567,0.16700,0.38966) occupation: 14==
 -64.99277 -64.99275 -4.62164 -4.62150 -3.03249 -3.03248 -3.03228 -3.03196 -3.03176 -3.03174
 -0.08943 0.07730 0.15966 0.19574 0.35618 0.41549 0.45098 0.51672 0.63015 0.67683
 0.72324 0.75019 0.80606 0.83793 0.90990 0.96885 1.00419 1.05290 1.10953 1.17993
 1.22802 1.26300 1.32113 1.40827 1.41877 1.44270 1.54544 1.56144 1.59979 1.66278
 1.68905 1.70550 1.76871 1.85457 1.88813 1.95661 1.98732 2.02355 2.05727 2.14253
 2.16368 2.21753 2.25645 2.31757 2.36059 2.40033 2.41738 2.50618 2.58598 2.75871
 3.10826 3.43339 3.49321 3.86296 3.92563 4.01312 6.45291 7.60943
 == 1317-th k-point (0.11133,0.22266,0.33400) occupation: 14==
 -64.99277 -64.99275 -4.62165 -4.62149 -3.03248 -3.03248 -3.03232 -3.03191 -3.03178 -3.03175
 -0.09472 0.06595 0.17737 0.22021 0.37710 0.40177 0.45583 0.49165 0.60288 0.64430
 0.71531 0.72852 0.80768 0.85755 0.92579 0.95691 1.02284 1.10866 1.14293 1.18802
 1.22969 1.28966 1.33824 1.38389 1.44392 1.48561 1.48979 1.52761 1.56142 1.61857
 1.65471 1.75729 1.78226 1.82139 1.89239 1.93648 1.99070 2.03225 2.05980 2.14343
 2.21670 2.23658 2.27976 2.32306 2.39527 2.44480 2.46937 2.52479 2.57729 2.65350
 3.14182 3.47403 3.49987 3.84652 3.98248 4.05337 6.34714 7.90023
 == 1318-th k-point (0.16700,0.27833,0.27833) occupation: 14==
 -64.99278 -64.99273 -4.62164 -4.62149 -3.03248 -3.03247 -3.03234 -3.03189 -3.03178 -3.03177
 -0.09314 0.04906 0.20231 0.23413 0.35915 0.40815 0.41140 0.56470 0.58116 0.62547
 0.69993 0.72919 0.81859 0.82426 0.91485 0.98645 1.05413 1.14897 1.16199 1.20194
 1.23010 1.24850 1.34894 1.39869 1.44328 1.45848 1.46455 1.52149 1.55588 1.59638
 1.62061 1.72602 1.84657 1.85315 1.89728 1.91487 2.02657 2.03491 2.03621 2.18300
 2.23630 2.27869 2.28149 2.36206 2.43669 2.45466 2.49446 2.51947 2.52930 2.58517
 3.20584 3.48158 3.49119 3.78155 4.04117 4.08762 5.34358 8.07110
 == 1319-th k-point (0.22266,0.33400,0.22266) occupation: 14==
 -64.99277 -64.99272 -4.62164 -4.62149 -3.03248 -3.03248 -3.03233 -3.03189 -3.03178 -3.03177
 -0.08522 0.03617 0.21032 0.22186 0.35624 0.39903 0.42143 0.55136 0.61088 0.67198
 0.69253 0.72185 0.75491 0.83739 0.94003 1.01894 1.06925 1.10857 1.15409 1.18132
 1.24058 1.30195 1.32470 1.38464 1.40721 1.45773 1.49636 1.50566 1.55254 1.59694
 1.60985 1.71096 1.84090 1.85262 1.90781 1.95885 2.00134 2.02112 2.06519 2.17835
 2.25683 2.28451 2.30773 2.38033 2.44715 2.45955 2.47092 2.49756 2.53925 2.57687
 3.36324 3.49431 3.49874 3.70635 4.06761 4.07090 4.85778 8.04218
 == 1320-th k-point (-0.27833,-0.27833,0.83499) occupation: 14==
 -64.99277 -64.99272 -4.62163 -4.62150 -3.03248 -3.03247 -3.03232 -3.03189 -3.03178 -3.03176
 -0.07517 0.02125 0.20367 0.22562 0.35540 0.40111 0.41452 0.57702 0.63033 0.64369
 0.69622 0.74651 0.75737 0.78285 0.99732 1.03839 1.08766 1.09709 1.14344 1.15963
 1.25797 1.27438 1.33710 1.36711 1.39216 1.45999 1.47697 1.51062 1.57852 1.59117
 1.64613 1.67031 1.84098 1.87235 1.94045 1.95436 1.96107 2.03948 2.04608 2.12901
 2.31988 2.33278 2.36148 2.38466 2.39609 2.45384 2.49106 2.50155 2.51852 2.54934
 3.28783 3.40810 3.53996 3.61047 4.07116 4.09754 4.86594 7.68623
 == 1321-th k-point (-0.22266,-0.22266,0.77932) occupation: 14==
 -64.99277 -64.99274 -4.62162 -4.62151 -3.03248 -3.03248 -3.03228 -3.03194 -3.03176 -3.03174
 -0.06462 0.02514 0.16125 0.20961 0.35247 0.43789 0.45243 0.53459 0.61579 0.63846
 0.71335 0.76336 0.78092 0.87068 0.98944 0.99784 1.03582 1.07756 1.10420 1.11537
 1.24129 1.29875 1.31579 1.33414 1.42951 1.43534 1.46922 1.53926 1.59355 1.62671
 1.66118 1.73628 1.80535 1.82818 1.89309 1.91943 1.96812 2.01226 2.09477 2.18200
 2.20065 2.26530 2.32664 2.36112 2.41048 2.44330 2.46899 2.54054 2.54323 2.64661
 3.17084 3.34909 3.58582 3.62964 3.99771 4.03310 5.97573 7.59967
 == 1322-th k-point (-0.16700,-0.16700,0.72366) occupation: 14==
 -64.99277 -64.99274 -4.62161 -4.62153 -3.03249 -3.03249 -3.03223 -3.03200 -3.03175 -3.03172
 -0.05088 0.02837 0.13144 0.19247 0.33172 0.45415 0.50447 0.50662 0.63094 0.63998
 0.77346 0.77702 0.78908 0.93947 0.95052 0.96399 0.98935 1.03731 1.05832 1.15410
 1.20093 1.22265 1.23096 1.39235 1.41821 1.45257 1.46309 1.52833 1.62690 1.67255
 1.73319 1.76599 1.81013 1.82951 1.87481 1.92069 1.99477 1.99572 2.09412 2.13458
 2.17190 2.27556 2.29723 2.38371 2.39815 2.40989 2.43954 2.53421 2.56972 2.70358
 3.08143 3.18854 3.60212 3.69361 3.91795 3.95107 5.69598 7.62640
 == 1323-th k-point (-0.11133,-0.11133,0.66799) occupation: 14==
 -64.99277 -64.99274 -4.62159 -4.62155 -3.03249 -3.03248 -3.03217 -3.03206 -3.03175 -3.03172
 -0.03331 0.01539 0.13180 0.17913 0.31516 0.38368 0.57011 0.57563 0.64146 0.64850
 0.78148 0.78571 0.85160 0.86024 0.88413 0.97482 1.01469 1.04458 1.07293 1.14058
 1.14291 1.17571 1.20490 1.29877 1.41271 1.49933 1.52498 1.53990 1.68064 1.70893
 1.77737 1.79220 1.81314 1.85541 1.86095 1.93476 2.01709 2.03243 2.05091 2.14048
 2.17445 2.23813 2.27807 2.35976 2.37212 2.43093 2.48262 2.50373 2.59243 2.72176
 2.97687 2.99906 3.65035 3.73906 3.85612 3.96536 5.49115 7.53496
 == 1324-th k-point (-0.05567,-0.05567,0.61232) occupation: 14==
 -64.99276 -64.99273 -4.62157 -4.62157 -3.03249 -3.03248 -3.03212 -3.03210 -3.03175 -3.03173
 -0.01288 -0.00881 0.15443 0.17162 0.30637 0.32801 0.62732 0.63546 0.66210 0.67061
 0.77174 0.77634 0.77801 0.79786 0.95549 0.98699 1.03605 1.05151 1.07903 1.08332
 1.10477 1.15240 1.22645 1.26748 1.41944 1.46239 1.59498 1.59766 1.73089 1.77182
 1.77574 1.78502 1.78818 1.85111 1.88951 1.91883 2.07107 2.08038 2.09531 2.16577
 2.18877 2.19522 2.24303 2.31094 2.35410 2.38534 2.58104 2.58577 2.60173 2.73744
 2.84767 2.91297 3.75986 3.76287 3.92262 4.04760 5.43561 6.88366
 == 1325-th k-point (0.00000,0.00000,0.55666) occupation: 14==
 -64.99273 -64.99273 -4.62159 -4.62155 -3.03249 -3.03249 -3.03215 -3.03207 -3.03176 -3.03176
 -0.03676 0.01499 0.17069 0.17069 0.29958 0.31185 0.63124 0.63124 0.71607 0.71607
 0.72053 0.73155 0.77813 0.78609 0.96215 1.00520 1.00520 1.00577 1.10691 1.10693
 1.12708 1.14903 1.25153 1.29628 1.41882 1.41883 1.63558 1.63559 1.73543 1.74616
 1.76221 1.76985 1.82387 1.88356 1.88356 1.90362 2.03698 2.03743 2.15287 2.15328
 2.19607 2.19626 2.27572 2.27582 2.31192 2.35811 2.56251 2.60321 2.60393 2.77825
 2.99712 2.99770 3.74430 3.90280 4.15462 4.15513 5.39383 5.54401
 == 1326-th k-point (0.05567,0.05567,0.50099) occupation: 14==
 -64.99276 -64.99274 -4.62161 -4.62153 -3.03250 -3.03250 -3.03219 -3.03203 -3.03175 -3.03174
 -0.05827 0.04190 0.16061 0.17642 0.30875 0.33959 0.58077 0.58108 0.70765 0.70997
 0.72311 0.72702 0.81847 0.85044 0.87910 0.97019 0.97639 1.01633 1.11067 1.16572
 1.17132 1.20498 1.22274 1.31276 1.41061 1.44739 1.60833 1.61008 1.67398 1.72113
 1.75044 1.77278 1.81598 1.83774 1.85014 1.93174 2.00700 2.01813 2.13773 2.14504
 2.14966 2.20179 2.28763 2.31823 2.33102 2.37165 2.46297 2.54713 2.57360 2.81858
 3.13966 3.21299 3.61327 3.83962 3.96143 4.11189 5.52579 6.98354
 == 1327-th k-point (0.11133,0.11133,0.44533) occupation: 14==
 -64.99277 -64.99274 -4.62162 -4.62151 -3.03250 -3.03249 -3.03224 -3.03199 -3.03175 -3.03173
 -0.07367 0.05820 0.15262 0.18830 0.32661 0.39863 0.51102 0.51894 0.68921 0.70617
 0.71727 0.72020 0.79648 0.86288 0.92379 0.98291 0.98631 1.01816 1.09797 1.14839
 1.22960 1.23936 1.25720 1.39893 1.40532 1.45744 1.54801 1.54986 1.65180 1.66985
 1.71412 1.72243 1.80091 1.81919 1.85860 1.96363 2.04015 2.04084 2.07161 2.08347
 2.16015 2.25398 2.29018 2.31898 2.37352 2.39152 2.42691 2.52748 2.55495 2.74641
 3.22477 3.39228 3.53013 3.79990 3.92703 4.03065 5.65299 7.88207
 == 1328-th k-point (0.16700,0.16700,0.38966) occupation: 14==
 -64.99277 -64.99274 -4.62163 -4.62150 -3.03249 -3.03249 -3.03229 -3.03194 -3.03176 -3.03175
 -0.08257 0.05154 0.17373 0.20476 0.34859 0.44271 0.46331 0.47358 0.64847 0.69073
 0.70996 0.71740 0.75844 0.88280 0.95789 0.96747 1.02480 1.06432 1.10357 1.17758
 1.20180 1.31234 1.32865 1.39470 1.41752 1.46652 1.49211 1.52562 1.59590 1.63357
 1.64006 1.74275 1.79380 1.81266 1.88022 1.98554 2.00276 2.01111 2.08568 2.14116
 2.20836 2.26251 2.28960 2.33648 2.40674 2.41584 2.43138 2.52262 2.56359 2.66518
 3.30418 3.50094 3.50870 3.76758 3.98519 4.01726 5.78984 8.08541
 == 1329-th k-point (0.22266,0.22266,0.33400) occupation: 14==
 -64.99277 -64.99272 -4.62164 -4.62149 -3.03248 -3.03248 -3.03233 -3.03189 -3.03178 -3.03177
 -0.08522 0.03617 0.21032 0.22186 0.35624 0.39903 0.42143 0.55136 0.61088 0.67198
 0.69253 0.72185 0.75491 0.83739 0.94003 1.01894 1.06925 1.10857 1.15409 1.18132
 1.24058 1.30195 1.32470 1.38464 1.40721 1.45773 1.49636 1.50566 1.55254 1.59694
 1.60985 1.71096 1.84090 1.85262 1.90781 1.95885 2.00134 2.02112 2.06519 2.17835
 2.25683 2.28451 2.30773 2.38033 2.44715 2.45955 2.47092 2.49756 2.53925 2.57687
 3.36324 3.49431 3.49874 3.70635 4.06761 4.07090 4.85778 8.04218
 == 1330-th k-point (0.27833,0.27833,0.27833) occupation: 14==
 -64.99277 -64.99270 -4.62163 -4.62149 -3.03247 -3.03247 -3.03234 -3.03187 -3.03178 -3.03178
 -0.08237 0.02475 0.23134 0.23134 0.33527 0.40254 0.40254 0.56788 0.65528 0.65528
 0.68608 0.73172 0.73172 0.77751 0.97379 1.07993 1.07993 1.08243 1.18247 1.18247
 1.23669 1.29969 1.29969 1.36869 1.36869 1.42024 1.54292 1.54292 1.56276 1.56276
 1.59626 1.66518 1.86641 1.92343 1.94882 1.94882 2.00537 2.01917 2.01917 2.13405
 2.32005 2.32005 2.42081 2.42157 2.42157 2.45437 2.45437 2.49124 2.49124 2.53125
 3.44258 3.44796 3.44796 3.64354 3.69386 4.09596 4.09596 7.89002
 ---------------------------------------------------------------------------
 VBM is at 665-th k-point with 7.51144 eV
 CBM is at 5-th k-point with 8.15198 eV
 Band gap is 0.64054 eV


           Ground-State Mulliken Net Atomic Charges

      Atom                 Charge (a.u.)          Spin (a.u.)
   --------------------------------------------------------
      1 Si              (-0.000000,-0.000000)    (0.000000,0.000000)
      2 Si                (0.000000,0.000000)    (0.000000,0.000000)
   --------------------------------------------------------
  Sum of atomic charges =     (-0.000000,-0.000000)
  Sum of spin   charges =       (0.000000,0.000000)



 Total job time:  410.09 s.
 Tue Sep  9 10:26:30 2025


        *************************************************************
        *                                                           *
        *  Thank you very much for using QCPBC. Have a nice day.    *
        *                                                           *
        *************************************************************

Running job 1 of 1
