                  Welcome to Q-Chem
           with Periodic Boundary Condition
     A Quantum Leap Into The Future Of Chemistry

 Adam Rettig, Xintian Feng, Meng-Fu Chen, Hieu Dinh, Stephen Quiton,
 Anton Ni, Paul J. Robinson, Jinghong Zhang, Joonho Lee

Contributors to earlier versions of Q-Chem not listed above:
 Evgeny Epifanovsky, Leo Cunha, Jerome F. Gonthier, Kuan-Yu Liu
 Input file: /n/netscratch/joonholee_lab/Lab/hieudinh//si_2_ccpvtz_omega_0.9_121212.scratch20250909104932/si_2_ccpvtz_omega_0.9_121212.0
 Scratch folder: /n/netscratch/joonholee_lab/Lab/hieudinh//si_2_ccpvtz_omega_0.9_121212.scratch20250909104932
 Auxillary files located at: /n/holylabs/LABS/joonholee_lab/Lab/qchem_base/qcaux
 Q-Chem begins on Tue Sep  9 10:49:33 2025

 -------------------------------------------------------------
 User input:
 -------------------------------------------------------------
 $lattice
 3
 0.000000 5.130600 5.130600
 5.130600 0.000000 5.130600
 5.130600 5.130600 0.000000
 $end
 
 $unitcell
 ABSOLUTE
 0 1
 Si 0.000000 0.000000 0.000000
 Si 2.565300 2.565300 2.565300
 $end
 
 $rem
 jobtype = sp
 method = pbe
 scf_convergence = 5
 scf_guess = autosad
 scf_algorithm = diis_gdm
 basis = cc-pvtz
 aux_basis = cc-pvtz-jk
 input_bohr = true
 symmetry = false
 rsdf_print_level 1
 is_basis_uctr true
 
 mp_mesh = [12,12,12]
 
 integral_direct true
 bvk_cgto true
 
 thresh 14
 mem_total 1000000
 threads 32
 
 MAX_SCF_CYCLES 500
 madelung = false
 omega 0.9
 do_rij_bigmem true
 automate_g true
 print_level 10
 grid_type_xc 1
 
 thresh_1e2c_sp 1e-14
 thresh_2e3c_bra_ket_sep 1e-10
 thresh_g 1e-12
 $end
 
 -------------------------------------------------------------
 Running PBC job

 Requested Exchange Correlation Functionals: 
  DFT Exchange:  1.00000 pbe_x
  DFT Correlation:  1.00000 pbe_c
 using 32 threads for computing.
 ---------------------------------------------------------------
      Coordinates of Atoms in Central Unit Cell (Angstroms)
    I     Atom         X            Y            Z
 ---------------------------------------------------------------
    1      Si      0.000000     0.000000     0.000000
    2      Si      1.357498     1.357498     1.357498
 ---------------------------------------------------------------
 --------------------------------------------------
              Lattice Vectors (Angstroms)
              X            Y            Z
 --------------------------------------------------
   X       0.000000     2.714997     2.714997
   Y       2.714997     0.000000     2.714997
   Z       2.714997     2.714997     0.000000
 --------------------------------------------------
 --------------------------------------------------
       Reciprocal Lattice Vectors (Angstroms^-1)
              X            Y            Z
 --------------------------------------------------
   X      -1.157126     1.157126     1.157126
   Y       1.157126    -1.157126     1.157126
   Z       1.157126     1.157126    -1.157126
 --------------------------------------------------

 Single point calculation requested

 Hamiltonian contributions:
 List of terms in Hamiltonian: kpts_nn, kpts_kinetic, kpts_vnuc_df, kpts_xc, kpts_rij_bigmem

 K-Points calculation started.

 Basis set information about using solid harmonic (1) or Cartesian (0):
  si : D(1) D(1) F(1) 

 Basis set information about using solid harmonic (1) or Cartesian (0):
  si : D(1) D(1) D(1) D(1) D(1) D(1) D(1) D(1) D(1) F(1) F(1) F(1) G(1) 

 There are 68 basis functions in the central unit cell.
 Print atomic basis of atoms in the central unit cell:
 -------------------------------------------------------------
2 104 104 24

  0.00000000000000e+00  0.00000000000000e+00  0.00000000000000e+00
  2.56530000000000e+00  2.56530000000000e+00  2.56530000000000e+00

  2.54900000000000e+05
  3.81900000000000e+04
  8.69000000000000e+03
  2.46200000000000e+03
  8.04800000000000e+02
  2.91300000000000e+02
  1.13600000000000e+02
  4.67500000000000e+01
  1.98200000000000e+01
  7.70800000000000e+00
  3.34000000000000e+00
  2.54900000000000e+05
  3.81900000000000e+04
  8.69000000000000e+03
  8.04800000000000e+02
  2.91300000000000e+02
  1.13600000000000e+02
  4.67500000000000e+01
  1.98200000000000e+01
  7.70800000000000e+00
  3.34000000000000e+00
  1.40200000000000e+00
  2.54900000000000e+05
  3.81900000000000e+04
  8.69000000000000e+03
  2.91300000000000e+02
  1.13600000000000e+02
  4.67500000000000e+01
  1.98200000000000e+01
  7.70800000000000e+00
  3.34000000000000e+00
  1.40200000000000e+00
  2.07000000000000e-01
  4.38700000000000e-01
  7.94400000000000e-02
  4.81500000000000e+02
  1.13900000000000e+02
  3.62300000000000e+01
  1.33400000000000e+01
  5.25200000000000e+00
  2.12000000000000e+00
  1.13900000000000e+02
  3.62300000000000e+01
  1.33400000000000e+01
  5.25200000000000e+00
  2.12000000000000e+00
  2.52800000000000e-01
  8.56100000000000e-01
  7.88900000000000e-02
  4.81000000000000e-01
  1.59000000000000e-01
  3.36000000000000e-01
  2.54900000000000e+05
  3.81900000000000e+04
  8.69000000000000e+03
  2.46200000000000e+03
  8.04800000000000e+02
  2.91300000000000e+02
  1.13600000000000e+02
  4.67500000000000e+01
  1.98200000000000e+01
  7.70800000000000e+00
  3.34000000000000e+00
  2.54900000000000e+05
  3.81900000000000e+04
  8.69000000000000e+03
  8.04800000000000e+02
  2.91300000000000e+02
  1.13600000000000e+02
  4.67500000000000e+01
  1.98200000000000e+01
  7.70800000000000e+00
  3.34000000000000e+00
  1.40200000000000e+00
  2.54900000000000e+05
  3.81900000000000e+04
  8.69000000000000e+03
  2.91300000000000e+02
  1.13600000000000e+02
  4.67500000000000e+01
  1.98200000000000e+01
  7.70800000000000e+00
  3.34000000000000e+00
  1.40200000000000e+00
  2.07000000000000e-01
  4.38700000000000e-01
  7.94400000000000e-02
  4.81500000000000e+02
  1.13900000000000e+02
  3.62300000000000e+01
  1.33400000000000e+01
  5.25200000000000e+00
  2.12000000000000e+00
  1.13900000000000e+02
  3.62300000000000e+01
  1.33400000000000e+01
  5.25200000000000e+00
  2.12000000000000e+00
  2.52800000000000e-01
  8.56100000000000e-01
  7.88900000000000e-02
  4.81000000000000e-01
  1.59000000000000e-01
  3.36000000000000e-01

  5.06121931014315e-01
  9.46667895564849e-01
  1.63484840115776e+00
  2.64073594005923e+00
  3.97699155153283e+00
  5.40905960736848e+00
  6.15868961670172e+00
  4.99170532032548e+00
  2.02857976424901e+00
  1.82839763527352e-01
 -1.25640690342342e-02
  1.10808750449959e-03
  1.94415577975663e-03
  2.70023730632789e-03
 -1.69098200112149e-02
 -8.66890848691569e-02
 -2.76125946359713e-01
 -6.25588788447604e-01
 -6.61701688370681e-01
  3.11114524237060e-01
  9.56658906468163e-01
  4.36891217824705e-01
  1.05873342256663e-04
  1.52975802748887e-04
  4.28394863673135e-04
 -4.94070443505333e-03
 -1.17298035021286e-02
 -2.95023896611804e-02
 -1.71455066569284e-02
  3.00007138114875e-03
 -6.19326651465540e-02
 -2.59989143457351e-01
  2.47187614608056e-01
  3.84180942836044e-01
  1.06644759418552e-01
  6.70509611941243e+00
  8.84487660481054e+00
  9.82415782069442e+00
  8.40902910540583e+00
  4.80448757555754e+00
  1.55989499299286e+00
 -1.15889775037608e-01
 -5.13312293701512e-02
 -2.64771097977823e-01
 -6.52512718105956e-02
 -1.94608613796415e-01
  2.59380435893970e-01
  1.17380433533106e+00
  5.95960578383022e-02
  4.57260134599596e-01
  6.58952976069849e-02
  1.26537084505476e-01
  5.06121931014315e-01
  9.46667895564849e-01
  1.63484840115776e+00
  2.64073594005923e+00
  3.97699155153283e+00
  5.40905960736848e+00
  6.15868961670172e+00
  4.99170532032548e+00
  2.02857976424901e+00
  1.82839763527352e-01
 -1.25640690342342e-02
  1.10808750449959e-03
  1.94415577975663e-03
  2.70023730632789e-03
 -1.69098200112149e-02
 -8.66890848691569e-02
 -2.76125946359713e-01
 -6.25588788447604e-01
 -6.61701688370681e-01
  3.11114524237060e-01
  9.56658906468163e-01
  4.36891217824705e-01
  1.05873342256663e-04
  1.52975802748887e-04
  4.28394863673135e-04
 -4.94070443505333e-03
 -1.17298035021286e-02
 -2.95023896611804e-02
 -1.71455066569284e-02
  3.00007138114875e-03
 -6.19326651465540e-02
 -2.59989143457351e-01
  2.47187614608056e-01
  3.84180942836044e-01
  1.06644759418552e-01
  6.70509611941243e+00
  8.84487660481054e+00
  9.82415782069442e+00
  8.40902910540583e+00
  4.80448757555754e+00
  1.55989499299286e+00
 -1.15889775037608e-01
 -5.13312293701512e-02
 -2.64771097977823e-01
 -6.52512718105956e-02
 -1.94608613796415e-01
  2.59380435893970e-01
  1.17380433533106e+00
  5.95960578383022e-02
  4.57260134599596e-01
  6.58952976069849e-02
  1.26537084505476e-01

0 0 0 0 1 1 1
0 0 
11 0

0 1 1 11 1 1 1
11 0 
11 0

0 2 2 22 1 1 1
22 0 
11 0

0 3 3 33 1 1 1
33 0 
1 0

0 4 4 34 1 1 1
34 0 
1 0

0 5 5 35 1 3 3
35 1 
6 0

0 8 8 41 1 3 3
41 1 
6 0

0 11 11 47 1 3 3
47 1 
1 0

0 14 14 48 1 3 3
48 1 
1 0

0 17 17 49 1 5 6
49 2 
1 1

0 22 22 50 1 5 6
50 2 
1 1

0 27 27 51 1 7 10
51 3 
1 1

1 34 34 52 1 1 1
52 0 
11 0

1 35 35 63 1 1 1
63 0 
11 0

1 36 36 74 1 1 1
74 0 
11 0

1 37 37 85 1 1 1
85 0 
1 0

1 38 38 86 1 1 1
86 0 
1 0

1 39 39 87 1 3 3
87 1 
6 0

1 42 42 93 1 3 3
93 1 
6 0

1 45 45 99 1 3 3
99 1 
1 0

1 48 48 100 1 3 3
100 1 
1 0

1 51 51 101 1 5 6
101 2 
1 1

1 56 56 102 1 5 6
102 2 
1 1

1 61 61 103 1 7 10
103 3 
1 1

 -------------------------------------------------------------
 Allocate 263208 B from available memory: 1048576000000 B
 There are 1331 image cells after screening.
 There are 1353 image cells for CGTO evaluation after screening.
 Real-Space grid for FFT initialized based on kinetic energy cutoff (eV) = 500.0
 Real-Space grid for FFT: (10,10,10)
 There are 9261 real-space grid points.
 There are 64 batches of real-space grid points. 
 Size of each grid batch is around 128
 Grid for AFT initialized based on kinetic energy cutoff (eV) = 500.0
 Real-Space grid for AFT: (10,10,10)
 There are 9261 real-space grid points.

 There are 5456 atom-centered grid points.

 Spacegroup symmetry group: Fd-3m
 Reducing spacegroup symmetry to symmorphic group: F -4 3 m
 Monkhorst-Pack mesh is [12,12,12]
 There are 1728 k points.
kpoints in Bohr
-0.2551352549 -0.2551352549 -0.2551352549
-0.2041082040 -0.2041082040 -0.3061623059
-0.1530811530 -0.1530811530 -0.3571893569
-0.1020541020 -0.1020541020 -0.4082164079
-0.0510270510 -0.0510270510 -0.4592434589
-0.0000000000 -0.0000000000 -0.5102705099
0.0510270510 0.0510270510 -0.5612975609
0.1020541020 0.1020541020 -0.6123246119
0.1530811530 0.1530811530 -0.6633516628
0.2041082040 0.2041082040 -0.7143787138
0.2551352549 0.2551352549 -0.7654057648
0.3061623059 0.3061623059 -0.8164328158
-0.2041082040 -0.3061623059 -0.2041082040
-0.1530811530 -0.2551352549 -0.2551352549
-0.1020541020 -0.2041082040 -0.3061623059
-0.0510270510 -0.1530811530 -0.3571893569
-0.0000000000 -0.1020541020 -0.4082164079
0.0510270510 -0.0510270510 -0.4592434589
0.1020541020 -0.0000000000 -0.5102705099
0.1530811530 0.0510270510 -0.5612975609
0.2041082040 0.1020541020 -0.6123246119
0.2551352549 0.1530811530 -0.6633516628
0.3061623059 0.2041082040 -0.7143787138
0.3571893569 0.2551352549 -0.7654057648
-0.1530811530 -0.3571893569 -0.1530811530
-0.1020541020 -0.3061623059 -0.2041082040
-0.0510270510 -0.2551352549 -0.2551352549
-0.0000000000 -0.2041082040 -0.3061623059
0.0510270510 -0.1530811530 -0.3571893569
0.1020541020 -0.1020541020 -0.4082164079
0.1530811530 -0.0510270510 -0.4592434589
0.2041082040 -0.0000000000 -0.5102705099
0.2551352549 0.0510270510 -0.5612975609
0.3061623059 0.1020541020 -0.6123246119
0.3571893569 0.1530811530 -0.6633516628
0.4082164079 0.2041082040 -0.7143787138
-0.1020541020 -0.4082164079 -0.1020541020
-0.0510270510 -0.3571893569 -0.1530811530
-0.0000000000 -0.3061623059 -0.2041082040
0.0510270510 -0.2551352549 -0.2551352549
0.1020541020 -0.2041082040 -0.3061623059
0.1530811530 -0.1530811530 -0.3571893569
0.2041082040 -0.1020541020 -0.4082164079
0.2551352549 -0.0510270510 -0.4592434589
0.3061623059 -0.0000000000 -0.5102705099
0.3571893569 0.0510270510 -0.5612975609
0.4082164079 0.1020541020 -0.6123246119
0.4592434589 0.1530811530 -0.6633516628
-0.0510270510 -0.4592434589 -0.0510270510
-0.0000000000 -0.4082164079 -0.1020541020
0.0510270510 -0.3571893569 -0.1530811530
0.1020541020 -0.3061623059 -0.2041082040
0.1530811530 -0.2551352549 -0.2551352549
0.2041082040 -0.2041082040 -0.3061623059
0.2551352549 -0.1530811530 -0.3571893569
0.3061623059 -0.1020541020 -0.4082164079
0.3571893569 -0.0510270510 -0.4592434589
0.4082164079 0.0000000000 -0.5102705099
0.4592434589 0.0510270510 -0.5612975609
0.5102705099 0.1020541020 -0.6123246119
-0.0000000000 -0.5102705099 0.0000000000
0.0510270510 -0.4592434589 -0.0510270510
0.1020541020 -0.4082164079 -0.1020541020
0.1530811530 -0.3571893569 -0.1530811530
0.2041082040 -0.3061623059 -0.2041082040
0.2551352549 -0.2551352549 -0.2551352549
0.3061623059 -0.2041082040 -0.3061623059
0.3571893569 -0.1530811530 -0.3571893569
0.4082164079 -0.1020541020 -0.4082164079
0.4592434589 -0.0510270510 -0.4592434589
0.5102705099 0.0000000000 -0.5102705099
0.5612975609 0.0510270510 -0.5612975609
0.0510270510 -0.5612975609 0.0510270510
0.1020541020 -0.5102705099 0.0000000000
0.1530811530 -0.4592434589 -0.0510270510
0.2041082040 -0.4082164079 -0.1020541020
0.2551352549 -0.3571893569 -0.1530811530
0.3061623059 -0.3061623059 -0.2041082040
0.3571893569 -0.2551352549 -0.2551352549
0.4082164079 -0.2041082040 -0.3061623059
0.4592434589 -0.1530811530 -0.3571893569
0.5102705099 -0.1020541020 -0.4082164079
0.5612975609 -0.0510270510 -0.4592434589
0.6123246119 0.0000000000 -0.5102705099
0.1020541020 -0.6123246119 0.1020541020
0.1530811530 -0.5612975609 0.0510270510
0.2041082040 -0.5102705099 0.0000000000
0.2551352549 -0.4592434589 -0.0510270510
0.3061623059 -0.4082164079 -0.1020541020
0.3571893569 -0.3571893569 -0.1530811530
0.4082164079 -0.3061623059 -0.2041082040
0.4592434589 -0.2551352549 -0.2551352549
0.5102705099 -0.2041082040 -0.3061623059
0.5612975609 -0.1530811530 -0.3571893569
0.6123246119 -0.1020541020 -0.4082164079
0.6633516628 -0.0510270510 -0.4592434589
0.1530811530 -0.6633516628 0.1530811530
0.2041082040 -0.6123246119 0.1020541020
0.2551352549 -0.5612975609 0.0510270510
0.3061623059 -0.5102705099 0.0000000000
0.3571893569 -0.4592434589 -0.0510270510
0.4082164079 -0.4082164079 -0.1020541020
0.4592434589 -0.3571893569 -0.1530811530
0.5102705099 -0.3061623059 -0.2041082040
0.5612975609 -0.2551352549 -0.2551352549
0.6123246119 -0.2041082040 -0.3061623059
0.6633516628 -0.1530811530 -0.3571893569
0.7143787138 -0.1020541020 -0.4082164079
0.2041082040 -0.7143787138 0.2041082040
0.2551352549 -0.6633516628 0.1530811530
0.3061623059 -0.6123246119 0.1020541020
0.3571893569 -0.5612975609 0.0510270510
0.4082164079 -0.5102705099 0.0000000000
0.4592434589 -0.4592434589 -0.0510270510
0.5102705099 -0.4082164079 -0.1020541020
0.5612975609 -0.3571893569 -0.1530811530
0.6123246119 -0.3061623059 -0.2041082040
0.6633516628 -0.2551352549 -0.2551352549
0.7143787138 -0.2041082040 -0.3061623059
0.7654057648 -0.1530811530 -0.3571893569
0.2551352549 -0.7654057648 0.2551352549
0.3061623059 -0.7143787138 0.2041082040
0.3571893569 -0.6633516628 0.1530811530
0.4082164079 -0.6123246119 0.1020541020
0.4592434589 -0.5612975609 0.0510270510
0.5102705099 -0.5102705099 0.0000000000
0.5612975609 -0.4592434589 -0.0510270510
0.6123246119 -0.4082164079 -0.1020541020
0.6633516628 -0.3571893569 -0.1530811530
0.7143787138 -0.3061623059 -0.2041082040
0.7654057648 -0.2551352549 -0.2551352549
0.8164328158 -0.2041082040 -0.3061623059
0.3061623059 -0.8164328158 0.3061623059
0.3571893569 -0.7654057648 0.2551352549
0.4082164079 -0.7143787138 0.2041082040
0.4592434589 -0.6633516628 0.1530811530
0.5102705099 -0.6123246119 0.1020541020
0.5612975609 -0.5612975609 0.0510270510
0.6123246119 -0.5102705099 0.0000000000
0.6633516628 -0.4592434589 -0.0510270510
0.7143787138 -0.4082164079 -0.1020541020
0.7654057648 -0.3571893569 -0.1530811530
0.8164328158 -0.3061623059 -0.2041082040
0.8674598668 -0.2551352549 -0.2551352549
-0.3061623059 -0.2041082040 -0.2041082040
-0.2551352549 -0.1530811530 -0.2551352549
-0.2041082040 -0.1020541020 -0.3061623059
-0.1530811530 -0.0510270510 -0.3571893569
-0.1020541020 -0.0000000000 -0.4082164079
-0.0510270510 0.0510270510 -0.4592434589
-0.0000000000 0.1020541020 -0.5102705099
0.0510270510 0.1530811530 -0.5612975609
0.1020541020 0.2041082040 -0.6123246119
0.1530811530 0.2551352549 -0.6633516628
0.2041082040 0.3061623059 -0.7143787138
0.2551352549 0.3571893569 -0.7654057648
-0.2551352549 -0.2551352549 -0.1530811530
-0.2041082040 -0.2041082040 -0.2041082040
-0.1530811530 -0.1530811530 -0.2551352549
-0.1020541020 -0.1020541020 -0.3061623059
-0.0510270510 -0.0510270510 -0.3571893569
-0.0000000000 -0.0000000000 -0.4082164079
0.0510270510 0.0510270510 -0.4592434589
0.1020541020 0.1020541020 -0.5102705099
0.1530811530 0.1530811530 -0.5612975609
0.2041082040 0.2041082040 -0.6123246119
0.2551352549 0.2551352549 -0.6633516628
0.3061623059 0.3061623059 -0.7143787138
-0.2041082040 -0.3061623059 -0.1020541020
-0.1530811530 -0.2551352549 -0.1530811530
-0.1020541020 -0.2041082040 -0.2041082040
-0.0510270510 -0.1530811530 -0.2551352549
-0.0000000000 -0.1020541020 -0.3061623059
0.0510270510 -0.0510270510 -0.3571893569
0.1020541020 -0.0000000000 -0.4082164079
0.1530811530 0.0510270510 -0.4592434589
0.2041082040 0.1020541020 -0.5102705099
0.2551352549 0.1530811530 -0.5612975609
0.3061623059 0.2041082040 -0.6123246119
0.3571893569 0.2551352549 -0.6633516628
-0.1530811530 -0.3571893569 -0.0510270510
-0.1020541020 -0.3061623059 -0.1020541020
-0.0510270510 -0.2551352549 -0.1530811530
-0.0000000000 -0.2041082040 -0.2041082040
0.0510270510 -0.1530811530 -0.2551352549
0.1020541020 -0.1020541020 -0.3061623059
0.1530811530 -0.0510270510 -0.3571893569
0.2041082040 -0.0000000000 -0.4082164079
0.2551352549 0.0510270510 -0.4592434589
0.3061623059 0.1020541020 -0.5102705099
0.3571893569 0.1530811530 -0.5612975609
0.4082164079 0.2041082040 -0.6123246119
-0.1020541020 -0.4082164079 0.0000000000
-0.0510270510 -0.3571893569 -0.0510270510
-0.0000000000 -0.3061623059 -0.1020541020
0.0510270510 -0.2551352549 -0.1530811530
0.1020541020 -0.2041082040 -0.2041082040
0.1530811530 -0.1530811530 -0.2551352549
0.2041082040 -0.1020541020 -0.3061623059
0.2551352549 -0.0510270510 -0.3571893569
0.3061623059 0.0000000000 -0.4082164079
0.3571893569 0.0510270510 -0.4592434589
0.4082164079 0.1020541020 -0.5102705099
0.4592434589 0.1530811530 -0.5612975609
-0.0510270510 -0.4592434589 0.0510270510
-0.0000000000 -0.4082164079 0.0000000000
0.0510270510 -0.3571893569 -0.0510270510
0.1020541020 -0.3061623059 -0.1020541020
0.1530811530 -0.2551352549 -0.1530811530
0.2041082040 -0.2041082040 -0.2041082040
0.2551352549 -0.1530811530 -0.2551352549
0.3061623059 -0.1020541020 -0.3061623059
0.3571893569 -0.0510270510 -0.3571893569
0.4082164079 0.0000000000 -0.4082164079
0.4592434589 0.0510270510 -0.4592434589
0.5102705099 0.1020541020 -0.5102705099
-0.0000000000 -0.5102705099 0.1020541020
0.0510270510 -0.4592434589 0.0510270510
0.1020541020 -0.4082164079 0.0000000000
0.1530811530 -0.3571893569 -0.0510270510
0.2041082040 -0.3061623059 -0.1020541020
0.2551352549 -0.2551352549 -0.1530811530
0.3061623059 -0.2041082040 -0.2041082040
0.3571893569 -0.1530811530 -0.2551352549
0.4082164079 -0.1020541020 -0.3061623059
0.4592434589 -0.0510270510 -0.3571893569
0.5102705099 0.0000000000 -0.4082164079
0.5612975609 0.0510270510 -0.4592434589
0.0510270510 -0.5612975609 0.1530811530
0.1020541020 -0.5102705099 0.1020541020
0.1530811530 -0.4592434589 0.0510270510
0.2041082040 -0.4082164079 0.0000000000
0.2551352549 -0.3571893569 -0.0510270510
0.3061623059 -0.3061623059 -0.1020541020
0.3571893569 -0.2551352549 -0.1530811530
0.4082164079 -0.2041082040 -0.2041082040
0.4592434589 -0.1530811530 -0.2551352549
0.5102705099 -0.1020541020 -0.3061623059
0.5612975609 -0.0510270510 -0.3571893569
0.6123246119 0.0000000000 -0.4082164079
0.1020541020 -0.6123246119 0.2041082040
0.1530811530 -0.5612975609 0.1530811530
0.2041082040 -0.5102705099 0.1020541020
0.2551352549 -0.4592434589 0.0510270510
0.3061623059 -0.4082164079 0.0000000000
0.3571893569 -0.3571893569 -0.0510270510
0.4082164079 -0.3061623059 -0.1020541020
0.4592434589 -0.2551352549 -0.1530811530
0.5102705099 -0.2041082040 -0.2041082040
0.5612975609 -0.1530811530 -0.2551352549
0.6123246119 -0.1020541020 -0.3061623059
0.6633516628 -0.0510270510 -0.3571893569
0.1530811530 -0.6633516628 0.2551352549
0.2041082040 -0.6123246119 0.2041082040
0.2551352549 -0.5612975609 0.1530811530
0.3061623059 -0.5102705099 0.1020541020
0.3571893569 -0.4592434589 0.0510270510
0.4082164079 -0.4082164079 0.0000000000
0.4592434589 -0.3571893569 -0.0510270510
0.5102705099 -0.3061623059 -0.1020541020
0.5612975609 -0.2551352549 -0.1530811530
0.6123246119 -0.2041082040 -0.2041082040
0.6633516628 -0.1530811530 -0.2551352549
0.7143787138 -0.1020541020 -0.3061623059
0.2041082040 -0.7143787138 0.3061623059
0.2551352549 -0.6633516628 0.2551352549
0.3061623059 -0.6123246119 0.2041082040
0.3571893569 -0.5612975609 0.1530811530
0.4082164079 -0.5102705099 0.1020541020
0.4592434589 -0.4592434589 0.0510270510
0.5102705099 -0.4082164079 0.0000000000
0.5612975609 -0.3571893569 -0.0510270510
0.6123246119 -0.3061623059 -0.1020541020
0.6633516628 -0.2551352549 -0.1530811530
0.7143787138 -0.2041082040 -0.2041082040
0.7654057648 -0.1530811530 -0.2551352549
0.2551352549 -0.7654057648 0.3571893569
0.3061623059 -0.7143787138 0.3061623059
0.3571893569 -0.6633516628 0.2551352549
0.4082164079 -0.6123246119 0.2041082040
0.4592434589 -0.5612975609 0.1530811530
0.5102705099 -0.5102705099 0.1020541020
0.5612975609 -0.4592434589 0.0510270510
0.6123246119 -0.4082164079 0.0000000000
0.6633516628 -0.3571893569 -0.0510270510
0.7143787138 -0.3061623059 -0.1020541020
0.7654057648 -0.2551352549 -0.1530811530
0.8164328158 -0.2041082040 -0.2041082040
-0.3571893569 -0.1530811530 -0.1530811530
-0.3061623059 -0.1020541020 -0.2041082040
-0.2551352549 -0.0510270510 -0.2551352549
-0.2041082040 -0.0000000000 -0.3061623059
-0.1530811530 0.0510270510 -0.3571893569
-0.1020541020 0.1020541020 -0.4082164079
-0.0510270510 0.1530811530 -0.4592434589
-0.0000000000 0.2041082040 -0.5102705099
0.0510270510 0.2551352549 -0.5612975609
0.1020541020 0.3061623059 -0.6123246119
0.1530811530 0.3571893569 -0.6633516628
0.2041082040 0.4082164079 -0.7143787138
-0.3061623059 -0.2041082040 -0.1020541020
-0.2551352549 -0.1530811530 -0.1530811530
-0.2041082040 -0.1020541020 -0.2041082040
-0.1530811530 -0.0510270510 -0.2551352549
-0.1020541020 -0.0000000000 -0.3061623059
-0.0510270510 0.0510270510 -0.3571893569
-0.0000000000 0.1020541020 -0.4082164079
0.0510270510 0.1530811530 -0.4592434589
0.1020541020 0.2041082040 -0.5102705099
0.1530811530 0.2551352549 -0.5612975609
0.2041082040 0.3061623059 -0.6123246119
0.2551352549 0.3571893569 -0.6633516628
-0.2551352549 -0.2551352549 -0.0510270510
-0.2041082040 -0.2041082040 -0.1020541020
-0.1530811530 -0.1530811530 -0.1530811530
-0.1020541020 -0.1020541020 -0.2041082040
-0.0510270510 -0.0510270510 -0.2551352549
-0.0000000000 -0.0000000000 -0.3061623059
0.0510270510 0.0510270510 -0.3571893569
0.1020541020 0.1020541020 -0.4082164079
0.1530811530 0.1530811530 -0.4592434589
0.2041082040 0.2041082040 -0.5102705099
0.2551352549 0.2551352549 -0.5612975609
0.3061623059 0.3061623059 -0.6123246119
-0.2041082040 -0.3061623059 -0.0000000000
-0.1530811530 -0.2551352549 -0.0510270510
-0.1020541020 -0.2041082040 -0.1020541020
-0.0510270510 -0.1530811530 -0.1530811530
-0.0000000000 -0.1020541020 -0.2041082040
0.0510270510 -0.0510270510 -0.2551352549
0.1020541020 -0.0000000000 -0.3061623059
0.1530811530 0.0510270510 -0.3571893569
0.2041082040 0.1020541020 -0.4082164079
0.2551352549 0.1530811530 -0.4592434589
0.3061623059 0.2041082040 -0.5102705099
0.3571893569 0.2551352549 -0.5612975609
-0.1530811530 -0.3571893569 0.0510270510
-0.1020541020 -0.3061623059 -0.0000000000
-0.0510270510 -0.2551352549 -0.0510270510
-0.0000000000 -0.2041082040 -0.1020541020
0.0510270510 -0.1530811530 -0.1530811530
0.1020541020 -0.1020541020 -0.2041082040
0.1530811530 -0.0510270510 -0.2551352549
0.2041082040 -0.0000000000 -0.3061623059
0.2551352549 0.0510270510 -0.3571893569
0.3061623059 0.1020541020 -0.4082164079
0.3571893569 0.1530811530 -0.4592434589
0.4082164079 0.2041082040 -0.5102705099
-0.1020541020 -0.4082164079 0.1020541020
-0.0510270510 -0.3571893569 0.0510270510
-0.0000000000 -0.3061623059 0.0000000000
0.0510270510 -0.2551352549 -0.0510270510
0.1020541020 -0.2041082040 -0.1020541020
0.1530811530 -0.1530811530 -0.1530811530
0.2041082040 -0.1020541020 -0.2041082040
0.2551352549 -0.0510270510 -0.2551352549
0.3061623059 0.0000000000 -0.3061623059
0.3571893569 0.0510270510 -0.3571893569
0.4082164079 0.1020541020 -0.4082164079
0.4592434589 0.1530811530 -0.4592434589
-0.0510270510 -0.4592434589 0.1530811530
-0.0000000000 -0.4082164079 0.1020541020
0.0510270510 -0.3571893569 0.0510270510
0.1020541020 -0.3061623059 0.0000000000
0.1530811530 -0.2551352549 -0.0510270510
0.2041082040 -0.2041082040 -0.1020541020
0.2551352549 -0.1530811530 -0.1530811530
0.3061623059 -0.1020541020 -0.2041082040
0.3571893569 -0.0510270510 -0.2551352549
0.4082164079 0.0000000000 -0.3061623059
0.4592434589 0.0510270510 -0.3571893569
0.5102705099 0.1020541020 -0.4082164079
-0.0000000000 -0.5102705099 0.2041082040
0.0510270510 -0.4592434589 0.1530811530
0.1020541020 -0.4082164079 0.1020541020
0.1530811530 -0.3571893569 0.0510270510
0.2041082040 -0.3061623059 0.0000000000
0.2551352549 -0.2551352549 -0.0510270510
0.3061623059 -0.2041082040 -0.1020541020
0.3571893569 -0.1530811530 -0.1530811530
0.4082164079 -0.1020541020 -0.2041082040
0.4592434589 -0.0510270510 -0.2551352549
0.5102705099 0.0000000000 -0.3061623059
0.5612975609 0.0510270510 -0.3571893569
0.0510270510 -0.5612975609 0.2551352549
0.1020541020 -0.5102705099 0.2041082040
0.1530811530 -0.4592434589 0.1530811530
0.2041082040 -0.4082164079 0.1020541020
0.2551352549 -0.3571893569 0.0510270510
0.3061623059 -0.3061623059 0.0000000000
0.3571893569 -0.2551352549 -0.0510270510
0.4082164079 -0.2041082040 -0.1020541020
0.4592434589 -0.1530811530 -0.1530811530
0.5102705099 -0.1020541020 -0.2041082040
0.5612975609 -0.0510270510 -0.2551352549
0.6123246119 0.0000000000 -0.3061623059
0.1020541020 -0.6123246119 0.3061623059
0.1530811530 -0.5612975609 0.2551352549
0.2041082040 -0.5102705099 0.2041082040
0.2551352549 -0.4592434589 0.1530811530
0.3061623059 -0.4082164079 0.1020541020
0.3571893569 -0.3571893569 0.0510270510
0.4082164079 -0.3061623059 0.0000000000
0.4592434589 -0.2551352549 -0.0510270510
0.5102705099 -0.2041082040 -0.1020541020
0.5612975609 -0.1530811530 -0.1530811530
0.6123246119 -0.1020541020 -0.2041082040
0.6633516628 -0.0510270510 -0.2551352549
0.1530811530 -0.6633516628 0.3571893569
0.2041082040 -0.6123246119 0.3061623059
0.2551352549 -0.5612975609 0.2551352549
0.3061623059 -0.5102705099 0.2041082040
0.3571893569 -0.4592434589 0.1530811530
0.4082164079 -0.4082164079 0.1020541020
0.4592434589 -0.3571893569 0.0510270510
0.5102705099 -0.3061623059 0.0000000000
0.5612975609 -0.2551352549 -0.0510270510
0.6123246119 -0.2041082040 -0.1020541020
0.6633516628 -0.1530811530 -0.1530811530
0.7143787138 -0.1020541020 -0.2041082040
0.2041082040 -0.7143787138 0.4082164079
0.2551352549 -0.6633516628 0.3571893569
0.3061623059 -0.6123246119 0.3061623059
0.3571893569 -0.5612975609 0.2551352549
0.4082164079 -0.5102705099 0.2041082040
0.4592434589 -0.4592434589 0.1530811530
0.5102705099 -0.4082164079 0.1020541020
0.5612975609 -0.3571893569 0.0510270510
0.6123246119 -0.3061623059 0.0000000000
0.6633516628 -0.2551352549 -0.0510270510
0.7143787138 -0.2041082040 -0.1020541020
0.7654057648 -0.1530811530 -0.1530811530
-0.4082164079 -0.1020541020 -0.1020541020
-0.3571893569 -0.0510270510 -0.1530811530
-0.3061623059 -0.0000000000 -0.2041082040
-0.2551352549 0.0510270510 -0.2551352549
-0.2041082040 0.1020541020 -0.3061623059
-0.1530811530 0.1530811530 -0.3571893569
-0.1020541020 0.2041082040 -0.4082164079
-0.0510270510 0.2551352549 -0.4592434589
0.0000000000 0.3061623059 -0.5102705099
0.0510270510 0.3571893569 -0.5612975609
0.1020541020 0.4082164079 -0.6123246119
0.1530811530 0.4592434589 -0.6633516628
-0.3571893569 -0.1530811530 -0.0510270510
-0.3061623059 -0.1020541020 -0.1020541020
-0.2551352549 -0.0510270510 -0.1530811530
-0.2041082040 -0.0000000000 -0.2041082040
-0.1530811530 0.0510270510 -0.2551352549
-0.1020541020 0.1020541020 -0.3061623059
-0.0510270510 0.1530811530 -0.3571893569
0.0000000000 0.2041082040 -0.4082164079
0.0510270510 0.2551352549 -0.4592434589
0.1020541020 0.3061623059 -0.5102705099
0.1530811530 0.3571893569 -0.5612975609
0.2041082040 0.4082164079 -0.6123246119
-0.3061623059 -0.2041082040 -0.0000000000
-0.2551352549 -0.1530811530 -0.0510270510
-0.2041082040 -0.1020541020 -0.1020541020
-0.1530811530 -0.0510270510 -0.1530811530
-0.1020541020 -0.0000000000 -0.2041082040
-0.0510270510 0.0510270510 -0.2551352549
-0.0000000000 0.1020541020 -0.3061623059
0.0510270510 0.1530811530 -0.3571893569
0.1020541020 0.2041082040 -0.4082164079
0.1530811530 0.2551352549 -0.4592434589
0.2041082040 0.3061623059 -0.5102705099
0.2551352549 0.3571893569 -0.5612975609
-0.2551352549 -0.2551352549 0.0510270510
-0.2041082040 -0.2041082040 -0.0000000000
-0.1530811530 -0.1530811530 -0.0510270510
-0.1020541020 -0.1020541020 -0.1020541020
-0.0510270510 -0.0510270510 -0.1530811530
-0.0000000000 -0.0000000000 -0.2041082040
0.0510270510 0.0510270510 -0.2551352549
0.1020541020 0.1020541020 -0.3061623059
0.1530811530 0.1530811530 -0.3571893569
0.2041082040 0.2041082040 -0.4082164079
0.2551352549 0.2551352549 -0.4592434589
0.3061623059 0.3061623059 -0.5102705099
-0.2041082040 -0.3061623059 0.1020541020
-0.1530811530 -0.2551352549 0.0510270510
-0.1020541020 -0.2041082040 -0.0000000000
-0.0510270510 -0.1530811530 -0.0510270510
-0.0000000000 -0.1020541020 -0.1020541020
0.0510270510 -0.0510270510 -0.1530811530
0.1020541020 -0.0000000000 -0.2041082040
0.1530811530 0.0510270510 -0.2551352549
0.2041082040 0.1020541020 -0.3061623059
0.2551352549 0.1530811530 -0.3571893569
0.3061623059 0.2041082040 -0.4082164079
0.3571893569 0.2551352549 -0.4592434589
-0.1530811530 -0.3571893569 0.1530811530
-0.1020541020 -0.3061623059 0.1020541020
-0.0510270510 -0.2551352549 0.0510270510
-0.0000000000 -0.2041082040 0.0000000000
0.0510270510 -0.1530811530 -0.0510270510
0.1020541020 -0.1020541020 -0.1020541020
0.1530811530 -0.0510270510 -0.1530811530
0.2041082040 -0.0000000000 -0.2041082040
0.2551352549 0.0510270510 -0.2551352549
0.3061623059 0.1020541020 -0.3061623059
0.3571893569 0.1530811530 -0.3571893569
0.4082164079 0.2041082040 -0.4082164079
-0.1020541020 -0.4082164079 0.2041082040
-0.0510270510 -0.3571893569 0.1530811530
-0.0000000000 -0.3061623059 0.1020541020
0.0510270510 -0.2551352549 0.0510270510
0.1020541020 -0.2041082040 0.0000000000
0.1530811530 -0.1530811530 -0.0510270510
0.2041082040 -0.1020541020 -0.1020541020
0.2551352549 -0.0510270510 -0.1530811530
0.3061623059 0.0000000000 -0.2041082040
0.3571893569 0.0510270510 -0.2551352549
0.4082164079 0.1020541020 -0.3061623059
0.4592434589 0.1530811530 -0.3571893569
-0.0510270510 -0.4592434589 0.2551352549
-0.0000000000 -0.4082164079 0.2041082040
0.0510270510 -0.3571893569 0.1530811530
0.1020541020 -0.3061623059 0.1020541020
0.1530811530 -0.2551352549 0.0510270510
0.2041082040 -0.2041082040 0.0000000000
0.2551352549 -0.1530811530 -0.0510270510
0.3061623059 -0.1020541020 -0.1020541020
0.3571893569 -0.0510270510 -0.1530811530
0.4082164079 0.0000000000 -0.2041082040
0.4592434589 0.0510270510 -0.2551352549
0.5102705099 0.1020541020 -0.3061623059
-0.0000000000 -0.5102705099 0.3061623059
0.0510270510 -0.4592434589 0.2551352549
0.1020541020 -0.4082164079 0.2041082040
0.1530811530 -0.3571893569 0.1530811530
0.2041082040 -0.3061623059 0.1020541020
0.2551352549 -0.2551352549 0.0510270510
0.3061623059 -0.2041082040 0.0000000000
0.3571893569 -0.1530811530 -0.0510270510
0.4082164079 -0.1020541020 -0.1020541020
0.4592434589 -0.0510270510 -0.1530811530
0.5102705099 0.0000000000 -0.2041082040
0.5612975609 0.0510270510 -0.2551352549
0.0510270510 -0.5612975609 0.3571893569
0.1020541020 -0.5102705099 0.3061623059
0.1530811530 -0.4592434589 0.2551352549
0.2041082040 -0.4082164079 0.2041082040
0.2551352549 -0.3571893569 0.1530811530
0.3061623059 -0.3061623059 0.1020541020
0.3571893569 -0.2551352549 0.0510270510
0.4082164079 -0.2041082040 0.0000000000
0.4592434589 -0.1530811530 -0.0510270510
0.5102705099 -0.1020541020 -0.1020541020
0.5612975609 -0.0510270510 -0.1530811530
0.6123246119 0.0000000000 -0.2041082040
0.1020541020 -0.6123246119 0.4082164079
0.1530811530 -0.5612975609 0.3571893569
0.2041082040 -0.5102705099 0.3061623059
0.2551352549 -0.4592434589 0.2551352549
0.3061623059 -0.4082164079 0.2041082040
0.3571893569 -0.3571893569 0.1530811530
0.4082164079 -0.3061623059 0.1020541020
0.4592434589 -0.2551352549 0.0510270510
0.5102705099 -0.2041082040 0.0000000000
0.5612975609 -0.1530811530 -0.0510270510
0.6123246119 -0.1020541020 -0.1020541020
0.6633516628 -0.0510270510 -0.1530811530
0.1530811530 -0.6633516628 0.4592434589
0.2041082040 -0.6123246119 0.4082164079
0.2551352549 -0.5612975609 0.3571893569
0.3061623059 -0.5102705099 0.3061623059
0.3571893569 -0.4592434589 0.2551352549
0.4082164079 -0.4082164079 0.2041082040
0.4592434589 -0.3571893569 0.1530811530
0.5102705099 -0.3061623059 0.1020541020
0.5612975609 -0.2551352549 0.0510270510
0.6123246119 -0.2041082040 0.0000000000
0.6633516628 -0.1530811530 -0.0510270510
0.7143787138 -0.1020541020 -0.1020541020
-0.4592434589 -0.0510270510 -0.0510270510
-0.4082164079 -0.0000000000 -0.1020541020
-0.3571893569 0.0510270510 -0.1530811530
-0.3061623059 0.1020541020 -0.2041082040
-0.2551352549 0.1530811530 -0.2551352549
-0.2041082040 0.2041082040 -0.3061623059
-0.1530811530 0.2551352549 -0.3571893569
-0.1020541020 0.3061623059 -0.4082164079
-0.0510270510 0.3571893569 -0.4592434589
0.0000000000 0.4082164079 -0.5102705099
0.0510270510 0.4592434589 -0.5612975609
0.1020541020 0.5102705099 -0.6123246119
-0.4082164079 -0.1020541020 -0.0000000000
-0.3571893569 -0.0510270510 -0.0510270510
-0.3061623059 -0.0000000000 -0.1020541020
-0.2551352549 0.0510270510 -0.1530811530
-0.2041082040 0.1020541020 -0.2041082040
-0.1530811530 0.1530811530 -0.2551352549
-0.1020541020 0.2041082040 -0.3061623059
-0.0510270510 0.2551352549 -0.3571893569
0.0000000000 0.3061623059 -0.4082164079
0.0510270510 0.3571893569 -0.4592434589
0.1020541020 0.4082164079 -0.5102705099
0.1530811530 0.4592434589 -0.5612975609
-0.3571893569 -0.1530811530 0.0510270510
-0.3061623059 -0.1020541020 -0.0000000000
-0.2551352549 -0.0510270510 -0.0510270510
-0.2041082040 -0.0000000000 -0.1020541020
-0.1530811530 0.0510270510 -0.1530811530
-0.1020541020 0.1020541020 -0.2041082040
-0.0510270510 0.1530811530 -0.2551352549
0.0000000000 0.2041082040 -0.3061623059
0.0510270510 0.2551352549 -0.3571893569
0.1020541020 0.3061623059 -0.4082164079
0.1530811530 0.3571893569 -0.4592434589
0.2041082040 0.4082164079 -0.5102705099
-0.3061623059 -0.2041082040 0.1020541020
-0.2551352549 -0.1530811530 0.0510270510
-0.2041082040 -0.1020541020 -0.0000000000
-0.1530811530 -0.0510270510 -0.0510270510
-0.1020541020 -0.0000000000 -0.1020541020
-0.0510270510 0.0510270510 -0.1530811530
-0.0000000000 0.1020541020 -0.2041082040
0.0510270510 0.1530811530 -0.2551352549
0.1020541020 0.2041082040 -0.3061623059
0.1530811530 0.2551352549 -0.3571893569
0.2041082040 0.3061623059 -0.4082164079
0.2551352549 0.3571893569 -0.4592434589
-0.2551352549 -0.2551352549 0.1530811530
-0.2041082040 -0.2041082040 0.1020541020
-0.1530811530 -0.1530811530 0.0510270510
-0.1020541020 -0.1020541020 -0.0000000000
-0.0510270510 -0.0510270510 -0.0510270510
-0.0000000000 -0.0000000000 -0.1020541020
0.0510270510 0.0510270510 -0.1530811530
0.1020541020 0.1020541020 -0.2041082040
0.1530811530 0.1530811530 -0.2551352549
0.2041082040 0.2041082040 -0.3061623059
0.2551352549 0.2551352549 -0.3571893569
0.3061623059 0.3061623059 -0.4082164079
-0.2041082040 -0.3061623059 0.2041082040
-0.1530811530 -0.2551352549 0.1530811530
-0.1020541020 -0.2041082040 0.1020541020
-0.0510270510 -0.1530811530 0.0510270510
-0.0000000000 -0.1020541020 0.0000000000
0.0510270510 -0.0510270510 -0.0510270510
0.1020541020 -0.0000000000 -0.1020541020
0.1530811530 0.0510270510 -0.1530811530
0.2041082040 0.1020541020 -0.2041082040
0.2551352549 0.1530811530 -0.2551352549
0.3061623059 0.2041082040 -0.3061623059
0.3571893569 0.2551352549 -0.3571893569
-0.1530811530 -0.3571893569 0.2551352549
-0.1020541020 -0.3061623059 0.2041082040
-0.0510270510 -0.2551352549 0.1530811530
-0.0000000000 -0.2041082040 0.1020541020
0.0510270510 -0.1530811530 0.0510270510
0.1020541020 -0.1020541020 0.0000000000
0.1530811530 -0.0510270510 -0.0510270510
0.2041082040 0.0000000000 -0.1020541020
0.2551352549 0.0510270510 -0.1530811530
0.3061623059 0.1020541020 -0.2041082040
0.3571893569 0.1530811530 -0.2551352549
0.4082164079 0.2041082040 -0.3061623059
-0.1020541020 -0.4082164079 0.3061623059
-0.0510270510 -0.3571893569 0.2551352549
-0.0000000000 -0.3061623059 0.2041082040
0.0510270510 -0.2551352549 0.1530811530
0.1020541020 -0.2041082040 0.1020541020
0.1530811530 -0.1530811530 0.0510270510
0.2041082040 -0.1020541020 0.0000000000
0.2551352549 -0.0510270510 -0.0510270510
0.3061623059 0.0000000000 -0.1020541020
0.3571893569 0.0510270510 -0.1530811530
0.4082164079 0.1020541020 -0.2041082040
0.4592434589 0.1530811530 -0.2551352549
-0.0510270510 -0.4592434589 0.3571893569
-0.0000000000 -0.4082164079 0.3061623059
0.0510270510 -0.3571893569 0.2551352549
0.1020541020 -0.3061623059 0.2041082040
0.1530811530 -0.2551352549 0.1530811530
0.2041082040 -0.2041082040 0.1020541020
0.2551352549 -0.1530811530 0.0510270510
0.3061623059 -0.1020541020 0.0000000000
0.3571893569 -0.0510270510 -0.0510270510
0.4082164079 0.0000000000 -0.1020541020
0.4592434589 0.0510270510 -0.1530811530
0.5102705099 0.1020541020 -0.2041082040
-0.0000000000 -0.5102705099 0.4082164079
0.0510270510 -0.4592434589 0.3571893569
0.1020541020 -0.4082164079 0.3061623059
0.1530811530 -0.3571893569 0.2551352549
0.2041082040 -0.3061623059 0.2041082040
0.2551352549 -0.2551352549 0.1530811530
0.3061623059 -0.2041082040 0.1020541020
0.3571893569 -0.1530811530 0.0510270510
0.4082164079 -0.1020541020 0.0000000000
0.4592434589 -0.0510270510 -0.0510270510
0.5102705099 0.0000000000 -0.1020541020
0.5612975609 0.0510270510 -0.1530811530
0.0510270510 -0.5612975609 0.4592434589
0.1020541020 -0.5102705099 0.4082164079
0.1530811530 -0.4592434589 0.3571893569
0.2041082040 -0.4082164079 0.3061623059
0.2551352549 -0.3571893569 0.2551352549
0.3061623059 -0.3061623059 0.2041082040
0.3571893569 -0.2551352549 0.1530811530
0.4082164079 -0.2041082040 0.1020541020
0.4592434589 -0.1530811530 0.0510270510
0.5102705099 -0.1020541020 0.0000000000
0.5612975609 -0.0510270510 -0.0510270510
0.6123246119 0.0000000000 -0.1020541020
0.1020541020 -0.6123246119 0.5102705099
0.1530811530 -0.5612975609 0.4592434589
0.2041082040 -0.5102705099 0.4082164079
0.2551352549 -0.4592434589 0.3571893569
0.3061623059 -0.4082164079 0.3061623059
0.3571893569 -0.3571893569 0.2551352549
0.4082164079 -0.3061623059 0.2041082040
0.4592434589 -0.2551352549 0.1530811530
0.5102705099 -0.2041082040 0.1020541020
0.5612975609 -0.1530811530 0.0510270510
0.6123246119 -0.1020541020 0.0000000000
0.6633516628 -0.0510270510 -0.0510270510
-0.5102705099 -0.0000000000 -0.0000000000
-0.4592434589 0.0510270510 -0.0510270510
-0.4082164079 0.1020541020 -0.1020541020
-0.3571893569 0.1530811530 -0.1530811530
-0.3061623059 0.2041082040 -0.2041082040
-0.2551352549 0.2551352549 -0.2551352549
-0.2041082040 0.3061623059 -0.3061623059
-0.1530811530 0.3571893569 -0.3571893569
-0.1020541020 0.4082164079 -0.4082164079
-0.0510270510 0.4592434589 -0.4592434589
0.0000000000 0.5102705099 -0.5102705099
0.0510270510 0.5612975609 -0.5612975609
-0.4592434589 -0.0510270510 0.0510270510
-0.4082164079 -0.0000000000 -0.0000000000
-0.3571893569 0.0510270510 -0.0510270510
-0.3061623059 0.1020541020 -0.1020541020
-0.2551352549 0.1530811530 -0.1530811530
-0.2041082040 0.2041082040 -0.2041082040
-0.1530811530 0.2551352549 -0.2551352549
-0.1020541020 0.3061623059 -0.3061623059
-0.0510270510 0.3571893569 -0.3571893569
0.0000000000 0.4082164079 -0.4082164079
0.0510270510 0.4592434589 -0.4592434589
0.1020541020 0.5102705099 -0.5102705099
-0.4082164079 -0.1020541020 0.1020541020
-0.3571893569 -0.0510270510 0.0510270510
-0.3061623059 -0.0000000000 -0.0000000000
-0.2551352549 0.0510270510 -0.0510270510
-0.2041082040 0.1020541020 -0.1020541020
-0.1530811530 0.1530811530 -0.1530811530
-0.1020541020 0.2041082040 -0.2041082040
-0.0510270510 0.2551352549 -0.2551352549
0.0000000000 0.3061623059 -0.3061623059
0.0510270510 0.3571893569 -0.3571893569
0.1020541020 0.4082164079 -0.4082164079
0.1530811530 0.4592434589 -0.4592434589
-0.3571893569 -0.1530811530 0.1530811530
-0.3061623059 -0.1020541020 0.1020541020
-0.2551352549 -0.0510270510 0.0510270510
-0.2041082040 -0.0000000000 -0.0000000000
-0.1530811530 0.0510270510 -0.0510270510
-0.1020541020 0.1020541020 -0.1020541020
-0.0510270510 0.1530811530 -0.1530811530
0.0000000000 0.2041082040 -0.2041082040
0.0510270510 0.2551352549 -0.2551352549
0.1020541020 0.3061623059 -0.3061623059
0.1530811530 0.3571893569 -0.3571893569
0.2041082040 0.4082164079 -0.4082164079
-0.3061623059 -0.2041082040 0.2041082040
-0.2551352549 -0.1530811530 0.1530811530
-0.2041082040 -0.1020541020 0.1020541020
-0.1530811530 -0.0510270510 0.0510270510
-0.1020541020 -0.0000000000 -0.0000000000
-0.0510270510 0.0510270510 -0.0510270510
0.0000000000 0.1020541020 -0.1020541020
0.0510270510 0.1530811530 -0.1530811530
0.1020541020 0.2041082040 -0.2041082040
0.1530811530 0.2551352549 -0.2551352549
0.2041082040 0.3061623059 -0.3061623059
0.2551352549 0.3571893569 -0.3571893569
-0.2551352549 -0.2551352549 0.2551352549
-0.2041082040 -0.2041082040 0.2041082040
-0.1530811530 -0.1530811530 0.1530811530
-0.1020541020 -0.1020541020 0.1020541020
-0.0510270510 -0.0510270510 0.0510270510
0.0000000000 0.0000000000 0.0000000000
0.0510270510 0.0510270510 -0.0510270510
0.1020541020 0.1020541020 -0.1020541020
0.1530811530 0.1530811530 -0.1530811530
0.2041082040 0.2041082040 -0.2041082040
0.2551352549 0.2551352549 -0.2551352549
0.3061623059 0.3061623059 -0.3061623059
-0.2041082040 -0.3061623059 0.3061623059
-0.1530811530 -0.2551352549 0.2551352549
-0.1020541020 -0.2041082040 0.2041082040
-0.0510270510 -0.1530811530 0.1530811530
-0.0000000000 -0.1020541020 0.1020541020
0.0510270510 -0.0510270510 0.0510270510
0.1020541020 0.0000000000 0.0000000000
0.1530811530 0.0510270510 -0.0510270510
0.2041082040 0.1020541020 -0.1020541020
0.2551352549 0.1530811530 -0.1530811530
0.3061623059 0.2041082040 -0.2041082040
0.3571893569 0.2551352549 -0.2551352549
-0.1530811530 -0.3571893569 0.3571893569
-0.1020541020 -0.3061623059 0.3061623059
-0.0510270510 -0.2551352549 0.2551352549
-0.0000000000 -0.2041082040 0.2041082040
0.0510270510 -0.1530811530 0.1530811530
0.1020541020 -0.1020541020 0.1020541020
0.1530811530 -0.0510270510 0.0510270510
0.2041082040 0.0000000000 0.0000000000
0.2551352549 0.0510270510 -0.0510270510
0.3061623059 0.1020541020 -0.1020541020
0.3571893569 0.1530811530 -0.1530811530
0.4082164079 0.2041082040 -0.2041082040
-0.1020541020 -0.4082164079 0.4082164079
-0.0510270510 -0.3571893569 0.3571893569
-0.0000000000 -0.3061623059 0.3061623059
0.0510270510 -0.2551352549 0.2551352549
0.1020541020 -0.2041082040 0.2041082040
0.1530811530 -0.1530811530 0.1530811530
0.2041082040 -0.1020541020 0.1020541020
0.2551352549 -0.0510270510 0.0510270510
0.3061623059 0.0000000000 0.0000000000
0.3571893569 0.0510270510 -0.0510270510
0.4082164079 0.1020541020 -0.1020541020
0.4592434589 0.1530811530 -0.1530811530
-0.0510270510 -0.4592434589 0.4592434589
-0.0000000000 -0.4082164079 0.4082164079
0.0510270510 -0.3571893569 0.3571893569
0.1020541020 -0.3061623059 0.3061623059
0.1530811530 -0.2551352549 0.2551352549
0.2041082040 -0.2041082040 0.2041082040
0.2551352549 -0.1530811530 0.1530811530
0.3061623059 -0.1020541020 0.1020541020
0.3571893569 -0.0510270510 0.0510270510
0.4082164079 0.0000000000 0.0000000000
0.4592434589 0.0510270510 -0.0510270510
0.5102705099 0.1020541020 -0.1020541020
-0.0000000000 -0.5102705099 0.5102705099
0.0510270510 -0.4592434589 0.4592434589
0.1020541020 -0.4082164079 0.4082164079
0.1530811530 -0.3571893569 0.3571893569
0.2041082040 -0.3061623059 0.3061623059
0.2551352549 -0.2551352549 0.2551352549
0.3061623059 -0.2041082040 0.2041082040
0.3571893569 -0.1530811530 0.1530811530
0.4082164079 -0.1020541020 0.1020541020
0.4592434589 -0.0510270510 0.0510270510
0.5102705099 0.0000000000 0.0000000000
0.5612975609 0.0510270510 -0.0510270510
0.0510270510 -0.5612975609 0.5612975609
0.1020541020 -0.5102705099 0.5102705099
0.1530811530 -0.4592434589 0.4592434589
0.2041082040 -0.4082164079 0.4082164079
0.2551352549 -0.3571893569 0.3571893569
0.3061623059 -0.3061623059 0.3061623059
0.3571893569 -0.2551352549 0.2551352549
0.4082164079 -0.2041082040 0.2041082040
0.4592434589 -0.1530811530 0.1530811530
0.5102705099 -0.1020541020 0.1020541020
0.5612975609 -0.0510270510 0.0510270510
0.6123246119 0.0000000000 0.0000000000
-0.5612975609 0.0510270510 0.0510270510
-0.5102705099 0.1020541020 -0.0000000000
-0.4592434589 0.1530811530 -0.0510270510
-0.4082164079 0.2041082040 -0.1020541020
-0.3571893569 0.2551352549 -0.1530811530
-0.3061623059 0.3061623059 -0.2041082040
-0.2551352549 0.3571893569 -0.2551352549
-0.2041082040 0.4082164079 -0.3061623059
-0.1530811530 0.4592434589 -0.3571893569
-0.1020541020 0.5102705099 -0.4082164079
-0.0510270510 0.5612975609 -0.4592434589
0.0000000000 0.6123246119 -0.5102705099
-0.5102705099 -0.0000000000 0.1020541020
-0.4592434589 0.0510270510 0.0510270510
-0.4082164079 0.1020541020 -0.0000000000
-0.3571893569 0.1530811530 -0.0510270510
-0.3061623059 0.2041082040 -0.1020541020
-0.2551352549 0.2551352549 -0.1530811530
-0.2041082040 0.3061623059 -0.2041082040
-0.1530811530 0.3571893569 -0.2551352549
-0.1020541020 0.4082164079 -0.3061623059
-0.0510270510 0.4592434589 -0.3571893569
0.0000000000 0.5102705099 -0.4082164079
0.0510270510 0.5612975609 -0.4592434589
-0.4592434589 -0.0510270510 0.1530811530
-0.4082164079 -0.0000000000 0.1020541020
-0.3571893569 0.0510270510 0.0510270510
-0.3061623059 0.1020541020 -0.0000000000
-0.2551352549 0.1530811530 -0.0510270510
-0.2041082040 0.2041082040 -0.1020541020
-0.1530811530 0.2551352549 -0.1530811530
-0.1020541020 0.3061623059 -0.2041082040
-0.0510270510 0.3571893569 -0.2551352549
0.0000000000 0.4082164079 -0.3061623059
0.0510270510 0.4592434589 -0.3571893569
0.1020541020 0.5102705099 -0.4082164079
-0.4082164079 -0.1020541020 0.2041082040
-0.3571893569 -0.0510270510 0.1530811530
-0.3061623059 -0.0000000000 0.1020541020
-0.2551352549 0.0510270510 0.0510270510
-0.2041082040 0.1020541020 -0.0000000000
-0.1530811530 0.1530811530 -0.0510270510
-0.1020541020 0.2041082040 -0.1020541020
-0.0510270510 0.2551352549 -0.1530811530
0.0000000000 0.3061623059 -0.2041082040
0.0510270510 0.3571893569 -0.2551352549
0.1020541020 0.4082164079 -0.3061623059
0.1530811530 0.4592434589 -0.3571893569
-0.3571893569 -0.1530811530 0.2551352549
-0.3061623059 -0.1020541020 0.2041082040
-0.2551352549 -0.0510270510 0.1530811530
-0.2041082040 -0.0000000000 0.1020541020
-0.1530811530 0.0510270510 0.0510270510
-0.1020541020 0.1020541020 -0.0000000000
-0.0510270510 0.1530811530 -0.0510270510
0.0000000000 0.2041082040 -0.1020541020
0.0510270510 0.2551352549 -0.1530811530
0.1020541020 0.3061623059 -0.2041082040
0.1530811530 0.3571893569 -0.2551352549
0.2041082040 0.4082164079 -0.3061623059
-0.3061623059 -0.2041082040 0.3061623059
-0.2551352549 -0.1530811530 0.2551352549
-0.2041082040 -0.1020541020 0.2041082040
-0.1530811530 -0.0510270510 0.1530811530
-0.1020541020 -0.0000000000 0.1020541020
-0.0510270510 0.0510270510 0.0510270510
0.0000000000 0.1020541020 0.0000000000
0.0510270510 0.1530811530 -0.0510270510
0.1020541020 0.2041082040 -0.1020541020
0.1530811530 0.2551352549 -0.1530811530
0.2041082040 0.3061623059 -0.2041082040
0.2551352549 0.3571893569 -0.2551352549
-0.2551352549 -0.2551352549 0.3571893569
-0.2041082040 -0.2041082040 0.3061623059
-0.1530811530 -0.1530811530 0.2551352549
-0.1020541020 -0.1020541020 0.2041082040
-0.0510270510 -0.0510270510 0.1530811530
0.0000000000 0.0000000000 0.1020541020
0.0510270510 0.0510270510 0.0510270510
0.1020541020 0.1020541020 0.0000000000
0.1530811530 0.1530811530 -0.0510270510
0.2041082040 0.2041082040 -0.1020541020
0.2551352549 0.2551352549 -0.1530811530
0.3061623059 0.3061623059 -0.2041082040
-0.2041082040 -0.3061623059 0.4082164079
-0.1530811530 -0.2551352549 0.3571893569
-0.1020541020 -0.2041082040 0.3061623059
-0.0510270510 -0.1530811530 0.2551352549
-0.0000000000 -0.1020541020 0.2041082040
0.0510270510 -0.0510270510 0.1530811530
0.1020541020 0.0000000000 0.1020541020
0.1530811530 0.0510270510 0.0510270510
0.2041082040 0.1020541020 0.0000000000
0.2551352549 0.1530811530 -0.0510270510
0.3061623059 0.2041082040 -0.1020541020
0.3571893569 0.2551352549 -0.1530811530
-0.1530811530 -0.3571893569 0.4592434589
-0.1020541020 -0.3061623059 0.4082164079
-0.0510270510 -0.2551352549 0.3571893569
-0.0000000000 -0.2041082040 0.3061623059
0.0510270510 -0.1530811530 0.2551352549
0.1020541020 -0.1020541020 0.2041082040
0.1530811530 -0.0510270510 0.1530811530
0.2041082040 0.0000000000 0.1020541020
0.2551352549 0.0510270510 0.0510270510
0.3061623059 0.1020541020 0.0000000000
0.3571893569 0.1530811530 -0.0510270510
0.4082164079 0.2041082040 -0.1020541020
-0.1020541020 -0.4082164079 0.5102705099
-0.0510270510 -0.3571893569 0.4592434589
0.0000000000 -0.3061623059 0.4082164079
0.0510270510 -0.2551352549 0.3571893569
0.1020541020 -0.2041082040 0.3061623059
0.1530811530 -0.1530811530 0.2551352549
0.2041082040 -0.1020541020 0.2041082040
0.2551352549 -0.0510270510 0.1530811530
0.3061623059 0.0000000000 0.1020541020
0.3571893569 0.0510270510 0.0510270510
0.4082164079 0.1020541020 0.0000000000
0.4592434589 0.1530811530 -0.0510270510
-0.0510270510 -0.4592434589 0.5612975609
-0.0000000000 -0.4082164079 0.5102705099
0.0510270510 -0.3571893569 0.4592434589
0.1020541020 -0.3061623059 0.4082164079
0.1530811530 -0.2551352549 0.3571893569
0.2041082040 -0.2041082040 0.3061623059
0.2551352549 -0.1530811530 0.2551352549
0.3061623059 -0.1020541020 0.2041082040
0.3571893569 -0.0510270510 0.1530811530
0.4082164079 0.0000000000 0.1020541020
0.4592434589 0.0510270510 0.0510270510
0.5102705099 0.1020541020 0.0000000000
0.0000000000 -0.5102705099 0.6123246119
0.0510270510 -0.4592434589 0.5612975609
0.1020541020 -0.4082164079 0.5102705099
0.1530811530 -0.3571893569 0.4592434589
0.2041082040 -0.3061623059 0.4082164079
0.2551352549 -0.2551352549 0.3571893569
0.3061623059 -0.2041082040 0.3061623059
0.3571893569 -0.1530811530 0.2551352549
0.4082164079 -0.1020541020 0.2041082040
0.4592434589 -0.0510270510 0.1530811530
0.5102705099 0.0000000000 0.1020541020
0.5612975609 0.0510270510 0.0510270510
-0.6123246119 0.1020541020 0.1020541020
-0.5612975609 0.1530811530 0.0510270510
-0.5102705099 0.2041082040 -0.0000000000
-0.4592434589 0.2551352549 -0.0510270510
-0.4082164079 0.3061623059 -0.1020541020
-0.3571893569 0.3571893569 -0.1530811530
-0.3061623059 0.4082164079 -0.2041082040
-0.2551352549 0.4592434589 -0.2551352549
-0.2041082040 0.5102705099 -0.3061623059
-0.1530811530 0.5612975609 -0.3571893569
-0.1020541020 0.6123246119 -0.4082164079
-0.0510270510 0.6633516628 -0.4592434589
-0.5612975609 0.0510270510 0.1530811530
-0.5102705099 0.1020541020 0.1020541020
-0.4592434589 0.1530811530 0.0510270510
-0.4082164079 0.2041082040 -0.0000000000
-0.3571893569 0.2551352549 -0.0510270510
-0.3061623059 0.3061623059 -0.1020541020
-0.2551352549 0.3571893569 -0.1530811530
-0.2041082040 0.4082164079 -0.2041082040
-0.1530811530 0.4592434589 -0.2551352549
-0.1020541020 0.5102705099 -0.3061623059
-0.0510270510 0.5612975609 -0.3571893569
0.0000000000 0.6123246119 -0.4082164079
-0.5102705099 -0.0000000000 0.2041082040
-0.4592434589 0.0510270510 0.1530811530
-0.4082164079 0.1020541020 0.1020541020
-0.3571893569 0.1530811530 0.0510270510
-0.3061623059 0.2041082040 -0.0000000000
-0.2551352549 0.2551352549 -0.0510270510
-0.2041082040 0.3061623059 -0.1020541020
-0.1530811530 0.3571893569 -0.1530811530
-0.1020541020 0.4082164079 -0.2041082040
-0.0510270510 0.4592434589 -0.2551352549
0.0000000000 0.5102705099 -0.3061623059
0.0510270510 0.5612975609 -0.3571893569
-0.4592434589 -0.0510270510 0.2551352549
-0.4082164079 -0.0000000000 0.2041082040
-0.3571893569 0.0510270510 0.1530811530
-0.3061623059 0.1020541020 0.1020541020
-0.2551352549 0.1530811530 0.0510270510
-0.2041082040 0.2041082040 -0.0000000000
-0.1530811530 0.2551352549 -0.0510270510
-0.1020541020 0.3061623059 -0.1020541020
-0.0510270510 0.3571893569 -0.1530811530
0.0000000000 0.4082164079 -0.2041082040
0.0510270510 0.4592434589 -0.2551352549
0.1020541020 0.5102705099 -0.3061623059
-0.4082164079 -0.1020541020 0.3061623059
-0.3571893569 -0.0510270510 0.2551352549
-0.3061623059 0.0000000000 0.2041082040
-0.2551352549 0.0510270510 0.1530811530
-0.2041082040 0.1020541020 0.1020541020
-0.1530811530 0.1530811530 0.0510270510
-0.1020541020 0.2041082040 -0.0000000000
-0.0510270510 0.2551352549 -0.0510270510
0.0000000000 0.3061623059 -0.1020541020
0.0510270510 0.3571893569 -0.1530811530
0.1020541020 0.4082164079 -0.2041082040
0.1530811530 0.4592434589 -0.2551352549
-0.3571893569 -0.1530811530 0.3571893569
-0.3061623059 -0.1020541020 0.3061623059
-0.2551352549 -0.0510270510 0.2551352549
-0.2041082040 -0.0000000000 0.2041082040
-0.1530811530 0.0510270510 0.1530811530
-0.1020541020 0.1020541020 0.1020541020
-0.0510270510 0.1530811530 0.0510270510
0.0000000000 0.2041082040 0.0000000000
0.0510270510 0.2551352549 -0.0510270510
0.1020541020 0.3061623059 -0.1020541020
0.1530811530 0.3571893569 -0.1530811530
0.2041082040 0.4082164079 -0.2041082040
-0.3061623059 -0.2041082040 0.4082164079
-0.2551352549 -0.1530811530 0.3571893569
-0.2041082040 -0.1020541020 0.3061623059
-0.1530811530 -0.0510270510 0.2551352549
-0.1020541020 0.0000000000 0.2041082040
-0.0510270510 0.0510270510 0.1530811530
0.0000000000 0.1020541020 0.1020541020
0.0510270510 0.1530811530 0.0510270510
0.1020541020 0.2041082040 0.0000000000
0.1530811530 0.2551352549 -0.0510270510
0.2041082040 0.3061623059 -0.1020541020
0.2551352549 0.3571893569 -0.1530811530
-0.2551352549 -0.2551352549 0.4592434589
-0.2041082040 -0.2041082040 0.4082164079
-0.1530811530 -0.1530811530 0.3571893569
-0.1020541020 -0.1020541020 0.3061623059
-0.0510270510 -0.0510270510 0.2551352549
0.0000000000 0.0000000000 0.2041082040
0.0510270510 0.0510270510 0.1530811530
0.1020541020 0.1020541020 0.1020541020
0.1530811530 0.1530811530 0.0510270510
0.2041082040 0.2041082040 0.0000000000
0.2551352549 0.2551352549 -0.0510270510
0.3061623059 0.3061623059 -0.1020541020
-0.2041082040 -0.3061623059 0.5102705099
-0.1530811530 -0.2551352549 0.4592434589
-0.1020541020 -0.2041082040 0.4082164079
-0.0510270510 -0.1530811530 0.3571893569
0.0000000000 -0.1020541020 0.3061623059
0.0510270510 -0.0510270510 0.2551352549
0.1020541020 0.0000000000 0.2041082040
0.1530811530 0.0510270510 0.1530811530
0.2041082040 0.1020541020 0.1020541020
0.2551352549 0.1530811530 0.0510270510
0.3061623059 0.2041082040 0.0000000000
0.3571893569 0.2551352549 -0.0510270510
-0.1530811530 -0.3571893569 0.5612975609
-0.1020541020 -0.3061623059 0.5102705099
-0.0510270510 -0.2551352549 0.4592434589
0.0000000000 -0.2041082040 0.4082164079
0.0510270510 -0.1530811530 0.3571893569
0.1020541020 -0.1020541020 0.3061623059
0.1530811530 -0.0510270510 0.2551352549
0.2041082040 0.0000000000 0.2041082040
0.2551352549 0.0510270510 0.1530811530
0.3061623059 0.1020541020 0.1020541020
0.3571893569 0.1530811530 0.0510270510
0.4082164079 0.2041082040 0.0000000000
-0.1020541020 -0.4082164079 0.6123246119
-0.0510270510 -0.3571893569 0.5612975609
0.0000000000 -0.3061623059 0.5102705099
0.0510270510 -0.2551352549 0.4592434589
0.1020541020 -0.2041082040 0.4082164079
0.1530811530 -0.1530811530 0.3571893569
0.2041082040 -0.1020541020 0.3061623059
0.2551352549 -0.0510270510 0.2551352549
0.3061623059 0.0000000000 0.2041082040
0.3571893569 0.0510270510 0.1530811530
0.4082164079 0.1020541020 0.1020541020
0.4592434589 0.1530811530 0.0510270510
-0.0510270510 -0.4592434589 0.6633516628
0.0000000000 -0.4082164079 0.6123246119
0.0510270510 -0.3571893569 0.5612975609
0.1020541020 -0.3061623059 0.5102705099
0.1530811530 -0.2551352549 0.4592434589
0.2041082040 -0.2041082040 0.4082164079
0.2551352549 -0.1530811530 0.3571893569
0.3061623059 -0.1020541020 0.3061623059
0.3571893569 -0.0510270510 0.2551352549
0.4082164079 0.0000000000 0.2041082040
0.4592434589 0.0510270510 0.1530811530
0.5102705099 0.1020541020 0.1020541020
-0.6633516628 0.1530811530 0.1530811530
-0.6123246119 0.2041082040 0.1020541020
-0.5612975609 0.2551352549 0.0510270510
-0.5102705099 0.3061623059 -0.0000000000
-0.4592434589 0.3571893569 -0.0510270510
-0.4082164079 0.4082164079 -0.1020541020
-0.3571893569 0.4592434589 -0.1530811530
-0.3061623059 0.5102705099 -0.2041082040
-0.2551352549 0.5612975609 -0.2551352549
-0.2041082040 0.6123246119 -0.3061623059
-0.1530811530 0.6633516628 -0.3571893569
-0.1020541020 0.7143787138 -0.4082164079
-0.6123246119 0.1020541020 0.2041082040
-0.5612975609 0.1530811530 0.1530811530
-0.5102705099 0.2041082040 0.1020541020
-0.4592434589 0.2551352549 0.0510270510
-0.4082164079 0.3061623059 -0.0000000000
-0.3571893569 0.3571893569 -0.0510270510
-0.3061623059 0.4082164079 -0.1020541020
-0.2551352549 0.4592434589 -0.1530811530
-0.2041082040 0.5102705099 -0.2041082040
-0.1530811530 0.5612975609 -0.2551352549
-0.1020541020 0.6123246119 -0.3061623059
-0.0510270510 0.6633516628 -0.3571893569
-0.5612975609 0.0510270510 0.2551352549
-0.5102705099 0.1020541020 0.2041082040
-0.4592434589 0.1530811530 0.1530811530
-0.4082164079 0.2041082040 0.1020541020
-0.3571893569 0.2551352549 0.0510270510
-0.3061623059 0.3061623059 -0.0000000000
-0.2551352549 0.3571893569 -0.0510270510
-0.2041082040 0.4082164079 -0.1020541020
-0.1530811530 0.4592434589 -0.1530811530
-0.1020541020 0.5102705099 -0.2041082040
-0.0510270510 0.5612975609 -0.2551352549
0.0000000000 0.6123246119 -0.3061623059
-0.5102705099 0.0000000000 0.3061623059
-0.4592434589 0.0510270510 0.2551352549
-0.4082164079 0.1020541020 0.2041082040
-0.3571893569 0.1530811530 0.1530811530
-0.3061623059 0.2041082040 0.1020541020
-0.2551352549 0.2551352549 0.0510270510
-0.2041082040 0.3061623059 -0.0000000000
-0.1530811530 0.3571893569 -0.0510270510
-0.1020541020 0.4082164079 -0.1020541020
-0.0510270510 0.4592434589 -0.1530811530
0.0000000000 0.5102705099 -0.2041082040
0.0510270510 0.5612975609 -0.2551352549
-0.4592434589 -0.0510270510 0.3571893569
-0.4082164079 0.0000000000 0.3061623059
-0.3571893569 0.0510270510 0.2551352549
-0.3061623059 0.1020541020 0.2041082040
-0.2551352549 0.1530811530 0.1530811530
-0.2041082040 0.2041082040 0.1020541020
-0.1530811530 0.2551352549 0.0510270510
-0.1020541020 0.3061623059 0.0000000000
-0.0510270510 0.3571893569 -0.0510270510
0.0000000000 0.4082164079 -0.1020541020
0.0510270510 0.4592434589 -0.1530811530
0.1020541020 0.5102705099 -0.2041082040
-0.4082164079 -0.1020541020 0.4082164079
-0.3571893569 -0.0510270510 0.3571893569
-0.3061623059 0.0000000000 0.3061623059
-0.2551352549 0.0510270510 0.2551352549
-0.2041082040 0.1020541020 0.2041082040
-0.1530811530 0.1530811530 0.1530811530
-0.1020541020 0.2041082040 0.1020541020
-0.0510270510 0.2551352549 0.0510270510
0.0000000000 0.3061623059 0.0000000000
0.0510270510 0.3571893569 -0.0510270510
0.1020541020 0.4082164079 -0.1020541020
0.1530811530 0.4592434589 -0.1530811530
-0.3571893569 -0.1530811530 0.4592434589
-0.3061623059 -0.1020541020 0.4082164079
-0.2551352549 -0.0510270510 0.3571893569
-0.2041082040 0.0000000000 0.3061623059
-0.1530811530 0.0510270510 0.2551352549
-0.1020541020 0.1020541020 0.2041082040
-0.0510270510 0.1530811530 0.1530811530
0.0000000000 0.2041082040 0.1020541020
0.0510270510 0.2551352549 0.0510270510
0.1020541020 0.3061623059 0.0000000000
0.1530811530 0.3571893569 -0.0510270510
0.2041082040 0.4082164079 -0.1020541020
-0.3061623059 -0.2041082040 0.5102705099
-0.2551352549 -0.1530811530 0.4592434589
-0.2041082040 -0.1020541020 0.4082164079
-0.1530811530 -0.0510270510 0.3571893569
-0.1020541020 0.0000000000 0.3061623059
-0.0510270510 0.0510270510 0.2551352549
0.0000000000 0.1020541020 0.2041082040
0.0510270510 0.1530811530 0.1530811530
0.1020541020 0.2041082040 0.1020541020
0.1530811530 0.2551352549 0.0510270510
0.2041082040 0.3061623059 0.0000000000
0.2551352549 0.3571893569 -0.0510270510
-0.2551352549 -0.2551352549 0.5612975609
-0.2041082040 -0.2041082040 0.5102705099
-0.1530811530 -0.1530811530 0.4592434589
-0.1020541020 -0.1020541020 0.4082164079
-0.0510270510 -0.0510270510 0.3571893569
0.0000000000 0.0000000000 0.3061623059
0.0510270510 0.0510270510 0.2551352549
0.1020541020 0.1020541020 0.2041082040
0.1530811530 0.1530811530 0.1530811530
0.2041082040 0.2041082040 0.1020541020
0.2551352549 0.2551352549 0.0510270510
0.3061623059 0.3061623059 0.0000000000
-0.2041082040 -0.3061623059 0.6123246119
-0.1530811530 -0.2551352549 0.5612975609
-0.1020541020 -0.2041082040 0.5102705099
-0.0510270510 -0.1530811530 0.4592434589
0.0000000000 -0.1020541020 0.4082164079
0.0510270510 -0.0510270510 0.3571893569
0.1020541020 0.0000000000 0.3061623059
0.1530811530 0.0510270510 0.2551352549
0.2041082040 0.1020541020 0.2041082040
0.2551352549 0.1530811530 0.1530811530
0.3061623059 0.2041082040 0.1020541020
0.3571893569 0.2551352549 0.0510270510
-0.1530811530 -0.3571893569 0.6633516628
-0.1020541020 -0.3061623059 0.6123246119
-0.0510270510 -0.2551352549 0.5612975609
0.0000000000 -0.2041082040 0.5102705099
0.0510270510 -0.1530811530 0.4592434589
0.1020541020 -0.1020541020 0.4082164079
0.1530811530 -0.0510270510 0.3571893569
0.2041082040 0.0000000000 0.3061623059
0.2551352549 0.0510270510 0.2551352549
0.3061623059 0.1020541020 0.2041082040
0.3571893569 0.1530811530 0.1530811530
0.4082164079 0.2041082040 0.1020541020
-0.1020541020 -0.4082164079 0.7143787138
-0.0510270510 -0.3571893569 0.6633516628
0.0000000000 -0.3061623059 0.6123246119
0.0510270510 -0.2551352549 0.5612975609
0.1020541020 -0.2041082040 0.5102705099
0.1530811530 -0.1530811530 0.4592434589
0.2041082040 -0.1020541020 0.4082164079
0.2551352549 -0.0510270510 0.3571893569
0.3061623059 0.0000000000 0.3061623059
0.3571893569 0.0510270510 0.2551352549
0.4082164079 0.1020541020 0.2041082040
0.4592434589 0.1530811530 0.1530811530
-0.7143787138 0.2041082040 0.2041082040
-0.6633516628 0.2551352549 0.1530811530
-0.6123246119 0.3061623059 0.1020541020
-0.5612975609 0.3571893569 0.0510270510
-0.5102705099 0.4082164079 -0.0000000000
-0.4592434589 0.4592434589 -0.0510270510
-0.4082164079 0.5102705099 -0.1020541020
-0.3571893569 0.5612975609 -0.1530811530
-0.3061623059 0.6123246119 -0.2041082040
-0.2551352549 0.6633516628 -0.2551352549
-0.2041082040 0.7143787138 -0.3061623059
-0.1530811530 0.7654057648 -0.3571893569
-0.6633516628 0.1530811530 0.2551352549
-0.6123246119 0.2041082040 0.2041082040
-0.5612975609 0.2551352549 0.1530811530
-0.5102705099 0.3061623059 0.1020541020
-0.4592434589 0.3571893569 0.0510270510
-0.4082164079 0.4082164079 -0.0000000000
-0.3571893569 0.4592434589 -0.0510270510
-0.3061623059 0.5102705099 -0.1020541020
-0.2551352549 0.5612975609 -0.1530811530
-0.2041082040 0.6123246119 -0.2041082040
-0.1530811530 0.6633516628 -0.2551352549
-0.1020541020 0.7143787138 -0.3061623059
-0.6123246119 0.1020541020 0.3061623059
-0.5612975609 0.1530811530 0.2551352549
-0.5102705099 0.2041082040 0.2041082040
-0.4592434589 0.2551352549 0.1530811530
-0.4082164079 0.3061623059 0.1020541020
-0.3571893569 0.3571893569 0.0510270510
-0.3061623059 0.4082164079 -0.0000000000
-0.2551352549 0.4592434589 -0.0510270510
-0.2041082040 0.5102705099 -0.1020541020
-0.1530811530 0.5612975609 -0.1530811530
-0.1020541020 0.6123246119 -0.2041082040
-0.0510270510 0.6633516628 -0.2551352549
-0.5612975609 0.0510270510 0.3571893569
-0.5102705099 0.1020541020 0.3061623059
-0.4592434589 0.1530811530 0.2551352549
-0.4082164079 0.2041082040 0.2041082040
-0.3571893569 0.2551352549 0.1530811530
-0.3061623059 0.3061623059 0.1020541020
-0.2551352549 0.3571893569 0.0510270510
-0.2041082040 0.4082164079 -0.0000000000
-0.1530811530 0.4592434589 -0.0510270510
-0.1020541020 0.5102705099 -0.1020541020
-0.0510270510 0.5612975609 -0.1530811530
0.0000000000 0.6123246119 -0.2041082040
-0.5102705099 0.0000000000 0.4082164079
-0.4592434589 0.0510270510 0.3571893569
-0.4082164079 0.1020541020 0.3061623059
-0.3571893569 0.1530811530 0.2551352549
-0.3061623059 0.2041082040 0.2041082040
-0.2551352549 0.2551352549 0.1530811530
-0.2041082040 0.3061623059 0.1020541020
-0.1530811530 0.3571893569 0.0510270510
-0.1020541020 0.4082164079 0.0000000000
-0.0510270510 0.4592434589 -0.0510270510
0.0000000000 0.5102705099 -0.1020541020
0.0510270510 0.5612975609 -0.1530811530
-0.4592434589 -0.0510270510 0.4592434589
-0.4082164079 0.0000000000 0.4082164079
-0.3571893569 0.0510270510 0.3571893569
-0.3061623059 0.1020541020 0.3061623059
-0.2551352549 0.1530811530 0.2551352549
-0.2041082040 0.2041082040 0.2041082040
-0.1530811530 0.2551352549 0.1530811530
-0.1020541020 0.3061623059 0.1020541020
-0.0510270510 0.3571893569 0.0510270510
0.0000000000 0.4082164079 0.0000000000
0.0510270510 0.4592434589 -0.0510270510
0.1020541020 0.5102705099 -0.1020541020
-0.4082164079 -0.1020541020 0.5102705099
-0.3571893569 -0.0510270510 0.4592434589
-0.3061623059 0.0000000000 0.4082164079
-0.2551352549 0.0510270510 0.3571893569
-0.2041082040 0.1020541020 0.3061623059
-0.1530811530 0.1530811530 0.2551352549
-0.1020541020 0.2041082040 0.2041082040
-0.0510270510 0.2551352549 0.1530811530
0.0000000000 0.3061623059 0.1020541020
0.0510270510 0.3571893569 0.0510270510
0.1020541020 0.4082164079 0.0000000000
0.1530811530 0.4592434589 -0.0510270510
-0.3571893569 -0.1530811530 0.5612975609
-0.3061623059 -0.1020541020 0.5102705099
-0.2551352549 -0.0510270510 0.4592434589
-0.2041082040 0.0000000000 0.4082164079
-0.1530811530 0.0510270510 0.3571893569
-0.1020541020 0.1020541020 0.3061623059
-0.0510270510 0.1530811530 0.2551352549
0.0000000000 0.2041082040 0.2041082040
0.0510270510 0.2551352549 0.1530811530
0.1020541020 0.3061623059 0.1020541020
0.1530811530 0.3571893569 0.0510270510
0.2041082040 0.4082164079 0.0000000000
-0.3061623059 -0.2041082040 0.6123246119
-0.2551352549 -0.1530811530 0.5612975609
-0.2041082040 -0.1020541020 0.5102705099
-0.1530811530 -0.0510270510 0.4592434589
-0.1020541020 0.0000000000 0.4082164079
-0.0510270510 0.0510270510 0.3571893569
0.0000000000 0.1020541020 0.3061623059
0.0510270510 0.1530811530 0.2551352549
0.1020541020 0.2041082040 0.2041082040
0.1530811530 0.2551352549 0.1530811530
0.2041082040 0.3061623059 0.1020541020
0.2551352549 0.3571893569 0.0510270510
-0.2551352549 -0.2551352549 0.6633516628
-0.2041082040 -0.2041082040 0.6123246119
-0.1530811530 -0.1530811530 0.5612975609
-0.1020541020 -0.1020541020 0.5102705099
-0.0510270510 -0.0510270510 0.4592434589
0.0000000000 0.0000000000 0.4082164079
0.0510270510 0.0510270510 0.3571893569
0.1020541020 0.1020541020 0.3061623059
0.1530811530 0.1530811530 0.2551352549
0.2041082040 0.2041082040 0.2041082040
0.2551352549 0.2551352549 0.1530811530
0.3061623059 0.3061623059 0.1020541020
-0.2041082040 -0.3061623059 0.7143787138
-0.1530811530 -0.2551352549 0.6633516628
-0.1020541020 -0.2041082040 0.6123246119
-0.0510270510 -0.1530811530 0.5612975609
0.0000000000 -0.1020541020 0.5102705099
0.0510270510 -0.0510270510 0.4592434589
0.1020541020 0.0000000000 0.4082164079
0.1530811530 0.0510270510 0.3571893569
0.2041082040 0.1020541020 0.3061623059
0.2551352549 0.1530811530 0.2551352549
0.3061623059 0.2041082040 0.2041082040
0.3571893569 0.2551352549 0.1530811530
-0.1530811530 -0.3571893569 0.7654057648
-0.1020541020 -0.3061623059 0.7143787138
-0.0510270510 -0.2551352549 0.6633516628
0.0000000000 -0.2041082040 0.6123246119
0.0510270510 -0.1530811530 0.5612975609
0.1020541020 -0.1020541020 0.5102705099
0.1530811530 -0.0510270510 0.4592434589
0.2041082040 0.0000000000 0.4082164079
0.2551352549 0.0510270510 0.3571893569
0.3061623059 0.1020541020 0.3061623059
0.3571893569 0.1530811530 0.2551352549
0.4082164079 0.2041082040 0.2041082040
-0.7654057648 0.2551352549 0.2551352549
-0.7143787138 0.3061623059 0.2041082040
-0.6633516628 0.3571893569 0.1530811530
-0.6123246119 0.4082164079 0.1020541020
-0.5612975609 0.4592434589 0.0510270510
-0.5102705099 0.5102705099 -0.0000000000
-0.4592434589 0.5612975609 -0.0510270510
-0.4082164079 0.6123246119 -0.1020541020
-0.3571893569 0.6633516628 -0.1530811530
-0.3061623059 0.7143787138 -0.2041082040
-0.2551352549 0.7654057648 -0.2551352549
-0.2041082040 0.8164328158 -0.3061623059
-0.7143787138 0.2041082040 0.3061623059
-0.6633516628 0.2551352549 0.2551352549
-0.6123246119 0.3061623059 0.2041082040
-0.5612975609 0.3571893569 0.1530811530
-0.5102705099 0.4082164079 0.1020541020
-0.4592434589 0.4592434589 0.0510270510
-0.4082164079 0.5102705099 -0.0000000000
-0.3571893569 0.5612975609 -0.0510270510
-0.3061623059 0.6123246119 -0.1020541020
-0.2551352549 0.6633516628 -0.1530811530
-0.2041082040 0.7143787138 -0.2041082040
-0.1530811530 0.7654057648 -0.2551352549
-0.6633516628 0.1530811530 0.3571893569
-0.6123246119 0.2041082040 0.3061623059
-0.5612975609 0.2551352549 0.2551352549
-0.5102705099 0.3061623059 0.2041082040
-0.4592434589 0.3571893569 0.1530811530
-0.4082164079 0.4082164079 0.1020541020
-0.3571893569 0.4592434589 0.0510270510
-0.3061623059 0.5102705099 -0.0000000000
-0.2551352549 0.5612975609 -0.0510270510
-0.2041082040 0.6123246119 -0.1020541020
-0.1530811530 0.6633516628 -0.1530811530
-0.1020541020 0.7143787138 -0.2041082040
-0.6123246119 0.1020541020 0.4082164079
-0.5612975609 0.1530811530 0.3571893569
-0.5102705099 0.2041082040 0.3061623059
-0.4592434589 0.2551352549 0.2551352549
-0.4082164079 0.3061623059 0.2041082040
-0.3571893569 0.3571893569 0.1530811530
-0.3061623059 0.4082164079 0.1020541020
-0.2551352549 0.4592434589 0.0510270510
-0.2041082040 0.5102705099 -0.0000000000
-0.1530811530 0.5612975609 -0.0510270510
-0.1020541020 0.6123246119 -0.1020541020
-0.0510270510 0.6633516628 -0.1530811530
-0.5612975609 0.0510270510 0.4592434589
-0.5102705099 0.1020541020 0.4082164079
-0.4592434589 0.1530811530 0.3571893569
-0.4082164079 0.2041082040 0.3061623059
-0.3571893569 0.2551352549 0.2551352549
-0.3061623059 0.3061623059 0.2041082040
-0.2551352549 0.3571893569 0.1530811530
-0.2041082040 0.4082164079 0.1020541020
-0.1530811530 0.4592434589 0.0510270510
-0.1020541020 0.5102705099 -0.0000000000
-0.0510270510 0.5612975609 -0.0510270510
0.0000000000 0.6123246119 -0.1020541020
-0.5102705099 0.0000000000 0.5102705099
-0.4592434589 0.0510270510 0.4592434589
-0.4082164079 0.1020541020 0.4082164079
-0.3571893569 0.1530811530 0.3571893569
-0.3061623059 0.2041082040 0.3061623059
-0.2551352549 0.2551352549 0.2551352549
-0.2041082040 0.3061623059 0.2041082040
-0.1530811530 0.3571893569 0.1530811530
-0.1020541020 0.4082164079 0.1020541020
-0.0510270510 0.4592434589 0.0510270510
0.0000000000 0.5102705099 0.0000000000
0.0510270510 0.5612975609 -0.0510270510
-0.4592434589 -0.0510270510 0.5612975609
-0.4082164079 0.0000000000 0.5102705099
-0.3571893569 0.0510270510 0.4592434589
-0.3061623059 0.1020541020 0.4082164079
-0.2551352549 0.1530811530 0.3571893569
-0.2041082040 0.2041082040 0.3061623059
-0.1530811530 0.2551352549 0.2551352549
-0.1020541020 0.3061623059 0.2041082040
-0.0510270510 0.3571893569 0.1530811530
0.0000000000 0.4082164079 0.1020541020
0.0510270510 0.4592434589 0.0510270510
0.1020541020 0.5102705099 0.0000000000
-0.4082164079 -0.1020541020 0.6123246119
-0.3571893569 -0.0510270510 0.5612975609
-0.3061623059 0.0000000000 0.5102705099
-0.2551352549 0.0510270510 0.4592434589
-0.2041082040 0.1020541020 0.4082164079
-0.1530811530 0.1530811530 0.3571893569
-0.1020541020 0.2041082040 0.3061623059
-0.0510270510 0.2551352549 0.2551352549
0.0000000000 0.3061623059 0.2041082040
0.0510270510 0.3571893569 0.1530811530
0.1020541020 0.4082164079 0.1020541020
0.1530811530 0.4592434589 0.0510270510
-0.3571893569 -0.1530811530 0.6633516628
-0.3061623059 -0.1020541020 0.6123246119
-0.2551352549 -0.0510270510 0.5612975609
-0.2041082040 0.0000000000 0.5102705099
-0.1530811530 0.0510270510 0.4592434589
-0.1020541020 0.1020541020 0.4082164079
-0.0510270510 0.1530811530 0.3571893569
0.0000000000 0.2041082040 0.3061623059
0.0510270510 0.2551352549 0.2551352549
0.1020541020 0.3061623059 0.2041082040
0.1530811530 0.3571893569 0.1530811530
0.2041082040 0.4082164079 0.1020541020
-0.3061623059 -0.2041082040 0.7143787138
-0.2551352549 -0.1530811530 0.6633516628
-0.2041082040 -0.1020541020 0.6123246119
-0.1530811530 -0.0510270510 0.5612975609
-0.1020541020 0.0000000000 0.5102705099
-0.0510270510 0.0510270510 0.4592434589
0.0000000000 0.1020541020 0.4082164079
0.0510270510 0.1530811530 0.3571893569
0.1020541020 0.2041082040 0.3061623059
0.1530811530 0.2551352549 0.2551352549
0.2041082040 0.3061623059 0.2041082040
0.2551352549 0.3571893569 0.1530811530
-0.2551352549 -0.2551352549 0.7654057648
-0.2041082040 -0.2041082040 0.7143787138
-0.1530811530 -0.1530811530 0.6633516628
-0.1020541020 -0.1020541020 0.6123246119
-0.0510270510 -0.0510270510 0.5612975609
0.0000000000 0.0000000000 0.5102705099
0.0510270510 0.0510270510 0.4592434589
0.1020541020 0.1020541020 0.4082164079
0.1530811530 0.1530811530 0.3571893569
0.2041082040 0.2041082040 0.3061623059
0.2551352549 0.2551352549 0.2551352549
0.3061623059 0.3061623059 0.2041082040
-0.2041082040 -0.3061623059 0.8164328158
-0.1530811530 -0.2551352549 0.7654057648
-0.1020541020 -0.2041082040 0.7143787138
-0.0510270510 -0.1530811530 0.6633516628
0.0000000000 -0.1020541020 0.6123246119
0.0510270510 -0.0510270510 0.5612975609
0.1020541020 0.0000000000 0.5102705099
0.1530811530 0.0510270510 0.4592434589
0.2041082040 0.1020541020 0.4082164079
0.2551352549 0.1530811530 0.3571893569
0.3061623059 0.2041082040 0.3061623059
0.3571893569 0.2551352549 0.2551352549
-0.8164328158 0.3061623059 0.3061623059
-0.7654057648 0.3571893569 0.2551352549
-0.7143787138 0.4082164079 0.2041082040
-0.6633516628 0.4592434589 0.1530811530
-0.6123246119 0.5102705099 0.1020541020
-0.5612975609 0.5612975609 0.0510270510
-0.5102705099 0.6123246119 -0.0000000000
-0.4592434589 0.6633516628 -0.0510270510
-0.4082164079 0.7143787138 -0.1020541020
-0.3571893569 0.7654057648 -0.1530811530
-0.3061623059 0.8164328158 -0.2041082040
-0.2551352549 0.8674598668 -0.2551352549
-0.7654057648 0.2551352549 0.3571893569
-0.7143787138 0.3061623059 0.3061623059
-0.6633516628 0.3571893569 0.2551352549
-0.6123246119 0.4082164079 0.2041082040
-0.5612975609 0.4592434589 0.1530811530
-0.5102705099 0.5102705099 0.1020541020
-0.4592434589 0.5612975609 0.0510270510
-0.4082164079 0.6123246119 -0.0000000000
-0.3571893569 0.6633516628 -0.0510270510
-0.3061623059 0.7143787138 -0.1020541020
-0.2551352549 0.7654057648 -0.1530811530
-0.2041082040 0.8164328158 -0.2041082040
-0.7143787138 0.2041082040 0.4082164079
-0.6633516628 0.2551352549 0.3571893569
-0.6123246119 0.3061623059 0.3061623059
-0.5612975609 0.3571893569 0.2551352549
-0.5102705099 0.4082164079 0.2041082040
-0.4592434589 0.4592434589 0.1530811530
-0.4082164079 0.5102705099 0.1020541020
-0.3571893569 0.5612975609 0.0510270510
-0.3061623059 0.6123246119 -0.0000000000
-0.2551352549 0.6633516628 -0.0510270510
-0.2041082040 0.7143787138 -0.1020541020
-0.1530811530 0.7654057648 -0.1530811530
-0.6633516628 0.1530811530 0.4592434589
-0.6123246119 0.2041082040 0.4082164079
-0.5612975609 0.2551352549 0.3571893569
-0.5102705099 0.3061623059 0.3061623059
-0.4592434589 0.3571893569 0.2551352549
-0.4082164079 0.4082164079 0.2041082040
-0.3571893569 0.4592434589 0.1530811530
-0.3061623059 0.5102705099 0.1020541020
-0.2551352549 0.5612975609 0.0510270510
-0.2041082040 0.6123246119 -0.0000000000
-0.1530811530 0.6633516628 -0.0510270510
-0.1020541020 0.7143787138 -0.1020541020
-0.6123246119 0.1020541020 0.5102705099
-0.5612975609 0.1530811530 0.4592434589
-0.5102705099 0.2041082040 0.4082164079
-0.4592434589 0.2551352549 0.3571893569
-0.4082164079 0.3061623059 0.3061623059
-0.3571893569 0.3571893569 0.2551352549
-0.3061623059 0.4082164079 0.2041082040
-0.2551352549 0.4592434589 0.1530811530
-0.2041082040 0.5102705099 0.1020541020
-0.1530811530 0.5612975609 0.0510270510
-0.1020541020 0.6123246119 0.0000000000
-0.0510270510 0.6633516628 -0.0510270510
-0.5612975609 0.0510270510 0.5612975609
-0.5102705099 0.1020541020 0.5102705099
-0.4592434589 0.1530811530 0.4592434589
-0.4082164079 0.2041082040 0.4082164079
-0.3571893569 0.2551352549 0.3571893569
-0.3061623059 0.3061623059 0.3061623059
-0.2551352549 0.3571893569 0.2551352549
-0.2041082040 0.4082164079 0.2041082040
-0.1530811530 0.4592434589 0.1530811530
-0.1020541020 0.5102705099 0.1020541020
-0.0510270510 0.5612975609 0.0510270510
0.0000000000 0.6123246119 0.0000000000
-0.5102705099 0.0000000000 0.6123246119
-0.4592434589 0.0510270510 0.5612975609
-0.4082164079 0.1020541020 0.5102705099
-0.3571893569 0.1530811530 0.4592434589
-0.3061623059 0.2041082040 0.4082164079
-0.2551352549 0.2551352549 0.3571893569
-0.2041082040 0.3061623059 0.3061623059
-0.1530811530 0.3571893569 0.2551352549
-0.1020541020 0.4082164079 0.2041082040
-0.0510270510 0.4592434589 0.1530811530
0.0000000000 0.5102705099 0.1020541020
0.0510270510 0.5612975609 0.0510270510
-0.4592434589 -0.0510270510 0.6633516628
-0.4082164079 0.0000000000 0.6123246119
-0.3571893569 0.0510270510 0.5612975609
-0.3061623059 0.1020541020 0.5102705099
-0.2551352549 0.1530811530 0.4592434589
-0.2041082040 0.2041082040 0.4082164079
-0.1530811530 0.2551352549 0.3571893569
-0.1020541020 0.3061623059 0.3061623059
-0.0510270510 0.3571893569 0.2551352549
0.0000000000 0.4082164079 0.2041082040
0.0510270510 0.4592434589 0.1530811530
0.1020541020 0.5102705099 0.1020541020
-0.4082164079 -0.1020541020 0.7143787138
-0.3571893569 -0.0510270510 0.6633516628
-0.3061623059 0.0000000000 0.6123246119
-0.2551352549 0.0510270510 0.5612975609
-0.2041082040 0.1020541020 0.5102705099
-0.1530811530 0.1530811530 0.4592434589
-0.1020541020 0.2041082040 0.4082164079
-0.0510270510 0.2551352549 0.3571893569
0.0000000000 0.3061623059 0.3061623059
0.0510270510 0.3571893569 0.2551352549
0.1020541020 0.4082164079 0.2041082040
0.1530811530 0.4592434589 0.1530811530
-0.3571893569 -0.1530811530 0.7654057648
-0.3061623059 -0.1020541020 0.7143787138
-0.2551352549 -0.0510270510 0.6633516628
-0.2041082040 0.0000000000 0.6123246119
-0.1530811530 0.0510270510 0.5612975609
-0.1020541020 0.1020541020 0.5102705099
-0.0510270510 0.1530811530 0.4592434589
0.0000000000 0.2041082040 0.4082164079
0.0510270510 0.2551352549 0.3571893569
0.1020541020 0.3061623059 0.3061623059
0.1530811530 0.3571893569 0.2551352549
0.2041082040 0.4082164079 0.2041082040
-0.3061623059 -0.2041082040 0.8164328158
-0.2551352549 -0.1530811530 0.7654057648
-0.2041082040 -0.1020541020 0.7143787138
-0.1530811530 -0.0510270510 0.6633516628
-0.1020541020 0.0000000000 0.6123246119
-0.0510270510 0.0510270510 0.5612975609
0.0000000000 0.1020541020 0.5102705099
0.0510270510 0.1530811530 0.4592434589
0.1020541020 0.2041082040 0.4082164079
0.1530811530 0.2551352549 0.3571893569
0.2041082040 0.3061623059 0.3061623059
0.2551352549 0.3571893569 0.2551352549
-0.2551352549 -0.2551352549 0.8674598668
-0.2041082040 -0.2041082040 0.8164328158
-0.1530811530 -0.1530811530 0.7654057648
-0.1020541020 -0.1020541020 0.7143787138
-0.0510270510 -0.0510270510 0.6633516628
0.0000000000 0.0000000000 0.6123246119
0.0510270510 0.0510270510 0.5612975609
0.1020541020 0.1020541020 0.5102705099
0.1530811530 0.1530811530 0.4592434589
0.2041082040 0.2041082040 0.4082164079
0.2551352549 0.2551352549 0.3571893569
0.3061623059 0.3061623059 0.3061623059
 There are 14 alpha and 14 beta electrons
 Start computing overlap matrix
 Allocate 127844352 B from available memory: 1048575736800 B
[...]
 3.08857 3.14631 3.60585 3.76869 3.89033 4.00136 5.53376 7.61979
 == 1698-th k-point (-0.05103,0.15308,0.45924) occupation: 14==
 -64.99277 -64.99275 -4.62162 -4.62152 -3.03250 -3.03249 -3.03223 -3.03201 -3.03175 -3.03173
 -0.06819 0.05440 0.14861 0.17794 0.34126 0.38914 0.49138 0.55965 0.65985 0.67564
 0.74789 0.76112 0.81453 0.83761 0.92941 0.93783 1.02968 1.03070 1.09499 1.13891
 1.18592 1.21745 1.27031 1.36197 1.41858 1.46046 1.55921 1.57360 1.63243 1.66853
 1.70464 1.72772 1.80302 1.85617 1.88100 1.92804 2.00669 2.02748 2.08076 2.11493
 2.17261 2.22391 2.26992 2.34362 2.36610 2.39772 2.41054 2.51077 2.59922 2.77645
 3.03001 3.29787 3.54823 3.80920 3.87260 3.96492 6.27579 7.33657
 == 1699-th k-point (0.00000,0.20411,0.40822) occupation: 14==
 -64.99277 -64.99276 -4.62164 -4.62151 -3.03249 -3.03248 -3.03226 -3.03198 -3.03176 -3.03174
 -0.07994 0.06827 0.14339 0.19042 0.38284 0.41575 0.43421 0.54038 0.61674 0.64662
 0.76349 0.77594 0.79720 0.84167 0.91211 0.95735 1.02444 1.07195 1.10728 1.15198
 1.21064 1.21316 1.32218 1.38000 1.43467 1.45003 1.54977 1.55802 1.60390 1.64293
 1.67411 1.71530 1.78331 1.86083 1.91273 1.93822 1.97987 1.99469 2.05388 2.12325
 2.18978 2.21359 2.23342 2.35607 2.36751 2.39398 2.43982 2.49312 2.60917 2.78871
 2.93604 3.36077 3.51082 3.85082 3.91187 3.93586 6.81082 7.10017
 == 1700-th k-point (0.05103,0.25514,0.35719) occupation: 14==
 -64.99277 -64.99276 -4.62164 -4.62150 -3.03248 -3.03248 -3.03230 -3.03195 -3.03177 -3.03175
 -0.08610 0.06719 0.14558 0.21408 0.38786 0.41099 0.47366 0.49281 0.57917 0.63708
 0.73418 0.76794 0.80932 0.86422 0.92824 0.96115 1.00028 1.09830 1.14406 1.17187
 1.22901 1.26596 1.32240 1.37219 1.39906 1.47028 1.50348 1.54759 1.60191 1.64076
 1.68815 1.73019 1.77454 1.82226 1.90405 1.92639 1.96034 2.01767 2.07847 2.16279
 2.18187 2.21359 2.24471 2.34801 2.39097 2.41688 2.48372 2.53276 2.59728 2.71317
 2.94504 3.40219 3.49887 3.85119 3.93592 4.01563 6.76175 7.43277
 == 1701-th k-point (0.10205,0.30616,0.30616) occupation: 14==
 -64.99278 -64.99276 -4.62164 -4.62150 -3.03248 -3.03248 -3.03231 -3.03192 -3.03178 -3.03175
 -0.08665 0.05450 0.16291 0.22720 0.36828 0.43032 0.43458 0.54682 0.55580 0.62785
 0.70952 0.75896 0.83191 0.86505 0.89518 0.96725 1.04085 1.11694 1.15216 1.18919
 1.23901 1.26289 1.34085 1.37982 1.40501 1.42611 1.46872 1.57808 1.59608 1.63110
 1.63854 1.75418 1.80059 1.82294 1.88746 1.90012 1.99818 2.03886 2.07009 2.14038
 2.22895 2.25367 2.26821 2.35630 2.42013 2.42969 2.51549 2.54914 2.57439 2.63622
 3.01005 3.41969 3.50007 3.80028 3.98472 4.07131 6.66169 7.56547
 == 1702-th k-point (0.15308,0.35719,0.25514) occupation: 14==
 -64.99278 -64.99275 -4.62164 -4.62150 -3.03248 -3.03248 -3.03231 -3.03192 -3.03178 -3.03176
 -0.08188 0.04136 0.18084 0.21766 0.37385 0.39631 0.44631 0.52927 0.61671 0.64054
 0.70368 0.74576 0.77949 0.86495 0.92391 0.99921 1.05438 1.10581 1.12809 1.17870
 1.20995 1.31635 1.33212 1.36839 1.43588 1.44408 1.48566 1.52364 1.55064 1.61753
 1.64683 1.73996 1.80014 1.84213 1.89340 1.93907 1.99301 2.02535 2.07538 2.18172
 2.20580 2.25813 2.30001 2.36247 2.42913 2.44846 2.48782 2.52195 2.55905 2.61997
 3.19014 3.40109 3.51857 3.73947 4.00600 4.06910 6.08127 7.80701
 == 1703-th k-point (0.20411,0.40822,0.20411) occupation: 14==
 -64.99278 -64.99274 -4.62163 -4.62151 -3.03249 -3.03249 -3.03230 -3.03194 -3.03177 -3.03175
 -0.07242 0.03233 0.17297 0.20941 0.35314 0.43002 0.44971 0.51611 0.62887 0.67498
 0.72333 0.72508 0.74868 0.88445 0.95523 1.01879 1.05247 1.06678 1.08978 1.15421
 1.21077 1.31416 1.33287 1.36471 1.42407 1.43439 1.48196 1.53779 1.58261 1.61741
 1.64536 1.73867 1.80324 1.82285 1.89320 1.96179 1.98462 2.01069 2.09081 2.17711
 2.22052 2.25416 2.31793 2.38209 2.38801 2.44071 2.44607 2.52450 2.55889 2.63267
 3.25846 3.42166 3.53800 3.68192 4.01757 4.02453 5.82540 7.84906
 == 1704-th k-point (-0.30616,-0.20411,0.81643) occupation: 14==
 -64.99278 -64.99275 -4.62163 -4.62151 -3.03248 -3.03248 -3.03231 -3.03193 -3.03177 -3.03175
 -0.06934 0.02290 0.17954 0.21422 0.37310 0.39321 0.44477 0.57515 0.58858 0.65466
 0.70843 0.72695 0.80785 0.81535 1.00100 1.00439 1.07601 1.09196 1.09228 1.15092
 1.23933 1.30750 1.33739 1.34283 1.41927 1.44932 1.48130 1.51991 1.54782 1.63029
 1.66503 1.69499 1.80722 1.85555 1.90579 1.91644 1.95709 2.03303 2.07257 2.16798
 2.24668 2.26294 2.32707 2.37010 2.45413 2.47240 2.48655 2.49524 2.56777 2.59280
 3.21671 3.32675 3.58626 3.61146 4.01893 4.07731 5.98392 7.55474
 == 1705-th k-point (-0.25514,-0.15308,0.76541) occupation: 14==
 -64.99277 -64.99275 -4.62162 -4.62152 -3.03249 -3.03248 -3.03226 -3.03197 -3.03176 -3.03174
 -0.05927 0.02779 0.14734 0.19586 0.36536 0.42357 0.49708 0.51093 0.58606 0.67576
 0.72036 0.74454 0.82373 0.90101 0.95185 0.99442 1.01653 1.04393 1.11088 1.12207
 1.22533 1.24901 1.29791 1.36905 1.41574 1.45349 1.47842 1.51432 1.59202 1.64687
 1.65891 1.76877 1.77885 1.84418 1.89002 1.91336 1.95163 2.01880 2.10547 2.15726
 2.19769 2.23870 2.29146 2.35879 2.44411 2.45274 2.47132 2.52297 2.60870 2.66421
 3.05405 3.26081 3.59505 3.66215 3.93288 3.99352 6.25285 7.34201
 == 1706-th k-point (-0.20411,-0.10205,0.71438) occupation: 14==
 -64.99277 -64.99275 -4.62161 -4.62154 -3.03250 -3.03249 -3.03221 -3.03202 -3.03175 -3.03172
 -0.04642 0.02797 0.12941 0.17823 0.34711 0.43749 0.48018 0.55671 0.59363 0.68751
 0.73643 0.79226 0.83160 0.89044 0.94739 0.98281 0.99139 1.01409 1.08102 1.14354
 1.17119 1.19505 1.24597 1.36692 1.40319 1.46088 1.49673 1.55179 1.59101 1.65198
 1.73094 1.77445 1.80658 1.85478 1.88858 1.92892 1.97427 2.02129 2.07621 2.15157
 2.17319 2.23371 2.28946 2.36882 2.39748 2.42209 2.45377 2.53781 2.61996 2.70066
 2.96452 3.17369 3.60870 3.71834 3.85775 3.89719 6.10133 7.21537
 == 1707-th k-point (-0.15308,-0.05103,0.66335) occupation: 14==
 -64.99277 -64.99275 -4.62159 -4.62155 -3.03250 -3.03249 -3.03216 -3.03207 -3.03174 -3.03172
 -0.03020 0.01321 0.13652 0.16527 0.33353 0.37536 0.54211 0.59600 0.62656 0.68983
 0.74361 0.80414 0.83467 0.87627 0.89691 0.96576 0.99134 1.06155 1.07865 1.09380
 1.17364 1.18249 1.19690 1.26933 1.43602 1.49097 1.53754 1.55452 1.62548 1.66287
 1.76906 1.78885 1.82796 1.84562 1.90073 1.93431 2.00410 2.02890 2.07740 2.13247
 2.17542 2.22217 2.29432 2.33238 2.38106 2.41529 2.46241 2.54558 2.66071 2.72158
 2.92171 3.06697 3.65828 3.74728 3.81950 3.87203 6.14072 7.02187
 == 1708-th k-point (-0.10205,0.00000,0.61232) occupation: 14==
 -64.99276 -64.99276 -4.62157 -4.62157 -3.03249 -3.03249 -3.03212 -3.03212 -3.03174 -3.03174
 -0.01026 -0.01026 0.15831 0.15831 0.32652 0.32652 0.60846 0.60846 0.67666 0.67666
 0.75710 0.75710 0.81904 0.81904 0.95888 0.95888 1.02766 1.02767 1.08528 1.08528
 1.14886 1.14887 1.22895 1.22896 1.45428 1.45428 1.58537 1.58537 1.69452 1.69455
 1.79704 1.79706 1.81472 1.81472 1.91471 1.91471 2.03395 2.03399 2.13128 2.13130
 2.18976 2.18977 2.30274 2.30276 2.37350 2.37351 2.54210 2.54213 2.71672 2.71683
 2.92668 2.92671 3.74257 3.74258 3.89478 3.89479 6.43726 6.43740
 == 1709-th k-point (-0.05103,0.05103,0.56130) occupation: 14==
 -64.99276 -64.99274 -4.62159 -4.62155 -3.03249 -3.03249 -3.03215 -3.03208 -3.03176 -3.03174
 -0.03366 0.01289 0.15772 0.17229 0.30617 0.32726 0.61476 0.61788 0.68513 0.69056
 0.74274 0.75306 0.80435 0.80676 0.93038 0.99635 1.01745 1.03588 1.07442 1.11005
 1.12579 1.17182 1.22170 1.28077 1.41795 1.45428 1.60418 1.60471 1.73213 1.74725
 1.76656 1.77433 1.80241 1.85984 1.87894 1.91754 2.03234 2.05683 2.12834 2.16776
 2.17837 2.18606 2.27259 2.30983 2.33481 2.37898 2.53428 2.57400 2.61475 2.75294
 2.96120 2.98030 3.71008 3.81105 3.94259 4.07308 5.45655 6.79462
 == 1710-th k-point (0.00000,0.10205,0.51027) occupation: 14==
 -64.99276 -64.99276 -4.62161 -4.62154 -3.03250 -3.03249 -3.03219 -3.03205 -3.03175 -3.03174
 -0.05340 0.03690 0.15967 0.16687 0.32252 0.34191 0.55415 0.60531 0.67557 0.69545
 0.73771 0.76525 0.79995 0.87038 0.87695 0.94626 1.02136 1.02588 1.09670 1.11890
 1.18540 1.20309 1.22081 1.28418 1.43853 1.44663 1.59368 1.60365 1.68715 1.69593
 1.72102 1.77652 1.83428 1.83945 1.87007 1.91087 1.98337 2.08441 2.12161 2.12796
 2.15878 2.21984 2.25784 2.33021 2.34306 2.38167 2.44065 2.53656 2.61905 2.80846
 2.98298 3.19234 3.61948 3.82771 3.86330 3.99503 6.51838 6.53746
 == 1711-th k-point (0.05103,0.15308,0.45924) occupation: 14==
 -64.99277 -64.99275 -4.62162 -4.62152 -3.03250 -3.03249 -3.03223 -3.03201 -3.03175 -3.03173
 -0.06819 0.05440 0.14861 0.17794 0.34126 0.38914 0.49138 0.55965 0.65984 0.67564
 0.74789 0.76112 0.81454 0.83761 0.92941 0.93783 1.02968 1.03069 1.09499 1.13892
 1.18593 1.21744 1.27032 1.36199 1.41858 1.46046 1.55921 1.57360 1.63244 1.66854
 1.70464 1.72772 1.80303 1.85616 1.88100 1.92803 2.00670 2.02747 2.08075 2.11493
 2.17260 2.22394 2.26993 2.34363 2.36610 2.39772 2.41054 2.51076 2.59927 2.77641
 3.03003 3.29788 3.54822 3.80921 3.87261 3.96493 6.27586 7.33644
 == 1712-th k-point (0.10205,0.20411,0.40822) occupation: 14==
 -64.99278 -64.99275 -4.62163 -4.62151 -3.03249 -3.03249 -3.03228 -3.03196 -3.03176 -3.03174
 -0.07765 0.05396 0.15638 0.19656 0.36052 0.43387 0.45580 0.50108 0.64410 0.65787
 0.72270 0.75741 0.78233 0.86821 0.95627 0.97366 1.00164 1.07083 1.09730 1.16140
 1.19728 1.26571 1.31128 1.40485 1.43339 1.45682 1.49611 1.53474 1.59476 1.64030
 1.68696 1.72415 1.78224 1.83748 1.89322 1.95286 1.97536 2.02049 2.07886 2.14547
 2.18972 2.22324 2.28725 2.35126 2.39195 2.41386 2.44469 2.51729 2.58587 2.70023
 3.11510 3.36792 3.52247 3.79330 3.92500 3.99581 6.26341 7.68547
 == 1713-th k-point (0.15308,0.25514,0.35719) occupation: 14==
 -64.99278 -64.99275 -4.62164 -4.62150 -3.03248 -3.03248 -3.03231 -3.03192 -3.03178 -3.03176
 -0.08188 0.04136 0.18084 0.21766 0.37385 0.39631 0.44631 0.52927 0.61671 0.64054
 0.70368 0.74576 0.77949 0.86495 0.92391 0.99921 1.05438 1.10581 1.12809 1.17870
 1.20995 1.31635 1.33212 1.36839 1.43588 1.44408 1.48566 1.52364 1.55064 1.61753
 1.64683 1.73996 1.80014 1.84213 1.89340 1.93907 1.99301 2.02535 2.07538 2.18172
 2.20580 2.25813 2.30001 2.36247 2.42913 2.44846 2.48782 2.52195 2.55905 2.61997
 3.19014 3.40109 3.51857 3.73947 4.00600 4.06910 6.08127 7.80701
 == 1714-th k-point (0.20411,0.30616,0.30616) occupation: 14==
 -64.99278 -64.99272 -4.62164 -4.62150 -3.03248 -3.03248 -3.03233 -3.03189 -3.03178 -3.03177
 -0.08134 0.02914 0.20604 0.22954 0.35432 0.40325 0.41092 0.57505 0.61692 0.63553
 0.70282 0.73027 0.77699 0.79646 0.95507 1.04509 1.08812 1.08916 1.16013 1.18917
 1.24048 1.26251 1.34059 1.37733 1.40082 1.46048 1.47163 1.51496 1.57728 1.58744
 1.61727 1.69459 1.84742 1.87350 1.92560 1.93278 2.00966 2.03677 2.03723 2.15954
 2.28431 2.32354 2.32946 2.37690 2.42824 2.45730 2.49703 2.50279 2.51360 2.56217
 3.26553 3.42498 3.51239 3.67199 4.06561 4.09840 4.84342 7.84911
 == 1715-th k-point (0.25514,0.35719,0.25514) occupation: 14==
 -64.99278 -64.99272 -4.62164 -4.62150 -3.03248 -3.03248 -3.03233 -3.03189 -3.03178 -3.03177
 -0.07685 0.02255 0.20958 0.22423 0.35332 0.39893 0.41512 0.57103 0.62080 0.67764
 0.70751 0.71114 0.74146 0.80042 0.98796 1.05150 1.07170 1.10609 1.15041 1.15576
 1.26146 1.29197 1.31685 1.36615 1.39308 1.45881 1.49679 1.50056 1.56742 1.59567
 1.62206 1.68174 1.84191 1.87513 1.93057 1.96283 1.98254 2.02985 2.05136 2.13280
 2.30781 2.34255 2.34284 2.38560 2.42434 2.46454 2.48042 2.49201 2.52626 2.53754
 3.34326 3.43211 3.52036 3.62448 4.07969 4.09064 4.62747 7.77220
 == 1716-th k-point (-0.25514,-0.25514,0.86746) occupation: 14==
 -64.99278 -64.99272 -4.62164 -4.62150 -3.03248 -3.03248 -3.03233 -3.03189 -3.03178 -3.03177
 -0.07685 0.02255 0.20958 0.22423 0.35332 0.39893 0.41512 0.57103 0.62080 0.67764
 0.70751 0.71114 0.74146 0.80042 0.98796 1.05150 1.07170 1.10609 1.15041 1.15576
 1.26146 1.29197 1.31685 1.36615 1.39308 1.45881 1.49679 1.50056 1.56742 1.59567
 1.62206 1.68174 1.84191 1.87513 1.93057 1.96283 1.98254 2.02985 2.05136 2.13280
 2.30781 2.34255 2.34284 2.38560 2.42434 2.46454 2.48042 2.49201 2.52626 2.53754
 3.34326 3.43211 3.52036 3.62448 4.07969 4.09064 4.62747 7.77220
 == 1717-th k-point (-0.20411,-0.20411,0.81643) occupation: 14==
 -64.99278 -64.99274 -4.62163 -4.62151 -3.03249 -3.03249 -3.03230 -3.03194 -3.03177 -3.03175
 -0.07242 0.03233 0.17297 0.20941 0.35314 0.43002 0.44971 0.51611 0.62887 0.67498
 0.72333 0.72508 0.74868 0.88445 0.95523 1.01879 1.05247 1.06678 1.08978 1.15421
 1.21077 1.31416 1.33287 1.36471 1.42407 1.43439 1.48196 1.53779 1.58261 1.61741
 1.64536 1.73867 1.80324 1.82285 1.89320 1.96179 1.98462 2.01069 2.09081 2.17711
 2.22052 2.25416 2.31793 2.38209 2.38801 2.44071 2.44607 2.52450 2.55889 2.63267
 3.25846 3.42166 3.53800 3.68192 4.01757 4.02453 5.82540 7.84906
 == 1718-th k-point (-0.15308,-0.15308,0.76541) occupation: 14==
 -64.99278 -64.99274 -4.62162 -4.62152 -3.03250 -3.03250 -3.03225 -3.03199 -3.03176 -3.03173
 -0.06411 0.04087 0.14485 0.19351 0.33378 0.44292 0.48999 0.49814 0.65665 0.67640
 0.73793 0.75335 0.76653 0.90803 0.96056 0.98005 1.02538 1.02614 1.04386 1.16468
 1.18902 1.24833 1.26059 1.39501 1.43789 1.46501 1.47760 1.52483 1.62442 1.68807
 1.69851 1.72716 1.80547 1.81640 1.87927 1.94852 2.00470 2.01834 2.10096 2.10753
 2.18169 2.25803 2.30239 2.36415 2.39725 2.40129 2.42321 2.52697 2.57524 2.69080
 3.17578 3.32251 3.55661 3.73582 3.92860 3.97885 5.71924 7.84749
 == 1719-th k-point (-0.10205,-0.10205,0.71438) occupation: 14==
 -64.99277 -64.99274 -4.62161 -4.62154 -3.03250 -3.03250 -3.03220 -3.03204 -3.03175 -3.03173
 -0.05127 0.03440 0.14100 0.18055 0.31688 0.37823 0.55505 0.55522 0.67307 0.68212
 0.74389 0.75555 0.83321 0.87158 0.88408 0.98950 1.00400 1.02959 1.06429 1.15940
 1.17416 1.18342 1.21778 1.33141 1.40928 1.48093 1.54704 1.56095 1.67230 1.70925
 1.74292 1.76640 1.81386 1.83197 1.86243 1.94096 2.02595 2.03657 2.05996 2.12986
 2.15794 2.23071 2.29848 2.34068 2.35944 2.40919 2.45682 2.52728 2.58563 2.73274
 3.08855 3.14627 3.60583 3.76869 3.89033 4.00141 5.53375 7.61965
 == 1720-th k-point (-0.05103,-0.05103,0.66335) occupation: 14==
 -64.99276 -64.99274 -4.62159 -4.62155 -3.03249 -3.03249 -3.03215 -3.03208 -3.03176 -3.03174
 -0.03366 0.01289 0.15772 0.17229 0.30617 0.32726 0.61476 0.61788 0.68513 0.69056
 0.74274 0.75306 0.80435 0.80676 0.93038 0.99635 1.01745 1.03588 1.07442 1.11007
 1.12578 1.17182 1.22169 1.28077 1.41796 1.45428 1.60418 1.60471 1.73220 1.74722
 1.76657 1.77431 1.80239 1.85983 1.87894 1.91751 2.03225 2.05710 2.12829 2.16775
 2.17866 2.18607 2.27272 2.30975 2.33481 2.37899 2.53419 2.57467 2.61454 2.75270
 2.96152 2.98017 3.71008 3.81102 3.94257 4.07348 5.45654 6.79408
 == 1721-th k-point (0.00000,0.00000,0.61232) occupation: 14==
 -64.99274 -64.99274 -4.62157 -4.62157 -3.03249 -3.03249 -3.03211 -3.03211 -3.03176 -3.03176
 -0.01168 -0.01168 0.16947 0.16947 0.30391 0.30391 0.64989 0.64989 0.69678 0.69678
 0.75183 0.75183 0.75866 0.75866 0.99837 0.99837 1.04418 1.04419 1.06830 1.06830
 1.11741 1.11741 1.27231 1.27231 1.42106 1.42107 1.63522 1.63522 1.75533 1.75533
 1.76865 1.76866 1.84908 1.84909 1.89710 1.89710 2.11781 2.11781 2.15496 2.15496
 2.17188 2.17312 2.25554 2.25554 2.34457 2.34457 2.65587 2.65772 2.66304 2.66306
 2.83530 2.83530 3.83499 3.83500 4.13236 4.13321 5.45521 5.45523
 == 1722-th k-point (0.05103,0.05103,0.56130) occupation: 14==
 -64.99276 -64.99274 -4.62159 -4.62155 -3.03249 -3.03249 -3.03215 -3.03208 -3.03176 -3.03174
 -0.03366 0.01289 0.15772 0.17229 0.30617 0.32726 0.61476 0.61788 0.68513 0.69056
 0.74274 0.75306 0.80435 0.80676 0.93038 0.99635 1.01745 1.03588 1.07442 1.11007
 1.12578 1.17182 1.22169 1.28077 1.41796 1.45428 1.60418 1.60471 1.73220 1.74722
 1.76657 1.77431 1.80239 1.85983 1.87894 1.91751 2.03225 2.05710 2.12829 2.16775
 2.17866 2.18607 2.27272 2.30975 2.33481 2.37899 2.53419 2.57467 2.61454 2.75270
 2.96152 2.98017 3.71008 3.81102 3.94257 4.07348 5.45654 6.79408
 == 1723-th k-point (0.10205,0.10205,0.51027) occupation: 14==
 -64.99277 -64.99274 -4.62161 -4.62154 -3.03250 -3.03250 -3.03220 -3.03204 -3.03175 -3.03173
 -0.05127 0.03440 0.14100 0.18055 0.31688 0.37823 0.55505 0.55522 0.67307 0.68212
 0.74389 0.75555 0.83321 0.87158 0.88408 0.98950 1.00400 1.02959 1.06429 1.15940
 1.17416 1.18342 1.21778 1.33141 1.40928 1.48093 1.54704 1.56095 1.67230 1.70925
 1.74292 1.76640 1.81386 1.83197 1.86243 1.94096 2.02595 2.03657 2.05996 2.12986
 2.15794 2.23071 2.29848 2.34068 2.35944 2.40919 2.45682 2.52728 2.58563 2.73274
 3.08855 3.14627 3.60583 3.76869 3.89033 4.00141 5.53375 7.61965
 == 1724-th k-point (0.15308,0.15308,0.45924) occupation: 14==
 -64.99278 -64.99274 -4.62162 -4.62152 -3.03250 -3.03250 -3.03225 -3.03199 -3.03176 -3.03173
 -0.06411 0.04087 0.14485 0.19351 0.33378 0.44292 0.48999 0.49814 0.65665 0.67640
 0.73793 0.75335 0.76653 0.90803 0.96056 0.98005 1.02538 1.02614 1.04386 1.16468
 1.18902 1.24833 1.26059 1.39501 1.43789 1.46501 1.47760 1.52483 1.62442 1.68807
 1.69851 1.72716 1.80547 1.81640 1.87927 1.94852 2.00470 2.01834 2.10096 2.10753
 2.18169 2.25803 2.30239 2.36415 2.39725 2.40129 2.42321 2.52697 2.57524 2.69080
 3.17578 3.32251 3.55661 3.73582 3.92860 3.97885 5.71924 7.84749
 == 1725-th k-point (0.20411,0.20411,0.40822) occupation: 14==
 -64.99278 -64.99274 -4.62163 -4.62151 -3.03249 -3.03249 -3.03230 -3.03194 -3.03177 -3.03175
 -0.07242 0.03233 0.17297 0.20941 0.35314 0.43002 0.44971 0.51611 0.62887 0.67498
 0.72333 0.72508 0.74868 0.88445 0.95523 1.01879 1.05247 1.06678 1.08978 1.15421
 1.21077 1.31416 1.33287 1.36471 1.42407 1.43439 1.48196 1.53779 1.58261 1.61741
 1.64536 1.73867 1.80324 1.82285 1.89320 1.96179 1.98462 2.01069 2.09081 2.17711
 2.22052 2.25416 2.31793 2.38209 2.38801 2.44071 2.44607 2.52450 2.55889 2.63267
 3.25846 3.42166 3.53800 3.68192 4.01757 4.02453 5.82540 7.84906
 == 1726-th k-point (0.25514,0.25514,0.35719) occupation: 14==
 -64.99278 -64.99272 -4.62164 -4.62150 -3.03248 -3.03248 -3.03233 -3.03189 -3.03178 -3.03177
 -0.07685 0.02255 0.20958 0.22423 0.35332 0.39893 0.41512 0.57103 0.62080 0.67764
 0.70751 0.71114 0.74146 0.80042 0.98796 1.05150 1.07170 1.10609 1.15041 1.15576
 1.26146 1.29197 1.31685 1.36615 1.39308 1.45881 1.49679 1.50056 1.56742 1.59567
 1.62206 1.68174 1.84191 1.87513 1.93057 1.96283 1.98254 2.02985 2.05136 2.13280
 2.30781 2.34255 2.34284 2.38560 2.42434 2.46454 2.48042 2.49201 2.52626 2.53754
 3.34326 3.43211 3.52036 3.62448 4.07969 4.09064 4.62747 7.77220
 == 1727-th k-point (0.30616,0.30616,0.30616) occupation: 14==
 -64.99278 -64.99270 -4.62163 -4.62150 -3.03248 -3.03248 -3.03234 -3.03187 -3.03179 -3.03179
 -0.07821 0.01870 0.23077 0.23077 0.33466 0.40194 0.40194 0.56686 0.68049 0.68049
 0.69962 0.70406 0.70406 0.76576 1.01826 1.03395 1.10982 1.10982 1.15915 1.15915
 1.25346 1.29785 1.29785 1.36107 1.36107 1.42142 1.54721 1.54721 1.55495 1.55495
 1.63730 1.64274 1.86224 1.93246 1.96202 1.96202 2.01460 2.01460 2.01468 2.08819
 2.34472 2.34472 2.42810 2.42810 2.43665 2.43665 2.45894 2.49389 2.49389 2.50310
 3.42763 3.42763 3.47017 3.58071 3.67408 4.10131 4.10131 7.72815
 ---------------------------------------------------------------------------
 VBM is at 785-th k-point with 7.51132 eV
 CBM is at 60-th k-point with 8.12462 eV
 Band gap is 0.61330 eV


           Ground-State Mulliken Net Atomic Charges

      Atom                 Charge (a.u.)          Spin (a.u.)
   --------------------------------------------------------
      1 Si               (0.000000,-0.000000)    (0.000000,0.000000)
      2 Si               (-0.000000,0.000000)    (0.000000,0.000000)
   --------------------------------------------------------
  Sum of atomic charges =     (-0.000000,-0.000000)
  Sum of spin   charges =       (0.000000,0.000000)



 Total job time:  474.33 s.
 Tue Sep  9 10:57:28 2025


        *************************************************************
        *                                                           *
        *  Thank you very much for using QCPBC. Have a nice day.    *
        *                                                           *
        *************************************************************

Running job 1 of 1
