                  Welcome to Q-Chem
           with Periodic Boundary Condition
     A Quantum Leap Into The Future Of Chemistry

 Adam Rettig, Xintian Feng, Meng-Fu Chen, Hieu Dinh, Stephen Quiton,
 Anton Ni, Paul J. Robinson, Jinghong Zhang, Joonho Lee

Contributors to earlier versions of Q-Chem not listed above:
 Evgeny Epifanovsky, Leo Cunha, Jerome F. Gonthier, Kuan-Yu Liu
 Input file: /n/netscratch/joonholee_lab/Lab/hieudinh//si_2_ccpvtz_omega_0.6_121212.scratch20250909104131/si_2_ccpvtz_omega_0.6_121212.0
 Scratch folder: /n/netscratch/joonholee_lab/Lab/hieudinh//si_2_ccpvtz_omega_0.6_121212.scratch20250909104131
 Auxillary files located at: /n/holylabs/LABS/joonholee_lab/Lab/qchem_base/qcaux
 Q-Chem begins on Tue Sep  9 10:41:32 2025

 -------------------------------------------------------------
 User input:
 -------------------------------------------------------------
 $lattice
 3
 0.000000 5.130600 5.130600
 5.130600 0.000000 5.130600
 5.130600 5.130600 0.000000
 $end
 
 $unitcell
 ABSOLUTE
 0 1
 Si 0.000000 0.000000 0.000000
 Si 2.565300 2.565300 2.565300
 $end
 
 $rem
 jobtype = sp
 method = pbe
 scf_convergence = 5
 scf_guess = autosad
 scf_algorithm = diis_gdm
 basis = cc-pvtz
 aux_basis = cc-pvtz-jk
 input_bohr = true
 symmetry = false
 rsdf_print_level 1
 is_basis_uctr true
 
 mp_mesh = [12,12,12]
 
 integral_direct true
 bvk_cgto true
 
 thresh 14
 mem_total 1000000
 threads 32
 
 MAX_SCF_CYCLES 500
 madelung = false
 omega 0.6
 do_rij_bigmem true
 automate_g true
 print_level 10
 grid_type_xc 1
 
 thresh_1e2c_sp 1e-14
 thresh_2e3c_bra_ket_sep 1e-10
 thresh_g 1e-12
 $end
 
 -------------------------------------------------------------
 Running PBC job

 Requested Exchange Correlation Functionals: 
  DFT Exchange:  1.00000 pbe_x
  DFT Correlation:  1.00000 pbe_c
 using 32 threads for computing.
 ---------------------------------------------------------------
      Coordinates of Atoms in Central Unit Cell (Angstroms)
    I     Atom         X            Y            Z
 ---------------------------------------------------------------
    1      Si      0.000000     0.000000     0.000000
    2      Si      1.357498     1.357498     1.357498
 ---------------------------------------------------------------
 --------------------------------------------------
              Lattice Vectors (Angstroms)
              X            Y            Z
 --------------------------------------------------
   X       0.000000     2.714997     2.714997
   Y       2.714997     0.000000     2.714997
   Z       2.714997     2.714997     0.000000
 --------------------------------------------------
 --------------------------------------------------
       Reciprocal Lattice Vectors (Angstroms^-1)
              X            Y            Z
 --------------------------------------------------
   X      -1.157126     1.157126     1.157126
   Y       1.157126    -1.157126     1.157126
   Z       1.157126     1.157126    -1.157126
 --------------------------------------------------

 Single point calculation requested

 Hamiltonian contributions:
 List of terms in Hamiltonian: kpts_nn, kpts_kinetic, kpts_vnuc_df, kpts_xc, kpts_rij_bigmem

 K-Points calculation started.

 Basis set information about using solid harmonic (1) or Cartesian (0):
  si : D(1) D(1) F(1) 

 Basis set information about using solid harmonic (1) or Cartesian (0):
  si : D(1) D(1) D(1) D(1) D(1) D(1) D(1) D(1) D(1) F(1) F(1) F(1) G(1) 

 There are 68 basis functions in the central unit cell.
 Print atomic basis of atoms in the central unit cell:
 -------------------------------------------------------------
2 104 104 24

  0.00000000000000e+00  0.00000000000000e+00  0.00000000000000e+00
  2.56530000000000e+00  2.56530000000000e+00  2.56530000000000e+00

  2.54900000000000e+05
  3.81900000000000e+04
  8.69000000000000e+03
  2.46200000000000e+03
  8.04800000000000e+02
  2.91300000000000e+02
  1.13600000000000e+02
  4.67500000000000e+01
  1.98200000000000e+01
  7.70800000000000e+00
  3.34000000000000e+00
  2.54900000000000e+05
  3.81900000000000e+04
  8.69000000000000e+03
  8.04800000000000e+02
  2.91300000000000e+02
  1.13600000000000e+02
  4.67500000000000e+01
  1.98200000000000e+01
  7.70800000000000e+00
  3.34000000000000e+00
  1.40200000000000e+00
  2.54900000000000e+05
  3.81900000000000e+04
  8.69000000000000e+03
  2.91300000000000e+02
  1.13600000000000e+02
  4.67500000000000e+01
  1.98200000000000e+01
  7.70800000000000e+00
  3.34000000000000e+00
  1.40200000000000e+00
  2.07000000000000e-01
  4.38700000000000e-01
  7.94400000000000e-02
  4.81500000000000e+02
  1.13900000000000e+02
  3.62300000000000e+01
  1.33400000000000e+01
  5.25200000000000e+00
  2.12000000000000e+00
  1.13900000000000e+02
  3.62300000000000e+01
  1.33400000000000e+01
  5.25200000000000e+00
  2.12000000000000e+00
  2.52800000000000e-01
  8.56100000000000e-01
  7.88900000000000e-02
  4.81000000000000e-01
  1.59000000000000e-01
  3.36000000000000e-01
  2.54900000000000e+05
  3.81900000000000e+04
  8.69000000000000e+03
  2.46200000000000e+03
  8.04800000000000e+02
  2.91300000000000e+02
  1.13600000000000e+02
  4.67500000000000e+01
  1.98200000000000e+01
  7.70800000000000e+00
  3.34000000000000e+00
  2.54900000000000e+05
  3.81900000000000e+04
  8.69000000000000e+03
  8.04800000000000e+02
  2.91300000000000e+02
  1.13600000000000e+02
  4.67500000000000e+01
  1.98200000000000e+01
  7.70800000000000e+00
  3.34000000000000e+00
  1.40200000000000e+00
  2.54900000000000e+05
  3.81900000000000e+04
  8.69000000000000e+03
  2.91300000000000e+02
  1.13600000000000e+02
  4.67500000000000e+01
  1.98200000000000e+01
  7.70800000000000e+00
  3.34000000000000e+00
  1.40200000000000e+00
  2.07000000000000e-01
  4.38700000000000e-01
  7.94400000000000e-02
  4.81500000000000e+02
  1.13900000000000e+02
  3.62300000000000e+01
  1.33400000000000e+01
  5.25200000000000e+00
  2.12000000000000e+00
  1.13900000000000e+02
  3.62300000000000e+01
  1.33400000000000e+01
  5.25200000000000e+00
  2.12000000000000e+00
  2.52800000000000e-01
  8.56100000000000e-01
  7.88900000000000e-02
  4.81000000000000e-01
  1.59000000000000e-01
  3.36000000000000e-01

  5.06121931014315e-01
  9.46667895564849e-01
  1.63484840115776e+00
  2.64073594005923e+00
  3.97699155153283e+00
  5.40905960736848e+00
  6.15868961670172e+00
  4.99170532032548e+00
  2.02857976424901e+00
  1.82839763527352e-01
 -1.25640690342342e-02
  1.10808750449959e-03
  1.94415577975663e-03
  2.70023730632789e-03
 -1.69098200112149e-02
 -8.66890848691569e-02
 -2.76125946359713e-01
 -6.25588788447604e-01
 -6.61701688370681e-01
  3.11114524237060e-01
  9.56658906468163e-01
  4.36891217824705e-01
  1.05873342256663e-04
  1.52975802748887e-04
  4.28394863673135e-04
 -4.94070443505333e-03
 -1.17298035021286e-02
 -2.95023896611804e-02
 -1.71455066569284e-02
  3.00007138114875e-03
 -6.19326651465540e-02
 -2.59989143457351e-01
  2.47187614608056e-01
  3.84180942836044e-01
  1.06644759418552e-01
  6.70509611941243e+00
  8.84487660481054e+00
  9.82415782069442e+00
  8.40902910540583e+00
  4.80448757555754e+00
  1.55989499299286e+00
 -1.15889775037608e-01
 -5.13312293701512e-02
 -2.64771097977823e-01
 -6.52512718105956e-02
 -1.94608613796415e-01
  2.59380435893970e-01
  1.17380433533106e+00
  5.95960578383022e-02
  4.57260134599596e-01
  6.58952976069849e-02
  1.26537084505476e-01
  5.06121931014315e-01
  9.46667895564849e-01
  1.63484840115776e+00
  2.64073594005923e+00
  3.97699155153283e+00
  5.40905960736848e+00
  6.15868961670172e+00
  4.99170532032548e+00
  2.02857976424901e+00
  1.82839763527352e-01
 -1.25640690342342e-02
  1.10808750449959e-03
  1.94415577975663e-03
  2.70023730632789e-03
 -1.69098200112149e-02
 -8.66890848691569e-02
 -2.76125946359713e-01
 -6.25588788447604e-01
 -6.61701688370681e-01
  3.11114524237060e-01
  9.56658906468163e-01
  4.36891217824705e-01
  1.05873342256663e-04
  1.52975802748887e-04
  4.28394863673135e-04
 -4.94070443505333e-03
 -1.17298035021286e-02
 -2.95023896611804e-02
 -1.71455066569284e-02
  3.00007138114875e-03
 -6.19326651465540e-02
 -2.59989143457351e-01
  2.47187614608056e-01
  3.84180942836044e-01
  1.06644759418552e-01
  6.70509611941243e+00
  8.84487660481054e+00
  9.82415782069442e+00
  8.40902910540583e+00
  4.80448757555754e+00
  1.55989499299286e+00
 -1.15889775037608e-01
 -5.13312293701512e-02
 -2.64771097977823e-01
 -6.52512718105956e-02
 -1.94608613796415e-01
  2.59380435893970e-01
  1.17380433533106e+00
  5.95960578383022e-02
  4.57260134599596e-01
  6.58952976069849e-02
  1.26537084505476e-01

0 0 0 0 1 1 1
0 0 
11 0

0 1 1 11 1 1 1
11 0 
11 0

0 2 2 22 1 1 1
22 0 
11 0

0 3 3 33 1 1 1
33 0 
1 0

0 4 4 34 1 1 1
34 0 
1 0

0 5 5 35 1 3 3
35 1 
6 0

0 8 8 41 1 3 3
41 1 
6 0

0 11 11 47 1 3 3
47 1 
1 0

0 14 14 48 1 3 3
48 1 
1 0

0 17 17 49 1 5 6
49 2 
1 1

0 22 22 50 1 5 6
50 2 
1 1

0 27 27 51 1 7 10
51 3 
1 1

1 34 34 52 1 1 1
52 0 
11 0

1 35 35 63 1 1 1
63 0 
11 0

1 36 36 74 1 1 1
74 0 
11 0

1 37 37 85 1 1 1
85 0 
1 0

1 38 38 86 1 1 1
86 0 
1 0

1 39 39 87 1 3 3
87 1 
6 0

1 42 42 93 1 3 3
93 1 
6 0

1 45 45 99 1 3 3
99 1 
1 0

1 48 48 100 1 3 3
100 1 
1 0

1 51 51 101 1 5 6
101 2 
1 1

1 56 56 102 1 5 6
102 2 
1 1

1 61 61 103 1 7 10
103 3 
1 1

 -------------------------------------------------------------
 Allocate 263208 B from available memory: 1048576000000 B
 There are 1331 image cells after screening.
 There are 1353 image cells for CGTO evaluation after screening.
 Real-Space grid for FFT initialized based on kinetic energy cutoff (eV) = 500.0
 Real-Space grid for FFT: (10,10,10)
 There are 9261 real-space grid points.
 There are 64 batches of real-space grid points. 
 Size of each grid batch is around 128
 Grid for AFT initialized based on kinetic energy cutoff (eV) = 500.0
 Real-Space grid for AFT: (10,10,10)
 There are 9261 real-space grid points.

 There are 5456 atom-centered grid points.

 Spacegroup symmetry group: Fd-3m
 Reducing spacegroup symmetry to symmorphic group: F -4 3 m
 Monkhorst-Pack mesh is [12,12,12]
 There are 1728 k points.
kpoints in Bohr
-0.2551352549 -0.2551352549 -0.2551352549
-0.2041082040 -0.2041082040 -0.3061623059
-0.1530811530 -0.1530811530 -0.3571893569
-0.1020541020 -0.1020541020 -0.4082164079
-0.0510270510 -0.0510270510 -0.4592434589
-0.0000000000 -0.0000000000 -0.5102705099
0.0510270510 0.0510270510 -0.5612975609
0.1020541020 0.1020541020 -0.6123246119
0.1530811530 0.1530811530 -0.6633516628
0.2041082040 0.2041082040 -0.7143787138
0.2551352549 0.2551352549 -0.7654057648
0.3061623059 0.3061623059 -0.8164328158
-0.2041082040 -0.3061623059 -0.2041082040
-0.1530811530 -0.2551352549 -0.2551352549
-0.1020541020 -0.2041082040 -0.3061623059
-0.0510270510 -0.1530811530 -0.3571893569
-0.0000000000 -0.1020541020 -0.4082164079
0.0510270510 -0.0510270510 -0.4592434589
0.1020541020 -0.0000000000 -0.5102705099
0.1530811530 0.0510270510 -0.5612975609
0.2041082040 0.1020541020 -0.6123246119
0.2551352549 0.1530811530 -0.6633516628
0.3061623059 0.2041082040 -0.7143787138
0.3571893569 0.2551352549 -0.7654057648
-0.1530811530 -0.3571893569 -0.1530811530
-0.1020541020 -0.3061623059 -0.2041082040
-0.0510270510 -0.2551352549 -0.2551352549
-0.0000000000 -0.2041082040 -0.3061623059
0.0510270510 -0.1530811530 -0.3571893569
0.1020541020 -0.1020541020 -0.4082164079
0.1530811530 -0.0510270510 -0.4592434589
0.2041082040 -0.0000000000 -0.5102705099
0.2551352549 0.0510270510 -0.5612975609
0.3061623059 0.1020541020 -0.6123246119
0.3571893569 0.1530811530 -0.6633516628
0.4082164079 0.2041082040 -0.7143787138
-0.1020541020 -0.4082164079 -0.1020541020
-0.0510270510 -0.3571893569 -0.1530811530
-0.0000000000 -0.3061623059 -0.2041082040
0.0510270510 -0.2551352549 -0.2551352549
0.1020541020 -0.2041082040 -0.3061623059
0.1530811530 -0.1530811530 -0.3571893569
0.2041082040 -0.1020541020 -0.4082164079
0.2551352549 -0.0510270510 -0.4592434589
0.3061623059 -0.0000000000 -0.5102705099
0.3571893569 0.0510270510 -0.5612975609
0.4082164079 0.1020541020 -0.6123246119
0.4592434589 0.1530811530 -0.6633516628
-0.0510270510 -0.4592434589 -0.0510270510
-0.0000000000 -0.4082164079 -0.1020541020
0.0510270510 -0.3571893569 -0.1530811530
0.1020541020 -0.3061623059 -0.2041082040
0.1530811530 -0.2551352549 -0.2551352549
0.2041082040 -0.2041082040 -0.3061623059
0.2551352549 -0.1530811530 -0.3571893569
0.3061623059 -0.1020541020 -0.4082164079
0.3571893569 -0.0510270510 -0.4592434589
0.4082164079 0.0000000000 -0.5102705099
0.4592434589 0.0510270510 -0.5612975609
0.5102705099 0.1020541020 -0.6123246119
-0.0000000000 -0.5102705099 0.0000000000
0.0510270510 -0.4592434589 -0.0510270510
0.1020541020 -0.4082164079 -0.1020541020
0.1530811530 -0.3571893569 -0.1530811530
0.2041082040 -0.3061623059 -0.2041082040
0.2551352549 -0.2551352549 -0.2551352549
0.3061623059 -0.2041082040 -0.3061623059
0.3571893569 -0.1530811530 -0.3571893569
0.4082164079 -0.1020541020 -0.4082164079
0.4592434589 -0.0510270510 -0.4592434589
0.5102705099 0.0000000000 -0.5102705099
0.5612975609 0.0510270510 -0.5612975609
0.0510270510 -0.5612975609 0.0510270510
0.1020541020 -0.5102705099 0.0000000000
0.1530811530 -0.4592434589 -0.0510270510
0.2041082040 -0.4082164079 -0.1020541020
0.2551352549 -0.3571893569 -0.1530811530
0.3061623059 -0.3061623059 -0.2041082040
0.3571893569 -0.2551352549 -0.2551352549
0.4082164079 -0.2041082040 -0.3061623059
0.4592434589 -0.1530811530 -0.3571893569
0.5102705099 -0.1020541020 -0.4082164079
0.5612975609 -0.0510270510 -0.4592434589
0.6123246119 0.0000000000 -0.5102705099
0.1020541020 -0.6123246119 0.1020541020
0.1530811530 -0.5612975609 0.0510270510
0.2041082040 -0.5102705099 0.0000000000
0.2551352549 -0.4592434589 -0.0510270510
0.3061623059 -0.4082164079 -0.1020541020
0.3571893569 -0.3571893569 -0.1530811530
0.4082164079 -0.3061623059 -0.2041082040
0.4592434589 -0.2551352549 -0.2551352549
0.5102705099 -0.2041082040 -0.3061623059
0.5612975609 -0.1530811530 -0.3571893569
0.6123246119 -0.1020541020 -0.4082164079
0.6633516628 -0.0510270510 -0.4592434589
0.1530811530 -0.6633516628 0.1530811530
0.2041082040 -0.6123246119 0.1020541020
0.2551352549 -0.5612975609 0.0510270510
0.3061623059 -0.5102705099 0.0000000000
0.3571893569 -0.4592434589 -0.0510270510
0.4082164079 -0.4082164079 -0.1020541020
0.4592434589 -0.3571893569 -0.1530811530
0.5102705099 -0.3061623059 -0.2041082040
0.5612975609 -0.2551352549 -0.2551352549
0.6123246119 -0.2041082040 -0.3061623059
0.6633516628 -0.1530811530 -0.3571893569
0.7143787138 -0.1020541020 -0.4082164079
0.2041082040 -0.7143787138 0.2041082040
0.2551352549 -0.6633516628 0.1530811530
0.3061623059 -0.6123246119 0.1020541020
0.3571893569 -0.5612975609 0.0510270510
0.4082164079 -0.5102705099 0.0000000000
0.4592434589 -0.4592434589 -0.0510270510
0.5102705099 -0.4082164079 -0.1020541020
0.5612975609 -0.3571893569 -0.1530811530
0.6123246119 -0.3061623059 -0.2041082040
0.6633516628 -0.2551352549 -0.2551352549
0.7143787138 -0.2041082040 -0.3061623059
0.7654057648 -0.1530811530 -0.3571893569
0.2551352549 -0.7654057648 0.2551352549
0.3061623059 -0.7143787138 0.2041082040
0.3571893569 -0.6633516628 0.1530811530
0.4082164079 -0.6123246119 0.1020541020
0.4592434589 -0.5612975609 0.0510270510
0.5102705099 -0.5102705099 0.0000000000
0.5612975609 -0.4592434589 -0.0510270510
0.6123246119 -0.4082164079 -0.1020541020
0.6633516628 -0.3571893569 -0.1530811530
0.7143787138 -0.3061623059 -0.2041082040
0.7654057648 -0.2551352549 -0.2551352549
0.8164328158 -0.2041082040 -0.3061623059
0.3061623059 -0.8164328158 0.3061623059
0.3571893569 -0.7654057648 0.2551352549
0.4082164079 -0.7143787138 0.2041082040
0.4592434589 -0.6633516628 0.1530811530
0.5102705099 -0.6123246119 0.1020541020
0.5612975609 -0.5612975609 0.0510270510
0.6123246119 -0.5102705099 0.0000000000
0.6633516628 -0.4592434589 -0.0510270510
0.7143787138 -0.4082164079 -0.1020541020
0.7654057648 -0.3571893569 -0.1530811530
0.8164328158 -0.3061623059 -0.2041082040
0.8674598668 -0.2551352549 -0.2551352549
-0.3061623059 -0.2041082040 -0.2041082040
-0.2551352549 -0.1530811530 -0.2551352549
-0.2041082040 -0.1020541020 -0.3061623059
-0.1530811530 -0.0510270510 -0.3571893569
-0.1020541020 -0.0000000000 -0.4082164079
-0.0510270510 0.0510270510 -0.4592434589
-0.0000000000 0.1020541020 -0.5102705099
0.0510270510 0.1530811530 -0.5612975609
0.1020541020 0.2041082040 -0.6123246119
0.1530811530 0.2551352549 -0.6633516628
0.2041082040 0.3061623059 -0.7143787138
0.2551352549 0.3571893569 -0.7654057648
-0.2551352549 -0.2551352549 -0.1530811530
-0.2041082040 -0.2041082040 -0.2041082040
-0.1530811530 -0.1530811530 -0.2551352549
-0.1020541020 -0.1020541020 -0.3061623059
-0.0510270510 -0.0510270510 -0.3571893569
-0.0000000000 -0.0000000000 -0.4082164079
0.0510270510 0.0510270510 -0.4592434589
0.1020541020 0.1020541020 -0.5102705099
0.1530811530 0.1530811530 -0.5612975609
0.2041082040 0.2041082040 -0.6123246119
0.2551352549 0.2551352549 -0.6633516628
0.3061623059 0.3061623059 -0.7143787138
-0.2041082040 -0.3061623059 -0.1020541020
-0.1530811530 -0.2551352549 -0.1530811530
-0.1020541020 -0.2041082040 -0.2041082040
-0.0510270510 -0.1530811530 -0.2551352549
-0.0000000000 -0.1020541020 -0.3061623059
0.0510270510 -0.0510270510 -0.3571893569
0.1020541020 -0.0000000000 -0.4082164079
0.1530811530 0.0510270510 -0.4592434589
0.2041082040 0.1020541020 -0.5102705099
0.2551352549 0.1530811530 -0.5612975609
0.3061623059 0.2041082040 -0.6123246119
0.3571893569 0.2551352549 -0.6633516628
-0.1530811530 -0.3571893569 -0.0510270510
-0.1020541020 -0.3061623059 -0.1020541020
-0.0510270510 -0.2551352549 -0.1530811530
-0.0000000000 -0.2041082040 -0.2041082040
0.0510270510 -0.1530811530 -0.2551352549
0.1020541020 -0.1020541020 -0.3061623059
0.1530811530 -0.0510270510 -0.3571893569
0.2041082040 -0.0000000000 -0.4082164079
0.2551352549 0.0510270510 -0.4592434589
0.3061623059 0.1020541020 -0.5102705099
0.3571893569 0.1530811530 -0.5612975609
0.4082164079 0.2041082040 -0.6123246119
-0.1020541020 -0.4082164079 0.0000000000
-0.0510270510 -0.3571893569 -0.0510270510
-0.0000000000 -0.3061623059 -0.1020541020
0.0510270510 -0.2551352549 -0.1530811530
0.1020541020 -0.2041082040 -0.2041082040
0.1530811530 -0.1530811530 -0.2551352549
0.2041082040 -0.1020541020 -0.3061623059
0.2551352549 -0.0510270510 -0.3571893569
0.3061623059 0.0000000000 -0.4082164079
0.3571893569 0.0510270510 -0.4592434589
0.4082164079 0.1020541020 -0.5102705099
0.4592434589 0.1530811530 -0.5612975609
-0.0510270510 -0.4592434589 0.0510270510
-0.0000000000 -0.4082164079 0.0000000000
0.0510270510 -0.3571893569 -0.0510270510
0.1020541020 -0.3061623059 -0.1020541020
0.1530811530 -0.2551352549 -0.1530811530
0.2041082040 -0.2041082040 -0.2041082040
0.2551352549 -0.1530811530 -0.2551352549
0.3061623059 -0.1020541020 -0.3061623059
0.3571893569 -0.0510270510 -0.3571893569
0.4082164079 0.0000000000 -0.4082164079
0.4592434589 0.0510270510 -0.4592434589
0.5102705099 0.1020541020 -0.5102705099
-0.0000000000 -0.5102705099 0.1020541020
0.0510270510 -0.4592434589 0.0510270510
0.1020541020 -0.4082164079 0.0000000000
0.1530811530 -0.3571893569 -0.0510270510
0.2041082040 -0.3061623059 -0.1020541020
0.2551352549 -0.2551352549 -0.1530811530
0.3061623059 -0.2041082040 -0.2041082040
0.3571893569 -0.1530811530 -0.2551352549
0.4082164079 -0.1020541020 -0.3061623059
0.4592434589 -0.0510270510 -0.3571893569
0.5102705099 0.0000000000 -0.4082164079
0.5612975609 0.0510270510 -0.4592434589
0.0510270510 -0.5612975609 0.1530811530
0.1020541020 -0.5102705099 0.1020541020
0.1530811530 -0.4592434589 0.0510270510
0.2041082040 -0.4082164079 0.0000000000
0.2551352549 -0.3571893569 -0.0510270510
0.3061623059 -0.3061623059 -0.1020541020
0.3571893569 -0.2551352549 -0.1530811530
0.4082164079 -0.2041082040 -0.2041082040
0.4592434589 -0.1530811530 -0.2551352549
0.5102705099 -0.1020541020 -0.3061623059
0.5612975609 -0.0510270510 -0.3571893569
0.6123246119 0.0000000000 -0.4082164079
0.1020541020 -0.6123246119 0.2041082040
0.1530811530 -0.5612975609 0.1530811530
0.2041082040 -0.5102705099 0.1020541020
0.2551352549 -0.4592434589 0.0510270510
0.3061623059 -0.4082164079 0.0000000000
0.3571893569 -0.3571893569 -0.0510270510
0.4082164079 -0.3061623059 -0.1020541020
0.4592434589 -0.2551352549 -0.1530811530
0.5102705099 -0.2041082040 -0.2041082040
0.5612975609 -0.1530811530 -0.2551352549
0.6123246119 -0.1020541020 -0.3061623059
0.6633516628 -0.0510270510 -0.3571893569
0.1530811530 -0.6633516628 0.2551352549
0.2041082040 -0.6123246119 0.2041082040
0.2551352549 -0.5612975609 0.1530811530
0.3061623059 -0.5102705099 0.1020541020
0.3571893569 -0.4592434589 0.0510270510
0.4082164079 -0.4082164079 0.0000000000
0.4592434589 -0.3571893569 -0.0510270510
0.5102705099 -0.3061623059 -0.1020541020
0.5612975609 -0.2551352549 -0.1530811530
0.6123246119 -0.2041082040 -0.2041082040
0.6633516628 -0.1530811530 -0.2551352549
0.7143787138 -0.1020541020 -0.3061623059
0.2041082040 -0.7143787138 0.3061623059
0.2551352549 -0.6633516628 0.2551352549
0.3061623059 -0.6123246119 0.2041082040
0.3571893569 -0.5612975609 0.1530811530
0.4082164079 -0.5102705099 0.1020541020
0.4592434589 -0.4592434589 0.0510270510
0.5102705099 -0.4082164079 0.0000000000
0.5612975609 -0.3571893569 -0.0510270510
0.6123246119 -0.3061623059 -0.1020541020
0.6633516628 -0.2551352549 -0.1530811530
0.7143787138 -0.2041082040 -0.2041082040
0.7654057648 -0.1530811530 -0.2551352549
0.2551352549 -0.7654057648 0.3571893569
0.3061623059 -0.7143787138 0.3061623059
0.3571893569 -0.6633516628 0.2551352549
0.4082164079 -0.6123246119 0.2041082040
0.4592434589 -0.5612975609 0.1530811530
0.5102705099 -0.5102705099 0.1020541020
0.5612975609 -0.4592434589 0.0510270510
0.6123246119 -0.4082164079 0.0000000000
0.6633516628 -0.3571893569 -0.0510270510
0.7143787138 -0.3061623059 -0.1020541020
0.7654057648 -0.2551352549 -0.1530811530
0.8164328158 -0.2041082040 -0.2041082040
-0.3571893569 -0.1530811530 -0.1530811530
-0.3061623059 -0.1020541020 -0.2041082040
-0.2551352549 -0.0510270510 -0.2551352549
-0.2041082040 -0.0000000000 -0.3061623059
-0.1530811530 0.0510270510 -0.3571893569
-0.1020541020 0.1020541020 -0.4082164079
-0.0510270510 0.1530811530 -0.4592434589
-0.0000000000 0.2041082040 -0.5102705099
0.0510270510 0.2551352549 -0.5612975609
0.1020541020 0.3061623059 -0.6123246119
0.1530811530 0.3571893569 -0.6633516628
0.2041082040 0.4082164079 -0.7143787138
-0.3061623059 -0.2041082040 -0.1020541020
-0.2551352549 -0.1530811530 -0.1530811530
-0.2041082040 -0.1020541020 -0.2041082040
-0.1530811530 -0.0510270510 -0.2551352549
-0.1020541020 -0.0000000000 -0.3061623059
-0.0510270510 0.0510270510 -0.3571893569
-0.0000000000 0.1020541020 -0.4082164079
0.0510270510 0.1530811530 -0.4592434589
0.1020541020 0.2041082040 -0.5102705099
0.1530811530 0.2551352549 -0.5612975609
0.2041082040 0.3061623059 -0.6123246119
0.2551352549 0.3571893569 -0.6633516628
-0.2551352549 -0.2551352549 -0.0510270510
-0.2041082040 -0.2041082040 -0.1020541020
-0.1530811530 -0.1530811530 -0.1530811530
-0.1020541020 -0.1020541020 -0.2041082040
-0.0510270510 -0.0510270510 -0.2551352549
-0.0000000000 -0.0000000000 -0.3061623059
0.0510270510 0.0510270510 -0.3571893569
0.1020541020 0.1020541020 -0.4082164079
0.1530811530 0.1530811530 -0.4592434589
0.2041082040 0.2041082040 -0.5102705099
0.2551352549 0.2551352549 -0.5612975609
0.3061623059 0.3061623059 -0.6123246119
-0.2041082040 -0.3061623059 -0.0000000000
-0.1530811530 -0.2551352549 -0.0510270510
-0.1020541020 -0.2041082040 -0.1020541020
-0.0510270510 -0.1530811530 -0.1530811530
-0.0000000000 -0.1020541020 -0.2041082040
0.0510270510 -0.0510270510 -0.2551352549
0.1020541020 -0.0000000000 -0.3061623059
0.1530811530 0.0510270510 -0.3571893569
0.2041082040 0.1020541020 -0.4082164079
0.2551352549 0.1530811530 -0.4592434589
0.3061623059 0.2041082040 -0.5102705099
0.3571893569 0.2551352549 -0.5612975609
-0.1530811530 -0.3571893569 0.0510270510
-0.1020541020 -0.3061623059 -0.0000000000
-0.0510270510 -0.2551352549 -0.0510270510
-0.0000000000 -0.2041082040 -0.1020541020
0.0510270510 -0.1530811530 -0.1530811530
0.1020541020 -0.1020541020 -0.2041082040
0.1530811530 -0.0510270510 -0.2551352549
0.2041082040 -0.0000000000 -0.3061623059
0.2551352549 0.0510270510 -0.3571893569
0.3061623059 0.1020541020 -0.4082164079
0.3571893569 0.1530811530 -0.4592434589
0.4082164079 0.2041082040 -0.5102705099
-0.1020541020 -0.4082164079 0.1020541020
-0.0510270510 -0.3571893569 0.0510270510
-0.0000000000 -0.3061623059 0.0000000000
0.0510270510 -0.2551352549 -0.0510270510
0.1020541020 -0.2041082040 -0.1020541020
0.1530811530 -0.1530811530 -0.1530811530
0.2041082040 -0.1020541020 -0.2041082040
0.2551352549 -0.0510270510 -0.2551352549
0.3061623059 0.0000000000 -0.3061623059
0.3571893569 0.0510270510 -0.3571893569
0.4082164079 0.1020541020 -0.4082164079
0.4592434589 0.1530811530 -0.4592434589
-0.0510270510 -0.4592434589 0.1530811530
-0.0000000000 -0.4082164079 0.1020541020
0.0510270510 -0.3571893569 0.0510270510
0.1020541020 -0.3061623059 0.0000000000
0.1530811530 -0.2551352549 -0.0510270510
0.2041082040 -0.2041082040 -0.1020541020
0.2551352549 -0.1530811530 -0.1530811530
0.3061623059 -0.1020541020 -0.2041082040
0.3571893569 -0.0510270510 -0.2551352549
0.4082164079 0.0000000000 -0.3061623059
0.4592434589 0.0510270510 -0.3571893569
0.5102705099 0.1020541020 -0.4082164079
-0.0000000000 -0.5102705099 0.2041082040
0.0510270510 -0.4592434589 0.1530811530
0.1020541020 -0.4082164079 0.1020541020
0.1530811530 -0.3571893569 0.0510270510
0.2041082040 -0.3061623059 0.0000000000
0.2551352549 -0.2551352549 -0.0510270510
0.3061623059 -0.2041082040 -0.1020541020
0.3571893569 -0.1530811530 -0.1530811530
0.4082164079 -0.1020541020 -0.2041082040
0.4592434589 -0.0510270510 -0.2551352549
0.5102705099 0.0000000000 -0.3061623059
0.5612975609 0.0510270510 -0.3571893569
0.0510270510 -0.5612975609 0.2551352549
0.1020541020 -0.5102705099 0.2041082040
0.1530811530 -0.4592434589 0.1530811530
0.2041082040 -0.4082164079 0.1020541020
0.2551352549 -0.3571893569 0.0510270510
0.3061623059 -0.3061623059 0.0000000000
0.3571893569 -0.2551352549 -0.0510270510
0.4082164079 -0.2041082040 -0.1020541020
0.4592434589 -0.1530811530 -0.1530811530
0.5102705099 -0.1020541020 -0.2041082040
0.5612975609 -0.0510270510 -0.2551352549
0.6123246119 0.0000000000 -0.3061623059
0.1020541020 -0.6123246119 0.3061623059
0.1530811530 -0.5612975609 0.2551352549
0.2041082040 -0.5102705099 0.2041082040
0.2551352549 -0.4592434589 0.1530811530
0.3061623059 -0.4082164079 0.1020541020
0.3571893569 -0.3571893569 0.0510270510
0.4082164079 -0.3061623059 0.0000000000
0.4592434589 -0.2551352549 -0.0510270510
0.5102705099 -0.2041082040 -0.1020541020
0.5612975609 -0.1530811530 -0.1530811530
0.6123246119 -0.1020541020 -0.2041082040
0.6633516628 -0.0510270510 -0.2551352549
0.1530811530 -0.6633516628 0.3571893569
0.2041082040 -0.6123246119 0.3061623059
0.2551352549 -0.5612975609 0.2551352549
0.3061623059 -0.5102705099 0.2041082040
0.3571893569 -0.4592434589 0.1530811530
0.4082164079 -0.4082164079 0.1020541020
0.4592434589 -0.3571893569 0.0510270510
0.5102705099 -0.3061623059 0.0000000000
0.5612975609 -0.2551352549 -0.0510270510
0.6123246119 -0.2041082040 -0.1020541020
0.6633516628 -0.1530811530 -0.1530811530
0.7143787138 -0.1020541020 -0.2041082040
0.2041082040 -0.7143787138 0.4082164079
0.2551352549 -0.6633516628 0.3571893569
0.3061623059 -0.6123246119 0.3061623059
0.3571893569 -0.5612975609 0.2551352549
0.4082164079 -0.5102705099 0.2041082040
0.4592434589 -0.4592434589 0.1530811530
0.5102705099 -0.4082164079 0.1020541020
0.5612975609 -0.3571893569 0.0510270510
0.6123246119 -0.3061623059 0.0000000000
0.6633516628 -0.2551352549 -0.0510270510
0.7143787138 -0.2041082040 -0.1020541020
0.7654057648 -0.1530811530 -0.1530811530
-0.4082164079 -0.1020541020 -0.1020541020
-0.3571893569 -0.0510270510 -0.1530811530
-0.3061623059 -0.0000000000 -0.2041082040
-0.2551352549 0.0510270510 -0.2551352549
-0.2041082040 0.1020541020 -0.3061623059
-0.1530811530 0.1530811530 -0.3571893569
-0.1020541020 0.2041082040 -0.4082164079
-0.0510270510 0.2551352549 -0.4592434589
0.0000000000 0.3061623059 -0.5102705099
0.0510270510 0.3571893569 -0.5612975609
0.1020541020 0.4082164079 -0.6123246119
0.1530811530 0.4592434589 -0.6633516628
-0.3571893569 -0.1530811530 -0.0510270510
-0.3061623059 -0.1020541020 -0.1020541020
-0.2551352549 -0.0510270510 -0.1530811530
-0.2041082040 -0.0000000000 -0.2041082040
-0.1530811530 0.0510270510 -0.2551352549
-0.1020541020 0.1020541020 -0.3061623059
-0.0510270510 0.1530811530 -0.3571893569
0.0000000000 0.2041082040 -0.4082164079
0.0510270510 0.2551352549 -0.4592434589
0.1020541020 0.3061623059 -0.5102705099
0.1530811530 0.3571893569 -0.5612975609
0.2041082040 0.4082164079 -0.6123246119
-0.3061623059 -0.2041082040 -0.0000000000
-0.2551352549 -0.1530811530 -0.0510270510
-0.2041082040 -0.1020541020 -0.1020541020
-0.1530811530 -0.0510270510 -0.1530811530
-0.1020541020 -0.0000000000 -0.2041082040
-0.0510270510 0.0510270510 -0.2551352549
-0.0000000000 0.1020541020 -0.3061623059
0.0510270510 0.1530811530 -0.3571893569
0.1020541020 0.2041082040 -0.4082164079
0.1530811530 0.2551352549 -0.4592434589
0.2041082040 0.3061623059 -0.5102705099
0.2551352549 0.3571893569 -0.5612975609
-0.2551352549 -0.2551352549 0.0510270510
-0.2041082040 -0.2041082040 -0.0000000000
-0.1530811530 -0.1530811530 -0.0510270510
-0.1020541020 -0.1020541020 -0.1020541020
-0.0510270510 -0.0510270510 -0.1530811530
-0.0000000000 -0.0000000000 -0.2041082040
0.0510270510 0.0510270510 -0.2551352549
0.1020541020 0.1020541020 -0.3061623059
0.1530811530 0.1530811530 -0.3571893569
0.2041082040 0.2041082040 -0.4082164079
0.2551352549 0.2551352549 -0.4592434589
0.3061623059 0.3061623059 -0.5102705099
-0.2041082040 -0.3061623059 0.1020541020
-0.1530811530 -0.2551352549 0.0510270510
-0.1020541020 -0.2041082040 -0.0000000000
-0.0510270510 -0.1530811530 -0.0510270510
-0.0000000000 -0.1020541020 -0.1020541020
0.0510270510 -0.0510270510 -0.1530811530
0.1020541020 -0.0000000000 -0.2041082040
0.1530811530 0.0510270510 -0.2551352549
0.2041082040 0.1020541020 -0.3061623059
0.2551352549 0.1530811530 -0.3571893569
0.3061623059 0.2041082040 -0.4082164079
0.3571893569 0.2551352549 -0.4592434589
-0.1530811530 -0.3571893569 0.1530811530
-0.1020541020 -0.3061623059 0.1020541020
-0.0510270510 -0.2551352549 0.0510270510
-0.0000000000 -0.2041082040 0.0000000000
0.0510270510 -0.1530811530 -0.0510270510
0.1020541020 -0.1020541020 -0.1020541020
0.1530811530 -0.0510270510 -0.1530811530
0.2041082040 -0.0000000000 -0.2041082040
0.2551352549 0.0510270510 -0.2551352549
0.3061623059 0.1020541020 -0.3061623059
0.3571893569 0.1530811530 -0.3571893569
0.4082164079 0.2041082040 -0.4082164079
-0.1020541020 -0.4082164079 0.2041082040
-0.0510270510 -0.3571893569 0.1530811530
-0.0000000000 -0.3061623059 0.1020541020
0.0510270510 -0.2551352549 0.0510270510
0.1020541020 -0.2041082040 0.0000000000
0.1530811530 -0.1530811530 -0.0510270510
0.2041082040 -0.1020541020 -0.1020541020
0.2551352549 -0.0510270510 -0.1530811530
0.3061623059 0.0000000000 -0.2041082040
0.3571893569 0.0510270510 -0.2551352549
0.4082164079 0.1020541020 -0.3061623059
0.4592434589 0.1530811530 -0.3571893569
-0.0510270510 -0.4592434589 0.2551352549
-0.0000000000 -0.4082164079 0.2041082040
0.0510270510 -0.3571893569 0.1530811530
0.1020541020 -0.3061623059 0.1020541020
0.1530811530 -0.2551352549 0.0510270510
0.2041082040 -0.2041082040 0.0000000000
0.2551352549 -0.1530811530 -0.0510270510
0.3061623059 -0.1020541020 -0.1020541020
0.3571893569 -0.0510270510 -0.1530811530
0.4082164079 0.0000000000 -0.2041082040
0.4592434589 0.0510270510 -0.2551352549
0.5102705099 0.1020541020 -0.3061623059
-0.0000000000 -0.5102705099 0.3061623059
0.0510270510 -0.4592434589 0.2551352549
0.1020541020 -0.4082164079 0.2041082040
0.1530811530 -0.3571893569 0.1530811530
0.2041082040 -0.3061623059 0.1020541020
0.2551352549 -0.2551352549 0.0510270510
0.3061623059 -0.2041082040 0.0000000000
0.3571893569 -0.1530811530 -0.0510270510
0.4082164079 -0.1020541020 -0.1020541020
0.4592434589 -0.0510270510 -0.1530811530
0.5102705099 0.0000000000 -0.2041082040
0.5612975609 0.0510270510 -0.2551352549
0.0510270510 -0.5612975609 0.3571893569
0.1020541020 -0.5102705099 0.3061623059
0.1530811530 -0.4592434589 0.2551352549
0.2041082040 -0.4082164079 0.2041082040
0.2551352549 -0.3571893569 0.1530811530
0.3061623059 -0.3061623059 0.1020541020
0.3571893569 -0.2551352549 0.0510270510
0.4082164079 -0.2041082040 0.0000000000
0.4592434589 -0.1530811530 -0.0510270510
0.5102705099 -0.1020541020 -0.1020541020
0.5612975609 -0.0510270510 -0.1530811530
0.6123246119 0.0000000000 -0.2041082040
0.1020541020 -0.6123246119 0.4082164079
0.1530811530 -0.5612975609 0.3571893569
0.2041082040 -0.5102705099 0.3061623059
0.2551352549 -0.4592434589 0.2551352549
0.3061623059 -0.4082164079 0.2041082040
0.3571893569 -0.3571893569 0.1530811530
0.4082164079 -0.3061623059 0.1020541020
0.4592434589 -0.2551352549 0.0510270510
0.5102705099 -0.2041082040 0.0000000000
0.5612975609 -0.1530811530 -0.0510270510
0.6123246119 -0.1020541020 -0.1020541020
0.6633516628 -0.0510270510 -0.1530811530
0.1530811530 -0.6633516628 0.4592434589
0.2041082040 -0.6123246119 0.4082164079
0.2551352549 -0.5612975609 0.3571893569
0.3061623059 -0.5102705099 0.3061623059
0.3571893569 -0.4592434589 0.2551352549
0.4082164079 -0.4082164079 0.2041082040
0.4592434589 -0.3571893569 0.1530811530
0.5102705099 -0.3061623059 0.1020541020
0.5612975609 -0.2551352549 0.0510270510
0.6123246119 -0.2041082040 0.0000000000
0.6633516628 -0.1530811530 -0.0510270510
0.7143787138 -0.1020541020 -0.1020541020
-0.4592434589 -0.0510270510 -0.0510270510
-0.4082164079 -0.0000000000 -0.1020541020
-0.3571893569 0.0510270510 -0.1530811530
-0.3061623059 0.1020541020 -0.2041082040
-0.2551352549 0.1530811530 -0.2551352549
-0.2041082040 0.2041082040 -0.3061623059
-0.1530811530 0.2551352549 -0.3571893569
-0.1020541020 0.3061623059 -0.4082164079
-0.0510270510 0.3571893569 -0.4592434589
0.0000000000 0.4082164079 -0.5102705099
0.0510270510 0.4592434589 -0.5612975609
0.1020541020 0.5102705099 -0.6123246119
-0.4082164079 -0.1020541020 -0.0000000000
-0.3571893569 -0.0510270510 -0.0510270510
-0.3061623059 -0.0000000000 -0.1020541020
-0.2551352549 0.0510270510 -0.1530811530
-0.2041082040 0.1020541020 -0.2041082040
-0.1530811530 0.1530811530 -0.2551352549
-0.1020541020 0.2041082040 -0.3061623059
-0.0510270510 0.2551352549 -0.3571893569
0.0000000000 0.3061623059 -0.4082164079
0.0510270510 0.3571893569 -0.4592434589
0.1020541020 0.4082164079 -0.5102705099
0.1530811530 0.4592434589 -0.5612975609
-0.3571893569 -0.1530811530 0.0510270510
-0.3061623059 -0.1020541020 -0.0000000000
-0.2551352549 -0.0510270510 -0.0510270510
-0.2041082040 -0.0000000000 -0.1020541020
-0.1530811530 0.0510270510 -0.1530811530
-0.1020541020 0.1020541020 -0.2041082040
-0.0510270510 0.1530811530 -0.2551352549
0.0000000000 0.2041082040 -0.3061623059
0.0510270510 0.2551352549 -0.3571893569
0.1020541020 0.3061623059 -0.4082164079
0.1530811530 0.3571893569 -0.4592434589
0.2041082040 0.4082164079 -0.5102705099
-0.3061623059 -0.2041082040 0.1020541020
-0.2551352549 -0.1530811530 0.0510270510
-0.2041082040 -0.1020541020 -0.0000000000
-0.1530811530 -0.0510270510 -0.0510270510
-0.1020541020 -0.0000000000 -0.1020541020
-0.0510270510 0.0510270510 -0.1530811530
-0.0000000000 0.1020541020 -0.2041082040
0.0510270510 0.1530811530 -0.2551352549
0.1020541020 0.2041082040 -0.3061623059
0.1530811530 0.2551352549 -0.3571893569
0.2041082040 0.3061623059 -0.4082164079
0.2551352549 0.3571893569 -0.4592434589
-0.2551352549 -0.2551352549 0.1530811530
-0.2041082040 -0.2041082040 0.1020541020
-0.1530811530 -0.1530811530 0.0510270510
-0.1020541020 -0.1020541020 -0.0000000000
-0.0510270510 -0.0510270510 -0.0510270510
-0.0000000000 -0.0000000000 -0.1020541020
0.0510270510 0.0510270510 -0.1530811530
0.1020541020 0.1020541020 -0.2041082040
0.1530811530 0.1530811530 -0.2551352549
0.2041082040 0.2041082040 -0.3061623059
0.2551352549 0.2551352549 -0.3571893569
0.3061623059 0.3061623059 -0.4082164079
-0.2041082040 -0.3061623059 0.2041082040
-0.1530811530 -0.2551352549 0.1530811530
-0.1020541020 -0.2041082040 0.1020541020
-0.0510270510 -0.1530811530 0.0510270510
-0.0000000000 -0.1020541020 0.0000000000
0.0510270510 -0.0510270510 -0.0510270510
0.1020541020 -0.0000000000 -0.1020541020
0.1530811530 0.0510270510 -0.1530811530
0.2041082040 0.1020541020 -0.2041082040
0.2551352549 0.1530811530 -0.2551352549
0.3061623059 0.2041082040 -0.3061623059
0.3571893569 0.2551352549 -0.3571893569
-0.1530811530 -0.3571893569 0.2551352549
-0.1020541020 -0.3061623059 0.2041082040
-0.0510270510 -0.2551352549 0.1530811530
-0.0000000000 -0.2041082040 0.1020541020
0.0510270510 -0.1530811530 0.0510270510
0.1020541020 -0.1020541020 0.0000000000
0.1530811530 -0.0510270510 -0.0510270510
0.2041082040 0.0000000000 -0.1020541020
0.2551352549 0.0510270510 -0.1530811530
0.3061623059 0.1020541020 -0.2041082040
0.3571893569 0.1530811530 -0.2551352549
0.4082164079 0.2041082040 -0.3061623059
-0.1020541020 -0.4082164079 0.3061623059
-0.0510270510 -0.3571893569 0.2551352549
-0.0000000000 -0.3061623059 0.2041082040
0.0510270510 -0.2551352549 0.1530811530
0.1020541020 -0.2041082040 0.1020541020
0.1530811530 -0.1530811530 0.0510270510
0.2041082040 -0.1020541020 0.0000000000
0.2551352549 -0.0510270510 -0.0510270510
0.3061623059 0.0000000000 -0.1020541020
0.3571893569 0.0510270510 -0.1530811530
0.4082164079 0.1020541020 -0.2041082040
0.4592434589 0.1530811530 -0.2551352549
-0.0510270510 -0.4592434589 0.3571893569
-0.0000000000 -0.4082164079 0.3061623059
0.0510270510 -0.3571893569 0.2551352549
0.1020541020 -0.3061623059 0.2041082040
0.1530811530 -0.2551352549 0.1530811530
0.2041082040 -0.2041082040 0.1020541020
0.2551352549 -0.1530811530 0.0510270510
0.3061623059 -0.1020541020 0.0000000000
0.3571893569 -0.0510270510 -0.0510270510
0.4082164079 0.0000000000 -0.1020541020
0.4592434589 0.0510270510 -0.1530811530
0.5102705099 0.1020541020 -0.2041082040
-0.0000000000 -0.5102705099 0.4082164079
0.0510270510 -0.4592434589 0.3571893569
0.1020541020 -0.4082164079 0.3061623059
0.1530811530 -0.3571893569 0.2551352549
0.2041082040 -0.3061623059 0.2041082040
0.2551352549 -0.2551352549 0.1530811530
0.3061623059 -0.2041082040 0.1020541020
0.3571893569 -0.1530811530 0.0510270510
0.4082164079 -0.1020541020 0.0000000000
0.4592434589 -0.0510270510 -0.0510270510
0.5102705099 0.0000000000 -0.1020541020
0.5612975609 0.0510270510 -0.1530811530
0.0510270510 -0.5612975609 0.4592434589
0.1020541020 -0.5102705099 0.4082164079
0.1530811530 -0.4592434589 0.3571893569
0.2041082040 -0.4082164079 0.3061623059
0.2551352549 -0.3571893569 0.2551352549
0.3061623059 -0.3061623059 0.2041082040
0.3571893569 -0.2551352549 0.1530811530
0.4082164079 -0.2041082040 0.1020541020
0.4592434589 -0.1530811530 0.0510270510
0.5102705099 -0.1020541020 0.0000000000
0.5612975609 -0.0510270510 -0.0510270510
0.6123246119 0.0000000000 -0.1020541020
0.1020541020 -0.6123246119 0.5102705099
0.1530811530 -0.5612975609 0.4592434589
0.2041082040 -0.5102705099 0.4082164079
0.2551352549 -0.4592434589 0.3571893569
0.3061623059 -0.4082164079 0.3061623059
0.3571893569 -0.3571893569 0.2551352549
0.4082164079 -0.3061623059 0.2041082040
0.4592434589 -0.2551352549 0.1530811530
0.5102705099 -0.2041082040 0.1020541020
0.5612975609 -0.1530811530 0.0510270510
0.6123246119 -0.1020541020 0.0000000000
0.6633516628 -0.0510270510 -0.0510270510
-0.5102705099 -0.0000000000 -0.0000000000
-0.4592434589 0.0510270510 -0.0510270510
-0.4082164079 0.1020541020 -0.1020541020
-0.3571893569 0.1530811530 -0.1530811530
-0.3061623059 0.2041082040 -0.2041082040
-0.2551352549 0.2551352549 -0.2551352549
-0.2041082040 0.3061623059 -0.3061623059
-0.1530811530 0.3571893569 -0.3571893569
-0.1020541020 0.4082164079 -0.4082164079
-0.0510270510 0.4592434589 -0.4592434589
0.0000000000 0.5102705099 -0.5102705099
0.0510270510 0.5612975609 -0.5612975609
-0.4592434589 -0.0510270510 0.0510270510
-0.4082164079 -0.0000000000 -0.0000000000
-0.3571893569 0.0510270510 -0.0510270510
-0.3061623059 0.1020541020 -0.1020541020
-0.2551352549 0.1530811530 -0.1530811530
-0.2041082040 0.2041082040 -0.2041082040
-0.1530811530 0.2551352549 -0.2551352549
-0.1020541020 0.3061623059 -0.3061623059
-0.0510270510 0.3571893569 -0.3571893569
0.0000000000 0.4082164079 -0.4082164079
0.0510270510 0.4592434589 -0.4592434589
0.1020541020 0.5102705099 -0.5102705099
-0.4082164079 -0.1020541020 0.1020541020
-0.3571893569 -0.0510270510 0.0510270510
-0.3061623059 -0.0000000000 -0.0000000000
-0.2551352549 0.0510270510 -0.0510270510
-0.2041082040 0.1020541020 -0.1020541020
-0.1530811530 0.1530811530 -0.1530811530
-0.1020541020 0.2041082040 -0.2041082040
-0.0510270510 0.2551352549 -0.2551352549
0.0000000000 0.3061623059 -0.3061623059
0.0510270510 0.3571893569 -0.3571893569
0.1020541020 0.4082164079 -0.4082164079
0.1530811530 0.4592434589 -0.4592434589
-0.3571893569 -0.1530811530 0.1530811530
-0.3061623059 -0.1020541020 0.1020541020
-0.2551352549 -0.0510270510 0.0510270510
-0.2041082040 -0.0000000000 -0.0000000000
-0.1530811530 0.0510270510 -0.0510270510
-0.1020541020 0.1020541020 -0.1020541020
-0.0510270510 0.1530811530 -0.1530811530
0.0000000000 0.2041082040 -0.2041082040
0.0510270510 0.2551352549 -0.2551352549
0.1020541020 0.3061623059 -0.3061623059
0.1530811530 0.3571893569 -0.3571893569
0.2041082040 0.4082164079 -0.4082164079
-0.3061623059 -0.2041082040 0.2041082040
-0.2551352549 -0.1530811530 0.1530811530
-0.2041082040 -0.1020541020 0.1020541020
-0.1530811530 -0.0510270510 0.0510270510
-0.1020541020 -0.0000000000 -0.0000000000
-0.0510270510 0.0510270510 -0.0510270510
0.0000000000 0.1020541020 -0.1020541020
0.0510270510 0.1530811530 -0.1530811530
0.1020541020 0.2041082040 -0.2041082040
0.1530811530 0.2551352549 -0.2551352549
0.2041082040 0.3061623059 -0.3061623059
0.2551352549 0.3571893569 -0.3571893569
-0.2551352549 -0.2551352549 0.2551352549
-0.2041082040 -0.2041082040 0.2041082040
-0.1530811530 -0.1530811530 0.1530811530
-0.1020541020 -0.1020541020 0.1020541020
-0.0510270510 -0.0510270510 0.0510270510
0.0000000000 0.0000000000 0.0000000000
0.0510270510 0.0510270510 -0.0510270510
0.1020541020 0.1020541020 -0.1020541020
0.1530811530 0.1530811530 -0.1530811530
0.2041082040 0.2041082040 -0.2041082040
0.2551352549 0.2551352549 -0.2551352549
0.3061623059 0.3061623059 -0.3061623059
-0.2041082040 -0.3061623059 0.3061623059
-0.1530811530 -0.2551352549 0.2551352549
-0.1020541020 -0.2041082040 0.2041082040
-0.0510270510 -0.1530811530 0.1530811530
-0.0000000000 -0.1020541020 0.1020541020
0.0510270510 -0.0510270510 0.0510270510
0.1020541020 0.0000000000 0.0000000000
0.1530811530 0.0510270510 -0.0510270510
0.2041082040 0.1020541020 -0.1020541020
0.2551352549 0.1530811530 -0.1530811530
0.3061623059 0.2041082040 -0.2041082040
0.3571893569 0.2551352549 -0.2551352549
-0.1530811530 -0.3571893569 0.3571893569
-0.1020541020 -0.3061623059 0.3061623059
-0.0510270510 -0.2551352549 0.2551352549
-0.0000000000 -0.2041082040 0.2041082040
0.0510270510 -0.1530811530 0.1530811530
0.1020541020 -0.1020541020 0.1020541020
0.1530811530 -0.0510270510 0.0510270510
0.2041082040 0.0000000000 0.0000000000
0.2551352549 0.0510270510 -0.0510270510
0.3061623059 0.1020541020 -0.1020541020
0.3571893569 0.1530811530 -0.1530811530
0.4082164079 0.2041082040 -0.2041082040
-0.1020541020 -0.4082164079 0.4082164079
-0.0510270510 -0.3571893569 0.3571893569
-0.0000000000 -0.3061623059 0.3061623059
0.0510270510 -0.2551352549 0.2551352549
0.1020541020 -0.2041082040 0.2041082040
0.1530811530 -0.1530811530 0.1530811530
0.2041082040 -0.1020541020 0.1020541020
0.2551352549 -0.0510270510 0.0510270510
0.3061623059 0.0000000000 0.0000000000
0.3571893569 0.0510270510 -0.0510270510
0.4082164079 0.1020541020 -0.1020541020
0.4592434589 0.1530811530 -0.1530811530
-0.0510270510 -0.4592434589 0.4592434589
-0.0000000000 -0.4082164079 0.4082164079
0.0510270510 -0.3571893569 0.3571893569
0.1020541020 -0.3061623059 0.3061623059
0.1530811530 -0.2551352549 0.2551352549
0.2041082040 -0.2041082040 0.2041082040
0.2551352549 -0.1530811530 0.1530811530
0.3061623059 -0.1020541020 0.1020541020
0.3571893569 -0.0510270510 0.0510270510
0.4082164079 0.0000000000 0.0000000000
0.4592434589 0.0510270510 -0.0510270510
0.5102705099 0.1020541020 -0.1020541020
-0.0000000000 -0.5102705099 0.5102705099
0.0510270510 -0.4592434589 0.4592434589
0.1020541020 -0.4082164079 0.4082164079
0.1530811530 -0.3571893569 0.3571893569
0.2041082040 -0.3061623059 0.3061623059
0.2551352549 -0.2551352549 0.2551352549
0.3061623059 -0.2041082040 0.2041082040
0.3571893569 -0.1530811530 0.1530811530
0.4082164079 -0.1020541020 0.1020541020
0.4592434589 -0.0510270510 0.0510270510
0.5102705099 0.0000000000 0.0000000000
0.5612975609 0.0510270510 -0.0510270510
0.0510270510 -0.5612975609 0.5612975609
0.1020541020 -0.5102705099 0.5102705099
0.1530811530 -0.4592434589 0.4592434589
0.2041082040 -0.4082164079 0.4082164079
0.2551352549 -0.3571893569 0.3571893569
0.3061623059 -0.3061623059 0.3061623059
0.3571893569 -0.2551352549 0.2551352549
0.4082164079 -0.2041082040 0.2041082040
0.4592434589 -0.1530811530 0.1530811530
0.5102705099 -0.1020541020 0.1020541020
0.5612975609 -0.0510270510 0.0510270510
0.6123246119 0.0000000000 0.0000000000
-0.5612975609 0.0510270510 0.0510270510
-0.5102705099 0.1020541020 -0.0000000000
-0.4592434589 0.1530811530 -0.0510270510
-0.4082164079 0.2041082040 -0.1020541020
-0.3571893569 0.2551352549 -0.1530811530
-0.3061623059 0.3061623059 -0.2041082040
-0.2551352549 0.3571893569 -0.2551352549
-0.2041082040 0.4082164079 -0.3061623059
-0.1530811530 0.4592434589 -0.3571893569
-0.1020541020 0.5102705099 -0.4082164079
-0.0510270510 0.5612975609 -0.4592434589
0.0000000000 0.6123246119 -0.5102705099
-0.5102705099 -0.0000000000 0.1020541020
-0.4592434589 0.0510270510 0.0510270510
-0.4082164079 0.1020541020 -0.0000000000
-0.3571893569 0.1530811530 -0.0510270510
-0.3061623059 0.2041082040 -0.1020541020
-0.2551352549 0.2551352549 -0.1530811530
-0.2041082040 0.3061623059 -0.2041082040
-0.1530811530 0.3571893569 -0.2551352549
-0.1020541020 0.4082164079 -0.3061623059
-0.0510270510 0.4592434589 -0.3571893569
0.0000000000 0.5102705099 -0.4082164079
0.0510270510 0.5612975609 -0.4592434589
-0.4592434589 -0.0510270510 0.1530811530
-0.4082164079 -0.0000000000 0.1020541020
-0.3571893569 0.0510270510 0.0510270510
-0.3061623059 0.1020541020 -0.0000000000
-0.2551352549 0.1530811530 -0.0510270510
-0.2041082040 0.2041082040 -0.1020541020
-0.1530811530 0.2551352549 -0.1530811530
-0.1020541020 0.3061623059 -0.2041082040
-0.0510270510 0.3571893569 -0.2551352549
0.0000000000 0.4082164079 -0.3061623059
0.0510270510 0.4592434589 -0.3571893569
0.1020541020 0.5102705099 -0.4082164079
-0.4082164079 -0.1020541020 0.2041082040
-0.3571893569 -0.0510270510 0.1530811530
-0.3061623059 -0.0000000000 0.1020541020
-0.2551352549 0.0510270510 0.0510270510
-0.2041082040 0.1020541020 -0.0000000000
-0.1530811530 0.1530811530 -0.0510270510
-0.1020541020 0.2041082040 -0.1020541020
-0.0510270510 0.2551352549 -0.1530811530
0.0000000000 0.3061623059 -0.2041082040
0.0510270510 0.3571893569 -0.2551352549
0.1020541020 0.4082164079 -0.3061623059
0.1530811530 0.4592434589 -0.3571893569
-0.3571893569 -0.1530811530 0.2551352549
-0.3061623059 -0.1020541020 0.2041082040
-0.2551352549 -0.0510270510 0.1530811530
-0.2041082040 -0.0000000000 0.1020541020
-0.1530811530 0.0510270510 0.0510270510
-0.1020541020 0.1020541020 -0.0000000000
-0.0510270510 0.1530811530 -0.0510270510
0.0000000000 0.2041082040 -0.1020541020
0.0510270510 0.2551352549 -0.1530811530
0.1020541020 0.3061623059 -0.2041082040
0.1530811530 0.3571893569 -0.2551352549
0.2041082040 0.4082164079 -0.3061623059
-0.3061623059 -0.2041082040 0.3061623059
-0.2551352549 -0.1530811530 0.2551352549
-0.2041082040 -0.1020541020 0.2041082040
-0.1530811530 -0.0510270510 0.1530811530
-0.1020541020 -0.0000000000 0.1020541020
-0.0510270510 0.0510270510 0.0510270510
0.0000000000 0.1020541020 0.0000000000
0.0510270510 0.1530811530 -0.0510270510
0.1020541020 0.2041082040 -0.1020541020
0.1530811530 0.2551352549 -0.1530811530
0.2041082040 0.3061623059 -0.2041082040
0.2551352549 0.3571893569 -0.2551352549
-0.2551352549 -0.2551352549 0.3571893569
-0.2041082040 -0.2041082040 0.3061623059
-0.1530811530 -0.1530811530 0.2551352549
-0.1020541020 -0.1020541020 0.2041082040
-0.0510270510 -0.0510270510 0.1530811530
0.0000000000 0.0000000000 0.1020541020
0.0510270510 0.0510270510 0.0510270510
0.1020541020 0.1020541020 0.0000000000
0.1530811530 0.1530811530 -0.0510270510
0.2041082040 0.2041082040 -0.1020541020
0.2551352549 0.2551352549 -0.1530811530
0.3061623059 0.3061623059 -0.2041082040
-0.2041082040 -0.3061623059 0.4082164079
-0.1530811530 -0.2551352549 0.3571893569
-0.1020541020 -0.2041082040 0.3061623059
-0.0510270510 -0.1530811530 0.2551352549
-0.0000000000 -0.1020541020 0.2041082040
0.0510270510 -0.0510270510 0.1530811530
0.1020541020 0.0000000000 0.1020541020
0.1530811530 0.0510270510 0.0510270510
0.2041082040 0.1020541020 0.0000000000
0.2551352549 0.1530811530 -0.0510270510
0.3061623059 0.2041082040 -0.1020541020
0.3571893569 0.2551352549 -0.1530811530
-0.1530811530 -0.3571893569 0.4592434589
-0.1020541020 -0.3061623059 0.4082164079
-0.0510270510 -0.2551352549 0.3571893569
-0.0000000000 -0.2041082040 0.3061623059
0.0510270510 -0.1530811530 0.2551352549
0.1020541020 -0.1020541020 0.2041082040
0.1530811530 -0.0510270510 0.1530811530
0.2041082040 0.0000000000 0.1020541020
0.2551352549 0.0510270510 0.0510270510
0.3061623059 0.1020541020 0.0000000000
0.3571893569 0.1530811530 -0.0510270510
0.4082164079 0.2041082040 -0.1020541020
-0.1020541020 -0.4082164079 0.5102705099
-0.0510270510 -0.3571893569 0.4592434589
0.0000000000 -0.3061623059 0.4082164079
0.0510270510 -0.2551352549 0.3571893569
0.1020541020 -0.2041082040 0.3061623059
0.1530811530 -0.1530811530 0.2551352549
0.2041082040 -0.1020541020 0.2041082040
0.2551352549 -0.0510270510 0.1530811530
0.3061623059 0.0000000000 0.1020541020
0.3571893569 0.0510270510 0.0510270510
0.4082164079 0.1020541020 0.0000000000
0.4592434589 0.1530811530 -0.0510270510
-0.0510270510 -0.4592434589 0.5612975609
-0.0000000000 -0.4082164079 0.5102705099
0.0510270510 -0.3571893569 0.4592434589
0.1020541020 -0.3061623059 0.4082164079
0.1530811530 -0.2551352549 0.3571893569
0.2041082040 -0.2041082040 0.3061623059
0.2551352549 -0.1530811530 0.2551352549
0.3061623059 -0.1020541020 0.2041082040
0.3571893569 -0.0510270510 0.1530811530
0.4082164079 0.0000000000 0.1020541020
0.4592434589 0.0510270510 0.0510270510
0.5102705099 0.1020541020 0.0000000000
0.0000000000 -0.5102705099 0.6123246119
0.0510270510 -0.4592434589 0.5612975609
0.1020541020 -0.4082164079 0.5102705099
0.1530811530 -0.3571893569 0.4592434589
0.2041082040 -0.3061623059 0.4082164079
0.2551352549 -0.2551352549 0.3571893569
0.3061623059 -0.2041082040 0.3061623059
0.3571893569 -0.1530811530 0.2551352549
0.4082164079 -0.1020541020 0.2041082040
0.4592434589 -0.0510270510 0.1530811530
0.5102705099 0.0000000000 0.1020541020
0.5612975609 0.0510270510 0.0510270510
-0.6123246119 0.1020541020 0.1020541020
-0.5612975609 0.1530811530 0.0510270510
-0.5102705099 0.2041082040 -0.0000000000
-0.4592434589 0.2551352549 -0.0510270510
-0.4082164079 0.3061623059 -0.1020541020
-0.3571893569 0.3571893569 -0.1530811530
-0.3061623059 0.4082164079 -0.2041082040
-0.2551352549 0.4592434589 -0.2551352549
-0.2041082040 0.5102705099 -0.3061623059
-0.1530811530 0.5612975609 -0.3571893569
-0.1020541020 0.6123246119 -0.4082164079
-0.0510270510 0.6633516628 -0.4592434589
-0.5612975609 0.0510270510 0.1530811530
-0.5102705099 0.1020541020 0.1020541020
-0.4592434589 0.1530811530 0.0510270510
-0.4082164079 0.2041082040 -0.0000000000
-0.3571893569 0.2551352549 -0.0510270510
-0.3061623059 0.3061623059 -0.1020541020
-0.2551352549 0.3571893569 -0.1530811530
-0.2041082040 0.4082164079 -0.2041082040
-0.1530811530 0.4592434589 -0.2551352549
-0.1020541020 0.5102705099 -0.3061623059
-0.0510270510 0.5612975609 -0.3571893569
0.0000000000 0.6123246119 -0.4082164079
-0.5102705099 -0.0000000000 0.2041082040
-0.4592434589 0.0510270510 0.1530811530
-0.4082164079 0.1020541020 0.1020541020
-0.3571893569 0.1530811530 0.0510270510
-0.3061623059 0.2041082040 -0.0000000000
-0.2551352549 0.2551352549 -0.0510270510
-0.2041082040 0.3061623059 -0.1020541020
-0.1530811530 0.3571893569 -0.1530811530
-0.1020541020 0.4082164079 -0.2041082040
-0.0510270510 0.4592434589 -0.2551352549
0.0000000000 0.5102705099 -0.3061623059
0.0510270510 0.5612975609 -0.3571893569
-0.4592434589 -0.0510270510 0.2551352549
-0.4082164079 -0.0000000000 0.2041082040
-0.3571893569 0.0510270510 0.1530811530
-0.3061623059 0.1020541020 0.1020541020
-0.2551352549 0.1530811530 0.0510270510
-0.2041082040 0.2041082040 -0.0000000000
-0.1530811530 0.2551352549 -0.0510270510
-0.1020541020 0.3061623059 -0.1020541020
-0.0510270510 0.3571893569 -0.1530811530
0.0000000000 0.4082164079 -0.2041082040
0.0510270510 0.4592434589 -0.2551352549
0.1020541020 0.5102705099 -0.3061623059
-0.4082164079 -0.1020541020 0.3061623059
-0.3571893569 -0.0510270510 0.2551352549
-0.3061623059 0.0000000000 0.2041082040
-0.2551352549 0.0510270510 0.1530811530
-0.2041082040 0.1020541020 0.1020541020
-0.1530811530 0.1530811530 0.0510270510
-0.1020541020 0.2041082040 -0.0000000000
-0.0510270510 0.2551352549 -0.0510270510
0.0000000000 0.3061623059 -0.1020541020
0.0510270510 0.3571893569 -0.1530811530
0.1020541020 0.4082164079 -0.2041082040
0.1530811530 0.4592434589 -0.2551352549
-0.3571893569 -0.1530811530 0.3571893569
-0.3061623059 -0.1020541020 0.3061623059
-0.2551352549 -0.0510270510 0.2551352549
-0.2041082040 -0.0000000000 0.2041082040
-0.1530811530 0.0510270510 0.1530811530
-0.1020541020 0.1020541020 0.1020541020
-0.0510270510 0.1530811530 0.0510270510
0.0000000000 0.2041082040 0.0000000000
0.0510270510 0.2551352549 -0.0510270510
0.1020541020 0.3061623059 -0.1020541020
0.1530811530 0.3571893569 -0.1530811530
0.2041082040 0.4082164079 -0.2041082040
-0.3061623059 -0.2041082040 0.4082164079
-0.2551352549 -0.1530811530 0.3571893569
-0.2041082040 -0.1020541020 0.3061623059
-0.1530811530 -0.0510270510 0.2551352549
-0.1020541020 0.0000000000 0.2041082040
-0.0510270510 0.0510270510 0.1530811530
0.0000000000 0.1020541020 0.1020541020
0.0510270510 0.1530811530 0.0510270510
0.1020541020 0.2041082040 0.0000000000
0.1530811530 0.2551352549 -0.0510270510
0.2041082040 0.3061623059 -0.1020541020
0.2551352549 0.3571893569 -0.1530811530
-0.2551352549 -0.2551352549 0.4592434589
-0.2041082040 -0.2041082040 0.4082164079
-0.1530811530 -0.1530811530 0.3571893569
-0.1020541020 -0.1020541020 0.3061623059
-0.0510270510 -0.0510270510 0.2551352549
0.0000000000 0.0000000000 0.2041082040
0.0510270510 0.0510270510 0.1530811530
0.1020541020 0.1020541020 0.1020541020
0.1530811530 0.1530811530 0.0510270510
0.2041082040 0.2041082040 0.0000000000
0.2551352549 0.2551352549 -0.0510270510
0.3061623059 0.3061623059 -0.1020541020
-0.2041082040 -0.3061623059 0.5102705099
-0.1530811530 -0.2551352549 0.4592434589
-0.1020541020 -0.2041082040 0.4082164079
-0.0510270510 -0.1530811530 0.3571893569
0.0000000000 -0.1020541020 0.3061623059
0.0510270510 -0.0510270510 0.2551352549
0.1020541020 0.0000000000 0.2041082040
0.1530811530 0.0510270510 0.1530811530
0.2041082040 0.1020541020 0.1020541020
0.2551352549 0.1530811530 0.0510270510
0.3061623059 0.2041082040 0.0000000000
0.3571893569 0.2551352549 -0.0510270510
-0.1530811530 -0.3571893569 0.5612975609
-0.1020541020 -0.3061623059 0.5102705099
-0.0510270510 -0.2551352549 0.4592434589
0.0000000000 -0.2041082040 0.4082164079
0.0510270510 -0.1530811530 0.3571893569
0.1020541020 -0.1020541020 0.3061623059
0.1530811530 -0.0510270510 0.2551352549
0.2041082040 0.0000000000 0.2041082040
0.2551352549 0.0510270510 0.1530811530
0.3061623059 0.1020541020 0.1020541020
0.3571893569 0.1530811530 0.0510270510
0.4082164079 0.2041082040 0.0000000000
-0.1020541020 -0.4082164079 0.6123246119
-0.0510270510 -0.3571893569 0.5612975609
0.0000000000 -0.3061623059 0.5102705099
0.0510270510 -0.2551352549 0.4592434589
0.1020541020 -0.2041082040 0.4082164079
0.1530811530 -0.1530811530 0.3571893569
0.2041082040 -0.1020541020 0.3061623059
0.2551352549 -0.0510270510 0.2551352549
0.3061623059 0.0000000000 0.2041082040
0.3571893569 0.0510270510 0.1530811530
0.4082164079 0.1020541020 0.1020541020
0.4592434589 0.1530811530 0.0510270510
-0.0510270510 -0.4592434589 0.6633516628
0.0000000000 -0.4082164079 0.6123246119
0.0510270510 -0.3571893569 0.5612975609
0.1020541020 -0.3061623059 0.5102705099
0.1530811530 -0.2551352549 0.4592434589
0.2041082040 -0.2041082040 0.4082164079
0.2551352549 -0.1530811530 0.3571893569
0.3061623059 -0.1020541020 0.3061623059
0.3571893569 -0.0510270510 0.2551352549
0.4082164079 0.0000000000 0.2041082040
0.4592434589 0.0510270510 0.1530811530
0.5102705099 0.1020541020 0.1020541020
-0.6633516628 0.1530811530 0.1530811530
-0.6123246119 0.2041082040 0.1020541020
-0.5612975609 0.2551352549 0.0510270510
-0.5102705099 0.3061623059 -0.0000000000
-0.4592434589 0.3571893569 -0.0510270510
-0.4082164079 0.4082164079 -0.1020541020
-0.3571893569 0.4592434589 -0.1530811530
-0.3061623059 0.5102705099 -0.2041082040
-0.2551352549 0.5612975609 -0.2551352549
-0.2041082040 0.6123246119 -0.3061623059
-0.1530811530 0.6633516628 -0.3571893569
-0.1020541020 0.7143787138 -0.4082164079
-0.6123246119 0.1020541020 0.2041082040
-0.5612975609 0.1530811530 0.1530811530
-0.5102705099 0.2041082040 0.1020541020
-0.4592434589 0.2551352549 0.0510270510
-0.4082164079 0.3061623059 -0.0000000000
-0.3571893569 0.3571893569 -0.0510270510
-0.3061623059 0.4082164079 -0.1020541020
-0.2551352549 0.4592434589 -0.1530811530
-0.2041082040 0.5102705099 -0.2041082040
-0.1530811530 0.5612975609 -0.2551352549
-0.1020541020 0.6123246119 -0.3061623059
-0.0510270510 0.6633516628 -0.3571893569
-0.5612975609 0.0510270510 0.2551352549
-0.5102705099 0.1020541020 0.2041082040
-0.4592434589 0.1530811530 0.1530811530
-0.4082164079 0.2041082040 0.1020541020
-0.3571893569 0.2551352549 0.0510270510
-0.3061623059 0.3061623059 -0.0000000000
-0.2551352549 0.3571893569 -0.0510270510
-0.2041082040 0.4082164079 -0.1020541020
-0.1530811530 0.4592434589 -0.1530811530
-0.1020541020 0.5102705099 -0.2041082040
-0.0510270510 0.5612975609 -0.2551352549
0.0000000000 0.6123246119 -0.3061623059
-0.5102705099 0.0000000000 0.3061623059
-0.4592434589 0.0510270510 0.2551352549
-0.4082164079 0.1020541020 0.2041082040
-0.3571893569 0.1530811530 0.1530811530
-0.3061623059 0.2041082040 0.1020541020
-0.2551352549 0.2551352549 0.0510270510
-0.2041082040 0.3061623059 -0.0000000000
-0.1530811530 0.3571893569 -0.0510270510
-0.1020541020 0.4082164079 -0.1020541020
-0.0510270510 0.4592434589 -0.1530811530
0.0000000000 0.5102705099 -0.2041082040
0.0510270510 0.5612975609 -0.2551352549
-0.4592434589 -0.0510270510 0.3571893569
-0.4082164079 0.0000000000 0.3061623059
-0.3571893569 0.0510270510 0.2551352549
-0.3061623059 0.1020541020 0.2041082040
-0.2551352549 0.1530811530 0.1530811530
-0.2041082040 0.2041082040 0.1020541020
-0.1530811530 0.2551352549 0.0510270510
-0.1020541020 0.3061623059 0.0000000000
-0.0510270510 0.3571893569 -0.0510270510
0.0000000000 0.4082164079 -0.1020541020
0.0510270510 0.4592434589 -0.1530811530
0.1020541020 0.5102705099 -0.2041082040
-0.4082164079 -0.1020541020 0.4082164079
-0.3571893569 -0.0510270510 0.3571893569
-0.3061623059 0.0000000000 0.3061623059
-0.2551352549 0.0510270510 0.2551352549
-0.2041082040 0.1020541020 0.2041082040
-0.1530811530 0.1530811530 0.1530811530
-0.1020541020 0.2041082040 0.1020541020
-0.0510270510 0.2551352549 0.0510270510
0.0000000000 0.3061623059 0.0000000000
0.0510270510 0.3571893569 -0.0510270510
0.1020541020 0.4082164079 -0.1020541020
0.1530811530 0.4592434589 -0.1530811530
-0.3571893569 -0.1530811530 0.4592434589
-0.3061623059 -0.1020541020 0.4082164079
-0.2551352549 -0.0510270510 0.3571893569
-0.2041082040 0.0000000000 0.3061623059
-0.1530811530 0.0510270510 0.2551352549
-0.1020541020 0.1020541020 0.2041082040
-0.0510270510 0.1530811530 0.1530811530
0.0000000000 0.2041082040 0.1020541020
0.0510270510 0.2551352549 0.0510270510
0.1020541020 0.3061623059 0.0000000000
0.1530811530 0.3571893569 -0.0510270510
0.2041082040 0.4082164079 -0.1020541020
-0.3061623059 -0.2041082040 0.5102705099
-0.2551352549 -0.1530811530 0.4592434589
-0.2041082040 -0.1020541020 0.4082164079
-0.1530811530 -0.0510270510 0.3571893569
-0.1020541020 0.0000000000 0.3061623059
-0.0510270510 0.0510270510 0.2551352549
0.0000000000 0.1020541020 0.2041082040
0.0510270510 0.1530811530 0.1530811530
0.1020541020 0.2041082040 0.1020541020
0.1530811530 0.2551352549 0.0510270510
0.2041082040 0.3061623059 0.0000000000
0.2551352549 0.3571893569 -0.0510270510
-0.2551352549 -0.2551352549 0.5612975609
-0.2041082040 -0.2041082040 0.5102705099
-0.1530811530 -0.1530811530 0.4592434589
-0.1020541020 -0.1020541020 0.4082164079
-0.0510270510 -0.0510270510 0.3571893569
0.0000000000 0.0000000000 0.3061623059
0.0510270510 0.0510270510 0.2551352549
0.1020541020 0.1020541020 0.2041082040
0.1530811530 0.1530811530 0.1530811530
0.2041082040 0.2041082040 0.1020541020
0.2551352549 0.2551352549 0.0510270510
0.3061623059 0.3061623059 0.0000000000
-0.2041082040 -0.3061623059 0.6123246119
-0.1530811530 -0.2551352549 0.5612975609
-0.1020541020 -0.2041082040 0.5102705099
-0.0510270510 -0.1530811530 0.4592434589
0.0000000000 -0.1020541020 0.4082164079
0.0510270510 -0.0510270510 0.3571893569
0.1020541020 0.0000000000 0.3061623059
0.1530811530 0.0510270510 0.2551352549
0.2041082040 0.1020541020 0.2041082040
0.2551352549 0.1530811530 0.1530811530
0.3061623059 0.2041082040 0.1020541020
0.3571893569 0.2551352549 0.0510270510
-0.1530811530 -0.3571893569 0.6633516628
-0.1020541020 -0.3061623059 0.6123246119
-0.0510270510 -0.2551352549 0.5612975609
0.0000000000 -0.2041082040 0.5102705099
0.0510270510 -0.1530811530 0.4592434589
0.1020541020 -0.1020541020 0.4082164079
0.1530811530 -0.0510270510 0.3571893569
0.2041082040 0.0000000000 0.3061623059
0.2551352549 0.0510270510 0.2551352549
0.3061623059 0.1020541020 0.2041082040
0.3571893569 0.1530811530 0.1530811530
0.4082164079 0.2041082040 0.1020541020
-0.1020541020 -0.4082164079 0.7143787138
-0.0510270510 -0.3571893569 0.6633516628
0.0000000000 -0.3061623059 0.6123246119
0.0510270510 -0.2551352549 0.5612975609
0.1020541020 -0.2041082040 0.5102705099
0.1530811530 -0.1530811530 0.4592434589
0.2041082040 -0.1020541020 0.4082164079
0.2551352549 -0.0510270510 0.3571893569
0.3061623059 0.0000000000 0.3061623059
0.3571893569 0.0510270510 0.2551352549
0.4082164079 0.1020541020 0.2041082040
0.4592434589 0.1530811530 0.1530811530
-0.7143787138 0.2041082040 0.2041082040
-0.6633516628 0.2551352549 0.1530811530
-0.6123246119 0.3061623059 0.1020541020
-0.5612975609 0.3571893569 0.0510270510
-0.5102705099 0.4082164079 -0.0000000000
-0.4592434589 0.4592434589 -0.0510270510
-0.4082164079 0.5102705099 -0.1020541020
-0.3571893569 0.5612975609 -0.1530811530
-0.3061623059 0.6123246119 -0.2041082040
-0.2551352549 0.6633516628 -0.2551352549
-0.2041082040 0.7143787138 -0.3061623059
-0.1530811530 0.7654057648 -0.3571893569
-0.6633516628 0.1530811530 0.2551352549
-0.6123246119 0.2041082040 0.2041082040
-0.5612975609 0.2551352549 0.1530811530
-0.5102705099 0.3061623059 0.1020541020
-0.4592434589 0.3571893569 0.0510270510
-0.4082164079 0.4082164079 -0.0000000000
-0.3571893569 0.4592434589 -0.0510270510
-0.3061623059 0.5102705099 -0.1020541020
-0.2551352549 0.5612975609 -0.1530811530
-0.2041082040 0.6123246119 -0.2041082040
-0.1530811530 0.6633516628 -0.2551352549
-0.1020541020 0.7143787138 -0.3061623059
-0.6123246119 0.1020541020 0.3061623059
-0.5612975609 0.1530811530 0.2551352549
-0.5102705099 0.2041082040 0.2041082040
-0.4592434589 0.2551352549 0.1530811530
-0.4082164079 0.3061623059 0.1020541020
-0.3571893569 0.3571893569 0.0510270510
-0.3061623059 0.4082164079 -0.0000000000
-0.2551352549 0.4592434589 -0.0510270510
-0.2041082040 0.5102705099 -0.1020541020
-0.1530811530 0.5612975609 -0.1530811530
-0.1020541020 0.6123246119 -0.2041082040
-0.0510270510 0.6633516628 -0.2551352549
-0.5612975609 0.0510270510 0.3571893569
-0.5102705099 0.1020541020 0.3061623059
-0.4592434589 0.1530811530 0.2551352549
-0.4082164079 0.2041082040 0.2041082040
-0.3571893569 0.2551352549 0.1530811530
-0.3061623059 0.3061623059 0.1020541020
-0.2551352549 0.3571893569 0.0510270510
-0.2041082040 0.4082164079 -0.0000000000
-0.1530811530 0.4592434589 -0.0510270510
-0.1020541020 0.5102705099 -0.1020541020
-0.0510270510 0.5612975609 -0.1530811530
0.0000000000 0.6123246119 -0.2041082040
-0.5102705099 0.0000000000 0.4082164079
-0.4592434589 0.0510270510 0.3571893569
-0.4082164079 0.1020541020 0.3061623059
-0.3571893569 0.1530811530 0.2551352549
-0.3061623059 0.2041082040 0.2041082040
-0.2551352549 0.2551352549 0.1530811530
-0.2041082040 0.3061623059 0.1020541020
-0.1530811530 0.3571893569 0.0510270510
-0.1020541020 0.4082164079 0.0000000000
-0.0510270510 0.4592434589 -0.0510270510
0.0000000000 0.5102705099 -0.1020541020
0.0510270510 0.5612975609 -0.1530811530
-0.4592434589 -0.0510270510 0.4592434589
-0.4082164079 0.0000000000 0.4082164079
-0.3571893569 0.0510270510 0.3571893569
-0.3061623059 0.1020541020 0.3061623059
-0.2551352549 0.1530811530 0.2551352549
-0.2041082040 0.2041082040 0.2041082040
-0.1530811530 0.2551352549 0.1530811530
-0.1020541020 0.3061623059 0.1020541020
-0.0510270510 0.3571893569 0.0510270510
0.0000000000 0.4082164079 0.0000000000
0.0510270510 0.4592434589 -0.0510270510
0.1020541020 0.5102705099 -0.1020541020
-0.4082164079 -0.1020541020 0.5102705099
-0.3571893569 -0.0510270510 0.4592434589
-0.3061623059 0.0000000000 0.4082164079
-0.2551352549 0.0510270510 0.3571893569
-0.2041082040 0.1020541020 0.3061623059
-0.1530811530 0.1530811530 0.2551352549
-0.1020541020 0.2041082040 0.2041082040
-0.0510270510 0.2551352549 0.1530811530
0.0000000000 0.3061623059 0.1020541020
0.0510270510 0.3571893569 0.0510270510
0.1020541020 0.4082164079 0.0000000000
0.1530811530 0.4592434589 -0.0510270510
-0.3571893569 -0.1530811530 0.5612975609
-0.3061623059 -0.1020541020 0.5102705099
-0.2551352549 -0.0510270510 0.4592434589
-0.2041082040 0.0000000000 0.4082164079
-0.1530811530 0.0510270510 0.3571893569
-0.1020541020 0.1020541020 0.3061623059
-0.0510270510 0.1530811530 0.2551352549
0.0000000000 0.2041082040 0.2041082040
0.0510270510 0.2551352549 0.1530811530
0.1020541020 0.3061623059 0.1020541020
0.1530811530 0.3571893569 0.0510270510
0.2041082040 0.4082164079 0.0000000000
-0.3061623059 -0.2041082040 0.6123246119
-0.2551352549 -0.1530811530 0.5612975609
-0.2041082040 -0.1020541020 0.5102705099
-0.1530811530 -0.0510270510 0.4592434589
-0.1020541020 0.0000000000 0.4082164079
-0.0510270510 0.0510270510 0.3571893569
0.0000000000 0.1020541020 0.3061623059
0.0510270510 0.1530811530 0.2551352549
0.1020541020 0.2041082040 0.2041082040
0.1530811530 0.2551352549 0.1530811530
0.2041082040 0.3061623059 0.1020541020
0.2551352549 0.3571893569 0.0510270510
-0.2551352549 -0.2551352549 0.6633516628
-0.2041082040 -0.2041082040 0.6123246119
-0.1530811530 -0.1530811530 0.5612975609
-0.1020541020 -0.1020541020 0.5102705099
-0.0510270510 -0.0510270510 0.4592434589
0.0000000000 0.0000000000 0.4082164079
0.0510270510 0.0510270510 0.3571893569
0.1020541020 0.1020541020 0.3061623059
0.1530811530 0.1530811530 0.2551352549
0.2041082040 0.2041082040 0.2041082040
0.2551352549 0.2551352549 0.1530811530
0.3061623059 0.3061623059 0.1020541020
-0.2041082040 -0.3061623059 0.7143787138
-0.1530811530 -0.2551352549 0.6633516628
-0.1020541020 -0.2041082040 0.6123246119
-0.0510270510 -0.1530811530 0.5612975609
0.0000000000 -0.1020541020 0.5102705099
0.0510270510 -0.0510270510 0.4592434589
0.1020541020 0.0000000000 0.4082164079
0.1530811530 0.0510270510 0.3571893569
0.2041082040 0.1020541020 0.3061623059
0.2551352549 0.1530811530 0.2551352549
0.3061623059 0.2041082040 0.2041082040
0.3571893569 0.2551352549 0.1530811530
-0.1530811530 -0.3571893569 0.7654057648
-0.1020541020 -0.3061623059 0.7143787138
-0.0510270510 -0.2551352549 0.6633516628
0.0000000000 -0.2041082040 0.6123246119
0.0510270510 -0.1530811530 0.5612975609
0.1020541020 -0.1020541020 0.5102705099
0.1530811530 -0.0510270510 0.4592434589
0.2041082040 0.0000000000 0.4082164079
0.2551352549 0.0510270510 0.3571893569
0.3061623059 0.1020541020 0.3061623059
0.3571893569 0.1530811530 0.2551352549
0.4082164079 0.2041082040 0.2041082040
-0.7654057648 0.2551352549 0.2551352549
-0.7143787138 0.3061623059 0.2041082040
-0.6633516628 0.3571893569 0.1530811530
-0.6123246119 0.4082164079 0.1020541020
-0.5612975609 0.4592434589 0.0510270510
-0.5102705099 0.5102705099 -0.0000000000
-0.4592434589 0.5612975609 -0.0510270510
-0.4082164079 0.6123246119 -0.1020541020
-0.3571893569 0.6633516628 -0.1530811530
-0.3061623059 0.7143787138 -0.2041082040
-0.2551352549 0.7654057648 -0.2551352549
-0.2041082040 0.8164328158 -0.3061623059
-0.7143787138 0.2041082040 0.3061623059
-0.6633516628 0.2551352549 0.2551352549
-0.6123246119 0.3061623059 0.2041082040
-0.5612975609 0.3571893569 0.1530811530
-0.5102705099 0.4082164079 0.1020541020
-0.4592434589 0.4592434589 0.0510270510
-0.4082164079 0.5102705099 -0.0000000000
-0.3571893569 0.5612975609 -0.0510270510
-0.3061623059 0.6123246119 -0.1020541020
-0.2551352549 0.6633516628 -0.1530811530
-0.2041082040 0.7143787138 -0.2041082040
-0.1530811530 0.7654057648 -0.2551352549
-0.6633516628 0.1530811530 0.3571893569
-0.6123246119 0.2041082040 0.3061623059
-0.5612975609 0.2551352549 0.2551352549
-0.5102705099 0.3061623059 0.2041082040
-0.4592434589 0.3571893569 0.1530811530
-0.4082164079 0.4082164079 0.1020541020
-0.3571893569 0.4592434589 0.0510270510
-0.3061623059 0.5102705099 -0.0000000000
-0.2551352549 0.5612975609 -0.0510270510
-0.2041082040 0.6123246119 -0.1020541020
-0.1530811530 0.6633516628 -0.1530811530
-0.1020541020 0.7143787138 -0.2041082040
-0.6123246119 0.1020541020 0.4082164079
-0.5612975609 0.1530811530 0.3571893569
-0.5102705099 0.2041082040 0.3061623059
-0.4592434589 0.2551352549 0.2551352549
-0.4082164079 0.3061623059 0.2041082040
-0.3571893569 0.3571893569 0.1530811530
-0.3061623059 0.4082164079 0.1020541020
-0.2551352549 0.4592434589 0.0510270510
-0.2041082040 0.5102705099 -0.0000000000
-0.1530811530 0.5612975609 -0.0510270510
-0.1020541020 0.6123246119 -0.1020541020
-0.0510270510 0.6633516628 -0.1530811530
-0.5612975609 0.0510270510 0.4592434589
-0.5102705099 0.1020541020 0.4082164079
-0.4592434589 0.1530811530 0.3571893569
-0.4082164079 0.2041082040 0.3061623059
-0.3571893569 0.2551352549 0.2551352549
-0.3061623059 0.3061623059 0.2041082040
-0.2551352549 0.3571893569 0.1530811530
-0.2041082040 0.4082164079 0.1020541020
-0.1530811530 0.4592434589 0.0510270510
-0.1020541020 0.5102705099 -0.0000000000
-0.0510270510 0.5612975609 -0.0510270510
0.0000000000 0.6123246119 -0.1020541020
-0.5102705099 0.0000000000 0.5102705099
-0.4592434589 0.0510270510 0.4592434589
-0.4082164079 0.1020541020 0.4082164079
-0.3571893569 0.1530811530 0.3571893569
-0.3061623059 0.2041082040 0.3061623059
-0.2551352549 0.2551352549 0.2551352549
-0.2041082040 0.3061623059 0.2041082040
-0.1530811530 0.3571893569 0.1530811530
-0.1020541020 0.4082164079 0.1020541020
-0.0510270510 0.4592434589 0.0510270510
0.0000000000 0.5102705099 0.0000000000
0.0510270510 0.5612975609 -0.0510270510
-0.4592434589 -0.0510270510 0.5612975609
-0.4082164079 0.0000000000 0.5102705099
-0.3571893569 0.0510270510 0.4592434589
-0.3061623059 0.1020541020 0.4082164079
-0.2551352549 0.1530811530 0.3571893569
-0.2041082040 0.2041082040 0.3061623059
-0.1530811530 0.2551352549 0.2551352549
-0.1020541020 0.3061623059 0.2041082040
-0.0510270510 0.3571893569 0.1530811530
0.0000000000 0.4082164079 0.1020541020
0.0510270510 0.4592434589 0.0510270510
0.1020541020 0.5102705099 0.0000000000
-0.4082164079 -0.1020541020 0.6123246119
-0.3571893569 -0.0510270510 0.5612975609
-0.3061623059 0.0000000000 0.5102705099
-0.2551352549 0.0510270510 0.4592434589
-0.2041082040 0.1020541020 0.4082164079
-0.1530811530 0.1530811530 0.3571893569
-0.1020541020 0.2041082040 0.3061623059
-0.0510270510 0.2551352549 0.2551352549
0.0000000000 0.3061623059 0.2041082040
0.0510270510 0.3571893569 0.1530811530
0.1020541020 0.4082164079 0.1020541020
0.1530811530 0.4592434589 0.0510270510
-0.3571893569 -0.1530811530 0.6633516628
-0.3061623059 -0.1020541020 0.6123246119
-0.2551352549 -0.0510270510 0.5612975609
-0.2041082040 0.0000000000 0.5102705099
-0.1530811530 0.0510270510 0.4592434589
-0.1020541020 0.1020541020 0.4082164079
-0.0510270510 0.1530811530 0.3571893569
0.0000000000 0.2041082040 0.3061623059
0.0510270510 0.2551352549 0.2551352549
0.1020541020 0.3061623059 0.2041082040
0.1530811530 0.3571893569 0.1530811530
0.2041082040 0.4082164079 0.1020541020
-0.3061623059 -0.2041082040 0.7143787138
-0.2551352549 -0.1530811530 0.6633516628
-0.2041082040 -0.1020541020 0.6123246119
-0.1530811530 -0.0510270510 0.5612975609
-0.1020541020 0.0000000000 0.5102705099
-0.0510270510 0.0510270510 0.4592434589
0.0000000000 0.1020541020 0.4082164079
0.0510270510 0.1530811530 0.3571893569
0.1020541020 0.2041082040 0.3061623059
0.1530811530 0.2551352549 0.2551352549
0.2041082040 0.3061623059 0.2041082040
0.2551352549 0.3571893569 0.1530811530
-0.2551352549 -0.2551352549 0.7654057648
-0.2041082040 -0.2041082040 0.7143787138
-0.1530811530 -0.1530811530 0.6633516628
-0.1020541020 -0.1020541020 0.6123246119
-0.0510270510 -0.0510270510 0.5612975609
0.0000000000 0.0000000000 0.5102705099
0.0510270510 0.0510270510 0.4592434589
0.1020541020 0.1020541020 0.4082164079
0.1530811530 0.1530811530 0.3571893569
0.2041082040 0.2041082040 0.3061623059
0.2551352549 0.2551352549 0.2551352549
0.3061623059 0.3061623059 0.2041082040
-0.2041082040 -0.3061623059 0.8164328158
-0.1530811530 -0.2551352549 0.7654057648
-0.1020541020 -0.2041082040 0.7143787138
-0.0510270510 -0.1530811530 0.6633516628
0.0000000000 -0.1020541020 0.6123246119
0.0510270510 -0.0510270510 0.5612975609
0.1020541020 0.0000000000 0.5102705099
0.1530811530 0.0510270510 0.4592434589
0.2041082040 0.1020541020 0.4082164079
0.2551352549 0.1530811530 0.3571893569
0.3061623059 0.2041082040 0.3061623059
0.3571893569 0.2551352549 0.2551352549
-0.8164328158 0.3061623059 0.3061623059
-0.7654057648 0.3571893569 0.2551352549
-0.7143787138 0.4082164079 0.2041082040
-0.6633516628 0.4592434589 0.1530811530
-0.6123246119 0.5102705099 0.1020541020
-0.5612975609 0.5612975609 0.0510270510
-0.5102705099 0.6123246119 -0.0000000000
-0.4592434589 0.6633516628 -0.0510270510
-0.4082164079 0.7143787138 -0.1020541020
-0.3571893569 0.7654057648 -0.1530811530
-0.3061623059 0.8164328158 -0.2041082040
-0.2551352549 0.8674598668 -0.2551352549
-0.7654057648 0.2551352549 0.3571893569
-0.7143787138 0.3061623059 0.3061623059
-0.6633516628 0.3571893569 0.2551352549
-0.6123246119 0.4082164079 0.2041082040
-0.5612975609 0.4592434589 0.1530811530
-0.5102705099 0.5102705099 0.1020541020
-0.4592434589 0.5612975609 0.0510270510
-0.4082164079 0.6123246119 -0.0000000000
-0.3571893569 0.6633516628 -0.0510270510
-0.3061623059 0.7143787138 -0.1020541020
-0.2551352549 0.7654057648 -0.1530811530
-0.2041082040 0.8164328158 -0.2041082040
-0.7143787138 0.2041082040 0.4082164079
-0.6633516628 0.2551352549 0.3571893569
-0.6123246119 0.3061623059 0.3061623059
-0.5612975609 0.3571893569 0.2551352549
-0.5102705099 0.4082164079 0.2041082040
-0.4592434589 0.4592434589 0.1530811530
-0.4082164079 0.5102705099 0.1020541020
-0.3571893569 0.5612975609 0.0510270510
-0.3061623059 0.6123246119 -0.0000000000
-0.2551352549 0.6633516628 -0.0510270510
-0.2041082040 0.7143787138 -0.1020541020
-0.1530811530 0.7654057648 -0.1530811530
-0.6633516628 0.1530811530 0.4592434589
-0.6123246119 0.2041082040 0.4082164079
-0.5612975609 0.2551352549 0.3571893569
-0.5102705099 0.3061623059 0.3061623059
-0.4592434589 0.3571893569 0.2551352549
-0.4082164079 0.4082164079 0.2041082040
-0.3571893569 0.4592434589 0.1530811530
-0.3061623059 0.5102705099 0.1020541020
-0.2551352549 0.5612975609 0.0510270510
-0.2041082040 0.6123246119 -0.0000000000
-0.1530811530 0.6633516628 -0.0510270510
-0.1020541020 0.7143787138 -0.1020541020
-0.6123246119 0.1020541020 0.5102705099
-0.5612975609 0.1530811530 0.4592434589
-0.5102705099 0.2041082040 0.4082164079
-0.4592434589 0.2551352549 0.3571893569
-0.4082164079 0.3061623059 0.3061623059
-0.3571893569 0.3571893569 0.2551352549
-0.3061623059 0.4082164079 0.2041082040
-0.2551352549 0.4592434589 0.1530811530
-0.2041082040 0.5102705099 0.1020541020
-0.1530811530 0.5612975609 0.0510270510
-0.1020541020 0.6123246119 0.0000000000
-0.0510270510 0.6633516628 -0.0510270510
-0.5612975609 0.0510270510 0.5612975609
-0.5102705099 0.1020541020 0.5102705099
-0.4592434589 0.1530811530 0.4592434589
-0.4082164079 0.2041082040 0.4082164079
-0.3571893569 0.2551352549 0.3571893569
-0.3061623059 0.3061623059 0.3061623059
-0.2551352549 0.3571893569 0.2551352549
-0.2041082040 0.4082164079 0.2041082040
-0.1530811530 0.4592434589 0.1530811530
-0.1020541020 0.5102705099 0.1020541020
-0.0510270510 0.5612975609 0.0510270510
0.0000000000 0.6123246119 0.0000000000
-0.5102705099 0.0000000000 0.6123246119
-0.4592434589 0.0510270510 0.5612975609
-0.4082164079 0.1020541020 0.5102705099
-0.3571893569 0.1530811530 0.4592434589
-0.3061623059 0.2041082040 0.4082164079
-0.2551352549 0.2551352549 0.3571893569
-0.2041082040 0.3061623059 0.3061623059
-0.1530811530 0.3571893569 0.2551352549
-0.1020541020 0.4082164079 0.2041082040
-0.0510270510 0.4592434589 0.1530811530
0.0000000000 0.5102705099 0.1020541020
0.0510270510 0.5612975609 0.0510270510
-0.4592434589 -0.0510270510 0.6633516628
-0.4082164079 0.0000000000 0.6123246119
-0.3571893569 0.0510270510 0.5612975609
-0.3061623059 0.1020541020 0.5102705099
-0.2551352549 0.1530811530 0.4592434589
-0.2041082040 0.2041082040 0.4082164079
-0.1530811530 0.2551352549 0.3571893569
-0.1020541020 0.3061623059 0.3061623059
-0.0510270510 0.3571893569 0.2551352549
0.0000000000 0.4082164079 0.2041082040
0.0510270510 0.4592434589 0.1530811530
0.1020541020 0.5102705099 0.1020541020
-0.4082164079 -0.1020541020 0.7143787138
-0.3571893569 -0.0510270510 0.6633516628
-0.3061623059 0.0000000000 0.6123246119
-0.2551352549 0.0510270510 0.5612975609
-0.2041082040 0.1020541020 0.5102705099
-0.1530811530 0.1530811530 0.4592434589
-0.1020541020 0.2041082040 0.4082164079
-0.0510270510 0.2551352549 0.3571893569
0.0000000000 0.3061623059 0.3061623059
0.0510270510 0.3571893569 0.2551352549
0.1020541020 0.4082164079 0.2041082040
0.1530811530 0.4592434589 0.1530811530
-0.3571893569 -0.1530811530 0.7654057648
-0.3061623059 -0.1020541020 0.7143787138
-0.2551352549 -0.0510270510 0.6633516628
-0.2041082040 0.0000000000 0.6123246119
-0.1530811530 0.0510270510 0.5612975609
-0.1020541020 0.1020541020 0.5102705099
-0.0510270510 0.1530811530 0.4592434589
0.0000000000 0.2041082040 0.4082164079
0.0510270510 0.2551352549 0.3571893569
0.1020541020 0.3061623059 0.3061623059
0.1530811530 0.3571893569 0.2551352549
0.2041082040 0.4082164079 0.2041082040
-0.3061623059 -0.2041082040 0.8164328158
-0.2551352549 -0.1530811530 0.7654057648
-0.2041082040 -0.1020541020 0.7143787138
-0.1530811530 -0.0510270510 0.6633516628
-0.1020541020 0.0000000000 0.6123246119
-0.0510270510 0.0510270510 0.5612975609
0.0000000000 0.1020541020 0.5102705099
0.0510270510 0.1530811530 0.4592434589
0.1020541020 0.2041082040 0.4082164079
0.1530811530 0.2551352549 0.3571893569
0.2041082040 0.3061623059 0.3061623059
0.2551352549 0.3571893569 0.2551352549
-0.2551352549 -0.2551352549 0.8674598668
-0.2041082040 -0.2041082040 0.8164328158
-0.1530811530 -0.1530811530 0.7654057648
-0.1020541020 -0.1020541020 0.7143787138
-0.0510270510 -0.0510270510 0.6633516628
0.0000000000 0.0000000000 0.6123246119
0.0510270510 0.0510270510 0.5612975609
0.1020541020 0.1020541020 0.5102705099
0.1530811530 0.1530811530 0.4592434589
0.2041082040 0.2041082040 0.4082164079
0.2551352549 0.2551352549 0.3571893569
0.3061623059 0.3061623059 0.3061623059
 There are 14 alpha and 14 beta electrons
 Start computing overlap matrix
 Allocate 127844352 B from available memory: 1048575736800 B
[...]
 3.08859 3.14647 3.60575 3.76859 3.89023 4.00125 5.53379 7.61978
 == 1698-th k-point (-0.05103,0.15308,0.45924) occupation: 14==
 -64.99277 -64.99275 -4.62162 -4.62152 -3.03250 -3.03249 -3.03223 -3.03201 -3.03175 -3.03173
 -0.06819 0.05440 0.14861 0.17794 0.34126 0.38914 0.49138 0.55965 0.65984 0.67565
 0.74789 0.76112 0.81454 0.83761 0.92941 0.93783 1.02968 1.03069 1.09499 1.13891
 1.18592 1.21745 1.27030 1.36198 1.41859 1.46047 1.55922 1.57360 1.63243 1.66852
 1.70463 1.72773 1.80302 1.85617 1.88100 1.92804 2.00671 2.02748 2.08074 2.11491
 2.17256 2.22395 2.26992 2.34360 2.36609 2.39773 2.41053 2.51080 2.59922 2.77650
 3.03001 3.29797 3.54811 3.80911 3.87247 3.96481 6.27585 7.33653
 == 1699-th k-point (0.00000,0.20411,0.40822) occupation: 14==
 -64.99277 -64.99276 -4.62164 -4.62151 -3.03249 -3.03248 -3.03227 -3.03198 -3.03176 -3.03174
 -0.07994 0.06827 0.14339 0.19042 0.38284 0.41575 0.43421 0.54038 0.61674 0.64662
 0.76350 0.77594 0.79719 0.84167 0.91211 0.95735 1.02444 1.07195 1.10728 1.15198
 1.21065 1.21315 1.32218 1.38000 1.43467 1.45003 1.54977 1.55803 1.60389 1.64292
 1.67411 1.71531 1.78332 1.86082 1.91273 1.93818 1.97988 1.99471 2.05388 2.12325
 2.18976 2.21359 2.23343 2.35606 2.36749 2.39397 2.43978 2.49314 2.60915 2.78874
 2.93601 3.36081 3.51070 3.85073 3.91179 3.93573 6.81086 7.10013
 == 1700-th k-point (0.05103,0.25514,0.35719) occupation: 14==
 -64.99277 -64.99276 -4.62164 -4.62150 -3.03248 -3.03248 -3.03230 -3.03195 -3.03178 -3.03175
 -0.08610 0.06719 0.14558 0.21408 0.38786 0.41099 0.47366 0.49281 0.57917 0.63708
 0.73418 0.76794 0.80932 0.86422 0.92824 0.96115 1.00028 1.09830 1.14405 1.17187
 1.22901 1.26595 1.32240 1.37219 1.39905 1.47028 1.50348 1.54760 1.60191 1.64075
 1.68816 1.73019 1.77455 1.82226 1.90405 1.92640 1.96034 2.01767 2.07847 2.16279
 2.18187 2.21358 2.24475 2.34800 2.39096 2.41688 2.48371 2.53277 2.59731 2.71316
 2.94504 3.40223 3.49879 3.85111 3.93584 4.01561 6.76180 7.43277
 == 1701-th k-point (0.10205,0.30616,0.30616) occupation: 14==
 -64.99278 -64.99276 -4.62165 -4.62150 -3.03248 -3.03248 -3.03231 -3.03192 -3.03178 -3.03175
 -0.08665 0.05450 0.16291 0.22720 0.36828 0.43032 0.43458 0.54682 0.55580 0.62785
 0.70952 0.75896 0.83191 0.86505 0.89518 0.96725 1.04085 1.11694 1.15216 1.18919
 1.23902 1.26289 1.34086 1.37980 1.40500 1.42611 1.46872 1.57810 1.59609 1.63108
 1.63856 1.75416 1.80060 1.82295 1.88750 1.90012 1.99818 2.03888 2.07009 2.14037
 2.22893 2.25368 2.26822 2.35629 2.42015 2.42969 2.51551 2.54916 2.57436 2.63620
 3.01007 3.41976 3.50001 3.80021 3.98464 4.07126 6.66174 7.56549
 == 1702-th k-point (0.15308,0.35719,0.25514) occupation: 14==
 -64.99278 -64.99275 -4.62164 -4.62150 -3.03248 -3.03248 -3.03232 -3.03192 -3.03178 -3.03176
 -0.08188 0.04136 0.18084 0.21766 0.37385 0.39630 0.44631 0.52927 0.61671 0.64054
 0.70368 0.74576 0.77949 0.86495 0.92391 0.99921 1.05438 1.10581 1.12809 1.17870
 1.20995 1.31635 1.33212 1.36838 1.43588 1.44407 1.48566 1.52365 1.55065 1.61753
 1.64682 1.73995 1.80016 1.84213 1.89340 1.93909 1.99301 2.02536 2.07539 2.18172
 2.20578 2.25813 2.30001 2.36243 2.42912 2.44845 2.48780 2.52194 2.55913 2.61995
 3.19023 3.40115 3.51849 3.73939 4.00587 4.06901 6.08135 7.80702
 == 1703-th k-point (0.20411,0.40822,0.20411) occupation: 14==
 -64.99278 -64.99274 -4.62163 -4.62151 -3.03249 -3.03249 -3.03230 -3.03194 -3.03177 -3.03175
 -0.07242 0.03233 0.17297 0.20941 0.35314 0.43002 0.44971 0.51611 0.62887 0.67498
 0.72333 0.72509 0.74868 0.88445 0.95523 1.01878 1.05247 1.06678 1.08978 1.15421
 1.21076 1.31415 1.33286 1.36471 1.42408 1.43440 1.48197 1.53778 1.58263 1.61744
 1.64535 1.73867 1.80325 1.82286 1.89320 1.96179 1.98464 2.01070 2.09082 2.17711
 2.22052 2.25416 2.31794 2.38206 2.38801 2.44068 2.44606 2.52456 2.55887 2.63269
 3.25851 3.42188 3.53792 3.68184 4.01741 4.02446 5.82546 7.84902
 == 1704-th k-point (-0.30616,-0.20411,0.81643) occupation: 14==
 -64.99278 -64.99275 -4.62163 -4.62151 -3.03248 -3.03248 -3.03231 -3.03193 -3.03177 -3.03175
 -0.06934 0.02290 0.17954 0.21422 0.37310 0.39321 0.44477 0.57515 0.58858 0.65466
 0.70844 0.72695 0.80785 0.81535 1.00100 1.00440 1.07601 1.09196 1.09228 1.15092
 1.23932 1.30749 1.33740 1.34283 1.41927 1.44932 1.48130 1.51992 1.54783 1.63030
 1.66503 1.69497 1.80724 1.85554 1.90579 1.91644 1.95712 2.03304 2.07258 2.16797
 2.24670 2.26292 2.32706 2.37006 2.45411 2.47241 2.48651 2.49524 2.56784 2.59282
 3.21683 3.32683 3.58618 3.61139 4.01877 4.07725 5.98399 7.55472
 == 1705-th k-point (-0.25514,-0.15308,0.76541) occupation: 14==
 -64.99277 -64.99275 -4.62162 -4.62152 -3.03249 -3.03249 -3.03227 -3.03197 -3.03176 -3.03174
 -0.05927 0.02779 0.14734 0.19586 0.36536 0.42357 0.49708 0.51093 0.58606 0.67576
 0.72036 0.74454 0.82373 0.90101 0.95185 0.99442 1.01653 1.04393 1.11088 1.12207
 1.22532 1.24900 1.29790 1.36905 1.41574 1.45349 1.47843 1.51433 1.59203 1.64687
 1.65890 1.76878 1.77885 1.84417 1.89002 1.91335 1.95164 2.01881 2.10548 2.15727
 2.19768 2.23870 2.29146 2.35877 2.44407 2.45273 2.47131 2.52296 2.60880 2.66425
 3.05409 3.26090 3.59498 3.66206 3.93274 3.99350 6.25292 7.34197
 == 1706-th k-point (-0.20411,-0.10205,0.71438) occupation: 14==
 -64.99277 -64.99275 -4.62161 -4.62154 -3.03250 -3.03249 -3.03221 -3.03202 -3.03175 -3.03172
 -0.04642 0.02797 0.12941 0.17823 0.34711 0.43749 0.48018 0.55671 0.59363 0.68751
 0.73643 0.79226 0.83160 0.89044 0.94739 0.98281 0.99139 1.01409 1.08102 1.14354
 1.17119 1.19504 1.24596 1.36692 1.40320 1.46089 1.49674 1.55180 1.59102 1.65198
 1.73095 1.77445 1.80658 1.85479 1.88857 1.92892 1.97427 2.02129 2.07622 2.15156
 2.17317 2.23372 2.28945 2.36879 2.39748 2.42208 2.45376 2.53780 2.61997 2.70069
 2.96453 3.17377 3.60862 3.71823 3.85762 3.89712 6.10137 7.21533
 == 1707-th k-point (-0.15308,-0.05103,0.66335) occupation: 14==
 -64.99277 -64.99275 -4.62159 -4.62155 -3.03250 -3.03249 -3.03216 -3.03207 -3.03174 -3.03172
 -0.03020 0.01321 0.13652 0.16527 0.33353 0.37536 0.54211 0.59600 0.62656 0.68983
 0.74361 0.80415 0.83467 0.87627 0.89691 0.96576 0.99134 1.06155 1.07865 1.09380
 1.17364 1.18248 1.19689 1.26932 1.43603 1.49099 1.53755 1.55453 1.62548 1.66287
 1.76906 1.78885 1.82797 1.84562 1.90072 1.93431 2.00410 2.02891 2.07740 2.13247
 2.17538 2.22217 2.29431 2.33235 2.38108 2.41528 2.46247 2.54559 2.66074 2.72163
 2.92171 3.06707 3.65822 3.74717 3.81941 3.87195 6.14075 7.02189
 == 1708-th k-point (-0.10205,0.00000,0.61232) occupation: 14==
 -64.99276 -64.99276 -4.62157 -4.62157 -3.03249 -3.03249 -3.03212 -3.03212 -3.03174 -3.03174
 -0.01026 -0.01026 0.15831 0.15831 0.32652 0.32652 0.60846 0.60846 0.67666 0.67666
 0.75710 0.75710 0.81904 0.81905 0.95888 0.95888 1.02766 1.02767 1.08528 1.08528
 1.14886 1.14886 1.22895 1.22895 1.45430 1.45430 1.58538 1.58538 1.69452 1.69455
 1.79704 1.79705 1.81472 1.81472 1.91470 1.91471 2.03395 2.03399 2.13129 2.13129
 2.18974 2.18975 2.30271 2.30273 2.37352 2.37352 2.54215 2.54224 2.71680 2.71694
 2.92673 2.92676 3.74250 3.74252 3.89472 3.89473 6.43726 6.43742
 == 1709-th k-point (-0.05103,0.05103,0.56130) occupation: 14==
 -64.99276 -64.99274 -4.62159 -4.62155 -3.03250 -3.03249 -3.03216 -3.03208 -3.03176 -3.03174
 -0.03366 0.01289 0.15772 0.17229 0.30617 0.32726 0.61476 0.61788 0.68513 0.69056
 0.74274 0.75306 0.80435 0.80676 0.93038 0.99635 1.01745 1.03588 1.07442 1.11004
 1.12579 1.17181 1.22169 1.28076 1.41796 1.45430 1.60419 1.60472 1.73213 1.74723
 1.76656 1.77432 1.80241 1.85983 1.87894 1.91755 2.03234 2.05680 2.12832 2.16773
 2.17834 2.18605 2.27254 2.30978 2.33483 2.37899 2.53436 2.57413 2.61486 2.75306
 2.96129 2.98040 3.71004 3.81094 3.94256 4.07289 5.45661 6.79464
 == 1710-th k-point (0.00000,0.10205,0.51027) occupation: 14==
 -64.99276 -64.99276 -4.62161 -4.62154 -3.03250 -3.03249 -3.03219 -3.03205 -3.03175 -3.03174
 -0.05340 0.03690 0.15967 0.16687 0.32252 0.34191 0.55415 0.60531 0.67557 0.69545
 0.73771 0.76525 0.79995 0.87038 0.87695 0.94626 1.02136 1.02587 1.09670 1.11890
 1.18539 1.20308 1.22081 1.28418 1.43854 1.44664 1.59369 1.60366 1.68715 1.69593
 1.72102 1.77652 1.83428 1.83945 1.87007 1.91088 1.98341 2.08438 2.12159 2.12794
 2.15874 2.21982 2.25787 2.33019 2.34305 2.38168 2.44070 2.53663 2.61912 2.80857
 2.98305 3.19253 3.61941 3.82759 3.86322 3.99496 6.51847 6.53752
 == 1711-th k-point (0.05103,0.15308,0.45924) occupation: 14==
 -64.99277 -64.99275 -4.62162 -4.62152 -3.03250 -3.03249 -3.03223 -3.03201 -3.03175 -3.03173
 -0.06819 0.05440 0.14861 0.17794 0.34126 0.38914 0.49138 0.55965 0.65984 0.67565
 0.74789 0.76112 0.81454 0.83761 0.92941 0.93783 1.02968 1.03069 1.09499 1.13891
 1.18592 1.21744 1.27030 1.36199 1.41859 1.46047 1.55921 1.57360 1.63245 1.66853
 1.70464 1.72773 1.80303 1.85616 1.88100 1.92803 2.00672 2.02747 2.08074 2.11491
 2.17257 2.22397 2.26993 2.34360 2.36609 2.39773 2.41053 2.51077 2.59928 2.77647
 3.03009 3.29800 3.54811 3.80911 3.87246 3.96481 6.27594 7.33642
 == 1712-th k-point (0.10205,0.20411,0.40822) occupation: 14==
 -64.99278 -64.99275 -4.62164 -4.62151 -3.03249 -3.03249 -3.03228 -3.03196 -3.03176 -3.03174
 -0.07766 0.05396 0.15638 0.19656 0.36051 0.43387 0.45580 0.50108 0.64410 0.65787
 0.72270 0.75741 0.78233 0.86821 0.95627 0.97366 1.00164 1.07083 1.09730 1.16140
 1.19729 1.26570 1.31128 1.40486 1.43340 1.45682 1.49611 1.53474 1.59477 1.64030
 1.68696 1.72415 1.78224 1.83748 1.89321 1.95286 1.97535 2.02050 2.07887 2.14546
 2.18972 2.22324 2.28727 2.35124 2.39192 2.41387 2.44466 2.51728 2.58593 2.70023
 3.11518 3.36800 3.52238 3.79321 3.92486 3.99572 6.26351 7.68542
 == 1713-th k-point (0.15308,0.25514,0.35719) occupation: 14==
 -64.99278 -64.99275 -4.62164 -4.62150 -3.03248 -3.03248 -3.03232 -3.03192 -3.03178 -3.03176
 -0.08188 0.04136 0.18084 0.21766 0.37385 0.39630 0.44631 0.52927 0.61671 0.64054
 0.70368 0.74576 0.77949 0.86495 0.92391 0.99921 1.05438 1.10581 1.12809 1.17870
 1.20995 1.31635 1.33212 1.36838 1.43588 1.44407 1.48566 1.52365 1.55065 1.61753
 1.64682 1.73995 1.80016 1.84213 1.89340 1.93909 1.99301 2.02536 2.07539 2.18172
 2.20578 2.25813 2.30001 2.36243 2.42912 2.44845 2.48780 2.52194 2.55913 2.61995
 3.19023 3.40115 3.51849 3.73939 4.00587 4.06901 6.08135 7.80702
 == 1714-th k-point (0.20411,0.30616,0.30616) occupation: 14==
 -64.99278 -64.99272 -4.62164 -4.62150 -3.03248 -3.03248 -3.03233 -3.03189 -3.03178 -3.03177
 -0.08134 0.02914 0.20604 0.22954 0.35432 0.40325 0.41092 0.57505 0.61692 0.63554
 0.70282 0.73027 0.77699 0.79646 0.95507 1.04509 1.08812 1.08916 1.16013 1.18918
 1.24047 1.26251 1.34058 1.37733 1.40082 1.46050 1.47163 1.51495 1.57729 1.58746
 1.61725 1.69459 1.84743 1.87351 1.92561 1.93281 2.00967 2.03677 2.03725 2.15953
 2.28430 2.32355 2.32944 2.37685 2.42823 2.45729 2.49702 2.50280 2.51358 2.56215
 3.26558 3.42506 3.51232 3.67191 4.06545 4.09824 4.84347 7.84911
 == 1715-th k-point (0.25514,0.35719,0.25514) occupation: 14==
 -64.99278 -64.99272 -4.62164 -4.62150 -3.03248 -3.03248 -3.03233 -3.03189 -3.03178 -3.03177
 -0.07685 0.02255 0.20958 0.22423 0.35332 0.39893 0.41512 0.57103 0.62080 0.67764
 0.70752 0.71114 0.74146 0.80042 0.98796 1.05150 1.07169 1.10608 1.15042 1.15577
 1.26145 1.29196 1.31685 1.36615 1.39308 1.45883 1.49678 1.50056 1.56743 1.59568
 1.62205 1.68173 1.84192 1.87514 1.93057 1.96285 1.98255 2.02986 2.05137 2.13280
 2.30780 2.34252 2.34282 2.38557 2.42435 2.46451 2.48042 2.49205 2.52624 2.53753
 3.34333 3.43223 3.52028 3.62440 4.07950 4.09050 4.62749 7.77217
 == 1716-th k-point (-0.25514,-0.25514,0.86746) occupation: 14==
 -64.99278 -64.99272 -4.62164 -4.62150 -3.03248 -3.03248 -3.03233 -3.03189 -3.03178 -3.03177
 -0.07685 0.02255 0.20958 0.22423 0.35332 0.39893 0.41512 0.57103 0.62080 0.67764
 0.70752 0.71114 0.74146 0.80042 0.98796 1.05150 1.07169 1.10608 1.15042 1.15577
 1.26145 1.29196 1.31685 1.36615 1.39308 1.45883 1.49678 1.50056 1.56743 1.59568
 1.62205 1.68173 1.84192 1.87514 1.93057 1.96285 1.98255 2.02986 2.05137 2.13280
 2.30780 2.34252 2.34282 2.38557 2.42435 2.46451 2.48042 2.49205 2.52624 2.53753
 3.34333 3.43223 3.52028 3.62440 4.07950 4.09050 4.62749 7.77217
 == 1717-th k-point (-0.20411,-0.20411,0.81643) occupation: 14==
 -64.99278 -64.99274 -4.62163 -4.62151 -3.03249 -3.03249 -3.03230 -3.03194 -3.03177 -3.03175
 -0.07242 0.03233 0.17297 0.20941 0.35314 0.43002 0.44971 0.51611 0.62887 0.67498
 0.72333 0.72509 0.74868 0.88445 0.95523 1.01878 1.05247 1.06678 1.08978 1.15421
 1.21076 1.31415 1.33286 1.36471 1.42408 1.43440 1.48197 1.53778 1.58263 1.61744
 1.64535 1.73867 1.80325 1.82286 1.89320 1.96179 1.98464 2.01070 2.09082 2.17711
 2.22052 2.25416 2.31794 2.38206 2.38801 2.44068 2.44606 2.52456 2.55887 2.63269
 3.25851 3.42188 3.53792 3.68184 4.01741 4.02446 5.82546 7.84902
 == 1718-th k-point (-0.15308,-0.15308,0.76541) occupation: 14==
 -64.99278 -64.99274 -4.62162 -4.62152 -3.03250 -3.03250 -3.03225 -3.03199 -3.03176 -3.03173
 -0.06411 0.04087 0.14485 0.19351 0.33378 0.44292 0.48999 0.49813 0.65665 0.67640
 0.73793 0.75335 0.76653 0.90803 0.96055 0.98005 1.02538 1.02614 1.04386 1.16467
 1.18901 1.24831 1.26058 1.39502 1.43789 1.46501 1.47761 1.52483 1.62448 1.68807
 1.69852 1.72716 1.80547 1.81641 1.87928 1.94853 2.00471 2.01835 2.10095 2.10754
 2.18167 2.25803 2.30238 2.36415 2.39724 2.40126 2.42321 2.52707 2.57519 2.69082
 3.17577 3.32282 3.55653 3.73572 3.92850 3.97874 5.71928 7.84740
 == 1719-th k-point (-0.10205,-0.10205,0.71438) occupation: 14==
 -64.99277 -64.99274 -4.62161 -4.62154 -3.03250 -3.03250 -3.03220 -3.03204 -3.03175 -3.03173
 -0.05127 0.03440 0.14100 0.18055 0.31688 0.37823 0.55505 0.55522 0.67307 0.68212
 0.74389 0.75555 0.83321 0.87158 0.88408 0.98950 1.00399 1.02958 1.06429 1.15940
 1.17414 1.18341 1.21777 1.33140 1.40930 1.48094 1.54705 1.56096 1.67233 1.70925
 1.74292 1.76641 1.81386 1.83198 1.86243 1.94097 2.02593 2.03659 2.05996 2.12986
 2.15791 2.23071 2.29844 2.34069 2.35942 2.40920 2.45681 2.52744 2.58561 2.73280
 3.08858 3.14656 3.60576 3.76859 3.89023 4.00128 5.53378 7.61966
 == 1720-th k-point (-0.05103,-0.05103,0.66335) occupation: 14==
 -64.99276 -64.99274 -4.62159 -4.62155 -3.03250 -3.03249 -3.03216 -3.03208 -3.03176 -3.03174
 -0.03366 0.01289 0.15772 0.17229 0.30617 0.32726 0.61476 0.61788 0.68513 0.69056
 0.74274 0.75306 0.80435 0.80676 0.93038 0.99635 1.01745 1.03588 1.07442 1.11005
 1.12578 1.17180 1.22169 1.28076 1.41797 1.45430 1.60419 1.60472 1.73219 1.74722
 1.76657 1.77431 1.80239 1.85983 1.87894 1.91752 2.03227 2.05705 2.12828 2.16773
 2.17859 2.18605 2.27264 2.30972 2.33483 2.37900 2.53421 2.57489 2.61464 2.75278
 2.96167 2.98028 3.71005 3.81092 3.94256 4.07320 5.45659 6.79415
 == 1721-th k-point (0.00000,0.00000,0.61232) occupation: 14==
 -64.99274 -64.99274 -4.62157 -4.62157 -3.03249 -3.03249 -3.03211 -3.03211 -3.03176 -3.03176
 -0.01168 -0.01168 0.16947 0.16947 0.30391 0.30391 0.64989 0.64989 0.69678 0.69678
 0.75183 0.75183 0.75866 0.75866 0.99837 0.99837 1.04418 1.04419 1.06830 1.06830
 1.11740 1.11740 1.27230 1.27230 1.42107 1.42108 1.63524 1.63524 1.75534 1.75534
 1.76865 1.76865 1.84908 1.84908 1.89709 1.89709 2.11781 2.11781 2.15494 2.15494
 2.17167 2.17276 2.25554 2.25554 2.34460 2.34460 2.65602 2.65799 2.66312 2.66317
 2.83530 2.83530 3.83497 3.83502 4.13208 4.13275 5.45529 5.45532
 == 1722-th k-point (0.05103,0.05103,0.56130) occupation: 14==
 -64.99276 -64.99274 -4.62159 -4.62155 -3.03250 -3.03249 -3.03216 -3.03208 -3.03176 -3.03174
 -0.03366 0.01289 0.15772 0.17229 0.30617 0.32726 0.61476 0.61788 0.68513 0.69056
 0.74274 0.75306 0.80435 0.80676 0.93038 0.99635 1.01745 1.03588 1.07442 1.11005
 1.12578 1.17180 1.22169 1.28076 1.41797 1.45430 1.60419 1.60472 1.73219 1.74722
 1.76657 1.77431 1.80239 1.85983 1.87894 1.91752 2.03227 2.05705 2.12828 2.16773
 2.17859 2.18605 2.27264 2.30972 2.33483 2.37900 2.53421 2.57489 2.61464 2.75278
 2.96167 2.98028 3.71005 3.81092 3.94256 4.07320 5.45659 6.79415
 == 1723-th k-point (0.10205,0.10205,0.51027) occupation: 14==
 -64.99277 -64.99274 -4.62161 -4.62154 -3.03250 -3.03250 -3.03220 -3.03204 -3.03175 -3.03173
 -0.05127 0.03440 0.14100 0.18055 0.31688 0.37823 0.55505 0.55522 0.67307 0.68212
 0.74389 0.75555 0.83321 0.87158 0.88408 0.98950 1.00399 1.02958 1.06429 1.15940
 1.17414 1.18341 1.21777 1.33140 1.40930 1.48094 1.54705 1.56096 1.67233 1.70925
 1.74292 1.76641 1.81386 1.83198 1.86243 1.94097 2.02593 2.03659 2.05996 2.12986
 2.15791 2.23071 2.29844 2.34069 2.35942 2.40920 2.45681 2.52744 2.58561 2.73280
 3.08858 3.14656 3.60576 3.76859 3.89023 4.00128 5.53378 7.61966
 == 1724-th k-point (0.15308,0.15308,0.45924) occupation: 14==
 -64.99278 -64.99274 -4.62162 -4.62152 -3.03250 -3.03250 -3.03225 -3.03199 -3.03176 -3.03173
 -0.06411 0.04087 0.14485 0.19351 0.33378 0.44292 0.48999 0.49813 0.65665 0.67640
 0.73793 0.75335 0.76653 0.90803 0.96055 0.98005 1.02538 1.02614 1.04386 1.16467
 1.18901 1.24831 1.26058 1.39502 1.43789 1.46501 1.47761 1.52483 1.62448 1.68807
 1.69852 1.72716 1.80547 1.81641 1.87928 1.94853 2.00471 2.01835 2.10095 2.10754
 2.18167 2.25803 2.30238 2.36415 2.39724 2.40126 2.42321 2.52707 2.57519 2.69082
 3.17577 3.32282 3.55653 3.73572 3.92850 3.97874 5.71928 7.84740
 == 1725-th k-point (0.20411,0.20411,0.40822) occupation: 14==
 -64.99278 -64.99274 -4.62163 -4.62151 -3.03249 -3.03249 -3.03230 -3.03194 -3.03177 -3.03175
 -0.07242 0.03233 0.17297 0.20941 0.35314 0.43002 0.44971 0.51611 0.62887 0.67498
 0.72333 0.72509 0.74868 0.88445 0.95523 1.01878 1.05247 1.06678 1.08978 1.15421
 1.21076 1.31415 1.33286 1.36471 1.42408 1.43440 1.48197 1.53778 1.58263 1.61744
 1.64535 1.73867 1.80325 1.82286 1.89320 1.96179 1.98464 2.01070 2.09082 2.17711
 2.22052 2.25416 2.31794 2.38206 2.38801 2.44068 2.44606 2.52456 2.55887 2.63269
 3.25851 3.42188 3.53792 3.68184 4.01741 4.02446 5.82546 7.84902
 == 1726-th k-point (0.25514,0.25514,0.35719) occupation: 14==
 -64.99278 -64.99272 -4.62164 -4.62150 -3.03248 -3.03248 -3.03233 -3.03189 -3.03178 -3.03177
 -0.07685 0.02255 0.20958 0.22423 0.35332 0.39893 0.41512 0.57103 0.62080 0.67764
 0.70752 0.71114 0.74146 0.80042 0.98796 1.05150 1.07169 1.10608 1.15042 1.15577
 1.26145 1.29196 1.31685 1.36615 1.39308 1.45883 1.49678 1.50056 1.56743 1.59568
 1.62205 1.68173 1.84192 1.87514 1.93057 1.96285 1.98255 2.02986 2.05137 2.13280
 2.30780 2.34252 2.34282 2.38557 2.42435 2.46451 2.48042 2.49205 2.52624 2.53753
 3.34333 3.43223 3.52028 3.62440 4.07950 4.09050 4.62749 7.77217
 == 1727-th k-point (0.30616,0.30616,0.30616) occupation: 14==
 -64.99278 -64.99270 -4.62164 -4.62150 -3.03248 -3.03248 -3.03234 -3.03187 -3.03179 -3.03179
 -0.07821 0.01870 0.23077 0.23077 0.33466 0.40194 0.40194 0.56685 0.68049 0.68049
 0.69962 0.70406 0.70406 0.76576 1.01826 1.03395 1.10981 1.10981 1.15916 1.15916
 1.25346 1.29783 1.29783 1.36107 1.36107 1.42145 1.54720 1.54720 1.55496 1.55496
 1.63729 1.64273 1.86225 1.93245 1.96204 1.96204 2.01461 2.01461 2.01467 2.08818
 2.34464 2.34464 2.42809 2.42809 2.43670 2.43670 2.45889 2.49389 2.49389 2.50306
 3.42770 3.42770 3.47004 3.58067 3.67408 4.10111 4.10111 7.72811
 ---------------------------------------------------------------------------
 VBM is at 785-th k-point with 7.51135 eV
 CBM is at 5-th k-point with 8.12460 eV
 Band gap is 0.61325 eV


           Ground-State Mulliken Net Atomic Charges

      Atom                 Charge (a.u.)          Spin (a.u.)
   --------------------------------------------------------
      1 Si              (-0.000000,-0.000000)    (0.000000,0.000000)
      2 Si                (0.000000,0.000000)    (0.000000,0.000000)
   --------------------------------------------------------
  Sum of atomic charges =     (-0.000000,-0.000000)
  Sum of spin   charges =       (0.000000,0.000000)



 Total job time:  474.00 s.
 Tue Sep  9 10:49:26 2025


        *************************************************************
        *                                                           *
        *  Thank you very much for using QCPBC. Have a nice day.    *
        *                                                           *
        *************************************************************

Running job 1 of 1
