                  Welcome to Q-Chem
           with Periodic Boundary Condition
     A Quantum Leap Into The Future Of Chemistry

 Adam Rettig, Xintian Feng, Meng-Fu Chen, Hieu Dinh, Stephen Quiton,
 Anton Ni, Paul J. Robinson, Jinghong Zhang, Joonho Lee

Contributors to earlier versions of Q-Chem not listed above:
 Evgeny Epifanovsky, Leo Cunha, Jerome F. Gonthier, Kuan-Yu Liu
 Input file: /n/netscratch/joonholee_lab/Lab/hieudinh//si_2_ccpvdz_omega_0.6_121212.scratch20250909113254/si_2_ccpvdz_omega_0.6_121212.0
 Scratch folder: /n/netscratch/joonholee_lab/Lab/hieudinh//si_2_ccpvdz_omega_0.6_121212.scratch20250909113254
 Auxillary files located at: /n/holylabs/LABS/joonholee_lab/Lab/qchem_base/qcaux
 Q-Chem begins on Tue Sep  9 11:32:55 2025

 -------------------------------------------------------------
 User input:
 -------------------------------------------------------------
 $lattice
 3
 0.000000 5.130600 5.130600
 5.130600 0.000000 5.130600
 5.130600 5.130600 0.000000
 $end
 
 $unitcell
 ABSOLUTE
 0 1
 Si 0.000000 0.000000 0.000000
 Si 2.565300 2.565300 2.565300
 $end
 
 $rem
 jobtype = sp
 method = pbe
 scf_convergence = 5
 scf_guess = autosad
 scf_algorithm = diis_gdm
 basis = cc-pvdz
 aux_basis = cc-pvtz-jk
 input_bohr = true
 symmetry = false
 rsdf_print_level 1
 is_basis_uctr true
 
 mp_mesh = [12,12,12]
 
 integral_direct true
 bvk_cgto true
 
 thresh 14
 mem_total 1000000
 threads 32
 
 MAX_SCF_CYCLES 500
 madelung = false
 omega 0.6
 do_rij_bigmem true
 automate_g true
 print_level 10
 grid_type_xc 1
 
 thresh_1e2c_sp 1e-14
 thresh_2e3c_bra_ket_sep 1e-10
 thresh_g 1e-12
 $end
 
 -------------------------------------------------------------
 Running PBC job

 Requested Exchange Correlation Functionals: 
  DFT Exchange:  1.00000 pbe_x
  DFT Correlation:  1.00000 pbe_c
 using 32 threads for computing.
 ---------------------------------------------------------------
      Coordinates of Atoms in Central Unit Cell (Angstroms)
    I     Atom         X            Y            Z
 ---------------------------------------------------------------
    1      Si      0.000000     0.000000     0.000000
    2      Si      1.357498     1.357498     1.357498
 ---------------------------------------------------------------
 --------------------------------------------------
              Lattice Vectors (Angstroms)
              X            Y            Z
 --------------------------------------------------
   X       0.000000     2.714997     2.714997
   Y       2.714997     0.000000     2.714997
   Z       2.714997     2.714997     0.000000
 --------------------------------------------------
 --------------------------------------------------
       Reciprocal Lattice Vectors (Angstroms^-1)
              X            Y            Z
 --------------------------------------------------
   X      -1.157126     1.157126     1.157126
   Y       1.157126    -1.157126     1.157126
   Z       1.157126     1.157126    -1.157126
 --------------------------------------------------

 Single point calculation requested

 Hamiltonian contributions:
 List of terms in Hamiltonian: kpts_nn, kpts_kinetic, kpts_vnuc_df, kpts_xc, kpts_rij_bigmem

 K-Points calculation started.

 Basis set information about using solid harmonic (1) or Cartesian (0):
  si : D(1) 

 Basis set information about using solid harmonic (1) or Cartesian (0):
  si : D(1) D(1) D(1) D(1) D(1) D(1) D(1) D(1) D(1) F(1) F(1) F(1) G(1) 

 There are 36 basis functions in the central unit cell.
 Print atomic basis of atoms in the central unit cell:
 -------------------------------------------------------------
2 84 84 16

  0.00000000000000e+00  0.00000000000000e+00  0.00000000000000e+00
  2.56530000000000e+00  2.56530000000000e+00  2.56530000000000e+00

  7.88600000000000e+04
  1.18200000000000e+04
  2.69200000000000e+03
  7.63400000000000e+02
  2.49600000000000e+02
  9.02800000000000e+01
  3.52900000000000e+01
  1.45100000000000e+01
  4.05300000000000e+00
  7.88600000000000e+04
  1.18200000000000e+04
  2.69200000000000e+03
  2.49600000000000e+02
  9.02800000000000e+01
  3.52900000000000e+01
  1.45100000000000e+01
  4.05300000000000e+00
  1.48200000000000e+00
  7.88600000000000e+04
  1.18200000000000e+04
  2.69200000000000e+03
  9.02800000000000e+01
  3.52900000000000e+01
  1.45100000000000e+01
  4.05300000000000e+00
  1.48200000000000e+00
  2.51700000000000e-01
  9.24300000000000e-02
  3.15900000000000e+02
  7.44200000000000e+01
  2.34800000000000e+01
  8.48800000000000e+00
  3.21700000000000e+00
  1.22900000000000e+00
  7.44200000000000e+01
  2.34800000000000e+01
  8.48800000000000e+00
  3.21700000000000e+00
  1.22900000000000e+00
  2.96400000000000e-01
  8.76800000000000e-02
  2.75000000000000e-01
  7.88600000000000e+04
  1.18200000000000e+04
  2.69200000000000e+03
  7.63400000000000e+02
  2.49600000000000e+02
  9.02800000000000e+01
  3.52900000000000e+01
  1.45100000000000e+01
  4.05300000000000e+00
  7.88600000000000e+04
  1.18200000000000e+04
  2.69200000000000e+03
  2.49600000000000e+02
  9.02800000000000e+01
  3.52900000000000e+01
  1.45100000000000e+01
  4.05300000000000e+00
  1.48200000000000e+00
  7.88600000000000e+04
  1.18200000000000e+04
  2.69200000000000e+03
  9.02800000000000e+01
  3.52900000000000e+01
  1.45100000000000e+01
  4.05300000000000e+00
  1.48200000000000e+00
  2.51700000000000e-01
  9.24300000000000e-02
  3.15900000000000e+02
  7.44200000000000e+01
  2.34800000000000e+01
  8.48800000000000e+00
  3.21700000000000e+00
  1.22900000000000e+00
  7.44200000000000e+01
  2.34800000000000e+01
  8.48800000000000e+00
  3.21700000000000e+00
  1.22900000000000e+00
  2.96400000000000e-01
  8.76800000000000e-02
  2.75000000000000e-01

  9.06253754413352e-01
  1.69293104204437e+00
  2.88765135213002e+00
  4.51686717623273e+00
  6.15495015249549e+00
  6.60292741422250e+00
  4.31307094498082e+00
  1.11211258821928e+00
  3.28871017883051e-02
  1.81811499558714e-03
  7.82084807797983e-03
 -3.64325186414446e-03
 -1.38589915538590e-01
 -3.09231066968474e-01
 -8.37223961363792e-01
 -2.35283994917911e-01
  1.05074974557404e+00
  5.58607098057301e-01
 -3.73189052056138e-04
 -4.34506392374390e-04
 -1.25465717071959e-03
  1.25391036214459e-02
  2.72204657714548e-02
  2.48300227161584e-02
 -1.48880417762021e-01
 -3.39029634838718e-01
  2.96723365521804e-01
  1.19473010431857e-01
  7.49634571599597e+00
  9.36025063316295e+00
  9.42818987380764e+00
  6.66500330898836e+00
  2.81728351118454e+00
  4.95548501763808e-01
  1.33801616421722e-01
 -1.41076498099296e-01
  2.71250274850203e-02
 -2.30271473527780e-01
  1.34383996261684e-01
  3.01514460345638e-01
  6.80089021682769e-02
  1.71886461192366e-01
  9.06253754413352e-01
  1.69293104204437e+00
  2.88765135213002e+00
  4.51686717623273e+00
  6.15495015249549e+00
  6.60292741422250e+00
  4.31307094498082e+00
  1.11211258821928e+00
  3.28871017883051e-02
  1.81811499558714e-03
  7.82084807797983e-03
 -3.64325186414446e-03
 -1.38589915538590e-01
 -3.09231066968474e-01
 -8.37223961363792e-01
 -2.35283994917911e-01
  1.05074974557404e+00
  5.58607098057301e-01
 -3.73189052056138e-04
 -4.34506392374390e-04
 -1.25465717071959e-03
  1.25391036214459e-02
  2.72204657714548e-02
  2.48300227161584e-02
 -1.48880417762021e-01
 -3.39029634838718e-01
  2.96723365521804e-01
  1.19473010431857e-01
  7.49634571599597e+00
  9.36025063316295e+00
  9.42818987380764e+00
  6.66500330898836e+00
  2.81728351118454e+00
  4.95548501763808e-01
  1.33801616421722e-01
 -1.41076498099296e-01
  2.71250274850203e-02
 -2.30271473527780e-01
  1.34383996261684e-01
  3.01514460345638e-01
  6.80089021682769e-02
  1.71886461192366e-01

0 0 0 0 1 1 1
0 0 
9 0

0 1 1 9 1 1 1
9 0 
9 0

0 2 2 18 1 1 1
18 0 
9 0

0 3 3 27 1 1 1
27 0 
1 0

0 4 4 28 1 3 3
28 1 
6 0

0 7 7 34 1 3 3
34 1 
6 0

0 10 10 40 1 3 3
40 1 
1 0

0 13 13 41 1 5 6
41 2 
1 1

1 18 18 42 1 1 1
42 0 
9 0

1 19 19 51 1 1 1
51 0 
9 0

1 20 20 60 1 1 1
60 0 
9 0

1 21 21 69 1 1 1
69 0 
1 0

1 22 22 70 1 3 3
70 1 
6 0

1 25 25 76 1 3 3
76 1 
6 0

1 28 28 82 1 3 3
82 1 
1 0

1 31 31 83 1 5 6
83 2 
1 1

 -------------------------------------------------------------
 Allocate 259112 B from available memory: 1048576000000 B
 There are 1331 image cells after screening.
 There are 1221 image cells for CGTO evaluation after screening.
 Real-Space grid for FFT initialized based on kinetic energy cutoff (eV) = 500.0
 Real-Space grid for FFT: (10,10,10)
 There are 9261 real-space grid points.
 There are 64 batches of real-space grid points. 
 Size of each grid batch is around 128
 Grid for AFT initialized based on kinetic energy cutoff (eV) = 500.0
 Real-Space grid for AFT: (10,10,10)
 There are 9261 real-space grid points.

 There are 5456 atom-centered grid points.

 Spacegroup symmetry group: Fd-3m
 Reducing spacegroup symmetry to symmorphic group: F -4 3 m
 Monkhorst-Pack mesh is [12,12,12]
 There are 1728 k points.
kpoints in Bohr
-0.2551352549 -0.2551352549 -0.2551352549
-0.2041082040 -0.2041082040 -0.3061623059
-0.1530811530 -0.1530811530 -0.3571893569
-0.1020541020 -0.1020541020 -0.4082164079
-0.0510270510 -0.0510270510 -0.4592434589
-0.0000000000 -0.0000000000 -0.5102705099
0.0510270510 0.0510270510 -0.5612975609
0.1020541020 0.1020541020 -0.6123246119
0.1530811530 0.1530811530 -0.6633516628
0.2041082040 0.2041082040 -0.7143787138
0.2551352549 0.2551352549 -0.7654057648
0.3061623059 0.3061623059 -0.8164328158
-0.2041082040 -0.3061623059 -0.2041082040
-0.1530811530 -0.2551352549 -0.2551352549
-0.1020541020 -0.2041082040 -0.3061623059
-0.0510270510 -0.1530811530 -0.3571893569
-0.0000000000 -0.1020541020 -0.4082164079
0.0510270510 -0.0510270510 -0.4592434589
0.1020541020 -0.0000000000 -0.5102705099
0.1530811530 0.0510270510 -0.5612975609
0.2041082040 0.1020541020 -0.6123246119
0.2551352549 0.1530811530 -0.6633516628
0.3061623059 0.2041082040 -0.7143787138
0.3571893569 0.2551352549 -0.7654057648
-0.1530811530 -0.3571893569 -0.1530811530
-0.1020541020 -0.3061623059 -0.2041082040
-0.0510270510 -0.2551352549 -0.2551352549
-0.0000000000 -0.2041082040 -0.3061623059
0.0510270510 -0.1530811530 -0.3571893569
0.1020541020 -0.1020541020 -0.4082164079
0.1530811530 -0.0510270510 -0.4592434589
0.2041082040 -0.0000000000 -0.5102705099
0.2551352549 0.0510270510 -0.5612975609
0.3061623059 0.1020541020 -0.6123246119
0.3571893569 0.1530811530 -0.6633516628
0.4082164079 0.2041082040 -0.7143787138
-0.1020541020 -0.4082164079 -0.1020541020
-0.0510270510 -0.3571893569 -0.1530811530
-0.0000000000 -0.3061623059 -0.2041082040
0.0510270510 -0.2551352549 -0.2551352549
0.1020541020 -0.2041082040 -0.3061623059
0.1530811530 -0.1530811530 -0.3571893569
0.2041082040 -0.1020541020 -0.4082164079
0.2551352549 -0.0510270510 -0.4592434589
0.3061623059 -0.0000000000 -0.5102705099
0.3571893569 0.0510270510 -0.5612975609
0.4082164079 0.1020541020 -0.6123246119
0.4592434589 0.1530811530 -0.6633516628
-0.0510270510 -0.4592434589 -0.0510270510
-0.0000000000 -0.4082164079 -0.1020541020
0.0510270510 -0.3571893569 -0.1530811530
0.1020541020 -0.3061623059 -0.2041082040
0.1530811530 -0.2551352549 -0.2551352549
0.2041082040 -0.2041082040 -0.3061623059
0.2551352549 -0.1530811530 -0.3571893569
0.3061623059 -0.1020541020 -0.4082164079
0.3571893569 -0.0510270510 -0.4592434589
0.4082164079 0.0000000000 -0.5102705099
0.4592434589 0.0510270510 -0.5612975609
0.5102705099 0.1020541020 -0.6123246119
-0.0000000000 -0.5102705099 0.0000000000
0.0510270510 -0.4592434589 -0.0510270510
0.1020541020 -0.4082164079 -0.1020541020
0.1530811530 -0.3571893569 -0.1530811530
0.2041082040 -0.3061623059 -0.2041082040
0.2551352549 -0.2551352549 -0.2551352549
0.3061623059 -0.2041082040 -0.3061623059
0.3571893569 -0.1530811530 -0.3571893569
0.4082164079 -0.1020541020 -0.4082164079
0.4592434589 -0.0510270510 -0.4592434589
0.5102705099 0.0000000000 -0.5102705099
0.5612975609 0.0510270510 -0.5612975609
0.0510270510 -0.5612975609 0.0510270510
0.1020541020 -0.5102705099 0.0000000000
0.1530811530 -0.4592434589 -0.0510270510
0.2041082040 -0.4082164079 -0.1020541020
0.2551352549 -0.3571893569 -0.1530811530
0.3061623059 -0.3061623059 -0.2041082040
0.3571893569 -0.2551352549 -0.2551352549
0.4082164079 -0.2041082040 -0.3061623059
0.4592434589 -0.1530811530 -0.3571893569
0.5102705099 -0.1020541020 -0.4082164079
0.5612975609 -0.0510270510 -0.4592434589
0.6123246119 0.0000000000 -0.5102705099
0.1020541020 -0.6123246119 0.1020541020
0.1530811530 -0.5612975609 0.0510270510
0.2041082040 -0.5102705099 0.0000000000
0.2551352549 -0.4592434589 -0.0510270510
0.3061623059 -0.4082164079 -0.1020541020
0.3571893569 -0.3571893569 -0.1530811530
0.4082164079 -0.3061623059 -0.2041082040
0.4592434589 -0.2551352549 -0.2551352549
0.5102705099 -0.2041082040 -0.3061623059
0.5612975609 -0.1530811530 -0.3571893569
0.6123246119 -0.1020541020 -0.4082164079
0.6633516628 -0.0510270510 -0.4592434589
0.1530811530 -0.6633516628 0.1530811530
0.2041082040 -0.6123246119 0.1020541020
0.2551352549 -0.5612975609 0.0510270510
0.3061623059 -0.5102705099 0.0000000000
0.3571893569 -0.4592434589 -0.0510270510
0.4082164079 -0.4082164079 -0.1020541020
0.4592434589 -0.3571893569 -0.1530811530
0.5102705099 -0.3061623059 -0.2041082040
0.5612975609 -0.2551352549 -0.2551352549
0.6123246119 -0.2041082040 -0.3061623059
0.6633516628 -0.1530811530 -0.3571893569
0.7143787138 -0.1020541020 -0.4082164079
0.2041082040 -0.7143787138 0.2041082040
0.2551352549 -0.6633516628 0.1530811530
0.3061623059 -0.6123246119 0.1020541020
0.3571893569 -0.5612975609 0.0510270510
0.4082164079 -0.5102705099 0.0000000000
0.4592434589 -0.4592434589 -0.0510270510
0.5102705099 -0.4082164079 -0.1020541020
0.5612975609 -0.3571893569 -0.1530811530
0.6123246119 -0.3061623059 -0.2041082040
0.6633516628 -0.2551352549 -0.2551352549
0.7143787138 -0.2041082040 -0.3061623059
0.7654057648 -0.1530811530 -0.3571893569
0.2551352549 -0.7654057648 0.2551352549
0.3061623059 -0.7143787138 0.2041082040
0.3571893569 -0.6633516628 0.1530811530
0.4082164079 -0.6123246119 0.1020541020
0.4592434589 -0.5612975609 0.0510270510
0.5102705099 -0.5102705099 0.0000000000
0.5612975609 -0.4592434589 -0.0510270510
0.6123246119 -0.4082164079 -0.1020541020
0.6633516628 -0.3571893569 -0.1530811530
0.7143787138 -0.3061623059 -0.2041082040
0.7654057648 -0.2551352549 -0.2551352549
0.8164328158 -0.2041082040 -0.3061623059
0.3061623059 -0.8164328158 0.3061623059
0.3571893569 -0.7654057648 0.2551352549
0.4082164079 -0.7143787138 0.2041082040
0.4592434589 -0.6633516628 0.1530811530
0.5102705099 -0.6123246119 0.1020541020
0.5612975609 -0.5612975609 0.0510270510
0.6123246119 -0.5102705099 0.0000000000
0.6633516628 -0.4592434589 -0.0510270510
0.7143787138 -0.4082164079 -0.1020541020
0.7654057648 -0.3571893569 -0.1530811530
0.8164328158 -0.3061623059 -0.2041082040
0.8674598668 -0.2551352549 -0.2551352549
-0.3061623059 -0.2041082040 -0.2041082040
-0.2551352549 -0.1530811530 -0.2551352549
-0.2041082040 -0.1020541020 -0.3061623059
-0.1530811530 -0.0510270510 -0.3571893569
-0.1020541020 -0.0000000000 -0.4082164079
-0.0510270510 0.0510270510 -0.4592434589
-0.0000000000 0.1020541020 -0.5102705099
0.0510270510 0.1530811530 -0.5612975609
0.1020541020 0.2041082040 -0.6123246119
0.1530811530 0.2551352549 -0.6633516628
0.2041082040 0.3061623059 -0.7143787138
0.2551352549 0.3571893569 -0.7654057648
-0.2551352549 -0.2551352549 -0.1530811530
-0.2041082040 -0.2041082040 -0.2041082040
-0.1530811530 -0.1530811530 -0.2551352549
-0.1020541020 -0.1020541020 -0.3061623059
-0.0510270510 -0.0510270510 -0.3571893569
-0.0000000000 -0.0000000000 -0.4082164079
0.0510270510 0.0510270510 -0.4592434589
0.1020541020 0.1020541020 -0.5102705099
0.1530811530 0.1530811530 -0.5612975609
0.2041082040 0.2041082040 -0.6123246119
0.2551352549 0.2551352549 -0.6633516628
0.3061623059 0.3061623059 -0.7143787138
-0.2041082040 -0.3061623059 -0.1020541020
-0.1530811530 -0.2551352549 -0.1530811530
-0.1020541020 -0.2041082040 -0.2041082040
-0.0510270510 -0.1530811530 -0.2551352549
-0.0000000000 -0.1020541020 -0.3061623059
0.0510270510 -0.0510270510 -0.3571893569
0.1020541020 -0.0000000000 -0.4082164079
0.1530811530 0.0510270510 -0.4592434589
0.2041082040 0.1020541020 -0.5102705099
0.2551352549 0.1530811530 -0.5612975609
0.3061623059 0.2041082040 -0.6123246119
0.3571893569 0.2551352549 -0.6633516628
-0.1530811530 -0.3571893569 -0.0510270510
-0.1020541020 -0.3061623059 -0.1020541020
-0.0510270510 -0.2551352549 -0.1530811530
-0.0000000000 -0.2041082040 -0.2041082040
0.0510270510 -0.1530811530 -0.2551352549
0.1020541020 -0.1020541020 -0.3061623059
0.1530811530 -0.0510270510 -0.3571893569
0.2041082040 -0.0000000000 -0.4082164079
0.2551352549 0.0510270510 -0.4592434589
0.3061623059 0.1020541020 -0.5102705099
0.3571893569 0.1530811530 -0.5612975609
0.4082164079 0.2041082040 -0.6123246119
-0.1020541020 -0.4082164079 0.0000000000
-0.0510270510 -0.3571893569 -0.0510270510
-0.0000000000 -0.3061623059 -0.1020541020
0.0510270510 -0.2551352549 -0.1530811530
0.1020541020 -0.2041082040 -0.2041082040
0.1530811530 -0.1530811530 -0.2551352549
0.2041082040 -0.1020541020 -0.3061623059
0.2551352549 -0.0510270510 -0.3571893569
0.3061623059 0.0000000000 -0.4082164079
0.3571893569 0.0510270510 -0.4592434589
0.4082164079 0.1020541020 -0.5102705099
0.4592434589 0.1530811530 -0.5612975609
-0.0510270510 -0.4592434589 0.0510270510
-0.0000000000 -0.4082164079 0.0000000000
0.0510270510 -0.3571893569 -0.0510270510
0.1020541020 -0.3061623059 -0.1020541020
0.1530811530 -0.2551352549 -0.1530811530
0.2041082040 -0.2041082040 -0.2041082040
0.2551352549 -0.1530811530 -0.2551352549
0.3061623059 -0.1020541020 -0.3061623059
0.3571893569 -0.0510270510 -0.3571893569
0.4082164079 0.0000000000 -0.4082164079
0.4592434589 0.0510270510 -0.4592434589
0.5102705099 0.1020541020 -0.5102705099
-0.0000000000 -0.5102705099 0.1020541020
0.0510270510 -0.4592434589 0.0510270510
0.1020541020 -0.4082164079 0.0000000000
0.1530811530 -0.3571893569 -0.0510270510
0.2041082040 -0.3061623059 -0.1020541020
0.2551352549 -0.2551352549 -0.1530811530
0.3061623059 -0.2041082040 -0.2041082040
0.3571893569 -0.1530811530 -0.2551352549
0.4082164079 -0.1020541020 -0.3061623059
0.4592434589 -0.0510270510 -0.3571893569
0.5102705099 0.0000000000 -0.4082164079
0.5612975609 0.0510270510 -0.4592434589
0.0510270510 -0.5612975609 0.1530811530
0.1020541020 -0.5102705099 0.1020541020
0.1530811530 -0.4592434589 0.0510270510
0.2041082040 -0.4082164079 0.0000000000
0.2551352549 -0.3571893569 -0.0510270510
0.3061623059 -0.3061623059 -0.1020541020
0.3571893569 -0.2551352549 -0.1530811530
0.4082164079 -0.2041082040 -0.2041082040
0.4592434589 -0.1530811530 -0.2551352549
0.5102705099 -0.1020541020 -0.3061623059
0.5612975609 -0.0510270510 -0.3571893569
0.6123246119 0.0000000000 -0.4082164079
0.1020541020 -0.6123246119 0.2041082040
0.1530811530 -0.5612975609 0.1530811530
0.2041082040 -0.5102705099 0.1020541020
0.2551352549 -0.4592434589 0.0510270510
0.3061623059 -0.4082164079 0.0000000000
0.3571893569 -0.3571893569 -0.0510270510
0.4082164079 -0.3061623059 -0.1020541020
0.4592434589 -0.2551352549 -0.1530811530
0.5102705099 -0.2041082040 -0.2041082040
0.5612975609 -0.1530811530 -0.2551352549
0.6123246119 -0.1020541020 -0.3061623059
0.6633516628 -0.0510270510 -0.3571893569
0.1530811530 -0.6633516628 0.2551352549
0.2041082040 -0.6123246119 0.2041082040
0.2551352549 -0.5612975609 0.1530811530
0.3061623059 -0.5102705099 0.1020541020
0.3571893569 -0.4592434589 0.0510270510
0.4082164079 -0.4082164079 0.0000000000
0.4592434589 -0.3571893569 -0.0510270510
0.5102705099 -0.3061623059 -0.1020541020
0.5612975609 -0.2551352549 -0.1530811530
0.6123246119 -0.2041082040 -0.2041082040
0.6633516628 -0.1530811530 -0.2551352549
0.7143787138 -0.1020541020 -0.3061623059
0.2041082040 -0.7143787138 0.3061623059
0.2551352549 -0.6633516628 0.2551352549
0.3061623059 -0.6123246119 0.2041082040
0.3571893569 -0.5612975609 0.1530811530
0.4082164079 -0.5102705099 0.1020541020
0.4592434589 -0.4592434589 0.0510270510
0.5102705099 -0.4082164079 0.0000000000
0.5612975609 -0.3571893569 -0.0510270510
0.6123246119 -0.3061623059 -0.1020541020
0.6633516628 -0.2551352549 -0.1530811530
0.7143787138 -0.2041082040 -0.2041082040
0.7654057648 -0.1530811530 -0.2551352549
0.2551352549 -0.7654057648 0.3571893569
0.3061623059 -0.7143787138 0.3061623059
0.3571893569 -0.6633516628 0.2551352549
0.4082164079 -0.6123246119 0.2041082040
0.4592434589 -0.5612975609 0.1530811530
0.5102705099 -0.5102705099 0.1020541020
0.5612975609 -0.4592434589 0.0510270510
0.6123246119 -0.4082164079 0.0000000000
0.6633516628 -0.3571893569 -0.0510270510
0.7143787138 -0.3061623059 -0.1020541020
0.7654057648 -0.2551352549 -0.1530811530
0.8164328158 -0.2041082040 -0.2041082040
-0.3571893569 -0.1530811530 -0.1530811530
-0.3061623059 -0.1020541020 -0.2041082040
-0.2551352549 -0.0510270510 -0.2551352549
-0.2041082040 -0.0000000000 -0.3061623059
-0.1530811530 0.0510270510 -0.3571893569
-0.1020541020 0.1020541020 -0.4082164079
-0.0510270510 0.1530811530 -0.4592434589
-0.0000000000 0.2041082040 -0.5102705099
0.0510270510 0.2551352549 -0.5612975609
0.1020541020 0.3061623059 -0.6123246119
0.1530811530 0.3571893569 -0.6633516628
0.2041082040 0.4082164079 -0.7143787138
-0.3061623059 -0.2041082040 -0.1020541020
-0.2551352549 -0.1530811530 -0.1530811530
-0.2041082040 -0.1020541020 -0.2041082040
-0.1530811530 -0.0510270510 -0.2551352549
-0.1020541020 -0.0000000000 -0.3061623059
-0.0510270510 0.0510270510 -0.3571893569
-0.0000000000 0.1020541020 -0.4082164079
0.0510270510 0.1530811530 -0.4592434589
0.1020541020 0.2041082040 -0.5102705099
0.1530811530 0.2551352549 -0.5612975609
0.2041082040 0.3061623059 -0.6123246119
0.2551352549 0.3571893569 -0.6633516628
-0.2551352549 -0.2551352549 -0.0510270510
-0.2041082040 -0.2041082040 -0.1020541020
-0.1530811530 -0.1530811530 -0.1530811530
-0.1020541020 -0.1020541020 -0.2041082040
-0.0510270510 -0.0510270510 -0.2551352549
-0.0000000000 -0.0000000000 -0.3061623059
0.0510270510 0.0510270510 -0.3571893569
0.1020541020 0.1020541020 -0.4082164079
0.1530811530 0.1530811530 -0.4592434589
0.2041082040 0.2041082040 -0.5102705099
0.2551352549 0.2551352549 -0.5612975609
0.3061623059 0.3061623059 -0.6123246119
-0.2041082040 -0.3061623059 -0.0000000000
-0.1530811530 -0.2551352549 -0.0510270510
-0.1020541020 -0.2041082040 -0.1020541020
-0.0510270510 -0.1530811530 -0.1530811530
-0.0000000000 -0.1020541020 -0.2041082040
0.0510270510 -0.0510270510 -0.2551352549
0.1020541020 -0.0000000000 -0.3061623059
0.1530811530 0.0510270510 -0.3571893569
0.2041082040 0.1020541020 -0.4082164079
0.2551352549 0.1530811530 -0.4592434589
0.3061623059 0.2041082040 -0.5102705099
0.3571893569 0.2551352549 -0.5612975609
-0.1530811530 -0.3571893569 0.0510270510
-0.1020541020 -0.3061623059 -0.0000000000
-0.0510270510 -0.2551352549 -0.0510270510
-0.0000000000 -0.2041082040 -0.1020541020
0.0510270510 -0.1530811530 -0.1530811530
0.1020541020 -0.1020541020 -0.2041082040
0.1530811530 -0.0510270510 -0.2551352549
0.2041082040 -0.0000000000 -0.3061623059
0.2551352549 0.0510270510 -0.3571893569
0.3061623059 0.1020541020 -0.4082164079
0.3571893569 0.1530811530 -0.4592434589
0.4082164079 0.2041082040 -0.5102705099
-0.1020541020 -0.4082164079 0.1020541020
-0.0510270510 -0.3571893569 0.0510270510
-0.0000000000 -0.3061623059 0.0000000000
0.0510270510 -0.2551352549 -0.0510270510
0.1020541020 -0.2041082040 -0.1020541020
0.1530811530 -0.1530811530 -0.1530811530
0.2041082040 -0.1020541020 -0.2041082040
0.2551352549 -0.0510270510 -0.2551352549
0.3061623059 0.0000000000 -0.3061623059
0.3571893569 0.0510270510 -0.3571893569
0.4082164079 0.1020541020 -0.4082164079
0.4592434589 0.1530811530 -0.4592434589
-0.0510270510 -0.4592434589 0.1530811530
-0.0000000000 -0.4082164079 0.1020541020
0.0510270510 -0.3571893569 0.0510270510
0.1020541020 -0.3061623059 0.0000000000
0.1530811530 -0.2551352549 -0.0510270510
0.2041082040 -0.2041082040 -0.1020541020
0.2551352549 -0.1530811530 -0.1530811530
0.3061623059 -0.1020541020 -0.2041082040
0.3571893569 -0.0510270510 -0.2551352549
0.4082164079 0.0000000000 -0.3061623059
0.4592434589 0.0510270510 -0.3571893569
0.5102705099 0.1020541020 -0.4082164079
-0.0000000000 -0.5102705099 0.2041082040
0.0510270510 -0.4592434589 0.1530811530
0.1020541020 -0.4082164079 0.1020541020
0.1530811530 -0.3571893569 0.0510270510
0.2041082040 -0.3061623059 0.0000000000
0.2551352549 -0.2551352549 -0.0510270510
0.3061623059 -0.2041082040 -0.1020541020
0.3571893569 -0.1530811530 -0.1530811530
0.4082164079 -0.1020541020 -0.2041082040
0.4592434589 -0.0510270510 -0.2551352549
0.5102705099 0.0000000000 -0.3061623059
0.5612975609 0.0510270510 -0.3571893569
0.0510270510 -0.5612975609 0.2551352549
0.1020541020 -0.5102705099 0.2041082040
0.1530811530 -0.4592434589 0.1530811530
0.2041082040 -0.4082164079 0.1020541020
0.2551352549 -0.3571893569 0.0510270510
0.3061623059 -0.3061623059 0.0000000000
0.3571893569 -0.2551352549 -0.0510270510
0.4082164079 -0.2041082040 -0.1020541020
0.4592434589 -0.1530811530 -0.1530811530
0.5102705099 -0.1020541020 -0.2041082040
0.5612975609 -0.0510270510 -0.2551352549
0.6123246119 0.0000000000 -0.3061623059
0.1020541020 -0.6123246119 0.3061623059
0.1530811530 -0.5612975609 0.2551352549
0.2041082040 -0.5102705099 0.2041082040
0.2551352549 -0.4592434589 0.1530811530
0.3061623059 -0.4082164079 0.1020541020
0.3571893569 -0.3571893569 0.0510270510
0.4082164079 -0.3061623059 0.0000000000
0.4592434589 -0.2551352549 -0.0510270510
0.5102705099 -0.2041082040 -0.1020541020
0.5612975609 -0.1530811530 -0.1530811530
0.6123246119 -0.1020541020 -0.2041082040
0.6633516628 -0.0510270510 -0.2551352549
0.1530811530 -0.6633516628 0.3571893569
0.2041082040 -0.6123246119 0.3061623059
0.2551352549 -0.5612975609 0.2551352549
0.3061623059 -0.5102705099 0.2041082040
0.3571893569 -0.4592434589 0.1530811530
0.4082164079 -0.4082164079 0.1020541020
0.4592434589 -0.3571893569 0.0510270510
0.5102705099 -0.3061623059 0.0000000000
0.5612975609 -0.2551352549 -0.0510270510
0.6123246119 -0.2041082040 -0.1020541020
0.6633516628 -0.1530811530 -0.1530811530
0.7143787138 -0.1020541020 -0.2041082040
0.2041082040 -0.7143787138 0.4082164079
0.2551352549 -0.6633516628 0.3571893569
0.3061623059 -0.6123246119 0.3061623059
0.3571893569 -0.5612975609 0.2551352549
0.4082164079 -0.5102705099 0.2041082040
0.4592434589 -0.4592434589 0.1530811530
0.5102705099 -0.4082164079 0.1020541020
0.5612975609 -0.3571893569 0.0510270510
0.6123246119 -0.3061623059 0.0000000000
0.6633516628 -0.2551352549 -0.0510270510
0.7143787138 -0.2041082040 -0.1020541020
0.7654057648 -0.1530811530 -0.1530811530
-0.4082164079 -0.1020541020 -0.1020541020
-0.3571893569 -0.0510270510 -0.1530811530
-0.3061623059 -0.0000000000 -0.2041082040
-0.2551352549 0.0510270510 -0.2551352549
-0.2041082040 0.1020541020 -0.3061623059
-0.1530811530 0.1530811530 -0.3571893569
-0.1020541020 0.2041082040 -0.4082164079
-0.0510270510 0.2551352549 -0.4592434589
0.0000000000 0.3061623059 -0.5102705099
0.0510270510 0.3571893569 -0.5612975609
0.1020541020 0.4082164079 -0.6123246119
0.1530811530 0.4592434589 -0.6633516628
-0.3571893569 -0.1530811530 -0.0510270510
-0.3061623059 -0.1020541020 -0.1020541020
-0.2551352549 -0.0510270510 -0.1530811530
-0.2041082040 -0.0000000000 -0.2041082040
-0.1530811530 0.0510270510 -0.2551352549
-0.1020541020 0.1020541020 -0.3061623059
-0.0510270510 0.1530811530 -0.3571893569
0.0000000000 0.2041082040 -0.4082164079
0.0510270510 0.2551352549 -0.4592434589
0.1020541020 0.3061623059 -0.5102705099
0.1530811530 0.3571893569 -0.5612975609
0.2041082040 0.4082164079 -0.6123246119
-0.3061623059 -0.2041082040 -0.0000000000
-0.2551352549 -0.1530811530 -0.0510270510
-0.2041082040 -0.1020541020 -0.1020541020
-0.1530811530 -0.0510270510 -0.1530811530
-0.1020541020 -0.0000000000 -0.2041082040
-0.0510270510 0.0510270510 -0.2551352549
-0.0000000000 0.1020541020 -0.3061623059
0.0510270510 0.1530811530 -0.3571893569
0.1020541020 0.2041082040 -0.4082164079
0.1530811530 0.2551352549 -0.4592434589
0.2041082040 0.3061623059 -0.5102705099
0.2551352549 0.3571893569 -0.5612975609
-0.2551352549 -0.2551352549 0.0510270510
-0.2041082040 -0.2041082040 -0.0000000000
-0.1530811530 -0.1530811530 -0.0510270510
-0.1020541020 -0.1020541020 -0.1020541020
-0.0510270510 -0.0510270510 -0.1530811530
-0.0000000000 -0.0000000000 -0.2041082040
0.0510270510 0.0510270510 -0.2551352549
0.1020541020 0.1020541020 -0.3061623059
0.1530811530 0.1530811530 -0.3571893569
0.2041082040 0.2041082040 -0.4082164079
0.2551352549 0.2551352549 -0.4592434589
0.3061623059 0.3061623059 -0.5102705099
-0.2041082040 -0.3061623059 0.1020541020
-0.1530811530 -0.2551352549 0.0510270510
-0.1020541020 -0.2041082040 -0.0000000000
-0.0510270510 -0.1530811530 -0.0510270510
-0.0000000000 -0.1020541020 -0.1020541020
0.0510270510 -0.0510270510 -0.1530811530
0.1020541020 -0.0000000000 -0.2041082040
0.1530811530 0.0510270510 -0.2551352549
0.2041082040 0.1020541020 -0.3061623059
0.2551352549 0.1530811530 -0.3571893569
0.3061623059 0.2041082040 -0.4082164079
0.3571893569 0.2551352549 -0.4592434589
-0.1530811530 -0.3571893569 0.1530811530
-0.1020541020 -0.3061623059 0.1020541020
-0.0510270510 -0.2551352549 0.0510270510
-0.0000000000 -0.2041082040 0.0000000000
0.0510270510 -0.1530811530 -0.0510270510
0.1020541020 -0.1020541020 -0.1020541020
0.1530811530 -0.0510270510 -0.1530811530
0.2041082040 -0.0000000000 -0.2041082040
0.2551352549 0.0510270510 -0.2551352549
0.3061623059 0.1020541020 -0.3061623059
0.3571893569 0.1530811530 -0.3571893569
0.4082164079 0.2041082040 -0.4082164079
-0.1020541020 -0.4082164079 0.2041082040
-0.0510270510 -0.3571893569 0.1530811530
-0.0000000000 -0.3061623059 0.1020541020
0.0510270510 -0.2551352549 0.0510270510
0.1020541020 -0.2041082040 0.0000000000
0.1530811530 -0.1530811530 -0.0510270510
0.2041082040 -0.1020541020 -0.1020541020
0.2551352549 -0.0510270510 -0.1530811530
0.3061623059 0.0000000000 -0.2041082040
0.3571893569 0.0510270510 -0.2551352549
0.4082164079 0.1020541020 -0.3061623059
0.4592434589 0.1530811530 -0.3571893569
-0.0510270510 -0.4592434589 0.2551352549
-0.0000000000 -0.4082164079 0.2041082040
0.0510270510 -0.3571893569 0.1530811530
0.1020541020 -0.3061623059 0.1020541020
0.1530811530 -0.2551352549 0.0510270510
0.2041082040 -0.2041082040 0.0000000000
0.2551352549 -0.1530811530 -0.0510270510
0.3061623059 -0.1020541020 -0.1020541020
0.3571893569 -0.0510270510 -0.1530811530
0.4082164079 0.0000000000 -0.2041082040
0.4592434589 0.0510270510 -0.2551352549
0.5102705099 0.1020541020 -0.3061623059
-0.0000000000 -0.5102705099 0.3061623059
0.0510270510 -0.4592434589 0.2551352549
0.1020541020 -0.4082164079 0.2041082040
0.1530811530 -0.3571893569 0.1530811530
0.2041082040 -0.3061623059 0.1020541020
0.2551352549 -0.2551352549 0.0510270510
0.3061623059 -0.2041082040 0.0000000000
0.3571893569 -0.1530811530 -0.0510270510
0.4082164079 -0.1020541020 -0.1020541020
0.4592434589 -0.0510270510 -0.1530811530
0.5102705099 0.0000000000 -0.2041082040
0.5612975609 0.0510270510 -0.2551352549
0.0510270510 -0.5612975609 0.3571893569
0.1020541020 -0.5102705099 0.3061623059
0.1530811530 -0.4592434589 0.2551352549
0.2041082040 -0.4082164079 0.2041082040
0.2551352549 -0.3571893569 0.1530811530
0.3061623059 -0.3061623059 0.1020541020
0.3571893569 -0.2551352549 0.0510270510
0.4082164079 -0.2041082040 0.0000000000
0.4592434589 -0.1530811530 -0.0510270510
0.5102705099 -0.1020541020 -0.1020541020
0.5612975609 -0.0510270510 -0.1530811530
0.6123246119 0.0000000000 -0.2041082040
0.1020541020 -0.6123246119 0.4082164079
0.1530811530 -0.5612975609 0.3571893569
0.2041082040 -0.5102705099 0.3061623059
0.2551352549 -0.4592434589 0.2551352549
0.3061623059 -0.4082164079 0.2041082040
0.3571893569 -0.3571893569 0.1530811530
0.4082164079 -0.3061623059 0.1020541020
0.4592434589 -0.2551352549 0.0510270510
0.5102705099 -0.2041082040 0.0000000000
0.5612975609 -0.1530811530 -0.0510270510
0.6123246119 -0.1020541020 -0.1020541020
0.6633516628 -0.0510270510 -0.1530811530
0.1530811530 -0.6633516628 0.4592434589
0.2041082040 -0.6123246119 0.4082164079
0.2551352549 -0.5612975609 0.3571893569
0.3061623059 -0.5102705099 0.3061623059
0.3571893569 -0.4592434589 0.2551352549
0.4082164079 -0.4082164079 0.2041082040
0.4592434589 -0.3571893569 0.1530811530
0.5102705099 -0.3061623059 0.1020541020
0.5612975609 -0.2551352549 0.0510270510
0.6123246119 -0.2041082040 0.0000000000
0.6633516628 -0.1530811530 -0.0510270510
0.7143787138 -0.1020541020 -0.1020541020
-0.4592434589 -0.0510270510 -0.0510270510
-0.4082164079 -0.0000000000 -0.1020541020
-0.3571893569 0.0510270510 -0.1530811530
-0.3061623059 0.1020541020 -0.2041082040
-0.2551352549 0.1530811530 -0.2551352549
-0.2041082040 0.2041082040 -0.3061623059
-0.1530811530 0.2551352549 -0.3571893569
-0.1020541020 0.3061623059 -0.4082164079
-0.0510270510 0.3571893569 -0.4592434589
0.0000000000 0.4082164079 -0.5102705099
0.0510270510 0.4592434589 -0.5612975609
0.1020541020 0.5102705099 -0.6123246119
-0.4082164079 -0.1020541020 -0.0000000000
-0.3571893569 -0.0510270510 -0.0510270510
-0.3061623059 -0.0000000000 -0.1020541020
-0.2551352549 0.0510270510 -0.1530811530
-0.2041082040 0.1020541020 -0.2041082040
-0.1530811530 0.1530811530 -0.2551352549
-0.1020541020 0.2041082040 -0.3061623059
-0.0510270510 0.2551352549 -0.3571893569
0.0000000000 0.3061623059 -0.4082164079
0.0510270510 0.3571893569 -0.4592434589
0.1020541020 0.4082164079 -0.5102705099
0.1530811530 0.4592434589 -0.5612975609
-0.3571893569 -0.1530811530 0.0510270510
-0.3061623059 -0.1020541020 -0.0000000000
-0.2551352549 -0.0510270510 -0.0510270510
-0.2041082040 -0.0000000000 -0.1020541020
-0.1530811530 0.0510270510 -0.1530811530
-0.1020541020 0.1020541020 -0.2041082040
-0.0510270510 0.1530811530 -0.2551352549
0.0000000000 0.2041082040 -0.3061623059
0.0510270510 0.2551352549 -0.3571893569
0.1020541020 0.3061623059 -0.4082164079
0.1530811530 0.3571893569 -0.4592434589
0.2041082040 0.4082164079 -0.5102705099
-0.3061623059 -0.2041082040 0.1020541020
-0.2551352549 -0.1530811530 0.0510270510
-0.2041082040 -0.1020541020 -0.0000000000
-0.1530811530 -0.0510270510 -0.0510270510
-0.1020541020 -0.0000000000 -0.1020541020
-0.0510270510 0.0510270510 -0.1530811530
-0.0000000000 0.1020541020 -0.2041082040
0.0510270510 0.1530811530 -0.2551352549
0.1020541020 0.2041082040 -0.3061623059
0.1530811530 0.2551352549 -0.3571893569
0.2041082040 0.3061623059 -0.4082164079
0.2551352549 0.3571893569 -0.4592434589
-0.2551352549 -0.2551352549 0.1530811530
-0.2041082040 -0.2041082040 0.1020541020
-0.1530811530 -0.1530811530 0.0510270510
-0.1020541020 -0.1020541020 -0.0000000000
-0.0510270510 -0.0510270510 -0.0510270510
-0.0000000000 -0.0000000000 -0.1020541020
0.0510270510 0.0510270510 -0.1530811530
0.1020541020 0.1020541020 -0.2041082040
0.1530811530 0.1530811530 -0.2551352549
0.2041082040 0.2041082040 -0.3061623059
0.2551352549 0.2551352549 -0.3571893569
0.3061623059 0.3061623059 -0.4082164079
-0.2041082040 -0.3061623059 0.2041082040
-0.1530811530 -0.2551352549 0.1530811530
-0.1020541020 -0.2041082040 0.1020541020
-0.0510270510 -0.1530811530 0.0510270510
-0.0000000000 -0.1020541020 0.0000000000
0.0510270510 -0.0510270510 -0.0510270510
0.1020541020 -0.0000000000 -0.1020541020
0.1530811530 0.0510270510 -0.1530811530
0.2041082040 0.1020541020 -0.2041082040
0.2551352549 0.1530811530 -0.2551352549
0.3061623059 0.2041082040 -0.3061623059
0.3571893569 0.2551352549 -0.3571893569
-0.1530811530 -0.3571893569 0.2551352549
-0.1020541020 -0.3061623059 0.2041082040
-0.0510270510 -0.2551352549 0.1530811530
-0.0000000000 -0.2041082040 0.1020541020
0.0510270510 -0.1530811530 0.0510270510
0.1020541020 -0.1020541020 0.0000000000
0.1530811530 -0.0510270510 -0.0510270510
0.2041082040 0.0000000000 -0.1020541020
0.2551352549 0.0510270510 -0.1530811530
0.3061623059 0.1020541020 -0.2041082040
0.3571893569 0.1530811530 -0.2551352549
0.4082164079 0.2041082040 -0.3061623059
-0.1020541020 -0.4082164079 0.3061623059
-0.0510270510 -0.3571893569 0.2551352549
-0.0000000000 -0.3061623059 0.2041082040
0.0510270510 -0.2551352549 0.1530811530
0.1020541020 -0.2041082040 0.1020541020
0.1530811530 -0.1530811530 0.0510270510
0.2041082040 -0.1020541020 0.0000000000
0.2551352549 -0.0510270510 -0.0510270510
0.3061623059 0.0000000000 -0.1020541020
0.3571893569 0.0510270510 -0.1530811530
0.4082164079 0.1020541020 -0.2041082040
0.4592434589 0.1530811530 -0.2551352549
-0.0510270510 -0.4592434589 0.3571893569
-0.0000000000 -0.4082164079 0.3061623059
0.0510270510 -0.3571893569 0.2551352549
0.1020541020 -0.3061623059 0.2041082040
0.1530811530 -0.2551352549 0.1530811530
0.2041082040 -0.2041082040 0.1020541020
0.2551352549 -0.1530811530 0.0510270510
0.3061623059 -0.1020541020 0.0000000000
0.3571893569 -0.0510270510 -0.0510270510
0.4082164079 0.0000000000 -0.1020541020
0.4592434589 0.0510270510 -0.1530811530
0.5102705099 0.1020541020 -0.2041082040
-0.0000000000 -0.5102705099 0.4082164079
0.0510270510 -0.4592434589 0.3571893569
0.1020541020 -0.4082164079 0.3061623059
0.1530811530 -0.3571893569 0.2551352549
0.2041082040 -0.3061623059 0.2041082040
0.2551352549 -0.2551352549 0.1530811530
0.3061623059 -0.2041082040 0.1020541020
0.3571893569 -0.1530811530 0.0510270510
0.4082164079 -0.1020541020 0.0000000000
0.4592434589 -0.0510270510 -0.0510270510
0.5102705099 0.0000000000 -0.1020541020
0.5612975609 0.0510270510 -0.1530811530
0.0510270510 -0.5612975609 0.4592434589
0.1020541020 -0.5102705099 0.4082164079
0.1530811530 -0.4592434589 0.3571893569
0.2041082040 -0.4082164079 0.3061623059
0.2551352549 -0.3571893569 0.2551352549
0.3061623059 -0.3061623059 0.2041082040
0.3571893569 -0.2551352549 0.1530811530
0.4082164079 -0.2041082040 0.1020541020
0.4592434589 -0.1530811530 0.0510270510
0.5102705099 -0.1020541020 0.0000000000
0.5612975609 -0.0510270510 -0.0510270510
0.6123246119 0.0000000000 -0.1020541020
0.1020541020 -0.6123246119 0.5102705099
0.1530811530 -0.5612975609 0.4592434589
0.2041082040 -0.5102705099 0.4082164079
0.2551352549 -0.4592434589 0.3571893569
0.3061623059 -0.4082164079 0.3061623059
0.3571893569 -0.3571893569 0.2551352549
0.4082164079 -0.3061623059 0.2041082040
0.4592434589 -0.2551352549 0.1530811530
0.5102705099 -0.2041082040 0.1020541020
0.5612975609 -0.1530811530 0.0510270510
0.6123246119 -0.1020541020 0.0000000000
0.6633516628 -0.0510270510 -0.0510270510
-0.5102705099 -0.0000000000 -0.0000000000
-0.4592434589 0.0510270510 -0.0510270510
-0.4082164079 0.1020541020 -0.1020541020
-0.3571893569 0.1530811530 -0.1530811530
-0.3061623059 0.2041082040 -0.2041082040
-0.2551352549 0.2551352549 -0.2551352549
-0.2041082040 0.3061623059 -0.3061623059
-0.1530811530 0.3571893569 -0.3571893569
-0.1020541020 0.4082164079 -0.4082164079
-0.0510270510 0.4592434589 -0.4592434589
0.0000000000 0.5102705099 -0.5102705099
0.0510270510 0.5612975609 -0.5612975609
-0.4592434589 -0.0510270510 0.0510270510
-0.4082164079 -0.0000000000 -0.0000000000
-0.3571893569 0.0510270510 -0.0510270510
-0.3061623059 0.1020541020 -0.1020541020
-0.2551352549 0.1530811530 -0.1530811530
-0.2041082040 0.2041082040 -0.2041082040
-0.1530811530 0.2551352549 -0.2551352549
-0.1020541020 0.3061623059 -0.3061623059
-0.0510270510 0.3571893569 -0.3571893569
0.0000000000 0.4082164079 -0.4082164079
0.0510270510 0.4592434589 -0.4592434589
0.1020541020 0.5102705099 -0.5102705099
-0.4082164079 -0.1020541020 0.1020541020
-0.3571893569 -0.0510270510 0.0510270510
-0.3061623059 -0.0000000000 -0.0000000000
-0.2551352549 0.0510270510 -0.0510270510
-0.2041082040 0.1020541020 -0.1020541020
-0.1530811530 0.1530811530 -0.1530811530
-0.1020541020 0.2041082040 -0.2041082040
-0.0510270510 0.2551352549 -0.2551352549
0.0000000000 0.3061623059 -0.3061623059
0.0510270510 0.3571893569 -0.3571893569
0.1020541020 0.4082164079 -0.4082164079
0.1530811530 0.4592434589 -0.4592434589
-0.3571893569 -0.1530811530 0.1530811530
-0.3061623059 -0.1020541020 0.1020541020
-0.2551352549 -0.0510270510 0.0510270510
-0.2041082040 -0.0000000000 -0.0000000000
-0.1530811530 0.0510270510 -0.0510270510
-0.1020541020 0.1020541020 -0.1020541020
-0.0510270510 0.1530811530 -0.1530811530
0.0000000000 0.2041082040 -0.2041082040
0.0510270510 0.2551352549 -0.2551352549
0.1020541020 0.3061623059 -0.3061623059
0.1530811530 0.3571893569 -0.3571893569
0.2041082040 0.4082164079 -0.4082164079
-0.3061623059 -0.2041082040 0.2041082040
-0.2551352549 -0.1530811530 0.1530811530
-0.2041082040 -0.1020541020 0.1020541020
-0.1530811530 -0.0510270510 0.0510270510
-0.1020541020 -0.0000000000 -0.0000000000
-0.0510270510 0.0510270510 -0.0510270510
0.0000000000 0.1020541020 -0.1020541020
0.0510270510 0.1530811530 -0.1530811530
0.1020541020 0.2041082040 -0.2041082040
0.1530811530 0.2551352549 -0.2551352549
0.2041082040 0.3061623059 -0.3061623059
0.2551352549 0.3571893569 -0.3571893569
-0.2551352549 -0.2551352549 0.2551352549
-0.2041082040 -0.2041082040 0.2041082040
-0.1530811530 -0.1530811530 0.1530811530
-0.1020541020 -0.1020541020 0.1020541020
-0.0510270510 -0.0510270510 0.0510270510
0.0000000000 0.0000000000 0.0000000000
0.0510270510 0.0510270510 -0.0510270510
0.1020541020 0.1020541020 -0.1020541020
0.1530811530 0.1530811530 -0.1530811530
0.2041082040 0.2041082040 -0.2041082040
0.2551352549 0.2551352549 -0.2551352549
0.3061623059 0.3061623059 -0.3061623059
-0.2041082040 -0.3061623059 0.3061623059
-0.1530811530 -0.2551352549 0.2551352549
-0.1020541020 -0.2041082040 0.2041082040
-0.0510270510 -0.1530811530 0.1530811530
-0.0000000000 -0.1020541020 0.1020541020
0.0510270510 -0.0510270510 0.0510270510
0.1020541020 0.0000000000 0.0000000000
0.1530811530 0.0510270510 -0.0510270510
0.2041082040 0.1020541020 -0.1020541020
0.2551352549 0.1530811530 -0.1530811530
0.3061623059 0.2041082040 -0.2041082040
0.3571893569 0.2551352549 -0.2551352549
-0.1530811530 -0.3571893569 0.3571893569
-0.1020541020 -0.3061623059 0.3061623059
-0.0510270510 -0.2551352549 0.2551352549
-0.0000000000 -0.2041082040 0.2041082040
0.0510270510 -0.1530811530 0.1530811530
0.1020541020 -0.1020541020 0.1020541020
0.1530811530 -0.0510270510 0.0510270510
0.2041082040 0.0000000000 0.0000000000
0.2551352549 0.0510270510 -0.0510270510
0.3061623059 0.1020541020 -0.1020541020
0.3571893569 0.1530811530 -0.1530811530
0.4082164079 0.2041082040 -0.2041082040
-0.1020541020 -0.4082164079 0.4082164079
-0.0510270510 -0.3571893569 0.3571893569
-0.0000000000 -0.3061623059 0.3061623059
0.0510270510 -0.2551352549 0.2551352549
0.1020541020 -0.2041082040 0.2041082040
0.1530811530 -0.1530811530 0.1530811530
0.2041082040 -0.1020541020 0.1020541020
0.2551352549 -0.0510270510 0.0510270510
0.3061623059 0.0000000000 0.0000000000
0.3571893569 0.0510270510 -0.0510270510
0.4082164079 0.1020541020 -0.1020541020
0.4592434589 0.1530811530 -0.1530811530
-0.0510270510 -0.4592434589 0.4592434589
-0.0000000000 -0.4082164079 0.4082164079
0.0510270510 -0.3571893569 0.3571893569
0.1020541020 -0.3061623059 0.3061623059
0.1530811530 -0.2551352549 0.2551352549
0.2041082040 -0.2041082040 0.2041082040
0.2551352549 -0.1530811530 0.1530811530
0.3061623059 -0.1020541020 0.1020541020
0.3571893569 -0.0510270510 0.0510270510
0.4082164079 0.0000000000 0.0000000000
0.4592434589 0.0510270510 -0.0510270510
0.5102705099 0.1020541020 -0.1020541020
-0.0000000000 -0.5102705099 0.5102705099
0.0510270510 -0.4592434589 0.4592434589
0.1020541020 -0.4082164079 0.4082164079
0.1530811530 -0.3571893569 0.3571893569
0.2041082040 -0.3061623059 0.3061623059
0.2551352549 -0.2551352549 0.2551352549
0.3061623059 -0.2041082040 0.2041082040
0.3571893569 -0.1530811530 0.1530811530
0.4082164079 -0.1020541020 0.1020541020
0.4592434589 -0.0510270510 0.0510270510
0.5102705099 0.0000000000 0.0000000000
0.5612975609 0.0510270510 -0.0510270510
0.0510270510 -0.5612975609 0.5612975609
0.1020541020 -0.5102705099 0.5102705099
0.1530811530 -0.4592434589 0.4592434589
0.2041082040 -0.4082164079 0.4082164079
0.2551352549 -0.3571893569 0.3571893569
0.3061623059 -0.3061623059 0.3061623059
0.3571893569 -0.2551352549 0.2551352549
0.4082164079 -0.2041082040 0.2041082040
0.4592434589 -0.1530811530 0.1530811530
0.5102705099 -0.1020541020 0.1020541020
0.5612975609 -0.0510270510 0.0510270510
0.6123246119 0.0000000000 0.0000000000
-0.5612975609 0.0510270510 0.0510270510
-0.5102705099 0.1020541020 -0.0000000000
-0.4592434589 0.1530811530 -0.0510270510
-0.4082164079 0.2041082040 -0.1020541020
-0.3571893569 0.2551352549 -0.1530811530
-0.3061623059 0.3061623059 -0.2041082040
-0.2551352549 0.3571893569 -0.2551352549
-0.2041082040 0.4082164079 -0.3061623059
-0.1530811530 0.4592434589 -0.3571893569
-0.1020541020 0.5102705099 -0.4082164079
-0.0510270510 0.5612975609 -0.4592434589
0.0000000000 0.6123246119 -0.5102705099
-0.5102705099 -0.0000000000 0.1020541020
-0.4592434589 0.0510270510 0.0510270510
-0.4082164079 0.1020541020 -0.0000000000
-0.3571893569 0.1530811530 -0.0510270510
-0.3061623059 0.2041082040 -0.1020541020
-0.2551352549 0.2551352549 -0.1530811530
-0.2041082040 0.3061623059 -0.2041082040
-0.1530811530 0.3571893569 -0.2551352549
-0.1020541020 0.4082164079 -0.3061623059
-0.0510270510 0.4592434589 -0.3571893569
0.0000000000 0.5102705099 -0.4082164079
0.0510270510 0.5612975609 -0.4592434589
-0.4592434589 -0.0510270510 0.1530811530
-0.4082164079 -0.0000000000 0.1020541020
-0.3571893569 0.0510270510 0.0510270510
-0.3061623059 0.1020541020 -0.0000000000
-0.2551352549 0.1530811530 -0.0510270510
-0.2041082040 0.2041082040 -0.1020541020
-0.1530811530 0.2551352549 -0.1530811530
-0.1020541020 0.3061623059 -0.2041082040
-0.0510270510 0.3571893569 -0.2551352549
0.0000000000 0.4082164079 -0.3061623059
0.0510270510 0.4592434589 -0.3571893569
0.1020541020 0.5102705099 -0.4082164079
-0.4082164079 -0.1020541020 0.2041082040
-0.3571893569 -0.0510270510 0.1530811530
-0.3061623059 -0.0000000000 0.1020541020
-0.2551352549 0.0510270510 0.0510270510
-0.2041082040 0.1020541020 -0.0000000000
-0.1530811530 0.1530811530 -0.0510270510
-0.1020541020 0.2041082040 -0.1020541020
-0.0510270510 0.2551352549 -0.1530811530
0.0000000000 0.3061623059 -0.2041082040
0.0510270510 0.3571893569 -0.2551352549
0.1020541020 0.4082164079 -0.3061623059
0.1530811530 0.4592434589 -0.3571893569
-0.3571893569 -0.1530811530 0.2551352549
-0.3061623059 -0.1020541020 0.2041082040
-0.2551352549 -0.0510270510 0.1530811530
-0.2041082040 -0.0000000000 0.1020541020
-0.1530811530 0.0510270510 0.0510270510
-0.1020541020 0.1020541020 -0.0000000000
-0.0510270510 0.1530811530 -0.0510270510
0.0000000000 0.2041082040 -0.1020541020
0.0510270510 0.2551352549 -0.1530811530
0.1020541020 0.3061623059 -0.2041082040
0.1530811530 0.3571893569 -0.2551352549
0.2041082040 0.4082164079 -0.3061623059
-0.3061623059 -0.2041082040 0.3061623059
-0.2551352549 -0.1530811530 0.2551352549
-0.2041082040 -0.1020541020 0.2041082040
-0.1530811530 -0.0510270510 0.1530811530
-0.1020541020 -0.0000000000 0.1020541020
-0.0510270510 0.0510270510 0.0510270510
0.0000000000 0.1020541020 0.0000000000
0.0510270510 0.1530811530 -0.0510270510
0.1020541020 0.2041082040 -0.1020541020
0.1530811530 0.2551352549 -0.1530811530
0.2041082040 0.3061623059 -0.2041082040
0.2551352549 0.3571893569 -0.2551352549
-0.2551352549 -0.2551352549 0.3571893569
-0.2041082040 -0.2041082040 0.3061623059
-0.1530811530 -0.1530811530 0.2551352549
-0.1020541020 -0.1020541020 0.2041082040
-0.0510270510 -0.0510270510 0.1530811530
0.0000000000 0.0000000000 0.1020541020
0.0510270510 0.0510270510 0.0510270510
0.1020541020 0.1020541020 0.0000000000
0.1530811530 0.1530811530 -0.0510270510
0.2041082040 0.2041082040 -0.1020541020
0.2551352549 0.2551352549 -0.1530811530
0.3061623059 0.3061623059 -0.2041082040
-0.2041082040 -0.3061623059 0.4082164079
-0.1530811530 -0.2551352549 0.3571893569
-0.1020541020 -0.2041082040 0.3061623059
-0.0510270510 -0.1530811530 0.2551352549
-0.0000000000 -0.1020541020 0.2041082040
0.0510270510 -0.0510270510 0.1530811530
0.1020541020 0.0000000000 0.1020541020
0.1530811530 0.0510270510 0.0510270510
0.2041082040 0.1020541020 0.0000000000
0.2551352549 0.1530811530 -0.0510270510
0.3061623059 0.2041082040 -0.1020541020
0.3571893569 0.2551352549 -0.1530811530
-0.1530811530 -0.3571893569 0.4592434589
-0.1020541020 -0.3061623059 0.4082164079
-0.0510270510 -0.2551352549 0.3571893569
-0.0000000000 -0.2041082040 0.3061623059
0.0510270510 -0.1530811530 0.2551352549
0.1020541020 -0.1020541020 0.2041082040
0.1530811530 -0.0510270510 0.1530811530
0.2041082040 0.0000000000 0.1020541020
0.2551352549 0.0510270510 0.0510270510
0.3061623059 0.1020541020 0.0000000000
0.3571893569 0.1530811530 -0.0510270510
0.4082164079 0.2041082040 -0.1020541020
-0.1020541020 -0.4082164079 0.5102705099
-0.0510270510 -0.3571893569 0.4592434589
0.0000000000 -0.3061623059 0.4082164079
0.0510270510 -0.2551352549 0.3571893569
0.1020541020 -0.2041082040 0.3061623059
0.1530811530 -0.1530811530 0.2551352549
0.2041082040 -0.1020541020 0.2041082040
0.2551352549 -0.0510270510 0.1530811530
0.3061623059 0.0000000000 0.1020541020
0.3571893569 0.0510270510 0.0510270510
0.4082164079 0.1020541020 0.0000000000
0.4592434589 0.1530811530 -0.0510270510
-0.0510270510 -0.4592434589 0.5612975609
-0.0000000000 -0.4082164079 0.5102705099
0.0510270510 -0.3571893569 0.4592434589
0.1020541020 -0.3061623059 0.4082164079
0.1530811530 -0.2551352549 0.3571893569
0.2041082040 -0.2041082040 0.3061623059
0.2551352549 -0.1530811530 0.2551352549
0.3061623059 -0.1020541020 0.2041082040
0.3571893569 -0.0510270510 0.1530811530
0.4082164079 0.0000000000 0.1020541020
0.4592434589 0.0510270510 0.0510270510
0.5102705099 0.1020541020 0.0000000000
0.0000000000 -0.5102705099 0.6123246119
0.0510270510 -0.4592434589 0.5612975609
0.1020541020 -0.4082164079 0.5102705099
0.1530811530 -0.3571893569 0.4592434589
0.2041082040 -0.3061623059 0.4082164079
0.2551352549 -0.2551352549 0.3571893569
0.3061623059 -0.2041082040 0.3061623059
0.3571893569 -0.1530811530 0.2551352549
0.4082164079 -0.1020541020 0.2041082040
0.4592434589 -0.0510270510 0.1530811530
0.5102705099 0.0000000000 0.1020541020
0.5612975609 0.0510270510 0.0510270510
-0.6123246119 0.1020541020 0.1020541020
-0.5612975609 0.1530811530 0.0510270510
-0.5102705099 0.2041082040 -0.0000000000
-0.4592434589 0.2551352549 -0.0510270510
-0.4082164079 0.3061623059 -0.1020541020
-0.3571893569 0.3571893569 -0.1530811530
-0.3061623059 0.4082164079 -0.2041082040
-0.2551352549 0.4592434589 -0.2551352549
-0.2041082040 0.5102705099 -0.3061623059
-0.1530811530 0.5612975609 -0.3571893569
-0.1020541020 0.6123246119 -0.4082164079
-0.0510270510 0.6633516628 -0.4592434589
-0.5612975609 0.0510270510 0.1530811530
-0.5102705099 0.1020541020 0.1020541020
-0.4592434589 0.1530811530 0.0510270510
-0.4082164079 0.2041082040 -0.0000000000
-0.3571893569 0.2551352549 -0.0510270510
-0.3061623059 0.3061623059 -0.1020541020
-0.2551352549 0.3571893569 -0.1530811530
-0.2041082040 0.4082164079 -0.2041082040
-0.1530811530 0.4592434589 -0.2551352549
-0.1020541020 0.5102705099 -0.3061623059
-0.0510270510 0.5612975609 -0.3571893569
0.0000000000 0.6123246119 -0.4082164079
-0.5102705099 -0.0000000000 0.2041082040
-0.4592434589 0.0510270510 0.1530811530
-0.4082164079 0.1020541020 0.1020541020
-0.3571893569 0.1530811530 0.0510270510
-0.3061623059 0.2041082040 -0.0000000000
-0.2551352549 0.2551352549 -0.0510270510
-0.2041082040 0.3061623059 -0.1020541020
-0.1530811530 0.3571893569 -0.1530811530
-0.1020541020 0.4082164079 -0.2041082040
-0.0510270510 0.4592434589 -0.2551352549
0.0000000000 0.5102705099 -0.3061623059
0.0510270510 0.5612975609 -0.3571893569
-0.4592434589 -0.0510270510 0.2551352549
-0.4082164079 -0.0000000000 0.2041082040
-0.3571893569 0.0510270510 0.1530811530
-0.3061623059 0.1020541020 0.1020541020
-0.2551352549 0.1530811530 0.0510270510
-0.2041082040 0.2041082040 -0.0000000000
-0.1530811530 0.2551352549 -0.0510270510
-0.1020541020 0.3061623059 -0.1020541020
-0.0510270510 0.3571893569 -0.1530811530
0.0000000000 0.4082164079 -0.2041082040
0.0510270510 0.4592434589 -0.2551352549
0.1020541020 0.5102705099 -0.3061623059
-0.4082164079 -0.1020541020 0.3061623059
-0.3571893569 -0.0510270510 0.2551352549
-0.3061623059 0.0000000000 0.2041082040
-0.2551352549 0.0510270510 0.1530811530
-0.2041082040 0.1020541020 0.1020541020
-0.1530811530 0.1530811530 0.0510270510
-0.1020541020 0.2041082040 -0.0000000000
-0.0510270510 0.2551352549 -0.0510270510
0.0000000000 0.3061623059 -0.1020541020
0.0510270510 0.3571893569 -0.1530811530
0.1020541020 0.4082164079 -0.2041082040
0.1530811530 0.4592434589 -0.2551352549
-0.3571893569 -0.1530811530 0.3571893569
-0.3061623059 -0.1020541020 0.3061623059
-0.2551352549 -0.0510270510 0.2551352549
-0.2041082040 -0.0000000000 0.2041082040
-0.1530811530 0.0510270510 0.1530811530
-0.1020541020 0.1020541020 0.1020541020
-0.0510270510 0.1530811530 0.0510270510
0.0000000000 0.2041082040 0.0000000000
0.0510270510 0.2551352549 -0.0510270510
0.1020541020 0.3061623059 -0.1020541020
0.1530811530 0.3571893569 -0.1530811530
0.2041082040 0.4082164079 -0.2041082040
-0.3061623059 -0.2041082040 0.4082164079
-0.2551352549 -0.1530811530 0.3571893569
-0.2041082040 -0.1020541020 0.3061623059
-0.1530811530 -0.0510270510 0.2551352549
-0.1020541020 0.0000000000 0.2041082040
-0.0510270510 0.0510270510 0.1530811530
0.0000000000 0.1020541020 0.1020541020
0.0510270510 0.1530811530 0.0510270510
0.1020541020 0.2041082040 0.0000000000
0.1530811530 0.2551352549 -0.0510270510
0.2041082040 0.3061623059 -0.1020541020
0.2551352549 0.3571893569 -0.1530811530
-0.2551352549 -0.2551352549 0.4592434589
-0.2041082040 -0.2041082040 0.4082164079
-0.1530811530 -0.1530811530 0.3571893569
-0.1020541020 -0.1020541020 0.3061623059
-0.0510270510 -0.0510270510 0.2551352549
0.0000000000 0.0000000000 0.2041082040
0.0510270510 0.0510270510 0.1530811530
0.1020541020 0.1020541020 0.1020541020
0.1530811530 0.1530811530 0.0510270510
0.2041082040 0.2041082040 0.0000000000
0.2551352549 0.2551352549 -0.0510270510
0.3061623059 0.3061623059 -0.1020541020
-0.2041082040 -0.3061623059 0.5102705099
-0.1530811530 -0.2551352549 0.4592434589
-0.1020541020 -0.2041082040 0.4082164079
-0.0510270510 -0.1530811530 0.3571893569
0.0000000000 -0.1020541020 0.3061623059
0.0510270510 -0.0510270510 0.2551352549
0.1020541020 0.0000000000 0.2041082040
0.1530811530 0.0510270510 0.1530811530
0.2041082040 0.1020541020 0.1020541020
0.2551352549 0.1530811530 0.0510270510
0.3061623059 0.2041082040 0.0000000000
0.3571893569 0.2551352549 -0.0510270510
-0.1530811530 -0.3571893569 0.5612975609
-0.1020541020 -0.3061623059 0.5102705099
-0.0510270510 -0.2551352549 0.4592434589
0.0000000000 -0.2041082040 0.4082164079
0.0510270510 -0.1530811530 0.3571893569
0.1020541020 -0.1020541020 0.3061623059
0.1530811530 -0.0510270510 0.2551352549
0.2041082040 0.0000000000 0.2041082040
0.2551352549 0.0510270510 0.1530811530
0.3061623059 0.1020541020 0.1020541020
0.3571893569 0.1530811530 0.0510270510
0.4082164079 0.2041082040 0.0000000000
-0.1020541020 -0.4082164079 0.6123246119
-0.0510270510 -0.3571893569 0.5612975609
0.0000000000 -0.3061623059 0.5102705099
0.0510270510 -0.2551352549 0.4592434589
0.1020541020 -0.2041082040 0.4082164079
0.1530811530 -0.1530811530 0.3571893569
0.2041082040 -0.1020541020 0.3061623059
0.2551352549 -0.0510270510 0.2551352549
0.3061623059 0.0000000000 0.2041082040
0.3571893569 0.0510270510 0.1530811530
0.4082164079 0.1020541020 0.1020541020
0.4592434589 0.1530811530 0.0510270510
-0.0510270510 -0.4592434589 0.6633516628
0.0000000000 -0.4082164079 0.6123246119
0.0510270510 -0.3571893569 0.5612975609
0.1020541020 -0.3061623059 0.5102705099
0.1530811530 -0.2551352549 0.4592434589
0.2041082040 -0.2041082040 0.4082164079
0.2551352549 -0.1530811530 0.3571893569
0.3061623059 -0.1020541020 0.3061623059
0.3571893569 -0.0510270510 0.2551352549
0.4082164079 0.0000000000 0.2041082040
0.4592434589 0.0510270510 0.1530811530
0.5102705099 0.1020541020 0.1020541020
-0.6633516628 0.1530811530 0.1530811530
-0.6123246119 0.2041082040 0.1020541020
-0.5612975609 0.2551352549 0.0510270510
-0.5102705099 0.3061623059 -0.0000000000
-0.4592434589 0.3571893569 -0.0510270510
-0.4082164079 0.4082164079 -0.1020541020
-0.3571893569 0.4592434589 -0.1530811530
-0.3061623059 0.5102705099 -0.2041082040
-0.2551352549 0.5612975609 -0.2551352549
-0.2041082040 0.6123246119 -0.3061623059
-0.1530811530 0.6633516628 -0.3571893569
-0.1020541020 0.7143787138 -0.4082164079
-0.6123246119 0.1020541020 0.2041082040
-0.5612975609 0.1530811530 0.1530811530
-0.5102705099 0.2041082040 0.1020541020
-0.4592434589 0.2551352549 0.0510270510
-0.4082164079 0.3061623059 -0.0000000000
-0.3571893569 0.3571893569 -0.0510270510
-0.3061623059 0.4082164079 -0.1020541020
-0.2551352549 0.4592434589 -0.1530811530
-0.2041082040 0.5102705099 -0.2041082040
-0.1530811530 0.5612975609 -0.2551352549
-0.1020541020 0.6123246119 -0.3061623059
-0.0510270510 0.6633516628 -0.3571893569
-0.5612975609 0.0510270510 0.2551352549
-0.5102705099 0.1020541020 0.2041082040
-0.4592434589 0.1530811530 0.1530811530
-0.4082164079 0.2041082040 0.1020541020
-0.3571893569 0.2551352549 0.0510270510
-0.3061623059 0.3061623059 -0.0000000000
-0.2551352549 0.3571893569 -0.0510270510
-0.2041082040 0.4082164079 -0.1020541020
-0.1530811530 0.4592434589 -0.1530811530
-0.1020541020 0.5102705099 -0.2041082040
-0.0510270510 0.5612975609 -0.2551352549
0.0000000000 0.6123246119 -0.3061623059
-0.5102705099 0.0000000000 0.3061623059
-0.4592434589 0.0510270510 0.2551352549
-0.4082164079 0.1020541020 0.2041082040
-0.3571893569 0.1530811530 0.1530811530
-0.3061623059 0.2041082040 0.1020541020
-0.2551352549 0.2551352549 0.0510270510
-0.2041082040 0.3061623059 -0.0000000000
-0.1530811530 0.3571893569 -0.0510270510
-0.1020541020 0.4082164079 -0.1020541020
-0.0510270510 0.4592434589 -0.1530811530
0.0000000000 0.5102705099 -0.2041082040
0.0510270510 0.5612975609 -0.2551352549
-0.4592434589 -0.0510270510 0.3571893569
-0.4082164079 0.0000000000 0.3061623059
-0.3571893569 0.0510270510 0.2551352549
-0.3061623059 0.1020541020 0.2041082040
-0.2551352549 0.1530811530 0.1530811530
-0.2041082040 0.2041082040 0.1020541020
-0.1530811530 0.2551352549 0.0510270510
-0.1020541020 0.3061623059 0.0000000000
-0.0510270510 0.3571893569 -0.0510270510
0.0000000000 0.4082164079 -0.1020541020
0.0510270510 0.4592434589 -0.1530811530
0.1020541020 0.5102705099 -0.2041082040
-0.4082164079 -0.1020541020 0.4082164079
-0.3571893569 -0.0510270510 0.3571893569
-0.3061623059 0.0000000000 0.3061623059
-0.2551352549 0.0510270510 0.2551352549
-0.2041082040 0.1020541020 0.2041082040
-0.1530811530 0.1530811530 0.1530811530
-0.1020541020 0.2041082040 0.1020541020
-0.0510270510 0.2551352549 0.0510270510
0.0000000000 0.3061623059 0.0000000000
0.0510270510 0.3571893569 -0.0510270510
0.1020541020 0.4082164079 -0.1020541020
0.1530811530 0.4592434589 -0.1530811530
-0.3571893569 -0.1530811530 0.4592434589
-0.3061623059 -0.1020541020 0.4082164079
-0.2551352549 -0.0510270510 0.3571893569
-0.2041082040 0.0000000000 0.3061623059
-0.1530811530 0.0510270510 0.2551352549
-0.1020541020 0.1020541020 0.2041082040
-0.0510270510 0.1530811530 0.1530811530
0.0000000000 0.2041082040 0.1020541020
0.0510270510 0.2551352549 0.0510270510
0.1020541020 0.3061623059 0.0000000000
0.1530811530 0.3571893569 -0.0510270510
0.2041082040 0.4082164079 -0.1020541020
-0.3061623059 -0.2041082040 0.5102705099
-0.2551352549 -0.1530811530 0.4592434589
-0.2041082040 -0.1020541020 0.4082164079
-0.1530811530 -0.0510270510 0.3571893569
-0.1020541020 0.0000000000 0.3061623059
-0.0510270510 0.0510270510 0.2551352549
0.0000000000 0.1020541020 0.2041082040
0.0510270510 0.1530811530 0.1530811530
0.1020541020 0.2041082040 0.1020541020
0.1530811530 0.2551352549 0.0510270510
0.2041082040 0.3061623059 0.0000000000
0.2551352549 0.3571893569 -0.0510270510
-0.2551352549 -0.2551352549 0.5612975609
-0.2041082040 -0.2041082040 0.5102705099
-0.1530811530 -0.1530811530 0.4592434589
-0.1020541020 -0.1020541020 0.4082164079
-0.0510270510 -0.0510270510 0.3571893569
0.0000000000 0.0000000000 0.3061623059
0.0510270510 0.0510270510 0.2551352549
0.1020541020 0.1020541020 0.2041082040
0.1530811530 0.1530811530 0.1530811530
0.2041082040 0.2041082040 0.1020541020
0.2551352549 0.2551352549 0.0510270510
0.3061623059 0.3061623059 0.0000000000
-0.2041082040 -0.3061623059 0.6123246119
-0.1530811530 -0.2551352549 0.5612975609
-0.1020541020 -0.2041082040 0.5102705099
-0.0510270510 -0.1530811530 0.4592434589
0.0000000000 -0.1020541020 0.4082164079
0.0510270510 -0.0510270510 0.3571893569
0.1020541020 0.0000000000 0.3061623059
0.1530811530 0.0510270510 0.2551352549
0.2041082040 0.1020541020 0.2041082040
0.2551352549 0.1530811530 0.1530811530
0.3061623059 0.2041082040 0.1020541020
0.3571893569 0.2551352549 0.0510270510
-0.1530811530 -0.3571893569 0.6633516628
-0.1020541020 -0.3061623059 0.6123246119
-0.0510270510 -0.2551352549 0.5612975609
0.0000000000 -0.2041082040 0.5102705099
0.0510270510 -0.1530811530 0.4592434589
0.1020541020 -0.1020541020 0.4082164079
0.1530811530 -0.0510270510 0.3571893569
0.2041082040 0.0000000000 0.3061623059
0.2551352549 0.0510270510 0.2551352549
0.3061623059 0.1020541020 0.2041082040
0.3571893569 0.1530811530 0.1530811530
0.4082164079 0.2041082040 0.1020541020
-0.1020541020 -0.4082164079 0.7143787138
-0.0510270510 -0.3571893569 0.6633516628
0.0000000000 -0.3061623059 0.6123246119
0.0510270510 -0.2551352549 0.5612975609
0.1020541020 -0.2041082040 0.5102705099
0.1530811530 -0.1530811530 0.4592434589
0.2041082040 -0.1020541020 0.4082164079
0.2551352549 -0.0510270510 0.3571893569
0.3061623059 0.0000000000 0.3061623059
0.3571893569 0.0510270510 0.2551352549
0.4082164079 0.1020541020 0.2041082040
0.4592434589 0.1530811530 0.1530811530
-0.7143787138 0.2041082040 0.2041082040
-0.6633516628 0.2551352549 0.1530811530
-0.6123246119 0.3061623059 0.1020541020
-0.5612975609 0.3571893569 0.0510270510
-0.5102705099 0.4082164079 -0.0000000000
-0.4592434589 0.4592434589 -0.0510270510
-0.4082164079 0.5102705099 -0.1020541020
-0.3571893569 0.5612975609 -0.1530811530
-0.3061623059 0.6123246119 -0.2041082040
-0.2551352549 0.6633516628 -0.2551352549
-0.2041082040 0.7143787138 -0.3061623059
-0.1530811530 0.7654057648 -0.3571893569
-0.6633516628 0.1530811530 0.2551352549
-0.6123246119 0.2041082040 0.2041082040
-0.5612975609 0.2551352549 0.1530811530
-0.5102705099 0.3061623059 0.1020541020
-0.4592434589 0.3571893569 0.0510270510
-0.4082164079 0.4082164079 -0.0000000000
-0.3571893569 0.4592434589 -0.0510270510
-0.3061623059 0.5102705099 -0.1020541020
-0.2551352549 0.5612975609 -0.1530811530
-0.2041082040 0.6123246119 -0.2041082040
-0.1530811530 0.6633516628 -0.2551352549
-0.1020541020 0.7143787138 -0.3061623059
-0.6123246119 0.1020541020 0.3061623059
-0.5612975609 0.1530811530 0.2551352549
-0.5102705099 0.2041082040 0.2041082040
-0.4592434589 0.2551352549 0.1530811530
-0.4082164079 0.3061623059 0.1020541020
-0.3571893569 0.3571893569 0.0510270510
-0.3061623059 0.4082164079 -0.0000000000
-0.2551352549 0.4592434589 -0.0510270510
-0.2041082040 0.5102705099 -0.1020541020
-0.1530811530 0.5612975609 -0.1530811530
-0.1020541020 0.6123246119 -0.2041082040
-0.0510270510 0.6633516628 -0.2551352549
-0.5612975609 0.0510270510 0.3571893569
-0.5102705099 0.1020541020 0.3061623059
-0.4592434589 0.1530811530 0.2551352549
-0.4082164079 0.2041082040 0.2041082040
-0.3571893569 0.2551352549 0.1530811530
-0.3061623059 0.3061623059 0.1020541020
-0.2551352549 0.3571893569 0.0510270510
-0.2041082040 0.4082164079 -0.0000000000
-0.1530811530 0.4592434589 -0.0510270510
-0.1020541020 0.5102705099 -0.1020541020
-0.0510270510 0.5612975609 -0.1530811530
0.0000000000 0.6123246119 -0.2041082040
-0.5102705099 0.0000000000 0.4082164079
-0.4592434589 0.0510270510 0.3571893569
-0.4082164079 0.1020541020 0.3061623059
-0.3571893569 0.1530811530 0.2551352549
-0.3061623059 0.2041082040 0.2041082040
-0.2551352549 0.2551352549 0.1530811530
-0.2041082040 0.3061623059 0.1020541020
-0.1530811530 0.3571893569 0.0510270510
-0.1020541020 0.4082164079 0.0000000000
-0.0510270510 0.4592434589 -0.0510270510
0.0000000000 0.5102705099 -0.1020541020
0.0510270510 0.5612975609 -0.1530811530
-0.4592434589 -0.0510270510 0.4592434589
-0.4082164079 0.0000000000 0.4082164079
-0.3571893569 0.0510270510 0.3571893569
-0.3061623059 0.1020541020 0.3061623059
-0.2551352549 0.1530811530 0.2551352549
-0.2041082040 0.2041082040 0.2041082040
-0.1530811530 0.2551352549 0.1530811530
-0.1020541020 0.3061623059 0.1020541020
-0.0510270510 0.3571893569 0.0510270510
0.0000000000 0.4082164079 0.0000000000
0.0510270510 0.4592434589 -0.0510270510
0.1020541020 0.5102705099 -0.1020541020
-0.4082164079 -0.1020541020 0.5102705099
-0.3571893569 -0.0510270510 0.4592434589
-0.3061623059 0.0000000000 0.4082164079
-0.2551352549 0.0510270510 0.3571893569
-0.2041082040 0.1020541020 0.3061623059
-0.1530811530 0.1530811530 0.2551352549
-0.1020541020 0.2041082040 0.2041082040
-0.0510270510 0.2551352549 0.1530811530
0.0000000000 0.3061623059 0.1020541020
0.0510270510 0.3571893569 0.0510270510
0.1020541020 0.4082164079 0.0000000000
0.1530811530 0.4592434589 -0.0510270510
-0.3571893569 -0.1530811530 0.5612975609
-0.3061623059 -0.1020541020 0.5102705099
-0.2551352549 -0.0510270510 0.4592434589
-0.2041082040 0.0000000000 0.4082164079
-0.1530811530 0.0510270510 0.3571893569
-0.1020541020 0.1020541020 0.3061623059
-0.0510270510 0.1530811530 0.2551352549
0.0000000000 0.2041082040 0.2041082040
0.0510270510 0.2551352549 0.1530811530
0.1020541020 0.3061623059 0.1020541020
0.1530811530 0.3571893569 0.0510270510
0.2041082040 0.4082164079 0.0000000000
-0.3061623059 -0.2041082040 0.6123246119
-0.2551352549 -0.1530811530 0.5612975609
-0.2041082040 -0.1020541020 0.5102705099
-0.1530811530 -0.0510270510 0.4592434589
-0.1020541020 0.0000000000 0.4082164079
-0.0510270510 0.0510270510 0.3571893569
0.0000000000 0.1020541020 0.3061623059
0.0510270510 0.1530811530 0.2551352549
0.1020541020 0.2041082040 0.2041082040
0.1530811530 0.2551352549 0.1530811530
0.2041082040 0.3061623059 0.1020541020
0.2551352549 0.3571893569 0.0510270510
-0.2551352549 -0.2551352549 0.6633516628
-0.2041082040 -0.2041082040 0.6123246119
-0.1530811530 -0.1530811530 0.5612975609
-0.1020541020 -0.1020541020 0.5102705099
-0.0510270510 -0.0510270510 0.4592434589
0.0000000000 0.0000000000 0.4082164079
0.0510270510 0.0510270510 0.3571893569
0.1020541020 0.1020541020 0.3061623059
0.1530811530 0.1530811530 0.2551352549
0.2041082040 0.2041082040 0.2041082040
0.2551352549 0.2551352549 0.1530811530
0.3061623059 0.3061623059 0.1020541020
-0.2041082040 -0.3061623059 0.7143787138
-0.1530811530 -0.2551352549 0.6633516628
-0.1020541020 -0.2041082040 0.6123246119
-0.0510270510 -0.1530811530 0.5612975609
0.0000000000 -0.1020541020 0.5102705099
0.0510270510 -0.0510270510 0.4592434589
0.1020541020 0.0000000000 0.4082164079
0.1530811530 0.0510270510 0.3571893569
0.2041082040 0.1020541020 0.3061623059
0.2551352549 0.1530811530 0.2551352549
0.3061623059 0.2041082040 0.2041082040
0.3571893569 0.2551352549 0.1530811530
-0.1530811530 -0.3571893569 0.7654057648
-0.1020541020 -0.3061623059 0.7143787138
-0.0510270510 -0.2551352549 0.6633516628
0.0000000000 -0.2041082040 0.6123246119
0.0510270510 -0.1530811530 0.5612975609
0.1020541020 -0.1020541020 0.5102705099
0.1530811530 -0.0510270510 0.4592434589
0.2041082040 0.0000000000 0.4082164079
0.2551352549 0.0510270510 0.3571893569
0.3061623059 0.1020541020 0.3061623059
0.3571893569 0.1530811530 0.2551352549
0.4082164079 0.2041082040 0.2041082040
-0.7654057648 0.2551352549 0.2551352549
-0.7143787138 0.3061623059 0.2041082040
-0.6633516628 0.3571893569 0.1530811530
-0.6123246119 0.4082164079 0.1020541020
-0.5612975609 0.4592434589 0.0510270510
-0.5102705099 0.5102705099 -0.0000000000
-0.4592434589 0.5612975609 -0.0510270510
-0.4082164079 0.6123246119 -0.1020541020
-0.3571893569 0.6633516628 -0.1530811530
-0.3061623059 0.7143787138 -0.2041082040
-0.2551352549 0.7654057648 -0.2551352549
-0.2041082040 0.8164328158 -0.3061623059
-0.7143787138 0.2041082040 0.3061623059
-0.6633516628 0.2551352549 0.2551352549
-0.6123246119 0.3061623059 0.2041082040
-0.5612975609 0.3571893569 0.1530811530
-0.5102705099 0.4082164079 0.1020541020
-0.4592434589 0.4592434589 0.0510270510
-0.4082164079 0.5102705099 -0.0000000000
-0.3571893569 0.5612975609 -0.0510270510
-0.3061623059 0.6123246119 -0.1020541020
-0.2551352549 0.6633516628 -0.1530811530
-0.2041082040 0.7143787138 -0.2041082040
-0.1530811530 0.7654057648 -0.2551352549
-0.6633516628 0.1530811530 0.3571893569
-0.6123246119 0.2041082040 0.3061623059
-0.5612975609 0.2551352549 0.2551352549
-0.5102705099 0.3061623059 0.2041082040
-0.4592434589 0.3571893569 0.1530811530
-0.4082164079 0.4082164079 0.1020541020
-0.3571893569 0.4592434589 0.0510270510
-0.3061623059 0.5102705099 -0.0000000000
-0.2551352549 0.5612975609 -0.0510270510
-0.2041082040 0.6123246119 -0.1020541020
-0.1530811530 0.6633516628 -0.1530811530
-0.1020541020 0.7143787138 -0.2041082040
-0.6123246119 0.1020541020 0.4082164079
-0.5612975609 0.1530811530 0.3571893569
-0.5102705099 0.2041082040 0.3061623059
-0.4592434589 0.2551352549 0.2551352549
-0.4082164079 0.3061623059 0.2041082040
-0.3571893569 0.3571893569 0.1530811530
-0.3061623059 0.4082164079 0.1020541020
-0.2551352549 0.4592434589 0.0510270510
-0.2041082040 0.5102705099 -0.0000000000
-0.1530811530 0.5612975609 -0.0510270510
-0.1020541020 0.6123246119 -0.1020541020
-0.0510270510 0.6633516628 -0.1530811530
-0.5612975609 0.0510270510 0.4592434589
-0.5102705099 0.1020541020 0.4082164079
-0.4592434589 0.1530811530 0.3571893569
-0.4082164079 0.2041082040 0.3061623059
-0.3571893569 0.2551352549 0.2551352549
-0.3061623059 0.3061623059 0.2041082040
-0.2551352549 0.3571893569 0.1530811530
-0.2041082040 0.4082164079 0.1020541020
-0.1530811530 0.4592434589 0.0510270510
-0.1020541020 0.5102705099 -0.0000000000
-0.0510270510 0.5612975609 -0.0510270510
0.0000000000 0.6123246119 -0.1020541020
-0.5102705099 0.0000000000 0.5102705099
-0.4592434589 0.0510270510 0.4592434589
-0.4082164079 0.1020541020 0.4082164079
-0.3571893569 0.1530811530 0.3571893569
-0.3061623059 0.2041082040 0.3061623059
-0.2551352549 0.2551352549 0.2551352549
-0.2041082040 0.3061623059 0.2041082040
-0.1530811530 0.3571893569 0.1530811530
-0.1020541020 0.4082164079 0.1020541020
-0.0510270510 0.4592434589 0.0510270510
0.0000000000 0.5102705099 0.0000000000
0.0510270510 0.5612975609 -0.0510270510
-0.4592434589 -0.0510270510 0.5612975609
-0.4082164079 0.0000000000 0.5102705099
-0.3571893569 0.0510270510 0.4592434589
-0.3061623059 0.1020541020 0.4082164079
-0.2551352549 0.1530811530 0.3571893569
-0.2041082040 0.2041082040 0.3061623059
-0.1530811530 0.2551352549 0.2551352549
-0.1020541020 0.3061623059 0.2041082040
-0.0510270510 0.3571893569 0.1530811530
0.0000000000 0.4082164079 0.1020541020
0.0510270510 0.4592434589 0.0510270510
0.1020541020 0.5102705099 0.0000000000
-0.4082164079 -0.1020541020 0.6123246119
-0.3571893569 -0.0510270510 0.5612975609
-0.3061623059 0.0000000000 0.5102705099
-0.2551352549 0.0510270510 0.4592434589
-0.2041082040 0.1020541020 0.4082164079
-0.1530811530 0.1530811530 0.3571893569
-0.1020541020 0.2041082040 0.3061623059
-0.0510270510 0.2551352549 0.2551352549
0.0000000000 0.3061623059 0.2041082040
0.0510270510 0.3571893569 0.1530811530
0.1020541020 0.4082164079 0.1020541020
0.1530811530 0.4592434589 0.0510270510
-0.3571893569 -0.1530811530 0.6633516628
-0.3061623059 -0.1020541020 0.6123246119
-0.2551352549 -0.0510270510 0.5612975609
-0.2041082040 0.0000000000 0.5102705099
-0.1530811530 0.0510270510 0.4592434589
-0.1020541020 0.1020541020 0.4082164079
-0.0510270510 0.1530811530 0.3571893569
0.0000000000 0.2041082040 0.3061623059
0.0510270510 0.2551352549 0.2551352549
0.1020541020 0.3061623059 0.2041082040
0.1530811530 0.3571893569 0.1530811530
0.2041082040 0.4082164079 0.1020541020
-0.3061623059 -0.2041082040 0.7143787138
-0.2551352549 -0.1530811530 0.6633516628
-0.2041082040 -0.1020541020 0.6123246119
-0.1530811530 -0.0510270510 0.5612975609
-0.1020541020 0.0000000000 0.5102705099
-0.0510270510 0.0510270510 0.4592434589
0.0000000000 0.1020541020 0.4082164079
0.0510270510 0.1530811530 0.3571893569
0.1020541020 0.2041082040 0.3061623059
0.1530811530 0.2551352549 0.2551352549
0.2041082040 0.3061623059 0.2041082040
0.2551352549 0.3571893569 0.1530811530
-0.2551352549 -0.2551352549 0.7654057648
-0.2041082040 -0.2041082040 0.7143787138
-0.1530811530 -0.1530811530 0.6633516628
-0.1020541020 -0.1020541020 0.6123246119
-0.0510270510 -0.0510270510 0.5612975609
0.0000000000 0.0000000000 0.5102705099
0.0510270510 0.0510270510 0.4592434589
0.1020541020 0.1020541020 0.4082164079
0.1530811530 0.1530811530 0.3571893569
0.2041082040 0.2041082040 0.3061623059
0.2551352549 0.2551352549 0.2551352549
0.3061623059 0.3061623059 0.2041082040
-0.2041082040 -0.3061623059 0.8164328158
-0.1530811530 -0.2551352549 0.7654057648
-0.1020541020 -0.2041082040 0.7143787138
-0.0510270510 -0.1530811530 0.6633516628
0.0000000000 -0.1020541020 0.6123246119
0.0510270510 -0.0510270510 0.5612975609
0.1020541020 0.0000000000 0.5102705099
0.1530811530 0.0510270510 0.4592434589
0.2041082040 0.1020541020 0.4082164079
0.2551352549 0.1530811530 0.3571893569
0.3061623059 0.2041082040 0.3061623059
0.3571893569 0.2551352549 0.2551352549
-0.8164328158 0.3061623059 0.3061623059
-0.7654057648 0.3571893569 0.2551352549
-0.7143787138 0.4082164079 0.2041082040
-0.6633516628 0.4592434589 0.1530811530
-0.6123246119 0.5102705099 0.1020541020
-0.5612975609 0.5612975609 0.0510270510
-0.5102705099 0.6123246119 -0.0000000000
-0.4592434589 0.6633516628 -0.0510270510
-0.4082164079 0.7143787138 -0.1020541020
-0.3571893569 0.7654057648 -0.1530811530
-0.3061623059 0.8164328158 -0.2041082040
-0.2551352549 0.8674598668 -0.2551352549
-0.7654057648 0.2551352549 0.3571893569
-0.7143787138 0.3061623059 0.3061623059
-0.6633516628 0.3571893569 0.2551352549
-0.6123246119 0.4082164079 0.2041082040
-0.5612975609 0.4592434589 0.1530811530
-0.5102705099 0.5102705099 0.1020541020
-0.4592434589 0.5612975609 0.0510270510
-0.4082164079 0.6123246119 -0.0000000000
-0.3571893569 0.6633516628 -0.0510270510
-0.3061623059 0.7143787138 -0.1020541020
-0.2551352549 0.7654057648 -0.1530811530
-0.2041082040 0.8164328158 -0.2041082040
-0.7143787138 0.2041082040 0.4082164079
-0.6633516628 0.2551352549 0.3571893569
-0.6123246119 0.3061623059 0.3061623059
-0.5612975609 0.3571893569 0.2551352549
-0.5102705099 0.4082164079 0.2041082040
-0.4592434589 0.4592434589 0.1530811530
-0.4082164079 0.5102705099 0.1020541020
-0.3571893569 0.5612975609 0.0510270510
-0.3061623059 0.6123246119 -0.0000000000
-0.2551352549 0.6633516628 -0.0510270510
-0.2041082040 0.7143787138 -0.1020541020
-0.1530811530 0.7654057648 -0.1530811530
-0.6633516628 0.1530811530 0.4592434589
-0.6123246119 0.2041082040 0.4082164079
-0.5612975609 0.2551352549 0.3571893569
-0.5102705099 0.3061623059 0.3061623059
-0.4592434589 0.3571893569 0.2551352549
-0.4082164079 0.4082164079 0.2041082040
-0.3571893569 0.4592434589 0.1530811530
-0.3061623059 0.5102705099 0.1020541020
-0.2551352549 0.5612975609 0.0510270510
-0.2041082040 0.6123246119 -0.0000000000
-0.1530811530 0.6633516628 -0.0510270510
-0.1020541020 0.7143787138 -0.1020541020
-0.6123246119 0.1020541020 0.5102705099
-0.5612975609 0.1530811530 0.4592434589
-0.5102705099 0.2041082040 0.4082164079
-0.4592434589 0.2551352549 0.3571893569
-0.4082164079 0.3061623059 0.3061623059
-0.3571893569 0.3571893569 0.2551352549
-0.3061623059 0.4082164079 0.2041082040
-0.2551352549 0.4592434589 0.1530811530
-0.2041082040 0.5102705099 0.1020541020
-0.1530811530 0.5612975609 0.0510270510
-0.1020541020 0.6123246119 0.0000000000
-0.0510270510 0.6633516628 -0.0510270510
-0.5612975609 0.0510270510 0.5612975609
-0.5102705099 0.1020541020 0.5102705099
-0.4592434589 0.1530811530 0.4592434589
-0.4082164079 0.2041082040 0.4082164079
-0.3571893569 0.2551352549 0.3571893569
-0.3061623059 0.3061623059 0.3061623059
-0.2551352549 0.3571893569 0.2551352549
-0.2041082040 0.4082164079 0.2041082040
-0.1530811530 0.4592434589 0.1530811530
-0.1020541020 0.5102705099 0.1020541020
-0.0510270510 0.5612975609 0.0510270510
0.0000000000 0.6123246119 0.0000000000
-0.5102705099 0.0000000000 0.6123246119
-0.4592434589 0.0510270510 0.5612975609
-0.4082164079 0.1020541020 0.5102705099
-0.3571893569 0.1530811530 0.4592434589
-0.3061623059 0.2041082040 0.4082164079
-0.2551352549 0.2551352549 0.3571893569
-0.2041082040 0.3061623059 0.3061623059
-0.1530811530 0.3571893569 0.2551352549
-0.1020541020 0.4082164079 0.2041082040
-0.0510270510 0.4592434589 0.1530811530
0.0000000000 0.5102705099 0.1020541020
0.0510270510 0.5612975609 0.0510270510
-0.4592434589 -0.0510270510 0.6633516628
-0.4082164079 0.0000000000 0.6123246119
-0.3571893569 0.0510270510 0.5612975609
-0.3061623059 0.1020541020 0.5102705099
-0.2551352549 0.1530811530 0.4592434589
-0.2041082040 0.2041082040 0.4082164079
-0.1530811530 0.2551352549 0.3571893569
-0.1020541020 0.3061623059 0.3061623059
-0.0510270510 0.3571893569 0.2551352549
0.0000000000 0.4082164079 0.2041082040
0.0510270510 0.4592434589 0.1530811530
0.1020541020 0.5102705099 0.1020541020
-0.4082164079 -0.1020541020 0.7143787138
-0.3571893569 -0.0510270510 0.6633516628
-0.3061623059 0.0000000000 0.6123246119
-0.2551352549 0.0510270510 0.5612975609
-0.2041082040 0.1020541020 0.5102705099
-0.1530811530 0.1530811530 0.4592434589
-0.1020541020 0.2041082040 0.4082164079
-0.0510270510 0.2551352549 0.3571893569
0.0000000000 0.3061623059 0.3061623059
0.0510270510 0.3571893569 0.2551352549
0.1020541020 0.4082164079 0.2041082040
0.1530811530 0.4592434589 0.1530811530
-0.3571893569 -0.1530811530 0.7654057648
-0.3061623059 -0.1020541020 0.7143787138
-0.2551352549 -0.0510270510 0.6633516628
-0.2041082040 0.0000000000 0.6123246119
-0.1530811530 0.0510270510 0.5612975609
-0.1020541020 0.1020541020 0.5102705099
-0.0510270510 0.1530811530 0.4592434589
0.0000000000 0.2041082040 0.4082164079
0.0510270510 0.2551352549 0.3571893569
0.1020541020 0.3061623059 0.3061623059
0.1530811530 0.3571893569 0.2551352549
0.2041082040 0.4082164079 0.2041082040
-0.3061623059 -0.2041082040 0.8164328158
-0.2551352549 -0.1530811530 0.7654057648
-0.2041082040 -0.1020541020 0.7143787138
-0.1530811530 -0.0510270510 0.6633516628
-0.1020541020 0.0000000000 0.6123246119
-0.0510270510 0.0510270510 0.5612975609
0.0000000000 0.1020541020 0.5102705099
0.0510270510 0.1530811530 0.4592434589
0.1020541020 0.2041082040 0.4082164079
0.1530811530 0.2551352549 0.3571893569
0.2041082040 0.3061623059 0.3061623059
0.2551352549 0.3571893569 0.2551352549
-0.2551352549 -0.2551352549 0.8674598668
-0.2041082040 -0.2041082040 0.8164328158
-0.1530811530 -0.1530811530 0.7654057648
-0.1020541020 -0.1020541020 0.7143787138
-0.0510270510 -0.0510270510 0.6633516628
0.0000000000 0.0000000000 0.6123246119
0.0510270510 0.0510270510 0.5612975609
0.1020541020 0.1020541020 0.5102705099
0.1530811530 0.1530811530 0.4592434589
0.2041082040 0.2041082040 0.4082164079
0.2551352549 0.2551352549 0.3571893569
0.3061623059 0.3061623059 0.3061623059
 There are 14 alpha and 14 beta electrons
 Start computing overlap matrix
 Allocate 35831808 B from available memory: 1048575740896 B
 Time for computing overlap matrix: 1.6690000000 s
 ====== Initialize compute kernels for all-electron RI-J (kpts) ====== 
 ========================================================== 
 Range-separated parameter omega        = 0.599999999999999978
 Threshold for 1e2c shellpair           = 0.000000000000010000
 Threshold for 2e2c SR integral         = 0.000000000000000001
 Threshold for 2e3c SR integral         = 0.000000000100000000
 Threshold for AFT G-space screening is = 0.000000000001000000
 The exponent cutoff for C/D classification (omega2 / 2) is  = 0.179999999999999993
 ========================================================== 
 === Post process the basis set for RI calculation (exp_cutoff = 0.179999999999999993 ) === 
nshells_b1 before uncontraction = 16
nshells_b1 after uncontraction = 16
nshells_baux before uncontraction = 74
nshells_baux after uncontraction = 74
===============================================
nbsf total   = 36
nbsf compact = 28
nbsf diffuse = 8
naux total   = 242
naux compact = 242
naux diffuse = 0
nshells_bnuc = 2

 Number of unique atoms is 1
 Unique atom #0 (si) has 6 shells.

Shell 0 to 5 belongs to atom si
[...]
 1.33571 1.39963 1.43292 1.60932 1.95775 2.27457
 == 1677-th k-point (0.00000,0.40822,0.20411) occupation: 14==
 -64.99649 -64.99648 -4.62610 -4.62605 -3.03773 -3.03772 -3.03750 -3.03718 -3.03699 -3.03696
 -0.08023 0.06836 0.14412 0.19171 0.38798 0.42502 0.44004 0.54898 0.64559 0.66574
 0.78486 0.83169 0.84987 0.88600 1.00153 1.03559 1.06401 1.10577 1.21403 1.22840
 1.31855 1.36717 1.42121 1.55290 2.04905 2.07286
 == 1678-th k-point (0.05103,0.45924,0.15308) occupation: 14==
 -64.99649 -64.99648 -4.62611 -4.62606 -3.03773 -3.03772 -3.03746 -3.03721 -3.03697 -3.03696
 -0.06851 0.05437 0.14940 0.17901 0.34597 0.39594 0.49917 0.56911 0.67780 0.69880
 0.77220 0.78661 0.87106 0.90278 0.98282 1.03042 1.07366 1.10430 1.16491 1.23884
 1.30361 1.32473 1.39387 1.52004 1.87424 2.23744
 == 1679-th k-point (0.10205,0.51027,0.10205) occupation: 14==
 -64.99649 -64.99648 -4.62611 -4.62607 -3.03773 -3.03773 -3.03743 -3.03725 -3.03697 -3.03695
 -0.05161 0.03427 0.14173 0.18149 0.32136 0.38425 0.56388 0.56529 0.68674 0.70819
 0.76709 0.77551 0.88441 0.93275 0.93946 1.02836 1.09257 1.11813 1.13908 1.24914
 1.26365 1.28296 1.38314 1.51630 1.77748 2.31709
 == 1680-th k-point (-0.40822,-0.10205,0.71438) occupation: 14==
 -64.99649 -64.99648 -4.62610 -4.62607 -3.03774 -3.03772 -3.03744 -3.03724 -3.03697 -3.03695
 -0.04671 0.02786 0.13003 0.17927 0.35206 0.44549 0.48725 0.56514 0.61021 0.70923
 0.76575 0.84197 0.89417 0.92836 0.99484 1.02221 1.06818 1.08078 1.15197 1.20197
 1.27549 1.30464 1.41433 1.53353 1.78316 2.24241
 == 1681-th k-point (-0.35719,-0.05103,0.66335) occupation: 14==
 -64.99649 -64.99648 -4.62610 -4.62609 -3.03775 -3.03774 -3.03739 -3.03728 -3.03696 -3.03695
 -0.02640 0.01277 0.12492 0.15397 0.39539 0.44478 0.47291 0.52694 0.63532 0.71122
 0.77424 0.84776 0.91472 0.96267 0.99288 1.03116 1.05604 1.06609 1.12519 1.13084
 1.25198 1.28172 1.44371 1.47798 1.83010 1.94683
 == 1682-th k-point (-0.30616,0.00000,0.61232) occupation: 14==
 -64.99648 -64.99648 -4.62610 -4.62610 -3.03775 -3.03775 -3.03733 -3.03733 -3.03695 -3.03695
 -0.00575 -0.00575 0.13354 0.13354 0.44464 0.44464 0.46777 0.46777 0.68649 0.68649
 0.80144 0.80144 0.95762 0.95762 1.03023 1.03023 1.06384 1.06384 1.08284 1.08284
 1.25999 1.25999 1.46273 1.46273 1.84722 1.84722
 == 1683-th k-point (-0.25514,0.05103,0.56130) occupation: 14==
 -64.99649 -64.99648 -4.62610 -4.62609 -3.03775 -3.03774 -3.03739 -3.03728 -3.03696 -3.03695
 -0.02640 0.01277 0.12492 0.15397 0.39539 0.44478 0.47291 0.52694 0.63532 0.71122
 0.77424 0.84776 0.91472 0.96267 0.99288 1.03116 1.05604 1.06609 1.12519 1.13084
 1.25198 1.28172 1.44371 1.47798 1.83010 1.94683
 == 1684-th k-point (-0.20411,0.10205,0.51027) occupation: 14==
 -64.99649 -64.99648 -4.62610 -4.62607 -3.03774 -3.03772 -3.03744 -3.03724 -3.03697 -3.03695
 -0.04671 0.02786 0.13003 0.17927 0.35206 0.44549 0.48725 0.56514 0.61021 0.70923
 0.76575 0.84197 0.89417 0.92836 0.99484 1.02221 1.06818 1.08078 1.15197 1.20197
 1.27549 1.30464 1.41433 1.53353 1.78316 2.24241
 == 1685-th k-point (-0.15308,0.15308,0.45924) occupation: 14==
 -64.99649 -64.99648 -4.62610 -4.62606 -3.03773 -3.03772 -3.03748 -3.03720 -3.03697 -3.03696
 -0.06442 0.04082 0.14560 0.19463 0.33853 0.45136 0.49679 0.50722 0.67479 0.70400
 0.76691 0.77385 0.86218 0.93959 1.00748 1.02403 1.07489 1.11431 1.13678 1.24257
 1.32332 1.33088 1.39245 1.61849 1.70388 2.48215
 == 1686-th k-point (-0.10205,0.20411,0.40822) occupation: 14==
 -64.99649 -64.99648 -4.62609 -4.62605 -3.03773 -3.03772 -3.03751 -3.03717 -3.03698 -3.03696
 -0.07795 0.05399 0.15721 0.19782 0.36568 0.44099 0.46397 0.51054 0.66785 0.68520
 0.77174 0.78102 0.85104 0.91013 0.99979 1.05491 1.06957 1.13067 1.16153 1.24973
 1.33978 1.37230 1.41166 1.58971 1.79964 2.45537
 == 1687-th k-point (-0.05103,0.25514,0.35719) occupation: 14==
 -64.99649 -64.99648 -4.62608 -4.62605 -3.03771 -3.03771 -3.03753 -3.03715 -3.03700 -3.03696
 -0.08637 0.06732 0.14631 0.21557 0.39328 0.41741 0.48229 0.50477 0.61081 0.66037
 0.78307 0.81269 0.85527 0.90854 0.99094 1.03047 1.05479 1.14698 1.21822 1.28226
 1.33571 1.39963 1.43292 1.60932 1.95775 2.27457
 == 1688-th k-point (0.00000,0.30616,0.30616) occupation: 14==
 -64.99649 -64.99648 -4.62607 -4.62605 -3.03771 -3.03770 -3.03754 -3.03715 -3.03700 -3.03696
 -0.08922 0.07436 0.13734 0.22770 0.37341 0.45943 0.47806 0.50926 0.56590 0.65916
 0.78503 0.81596 0.84824 0.95235 0.97490 1.01773 1.02960 1.15184 1.24820 1.31209
 1.33286 1.41937 1.42247 1.65226 2.07194 2.17520
 == 1689-th k-point (0.05103,0.35719,0.25514) occupation: 14==
 -64.99649 -64.99648 -4.62608 -4.62605 -3.03771 -3.03771 -3.03753 -3.03715 -3.03700 -3.03696
 -0.08637 0.06732 0.14631 0.21557 0.39328 0.41741 0.48229 0.50477 0.61081 0.66037
 0.78307 0.81269 0.85527 0.90854 0.99094 1.03047 1.05479 1.14698 1.21822 1.28226
 1.33571 1.39963 1.43292 1.60932 1.95775 2.27457
 == 1690-th k-point (0.10205,0.40822,0.20411) occupation: 14==
 -64.99649 -64.99648 -4.62609 -4.62605 -3.03773 -3.03772 -3.03751 -3.03717 -3.03698 -3.03696
 -0.07795 0.05399 0.15721 0.19782 0.36568 0.44099 0.46397 0.51054 0.66785 0.68520
 0.77174 0.78102 0.85104 0.91013 0.99979 1.05491 1.06957 1.13067 1.16153 1.24973
 1.33978 1.37230 1.41166 1.58971 1.79964 2.45537
 == 1691-th k-point (0.15308,0.45924,0.15308) occupation: 14==
 -64.99649 -64.99648 -4.62610 -4.62606 -3.03773 -3.03772 -3.03748 -3.03720 -3.03697 -3.03696
 -0.06442 0.04082 0.14560 0.19463 0.33853 0.45136 0.49679 0.50722 0.67479 0.70400
 0.76691 0.77385 0.86218 0.93959 1.00748 1.02403 1.07489 1.11431 1.13678 1.24257
 1.32332 1.33088 1.39245 1.61849 1.70388 2.48215
 == 1692-th k-point (-0.35719,-0.15308,0.76541) occupation: 14==
 -64.99649 -64.99648 -4.62608 -4.62606 -3.03773 -3.03771 -3.03749 -3.03720 -3.03698 -3.03696
 -0.05956 0.02771 0.14807 0.19707 0.37056 0.43014 0.50478 0.52285 0.60277 0.70622
 0.75784 0.82293 0.85665 0.93201 0.99318 1.04959 1.08047 1.10786 1.16591 1.20585
 1.33458 1.36458 1.41981 1.58516 1.79320 2.41599
 == 1693-th k-point (-0.30616,-0.10205,0.71438) occupation: 14==
 -64.99649 -64.99648 -4.62609 -4.62608 -3.03773 -3.03773 -3.03744 -3.03724 -3.03697 -3.03695
 -0.04384 0.02386 0.12780 0.17419 0.40893 0.41458 0.51612 0.52594 0.57244 0.71615
 0.76268 0.85323 0.92313 0.95553 0.95576 1.02777 1.05867 1.10562 1.12166 1.18072
 1.27461 1.32429 1.44297 1.53022 1.83381 2.06907
 == 1694-th k-point (-0.25514,-0.05103,0.66335) occupation: 14==
 -64.99649 -64.99648 -4.62610 -4.62609 -3.03775 -3.03774 -3.03739 -3.03728 -3.03696 -3.03695
 -0.02640 0.01277 0.12492 0.15397 0.39539 0.44478 0.47291 0.52694 0.63532 0.71122
 0.77424 0.84776 0.91472 0.96267 0.99288 1.03116 1.05604 1.06609 1.12519 1.13084
 1.25198 1.28172 1.44371 1.47798 1.83010 1.94683
 == 1695-th k-point (-0.20411,0.00000,0.61232) occupation: 14==
 -64.99648 -64.99648 -4.62610 -4.62610 -3.03774 -3.03774 -3.03734 -3.03734 -3.03695 -3.03695
 -0.00744 -0.00744 0.14123 0.14123 0.38495 0.38495 0.53723 0.53723 0.68766 0.68766
 0.79518 0.79518 0.93230 0.93230 0.99685 0.99685 1.08997 1.08997 1.12972 1.12972
 1.25324 1.25324 1.43310 1.43310 1.91339 1.91339
 == 1696-th k-point (-0.15308,0.05103,0.56130) occupation: 14==
 -64.99649 -64.99648 -4.62610 -4.62609 -3.03774 -3.03773 -3.03739 -3.03729 -3.03696 -3.03695
 -0.03050 0.01301 0.13721 0.16615 0.33825 0.38106 0.55115 0.60373 0.64448 0.70827
 0.76996 0.83031 0.86456 0.92399 0.96845 1.02547 1.09067 1.12618 1.13258 1.18574
 1.25249 1.26056 1.39992 1.45281 1.85211 2.12480
 == 1697-th k-point (-0.10205,0.10205,0.51027) occupation: 14==
 -64.99649 -64.99648 -4.62611 -4.62607 -3.03773 -3.03773 -3.03743 -3.03725 -3.03697 -3.03695
 -0.05161 0.03427 0.14173 0.18149 0.32136 0.38425 0.56388 0.56529 0.68674 0.70819
 0.76709 0.77551 0.88441 0.93275 0.93946 1.02836 1.09257 1.11813 1.13908 1.24914
 1.26365 1.28296 1.38314 1.51630 1.77747 2.31709
 == 1698-th k-point (-0.05103,0.15308,0.45924) occupation: 14==
 -64.99649 -64.99648 -4.62611 -4.62606 -3.03773 -3.03772 -3.03746 -3.03721 -3.03697 -3.03696
 -0.06851 0.05437 0.14940 0.17901 0.34597 0.39594 0.49917 0.56911 0.67780 0.69880
 0.77220 0.78661 0.87106 0.90278 0.98282 1.03042 1.07366 1.10430 1.16491 1.23884
 1.30361 1.32473 1.39387 1.52004 1.87424 2.23744
 == 1699-th k-point (0.00000,0.20411,0.40822) occupation: 14==
 -64.99649 -64.99648 -4.62610 -4.62605 -3.03773 -3.03772 -3.03750 -3.03718 -3.03699 -3.03696
 -0.08023 0.06836 0.14412 0.19171 0.38798 0.42502 0.44004 0.54898 0.64559 0.66574
 0.78486 0.83169 0.84987 0.88600 1.00153 1.03559 1.06401 1.10577 1.21403 1.22840
 1.31855 1.36717 1.42121 1.55290 2.04905 2.07286
 == 1700-th k-point (0.05103,0.25514,0.35719) occupation: 14==
 -64.99649 -64.99648 -4.62608 -4.62605 -3.03771 -3.03771 -3.03753 -3.03715 -3.03700 -3.03696
 -0.08637 0.06732 0.14631 0.21557 0.39328 0.41741 0.48229 0.50477 0.61081 0.66037
 0.78307 0.81269 0.85527 0.90854 0.99094 1.03047 1.05479 1.14698 1.21822 1.28226
 1.33571 1.39963 1.43292 1.60932 1.95775 2.27457
 == 1701-th k-point (0.10205,0.30616,0.30616) occupation: 14==
 -64.99649 -64.99648 -4.62606 -4.62604 -3.03771 -3.03771 -3.03755 -3.03714 -3.03700 -3.03697
 -0.08693 0.05456 0.16377 0.22875 0.37309 0.43730 0.44202 0.55596 0.59356 0.65739
 0.77393 0.79948 0.85720 0.90870 0.94289 1.07103 1.08829 1.16498 1.19887 1.30982
 1.35599 1.41293 1.43740 1.59245 1.87649 2.43015
 == 1702-th k-point (0.15308,0.35719,0.25514) occupation: 14==
 -64.99649 -64.99648 -4.62606 -4.62604 -3.03772 -3.03771 -3.03754 -3.03714 -3.03699 -3.03697
 -0.08217 0.04134 0.18185 0.21908 0.37822 0.40301 0.45380 0.54346 0.65670 0.66667
 0.76179 0.78199 0.82213 0.89701 0.96489 1.10710 1.11158 1.15320 1.17662 1.25833
 1.37223 1.40598 1.44404 1.57852 1.75366 2.57430
 == 1703-th k-point (0.20411,0.40822,0.20411) occupation: 14==
 -64.99649 -64.99648 -4.62607 -4.62605 -3.03772 -3.03772 -3.03752 -3.03716 -3.03698 -3.03697
 -0.07272 0.03227 0.17393 0.21068 0.35797 0.43624 0.45770 0.52749 0.66249 0.70303
 0.75934 0.76822 0.81319 0.91415 0.98978 1.09902 1.10621 1.11883 1.17539 1.22387
 1.38382 1.38692 1.40891 1.63044 1.69245 2.59471
 == 1704-th k-point (-0.30616,-0.20411,0.81643) occupation: 14==
 -64.99649 -64.99648 -4.62606 -4.62606 -3.03772 -3.03771 -3.03753 -3.03716 -3.03698 -3.03697
 -0.06965 0.02280 0.18052 0.21555 0.37729 0.39991 0.45236 0.58976 0.61040 0.69800
 0.74851 0.79832 0.83761 0.84346 1.04138 1.04558 1.12593 1.16640 1.16897 1.21965
 1.39915 1.39935 1.41907 1.56623 1.73404 2.59335
 == 1705-th k-point (-0.25514,-0.15308,0.76541) occupation: 14==
 -64.99649 -64.99648 -4.62608 -4.62606 -3.03773 -3.03771 -3.03749 -3.03720 -3.03698 -3.03696
 -0.05956 0.02771 0.14807 0.19707 0.37056 0.43014 0.50478 0.52285 0.60277 0.70622
 0.75784 0.82293 0.85665 0.93201 0.99318 1.04959 1.08047 1.10786 1.16591 1.20585
 1.33458 1.36458 1.41981 1.58516 1.79320 2.41599
 == 1706-th k-point (-0.20411,-0.10205,0.71438) occupation: 14==
 -64.99649 -64.99648 -4.62610 -4.62607 -3.03774 -3.03772 -3.03744 -3.03724 -3.03697 -3.03695
 -0.04671 0.02786 0.13003 0.17927 0.35206 0.44549 0.48725 0.56514 0.61021 0.70923
 0.76575 0.84197 0.89417 0.92836 0.99484 1.02221 1.06818 1.08078 1.15197 1.20197
 1.27549 1.30464 1.41433 1.53353 1.78316 2.24241
 == 1707-th k-point (-0.15308,-0.05103,0.66335) occupation: 14==
 -64.99649 -64.99648 -4.62610 -4.62609 -3.03774 -3.03773 -3.03739 -3.03729 -3.03696 -3.03695
 -0.03050 0.01301 0.13721 0.16615 0.33825 0.38106 0.55115 0.60373 0.64448 0.70827
 0.76996 0.83031 0.86456 0.92399 0.96845 1.02547 1.09067 1.12618 1.13258 1.18574
 1.25249 1.26056 1.39992 1.45281 1.85211 2.12480
 == 1708-th k-point (-0.10205,0.00000,0.61232) occupation: 14==
 -64.99648 -64.99648 -4.62610 -4.62610 -3.03773 -3.03773 -3.03734 -3.03734 -3.03695 -3.03695
 -0.01056 -0.01056 0.15910 0.15910 0.33121 0.33121 0.61769 0.61769 0.69507 0.69507
 0.78419 0.78419 0.84571 0.84571 1.02370 1.02370 1.11960 1.11960 1.17505 1.17505
 1.24410 1.24410 1.40386 1.40386 1.98414 1.98414
 == 1709-th k-point (-0.05103,0.05103,0.56130) occupation: 14==
 -64.99648 -64.99648 -4.62611 -4.62609 -3.03773 -3.03773 -3.03738 -3.03730 -3.03696 -3.03696
 -0.03401 0.01264 0.15850 0.17311 0.31051 0.33218 0.62401 0.62675 0.70213 0.71611
 0.76591 0.77495 0.82183 0.84738 1.01009 1.03547 1.11082 1.12177 1.18087 1.21209
 1.23731 1.26692 1.39118 1.44612 1.86348 2.08810
 == 1710-th k-point (0.00000,0.10205,0.51027) occupation: 14==
 -64.99648 -64.99648 -4.62611 -4.62607 -3.03774 -3.03773 -3.03742 -3.03726 -3.03696 -3.03696
 -0.05375 0.03675 0.16049 0.16778 0.32672 0.34756 0.56371 0.61417 0.69461 0.71599
 0.75834 0.78997 0.82515 0.91217 0.96645 1.02490 1.09095 1.10785 1.18751 1.21649
 1.28022 1.28523 1.38818 1.45936 1.99975 2.00912
 == 1711-th k-point (0.05103,0.15308,0.45924) occupation: 14==
 -64.99649 -64.99648 -4.62611 -4.62606 -3.03773 -3.03772 -3.03746 -3.03721 -3.03697 -3.03696
 -0.06851 0.05437 0.14940 0.17901 0.34597 0.39594 0.49917 0.56911 0.67780 0.69880
 0.77220 0.78661 0.87106 0.90278 0.98282 1.03042 1.07366 1.10430 1.16491 1.23884
 1.30361 1.32473 1.39387 1.52004 1.87424 2.23744
 == 1712-th k-point (0.10205,0.20411,0.40822) occupation: 14==
 -64.99649 -64.99648 -4.62609 -4.62605 -3.03773 -3.03772 -3.03751 -3.03717 -3.03698 -3.03696
 -0.07795 0.05399 0.15721 0.19782 0.36568 0.44099 0.46397 0.51054 0.66785 0.68520
 0.77174 0.78102 0.85104 0.91013 0.99979 1.05491 1.06957 1.13067 1.16153 1.24973
 1.33978 1.37230 1.41166 1.58971 1.79964 2.45537
 == 1713-th k-point (0.15308,0.25514,0.35719) occupation: 14==
 -64.99649 -64.99648 -4.62606 -4.62604 -3.03772 -3.03771 -3.03754 -3.03714 -3.03699 -3.03697
 -0.08217 0.04134 0.18185 0.21908 0.37822 0.40301 0.45380 0.54346 0.65670 0.66667
 0.76179 0.78199 0.82213 0.89701 0.96489 1.10710 1.11158 1.15320 1.17662 1.25833
 1.37223 1.40598 1.44404 1.57852 1.75366 2.57430
 == 1714-th k-point (0.20411,0.30616,0.30616) occupation: 14==
 -64.99649 -64.99648 -4.62606 -4.62605 -3.03771 -3.03771 -3.03755 -3.03712 -3.03699 -3.03698
 -0.08166 0.02907 0.20725 0.23098 0.35794 0.41006 0.41820 0.59917 0.65175 0.66351
 0.75290 0.77206 0.81730 0.82167 0.98924 1.11935 1.15242 1.15809 1.20087 1.26522
 1.34844 1.44032 1.46740 1.52652 1.62702 2.60934
 == 1715-th k-point (0.25514,0.35719,0.25514) occupation: 14==
 -64.99649 -64.99648 -4.62607 -4.62605 -3.03772 -3.03771 -3.03755 -3.03713 -3.03698 -3.03698
 -0.07718 0.02245 0.21082 0.22558 0.35697 0.40564 0.42233 0.59340 0.65659 0.70398
 0.74016 0.76182 0.78884 0.82824 1.01968 1.08363 1.16518 1.16833 1.21669 1.22062
 1.35942 1.43976 1.45818 1.55795 1.58206 2.62293
 == 1716-th k-point (-0.25514,-0.25514,0.86746) occupation: 14==
 -64.99649 -64.99648 -4.62607 -4.62605 -3.03772 -3.03771 -3.03755 -3.03713 -3.03698 -3.03698
 -0.07718 0.02245 0.21082 0.22558 0.35697 0.40564 0.42233 0.59340 0.65659 0.70398
 0.74016 0.76182 0.78884 0.82824 1.01968 1.08363 1.16518 1.16833 1.21669 1.22062
 1.35942 1.43976 1.45818 1.55795 1.58206 2.62293
 == 1717-th k-point (-0.20411,-0.20411,0.81643) occupation: 14==
 -64.99649 -64.99648 -4.62607 -4.62605 -3.03772 -3.03772 -3.03752 -3.03716 -3.03698 -3.03697
 -0.07272 0.03227 0.17393 0.21068 0.35797 0.43624 0.45770 0.52749 0.66249 0.70303
 0.75934 0.76822 0.81319 0.91415 0.98978 1.09902 1.10621 1.11883 1.17539 1.22387
 1.38382 1.38692 1.40891 1.63044 1.69245 2.59471
 == 1718-th k-point (-0.15308,-0.15308,0.76541) occupation: 14==
 -64.99649 -64.99648 -4.62610 -4.62606 -3.03773 -3.03772 -3.03748 -3.03720 -3.03697 -3.03696
 -0.06442 0.04082 0.14560 0.19463 0.33853 0.45136 0.49679 0.50722 0.67479 0.70400
 0.76691 0.77385 0.86218 0.93959 1.00748 1.02403 1.07489 1.11431 1.13678 1.24257
 1.32332 1.33088 1.39245 1.61849 1.70388 2.48215
 == 1719-th k-point (-0.10205,-0.10205,0.71438) occupation: 14==
 -64.99649 -64.99648 -4.62611 -4.62607 -3.03773 -3.03773 -3.03743 -3.03725 -3.03697 -3.03695
 -0.05161 0.03427 0.14173 0.18149 0.32136 0.38425 0.56388 0.56529 0.68674 0.70819
 0.76709 0.77551 0.88441 0.93275 0.93946 1.02836 1.09257 1.11813 1.13908 1.24914
 1.26365 1.28296 1.38314 1.51630 1.77748 2.31709
 == 1720-th k-point (-0.05103,-0.05103,0.66335) occupation: 14==
 -64.99648 -64.99648 -4.62611 -4.62609 -3.03773 -3.03773 -3.03738 -3.03730 -3.03696 -3.03696
 -0.03401 0.01264 0.15850 0.17311 0.31051 0.33218 0.62401 0.62675 0.70213 0.71611
 0.76591 0.77495 0.82183 0.84738 1.01009 1.03547 1.11082 1.12177 1.18087 1.21209
 1.23731 1.26692 1.39118 1.44612 1.86348 2.08809
 == 1721-th k-point (0.00000,0.00000,0.61232) occupation: 14==
 -64.99648 -64.99648 -4.62610 -4.62610 -3.03773 -3.03773 -3.03734 -3.03734 -3.03696 -3.03696
 -0.01201 -0.01201 0.17024 0.17024 0.30837 0.30837 0.65512 0.65512 0.72443 0.72443
 0.77087 0.77087 0.78824 0.78824 1.03915 1.03915 1.13301 1.13301 1.18510 1.18510
 1.25032 1.25032 1.42278 1.42278 1.91996 1.91997
 == 1722-th k-point (0.05103,0.05103,0.56130) occupation: 14==
 -64.99648 -64.99648 -4.62611 -4.62609 -3.03773 -3.03773 -3.03738 -3.03730 -3.03696 -3.03696
 -0.03401 0.01264 0.15850 0.17311 0.31051 0.33218 0.62401 0.62675 0.70213 0.71611
 0.76591 0.77495 0.82183 0.84738 1.01009 1.03547 1.11082 1.12177 1.18087 1.21209
 1.23731 1.26692 1.39118 1.44612 1.86348 2.08809
 == 1723-th k-point (0.10205,0.10205,0.51027) occupation: 14==
 -64.99649 -64.99648 -4.62611 -4.62607 -3.03773 -3.03773 -3.03743 -3.03725 -3.03697 -3.03695
 -0.05161 0.03427 0.14173 0.18149 0.32136 0.38425 0.56388 0.56529 0.68674 0.70819
 0.76709 0.77551 0.88441 0.93275 0.93946 1.02836 1.09257 1.11813 1.13908 1.24914
 1.26365 1.28296 1.38314 1.51630 1.77748 2.31709
 == 1724-th k-point (0.15308,0.15308,0.45924) occupation: 14==
 -64.99649 -64.99648 -4.62610 -4.62606 -3.03773 -3.03772 -3.03748 -3.03720 -3.03697 -3.03696
 -0.06442 0.04082 0.14560 0.19463 0.33853 0.45136 0.49679 0.50722 0.67479 0.70400
 0.76691 0.77385 0.86218 0.93959 1.00748 1.02403 1.07489 1.11431 1.13678 1.24257
 1.32332 1.33088 1.39245 1.61849 1.70388 2.48215
 == 1725-th k-point (0.20411,0.20411,0.40822) occupation: 14==
 -64.99649 -64.99648 -4.62607 -4.62605 -3.03772 -3.03772 -3.03752 -3.03716 -3.03698 -3.03697
 -0.07272 0.03227 0.17393 0.21068 0.35797 0.43624 0.45770 0.52749 0.66249 0.70303
 0.75934 0.76822 0.81319 0.91415 0.98978 1.09902 1.10621 1.11883 1.17539 1.22387
 1.38382 1.38692 1.40891 1.63044 1.69245 2.59471
 == 1726-th k-point (0.25514,0.25514,0.35719) occupation: 14==
 -64.99649 -64.99648 -4.62607 -4.62605 -3.03772 -3.03771 -3.03755 -3.03713 -3.03698 -3.03698
 -0.07718 0.02245 0.21082 0.22558 0.35697 0.40564 0.42233 0.59340 0.65659 0.70398
 0.74016 0.76182 0.78884 0.82824 1.01968 1.08363 1.16518 1.16833 1.21669 1.22062
 1.35942 1.43976 1.45818 1.55795 1.58206 2.62293
 == 1727-th k-point (0.30616,0.30616,0.30616) occupation: 14==
 -64.99649 -64.99648 -4.62608 -4.62605 -3.03771 -3.03771 -3.03756 -3.03711 -3.03699 -3.03699
 -0.07855 0.01858 0.23215 0.23215 0.33793 0.40889 0.40889 0.59943 0.70471 0.70471
 0.71567 0.75898 0.75898 0.79156 1.04845 1.05839 1.18861 1.18861 1.23358 1.23358
 1.31255 1.48630 1.48630 1.50291 1.50291 2.61657
 ---------------------------------------------------------------------------
 VBM is at 785-th k-point with 7.58557 eV
 CBM is at 1565-th k-point with 8.23050 eV
 Band gap is 0.64493 eV


           Ground-State Mulliken Net Atomic Charges

      Atom                 Charge (a.u.)          Spin (a.u.)
   --------------------------------------------------------
      1 Si              (-0.000000,-0.000000)    (0.000000,0.000000)
      2 Si                (0.000000,0.000000)    (0.000000,0.000000)
   --------------------------------------------------------
  Sum of atomic charges =     (-0.000000,-0.000000)
  Sum of spin   charges =       (0.000000,0.000000)



 Total job time:  157.78 s.
 Tue Sep  9 11:35:33 2025


        *************************************************************
        *                                                           *
        *  Thank you very much for using QCPBC. Have a nice day.    *
        *                                                           *
        *************************************************************

Running job 1 of 1
