                  Welcome to Q-Chem
           with Periodic Boundary Condition
     A Quantum Leap Into The Future Of Chemistry

 Adam Rettig, Xintian Feng, Meng-Fu Chen, Hieu Dinh, Stephen Quiton,
 Anton Ni, Paul J. Robinson, Jinghong Zhang, Joonho Lee

Contributors to earlier versions of Q-Chem not listed above:
 Evgeny Epifanovsky, Leo Cunha, Jerome F. Gonthier, Kuan-Yu Liu
 Input file: /n/netscratch/joonholee_lab/Lab/hieudinh//si_2_ccpvdz_omega_0.6_777.scratch20250909110441/si_2_ccpvdz_omega_0.6_777.0
 Scratch folder: /n/netscratch/joonholee_lab/Lab/hieudinh//si_2_ccpvdz_omega_0.6_777.scratch20250909110441
 Auxillary files located at: /n/holylabs/LABS/joonholee_lab/Lab/qchem_base/qcaux
 Q-Chem begins on Tue Sep  9 11:04:42 2025

 -------------------------------------------------------------
 User input:
 -------------------------------------------------------------
 $lattice
 3
 0.000000 5.130600 5.130600
 5.130600 0.000000 5.130600
 5.130600 5.130600 0.000000
 $end
 
 $unitcell
 ABSOLUTE
 0 1
 Si 0.000000 0.000000 0.000000
 Si 2.565300 2.565300 2.565300
 $end
 
 $rem
 jobtype = sp
 method = pbe
 scf_convergence = 5
 scf_guess = autosad
 scf_algorithm = diis_gdm
 basis = cc-pvdz
 aux_basis = cc-pvtz-jk
 input_bohr = true
 symmetry = false
 rsdf_print_level 1
 is_basis_uctr true
 
 mp_mesh = [7,7,7]
 
 integral_direct true
 bvk_cgto true
 
 thresh 14
 mem_total 1000000
 threads 32
 
 MAX_SCF_CYCLES 500
 madelung = false
 omega 0.6
 do_rij_bigmem true
 automate_g true
 print_level 10
 grid_type_xc 1
 
 thresh_1e2c_sp 1e-14
 thresh_2e3c_bra_ket_sep 1e-10
 thresh_g 1e-12
 $end
 
 -------------------------------------------------------------
 Running PBC job

 Requested Exchange Correlation Functionals: 
  DFT Exchange:  1.00000 pbe_x
  DFT Correlation:  1.00000 pbe_c
 using 32 threads for computing.
 ---------------------------------------------------------------
      Coordinates of Atoms in Central Unit Cell (Angstroms)
    I     Atom         X            Y            Z
 ---------------------------------------------------------------
    1      Si      0.000000     0.000000     0.000000
    2      Si      1.357498     1.357498     1.357498
 ---------------------------------------------------------------
 --------------------------------------------------
              Lattice Vectors (Angstroms)
              X            Y            Z
 --------------------------------------------------
   X       0.000000     2.714997     2.714997
   Y       2.714997     0.000000     2.714997
   Z       2.714997     2.714997     0.000000
 --------------------------------------------------
 --------------------------------------------------
       Reciprocal Lattice Vectors (Angstroms^-1)
              X            Y            Z
 --------------------------------------------------
   X      -1.157126     1.157126     1.157126
   Y       1.157126    -1.157126     1.157126
   Z       1.157126     1.157126    -1.157126
 --------------------------------------------------

 Single point calculation requested

 Hamiltonian contributions:
 List of terms in Hamiltonian: kpts_nn, kpts_kinetic, kpts_vnuc_df, kpts_xc, kpts_rij_bigmem

 K-Points calculation started.

 Basis set information about using solid harmonic (1) or Cartesian (0):
  si : D(1) 

 Basis set information about using solid harmonic (1) or Cartesian (0):
  si : D(1) D(1) D(1) D(1) D(1) D(1) D(1) D(1) D(1) F(1) F(1) F(1) G(1) 

 There are 36 basis functions in the central unit cell.
 Print atomic basis of atoms in the central unit cell:
 -------------------------------------------------------------
2 84 84 16

  0.00000000000000e+00  0.00000000000000e+00  0.00000000000000e+00
  2.56530000000000e+00  2.56530000000000e+00  2.56530000000000e+00

  7.88600000000000e+04
  1.18200000000000e+04
  2.69200000000000e+03
  7.63400000000000e+02
  2.49600000000000e+02
  9.02800000000000e+01
  3.52900000000000e+01
  1.45100000000000e+01
  4.05300000000000e+00
  7.88600000000000e+04
  1.18200000000000e+04
  2.69200000000000e+03
  2.49600000000000e+02
  9.02800000000000e+01
  3.52900000000000e+01
  1.45100000000000e+01
  4.05300000000000e+00
  1.48200000000000e+00
  7.88600000000000e+04
  1.18200000000000e+04
  2.69200000000000e+03
  9.02800000000000e+01
  3.52900000000000e+01
  1.45100000000000e+01
  4.05300000000000e+00
  1.48200000000000e+00
  2.51700000000000e-01
  9.24300000000000e-02
  3.15900000000000e+02
  7.44200000000000e+01
  2.34800000000000e+01
  8.48800000000000e+00
  3.21700000000000e+00
  1.22900000000000e+00
  7.44200000000000e+01
  2.34800000000000e+01
  8.48800000000000e+00
  3.21700000000000e+00
  1.22900000000000e+00
  2.96400000000000e-01
  8.76800000000000e-02
  2.75000000000000e-01
  7.88600000000000e+04
  1.18200000000000e+04
  2.69200000000000e+03
  7.63400000000000e+02
  2.49600000000000e+02
  9.02800000000000e+01
  3.52900000000000e+01
  1.45100000000000e+01
  4.05300000000000e+00
  7.88600000000000e+04
  1.18200000000000e+04
  2.69200000000000e+03
  2.49600000000000e+02
  9.02800000000000e+01
  3.52900000000000e+01
  1.45100000000000e+01
  4.05300000000000e+00
  1.48200000000000e+00
  7.88600000000000e+04
  1.18200000000000e+04
  2.69200000000000e+03
  9.02800000000000e+01
  3.52900000000000e+01
  1.45100000000000e+01
  4.05300000000000e+00
  1.48200000000000e+00
  2.51700000000000e-01
  9.24300000000000e-02
  3.15900000000000e+02
  7.44200000000000e+01
  2.34800000000000e+01
  8.48800000000000e+00
  3.21700000000000e+00
  1.22900000000000e+00
  7.44200000000000e+01
  2.34800000000000e+01
  8.48800000000000e+00
  3.21700000000000e+00
  1.22900000000000e+00
  2.96400000000000e-01
  8.76800000000000e-02
  2.75000000000000e-01

  9.06253754413352e-01
  1.69293104204437e+00
  2.88765135213002e+00
  4.51686717623273e+00
  6.15495015249549e+00
  6.60292741422250e+00
  4.31307094498082e+00
  1.11211258821928e+00
  3.28871017883051e-02
  1.81811499558714e-03
  7.82084807797983e-03
 -3.64325186414446e-03
 -1.38589915538590e-01
 -3.09231066968474e-01
 -8.37223961363792e-01
 -2.35283994917911e-01
  1.05074974557404e+00
  5.58607098057301e-01
 -3.73189052056138e-04
 -4.34506392374390e-04
 -1.25465717071959e-03
  1.25391036214459e-02
  2.72204657714548e-02
  2.48300227161584e-02
 -1.48880417762021e-01
 -3.39029634838718e-01
  2.96723365521804e-01
  1.19473010431857e-01
  7.49634571599597e+00
  9.36025063316295e+00
  9.42818987380764e+00
  6.66500330898836e+00
  2.81728351118454e+00
  4.95548501763808e-01
  1.33801616421722e-01
 -1.41076498099296e-01
  2.71250274850203e-02
 -2.30271473527780e-01
  1.34383996261684e-01
  3.01514460345638e-01
  6.80089021682769e-02
  1.71886461192366e-01
  9.06253754413352e-01
  1.69293104204437e+00
  2.88765135213002e+00
  4.51686717623273e+00
  6.15495015249549e+00
  6.60292741422250e+00
  4.31307094498082e+00
  1.11211258821928e+00
  3.28871017883051e-02
  1.81811499558714e-03
  7.82084807797983e-03
 -3.64325186414446e-03
 -1.38589915538590e-01
 -3.09231066968474e-01
 -8.37223961363792e-01
 -2.35283994917911e-01
  1.05074974557404e+00
  5.58607098057301e-01
 -3.73189052056138e-04
 -4.34506392374390e-04
 -1.25465717071959e-03
  1.25391036214459e-02
  2.72204657714548e-02
  2.48300227161584e-02
 -1.48880417762021e-01
 -3.39029634838718e-01
  2.96723365521804e-01
  1.19473010431857e-01
  7.49634571599597e+00
  9.36025063316295e+00
  9.42818987380764e+00
  6.66500330898836e+00
  2.81728351118454e+00
  4.95548501763808e-01
  1.33801616421722e-01
 -1.41076498099296e-01
  2.71250274850203e-02
 -2.30271473527780e-01
  1.34383996261684e-01
  3.01514460345638e-01
  6.80089021682769e-02
  1.71886461192366e-01

0 0 0 0 1 1 1
0 0 
9 0

0 1 1 9 1 1 1
9 0 
9 0

0 2 2 18 1 1 1
18 0 
9 0

0 3 3 27 1 1 1
27 0 
1 0

0 4 4 28 1 3 3
28 1 
6 0

0 7 7 34 1 3 3
34 1 
6 0

0 10 10 40 1 3 3
40 1 
1 0

0 13 13 41 1 5 6
41 2 
1 1

1 18 18 42 1 1 1
42 0 
9 0

1 19 19 51 1 1 1
51 0 
9 0

1 20 20 60 1 1 1
60 0 
9 0

1 21 21 69 1 1 1
69 0 
1 0

1 22 22 70 1 3 3
70 1 
6 0

1 25 25 76 1 3 3
76 1 
6 0

1 28 28 82 1 3 3
82 1 
1 0

1 31 31 83 1 5 6
83 2 
1 1

 -------------------------------------------------------------
 Allocate 259112 B from available memory: 1048576000000 B
 There are 1331 image cells after screening.
 There are 1221 image cells for CGTO evaluation after screening.
 Real-Space grid for FFT initialized based on kinetic energy cutoff (eV) = 500.0
 Real-Space grid for FFT: (10,10,10)
 There are 9261 real-space grid points.
 There are 64 batches of real-space grid points. 
 Size of each grid batch is around 128
 Grid for AFT initialized based on kinetic energy cutoff (eV) = 500.0
 Real-Space grid for AFT: (10,10,10)
 There are 9261 real-space grid points.

 There are 5456 atom-centered grid points.

 Spacegroup symmetry group: Fd-3m
 Reducing spacegroup symmetry to symmorphic group: F -4 3 m
 Monkhorst-Pack mesh is [7,7,7]
 There are 343 k points.
kpoints in Bohr
-0.2624248337 -0.2624248337 -0.2624248337
-0.1749498891 -0.1749498891 -0.3498997782
-0.0874749446 -0.0874749446 -0.4373747228
-0.0000000000 -0.0000000000 -0.5248496673
0.0874749446 0.0874749446 -0.6123246119
0.1749498891 0.1749498891 -0.6997995564
0.2624248337 0.2624248337 -0.7872745010
-0.1749498891 -0.3498997782 -0.1749498891
-0.0874749446 -0.2624248337 -0.2624248337
-0.0000000000 -0.1749498891 -0.3498997782
0.0874749446 -0.0874749446 -0.4373747228
0.1749498891 -0.0000000000 -0.5248496673
0.2624248337 0.0874749446 -0.6123246119
0.3498997782 0.1749498891 -0.6997995564
-0.0874749446 -0.4373747228 -0.0874749446
-0.0000000000 -0.3498997782 -0.1749498891
0.0874749446 -0.2624248337 -0.2624248337
0.1749498891 -0.1749498891 -0.3498997782
0.2624248337 -0.0874749446 -0.4373747228
0.3498997782 -0.0000000000 -0.5248496673
0.4373747228 0.0874749446 -0.6123246119
-0.0000000000 -0.5248496673 0.0000000000
0.0874749446 -0.4373747228 -0.0874749446
0.1749498891 -0.3498997782 -0.1749498891
0.2624248337 -0.2624248337 -0.2624248337
0.3498997782 -0.1749498891 -0.3498997782
0.4373747228 -0.0874749446 -0.4373747228
0.5248496673 0.0000000000 -0.5248496673
0.0874749446 -0.6123246119 0.0874749446
0.1749498891 -0.5248496673 0.0000000000
0.2624248337 -0.4373747228 -0.0874749446
0.3498997782 -0.3498997782 -0.1749498891
0.4373747228 -0.2624248337 -0.2624248337
0.5248496673 -0.1749498891 -0.3498997782
0.6123246119 -0.0874749446 -0.4373747228
0.1749498891 -0.6997995564 0.1749498891
0.2624248337 -0.6123246119 0.0874749446
0.3498997782 -0.5248496673 0.0000000000
0.4373747228 -0.4373747228 -0.0874749446
0.5248496673 -0.3498997782 -0.1749498891
0.6123246119 -0.2624248337 -0.2624248337
0.6997995564 -0.1749498891 -0.3498997782
0.2624248337 -0.7872745010 0.2624248337
0.3498997782 -0.6997995564 0.1749498891
0.4373747228 -0.6123246119 0.0874749446
0.5248496673 -0.5248496673 0.0000000000
0.6123246119 -0.4373747228 -0.0874749446
0.6997995564 -0.3498997782 -0.1749498891
0.7872745010 -0.2624248337 -0.2624248337
-0.3498997782 -0.1749498891 -0.1749498891
-0.2624248337 -0.0874749446 -0.2624248337
-0.1749498891 -0.0000000000 -0.3498997782
-0.0874749446 0.0874749446 -0.4373747228
-0.0000000000 0.1749498891 -0.5248496673
0.0874749446 0.2624248337 -0.6123246119
0.1749498891 0.3498997782 -0.6997995564
-0.2624248337 -0.2624248337 -0.0874749446
-0.1749498891 -0.1749498891 -0.1749498891
-0.0874749446 -0.0874749446 -0.2624248337
-0.0000000000 -0.0000000000 -0.3498997782
0.0874749446 0.0874749446 -0.4373747228
0.1749498891 0.1749498891 -0.5248496673
0.2624248337 0.2624248337 -0.6123246119
-0.1749498891 -0.3498997782 0.0000000000
-0.0874749446 -0.2624248337 -0.0874749446
-0.0000000000 -0.1749498891 -0.1749498891
0.0874749446 -0.0874749446 -0.2624248337
0.1749498891 -0.0000000000 -0.3498997782
0.2624248337 0.0874749446 -0.4373747228
0.3498997782 0.1749498891 -0.5248496673
-0.0874749446 -0.4373747228 0.0874749446
-0.0000000000 -0.3498997782 0.0000000000
0.0874749446 -0.2624248337 -0.0874749446
0.1749498891 -0.1749498891 -0.1749498891
0.2624248337 -0.0874749446 -0.2624248337
0.3498997782 0.0000000000 -0.3498997782
0.4373747228 0.0874749446 -0.4373747228
-0.0000000000 -0.5248496673 0.1749498891
0.0874749446 -0.4373747228 0.0874749446
0.1749498891 -0.3498997782 0.0000000000
0.2624248337 -0.2624248337 -0.0874749446
0.3498997782 -0.1749498891 -0.1749498891
0.4373747228 -0.0874749446 -0.2624248337
0.5248496673 0.0000000000 -0.3498997782
0.0874749446 -0.6123246119 0.2624248337
0.1749498891 -0.5248496673 0.1749498891
0.2624248337 -0.4373747228 0.0874749446
0.3498997782 -0.3498997782 0.0000000000
0.4373747228 -0.2624248337 -0.0874749446
0.5248496673 -0.1749498891 -0.1749498891
0.6123246119 -0.0874749446 -0.2624248337
0.1749498891 -0.6997995564 0.3498997782
0.2624248337 -0.6123246119 0.2624248337
0.3498997782 -0.5248496673 0.1749498891
0.4373747228 -0.4373747228 0.0874749446
0.5248496673 -0.3498997782 0.0000000000
0.6123246119 -0.2624248337 -0.0874749446
0.6997995564 -0.1749498891 -0.1749498891
-0.4373747228 -0.0874749446 -0.0874749446
-0.3498997782 -0.0000000000 -0.1749498891
-0.2624248337 0.0874749446 -0.2624248337
-0.1749498891 0.1749498891 -0.3498997782
-0.0874749446 0.2624248337 -0.4373747228
-0.0000000000 0.3498997782 -0.5248496673
0.0874749446 0.4373747228 -0.6123246119
-0.3498997782 -0.1749498891 0.0000000000
-0.2624248337 -0.0874749446 -0.0874749446
-0.1749498891 -0.0000000000 -0.1749498891
-0.0874749446 0.0874749446 -0.2624248337
-0.0000000000 0.1749498891 -0.3498997782
0.0874749446 0.2624248337 -0.4373747228
0.1749498891 0.3498997782 -0.5248496673
-0.2624248337 -0.2624248337 0.0874749446
-0.1749498891 -0.1749498891 0.0000000000
-0.0874749446 -0.0874749446 -0.0874749446
-0.0000000000 -0.0000000000 -0.1749498891
0.0874749446 0.0874749446 -0.2624248337
0.1749498891 0.1749498891 -0.3498997782
0.2624248337 0.2624248337 -0.4373747228
-0.1749498891 -0.3498997782 0.1749498891
-0.0874749446 -0.2624248337 0.0874749446
-0.0000000000 -0.1749498891 0.0000000000
0.0874749446 -0.0874749446 -0.0874749446
0.1749498891 0.0000000000 -0.1749498891
0.2624248337 0.0874749446 -0.2624248337
0.3498997782 0.1749498891 -0.3498997782
-0.0874749446 -0.4373747228 0.2624248337
-0.0000000000 -0.3498997782 0.1749498891
0.0874749446 -0.2624248337 0.0874749446
0.1749498891 -0.1749498891 0.0000000000
0.2624248337 -0.0874749446 -0.0874749446
0.3498997782 0.0000000000 -0.1749498891
0.4373747228 0.0874749446 -0.2624248337
-0.0000000000 -0.5248496673 0.3498997782
0.0874749446 -0.4373747228 0.2624248337
0.1749498891 -0.3498997782 0.1749498891
0.2624248337 -0.2624248337 0.0874749446
0.3498997782 -0.1749498891 0.0000000000
0.4373747228 -0.0874749446 -0.0874749446
0.5248496673 0.0000000000 -0.1749498891
0.0874749446 -0.6123246119 0.4373747228
0.1749498891 -0.5248496673 0.3498997782
0.2624248337 -0.4373747228 0.2624248337
0.3498997782 -0.3498997782 0.1749498891
0.4373747228 -0.2624248337 0.0874749446
0.5248496673 -0.1749498891 0.0000000000
0.6123246119 -0.0874749446 -0.0874749446
-0.5248496673 -0.0000000000 -0.0000000000
-0.4373747228 0.0874749446 -0.0874749446
-0.3498997782 0.1749498891 -0.1749498891
-0.2624248337 0.2624248337 -0.2624248337
-0.1749498891 0.3498997782 -0.3498997782
-0.0874749446 0.4373747228 -0.4373747228
0.0000000000 0.5248496673 -0.5248496673
-0.4373747228 -0.0874749446 0.0874749446
-0.3498997782 -0.0000000000 -0.0000000000
-0.2624248337 0.0874749446 -0.0874749446
-0.1749498891 0.1749498891 -0.1749498891
-0.0874749446 0.2624248337 -0.2624248337
0.0000000000 0.3498997782 -0.3498997782
0.0874749446 0.4373747228 -0.4373747228
-0.3498997782 -0.1749498891 0.1749498891
-0.2624248337 -0.0874749446 0.0874749446
-0.1749498891 -0.0000000000 -0.0000000000
-0.0874749446 0.0874749446 -0.0874749446
0.0000000000 0.1749498891 -0.1749498891
0.0874749446 0.2624248337 -0.2624248337
0.1749498891 0.3498997782 -0.3498997782
-0.2624248337 -0.2624248337 0.2624248337
-0.1749498891 -0.1749498891 0.1749498891
-0.0874749446 -0.0874749446 0.0874749446
0.0000000000 0.0000000000 0.0000000000
0.0874749446 0.0874749446 -0.0874749446
0.1749498891 0.1749498891 -0.1749498891
0.2624248337 0.2624248337 -0.2624248337
-0.1749498891 -0.3498997782 0.3498997782
-0.0874749446 -0.2624248337 0.2624248337
-0.0000000000 -0.1749498891 0.1749498891
0.0874749446 -0.0874749446 0.0874749446
0.1749498891 0.0000000000 0.0000000000
0.2624248337 0.0874749446 -0.0874749446
0.3498997782 0.1749498891 -0.1749498891
-0.0874749446 -0.4373747228 0.4373747228
-0.0000000000 -0.3498997782 0.3498997782
0.0874749446 -0.2624248337 0.2624248337
0.1749498891 -0.1749498891 0.1749498891
0.2624248337 -0.0874749446 0.0874749446
0.3498997782 0.0000000000 0.0000000000
0.4373747228 0.0874749446 -0.0874749446
-0.0000000000 -0.5248496673 0.5248496673
0.0874749446 -0.4373747228 0.4373747228
0.1749498891 -0.3498997782 0.3498997782
0.2624248337 -0.2624248337 0.2624248337
0.3498997782 -0.1749498891 0.1749498891
0.4373747228 -0.0874749446 0.0874749446
0.5248496673 0.0000000000 0.0000000000
-0.6123246119 0.0874749446 0.0874749446
-0.5248496673 0.1749498891 -0.0000000000
-0.4373747228 0.2624248337 -0.0874749446
-0.3498997782 0.3498997782 -0.1749498891
-0.2624248337 0.4373747228 -0.2624248337
-0.1749498891 0.5248496673 -0.3498997782
-0.0874749446 0.6123246119 -0.4373747228
-0.5248496673 -0.0000000000 0.1749498891
-0.4373747228 0.0874749446 0.0874749446
-0.3498997782 0.1749498891 -0.0000000000
-0.2624248337 0.2624248337 -0.0874749446
-0.1749498891 0.3498997782 -0.1749498891
-0.0874749446 0.4373747228 -0.2624248337
0.0000000000 0.5248496673 -0.3498997782
-0.4373747228 -0.0874749446 0.2624248337
-0.3498997782 -0.0000000000 0.1749498891
-0.2624248337 0.0874749446 0.0874749446
-0.1749498891 0.1749498891 -0.0000000000
-0.0874749446 0.2624248337 -0.0874749446
0.0000000000 0.3498997782 -0.1749498891
0.0874749446 0.4373747228 -0.2624248337
-0.3498997782 -0.1749498891 0.3498997782
-0.2624248337 -0.0874749446 0.2624248337
-0.1749498891 0.0000000000 0.1749498891
-0.0874749446 0.0874749446 0.0874749446
0.0000000000 0.1749498891 0.0000000000
0.0874749446 0.2624248337 -0.0874749446
0.1749498891 0.3498997782 -0.1749498891
-0.2624248337 -0.2624248337 0.4373747228
-0.1749498891 -0.1749498891 0.3498997782
-0.0874749446 -0.0874749446 0.2624248337
0.0000000000 0.0000000000 0.1749498891
0.0874749446 0.0874749446 0.0874749446
0.1749498891 0.1749498891 0.0000000000
0.2624248337 0.2624248337 -0.0874749446
-0.1749498891 -0.3498997782 0.5248496673
-0.0874749446 -0.2624248337 0.4373747228
0.0000000000 -0.1749498891 0.3498997782
0.0874749446 -0.0874749446 0.2624248337
0.1749498891 0.0000000000 0.1749498891
0.2624248337 0.0874749446 0.0874749446
0.3498997782 0.1749498891 0.0000000000
-0.0874749446 -0.4373747228 0.6123246119
0.0000000000 -0.3498997782 0.5248496673
0.0874749446 -0.2624248337 0.4373747228
0.1749498891 -0.1749498891 0.3498997782
0.2624248337 -0.0874749446 0.2624248337
0.3498997782 0.0000000000 0.1749498891
0.4373747228 0.0874749446 0.0874749446
-0.6997995564 0.1749498891 0.1749498891
-0.6123246119 0.2624248337 0.0874749446
-0.5248496673 0.3498997782 -0.0000000000
-0.4373747228 0.4373747228 -0.0874749446
-0.3498997782 0.5248496673 -0.1749498891
-0.2624248337 0.6123246119 -0.2624248337
-0.1749498891 0.6997995564 -0.3498997782
-0.6123246119 0.0874749446 0.2624248337
-0.5248496673 0.1749498891 0.1749498891
-0.4373747228 0.2624248337 0.0874749446
-0.3498997782 0.3498997782 -0.0000000000
-0.2624248337 0.4373747228 -0.0874749446
-0.1749498891 0.5248496673 -0.1749498891
-0.0874749446 0.6123246119 -0.2624248337
-0.5248496673 -0.0000000000 0.3498997782
-0.4373747228 0.0874749446 0.2624248337
-0.3498997782 0.1749498891 0.1749498891
-0.2624248337 0.2624248337 0.0874749446
-0.1749498891 0.3498997782 -0.0000000000
-0.0874749446 0.4373747228 -0.0874749446
0.0000000000 0.5248496673 -0.1749498891
-0.4373747228 -0.0874749446 0.4373747228
-0.3498997782 0.0000000000 0.3498997782
-0.2624248337 0.0874749446 0.2624248337
-0.1749498891 0.1749498891 0.1749498891
-0.0874749446 0.2624248337 0.0874749446
0.0000000000 0.3498997782 0.0000000000
0.0874749446 0.4373747228 -0.0874749446
-0.3498997782 -0.1749498891 0.5248496673
-0.2624248337 -0.0874749446 0.4373747228
-0.1749498891 0.0000000000 0.3498997782
-0.0874749446 0.0874749446 0.2624248337
0.0000000000 0.1749498891 0.1749498891
0.0874749446 0.2624248337 0.0874749446
0.1749498891 0.3498997782 0.0000000000
-0.2624248337 -0.2624248337 0.6123246119
-0.1749498891 -0.1749498891 0.5248496673
-0.0874749446 -0.0874749446 0.4373747228
0.0000000000 0.0000000000 0.3498997782
0.0874749446 0.0874749446 0.2624248337
0.1749498891 0.1749498891 0.1749498891
0.2624248337 0.2624248337 0.0874749446
-0.1749498891 -0.3498997782 0.6997995564
-0.0874749446 -0.2624248337 0.6123246119
0.0000000000 -0.1749498891 0.5248496673
0.0874749446 -0.0874749446 0.4373747228
0.1749498891 0.0000000000 0.3498997782
0.2624248337 0.0874749446 0.2624248337
0.3498997782 0.1749498891 0.1749498891
-0.7872745010 0.2624248337 0.2624248337
-0.6997995564 0.3498997782 0.1749498891
-0.6123246119 0.4373747228 0.0874749446
-0.5248496673 0.5248496673 -0.0000000000
-0.4373747228 0.6123246119 -0.0874749446
-0.3498997782 0.6997995564 -0.1749498891
-0.2624248337 0.7872745010 -0.2624248337
-0.6997995564 0.1749498891 0.3498997782
-0.6123246119 0.2624248337 0.2624248337
-0.5248496673 0.3498997782 0.1749498891
-0.4373747228 0.4373747228 0.0874749446
-0.3498997782 0.5248496673 -0.0000000000
-0.2624248337 0.6123246119 -0.0874749446
-0.1749498891 0.6997995564 -0.1749498891
-0.6123246119 0.0874749446 0.4373747228
-0.5248496673 0.1749498891 0.3498997782
-0.4373747228 0.2624248337 0.2624248337
-0.3498997782 0.3498997782 0.1749498891
-0.2624248337 0.4373747228 0.0874749446
-0.1749498891 0.5248496673 0.0000000000
-0.0874749446 0.6123246119 -0.0874749446
-0.5248496673 0.0000000000 0.5248496673
-0.4373747228 0.0874749446 0.4373747228
-0.3498997782 0.1749498891 0.3498997782
-0.2624248337 0.2624248337 0.2624248337
-0.1749498891 0.3498997782 0.1749498891
-0.0874749446 0.4373747228 0.0874749446
0.0000000000 0.5248496673 0.0000000000
-0.4373747228 -0.0874749446 0.6123246119
-0.3498997782 0.0000000000 0.5248496673
-0.2624248337 0.0874749446 0.4373747228
-0.1749498891 0.1749498891 0.3498997782
-0.0874749446 0.2624248337 0.2624248337
0.0000000000 0.3498997782 0.1749498891
0.0874749446 0.4373747228 0.0874749446
-0.3498997782 -0.1749498891 0.6997995564
-0.2624248337 -0.0874749446 0.6123246119
-0.1749498891 0.0000000000 0.5248496673
-0.0874749446 0.0874749446 0.4373747228
0.0000000000 0.1749498891 0.3498997782
0.0874749446 0.2624248337 0.2624248337
0.1749498891 0.3498997782 0.1749498891
-0.2624248337 -0.2624248337 0.7872745010
-0.1749498891 -0.1749498891 0.6997995564
-0.0874749446 -0.0874749446 0.6123246119
0.0000000000 0.0000000000 0.5248496673
0.0874749446 0.0874749446 0.4373747228
0.1749498891 0.1749498891 0.3498997782
0.2624248337 0.2624248337 0.2624248337
 There are 14 alpha and 14 beta electrons
 Start computing overlap matrix
 Allocate 7112448 B from available memory: 1048575740896 B
 Time for computing overlap matrix: 1.9100000000 s
 ====== Initialize compute kernels for all-electron RI-J (kpts) ====== 
 ========================================================== 
 Range-separated parameter omega        = 0.599999999999999978
 Threshold for 1e2c shellpair           = 0.000000000000010000
 Threshold for 2e2c SR integral         = 0.000000000000000001
 Threshold for 2e3c SR integral         = 0.000000000100000000
 Threshold for AFT G-space screening is = 0.000000000001000000
 The exponent cutoff for C/D classification (omega2 / 2) is  = 0.179999999999999993
 ========================================================== 
 === Post process the basis set for RI calculation (exp_cutoff = 0.179999999999999993 ) === 
nshells_b1 before uncontraction = 16
nshells_b1 after uncontraction = 16
nshells_baux before uncontraction = 74
nshells_baux after uncontraction = 74
===============================================
nbsf total   = 36
nbsf compact = 28
nbsf diffuse = 8
naux total   = 242
naux compact = 242
naux diffuse = 0
nshells_bnuc = 2

 Number of unique atoms is 1
 Unique atom #0 (si) has 6 shells.

Shell 0 to 5 belongs to atom si
Shell 6 to 11 belongs to atom si

 Number of unique atoms is 1
 Unique atom #0 (si) has 2 shells.

Shell 0 to 1 belongs to atom si
Shell 2 to 3 belongs to atom si

 Number of unique atom is 1
 Unique atom #0 (si) has 37 auxiliary shells.

Auxiliary Shell 0 to 36 belongs to atom si
Auxiliary Shell 37 to 73 belongs to atom si

================= Automatically determine grid size for reciprocal space summation =================
 Range-separated parameter = 0.60000000000000 and G-space screening threshold = 0.00000000000100
The number of grid points along each axis dimension is (7, 7, 7)
Total number of grid points = 3375

Use nonortho shellpair for diffuse density
======== Initializing relevant kernel for RIJ (DD type) ========
There are 10 shellpairs in the reference unit cell
There are 2395 images and we expect to have 23950 in total
There are 2310 shellpairs in the lattice sum after screening
======== Initializing relevant kernel for RIJ (CD type) ========
There are 48 shellpairs in the reference unit cell
There are 1657 images and we expect to have 79536 in total
There are 5616 shellpairs in the lattice sum after screening
****** AFT -> SR ******
Maximum bra distance cutoff is 20.000000000000
Maximum bra ket distance cutoff is 21.527796542407
Maximum bra ket screening distance is 20.218750000000
Number of auxiliary image is 455
There are 48 shellpairs in the reference unit cell
There are 437 images and we expect to have 20976 in total
There are 5616 shellpairs in the lattice sum after screening
Available memory per thread for 2e3c calculation is 32.767769639000Gb
Finish initializing 2e3c SR with the lattice sum!
=================================================
======== Initializing relevant kernel for RIJ (CC type) ========
There are 77 shellpairs in the reference unit cell
There are 887 images and we expect to have 68299 in total
There are 1826 shellpairs in the lattice sum after screening
****** AFT -> SR ******
Maximum bra distance cutoff is 15.000000000000
Maximum bra ket distance cutoff is 26.119433613361
Maximum bra ket screening distance is 19.750000000000
Number of auxiliary image is 695
There are 77 shellpairs in the reference unit cell
There are 237 images and we expect to have 18249 in total
There are 1826 shellpairs in the lattice sum after screening
Available memory per thread for 2e3c calculation is 32.767769639000Gb
Finish initializing 2e3c SR with the lattice sum!
=================================================
======== Initializing the SR component for Vnuc (CD type) ========
Maximum bra distance cutoff is 20.000000000000
Maximum bra ket distance cutoff is 14.110858526687
Maximum bra ket screening distance is 12.589502200220
Number of auxiliary image is 437
There are 48 shellpairs in the reference unit cell
There are 437 images and we expect to have 20976 in total
There are 5616 shellpairs in the lattice sum after screening
Available memory per thread for 2e3c calculation is 32.767769639000Gb
Finish initializing 2e3c SR with the lattice sum!
=================================================
======== Initialize the SR component for Vnuc (CC type) ========
Maximum bra distance cutoff is 15.000000000000
Maximum bra ket distance cutoff is 19.007169255949
Maximum bra ket screening distance is 11.748074693494
Number of auxiliary image is 341
There are 77 shellpairs in the reference unit cell
There are 237 images and we expect to have 18249 in total
There are 1826 shellpairs in the lattice sum after screening
Available memory per thread for 2e3c calculation is 32.767769639000Gb
Finish initializing 2e3c SR with the lattice sum!
=================================================
 Aufbau occupation scheme, occupation determined by eigenvalue
 == 0-th k-point nmo = 36 (-0.26242,-0.26242,-0.26242) ==
 == 1-th k-point nmo = 36 (-0.17495,-0.17495,-0.34990) ==
 == 2-th k-point nmo = 36 (-0.08747,-0.08747,-0.43737) ==
 == 3-th k-point nmo = 36 (-0.00000,-0.00000,-0.52485) ==
 == 4-th k-point nmo = 36 (0.08747,0.08747,-0.61232) ==
 == 5-th k-point nmo = 36 (0.17495,0.17495,-0.69980) ==
 == 6-th k-point nmo = 36 (0.26242,0.26242,-0.78727) ==
 == 7-th k-point nmo = 36 (-0.17495,-0.34990,-0.17495) ==
 == 8-th k-point nmo = 36 (-0.08747,-0.26242,-0.26242) ==
 == 9-th k-point nmo = 36 (-0.00000,-0.17495,-0.34990) ==
 == 10-th k-point nmo = 36 (0.08747,-0.08747,-0.43737) ==
 == 11-th k-point nmo = 36 (0.17495,-0.00000,-0.52485) ==
 == 12-th k-point nmo = 36 (0.26242,0.08747,-0.61232) ==
 == 13-th k-point nmo = 36 (0.34990,0.17495,-0.69980) ==
 == 14-th k-point nmo = 36 (-0.08747,-0.43737,-0.08747) ==
 == 15-th k-point nmo = 36 (-0.00000,-0.34990,-0.17495) ==
 == 16-th k-point nmo = 36 (0.08747,-0.26242,-0.26242) ==
 == 17-th k-point nmo = 36 (0.17495,-0.17495,-0.34990) ==
 == 18-th k-point nmo = 36 (0.26242,-0.08747,-0.43737) ==
 == 19-th k-point nmo = 36 (0.34990,-0.00000,-0.52485) ==
 == 20-th k-point nmo = 36 (0.43737,0.08747,-0.61232) ==
 == 21-th k-point nmo = 36 (-0.00000,-0.52485,0.00000) ==
 == 22-th k-point nmo = 36 (0.08747,-0.43737,-0.08747) ==
 == 23-th k-point nmo = 36 (0.17495,-0.34990,-0.17495) ==
 == 24-th k-point nmo = 36 (0.26242,-0.26242,-0.26242) ==
 == 25-th k-point nmo = 36 (0.34990,-0.17495,-0.34990) ==
 == 26-th k-point nmo = 36 (0.43737,-0.08747,-0.43737) ==
 == 27-th k-point nmo = 36 (0.52485,0.00000,-0.52485) ==
 == 28-th k-point nmo = 36 (0.08747,-0.61232,0.08747) ==
 == 29-th k-point nmo = 36 (0.17495,-0.52485,0.00000) ==
 == 30-th k-point nmo = 36 (0.26242,-0.43737,-0.08747) ==
 == 31-th k-point nmo = 36 (0.34990,-0.34990,-0.17495) ==
 == 32-th k-point nmo = 36 (0.43737,-0.26242,-0.26242) ==
 == 33-th k-point nmo = 36 (0.52485,-0.17495,-0.34990) ==
 == 34-th k-point nmo = 36 (0.61232,-0.08747,-0.43737) ==
 == 35-th k-point nmo = 36 (0.17495,-0.69980,0.17495) ==
 == 36-th k-point nmo = 36 (0.26242,-0.61232,0.08747) ==
 == 37-th k-point nmo = 36 (0.34990,-0.52485,0.00000) ==
 == 38-th k-point nmo = 36 (0.43737,-0.43737,-0.08747) ==
 == 39-th k-point nmo = 36 (0.52485,-0.34990,-0.17495) ==
 == 40-th k-point nmo = 36 (0.61232,-0.26242,-0.26242) ==
 == 41-th k-point nmo = 36 (0.69980,-0.17495,-0.34990) ==
 == 42-th k-point nmo = 36 (0.26242,-0.78727,0.26242) ==
 == 43-th k-point nmo = 36 (0.34990,-0.69980,0.17495) ==
 == 44-th k-point nmo = 36 (0.43737,-0.61232,0.08747) ==
 == 45-th k-point nmo = 36 (0.52485,-0.52485,0.00000) ==
 == 46-th k-point nmo = 36 (0.61232,-0.43737,-0.08747) ==
 == 47-th k-point nmo = 36 (0.69980,-0.34990,-0.17495) ==
 == 48-th k-point nmo = 36 (0.78727,-0.26242,-0.26242) ==
 == 49-th k-point nmo = 36 (-0.34990,-0.17495,-0.17495) ==
 == 50-th k-point nmo = 36 (-0.26242,-0.08747,-0.26242) ==
 == 51-th k-point nmo = 36 (-0.17495,-0.00000,-0.34990) ==
 == 52-th k-point nmo = 36 (-0.08747,0.08747,-0.43737) ==
 == 53-th k-point nmo = 36 (-0.00000,0.17495,-0.52485) ==
 == 54-th k-point nmo = 36 (0.08747,0.26242,-0.61232) ==
 == 55-th k-point nmo = 36 (0.17495,0.34990,-0.69980) ==
 == 56-th k-point nmo = 36 (-0.26242,-0.26242,-0.08747) ==
 == 57-th k-point nmo = 36 (-0.17495,-0.17495,-0.17495) ==
 == 58-th k-point nmo = 36 (-0.08747,-0.08747,-0.26242) ==
 == 59-th k-point nmo = 36 (-0.00000,-0.00000,-0.34990) ==
 == 60-th k-point nmo = 36 (0.08747,0.08747,-0.43737) ==
 == 61-th k-point nmo = 36 (0.17495,0.17495,-0.52485) ==
 == 62-th k-point nmo = 36 (0.26242,0.26242,-0.61232) ==
 == 63-th k-point nmo = 36 (-0.17495,-0.34990,0.00000) ==
 == 64-th k-point nmo = 36 (-0.08747,-0.26242,-0.08747) ==
 == 65-th k-point nmo = 36 (-0.00000,-0.17495,-0.17495) ==
 == 66-th k-point nmo = 36 (0.08747,-0.08747,-0.26242) ==
 == 67-th k-point nmo = 36 (0.17495,-0.00000,-0.34990) ==
 == 68-th k-point nmo = 36 (0.26242,0.08747,-0.43737) ==
 == 69-th k-point nmo = 36 (0.34990,0.17495,-0.52485) ==
 == 70-th k-point nmo = 36 (-0.08747,-0.43737,0.08747) ==
 == 71-th k-point nmo = 36 (-0.00000,-0.34990,0.00000) ==
 == 72-th k-point nmo = 36 (0.08747,-0.26242,-0.08747) ==
 == 73-th k-point nmo = 36 (0.17495,-0.17495,-0.17495) ==
 == 74-th k-point nmo = 36 (0.26242,-0.08747,-0.26242) ==
 == 75-th k-point nmo = 36 (0.34990,0.00000,-0.34990) ==
 == 76-th k-point nmo = 36 (0.43737,0.08747,-0.43737) ==
 == 77-th k-point nmo = 36 (-0.00000,-0.52485,0.17495) ==
 == 78-th k-point nmo = 36 (0.08747,-0.43737,0.08747) ==
 == 79-th k-point nmo = 36 (0.17495,-0.34990,0.00000) ==
 == 80-th k-point nmo = 36 (0.26242,-0.26242,-0.08747) ==
 == 81-th k-point nmo = 36 (0.34990,-0.17495,-0.17495) ==
 == 82-th k-point nmo = 36 (0.43737,-0.08747,-0.26242) ==
 == 83-th k-point nmo = 36 (0.52485,0.00000,-0.34990) ==
 == 84-th k-point nmo = 36 (0.08747,-0.61232,0.26242) ==
 == 85-th k-point nmo = 36 (0.17495,-0.52485,0.17495) ==
 == 86-th k-point nmo = 36 (0.26242,-0.43737,0.08747) ==
 == 87-th k-point nmo = 36 (0.34990,-0.34990,0.00000) ==
 == 88-th k-point nmo = 36 (0.43737,-0.26242,-0.08747) ==
 == 89-th k-point nmo = 36 (0.52485,-0.17495,-0.17495) ==
 == 90-th k-point nmo = 36 (0.61232,-0.08747,-0.26242) ==
 == 91-th k-point nmo = 36 (0.17495,-0.69980,0.34990) ==
 == 92-th k-point nmo = 36 (0.26242,-0.61232,0.26242) ==
 == 93-th k-point nmo = 36 (0.34990,-0.52485,0.17495) ==
 == 94-th k-point nmo = 36 (0.43737,-0.43737,0.08747) ==
 == 95-th k-point nmo = 36 (0.52485,-0.34990,0.00000) ==
 == 96-th k-point nmo = 36 (0.61232,-0.26242,-0.08747) ==
 == 97-th k-point nmo = 36 (0.69980,-0.17495,-0.17495) ==
 == 98-th k-point nmo = 36 (-0.43737,-0.08747,-0.08747) ==
 == 99-th k-point nmo = 36 (-0.34990,-0.00000,-0.17495) ==
 == 100-th k-point nmo = 36 (-0.26242,0.08747,-0.26242) ==
 == 101-th k-point nmo = 36 (-0.17495,0.17495,-0.34990) ==
 == 102-th k-point nmo = 36 (-0.08747,0.26242,-0.43737) ==
 == 103-th k-point nmo = 36 (-0.00000,0.34990,-0.52485) ==
 == 104-th k-point nmo = 36 (0.08747,0.43737,-0.61232) ==
 == 105-th k-point nmo = 36 (-0.34990,-0.17495,0.00000) ==
 == 106-th k-point nmo = 36 (-0.26242,-0.08747,-0.08747) ==
 == 107-th k-point nmo = 36 (-0.17495,-0.00000,-0.17495) ==
 == 108-th k-point nmo = 36 (-0.08747,0.08747,-0.26242) ==
 == 109-th k-point nmo = 36 (-0.00000,0.17495,-0.34990) ==
 == 110-th k-point nmo = 36 (0.08747,0.26242,-0.43737) ==
 == 111-th k-point nmo = 36 (0.17495,0.34990,-0.52485) ==
 == 112-th k-point nmo = 36 (-0.26242,-0.26242,0.08747) ==
 == 113-th k-point nmo = 36 (-0.17495,-0.17495,0.00000) ==
 == 114-th k-point nmo = 36 (-0.08747,-0.08747,-0.08747) ==
 == 115-th k-point nmo = 36 (-0.00000,-0.00000,-0.17495) ==
 == 116-th k-point nmo = 36 (0.08747,0.08747,-0.26242) ==
 == 117-th k-point nmo = 36 (0.17495,0.17495,-0.34990) ==
 == 118-th k-point nmo = 36 (0.26242,0.26242,-0.43737) ==
 == 119-th k-point nmo = 36 (-0.17495,-0.34990,0.17495) ==
 == 120-th k-point nmo = 36 (-0.08747,-0.26242,0.08747) ==
 == 121-th k-point nmo = 36 (-0.00000,-0.17495,0.00000) ==
 == 122-th k-point nmo = 36 (0.08747,-0.08747,-0.08747) ==
 == 123-th k-point nmo = 36 (0.17495,0.00000,-0.17495) ==
 == 124-th k-point nmo = 36 (0.26242,0.08747,-0.26242) ==
 == 125-th k-point nmo = 36 (0.34990,0.17495,-0.34990) ==
 == 126-th k-point nmo = 36 (-0.08747,-0.43737,0.26242) ==
 == 127-th k-point nmo = 36 (-0.00000,-0.34990,0.17495) ==
 == 128-th k-point nmo = 36 (0.08747,-0.26242,0.08747) ==
 == 129-th k-point nmo = 36 (0.17495,-0.17495,0.00000) ==
 == 130-th k-point nmo = 36 (0.26242,-0.08747,-0.08747) ==
 == 131-th k-point nmo = 36 (0.34990,0.00000,-0.17495) ==
 == 132-th k-point nmo = 36 (0.43737,0.08747,-0.26242) ==
 == 133-th k-point nmo = 36 (-0.00000,-0.52485,0.34990) ==
 == 134-th k-point nmo = 36 (0.08747,-0.43737,0.26242) ==
 == 135-th k-point nmo = 36 (0.17495,-0.34990,0.17495) ==
 == 136-th k-point nmo = 36 (0.26242,-0.26242,0.08747) ==
 == 137-th k-point nmo = 36 (0.34990,-0.17495,0.00000) ==
 == 138-th k-point nmo = 36 (0.43737,-0.08747,-0.08747) ==
 == 139-th k-point nmo = 36 (0.52485,0.00000,-0.17495) ==
 == 140-th k-point nmo = 36 (0.08747,-0.61232,0.43737) ==
 == 141-th k-point nmo = 36 (0.17495,-0.52485,0.34990) ==
 == 142-th k-point nmo = 36 (0.26242,-0.43737,0.26242) ==
 == 143-th k-point nmo = 36 (0.34990,-0.34990,0.17495) ==
 == 144-th k-point nmo = 36 (0.43737,-0.26242,0.08747) ==
 == 145-th k-point nmo = 36 (0.52485,-0.17495,0.00000) ==
 == 146-th k-point nmo = 36 (0.61232,-0.08747,-0.08747) ==
 == 147-th k-point nmo = 36 (-0.52485,-0.00000,-0.00000) ==
 == 148-th k-point nmo = 36 (-0.43737,0.08747,-0.08747) ==
 == 149-th k-point nmo = 36 (-0.34990,0.17495,-0.17495) ==
 == 150-th k-point nmo = 36 (-0.26242,0.26242,-0.26242) ==
 == 151-th k-point nmo = 36 (-0.17495,0.34990,-0.34990) ==
 == 152-th k-point nmo = 36 (-0.08747,0.43737,-0.43737) ==
 == 153-th k-point nmo = 36 (0.00000,0.52485,-0.52485) ==
 == 154-th k-point nmo = 36 (-0.43737,-0.08747,0.08747) ==
 == 155-th k-point nmo = 36 (-0.34990,-0.00000,-0.00000) ==
 == 156-th k-point nmo = 36 (-0.26242,0.08747,-0.08747) ==
 == 157-th k-point nmo = 36 (-0.17495,0.17495,-0.17495) ==
 == 158-th k-point nmo = 36 (-0.08747,0.26242,-0.26242) ==
 == 159-th k-point nmo = 36 (0.00000,0.34990,-0.34990) ==
 == 160-th k-point nmo = 36 (0.08747,0.43737,-0.43737) ==
 == 161-th k-point nmo = 36 (-0.34990,-0.17495,0.17495) ==
 == 162-th k-point nmo = 36 (-0.26242,-0.08747,0.08747) ==
 == 163-th k-point nmo = 36 (-0.17495,-0.00000,-0.00000) ==
 == 164-th k-point nmo = 36 (-0.08747,0.08747,-0.08747) ==
 == 165-th k-point nmo = 36 (0.00000,0.17495,-0.17495) ==
 == 166-th k-point nmo = 36 (0.08747,0.26242,-0.26242) ==
 == 167-th k-point nmo = 36 (0.17495,0.34990,-0.34990) ==
 == 168-th k-point nmo = 36 (-0.26242,-0.26242,0.26242) ==
 == 169-th k-point nmo = 36 (-0.17495,-0.17495,0.17495) ==
 == 170-th k-point nmo = 36 (-0.08747,-0.08747,0.08747) ==
 == 171-th k-point nmo = 36 (0.00000,0.00000,0.00000) ==
 == 172-th k-point nmo = 36 (0.08747,0.08747,-0.08747) ==
 == 173-th k-point nmo = 36 (0.17495,0.17495,-0.17495) ==
 == 174-th k-point nmo = 36 (0.26242,0.26242,-0.26242) ==
 == 175-th k-point nmo = 36 (-0.17495,-0.34990,0.34990) ==
 == 176-th k-point nmo = 36 (-0.08747,-0.26242,0.26242) ==
 == 177-th k-point nmo = 36 (-0.00000,-0.17495,0.17495) ==
 == 178-th k-point nmo = 36 (0.08747,-0.08747,0.08747) ==
 == 179-th k-point nmo = 36 (0.17495,0.00000,0.00000) ==
 == 180-th k-point nmo = 36 (0.26242,0.08747,-0.08747) ==
 == 181-th k-point nmo = 36 (0.34990,0.17495,-0.17495) ==
 == 182-th k-point nmo = 36 (-0.08747,-0.43737,0.43737) ==
 == 183-th k-point nmo = 36 (-0.00000,-0.34990,0.34990) ==
 == 184-th k-point nmo = 36 (0.08747,-0.26242,0.26242) ==
 == 185-th k-point nmo = 36 (0.17495,-0.17495,0.17495) ==
 == 186-th k-point nmo = 36 (0.26242,-0.08747,0.08747) ==
 == 187-th k-point nmo = 36 (0.34990,0.00000,0.00000) ==
 == 188-th k-point nmo = 36 (0.43737,0.08747,-0.08747) ==
 == 189-th k-point nmo = 36 (-0.00000,-0.52485,0.52485) ==
 == 190-th k-point nmo = 36 (0.08747,-0.43737,0.43737) ==
 == 191-th k-point nmo = 36 (0.17495,-0.34990,0.34990) ==
 == 192-th k-point nmo = 36 (0.26242,-0.26242,0.26242) ==
 == 193-th k-point nmo = 36 (0.34990,-0.17495,0.17495) ==
 == 194-th k-point nmo = 36 (0.43737,-0.08747,0.08747) ==
 == 195-th k-point nmo = 36 (0.52485,0.00000,0.00000) ==
 == 196-th k-point nmo = 36 (-0.61232,0.08747,0.08747) ==
 == 197-th k-point nmo = 36 (-0.52485,0.17495,-0.00000) ==
 == 198-th k-point nmo = 36 (-0.43737,0.26242,-0.08747) ==
 == 199-th k-point nmo = 36 (-0.34990,0.34990,-0.17495) ==
 == 200-th k-point nmo = 36 (-0.26242,0.43737,-0.26242) ==
 == 201-th k-point nmo = 36 (-0.17495,0.52485,-0.34990) ==
 == 202-th k-point nmo = 36 (-0.08747,0.61232,-0.43737) ==
 == 203-th k-point nmo = 36 (-0.52485,-0.00000,0.17495) ==
 == 204-th k-point nmo = 36 (-0.43737,0.08747,0.08747) ==
 == 205-th k-point nmo = 36 (-0.34990,0.17495,-0.00000) ==
 == 206-th k-point nmo = 36 (-0.26242,0.26242,-0.08747) ==
 == 207-th k-point nmo = 36 (-0.17495,0.34990,-0.17495) ==
 == 208-th k-point nmo = 36 (-0.08747,0.43737,-0.26242) ==
 == 209-th k-point nmo = 36 (0.00000,0.52485,-0.34990) ==
 == 210-th k-point nmo = 36 (-0.43737,-0.08747,0.26242) ==
 == 211-th k-point nmo = 36 (-0.34990,-0.00000,0.17495) ==
 == 212-th k-point nmo = 36 (-0.26242,0.08747,0.08747) ==
 == 213-th k-point nmo = 36 (-0.17495,0.17495,-0.00000) ==
 == 214-th k-point nmo = 36 (-0.08747,0.26242,-0.08747) ==
 == 215-th k-point nmo = 36 (0.00000,0.34990,-0.17495) ==
 == 216-th k-point nmo = 36 (0.08747,0.43737,-0.26242) ==
 == 217-th k-point nmo = 36 (-0.34990,-0.17495,0.34990) ==
 == 218-th k-point nmo = 36 (-0.26242,-0.08747,0.26242) ==
 == 219-th k-point nmo = 36 (-0.17495,0.00000,0.17495) ==
 == 220-th k-point nmo = 36 (-0.08747,0.08747,0.08747) ==
 == 221-th k-point nmo = 36 (0.00000,0.17495,0.00000) ==
 == 222-th k-point nmo = 36 (0.08747,0.26242,-0.08747) ==
 == 223-th k-point nmo = 36 (0.17495,0.34990,-0.17495) ==
 == 224-th k-point nmo = 36 (-0.26242,-0.26242,0.43737) ==
 == 225-th k-point nmo = 36 (-0.17495,-0.17495,0.34990) ==
 == 226-th k-point nmo = 36 (-0.08747,-0.08747,0.26242) ==
 == 227-th k-point nmo = 36 (0.00000,0.00000,0.17495) ==
 == 228-th k-point nmo = 36 (0.08747,0.08747,0.08747) ==
 == 229-th k-point nmo = 36 (0.17495,0.17495,0.00000) ==
 == 230-th k-point nmo = 36 (0.26242,0.26242,-0.08747) ==
 == 231-th k-point nmo = 36 (-0.17495,-0.34990,0.52485) ==
 == 232-th k-point nmo = 36 (-0.08747,-0.26242,0.43737) ==
 == 233-th k-point nmo = 36 (0.00000,-0.17495,0.34990) ==
 == 234-th k-point nmo = 36 (0.08747,-0.08747,0.26242) ==
 == 235-th k-point nmo = 36 (0.17495,0.00000,0.17495) ==
 == 236-th k-point nmo = 36 (0.26242,0.08747,0.08747) ==
 == 237-th k-point nmo = 36 (0.34990,0.17495,0.00000) ==
 == 238-th k-point nmo = 36 (-0.08747,-0.43737,0.61232) ==
 == 239-th k-point nmo = 36 (0.00000,-0.34990,0.52485) ==
 == 240-th k-point nmo = 36 (0.08747,-0.26242,0.43737) ==
 == 241-th k-point nmo = 36 (0.17495,-0.17495,0.34990) ==
 == 242-th k-point nmo = 36 (0.26242,-0.08747,0.26242) ==
 == 243-th k-point nmo = 36 (0.34990,0.00000,0.17495) ==
 == 244-th k-point nmo = 36 (0.43737,0.08747,0.08747) ==
 == 245-th k-point nmo = 36 (-0.69980,0.17495,0.17495) ==
 == 246-th k-point nmo = 36 (-0.61232,0.26242,0.08747) ==
 == 247-th k-point nmo = 36 (-0.52485,0.34990,-0.00000) ==
 == 248-th k-point nmo = 36 (-0.43737,0.43737,-0.08747) ==
 == 249-th k-point nmo = 36 (-0.34990,0.52485,-0.17495) ==
 == 250-th k-point nmo = 36 (-0.26242,0.61232,-0.26242) ==
 == 251-th k-point nmo = 36 (-0.17495,0.69980,-0.34990) ==
 == 252-th k-point nmo = 36 (-0.61232,0.08747,0.26242) ==
 == 253-th k-point nmo = 36 (-0.52485,0.17495,0.17495) ==
 == 254-th k-point nmo = 36 (-0.43737,0.26242,0.08747) ==
 == 255-th k-point nmo = 36 (-0.34990,0.34990,-0.00000) ==
 == 256-th k-point nmo = 36 (-0.26242,0.43737,-0.08747) ==
 == 257-th k-point nmo = 36 (-0.17495,0.52485,-0.17495) ==
 == 258-th k-point nmo = 36 (-0.08747,0.61232,-0.26242) ==
 == 259-th k-point nmo = 36 (-0.52485,-0.00000,0.34990) ==
 == 260-th k-point nmo = 36 (-0.43737,0.08747,0.26242) ==
 == 261-th k-point nmo = 36 (-0.34990,0.17495,0.17495) ==
 == 262-th k-point nmo = 36 (-0.26242,0.26242,0.08747) ==
 == 263-th k-point nmo = 36 (-0.17495,0.34990,-0.00000) ==
 == 264-th k-point nmo = 36 (-0.08747,0.43737,-0.08747) ==
 == 265-th k-point nmo = 36 (0.00000,0.52485,-0.17495) ==
 == 266-th k-point nmo = 36 (-0.43737,-0.08747,0.43737) ==
 == 267-th k-point nmo = 36 (-0.34990,0.00000,0.34990) ==
 == 268-th k-point nmo = 36 (-0.26242,0.08747,0.26242) ==
 == 269-th k-point nmo = 36 (-0.17495,0.17495,0.17495) ==
 == 270-th k-point nmo = 36 (-0.08747,0.26242,0.08747) ==
 == 271-th k-point nmo = 36 (0.00000,0.34990,0.00000) ==
 == 272-th k-point nmo = 36 (0.08747,0.43737,-0.08747) ==
 == 273-th k-point nmo = 36 (-0.34990,-0.17495,0.52485) ==
 == 274-th k-point nmo = 36 (-0.26242,-0.08747,0.43737) ==
 == 275-th k-point nmo = 36 (-0.17495,0.00000,0.34990) ==
 == 276-th k-point nmo = 36 (-0.08747,0.08747,0.26242) ==
 == 277-th k-point nmo = 36 (0.00000,0.17495,0.17495) ==
 == 278-th k-point nmo = 36 (0.08747,0.26242,0.08747) ==
 == 279-th k-point nmo = 36 (0.17495,0.34990,0.00000) ==
 == 280-th k-point nmo = 36 (-0.26242,-0.26242,0.61232) ==
 == 281-th k-point nmo = 36 (-0.17495,-0.17495,0.52485) ==
 == 282-th k-point nmo = 36 (-0.08747,-0.08747,0.43737) ==
 == 283-th k-point nmo = 36 (0.00000,0.00000,0.34990) ==
 == 284-th k-point nmo = 36 (0.08747,0.08747,0.26242) ==
 == 285-th k-point nmo = 36 (0.17495,0.17495,0.17495) ==
 == 286-th k-point nmo = 36 (0.26242,0.26242,0.08747) ==
 == 287-th k-point nmo = 36 (-0.17495,-0.34990,0.69980) ==
 == 288-th k-point nmo = 36 (-0.08747,-0.26242,0.61232) ==
 == 289-th k-point nmo = 36 (0.00000,-0.17495,0.52485) ==
 == 290-th k-point nmo = 36 (0.08747,-0.08747,0.43737) ==
 == 291-th k-point nmo = 36 (0.17495,0.00000,0.34990) ==
 == 292-th k-point nmo = 36 (0.26242,0.08747,0.26242) ==
 == 293-th k-point nmo = 36 (0.34990,0.17495,0.17495) ==
 == 294-th k-point nmo = 36 (-0.78727,0.26242,0.26242) ==
 == 295-th k-point nmo = 36 (-0.69980,0.34990,0.17495) ==
 == 296-th k-point nmo = 36 (-0.61232,0.43737,0.08747) ==
 == 297-th k-point nmo = 36 (-0.52485,0.52485,-0.00000) ==
 == 298-th k-point nmo = 36 (-0.43737,0.61232,-0.08747) ==
 == 299-th k-point nmo = 36 (-0.34990,0.69980,-0.17495) ==
 == 300-th k-point nmo = 36 (-0.26242,0.78727,-0.26242) ==
 == 301-th k-point nmo = 36 (-0.69980,0.17495,0.34990) ==
 == 302-th k-point nmo = 36 (-0.61232,0.26242,0.26242) ==
 == 303-th k-point nmo = 36 (-0.52485,0.34990,0.17495) ==
 == 304-th k-point nmo = 36 (-0.43737,0.43737,0.08747) ==
 == 305-th k-point nmo = 36 (-0.34990,0.52485,-0.00000) ==
 == 306-th k-point nmo = 36 (-0.26242,0.61232,-0.08747) ==
 == 307-th k-point nmo = 36 (-0.17495,0.69980,-0.17495) ==
 == 308-th k-point nmo = 36 (-0.61232,0.08747,0.43737) ==
 == 309-th k-point nmo = 36 (-0.52485,0.17495,0.34990) ==
 == 310-th k-point nmo = 36 (-0.43737,0.26242,0.26242) ==
 == 311-th k-point nmo = 36 (-0.34990,0.34990,0.17495) ==
 == 312-th k-point nmo = 36 (-0.26242,0.43737,0.08747) ==
 == 313-th k-point nmo = 36 (-0.17495,0.52485,0.00000) ==
 == 314-th k-point nmo = 36 (-0.08747,0.61232,-0.08747) ==
 == 315-th k-point nmo = 36 (-0.52485,0.00000,0.52485) ==
 == 316-th k-point nmo = 36 (-0.43737,0.08747,0.43737) ==
 == 317-th k-point nmo = 36 (-0.34990,0.17495,0.34990) ==
 == 318-th k-point nmo = 36 (-0.26242,0.26242,0.26242) ==
 == 319-th k-point nmo = 36 (-0.17495,0.34990,0.17495) ==
 == 320-th k-point nmo = 36 (-0.08747,0.43737,0.08747) ==
 == 321-th k-point nmo = 36 (0.00000,0.52485,0.00000) ==
 == 322-th k-point nmo = 36 (-0.43737,-0.08747,0.61232) ==
 == 323-th k-point nmo = 36 (-0.34990,0.00000,0.52485) ==
 == 324-th k-point nmo = 36 (-0.26242,0.08747,0.43737) ==
 == 325-th k-point nmo = 36 (-0.17495,0.17495,0.34990) ==
 == 326-th k-point nmo = 36 (-0.08747,0.26242,0.26242) ==
 == 327-th k-point nmo = 36 (0.00000,0.34990,0.17495) ==
 == 328-th k-point nmo = 36 (0.08747,0.43737,0.08747) ==
 == 329-th k-point nmo = 36 (-0.34990,-0.17495,0.69980) ==
 == 330-th k-point nmo = 36 (-0.26242,-0.08747,0.61232) ==
 == 331-th k-point nmo = 36 (-0.17495,0.00000,0.52485) ==
 == 332-th k-point nmo = 36 (-0.08747,0.08747,0.43737) ==
 == 333-th k-point nmo = 36 (0.00000,0.17495,0.34990) ==
 == 334-th k-point nmo = 36 (0.08747,0.26242,0.26242) ==
 == 335-th k-point nmo = 36 (0.17495,0.34990,0.17495) ==
 == 336-th k-point nmo = 36 (-0.26242,-0.26242,0.78727) ==
 == 337-th k-point nmo = 36 (-0.17495,-0.17495,0.69980) ==
 == 338-th k-point nmo = 36 (-0.08747,-0.08747,0.61232) ==
 == 339-th k-point nmo = 36 (0.00000,0.00000,0.52485) ==
 == 340-th k-point nmo = 36 (0.08747,0.08747,0.43737) ==
 == 341-th k-point nmo = 36 (0.17495,0.17495,0.34990) ==
 == 342-th k-point nmo = 36 (0.26242,0.26242,0.26242) ==

 Generate autoSAD guess
backing up fragment data
Atom # 0: si, charge: 0, multiplicity: 3.000000
writing autosad to fragment context
Settings for isolated fragments: 
  frgm_gamma: TRUE
  frgm_center: FALSE

    Running SCF for isolated atom #0
    Fragment Input file: /n/netscratch/joonholee_lab/Lab/hieudinh//si_2_ccpvdz_omega_0.6_777.scratch20250909110441/autosad_frgmt_0/frgmt_input.in
    Fragment Output file: /n/netscratch/joonholee_lab/Lab/hieudinh//si_2_ccpvdz_omega_0.6_777.scratch20250909110441/autosad_frgmt_0/frgmt_job.out
    Fragment job begins at Tue Sep  9 11:04:45 2025

 Integrated density by DFT XC:
   Numerical integral  =    13.999999917315
   Relative error      =     0.0000005906 %
Final energy components:
 DFT Correlation            Energy =  -0.48513826889398
 DFT Exchange               Energy = -20.16642564451798
 Kinetic (alpha)            Energy = 145.25889537694817
 Kinetic (beta)             Energy = 143.28753845481560
 Nuclear Attraction (alpha) Energy = -351.37163574421345
 Nuclear Attraction (beta)  Energy = -337.75785676323636
 Nuclear Repulsion          Energy =   0.00000000000000
 SEOQF                      Energy =  -0.00000000097530
 Total Coulomb              Energy = 132.01551581812839
----------------------------------------------
    SCF Energy: -289.2191067719
   Total fragment job time:  0.35 s.
restoring fragment data

 ------------------------------------------------------------------------
 Allocate 28038192 B from available memory: 1048568628448 B
 Time for generating SCF guess: 0.36 s

 Allocate 69752 B from available memory: 1048540590272 B
 Selected algorithms for each term:
  kpts_kinetic -> @0x14a0f41ad680
  kpts_nn -> @0x14a0f41ad800
  kpts_rij_bigmem -> @0x14a0f41ad3e0
  kpts_vnuc_df -> @0x14a0f41ad380
  kpts_xc -> @0x14a0f41ad2c0
 Time for computing kinetic matrix is 1.93 s
Start calculating Vnuc DD type!
Start calculating Vnuc CD type!
Start calculating Vnuc CC type!
 Time for computing nuclear attraction matrix is 4.02 s
Compute (P|Q) and use solve on the fly!
Maximum distance between P and Q is 29.79462221820766
Number of images for (P|Qn) is 911
 Time for computing 2e2c SR integral is 0.10 s
Maximum dynamic memory per thread for 2e3c SR integrals: 0.013 GiB
Batch size for basis function pair is 224 out of 224
 === bvk cell = 0 has 100.000 % of the basis function pairs === 
 === bvk cell = 1 has 100.000 % of the basis function pairs === 
 === bvk cell = 2 has 100.000 % of the basis function pairs === 
 === bvk cell = 3 has 25.000 % of the basis function pairs === 
 === bvk cell = 4 has 25.000 % of the basis function pairs === 
 === bvk cell = 5 has 100.000 % of the basis function pairs === 
 === bvk cell = 6 has 100.000 % of the basis function pairs === 
 === bvk cell = 7 has 100.000 % of the basis function pairs === 
 === bvk cell = 8 has 100.000 % of the basis function pairs === 
 === bvk cell = 9 has 57.143 % of the basis function pairs === 
 === bvk cell = 10 has 0.000 % of the basis function pairs === 
 === bvk cell = 11 has 57.143 % of the basis function pairs === 
 === bvk cell = 12 has 100.000 % of the basis function pairs === 
 === bvk cell = 13 has 100.000 % of the basis function pairs === 
 === bvk cell = 14 has 100.000 % of the basis function pairs === 
 === bvk cell = 15 has 57.143 % of the basis function pairs === 
 === bvk cell = 16 has 0.000 % of the basis function pairs === 
 === bvk cell = 17 has 0.000 % of the basis function pairs === 
 === bvk cell = 18 has 57.143 % of the basis function pairs === 
 === bvk cell = 19 has 100.000 % of the basis function pairs === 
 === bvk cell = 20 has 100.000 % of the basis function pairs === 
 === bvk cell = 21 has 25.000 % of the basis function pairs === 
 === bvk cell = 22 has 0.000 % of the basis function pairs === 
 === bvk cell = 23 has 0.000 % of the basis function pairs === 
 === bvk cell = 24 has 0.000 % of the basis function pairs === 
 === bvk cell = 25 has 0.000 % of the basis function pairs === 
 === bvk cell = 26 has 57.143 % of the basis function pairs === 
 === bvk cell = 27 has 57.143 % of the basis function pairs === 
 === bvk cell = 28 has 25.000 % of the basis function pairs === 
 === bvk cell = 29 has 57.143 % of the basis function pairs === 
 === bvk cell = 30 has 57.143 % of the basis function pairs === 
 === bvk cell = 31 has 0.000 % of the basis function pairs === 
 === bvk cell = 32 has 0.000 % of the basis function pairs === 
 === bvk cell = 33 has 0.000 % of the basis function pairs === 
 === bvk cell = 34 has 0.000 % of the basis function pairs === 
 === bvk cell = 35 has 100.000 % of the basis function pairs === 
 === bvk cell = 36 has 100.000 % of the basis function pairs === 
 === bvk cell = 37 has 100.000 % of the basis function pairs === 
 === bvk cell = 38 has 57.143 % of the basis function pairs === 
 === bvk cell = 39 has 0.000 % of the basis function pairs === 
 === bvk cell = 40 has 0.000 % of the basis function pairs === 
 === bvk cell = 41 has 57.143 % of the basis function pairs === 
 === bvk cell = 42 has 100.000 % of the basis function pairs === 
 === bvk cell = 43 has 100.000 % of the basis function pairs === 
 === bvk cell = 44 has 100.000 % of the basis function pairs === 
 === bvk cell = 45 has 57.143 % of the basis function pairs === 
 === bvk cell = 46 has 0.000 % of the basis function pairs === 
 === bvk cell = 47 has 57.143 % of the basis function pairs === 
 === bvk cell = 48 has 100.000 % of the basis function pairs === 
 === bvk cell = 49 has 100.000 % of the basis function pairs === 
 === bvk cell = 50 has 100.000 % of the basis function pairs === 
 === bvk cell = 51 has 57.143 % of the basis function pairs === 
 === bvk cell = 52 has 0.000 % of the basis function pairs === 
 === bvk cell = 53 has 57.143 % of the basis function pairs === 
 === bvk cell = 54 has 100.000 % of the basis function pairs === 
 === bvk cell = 55 has 100.000 % of the basis function pairs === 
 === bvk cell = 56 has 100.000 % of the basis function pairs === 
 === bvk cell = 57 has 75.000 % of the basis function pairs === 
 === bvk cell = 58 has 16.071 % of the basis function pairs === 
 === bvk cell = 59 has 0.000 % of the basis function pairs === 
 === bvk cell = 60 has 91.071 % of the basis function pairs === 
 === bvk cell = 61 has 100.000 % of the basis function pairs === 
 === bvk cell = 62 has 100.000 % of the basis function pairs === 
 === bvk cell = 63 has 57.143 % of the basis function pairs === 
 === bvk cell = 64 has 16.071 % of the basis function pairs === 
 === bvk cell = 65 has 0.000 % of the basis function pairs === 
 === bvk cell = 66 has 0.000 % of the basis function pairs === 
 === bvk cell = 67 has 64.286 % of the basis function pairs === 
 === bvk cell = 68 has 100.000 % of the basis function pairs === 
 === bvk cell = 69 has 91.071 % of the basis function pairs === 
 === bvk cell = 70 has 0.000 % of the basis function pairs === 
 === bvk cell = 71 has 0.000 % of the basis function pairs === 
 === bvk cell = 72 has 0.000 % of the basis function pairs === 
 === bvk cell = 73 has 0.000 % of the basis function pairs === 
 === bvk cell = 74 has 0.000 % of the basis function pairs === 
 === bvk cell = 75 has 16.071 % of the basis function pairs === 
 === bvk cell = 76 has 16.071 % of the basis function pairs === 
 === bvk cell = 77 has 57.143 % of the basis function pairs === 
 === bvk cell = 78 has 91.071 % of the basis function pairs === 
 === bvk cell = 79 has 64.286 % of the basis function pairs === 
 === bvk cell = 80 has 0.000 % of the basis function pairs === 
 === bvk cell = 81 has 0.000 % of the basis function pairs === 
 === bvk cell = 82 has 0.000 % of the basis function pairs === 
 === bvk cell = 83 has 16.071 % of the basis function pairs === 
 === bvk cell = 84 has 100.000 % of the basis function pairs === 
 === bvk cell = 85 has 100.000 % of the basis function pairs === 
 === bvk cell = 86 has 100.000 % of the basis function pairs === 
 === bvk cell = 87 has 16.071 % of the basis function pairs === 
 === bvk cell = 88 has 0.000 % of the basis function pairs === 
 === bvk cell = 89 has 25.000 % of the basis function pairs === 
 === bvk cell = 90 has 91.071 % of the basis function pairs === 
 === bvk cell = 91 has 100.000 % of the basis function pairs === 
 === bvk cell = 92 has 100.000 % of the basis function pairs === 
 === bvk cell = 93 has 91.071 % of the basis function pairs === 
 === bvk cell = 94 has 16.071 % of the basis function pairs === 
 === bvk cell = 95 has 16.071 % of the basis function pairs === 
 === bvk cell = 96 has 91.071 % of the basis function pairs === 
 === bvk cell = 97 has 100.000 % of the basis function pairs === 
 === bvk cell = 98 has 100.000 % of the basis function pairs === 
 === bvk cell = 99 has 57.143 % of the basis function pairs === 
 === bvk cell = 100 has 0.000 % of the basis function pairs === 
 === bvk cell = 101 has 0.000 % of the basis function pairs === 
 === bvk cell = 102 has 57.143 % of the basis function pairs === 
 === bvk cell = 103 has 100.000 % of the basis function pairs === 
 === bvk cell = 104 has 100.000 % of the basis function pairs === 
 === bvk cell = 105 has 57.143 % of the basis function pairs === 
 === bvk cell = 106 has 16.071 % of the basis function pairs === 
 === bvk cell = 107 has 0.000 % of the basis function pairs === 
 === bvk cell = 108 has 0.000 % of the basis function pairs === 
 === bvk cell = 109 has 64.286 % of the basis function pairs === 
 === bvk cell = 110 has 100.000 % of the basis function pairs === 
 === bvk cell = 111 has 91.071 % of the basis function pairs === 
 === bvk cell = 112 has 0.000 % of the basis function pairs === 
 === bvk cell = 113 has 0.000 % of the basis function pairs === 
 === bvk cell = 114 has 0.000 % of the basis function pairs === 
 === bvk cell = 115 has 0.000 % of the basis function pairs === 
 === bvk cell = 116 has 0.000 % of the basis function pairs === 
 === bvk cell = 117 has 28.571 % of the basis function pairs === 
 === bvk cell = 118 has 25.000 % of the basis function pairs === 
 === bvk cell = 119 has 0.000 % of the basis function pairs === 
 === bvk cell = 120 has 0.000 % of the basis function pairs === 
 === bvk cell = 121 has 0.000 % of the basis function pairs === 
 === bvk cell = 122 has 0.000 % of the basis function pairs === 
 === bvk cell = 123 has 0.000 % of the basis function pairs === 
 === bvk cell = 124 has 0.000 % of the basis function pairs === 
 === bvk cell = 125 has 0.000 % of the basis function pairs === 
 === bvk cell = 126 has 57.143 % of the basis function pairs === 
 === bvk cell = 127 has 64.286 % of the basis function pairs === 
 === bvk cell = 128 has 0.000 % of the basis function pairs === 
 === bvk cell = 129 has 0.000 % of the basis function pairs === 
 === bvk cell = 130 has 0.000 % of the basis function pairs === 
 === bvk cell = 131 has 0.000 % of the basis function pairs === 
 === bvk cell = 132 has 16.071 % of the basis function pairs === 
 === bvk cell = 133 has 100.000 % of the basis function pairs === 
 === bvk cell = 134 has 100.000 % of the basis function pairs === 
 === bvk cell = 135 has 28.571 % of the basis function pairs === 
 === bvk cell = 136 has 0.000 % of the basis function pairs === 
 === bvk cell = 137 has 0.000 % of the basis function pairs === 
 === bvk cell = 138 has 28.571 % of the basis function pairs === 
 === bvk cell = 139 has 100.000 % of the basis function pairs === 
 === bvk cell = 140 has 100.000 % of the basis function pairs === 
 === bvk cell = 141 has 91.071 % of the basis function pairs === 
 === bvk cell = 142 has 25.000 % of the basis function pairs === 
 === bvk cell = 143 has 0.000 % of the basis function pairs === 
 === bvk cell = 144 has 16.071 % of the basis function pairs === 
 === bvk cell = 145 has 100.000 % of the basis function pairs === 
 === bvk cell = 146 has 100.000 % of the basis function pairs === 
 === bvk cell = 147 has 25.000 % of the basis function pairs === 
 === bvk cell = 148 has 0.000 % of the basis function pairs === 
 === bvk cell = 149 has 0.000 % of the basis function pairs === 
 === bvk cell = 150 has 0.000 % of the basis function pairs === 
 === bvk cell = 151 has 0.000 % of the basis function pairs === 
 === bvk cell = 152 has 57.143 % of the basis function pairs === 
 === bvk cell = 153 has 57.143 % of the basis function pairs === 
 === bvk cell = 154 has 0.000 % of the basis function pairs === 
 === bvk cell = 155 has 0.000 % of the basis function pairs === 
 === bvk cell = 156 has 0.000 % of the basis function pairs === 
 === bvk cell = 157 has 0.000 % of the basis function pairs === 
 === bvk cell = 158 has 0.000 % of the basis function pairs === 
 === bvk cell = 159 has 16.071 % of the basis function pairs === 
 === bvk cell = 160 has 16.071 % of the basis function pairs === 
 === bvk cell = 161 has 0.000 % of the basis function pairs === 
 === bvk cell = 162 has 0.000 % of the basis function pairs === 
 === bvk cell = 163 has 0.000 % of the basis function pairs === 
 === bvk cell = 164 has 0.000 % of the basis function pairs === 
 === bvk cell = 165 has 0.000 % of the basis function pairs === 
 === bvk cell = 166 has 0.000 % of the basis function pairs === 
 === bvk cell = 167 has 0.000 % of the basis function pairs === 
 === bvk cell = 168 has 0.000 % of the basis function pairs === 
 === bvk cell = 169 has 0.000 % of the basis function pairs === 
 === bvk cell = 170 has 0.000 % of the basis function pairs === 
 === bvk cell = 171 has 0.000 % of the basis function pairs === 
 === bvk cell = 172 has 0.000 % of the basis function pairs === 
 === bvk cell = 173 has 0.000 % of the basis function pairs === 
 === bvk cell = 174 has 0.000 % of the basis function pairs === 
 === bvk cell = 175 has 0.000 % of the basis function pairs === 
 === bvk cell = 176 has 0.000 % of the basis function pairs === 
 === bvk cell = 177 has 0.000 % of the basis function pairs === 
 === bvk cell = 178 has 0.000 % of the basis function pairs === 
 === bvk cell = 179 has 0.000 % of the basis function pairs === 
 === bvk cell = 180 has 0.000 % of the basis function pairs === 
 === bvk cell = 181 has 0.000 % of the basis function pairs === 
 === bvk cell = 182 has 57.143 % of the basis function pairs === 
 === bvk cell = 183 has 16.071 % of the basis function pairs === 
 === bvk cell = 184 has 0.000 % of the basis function pairs === 
 === bvk cell = 185 has 0.000 % of the basis function pairs === 
 === bvk cell = 186 has 0.000 % of the basis function pairs === 
 === bvk cell = 187 has 0.000 % of the basis function pairs === 
 === bvk cell = 188 has 64.286 % of the basis function pairs === 
 === bvk cell = 189 has 57.143 % of the basis function pairs === 
 === bvk cell = 190 has 16.071 % of the basis function pairs === 
 === bvk cell = 191 has 0.000 % of the basis function pairs === 
 === bvk cell = 192 has 0.000 % of the basis function pairs === 
 === bvk cell = 193 has 0.000 % of the basis function pairs === 
 === bvk cell = 194 has 64.286 % of the basis function pairs === 
 === bvk cell = 195 has 91.071 % of the basis function pairs === 
 === bvk cell = 196 has 25.000 % of the basis function pairs === 
 === bvk cell = 197 has 57.143 % of the basis function pairs === 
 === bvk cell = 198 has 57.143 % of the basis function pairs === 
 === bvk cell = 199 has 0.000 % of the basis function pairs === 
 === bvk cell = 200 has 0.000 % of the basis function pairs === 
 === bvk cell = 201 has 0.000 % of the basis function pairs === 
 === bvk cell = 202 has 0.000 % of the basis function pairs === 
 === bvk cell = 203 has 57.143 % of the basis function pairs === 
 === bvk cell = 204 has 91.071 % of the basis function pairs === 
 === bvk cell = 205 has 64.286 % of the basis function pairs === 
 === bvk cell = 206 has 0.000 % of the basis function pairs === 
 === bvk cell = 207 has 0.000 % of the basis function pairs === 
 === bvk cell = 208 has 0.000 % of the basis function pairs === 
 === bvk cell = 209 has 16.071 % of the basis function pairs === 
 === bvk cell = 210 has 57.143 % of the basis function pairs === 
 === bvk cell = 211 has 64.286 % of the basis function pairs === 
 === bvk cell = 212 has 0.000 % of the basis function pairs === 
 === bvk cell = 213 has 0.000 % of the basis function pairs === 
 === bvk cell = 214 has 0.000 % of the basis function pairs === 
 === bvk cell = 215 has 0.000 % of the basis function pairs === 
 === bvk cell = 216 has 16.071 % of the basis function pairs === 
 === bvk cell = 217 has 0.000 % of the basis function pairs === 
 === bvk cell = 218 has 0.000 % of the basis function pairs === 
 === bvk cell = 219 has 0.000 % of the basis function pairs === 
 === bvk cell = 220 has 0.000 % of the basis function pairs === 
 === bvk cell = 221 has 0.000 % of the basis function pairs === 
 === bvk cell = 222 has 0.000 % of the basis function pairs === 
 === bvk cell = 223 has 0.000 % of the basis function pairs === 
 === bvk cell = 224 has 0.000 % of the basis function pairs === 
 === bvk cell = 225 has 0.000 % of the basis function pairs === 
 === bvk cell = 226 has 0.000 % of the basis function pairs === 
 === bvk cell = 227 has 0.000 % of the basis function pairs === 
 === bvk cell = 228 has 0.000 % of the basis function pairs === 
 === bvk cell = 229 has 0.000 % of the basis function pairs === 
 === bvk cell = 230 has 0.000 % of the basis function pairs === 
 === bvk cell = 231 has 0.000 % of the basis function pairs === 
 === bvk cell = 232 has 0.000 % of the basis function pairs === 
 === bvk cell = 233 has 0.000 % of the basis function pairs === 
 === bvk cell = 234 has 0.000 % of the basis function pairs === 
 === bvk cell = 235 has 0.000 % of the basis function pairs === 
 === bvk cell = 236 has 0.000 % of the basis function pairs === 
 === bvk cell = 237 has 0.000 % of the basis function pairs === 
 === bvk cell = 238 has 0.000 % of the basis function pairs === 
 === bvk cell = 239 has 16.071 % of the basis function pairs === 
 === bvk cell = 240 has 16.071 % of the basis function pairs === 
 === bvk cell = 241 has 0.000 % of the basis function pairs === 
 === bvk cell = 242 has 0.000 % of the basis function pairs === 
 === bvk cell = 243 has 0.000 % of the basis function pairs === 
 === bvk cell = 244 has 0.000 % of the basis function pairs === 
 === bvk cell = 245 has 100.000 % of the basis function pairs === 
 === bvk cell = 246 has 100.000 % of the basis function pairs === 
 === bvk cell = 247 has 100.000 % of the basis function pairs === 
 === bvk cell = 248 has 57.143 % of the basis function pairs === 
 === bvk cell = 249 has 0.000 % of the basis function pairs === 
 === bvk cell = 250 has 0.000 % of the basis function pairs === 
 === bvk cell = 251 has 57.143 % of the basis function pairs === 
 === bvk cell = 252 has 100.000 % of the basis function pairs === 
 === bvk cell = 253 has 100.000 % of the basis function pairs === 
 === bvk cell = 254 has 100.000 % of the basis function pairs === 
 === bvk cell = 255 has 16.071 % of the basis function pairs === 
 === bvk cell = 256 has 0.000 % of the basis function pairs === 
 === bvk cell = 257 has 25.000 % of the basis function pairs === 
 === bvk cell = 258 has 91.071 % of the basis function pairs === 
 === bvk cell = 259 has 100.000 % of the basis function pairs === 
 === bvk cell = 260 has 100.000 % of the basis function pairs === 
 === bvk cell = 261 has 28.571 % of the basis function pairs === 
 === bvk cell = 262 has 0.000 % of the basis function pairs === 
 === bvk cell = 263 has 0.000 % of the basis function pairs === 
 === bvk cell = 264 has 28.571 % of the basis function pairs === 
 === bvk cell = 265 has 100.000 % of the basis function pairs === 
 === bvk cell = 266 has 57.143 % of the basis function pairs === 
 === bvk cell = 267 has 16.071 % of the basis function pairs === 
 === bvk cell = 268 has 0.000 % of the basis function pairs === 
 === bvk cell = 269 has 0.000 % of the basis function pairs === 
 === bvk cell = 270 has 0.000 % of the basis function pairs === 
 === bvk cell = 271 has 0.000 % of the basis function pairs === 
 === bvk cell = 272 has 64.286 % of the basis function pairs === 
 === bvk cell = 273 has 0.000 % of the basis function pairs === 
 === bvk cell = 274 has 0.000 % of the basis function pairs === 
 === bvk cell = 275 has 0.000 % of the basis function pairs === 
 === bvk cell = 276 has 0.000 % of the basis function pairs === 
 === bvk cell = 277 has 0.000 % of the basis function pairs === 
 === bvk cell = 278 has 0.000 % of the basis function pairs === 
 === bvk cell = 279 has 0.000 % of the basis function pairs === 
 === bvk cell = 280 has 0.000 % of the basis function pairs === 
 === bvk cell = 281 has 25.000 % of the basis function pairs === 
 === bvk cell = 282 has 28.571 % of the basis function pairs === 
 === bvk cell = 283 has 0.000 % of the basis function pairs === 
 === bvk cell = 284 has 0.000 % of the basis function pairs === 
 === bvk cell = 285 has 0.000 % of the basis function pairs === 
 === bvk cell = 286 has 0.000 % of the basis function pairs === 
 === bvk cell = 287 has 57.143 % of the basis function pairs === 
 === bvk cell = 288 has 91.071 % of the basis function pairs === 
 === bvk cell = 289 has 100.000 % of the basis function pairs === 
 === bvk cell = 290 has 64.286 % of the basis function pairs === 
 === bvk cell = 291 has 0.000 % of the basis function pairs === 
 === bvk cell = 292 has 0.000 % of the basis function pairs === 
 === bvk cell = 293 has 16.071 % of the basis function pairs === 
 === bvk cell = 294 has 100.000 % of the basis function pairs === 
 === bvk cell = 295 has 100.000 % of the basis function pairs === 
 === bvk cell = 296 has 100.000 % of the basis function pairs === 
 === bvk cell = 297 has 57.143 % of the basis function pairs === 
 === bvk cell = 298 has 0.000 % of the basis function pairs === 
 === bvk cell = 299 has 57.143 % of the basis function pairs === 
 === bvk cell = 300 has 100.000 % of the basis function pairs === 
 === bvk cell = 301 has 100.000 % of the basis function pairs === 
 === bvk cell = 302 has 100.000 % of the basis function pairs === 
 === bvk cell = 303 has 91.071 % of the basis function pairs === 
 === bvk cell = 304 has 16.071 % of the basis function pairs === 
 === bvk cell = 305 has 16.071 % of the basis function pairs === 
 === bvk cell = 306 has 91.071 % of the basis function pairs === 
 === bvk cell = 307 has 100.000 % of the basis function pairs === 
 === bvk cell = 308 has 100.000 % of the basis function pairs === 
 === bvk cell = 309 has 91.071 % of the basis function pairs === 
 === bvk cell = 310 has 25.000 % of the basis function pairs === 
 === bvk cell = 311 has 0.000 % of the basis function pairs === 
 === bvk cell = 312 has 16.071 % of the basis function pairs === 
 === bvk cell = 313 has 100.000 % of the basis function pairs === 
 === bvk cell = 314 has 100.000 % of the basis function pairs === 
 === bvk cell = 315 has 57.143 % of the basis function pairs === 
 === bvk cell = 316 has 16.071 % of the basis function pairs === 
 === bvk cell = 317 has 0.000 % of the basis function pairs === 
 === bvk cell = 318 has 0.000 % of the basis function pairs === 
 === bvk cell = 319 has 0.000 % of the basis function pairs === 
 === bvk cell = 320 has 64.286 % of the basis function pairs === 
 === bvk cell = 321 has 91.071 % of the basis function pairs === 
 === bvk cell = 322 has 0.000 % of the basis function pairs === 
 === bvk cell = 323 has 16.071 % of the basis function pairs === 
 === bvk cell = 324 has 16.071 % of the basis function pairs === 
 === bvk cell = 325 has 0.000 % of the basis function pairs === 
 === bvk cell = 326 has 0.000 % of the basis function pairs === 
 === bvk cell = 327 has 0.000 % of the basis function pairs === 
 === bvk cell = 328 has 0.000 % of the basis function pairs === 
 === bvk cell = 329 has 57.143 % of the basis function pairs === 
 === bvk cell = 330 has 91.071 % of the basis function pairs === 
 === bvk cell = 331 has 100.000 % of the basis function pairs === 
 === bvk cell = 332 has 64.286 % of the basis function pairs === 
 === bvk cell = 333 has 0.000 % of the basis function pairs === 
 === bvk cell = 334 has 0.000 % of the basis function pairs === 
 === bvk cell = 335 has 16.071 % of the basis function pairs === 
 === bvk cell = 336 has 100.000 % of the basis function pairs === 
 === bvk cell = 337 has 100.000 % of the basis function pairs === 
 === bvk cell = 338 has 100.000 % of the basis function pairs === 
 === bvk cell = 339 has 91.071 % of the basis function pairs === 
 === bvk cell = 340 has 0.000 % of the basis function pairs === 
 === bvk cell = 341 has 16.071 % of the basis function pairs === 
 === bvk cell = 342 has 75.000 % of the basis function pairs === 
Static memory requirement for 2e3c SR integrals: 0.050 GB
There are 1 munu batches for computing 2e3c SR integrals with latsum
There are 4 Q batches for computing 2e3c SR integrals with latsum
 Time for computing 2e3c SR integral (CD) is 0.52 s
Maximum dynamic memory per thread for 2e3c SR integrals: 0.006 GiB
Batch size for basis function pair is 437 out of 437
 === bvk cell = 0 has 100.000 % of the basis function pairs === 
 === bvk cell = 1 has 87.872 % of the basis function pairs === 
 === bvk cell = 2 has 27.689 % of the basis function pairs === 
 === bvk cell = 3 has 0.000 % of the basis function pairs === 
 === bvk cell = 4 has 0.000 % of the basis function pairs === 
 === bvk cell = 5 has 14.645 % of the basis function pairs === 
 === bvk cell = 6 has 85.126 % of the basis function pairs === 
 === bvk cell = 7 has 87.872 % of the basis function pairs === 
 === bvk cell = 8 has 52.632 % of the basis function pairs === 
 === bvk cell = 9 has 0.229 % of the basis function pairs === 
 === bvk cell = 10 has 0.000 % of the basis function pairs === 
 === bvk cell = 11 has 0.000 % of the basis function pairs === 
 === bvk cell = 12 has 37.300 % of the basis function pairs === 
 === bvk cell = 13 has 86.270 % of the basis function pairs === 
 === bvk cell = 14 has 27.689 % of the basis function pairs === 
 === bvk cell = 15 has 0.229 % of the basis function pairs === 
 === bvk cell = 16 has 0.000 % of the basis function pairs === 
 === bvk cell = 17 has 0.000 % of the basis function pairs === 
 === bvk cell = 18 has 0.000 % of the basis function pairs === 
 === bvk cell = 19 has 4.348 % of the basis function pairs === 
 === bvk cell = 20 has 50.114 % of the basis function pairs === 
 === bvk cell = 21 has 0.000 % of the basis function pairs === 
 === bvk cell = 22 has 0.000 % of the basis function pairs === 
 === bvk cell = 23 has 0.000 % of the basis function pairs === 
 === bvk cell = 24 has 0.000 % of the basis function pairs === 
 === bvk cell = 25 has 0.000 % of the basis function pairs === 
 === bvk cell = 26 has 0.000 % of the basis function pairs === 
 === bvk cell = 27 has 0.000 % of the basis function pairs === 
 === bvk cell = 28 has 0.000 % of the basis function pairs === 
 === bvk cell = 29 has 0.000 % of the basis function pairs === 
 === bvk cell = 30 has 0.000 % of the basis function pairs === 
 === bvk cell = 31 has 0.000 % of the basis function pairs === 
 === bvk cell = 32 has 0.000 % of the basis function pairs === 
 === bvk cell = 33 has 0.000 % of the basis function pairs === 
 === bvk cell = 34 has 0.000 % of the basis function pairs === 
 === bvk cell = 35 has 14.645 % of the basis function pairs === 
 === bvk cell = 36 has 37.300 % of the basis function pairs === 
 === bvk cell = 37 has 4.348 % of the basis function pairs === 
 === bvk cell = 38 has 0.000 % of the basis function pairs === 
 === bvk cell = 39 has 0.000 % of the basis function pairs === 
 === bvk cell = 40 has 0.000 % of the basis function pairs === 
 === bvk cell = 41 has 0.000 % of the basis function pairs === 
 === bvk cell = 42 has 85.126 % of the basis function pairs === 
 === bvk cell = 43 has 86.270 % of the basis function pairs === 
 === bvk cell = 44 has 50.114 % of the basis function pairs === 
 === bvk cell = 45 has 0.000 % of the basis function pairs === 
 === bvk cell = 46 has 0.000 % of the basis function pairs === 
 === bvk cell = 47 has 0.000 % of the basis function pairs === 
 === bvk cell = 48 has 39.588 % of the basis function pairs === 
 === bvk cell = 49 has 87.872 % of the basis function pairs === 
 === bvk cell = 50 has 52.632 % of the basis function pairs === 
 === bvk cell = 51 has 0.229 % of the basis function pairs === 
 === bvk cell = 52 has 0.000 % of the basis function pairs === 
 === bvk cell = 53 has 0.000 % of the basis function pairs === 
 === bvk cell = 54 has 37.300 % of the basis function pairs === 
 === bvk cell = 55 has 86.270 % of the basis function pairs === 
 === bvk cell = 56 has 52.632 % of the basis function pairs === 
 === bvk cell = 57 has 13.272 % of the basis function pairs === 
 === bvk cell = 58 has 0.000 % of the basis function pairs === 
 === bvk cell = 59 has 0.000 % of the basis function pairs === 
 === bvk cell = 60 has 0.000 % of the basis function pairs === 
 === bvk cell = 61 has 45.080 % of the basis function pairs === 
 === bvk cell = 62 has 78.490 % of the basis function pairs === 
 === bvk cell = 63 has 0.229 % of the basis function pairs === 
 === bvk cell = 64 has 0.000 % of the basis function pairs === 
 === bvk cell = 65 has 0.000 % of the basis function pairs === 
 === bvk cell = 66 has 0.000 % of the basis function pairs === 
 === bvk cell = 67 has 0.000 % of the basis function pairs === 
 === bvk cell = 68 has 0.229 % of the basis function pairs === 
 === bvk cell = 69 has 13.272 % of the basis function pairs === 
 === bvk cell = 70 has 0.000 % of the basis function pairs === 
 === bvk cell = 71 has 0.000 % of the basis function pairs === 
 === bvk cell = 72 has 0.000 % of the basis function pairs === 
 === bvk cell = 73 has 0.000 % of the basis function pairs === 
 === bvk cell = 74 has 0.000 % of the basis function pairs === 
 === bvk cell = 75 has 0.000 % of the basis function pairs === 
 === bvk cell = 76 has 0.000 % of the basis function pairs === 
 === bvk cell = 77 has 0.000 % of the basis function pairs === 
 === bvk cell = 78 has 0.000 % of the basis function pairs === 
 === bvk cell = 79 has 0.000 % of the basis function pairs === 
 === bvk cell = 80 has 0.000 % of the basis function pairs === 
 === bvk cell = 81 has 0.000 % of the basis function pairs === 
 === bvk cell = 82 has 0.000 % of the basis function pairs === 
 === bvk cell = 83 has 0.000 % of the basis function pairs === 
 === bvk cell = 84 has 37.300 % of the basis function pairs === 
 === bvk cell = 85 has 45.080 % of the basis function pairs === 
 === bvk cell = 86 has 0.229 % of the basis function pairs === 
 === bvk cell = 87 has 0.000 % of the basis function pairs === 
 === bvk cell = 88 has 0.000 % of the basis function pairs === 
 === bvk cell = 89 has 0.000 % of the basis function pairs === 
 === bvk cell = 90 has 5.263 % of the basis function pairs === 
 === bvk cell = 91 has 86.270 % of the basis function pairs === 
 === bvk cell = 92 has 78.490 % of the basis function pairs === 
 === bvk cell = 93 has 13.272 % of the basis function pairs === 
 === bvk cell = 94 has 0.000 % of the basis function pairs === 
 === bvk cell = 95 has 0.000 % of the basis function pairs === 
 === bvk cell = 96 has 5.263 % of the basis function pairs === 
 === bvk cell = 97 has 73.455 % of the basis function pairs === 
 === bvk cell = 98 has 27.689 % of the basis function pairs === 
 === bvk cell = 99 has 0.229 % of the basis function pairs === 
 === bvk cell = 100 has 0.000 % of the basis function pairs === 
 === bvk cell = 101 has 0.000 % of the basis function pairs === 
 === bvk cell = 102 has 0.000 % of the basis function pairs === 
 === bvk cell = 103 has 4.348 % of the basis function pairs === 
 === bvk cell = 104 has 50.114 % of the basis function pairs === 
 === bvk cell = 105 has 0.229 % of the basis function pairs === 
 === bvk cell = 106 has 0.000 % of the basis function pairs === 
 === bvk cell = 107 has 0.000 % of the basis function pairs === 
 === bvk cell = 108 has 0.000 % of the basis function pairs === 
 === bvk cell = 109 has 0.000 % of the basis function pairs === 
 === bvk cell = 110 has 0.229 % of the basis function pairs === 
[...]
 0.72580 0.81696 0.83271 0.90689 1.01191 1.03903 1.05446 1.12869 1.22578 1.29155
 1.35025 1.38837 1.46763 1.59206 2.05744 2.10895
 == 292-th k-point (0.26242,0.08747,0.26242) occupation: 14==
 -64.99625 -64.99625 -4.62586 -4.62582 -3.03750 -3.03750 -3.03737 -3.03690 -3.03680 -3.03677
 -0.10528 0.08219 0.17849 0.24046 0.37998 0.42848 0.43084 0.53254 0.57668 0.69831
 0.72074 0.79316 0.83751 0.93714 0.95840 1.04360 1.09425 1.18879 1.25763 1.33050
 1.33756 1.42196 1.49618 1.60091 1.87039 2.34861
 == 293-th k-point (0.34990,0.17495,0.17495) occupation: 14==
 -64.99626 -64.99624 -4.62586 -4.62583 -3.03751 -3.03751 -3.03734 -3.03693 -3.03678 -3.03678
 -0.09171 0.05685 0.19396 0.21353 0.36166 0.42528 0.45398 0.50536 0.69061 0.69958
 0.70625 0.77528 0.82540 0.90260 0.97483 1.09272 1.10110 1.17029 1.17779 1.26148
 1.36304 1.40341 1.45717 1.65905 1.67305 2.59076
 == 294-th k-point (-0.78727,0.26242,0.26242) occupation: 14==
 -64.99626 -64.99625 -4.62586 -4.62585 -3.03751 -3.03751 -3.03732 -3.03695 -3.03678 -3.03677
 -0.07099 0.02463 0.17835 0.22087 0.36529 0.42232 0.43938 0.59596 0.62302 0.65328
 0.78010 0.81378 0.82227 0.83769 1.01403 1.07680 1.12495 1.14647 1.17711 1.24032
 1.39168 1.41023 1.41300 1.57385 1.73233 2.57596
 == 295-th k-point (-0.69980,0.34990,0.17495) occupation: 14==
 -64.99625 -64.99625 -4.62588 -4.62586 -3.03752 -3.03751 -3.03728 -3.03699 -3.03677 -3.03675
 -0.06269 0.03905 0.13990 0.19049 0.39711 0.41292 0.48955 0.53446 0.60371 0.68125
 0.78832 0.82855 0.86921 0.93202 0.97094 1.03823 1.08444 1.12549 1.13411 1.22353
 1.31157 1.36125 1.42468 1.56350 1.85500 2.26342
 == 296-th k-point (-0.61232,0.43737,0.08747) occupation: 14==
 -64.99625 -64.99625 -4.62590 -4.62588 -3.03754 -3.03753 -3.03720 -3.03706 -3.03675 -3.03674
 -0.04285 0.02768 0.14292 0.15825 0.36417 0.37927 0.51428 0.60607 0.63876 0.71255
 0.77281 0.83407 0.85102 0.94347 0.95973 1.02200 1.09246 1.11805 1.14721 1.16041
 1.26467 1.28901 1.39818 1.46050 1.96561 1.98149
 == 297-th k-point (-0.52485,0.52485,-0.00000) occupation: 14==
 -64.99625 -64.99624 -4.62590 -4.62589 -3.03753 -3.03752 -3.03716 -3.03711 -3.03676 -3.03674
 -0.01534 -0.00474 0.14036 0.17570 0.31450 0.36196 0.61158 0.62459 0.65160 0.67651
 0.79512 0.83489 0.84246 0.85584 0.99585 1.03852 1.09688 1.14159 1.15702 1.20083
 1.21777 1.25379 1.39752 1.45407 1.79786 2.22250
 == 298-th k-point (-0.43737,0.61232,-0.08747) occupation: 14==
 -64.99625 -64.99625 -4.62590 -4.62588 -3.03754 -3.03753 -3.03720 -3.03706 -3.03675 -3.03674
 -0.04285 0.02768 0.14292 0.15825 0.36417 0.37927 0.51428 0.60607 0.63876 0.71255
 0.77281 0.83407 0.85102 0.94347 0.95973 1.02200 1.09246 1.11805 1.14721 1.16041
 1.26467 1.28901 1.39818 1.46050 1.96561 1.98149
 == 299-th k-point (-0.34990,0.69980,-0.17495) occupation: 14==
 -64.99625 -64.99625 -4.62588 -4.62586 -3.03752 -3.03751 -3.03728 -3.03699 -3.03677 -3.03675
 -0.06269 0.03905 0.13990 0.19049 0.39711 0.41292 0.48955 0.53446 0.60371 0.68125
 0.78832 0.82855 0.86921 0.93202 0.97094 1.03823 1.08444 1.12549 1.13411 1.22353
 1.31157 1.36125 1.42468 1.56350 1.85500 2.26342
 == 300-th k-point (-0.26242,0.78727,-0.26242) occupation: 14==
 -64.99626 -64.99625 -4.62586 -4.62585 -3.03751 -3.03751 -3.03732 -3.03695 -3.03678 -3.03677
 -0.07099 0.02463 0.17835 0.22087 0.36529 0.42232 0.43938 0.59596 0.62302 0.65328
 0.78010 0.81378 0.82227 0.83769 1.01403 1.07680 1.12495 1.14647 1.17711 1.24032
 1.39168 1.41023 1.41300 1.57385 1.73233 2.57596
 == 301-th k-point (-0.69980,0.17495,0.34990) occupation: 14==
 -64.99625 -64.99625 -4.62588 -4.62586 -3.03752 -3.03751 -3.03728 -3.03699 -3.03677 -3.03675
 -0.06269 0.03905 0.13990 0.19049 0.39711 0.41292 0.48955 0.53446 0.60371 0.68125
 0.78832 0.82855 0.86921 0.93202 0.97094 1.03823 1.08444 1.12549 1.13411 1.22353
 1.31157 1.36125 1.42468 1.56350 1.85500 2.26342
 == 302-th k-point (-0.61232,0.26242,0.26242) occupation: 14==
 -64.99625 -64.99625 -4.62587 -4.62586 -3.03751 -3.03750 -3.03730 -3.03698 -3.03679 -3.03675
 -0.06937 0.05179 0.12259 0.21451 0.35909 0.48489 0.50589 0.52601 0.57841 0.59605
 0.82488 0.86479 0.88363 0.93184 0.96293 0.99312 1.03454 1.12459 1.20872 1.28555
 1.30604 1.34747 1.44715 1.66072 1.97344 2.21311
 == 303-th k-point (-0.52485,0.34990,0.17495) occupation: 14==
 -64.99625 -64.99625 -4.62588 -4.62586 -3.03752 -3.03751 -3.03728 -3.03699 -3.03677 -3.03675
 -0.06269 0.03905 0.13990 0.19049 0.39711 0.41292 0.48955 0.53446 0.60371 0.68125
 0.78832 0.82855 0.86921 0.93202 0.97094 1.03823 1.08444 1.12549 1.13411 1.22353
 1.31157 1.36125 1.42468 1.56350 1.85500 2.26342
 == 304-th k-point (-0.43737,0.43737,0.08747) occupation: 14==
 -64.99625 -64.99625 -4.62589 -4.62587 -3.03752 -3.03751 -3.03725 -3.03703 -3.03677 -3.03674
 -0.04534 0.02384 0.12544 0.19376 0.33616 0.47108 0.52001 0.52059 0.62488 0.64959
 0.81722 0.83980 0.87453 0.97779 0.98976 0.99384 1.04623 1.07954 1.18692 1.21141
 1.28362 1.29288 1.42481 1.62920 1.68898 2.36944
 == 305-th k-point (-0.34990,0.52485,-0.00000) occupation: 14==
 -64.99625 -64.99625 -4.62589 -4.62589 -3.03754 -3.03753 -3.03719 -3.03707 -3.03675 -3.03674
 -0.02656 0.01298 0.11907 0.16173 0.38459 0.46732 0.49220 0.50082 0.62816 0.68538
 0.79978 0.85802 0.90921 0.98824 0.99360 1.01170 1.02604 1.06398 1.14181 1.14653
 1.25321 1.27857 1.45300 1.48922 1.80763 1.97661
 == 306-th k-point (-0.26242,0.61232,-0.08747) occupation: 14==
 -64.99625 -64.99625 -4.62589 -4.62589 -3.03754 -3.03753 -3.03719 -3.03707 -3.03675 -3.03674
 -0.02656 0.01298 0.11907 0.16173 0.38459 0.46732 0.49220 0.50082 0.62816 0.68538
 0.79978 0.85802 0.90921 0.98824 0.99360 1.01170 1.02604 1.06398 1.14181 1.14653
 1.25321 1.27857 1.45300 1.48922 1.80763 1.97661
 == 307-th k-point (-0.17495,0.69980,-0.17495) occupation: 14==
 -64.99625 -64.99625 -4.62589 -4.62587 -3.03752 -3.03751 -3.03725 -3.03703 -3.03677 -3.03674
 -0.04534 0.02384 0.12544 0.19376 0.33616 0.47108 0.52001 0.52059 0.62488 0.64959
 0.81722 0.83980 0.87453 0.97779 0.98976 0.99384 1.04623 1.07954 1.18692 1.21141
 1.28362 1.29288 1.42481 1.62920 1.68899 2.36944
 == 308-th k-point (-0.61232,0.08747,0.43737) occupation: 14==
 -64.99625 -64.99625 -4.62590 -4.62588 -3.03754 -3.03753 -3.03720 -3.03706 -3.03675 -3.03674
 -0.04285 0.02768 0.14292 0.15825 0.36417 0.37927 0.51428 0.60607 0.63876 0.71255
 0.77281 0.83407 0.85102 0.94347 0.95973 1.02200 1.09246 1.11805 1.14721 1.16041
 1.26467 1.28901 1.39818 1.46050 1.96561 1.98149
 == 309-th k-point (-0.52485,0.17495,0.34990) occupation: 14==
 -64.99625 -64.99625 -4.62588 -4.62586 -3.03752 -3.03751 -3.03728 -3.03699 -3.03677 -3.03675
 -0.06269 0.03905 0.13990 0.19049 0.39711 0.41292 0.48955 0.53446 0.60371 0.68125
 0.78832 0.82855 0.86921 0.93202 0.97094 1.03823 1.08444 1.12549 1.13411 1.22353
 1.31157 1.36125 1.42468 1.56350 1.85500 2.26342
 == 310-th k-point (-0.43737,0.26242,0.26242) occupation: 14==
 -64.99626 -64.99625 -4.62586 -4.62585 -3.03751 -3.03751 -3.03732 -3.03695 -3.03678 -3.03677
 -0.07099 0.02463 0.17835 0.22087 0.36529 0.42232 0.43938 0.59596 0.62302 0.65328
 0.78010 0.81378 0.82227 0.83769 1.01403 1.07680 1.12495 1.14647 1.17711 1.24032
 1.39168 1.41023 1.41300 1.57385 1.73233 2.57596
 == 311-th k-point (-0.34990,0.34990,0.17495) occupation: 14==
 -64.99626 -64.99625 -4.62586 -4.62585 -3.03751 -3.03751 -3.03732 -3.03695 -3.03678 -3.03677
 -0.07099 0.02463 0.17835 0.22087 0.36529 0.42232 0.43938 0.59596 0.62302 0.65328
 0.78010 0.81378 0.82227 0.83769 1.01403 1.07680 1.12495 1.14647 1.17711 1.24032
 1.39168 1.41023 1.41300 1.57385 1.73233 2.57596
 == 312-th k-point (-0.26242,0.43737,0.08747) occupation: 14==
 -64.99625 -64.99625 -4.62588 -4.62586 -3.03752 -3.03751 -3.03728 -3.03699 -3.03677 -3.03675
 -0.06269 0.03905 0.13990 0.19049 0.39711 0.41292 0.48955 0.53446 0.60371 0.68125
 0.78832 0.82855 0.86921 0.93202 0.97094 1.03823 1.08444 1.12549 1.13411 1.22353
 1.31157 1.36125 1.42468 1.56350 1.85500 2.26342
 == 313-th k-point (-0.17495,0.52485,0.00000) occupation: 14==
 -64.99625 -64.99625 -4.62590 -4.62588 -3.03754 -3.03753 -3.03720 -3.03706 -3.03675 -3.03674
 -0.04285 0.02768 0.14292 0.15825 0.36417 0.37927 0.51428 0.60607 0.63876 0.71255
 0.77281 0.83407 0.85102 0.94347 0.95973 1.02200 1.09246 1.11805 1.14721 1.16041
 1.26467 1.28901 1.39818 1.46050 1.96561 1.98149
 == 314-th k-point (-0.08747,0.61232,-0.08747) occupation: 14==
 -64.99625 -64.99624 -4.62590 -4.62589 -3.03753 -3.03752 -3.03716 -3.03711 -3.03676 -3.03674
 -0.01534 -0.00474 0.14036 0.17570 0.31450 0.36196 0.61158 0.62459 0.65160 0.67651
 0.79512 0.83489 0.84246 0.85584 0.99585 1.03852 1.09688 1.14159 1.15702 1.20083
 1.21777 1.25379 1.39752 1.45407 1.79787 2.22250
 == 315-th k-point (-0.52485,0.00000,0.52485) occupation: 14==
 -64.99625 -64.99624 -4.62590 -4.62589 -3.03753 -3.03752 -3.03716 -3.03711 -3.03676 -3.03674
 -0.01534 -0.00474 0.14036 0.17570 0.31450 0.36196 0.61158 0.62459 0.65160 0.67651
 0.79512 0.83489 0.84246 0.85584 0.99585 1.03852 1.09688 1.14159 1.15702 1.20083
 1.21777 1.25379 1.39752 1.45407 1.79786 2.22250
 == 316-th k-point (-0.43737,0.08747,0.43737) occupation: 14==
 -64.99625 -64.99625 -4.62589 -4.62587 -3.03752 -3.03751 -3.03725 -3.03703 -3.03677 -3.03674
 -0.04534 0.02384 0.12544 0.19376 0.33616 0.47108 0.52001 0.52059 0.62488 0.64959
 0.81722 0.83980 0.87453 0.97779 0.98976 0.99384 1.04623 1.07954 1.18692 1.21141
 1.28362 1.29288 1.42481 1.62920 1.68898 2.36944
 == 317-th k-point (-0.34990,0.17495,0.34990) occupation: 14==
 -64.99626 -64.99625 -4.62586 -4.62585 -3.03751 -3.03751 -3.03732 -3.03695 -3.03678 -3.03677
 -0.07099 0.02463 0.17835 0.22087 0.36529 0.42232 0.43938 0.59596 0.62302 0.65328
 0.78010 0.81378 0.82227 0.83769 1.01403 1.07680 1.12495 1.14647 1.17711 1.24032
 1.39168 1.41023 1.41300 1.57385 1.73233 2.57596
 == 318-th k-point (-0.26242,0.26242,0.26242) occupation: 14==
 -64.99626 -64.99624 -4.62586 -4.62585 -3.03751 -3.03751 -3.03736 -3.03690 -3.03678 -3.03678
 -0.08792 0.03289 0.23371 0.23371 0.33954 0.41043 0.41043 0.60130 0.67225 0.67225
 0.69887 0.79721 0.79721 0.81009 0.97763 1.14271 1.16009 1.16009 1.25658 1.25658
 1.29646 1.47460 1.47460 1.53842 1.53842 2.61073
 == 319-th k-point (-0.17495,0.34990,0.17495) occupation: 14==
 -64.99626 -64.99624 -4.62586 -4.62583 -3.03751 -3.03751 -3.03734 -3.03693 -3.03678 -3.03678
 -0.09171 0.05685 0.19396 0.21353 0.36166 0.42528 0.45398 0.50536 0.69061 0.69958
 0.70625 0.77528 0.82540 0.90260 0.97483 1.09272 1.10110 1.17029 1.17779 1.26148
 1.36304 1.40341 1.45717 1.65905 1.67305 2.59076
 == 320-th k-point (-0.08747,0.43737,0.08747) occupation: 14==
 -64.99625 -64.99624 -4.62591 -4.62585 -3.03752 -3.03752 -3.03728 -3.03699 -3.03677 -3.03676
 -0.07937 0.06770 0.16098 0.18748 0.32670 0.38459 0.53184 0.53968 0.71037 0.71859
 0.73389 0.76587 0.86801 0.90707 0.97719 1.03599 1.07176 1.08032 1.18202 1.28711
 1.31439 1.32723 1.40141 1.55494 1.81312 2.33135
 == 321-th k-point (0.00000,0.52485,0.00000) occupation: 14==
 -64.99624 -64.99624 -4.62591 -4.62587 -3.03753 -3.03753 -3.03721 -3.03706 -3.03676 -3.03676
 -0.05054 0.03075 0.17341 0.17341 0.30266 0.32343 0.62347 0.62347 0.72810 0.73406
 0.75717 0.75717 0.79543 0.85201 1.01328 1.03319 1.09256 1.09256 1.23312 1.23312
 1.23647 1.29098 1.42328 1.46093 1.92571 1.92572
 == 322-th k-point (-0.43737,-0.08747,0.61232) occupation: 14==
 -64.99625 -64.99625 -4.62590 -4.62588 -3.03754 -3.03753 -3.03720 -3.03706 -3.03675 -3.03674
 -0.04285 0.02768 0.14292 0.15825 0.36417 0.37927 0.51428 0.60607 0.63876 0.71255
 0.77281 0.83407 0.85102 0.94347 0.95973 1.02200 1.09246 1.11805 1.14721 1.16041
 1.26467 1.28901 1.39818 1.46050 1.96561 1.98149
 == 323-th k-point (-0.34990,0.00000,0.52485) occupation: 14==
 -64.99625 -64.99625 -4.62589 -4.62589 -3.03754 -3.03753 -3.03719 -3.03707 -3.03675 -3.03674
 -0.02656 0.01298 0.11907 0.16173 0.38459 0.46732 0.49220 0.50082 0.62816 0.68538
 0.79978 0.85802 0.90921 0.98824 0.99360 1.01170 1.02604 1.06398 1.14181 1.14653
 1.25321 1.27857 1.45300 1.48922 1.80763 1.97661
 == 324-th k-point (-0.26242,0.08747,0.43737) occupation: 14==
 -64.99625 -64.99625 -4.62588 -4.62586 -3.03752 -3.03751 -3.03728 -3.03699 -3.03677 -3.03675
 -0.06269 0.03905 0.13990 0.19049 0.39711 0.41292 0.48955 0.53446 0.60371 0.68125
 0.78832 0.82855 0.86921 0.93202 0.97094 1.03823 1.08444 1.12549 1.13411 1.22353
 1.31157 1.36125 1.42468 1.56350 1.85500 2.26342
 == 325-th k-point (-0.17495,0.17495,0.34990) occupation: 14==
 -64.99626 -64.99624 -4.62586 -4.62583 -3.03751 -3.03751 -3.03734 -3.03693 -3.03678 -3.03678
 -0.09171 0.05685 0.19396 0.21353 0.36166 0.42528 0.45398 0.50536 0.69061 0.69958
 0.70625 0.77528 0.82540 0.90260 0.97483 1.09272 1.10110 1.17029 1.17779 1.26148
 1.36304 1.40341 1.45717 1.65905 1.67305 2.59076
 == 326-th k-point (-0.08747,0.26242,0.26242) occupation: 14==
 -64.99625 -64.99625 -4.62586 -4.62582 -3.03750 -3.03750 -3.03737 -3.03690 -3.03680 -3.03677
 -0.10528 0.08219 0.17849 0.24046 0.37998 0.42848 0.43084 0.53254 0.57668 0.69831
 0.72074 0.79316 0.83751 0.93714 0.95840 1.04360 1.09425 1.18879 1.25763 1.33050
 1.33756 1.42196 1.49618 1.60091 1.87039 2.34861
 == 327-th k-point (0.00000,0.34990,0.17495) occupation: 14==
 -64.99625 -64.99625 -4.62588 -4.62583 -3.03751 -3.03750 -3.03733 -3.03693 -3.03679 -3.03677
 -0.10119 0.09609 0.16113 0.21079 0.37758 0.42851 0.43999 0.51365 0.61971 0.71402
 0.72580 0.81696 0.83271 0.90689 1.01191 1.03903 1.05446 1.12869 1.22578 1.29155
 1.35025 1.38837 1.46763 1.59206 2.05744 2.10895
 == 328-th k-point (0.08747,0.43737,0.08747) occupation: 14==
 -64.99625 -64.99624 -4.62591 -4.62585 -3.03752 -3.03752 -3.03728 -3.03699 -3.03677 -3.03676
 -0.07937 0.06770 0.16098 0.18748 0.32670 0.38459 0.53184 0.53968 0.71037 0.71859
 0.73389 0.76587 0.86801 0.90707 0.97719 1.03599 1.07176 1.08032 1.18202 1.28711
 1.31439 1.32723 1.40141 1.55494 1.81312 2.33134
 == 329-th k-point (-0.34990,-0.17495,0.69980) occupation: 14==
 -64.99625 -64.99625 -4.62588 -4.62586 -3.03752 -3.03751 -3.03728 -3.03699 -3.03677 -3.03675
 -0.06269 0.03905 0.13990 0.19049 0.39711 0.41292 0.48955 0.53446 0.60371 0.68125
 0.78832 0.82855 0.86921 0.93202 0.97094 1.03823 1.08444 1.12549 1.13411 1.22353
 1.31157 1.36125 1.42468 1.56350 1.85500 2.26342
 == 330-th k-point (-0.26242,-0.08747,0.61232) occupation: 14==
 -64.99625 -64.99625 -4.62589 -4.62589 -3.03754 -3.03753 -3.03719 -3.03707 -3.03675 -3.03674
 -0.02656 0.01298 0.11907 0.16173 0.38459 0.46732 0.49220 0.50082 0.62816 0.68538
 0.79978 0.85802 0.90921 0.98824 0.99360 1.01170 1.02604 1.06398 1.14181 1.14653
 1.25321 1.27857 1.45300 1.48922 1.80763 1.97661
 == 331-th k-point (-0.17495,0.00000,0.52485) occupation: 14==
 -64.99625 -64.99625 -4.62590 -4.62588 -3.03754 -3.03753 -3.03720 -3.03706 -3.03675 -3.03674
 -0.04285 0.02768 0.14292 0.15825 0.36417 0.37927 0.51428 0.60607 0.63876 0.71255
 0.77281 0.83407 0.85102 0.94347 0.95973 1.02200 1.09246 1.11805 1.14721 1.16041
 1.26467 1.28901 1.39818 1.46050 1.96561 1.98149
 == 332-th k-point (-0.08747,0.08747,0.43737) occupation: 14==
 -64.99625 -64.99624 -4.62591 -4.62585 -3.03752 -3.03752 -3.03728 -3.03699 -3.03677 -3.03676
 -0.07937 0.06770 0.16098 0.18748 0.32670 0.38459 0.53184 0.53968 0.71037 0.71859
 0.73389 0.76587 0.86801 0.90707 0.97719 1.03599 1.07176 1.08032 1.18202 1.28711
 1.31439 1.32723 1.40141 1.55494 1.81312 2.33135
 == 333-th k-point (0.00000,0.17495,0.34990) occupation: 14==
 -64.99625 -64.99625 -4.62588 -4.62583 -3.03751 -3.03750 -3.03733 -3.03693 -3.03679 -3.03677
 -0.10119 0.09609 0.16113 0.21079 0.37758 0.42851 0.43999 0.51365 0.61971 0.71402
 0.72580 0.81696 0.83271 0.90689 1.01191 1.03903 1.05446 1.12869 1.22578 1.29155
 1.35025 1.38837 1.46763 1.59206 2.05744 2.10895
 == 334-th k-point (0.08747,0.26242,0.26242) occupation: 14==
 -64.99625 -64.99625 -4.62586 -4.62582 -3.03750 -3.03750 -3.03737 -3.03690 -3.03680 -3.03677
 -0.10528 0.08219 0.17849 0.24046 0.37998 0.42848 0.43084 0.53254 0.57668 0.69831
 0.72074 0.79316 0.83751 0.93714 0.95840 1.04360 1.09425 1.18879 1.25763 1.33050
 1.33756 1.42196 1.49618 1.60091 1.87039 2.34861
 == 335-th k-point (0.17495,0.34990,0.17495) occupation: 14==
 -64.99626 -64.99624 -4.62586 -4.62583 -3.03751 -3.03751 -3.03734 -3.03693 -3.03678 -3.03678
 -0.09171 0.05685 0.19396 0.21353 0.36166 0.42528 0.45398 0.50536 0.69061 0.69958
 0.70625 0.77528 0.82540 0.90260 0.97483 1.09272 1.10110 1.17029 1.17779 1.26148
 1.36304 1.40341 1.45717 1.65905 1.67305 2.59076
 == 336-th k-point (-0.26242,-0.26242,0.78727) occupation: 14==
 -64.99626 -64.99625 -4.62586 -4.62585 -3.03751 -3.03751 -3.03732 -3.03695 -3.03678 -3.03677
 -0.07099 0.02463 0.17835 0.22087 0.36529 0.42232 0.43938 0.59596 0.62302 0.65328
 0.78010 0.81378 0.82227 0.83769 1.01403 1.07680 1.12495 1.14647 1.17711 1.24032
 1.39168 1.41023 1.41300 1.57385 1.73233 2.57596
 == 337-th k-point (-0.17495,-0.17495,0.69980) occupation: 14==
 -64.99625 -64.99625 -4.62589 -4.62587 -3.03752 -3.03751 -3.03725 -3.03703 -3.03677 -3.03674
 -0.04534 0.02384 0.12544 0.19376 0.33616 0.47108 0.52001 0.52059 0.62488 0.64959
 0.81722 0.83980 0.87453 0.97779 0.98976 0.99384 1.04623 1.07954 1.18692 1.21141
 1.28362 1.29288 1.42481 1.62920 1.68899 2.36944
 == 338-th k-point (-0.08747,-0.08747,0.61232) occupation: 14==
 -64.99625 -64.99624 -4.62590 -4.62589 -3.03753 -3.03752 -3.03716 -3.03711 -3.03676 -3.03674
 -0.01534 -0.00474 0.14036 0.17570 0.31450 0.36196 0.61158 0.62459 0.65160 0.67651
 0.79512 0.83489 0.84246 0.85584 0.99585 1.03852 1.09688 1.14159 1.15702 1.20083
 1.21777 1.25379 1.39752 1.45407 1.79787 2.22250
 == 339-th k-point (0.00000,0.00000,0.52485) occupation: 14==
 -64.99624 -64.99624 -4.62591 -4.62587 -3.03753 -3.03753 -3.03721 -3.03706 -3.03676 -3.03676
 -0.05054 0.03075 0.17341 0.17341 0.30266 0.32343 0.62347 0.62347 0.72810 0.73406
 0.75717 0.75717 0.79543 0.85201 1.01328 1.03319 1.09256 1.09256 1.23312 1.23312
 1.23647 1.29098 1.42328 1.46093 1.92571 1.92572
 == 340-th k-point (0.08747,0.08747,0.43737) occupation: 14==
 -64.99625 -64.99624 -4.62591 -4.62585 -3.03752 -3.03752 -3.03728 -3.03699 -3.03677 -3.03676
 -0.07937 0.06770 0.16098 0.18748 0.32670 0.38459 0.53184 0.53968 0.71037 0.71859
 0.73389 0.76587 0.86801 0.90707 0.97719 1.03599 1.07176 1.08032 1.18202 1.28711
 1.31439 1.32723 1.40141 1.55494 1.81312 2.33134
 == 341-th k-point (0.17495,0.17495,0.34990) occupation: 14==
 -64.99626 -64.99624 -4.62586 -4.62583 -3.03751 -3.03751 -3.03734 -3.03693 -3.03678 -3.03678
 -0.09171 0.05685 0.19396 0.21353 0.36166 0.42528 0.45398 0.50536 0.69061 0.69958
 0.70625 0.77528 0.82540 0.90260 0.97483 1.09272 1.10110 1.17029 1.17779 1.26148
 1.36304 1.40341 1.45717 1.65905 1.67305 2.59076
 == 342-th k-point (0.26242,0.26242,0.26242) occupation: 14==
 -64.99626 -64.99624 -4.62586 -4.62585 -3.03751 -3.03751 -3.03736 -3.03690 -3.03678 -3.03678
 -0.08792 0.03289 0.23371 0.23371 0.33954 0.41043 0.41043 0.60130 0.67225 0.67225
 0.69887 0.79721 0.79721 0.81009 0.97763 1.14271 1.16009 1.16009 1.25658 1.25658
 1.29646 1.47460 1.47460 1.53842 1.53842 2.61073
 ---------------------------------------------------------------------------
 VBM is at 171-th k-point with 7.58902 eV
 CBM is at 3-th k-point with 8.23592 eV
 Band gap is 0.64689 eV


           Ground-State Mulliken Net Atomic Charges

      Atom                 Charge (a.u.)          Spin (a.u.)
   --------------------------------------------------------
      1 Si               (-0.000000,0.000000)    (0.000000,0.000000)
      2 Si               (0.000000,-0.000000)    (0.000000,0.000000)
   --------------------------------------------------------
  Sum of atomic charges =      (0.000000,-0.000000)
  Sum of spin   charges =       (0.000000,0.000000)



 Total job time:  47.96 s.
 Tue Sep  9 11:05:30 2025


        *************************************************************
        *                                                           *
        *  Thank you very much for using QCPBC. Have a nice day.    *
        *                                                           *
        *************************************************************

Running job 1 of 1
