                  Welcome to Q-Chem
           with Periodic Boundary Condition
     A Quantum Leap Into The Future Of Chemistry

 Adam Rettig, Xintian Feng, Meng-Fu Chen, Hieu Dinh, Stephen Quiton,
 Anton Ni, Paul J. Robinson, Jinghong Zhang, Joonho Lee

Contributors to earlier versions of Q-Chem not listed above:
 Evgeny Epifanovsky, Leo Cunha, Jerome F. Gonthier, Kuan-Yu Liu
 Input file: /n/netscratch/joonholee_lab/Lab/hieudinh//si_2_ccpvdz_omega_0.3_222.scratch20250909105818/si_2_ccpvdz_omega_0.3_222.0
 Scratch folder: /n/netscratch/joonholee_lab/Lab/hieudinh//si_2_ccpvdz_omega_0.3_222.scratch20250909105818
 Auxillary files located at: /n/holylabs/LABS/joonholee_lab/Lab/qchem_base/qcaux
 Q-Chem begins on Tue Sep  9 10:58:18 2025

 -------------------------------------------------------------
 User input:
 -------------------------------------------------------------
 $lattice
 3
 0.000000 5.130600 5.130600
 5.130600 0.000000 5.130600
 5.130600 5.130600 0.000000
 $end
 
 $unitcell
 ABSOLUTE
 0 1
 Si 0.000000 0.000000 0.000000
 Si 2.565300 2.565300 2.565300
 $end
 
 $rem
 jobtype = sp
 method = pbe
 scf_convergence = 5
 scf_guess = autosad
 scf_algorithm = diis_gdm
 basis = cc-pvdz
 aux_basis = cc-pvtz-jk
 input_bohr = true
 symmetry = false
 rsdf_print_level 1
 is_basis_uctr true
 
 mp_mesh = [2,2,2]
 
 integral_direct true
 bvk_cgto true
 
 thresh 14
 mem_total 1000000
 threads 32
 
 MAX_SCF_CYCLES 500
 madelung = false
 omega 0.3
 do_rij_bigmem true
 automate_g true
 print_level 10
 grid_type_xc 1
 
 thresh_1e2c_sp 1e-14
 thresh_2e3c_bra_ket_sep 1e-10
 thresh_g 1e-12
 $end
 
 -------------------------------------------------------------
 Running PBC job

 Requested Exchange Correlation Functionals: 
  DFT Exchange:  1.00000 pbe_x
  DFT Correlation:  1.00000 pbe_c
 using 32 threads for computing.
 ---------------------------------------------------------------
      Coordinates of Atoms in Central Unit Cell (Angstroms)
    I     Atom         X            Y            Z
 ---------------------------------------------------------------
    1      Si      0.000000     0.000000     0.000000
    2      Si      1.357498     1.357498     1.357498
 ---------------------------------------------------------------
 --------------------------------------------------
              Lattice Vectors (Angstroms)
              X            Y            Z
 --------------------------------------------------
   X       0.000000     2.714997     2.714997
   Y       2.714997     0.000000     2.714997
   Z       2.714997     2.714997     0.000000
 --------------------------------------------------
 --------------------------------------------------
       Reciprocal Lattice Vectors (Angstroms^-1)
              X            Y            Z
 --------------------------------------------------
   X      -1.157126     1.157126     1.157126
   Y       1.157126    -1.157126     1.157126
   Z       1.157126     1.157126    -1.157126
 --------------------------------------------------

 Single point calculation requested

 Hamiltonian contributions:
 List of terms in Hamiltonian: kpts_nn, kpts_kinetic, kpts_vnuc_df, kpts_xc, kpts_rij_bigmem

 K-Points calculation started.

 Basis set information about using solid harmonic (1) or Cartesian (0):
  si : D(1) 

 Basis set information about using solid harmonic (1) or Cartesian (0):
  si : D(1) D(1) D(1) D(1) D(1) D(1) D(1) D(1) D(1) F(1) F(1) F(1) G(1) 

 There are 36 basis functions in the central unit cell.
 Print atomic basis of atoms in the central unit cell:
 -------------------------------------------------------------
2 84 84 16

  0.00000000000000e+00  0.00000000000000e+00  0.00000000000000e+00
  2.56530000000000e+00  2.56530000000000e+00  2.56530000000000e+00

  7.88600000000000e+04
  1.18200000000000e+04
  2.69200000000000e+03
  7.63400000000000e+02
  2.49600000000000e+02
  9.02800000000000e+01
  3.52900000000000e+01
  1.45100000000000e+01
  4.05300000000000e+00
  7.88600000000000e+04
  1.18200000000000e+04
  2.69200000000000e+03
  2.49600000000000e+02
  9.02800000000000e+01
  3.52900000000000e+01
  1.45100000000000e+01
  4.05300000000000e+00
  1.48200000000000e+00
  7.88600000000000e+04
  1.18200000000000e+04
  2.69200000000000e+03
  9.02800000000000e+01
  3.52900000000000e+01
  1.45100000000000e+01
  4.05300000000000e+00
  1.48200000000000e+00
  2.51700000000000e-01
  9.24300000000000e-02
  3.15900000000000e+02
  7.44200000000000e+01
  2.34800000000000e+01
  8.48800000000000e+00
  3.21700000000000e+00
  1.22900000000000e+00
  7.44200000000000e+01
  2.34800000000000e+01
  8.48800000000000e+00
  3.21700000000000e+00
  1.22900000000000e+00
  2.96400000000000e-01
  8.76800000000000e-02
  2.75000000000000e-01
  7.88600000000000e+04
  1.18200000000000e+04
  2.69200000000000e+03
  7.63400000000000e+02
  2.49600000000000e+02
  9.02800000000000e+01
  3.52900000000000e+01
  1.45100000000000e+01
  4.05300000000000e+00
  7.88600000000000e+04
  1.18200000000000e+04
  2.69200000000000e+03
  2.49600000000000e+02
  9.02800000000000e+01
  3.52900000000000e+01
  1.45100000000000e+01
  4.05300000000000e+00
  1.48200000000000e+00
  7.88600000000000e+04
  1.18200000000000e+04
  2.69200000000000e+03
  9.02800000000000e+01
  3.52900000000000e+01
  1.45100000000000e+01
  4.05300000000000e+00
  1.48200000000000e+00
  2.51700000000000e-01
  9.24300000000000e-02
  3.15900000000000e+02
  7.44200000000000e+01
  2.34800000000000e+01
  8.48800000000000e+00
  3.21700000000000e+00
  1.22900000000000e+00
  7.44200000000000e+01
  2.34800000000000e+01
  8.48800000000000e+00
  3.21700000000000e+00
  1.22900000000000e+00
  2.96400000000000e-01
  8.76800000000000e-02
  2.75000000000000e-01

  9.06253754413352e-01
  1.69293104204437e+00
  2.88765135213002e+00
  4.51686717623273e+00
  6.15495015249549e+00
  6.60292741422250e+00
  4.31307094498082e+00
  1.11211258821928e+00
  3.28871017883051e-02
  1.81811499558714e-03
  7.82084807797983e-03
 -3.64325186414446e-03
 -1.38589915538590e-01
 -3.09231066968474e-01
 -8.37223961363792e-01
 -2.35283994917911e-01
  1.05074974557404e+00
  5.58607098057301e-01
 -3.73189052056138e-04
 -4.34506392374390e-04
 -1.25465717071959e-03
  1.25391036214459e-02
  2.72204657714548e-02
  2.48300227161584e-02
 -1.48880417762021e-01
 -3.39029634838718e-01
  2.96723365521804e-01
  1.19473010431857e-01
  7.49634571599597e+00
  9.36025063316295e+00
  9.42818987380764e+00
  6.66500330898836e+00
  2.81728351118454e+00
  4.95548501763808e-01
  1.33801616421722e-01
 -1.41076498099296e-01
  2.71250274850203e-02
 -2.30271473527780e-01
  1.34383996261684e-01
  3.01514460345638e-01
  6.80089021682769e-02
  1.71886461192366e-01
  9.06253754413352e-01
  1.69293104204437e+00
  2.88765135213002e+00
  4.51686717623273e+00
  6.15495015249549e+00
  6.60292741422250e+00
  4.31307094498082e+00
  1.11211258821928e+00
  3.28871017883051e-02
  1.81811499558714e-03
  7.82084807797983e-03
 -3.64325186414446e-03
 -1.38589915538590e-01
 -3.09231066968474e-01
 -8.37223961363792e-01
 -2.35283994917911e-01
  1.05074974557404e+00
  5.58607098057301e-01
 -3.73189052056138e-04
 -4.34506392374390e-04
 -1.25465717071959e-03
  1.25391036214459e-02
  2.72204657714548e-02
  2.48300227161584e-02
 -1.48880417762021e-01
 -3.39029634838718e-01
  2.96723365521804e-01
  1.19473010431857e-01
  7.49634571599597e+00
  9.36025063316295e+00
  9.42818987380764e+00
  6.66500330898836e+00
  2.81728351118454e+00
  4.95548501763808e-01
  1.33801616421722e-01
 -1.41076498099296e-01
  2.71250274850203e-02
 -2.30271473527780e-01
  1.34383996261684e-01
  3.01514460345638e-01
  6.80089021682769e-02
  1.71886461192366e-01

0 0 0 0 1 1 1
0 0 
9 0

0 1 1 9 1 1 1
9 0 
9 0

0 2 2 18 1 1 1
18 0 
9 0

0 3 3 27 1 1 1
27 0 
1 0

0 4 4 28 1 3 3
28 1 
6 0

0 7 7 34 1 3 3
34 1 
6 0

0 10 10 40 1 3 3
40 1 
1 0

0 13 13 41 1 5 6
41 2 
1 1

1 18 18 42 1 1 1
42 0 
9 0

1 19 19 51 1 1 1
51 0 
9 0

1 20 20 60 1 1 1
60 0 
9 0

1 21 21 69 1 1 1
69 0 
1 0

1 22 22 70 1 3 3
70 1 
6 0

1 25 25 76 1 3 3
76 1 
6 0

1 28 28 82 1 3 3
82 1 
1 0

1 31 31 83 1 5 6
83 2 
1 1

 -------------------------------------------------------------
 Allocate 259112 B from available memory: 1048576000000 B
 There are 1331 image cells after screening.
 There are 1221 image cells for CGTO evaluation after screening.
 Real-Space grid for FFT initialized based on kinetic energy cutoff (eV) = 500.0
 Real-Space grid for FFT: (10,10,10)
 There are 9261 real-space grid points.
 There are 64 batches of real-space grid points. 
 Size of each grid batch is around 128
 Grid for AFT initialized based on kinetic energy cutoff (eV) = 500.0
 Real-Space grid for AFT: (10,10,10)
 There are 9261 real-space grid points.

 There are 5456 atom-centered grid points.

 Spacegroup symmetry group: Fd-3m
 Reducing spacegroup symmetry to symmorphic group: F -4 3 m
 Monkhorst-Pack mesh is [2,2,2]
 There are 8 k points.
kpoints in Bohr
0.0000000000 0.0000000000 0.0000000000
0.3061623059 0.3061623059 -0.3061623059
0.3061623059 -0.3061623059 0.3061623059
0.6123246119 0.0000000000 0.0000000000
-0.3061623059 0.3061623059 0.3061623059
0.0000000000 0.6123246119 0.0000000000
0.0000000000 0.0000000000 0.6123246119
0.3061623059 0.3061623059 0.3061623059
 There are 14 alpha and 14 beta electrons
 Start computing overlap matrix
 Allocate 165888 B from available memory: 1048575740896 B
 Time for computing overlap matrix: 1.5850000000 s
 ====== Initialize compute kernels for all-electron RI-J (kpts) ====== 
 ========================================================== 
 Range-separated parameter omega        = 0.299999999999999989
 Threshold for 1e2c shellpair           = 0.000000000000010000
 Threshold for 2e2c SR integral         = 0.000000000000000001
 Threshold for 2e3c SR integral         = 0.000000000100000000
 Threshold for AFT G-space screening is = 0.000000000001000000
 The exponent cutoff for C/D classification (omega2 / 2) is  = 0.044999999999999998
 ========================================================== 
 === Post process the basis set for RI calculation (exp_cutoff = 0.044999999999999998 ) === 
nshells_b1 before uncontraction = 16
nshells_b1 after uncontraction = 16
nshells_baux before uncontraction = 74
nshells_baux after uncontraction = 74
===============================================
nbsf total   = 36
nbsf compact = 36
nbsf diffuse = 0
naux total   = 242
naux compact = 242
naux diffuse = 0
nshells_bnuc = 2

 Number of unique atoms is 1
 Unique atom #0 (si) has 8 shells.

Shell 0 to 7 belongs to atom si
Shell 8 to 15 belongs to atom si

 Number of unique atom is 1
 Unique atom #0 (si) has 37 auxiliary shells.

Auxiliary Shell 0 to 36 belongs to atom si
Auxiliary Shell 37 to 73 belongs to atom si

================= Automatically determine grid size for reciprocal space summation =================
 Range-separated parameter = 0.30000000000000 and G-space screening threshold = 0.00000000000100
The number of grid points along each axis dimension is (4, 4, 4)
Total number of grid points = 729

Use nonortho shellpair for diffuse density
======== Initializing relevant kernel for RIJ (CC type) ========
There are 135 shellpairs in the reference unit cell
There are 2395 images and we expect to have 323325 in total
There are 9752 shellpairs in the lattice sum after screening
****** AFT -> SR ******
Maximum bra distance cutoff is 24.000000000000
Maximum bra ket distance cutoff is 35.357348128408
Maximum bra ket screening distance is 28.093750000000
Number of auxiliary image is 1409
There are 135 shellpairs in the reference unit cell
There are 551 images and we expect to have 74385 in total
There are 9752 shellpairs in the lattice sum after screening
Available memory per thread for 2e3c calculation is 32.767986719000Gb
Finish initializing 2e3c SR with the lattice sum!
=================================================
======== Initialize the SR component for Vnuc (CC type) ========
Maximum bra distance cutoff is 24.000000000000
Maximum bra ket distance cutoff is 29.210206846529
Maximum bra ket screening distance is 21.726328375039
Number of auxiliary image is 911
There are 135 shellpairs in the reference unit cell
There are 551 images and we expect to have 74385 in total
There are 9752 shellpairs in the lattice sum after screening
Available memory per thread for 2e3c calculation is 32.767986719000Gb
Finish initializing 2e3c SR with the lattice sum!
=================================================
 Aufbau occupation scheme, occupation determined by eigenvalue
 == 0-th k-point nmo = 36 (0.00000,0.00000,0.00000) ==
 == 1-th k-point nmo = 36 (0.30616,0.30616,-0.30616) ==
 == 2-th k-point nmo = 36 (0.30616,-0.30616,0.30616) ==
 == 3-th k-point nmo = 36 (0.61232,0.00000,0.00000) ==
 == 4-th k-point nmo = 36 (-0.30616,0.30616,0.30616) ==
 == 5-th k-point nmo = 36 (0.00000,0.61232,0.00000) ==
 == 6-th k-point nmo = 36 (0.00000,0.00000,0.61232) ==
 == 7-th k-point nmo = 36 (0.30616,0.30616,0.30616) ==

 Generate autoSAD guess
backing up fragment data
Atom # 0: si, charge: 0, multiplicity: 3.000000
writing autosad to fragment context
Settings for isolated fragments: 
  frgm_gamma: TRUE
  frgm_center: FALSE

    Running SCF for isolated atom #0
    Fragment Input file: /n/netscratch/joonholee_lab/Lab/hieudinh//si_2_ccpvdz_omega_0.3_222.scratch20250909105818/autosad_frgmt_0/frgmt_input.in
    Fragment Output file: /n/netscratch/joonholee_lab/Lab/hieudinh//si_2_ccpvdz_omega_0.3_222.scratch20250909105818/autosad_frgmt_0/frgmt_job.out
    Fragment job begins at Tue Sep  9 10:58:21 2025

 Integrated density by DFT XC:
   Numerical integral  =    13.999999917315
   Relative error      =     0.0000005906 %
Final energy components:
 DFT Correlation            Energy =  -0.48513826889399
 DFT Exchange               Energy = -20.16642564451805
 Kinetic (alpha)            Energy = 145.25889537694889
 Kinetic (beta)             Energy = 143.28753845481592
 Nuclear Attraction (alpha) Energy = -351.37163574421527
 Nuclear Attraction (beta)  Energy = -337.75785676323699
 Nuclear Repulsion          Energy =   0.00000000000000
 SEOQF                      Energy =  -0.00000000097530
 Total Coulomb              Energy = 132.01551581812907
----------------------------------------------
    SCF Energy: -289.2191067719
   Total fragment job time:  0.41 s.
restoring fragment data

 ------------------------------------------------------------------------
 Allocate 653952 B from available memory: 1048575575008 B
 Time for generating SCF guess: 0.42 s

 Allocate 69752 B from available memory: 1048574921056 B
 Selected algorithms for each term:
  kpts_kinetic -> @0x14ac19240680
  kpts_nn -> @0x14ac19240800
  kpts_rij_bigmem -> @0x14ac192403e0
  kpts_vnuc_df -> @0x14ac19240380
  kpts_xc -> @0x14ac192402c0
 Time for computing kinetic matrix is 1.65 s
Start calculating Vnuc CC type!
 Time for computing nuclear attraction matrix is 1.77 s
Compute (P|Q) and use solve on the fly!
Maximum distance between P and Q is 36.45654200218807
Number of images for (P|Qn) is 1633
 Time for computing 2e2c SR integral is 0.13 s
Maximum dynamic memory per thread for 2e3c SR integrals: 0.003 GiB
Batch size for basis function pair is 703 out of 703
 === bvk cell = 0 has 100.000 % of the basis function pairs === 
 === bvk cell = 1 has 94.879 % of the basis function pairs === 
 === bvk cell = 2 has 94.879 % of the basis function pairs === 
 === bvk cell = 3 has 91.465 % of the basis function pairs === 
 === bvk cell = 4 has 94.879 % of the basis function pairs === 
 === bvk cell = 5 has 91.465 % of the basis function pairs === 
 === bvk cell = 6 has 91.465 % of the basis function pairs === 
 === bvk cell = 7 has 91.465 % of the basis function pairs === 
Static memory requirement for 2e3c SR integrals: 0.010 GB
There are 1 munu batches for computing 2e3c SR integrals with latsum
There are 4 Q batches for computing 2e3c SR integrals with latsum
 Time for computing 2e3c SR integral (CC) is 1.39 s
 Time for RI-J this SCF iteration is 1.56 s
 Time for RI-J this SCF iteration is 0.03 s
 ----------------------------------------------
 Guess energy: -578.6629744917
 ----------------------------------------------
 Guess energy components:
 DFT Correlation    Energy =  -1.09032438070798
 DFT Exchange       Energy = -40.65300374848997
 Kinetic            Energy = 578.05492154638011
 Nuclear Attraction Energy = -1187.29876164430311
 Nuclear Repulsion  Energy = -102.89365928466421
 Total Coulomb      Energy = 175.21785302008951
 ----------------------------------------------
  Cycle       Energy         DIIS error
 ----------------------------------------------
 Time for RI-J this SCF iteration is 0.03 s
    1    -578.6736933795      4.29e-03  
 Energy components after cycle 1:
 DFT Correlation    Energy =  -1.09404949234122
 DFT Exchange       Energy = -40.54927713453667
 Kinetic            Energy = 577.11703330309047
 Nuclear Attraction Energy = -1185.23339786090037
 Nuclear Repulsion  Energy = -102.89365928466421
 Total Coulomb      Energy = 173.97965708982375
    2    -578.6736933795      1.40e-03  
 Energy components after cycle 2:
 DFT Correlation    Energy =  -1.09404949234122
 DFT Exchange       Energy = -40.54927713453667
 Kinetic            Energy = 577.11703330309047
 Nuclear Attraction Energy = -1185.23339786090037
 Nuclear Repulsion  Energy = -102.89365928466421
 Total Coulomb      Energy = 173.97965708982375
 ----------------------------------------------
  Cycle       Energy        RMS Gradient
 ----------------------------------------------
 Time for RI-J this SCF iteration is 0.04 s
    1    -578.6744300726      2.29e-02   Normal BFGS step
 Energy components after cycle 1:
 DFT Correlation    Energy =  -1.09313779167446
 DFT Exchange       Energy = -40.58391232173192
 Kinetic            Energy = 577.46667681935003
 Nuclear Attraction Energy = -1185.92074626349472
 Nuclear Repulsion  Energy = -102.89365928466421
 Total Coulomb      Energy = 174.35034876963772
 Time for RI-J this SCF iteration is 0.03 s
    2    -578.6745364630      8.37e-03   Normal BFGS step
 Energy components after cycle 2:
 DFT Correlation    Energy =  -1.09329947963510
 DFT Exchange       Energy = -40.57618788961170
 Kinetic            Energy = 577.38565793136274
 Nuclear Attraction Energy = -1185.76680845676924
 Nuclear Repulsion  Energy = -102.89365928466421
 Total Coulomb      Energy = 174.26976071632913
 Time for RI-J this SCF iteration is 0.03 s
    3    -578.6745359181      1.94e-03   Normal BFGS step
 Energy components after cycle 3:
 DFT Correlation    Energy =  -1.09333755984480
 DFT Exchange       Energy = -40.57473553403956
 Kinetic            Energy = 577.37106316990617
 Nuclear Attraction Energy = -1185.73809172224173
 Nuclear Repulsion  Energy = -102.89365928466421
 Total Coulomb      Energy = 174.25422501279650
 Time for RI-J this SCF iteration is 0.03 s
    4    -578.6745403827      1.97e-03   Normal BFGS step
 Energy components after cycle 4:
 DFT Correlation    Energy =  -1.09332070419762
 DFT Exchange       Energy = -40.57550693326829
 Kinetic            Energy = 577.37911660701548
 Nuclear Attraction Energy = -1185.75348193950390
 Nuclear Repulsion  Energy = -102.89365928466421
 Total Coulomb      Energy = 174.26231187189504
 Time for RI-J this SCF iteration is 0.03 s
    5    -578.6745403971      9.87e-05   Normal BFGS step
 Energy components after cycle 5:
 DFT Correlation    Energy =  -1.09331752876121
 DFT Exchange       Energy = -40.57562784369960
 Kinetic            Energy = 577.38033194147579
 Nuclear Attraction Energy = -1185.75587551474518
 Nuclear Repulsion  Energy = -102.89365928466421
 Total Coulomb      Energy = 174.26360783333817
 Time for RI-J this SCF iteration is 0.03 s
    6    -578.6745404007      3.82e-05   Normal BFGS step
 Energy components after cycle 6:
 DFT Correlation    Energy =  -1.09331848614451
 DFT Exchange       Energy = -40.57558600255900
 Kinetic            Energy = 577.37989923171256
 Nuclear Attraction Energy = -1185.75504322602319
 Nuclear Repulsion  Energy = -102.89365928466421
 Total Coulomb      Energy = 174.26316736702515
 Time for RI-J this SCF iteration is 0.03 s
    7    -578.6745404007      5.51e-06   Normal BFGS step
 Energy components after cycle 7:
 DFT Correlation    Energy =  -1.09331856888888
 DFT Exchange       Energy = -40.57558329470831
 Kinetic            Energy = 577.37987302535817
 Nuclear Attraction Energy = -1185.75499001455910
 Nuclear Repulsion  Energy = -102.89365928466421
 Total Coulomb      Energy = 174.26313773678487
    7    -578.6745404007      5.51e-06  Convergence criterion met
 ----------------------------------------------
 Final energy components:
 DFT Correlation    Energy =  -1.09331856888888
 DFT Exchange       Energy = -40.57558329470831
 Kinetic            Energy = 577.37987302535817
 Nuclear Attraction Energy = -1185.75499001455910
 Nuclear Repulsion  Energy = -102.89365928466421
 Total Coulomb      Energy = 174.26313773678487
 ----------------------------------------------
 Final energy is -578.6745404007

 SCF time:   CPU 351.64s  wall 13.00s 
 Total wall time for computing Kinetic: 0.00 s (10)
 Total wall time for computing RIJ-BIGMEM: 1.83 s (10)
 Total wall time for computing RSDF Vnuc: 0.00 s (10)
 Total wall time for computing DFT XC: 4.20 s (10)
 ---------------------------------------------------------------------------
                        Orbital Energies (a.u.)
 ---------------------------------------------------------------------------
 == 0-th k-point (0.00000,0.00000,0.00000) occupation: 14==
 -64.97456 -64.97456 -4.60725 -4.60715 -3.01863 -3.01863 -3.01863 -3.01806 -3.01806 -3.01806
 -0.15530 0.28973 0.28973 0.28973 0.38144 0.38144 0.38144 0.41224 0.59292 0.59292
 0.62699 0.85132 0.85132 0.85132 1.07025 1.26608 1.26608 1.26608 1.27921 1.27921
 1.38845 1.38845 1.38845 1.69724 1.69724 1.69724
 == 1-th k-point (0.30616,0.30616,-0.30616) occupation: 14==
 -64.97457 -64.97456 -4.60738 -4.60735 -3.01872 -3.01872 -3.01856 -3.01811 -3.01799 -3.01799
 -0.06890 0.02702 0.24204 0.24204 0.34703 0.41462 0.41462 0.60690 0.71181 0.71181
 0.72752 0.76690 0.76690 0.80269 1.05869 1.06591 1.19662 1.19662 1.24304 1.24304
 1.32344 1.49332 1.49332 1.51248 1.51248 2.62298
 == 2-th k-point (0.30616,-0.30616,0.30616) occupation: 14==
 -64.97457 -64.97456 -4.60738 -4.60735 -3.01872 -3.01872 -3.01856 -3.01811 -3.01799 -3.01799
 -0.06890 0.02702 0.24204 0.24204 0.34703 0.41462 0.41462 0.60690 0.71181 0.71181
 0.72752 0.76690 0.76690 0.80269 1.05869 1.06591 1.19662 1.19662 1.24304 1.24304
 1.32344 1.49332 1.49332 1.51248 1.51248 2.62298
 == 3-th k-point (0.61232,0.00000,0.00000) occupation: 14==
 -64.97456 -64.97456 -4.60740 -4.60740 -3.01874 -3.01874 -3.01834 -3.01834 -3.01796 -3.01796
 -0.00229 -0.00229 0.17886 0.17886 0.31473 0.31473 0.66384 0.66384 0.73304 0.73304
 0.78282 0.78282 0.79427 0.79427 1.04873 1.04874 1.14094 1.14094 1.19454 1.19454
 1.25848 1.25848 1.43068 1.43068 1.92764 1.92764
 == 4-th k-point (-0.30616,0.30616,0.30616) occupation: 14==
 -64.97457 -64.97456 -4.60738 -4.60735 -3.01872 -3.01872 -3.01856 -3.01811 -3.01799 -3.01799
 -0.06890 0.02702 0.24204 0.24204 0.34703 0.41462 0.41462 0.60690 0.71181 0.71181
 0.72752 0.76690 0.76690 0.80269 1.05869 1.06591 1.19662 1.19662 1.24304 1.24304
 1.32344 1.49332 1.49332 1.51248 1.51248 2.62298
 == 5-th k-point (0.00000,0.61232,0.00000) occupation: 14==
 -64.97456 -64.97456 -4.60740 -4.60740 -3.01874 -3.01874 -3.01834 -3.01834 -3.01796 -3.01796
 -0.00229 -0.00229 0.17886 0.17886 0.31473 0.31473 0.66384 0.66384 0.73304 0.73304
 0.78282 0.78282 0.79427 0.79427 1.04873 1.04874 1.14094 1.14094 1.19454 1.19454
 1.25848 1.25848 1.43068 1.43068 1.92764 1.92764
 == 6-th k-point (0.00000,0.00000,0.61232) occupation: 14==
 -64.97456 -64.97456 -4.60740 -4.60740 -3.01874 -3.01874 -3.01834 -3.01834 -3.01796 -3.01796
 -0.00229 -0.00229 0.17886 0.17886 0.31473 0.31473 0.66384 0.66384 0.73304 0.73304
 0.78282 0.78282 0.79427 0.79427 1.04873 1.04874 1.14094 1.14094 1.19454 1.19454
 1.25848 1.25848 1.43068 1.43068 1.92764 1.92764
 == 7-th k-point (0.30616,0.30616,0.30616) occupation: 14==
 -64.97457 -64.97456 -4.60738 -4.60735 -3.01872 -3.01872 -3.01856 -3.01811 -3.01799 -3.01799
 -0.06890 0.02702 0.24204 0.24204 0.34703 0.41462 0.41462 0.60690 0.71181 0.71181
 0.72753 0.76690 0.76690 0.80269 1.05869 1.06591 1.19662 1.19662 1.24304 1.24304
 1.32344 1.49332 1.49332 1.51248 1.51248 2.62298
 ---------------------------------------------------------------------------
 VBM is at 0-th k-point with 7.88401 eV
 CBM is at 3-th k-point with 8.56411 eV
 Band gap is 0.68010 eV


           Ground-State Mulliken Net Atomic Charges

      Atom                 Charge (a.u.)          Spin (a.u.)
   --------------------------------------------------------
      1 Si              (-0.000000,-0.000000)    (0.000000,0.000000)
      2 Si                (0.000000,0.000000)    (0.000000,0.000000)
   --------------------------------------------------------
  Sum of atomic charges =       (0.000000,0.000000)
  Sum of spin   charges =       (0.000000,0.000000)



 Total job time:  13.14 s.
 Tue Sep  9 10:58:31 2025


        *************************************************************
        *                                                           *
        *  Thank you very much for using QCPBC. Have a nice day.    *
        *                                                           *
        *************************************************************

Running job 1 of 1
