                  Welcome to Q-Chem
           with Periodic Boundary Condition
     A Quantum Leap Into The Future Of Chemistry

 Adam Rettig, Xintian Feng, Meng-Fu Chen, Hieu Dinh, Stephen Quiton,
 Anton Ni, Paul J. Robinson, Jinghong Zhang, Joonho Lee

Contributors to earlier versions of Q-Chem not listed above:
 Evgeny Epifanovsky, Leo Cunha, Jerome F. Gonthier, Kuan-Yu Liu
 Input file: /n/netscratch/joonholee_lab/Lab/hieudinh//si_2_ccpvdz_omega_0.9_111111.scratch20250909112753/si_2_ccpvdz_omega_0.9_111111.0
 Scratch folder: /n/netscratch/joonholee_lab/Lab/hieudinh//si_2_ccpvdz_omega_0.9_111111.scratch20250909112753
 Auxillary files located at: /n/holylabs/LABS/joonholee_lab/Lab/qchem_base/qcaux
 Q-Chem begins on Tue Sep  9 11:27:53 2025

 -------------------------------------------------------------
 User input:
 -------------------------------------------------------------
 $lattice
 3
 0.000000 5.130600 5.130600
 5.130600 0.000000 5.130600
 5.130600 5.130600 0.000000
 $end
 
 $unitcell
 ABSOLUTE
 0 1
 Si 0.000000 0.000000 0.000000
 Si 2.565300 2.565300 2.565300
 $end
 
 $rem
 jobtype = sp
 method = pbe
 scf_convergence = 5
 scf_guess = autosad
 scf_algorithm = diis_gdm
 basis = cc-pvdz
 aux_basis = cc-pvtz-jk
 input_bohr = true
 symmetry = false
 rsdf_print_level 1
 is_basis_uctr true
 
 mp_mesh = [11,11,11]
 
 integral_direct true
 bvk_cgto true
 
 thresh 14
 mem_total 1000000
 threads 32
 
 MAX_SCF_CYCLES 500
 madelung = false
 omega 0.9
 do_rij_bigmem true
 automate_g true
 print_level 10
 grid_type_xc 1
 
 thresh_1e2c_sp 1e-14
 thresh_2e3c_bra_ket_sep 1e-10
 thresh_g 1e-12
 $end
 
 -------------------------------------------------------------
 Running PBC job

 Requested Exchange Correlation Functionals: 
  DFT Exchange:  1.00000 pbe_x
  DFT Correlation:  1.00000 pbe_c
 using 32 threads for computing.
 ---------------------------------------------------------------
      Coordinates of Atoms in Central Unit Cell (Angstroms)
    I     Atom         X            Y            Z
 ---------------------------------------------------------------
    1      Si      0.000000     0.000000     0.000000
    2      Si      1.357498     1.357498     1.357498
 ---------------------------------------------------------------
 --------------------------------------------------
              Lattice Vectors (Angstroms)
              X            Y            Z
 --------------------------------------------------
   X       0.000000     2.714997     2.714997
   Y       2.714997     0.000000     2.714997
   Z       2.714997     2.714997     0.000000
 --------------------------------------------------
 --------------------------------------------------
       Reciprocal Lattice Vectors (Angstroms^-1)
              X            Y            Z
 --------------------------------------------------
   X      -1.157126     1.157126     1.157126
   Y       1.157126    -1.157126     1.157126
   Z       1.157126     1.157126    -1.157126
 --------------------------------------------------

 Single point calculation requested

 Hamiltonian contributions:
 List of terms in Hamiltonian: kpts_nn, kpts_kinetic, kpts_vnuc_df, kpts_xc, kpts_rij_bigmem

 K-Points calculation started.

 Basis set information about using solid harmonic (1) or Cartesian (0):
  si : D(1) 

 Basis set information about using solid harmonic (1) or Cartesian (0):
  si : D(1) D(1) D(1) D(1) D(1) D(1) D(1) D(1) D(1) F(1) F(1) F(1) G(1) 

 There are 36 basis functions in the central unit cell.
 Print atomic basis of atoms in the central unit cell:
 -------------------------------------------------------------
2 84 84 16

  0.00000000000000e+00  0.00000000000000e+00  0.00000000000000e+00
  2.56530000000000e+00  2.56530000000000e+00  2.56530000000000e+00

  7.88600000000000e+04
  1.18200000000000e+04
  2.69200000000000e+03
  7.63400000000000e+02
  2.49600000000000e+02
  9.02800000000000e+01
  3.52900000000000e+01
  1.45100000000000e+01
  4.05300000000000e+00
  7.88600000000000e+04
  1.18200000000000e+04
  2.69200000000000e+03
  2.49600000000000e+02
  9.02800000000000e+01
  3.52900000000000e+01
  1.45100000000000e+01
  4.05300000000000e+00
  1.48200000000000e+00
  7.88600000000000e+04
  1.18200000000000e+04
  2.69200000000000e+03
  9.02800000000000e+01
  3.52900000000000e+01
  1.45100000000000e+01
  4.05300000000000e+00
  1.48200000000000e+00
  2.51700000000000e-01
  9.24300000000000e-02
  3.15900000000000e+02
  7.44200000000000e+01
  2.34800000000000e+01
  8.48800000000000e+00
  3.21700000000000e+00
  1.22900000000000e+00
  7.44200000000000e+01
  2.34800000000000e+01
  8.48800000000000e+00
  3.21700000000000e+00
  1.22900000000000e+00
  2.96400000000000e-01
  8.76800000000000e-02
  2.75000000000000e-01
  7.88600000000000e+04
  1.18200000000000e+04
  2.69200000000000e+03
  7.63400000000000e+02
  2.49600000000000e+02
  9.02800000000000e+01
  3.52900000000000e+01
  1.45100000000000e+01
  4.05300000000000e+00
  7.88600000000000e+04
  1.18200000000000e+04
  2.69200000000000e+03
  2.49600000000000e+02
  9.02800000000000e+01
  3.52900000000000e+01
  1.45100000000000e+01
  4.05300000000000e+00
  1.48200000000000e+00
  7.88600000000000e+04
  1.18200000000000e+04
  2.69200000000000e+03
  9.02800000000000e+01
  3.52900000000000e+01
  1.45100000000000e+01
  4.05300000000000e+00
  1.48200000000000e+00
  2.51700000000000e-01
  9.24300000000000e-02
  3.15900000000000e+02
  7.44200000000000e+01
  2.34800000000000e+01
  8.48800000000000e+00
  3.21700000000000e+00
  1.22900000000000e+00
  7.44200000000000e+01
  2.34800000000000e+01
  8.48800000000000e+00
  3.21700000000000e+00
  1.22900000000000e+00
  2.96400000000000e-01
  8.76800000000000e-02
  2.75000000000000e-01

  9.06253754413352e-01
  1.69293104204437e+00
  2.88765135213002e+00
  4.51686717623273e+00
  6.15495015249549e+00
  6.60292741422250e+00
  4.31307094498082e+00
  1.11211258821928e+00
  3.28871017883051e-02
  1.81811499558714e-03
  7.82084807797983e-03
 -3.64325186414446e-03
 -1.38589915538590e-01
 -3.09231066968474e-01
 -8.37223961363792e-01
 -2.35283994917911e-01
  1.05074974557404e+00
  5.58607098057301e-01
 -3.73189052056138e-04
 -4.34506392374390e-04
 -1.25465717071959e-03
  1.25391036214459e-02
  2.72204657714548e-02
  2.48300227161584e-02
 -1.48880417762021e-01
 -3.39029634838718e-01
  2.96723365521804e-01
  1.19473010431857e-01
  7.49634571599597e+00
  9.36025063316295e+00
  9.42818987380764e+00
  6.66500330898836e+00
  2.81728351118454e+00
  4.95548501763808e-01
  1.33801616421722e-01
 -1.41076498099296e-01
  2.71250274850203e-02
 -2.30271473527780e-01
  1.34383996261684e-01
  3.01514460345638e-01
  6.80089021682769e-02
  1.71886461192366e-01
  9.06253754413352e-01
  1.69293104204437e+00
  2.88765135213002e+00
  4.51686717623273e+00
  6.15495015249549e+00
  6.60292741422250e+00
  4.31307094498082e+00
  1.11211258821928e+00
  3.28871017883051e-02
  1.81811499558714e-03
  7.82084807797983e-03
 -3.64325186414446e-03
 -1.38589915538590e-01
 -3.09231066968474e-01
 -8.37223961363792e-01
 -2.35283994917911e-01
  1.05074974557404e+00
  5.58607098057301e-01
 -3.73189052056138e-04
 -4.34506392374390e-04
 -1.25465717071959e-03
  1.25391036214459e-02
  2.72204657714548e-02
  2.48300227161584e-02
 -1.48880417762021e-01
 -3.39029634838718e-01
  2.96723365521804e-01
  1.19473010431857e-01
  7.49634571599597e+00
  9.36025063316295e+00
  9.42818987380764e+00
  6.66500330898836e+00
  2.81728351118454e+00
  4.95548501763808e-01
  1.33801616421722e-01
 -1.41076498099296e-01
  2.71250274850203e-02
 -2.30271473527780e-01
  1.34383996261684e-01
  3.01514460345638e-01
  6.80089021682769e-02
  1.71886461192366e-01

0 0 0 0 1 1 1
0 0 
9 0

0 1 1 9 1 1 1
9 0 
9 0

0 2 2 18 1 1 1
18 0 
9 0

0 3 3 27 1 1 1
27 0 
1 0

0 4 4 28 1 3 3
28 1 
6 0

0 7 7 34 1 3 3
34 1 
6 0

0 10 10 40 1 3 3
40 1 
1 0

0 13 13 41 1 5 6
41 2 
1 1

1 18 18 42 1 1 1
42 0 
9 0

1 19 19 51 1 1 1
51 0 
9 0

1 20 20 60 1 1 1
60 0 
9 0

1 21 21 69 1 1 1
69 0 
1 0

1 22 22 70 1 3 3
70 1 
6 0

1 25 25 76 1 3 3
76 1 
6 0

1 28 28 82 1 3 3
82 1 
1 0

1 31 31 83 1 5 6
83 2 
1 1

 -------------------------------------------------------------
 Allocate 259112 B from available memory: 1048576000000 B
 There are 1331 image cells after screening.
 There are 1221 image cells for CGTO evaluation after screening.
 Real-Space grid for FFT initialized based on kinetic energy cutoff (eV) = 500.0
 Real-Space grid for FFT: (10,10,10)
 There are 9261 real-space grid points.
 There are 64 batches of real-space grid points. 
 Size of each grid batch is around 128
 Grid for AFT initialized based on kinetic energy cutoff (eV) = 500.0
 Real-Space grid for AFT: (10,10,10)
 There are 9261 real-space grid points.

 There are 5456 atom-centered grid points.

 Spacegroup symmetry group: Fd-3m
 Reducing spacegroup symmetry to symmorphic group: F -4 3 m
 Monkhorst-Pack mesh is [11,11,11]
 There are 1331 k points.
kpoints in Bohr
-0.2783293690 -0.2783293690 -0.2783293690
-0.2226634952 -0.2226634952 -0.3339952428
-0.1669976214 -0.1669976214 -0.3896611166
-0.1113317476 -0.1113317476 -0.4453269904
-0.0556658738 -0.0556658738 -0.5009928642
-0.0000000000 -0.0000000000 -0.5566587381
0.0556658738 0.0556658738 -0.6123246119
0.1113317476 0.1113317476 -0.6679904857
0.1669976214 0.1669976214 -0.7236563595
0.2226634952 0.2226634952 -0.7793222333
0.2783293690 0.2783293690 -0.8349881071
-0.2226634952 -0.3339952428 -0.2226634952
-0.1669976214 -0.2783293690 -0.2783293690
-0.1113317476 -0.2226634952 -0.3339952428
-0.0556658738 -0.1669976214 -0.3896611166
-0.0000000000 -0.1113317476 -0.4453269904
0.0556658738 -0.0556658738 -0.5009928642
0.1113317476 -0.0000000000 -0.5566587381
0.1669976214 0.0556658738 -0.6123246119
0.2226634952 0.1113317476 -0.6679904857
0.2783293690 0.1669976214 -0.7236563595
0.3339952428 0.2226634952 -0.7793222333
-0.1669976214 -0.3896611166 -0.1669976214
-0.1113317476 -0.3339952428 -0.2226634952
-0.0556658738 -0.2783293690 -0.2783293690
-0.0000000000 -0.2226634952 -0.3339952428
0.0556658738 -0.1669976214 -0.3896611166
0.1113317476 -0.1113317476 -0.4453269904
0.1669976214 -0.0556658738 -0.5009928642
0.2226634952 -0.0000000000 -0.5566587381
0.2783293690 0.0556658738 -0.6123246119
0.3339952428 0.1113317476 -0.6679904857
0.3896611166 0.1669976214 -0.7236563595
-0.1113317476 -0.4453269904 -0.1113317476
-0.0556658738 -0.3896611166 -0.1669976214
-0.0000000000 -0.3339952428 -0.2226634952
0.0556658738 -0.2783293690 -0.2783293690
0.1113317476 -0.2226634952 -0.3339952428
0.1669976214 -0.1669976214 -0.3896611166
0.2226634952 -0.1113317476 -0.4453269904
0.2783293690 -0.0556658738 -0.5009928642
0.3339952428 0.0000000000 -0.5566587381
0.3896611166 0.0556658738 -0.6123246119
0.4453269904 0.1113317476 -0.6679904857
-0.0556658738 -0.5009928642 -0.0556658738
-0.0000000000 -0.4453269904 -0.1113317476
0.0556658738 -0.3896611166 -0.1669976214
0.1113317476 -0.3339952428 -0.2226634952
0.1669976214 -0.2783293690 -0.2783293690
0.2226634952 -0.2226634952 -0.3339952428
0.2783293690 -0.1669976214 -0.3896611166
0.3339952428 -0.1113317476 -0.4453269904
0.3896611166 -0.0556658738 -0.5009928642
0.4453269904 0.0000000000 -0.5566587381
0.5009928642 0.0556658738 -0.6123246119
-0.0000000000 -0.5566587381 0.0000000000
0.0556658738 -0.5009928642 -0.0556658738
0.1113317476 -0.4453269904 -0.1113317476
0.1669976214 -0.3896611166 -0.1669976214
0.2226634952 -0.3339952428 -0.2226634952
0.2783293690 -0.2783293690 -0.2783293690
0.3339952428 -0.2226634952 -0.3339952428
0.3896611166 -0.1669976214 -0.3896611166
0.4453269904 -0.1113317476 -0.4453269904
0.5009928642 -0.0556658738 -0.5009928642
0.5566587381 0.0000000000 -0.5566587381
0.0556658738 -0.6123246119 0.0556658738
0.1113317476 -0.5566587381 0.0000000000
0.1669976214 -0.5009928642 -0.0556658738
0.2226634952 -0.4453269904 -0.1113317476
0.2783293690 -0.3896611166 -0.1669976214
0.3339952428 -0.3339952428 -0.2226634952
0.3896611166 -0.2783293690 -0.2783293690
0.4453269904 -0.2226634952 -0.3339952428
0.5009928642 -0.1669976214 -0.3896611166
0.5566587381 -0.1113317476 -0.4453269904
0.6123246119 -0.0556658738 -0.5009928642
0.1113317476 -0.6679904857 0.1113317476
0.1669976214 -0.6123246119 0.0556658738
0.2226634952 -0.5566587381 0.0000000000
0.2783293690 -0.5009928642 -0.0556658738
0.3339952428 -0.4453269904 -0.1113317476
0.3896611166 -0.3896611166 -0.1669976214
0.4453269904 -0.3339952428 -0.2226634952
0.5009928642 -0.2783293690 -0.2783293690
0.5566587381 -0.2226634952 -0.3339952428
0.6123246119 -0.1669976214 -0.3896611166
0.6679904857 -0.1113317476 -0.4453269904
0.1669976214 -0.7236563595 0.1669976214
0.2226634952 -0.6679904857 0.1113317476
0.2783293690 -0.6123246119 0.0556658738
0.3339952428 -0.5566587381 0.0000000000
0.3896611166 -0.5009928642 -0.0556658738
0.4453269904 -0.4453269904 -0.1113317476
0.5009928642 -0.3896611166 -0.1669976214
0.5566587381 -0.3339952428 -0.2226634952
0.6123246119 -0.2783293690 -0.2783293690
0.6679904857 -0.2226634952 -0.3339952428
0.7236563595 -0.1669976214 -0.3896611166
0.2226634952 -0.7793222333 0.2226634952
0.2783293690 -0.7236563595 0.1669976214
0.3339952428 -0.6679904857 0.1113317476
0.3896611166 -0.6123246119 0.0556658738
0.4453269904 -0.5566587381 0.0000000000
0.5009928642 -0.5009928642 -0.0556658738
0.5566587381 -0.4453269904 -0.1113317476
0.6123246119 -0.3896611166 -0.1669976214
0.6679904857 -0.3339952428 -0.2226634952
0.7236563595 -0.2783293690 -0.2783293690
0.7793222333 -0.2226634952 -0.3339952428
0.2783293690 -0.8349881071 0.2783293690
0.3339952428 -0.7793222333 0.2226634952
0.3896611166 -0.7236563595 0.1669976214
0.4453269904 -0.6679904857 0.1113317476
0.5009928642 -0.6123246119 0.0556658738
0.5566587381 -0.5566587381 0.0000000000
0.6123246119 -0.5009928642 -0.0556658738
0.6679904857 -0.4453269904 -0.1113317476
0.7236563595 -0.3896611166 -0.1669976214
0.7793222333 -0.3339952428 -0.2226634952
0.8349881071 -0.2783293690 -0.2783293690
-0.3339952428 -0.2226634952 -0.2226634952
-0.2783293690 -0.1669976214 -0.2783293690
-0.2226634952 -0.1113317476 -0.3339952428
-0.1669976214 -0.0556658738 -0.3896611166
-0.1113317476 -0.0000000000 -0.4453269904
-0.0556658738 0.0556658738 -0.5009928642
-0.0000000000 0.1113317476 -0.5566587381
0.0556658738 0.1669976214 -0.6123246119
0.1113317476 0.2226634952 -0.6679904857
0.1669976214 0.2783293690 -0.7236563595
0.2226634952 0.3339952428 -0.7793222333
-0.2783293690 -0.2783293690 -0.1669976214
-0.2226634952 -0.2226634952 -0.2226634952
-0.1669976214 -0.1669976214 -0.2783293690
-0.1113317476 -0.1113317476 -0.3339952428
-0.0556658738 -0.0556658738 -0.3896611166
-0.0000000000 -0.0000000000 -0.4453269904
0.0556658738 0.0556658738 -0.5009928642
0.1113317476 0.1113317476 -0.5566587381
0.1669976214 0.1669976214 -0.6123246119
0.2226634952 0.2226634952 -0.6679904857
0.2783293690 0.2783293690 -0.7236563595
-0.2226634952 -0.3339952428 -0.1113317476
-0.1669976214 -0.2783293690 -0.1669976214
-0.1113317476 -0.2226634952 -0.2226634952
-0.0556658738 -0.1669976214 -0.2783293690
-0.0000000000 -0.1113317476 -0.3339952428
0.0556658738 -0.0556658738 -0.3896611166
0.1113317476 -0.0000000000 -0.4453269904
0.1669976214 0.0556658738 -0.5009928642
0.2226634952 0.1113317476 -0.5566587381
0.2783293690 0.1669976214 -0.6123246119
0.3339952428 0.2226634952 -0.6679904857
-0.1669976214 -0.3896611166 -0.0556658738
-0.1113317476 -0.3339952428 -0.1113317476
-0.0556658738 -0.2783293690 -0.1669976214
-0.0000000000 -0.2226634952 -0.2226634952
0.0556658738 -0.1669976214 -0.2783293690
0.1113317476 -0.1113317476 -0.3339952428
0.1669976214 -0.0556658738 -0.3896611166
0.2226634952 -0.0000000000 -0.4453269904
0.2783293690 0.0556658738 -0.5009928642
0.3339952428 0.1113317476 -0.5566587381
0.3896611166 0.1669976214 -0.6123246119
-0.1113317476 -0.4453269904 0.0000000000
-0.0556658738 -0.3896611166 -0.0556658738
-0.0000000000 -0.3339952428 -0.1113317476
0.0556658738 -0.2783293690 -0.1669976214
0.1113317476 -0.2226634952 -0.2226634952
0.1669976214 -0.1669976214 -0.2783293690
0.2226634952 -0.1113317476 -0.3339952428
0.2783293690 -0.0556658738 -0.3896611166
0.3339952428 -0.0000000000 -0.4453269904
0.3896611166 0.0556658738 -0.5009928642
0.4453269904 0.1113317476 -0.5566587381
-0.0556658738 -0.5009928642 0.0556658738
-0.0000000000 -0.4453269904 0.0000000000
0.0556658738 -0.3896611166 -0.0556658738
0.1113317476 -0.3339952428 -0.1113317476
0.1669976214 -0.2783293690 -0.1669976214
0.2226634952 -0.2226634952 -0.2226634952
0.2783293690 -0.1669976214 -0.2783293690
0.3339952428 -0.1113317476 -0.3339952428
0.3896611166 -0.0556658738 -0.3896611166
0.4453269904 0.0000000000 -0.4453269904
0.5009928642 0.0556658738 -0.5009928642
-0.0000000000 -0.5566587381 0.1113317476
0.0556658738 -0.5009928642 0.0556658738
0.1113317476 -0.4453269904 -0.0000000000
0.1669976214 -0.3896611166 -0.0556658738
0.2226634952 -0.3339952428 -0.1113317476
0.2783293690 -0.2783293690 -0.1669976214
0.3339952428 -0.2226634952 -0.2226634952
0.3896611166 -0.1669976214 -0.2783293690
0.4453269904 -0.1113317476 -0.3339952428
0.5009928642 -0.0556658738 -0.3896611166
0.5566587381 0.0000000000 -0.4453269904
0.0556658738 -0.6123246119 0.1669976214
0.1113317476 -0.5566587381 0.1113317476
0.1669976214 -0.5009928642 0.0556658738
0.2226634952 -0.4453269904 0.0000000000
0.2783293690 -0.3896611166 -0.0556658738
0.3339952428 -0.3339952428 -0.1113317476
0.3896611166 -0.2783293690 -0.1669976214
0.4453269904 -0.2226634952 -0.2226634952
0.5009928642 -0.1669976214 -0.2783293690
0.5566587381 -0.1113317476 -0.3339952428
0.6123246119 -0.0556658738 -0.3896611166
0.1113317476 -0.6679904857 0.2226634952
0.1669976214 -0.6123246119 0.1669976214
0.2226634952 -0.5566587381 0.1113317476
0.2783293690 -0.5009928642 0.0556658738
0.3339952428 -0.4453269904 0.0000000000
0.3896611166 -0.3896611166 -0.0556658738
0.4453269904 -0.3339952428 -0.1113317476
0.5009928642 -0.2783293690 -0.1669976214
0.5566587381 -0.2226634952 -0.2226634952
0.6123246119 -0.1669976214 -0.2783293690
0.6679904857 -0.1113317476 -0.3339952428
0.1669976214 -0.7236563595 0.2783293690
0.2226634952 -0.6679904857 0.2226634952
0.2783293690 -0.6123246119 0.1669976214
0.3339952428 -0.5566587381 0.1113317476
0.3896611166 -0.5009928642 0.0556658738
0.4453269904 -0.4453269904 0.0000000000
0.5009928642 -0.3896611166 -0.0556658738
0.5566587381 -0.3339952428 -0.1113317476
0.6123246119 -0.2783293690 -0.1669976214
0.6679904857 -0.2226634952 -0.2226634952
0.7236563595 -0.1669976214 -0.2783293690
0.2226634952 -0.7793222333 0.3339952428
0.2783293690 -0.7236563595 0.2783293690
0.3339952428 -0.6679904857 0.2226634952
0.3896611166 -0.6123246119 0.1669976214
0.4453269904 -0.5566587381 0.1113317476
0.5009928642 -0.5009928642 0.0556658738
0.5566587381 -0.4453269904 -0.0000000000
0.6123246119 -0.3896611166 -0.0556658738
0.6679904857 -0.3339952428 -0.1113317476
0.7236563595 -0.2783293690 -0.1669976214
0.7793222333 -0.2226634952 -0.2226634952
-0.3896611166 -0.1669976214 -0.1669976214
-0.3339952428 -0.1113317476 -0.2226634952
-0.2783293690 -0.0556658738 -0.2783293690
-0.2226634952 -0.0000000000 -0.3339952428
-0.1669976214 0.0556658738 -0.3896611166
-0.1113317476 0.1113317476 -0.4453269904
-0.0556658738 0.1669976214 -0.5009928642
-0.0000000000 0.2226634952 -0.5566587381
0.0556658738 0.2783293690 -0.6123246119
0.1113317476 0.3339952428 -0.6679904857
0.1669976214 0.3896611166 -0.7236563595
-0.3339952428 -0.2226634952 -0.1113317476
-0.2783293690 -0.1669976214 -0.1669976214
-0.2226634952 -0.1113317476 -0.2226634952
-0.1669976214 -0.0556658738 -0.2783293690
-0.1113317476 -0.0000000000 -0.3339952428
-0.0556658738 0.0556658738 -0.3896611166
-0.0000000000 0.1113317476 -0.4453269904
0.0556658738 0.1669976214 -0.5009928642
0.1113317476 0.2226634952 -0.5566587381
0.1669976214 0.2783293690 -0.6123246119
0.2226634952 0.3339952428 -0.6679904857
-0.2783293690 -0.2783293690 -0.0556658738
-0.2226634952 -0.2226634952 -0.1113317476
-0.1669976214 -0.1669976214 -0.1669976214
-0.1113317476 -0.1113317476 -0.2226634952
-0.0556658738 -0.0556658738 -0.2783293690
-0.0000000000 -0.0000000000 -0.3339952428
0.0556658738 0.0556658738 -0.3896611166
0.1113317476 0.1113317476 -0.4453269904
0.1669976214 0.1669976214 -0.5009928642
0.2226634952 0.2226634952 -0.5566587381
0.2783293690 0.2783293690 -0.6123246119
-0.2226634952 -0.3339952428 0.0000000000
-0.1669976214 -0.2783293690 -0.0556658738
-0.1113317476 -0.2226634952 -0.1113317476
-0.0556658738 -0.1669976214 -0.1669976214
-0.0000000000 -0.1113317476 -0.2226634952
0.0556658738 -0.0556658738 -0.2783293690
0.1113317476 -0.0000000000 -0.3339952428
0.1669976214 0.0556658738 -0.3896611166
0.2226634952 0.1113317476 -0.4453269904
0.2783293690 0.1669976214 -0.5009928642
0.3339952428 0.2226634952 -0.5566587381
-0.1669976214 -0.3896611166 0.0556658738
-0.1113317476 -0.3339952428 0.0000000000
-0.0556658738 -0.2783293690 -0.0556658738
-0.0000000000 -0.2226634952 -0.1113317476
0.0556658738 -0.1669976214 -0.1669976214
0.1113317476 -0.1113317476 -0.2226634952
0.1669976214 -0.0556658738 -0.2783293690
0.2226634952 0.0000000000 -0.3339952428
0.2783293690 0.0556658738 -0.3896611166
0.3339952428 0.1113317476 -0.4453269904
0.3896611166 0.1669976214 -0.5009928642
-0.1113317476 -0.4453269904 0.1113317476
-0.0556658738 -0.3896611166 0.0556658738
-0.0000000000 -0.3339952428 0.0000000000
0.0556658738 -0.2783293690 -0.0556658738
0.1113317476 -0.2226634952 -0.1113317476
0.1669976214 -0.1669976214 -0.1669976214
0.2226634952 -0.1113317476 -0.2226634952
0.2783293690 -0.0556658738 -0.2783293690
0.3339952428 0.0000000000 -0.3339952428
0.3896611166 0.0556658738 -0.3896611166
0.4453269904 0.1113317476 -0.4453269904
-0.0556658738 -0.5009928642 0.1669976214
-0.0000000000 -0.4453269904 0.1113317476
0.0556658738 -0.3896611166 0.0556658738
0.1113317476 -0.3339952428 0.0000000000
0.1669976214 -0.2783293690 -0.0556658738
0.2226634952 -0.2226634952 -0.1113317476
0.2783293690 -0.1669976214 -0.1669976214
0.3339952428 -0.1113317476 -0.2226634952
0.3896611166 -0.0556658738 -0.2783293690
0.4453269904 0.0000000000 -0.3339952428
0.5009928642 0.0556658738 -0.3896611166
-0.0000000000 -0.5566587381 0.2226634952
0.0556658738 -0.5009928642 0.1669976214
0.1113317476 -0.4453269904 0.1113317476
0.1669976214 -0.3896611166 0.0556658738
0.2226634952 -0.3339952428 0.0000000000
0.2783293690 -0.2783293690 -0.0556658738
0.3339952428 -0.2226634952 -0.1113317476
0.3896611166 -0.1669976214 -0.1669976214
0.4453269904 -0.1113317476 -0.2226634952
0.5009928642 -0.0556658738 -0.2783293690
0.5566587381 0.0000000000 -0.3339952428
0.0556658738 -0.6123246119 0.2783293690
0.1113317476 -0.5566587381 0.2226634952
0.1669976214 -0.5009928642 0.1669976214
0.2226634952 -0.4453269904 0.1113317476
0.2783293690 -0.3896611166 0.0556658738
0.3339952428 -0.3339952428 0.0000000000
0.3896611166 -0.2783293690 -0.0556658738
0.4453269904 -0.2226634952 -0.1113317476
0.5009928642 -0.1669976214 -0.1669976214
0.5566587381 -0.1113317476 -0.2226634952
0.6123246119 -0.0556658738 -0.2783293690
0.1113317476 -0.6679904857 0.3339952428
0.1669976214 -0.6123246119 0.2783293690
0.2226634952 -0.5566587381 0.2226634952
0.2783293690 -0.5009928642 0.1669976214
0.3339952428 -0.4453269904 0.1113317476
0.3896611166 -0.3896611166 0.0556658738
0.4453269904 -0.3339952428 0.0000000000
0.5009928642 -0.2783293690 -0.0556658738
0.5566587381 -0.2226634952 -0.1113317476
0.6123246119 -0.1669976214 -0.1669976214
0.6679904857 -0.1113317476 -0.2226634952
0.1669976214 -0.7236563595 0.3896611166
0.2226634952 -0.6679904857 0.3339952428
0.2783293690 -0.6123246119 0.2783293690
0.3339952428 -0.5566587381 0.2226634952
0.3896611166 -0.5009928642 0.1669976214
0.4453269904 -0.4453269904 0.1113317476
0.5009928642 -0.3896611166 0.0556658738
0.5566587381 -0.3339952428 0.0000000000
0.6123246119 -0.2783293690 -0.0556658738
0.6679904857 -0.2226634952 -0.1113317476
0.7236563595 -0.1669976214 -0.1669976214
-0.4453269904 -0.1113317476 -0.1113317476
-0.3896611166 -0.0556658738 -0.1669976214
-0.3339952428 -0.0000000000 -0.2226634952
-0.2783293690 0.0556658738 -0.2783293690
-0.2226634952 0.1113317476 -0.3339952428
-0.1669976214 0.1669976214 -0.3896611166
-0.1113317476 0.2226634952 -0.4453269904
-0.0556658738 0.2783293690 -0.5009928642
-0.0000000000 0.3339952428 -0.5566587381
0.0556658738 0.3896611166 -0.6123246119
0.1113317476 0.4453269904 -0.6679904857
-0.3896611166 -0.1669976214 -0.0556658738
-0.3339952428 -0.1113317476 -0.1113317476
-0.2783293690 -0.0556658738 -0.1669976214
-0.2226634952 -0.0000000000 -0.2226634952
-0.1669976214 0.0556658738 -0.2783293690
-0.1113317476 0.1113317476 -0.3339952428
-0.0556658738 0.1669976214 -0.3896611166
-0.0000000000 0.2226634952 -0.4453269904
0.0556658738 0.2783293690 -0.5009928642
0.1113317476 0.3339952428 -0.5566587381
0.1669976214 0.3896611166 -0.6123246119
-0.3339952428 -0.2226634952 0.0000000000
-0.2783293690 -0.1669976214 -0.0556658738
-0.2226634952 -0.1113317476 -0.1113317476
-0.1669976214 -0.0556658738 -0.1669976214
-0.1113317476 -0.0000000000 -0.2226634952
-0.0556658738 0.0556658738 -0.2783293690
-0.0000000000 0.1113317476 -0.3339952428
0.0556658738 0.1669976214 -0.3896611166
0.1113317476 0.2226634952 -0.4453269904
0.1669976214 0.2783293690 -0.5009928642
0.2226634952 0.3339952428 -0.5566587381
-0.2783293690 -0.2783293690 0.0556658738
-0.2226634952 -0.2226634952 -0.0000000000
-0.1669976214 -0.1669976214 -0.0556658738
-0.1113317476 -0.1113317476 -0.1113317476
-0.0556658738 -0.0556658738 -0.1669976214
-0.0000000000 -0.0000000000 -0.2226634952
0.0556658738 0.0556658738 -0.2783293690
0.1113317476 0.1113317476 -0.3339952428
0.1669976214 0.1669976214 -0.3896611166
0.2226634952 0.2226634952 -0.4453269904
0.2783293690 0.2783293690 -0.5009928642
-0.2226634952 -0.3339952428 0.1113317476
-0.1669976214 -0.2783293690 0.0556658738
-0.1113317476 -0.2226634952 -0.0000000000
-0.0556658738 -0.1669976214 -0.0556658738
-0.0000000000 -0.1113317476 -0.1113317476
0.0556658738 -0.0556658738 -0.1669976214
0.1113317476 -0.0000000000 -0.2226634952
0.1669976214 0.0556658738 -0.2783293690
0.2226634952 0.1113317476 -0.3339952428
0.2783293690 0.1669976214 -0.3896611166
0.3339952428 0.2226634952 -0.4453269904
-0.1669976214 -0.3896611166 0.1669976214
-0.1113317476 -0.3339952428 0.1113317476
-0.0556658738 -0.2783293690 0.0556658738
-0.0000000000 -0.2226634952 0.0000000000
0.0556658738 -0.1669976214 -0.0556658738
0.1113317476 -0.1113317476 -0.1113317476
0.1669976214 -0.0556658738 -0.1669976214
0.2226634952 0.0000000000 -0.2226634952
0.2783293690 0.0556658738 -0.2783293690
0.3339952428 0.1113317476 -0.3339952428
0.3896611166 0.1669976214 -0.3896611166
-0.1113317476 -0.4453269904 0.2226634952
-0.0556658738 -0.3896611166 0.1669976214
-0.0000000000 -0.3339952428 0.1113317476
0.0556658738 -0.2783293690 0.0556658738
0.1113317476 -0.2226634952 0.0000000000
0.1669976214 -0.1669976214 -0.0556658738
0.2226634952 -0.1113317476 -0.1113317476
0.2783293690 -0.0556658738 -0.1669976214
0.3339952428 0.0000000000 -0.2226634952
0.3896611166 0.0556658738 -0.2783293690
0.4453269904 0.1113317476 -0.3339952428
-0.0556658738 -0.5009928642 0.2783293690
-0.0000000000 -0.4453269904 0.2226634952
0.0556658738 -0.3896611166 0.1669976214
0.1113317476 -0.3339952428 0.1113317476
0.1669976214 -0.2783293690 0.0556658738
0.2226634952 -0.2226634952 0.0000000000
0.2783293690 -0.1669976214 -0.0556658738
0.3339952428 -0.1113317476 -0.1113317476
0.3896611166 -0.0556658738 -0.1669976214
0.4453269904 0.0000000000 -0.2226634952
0.5009928642 0.0556658738 -0.2783293690
-0.0000000000 -0.5566587381 0.3339952428
0.0556658738 -0.5009928642 0.2783293690
0.1113317476 -0.4453269904 0.2226634952
0.1669976214 -0.3896611166 0.1669976214
0.2226634952 -0.3339952428 0.1113317476
0.2783293690 -0.2783293690 0.0556658738
0.3339952428 -0.2226634952 0.0000000000
0.3896611166 -0.1669976214 -0.0556658738
0.4453269904 -0.1113317476 -0.1113317476
0.5009928642 -0.0556658738 -0.1669976214
0.5566587381 0.0000000000 -0.2226634952
0.0556658738 -0.6123246119 0.3896611166
0.1113317476 -0.5566587381 0.3339952428
0.1669976214 -0.5009928642 0.2783293690
0.2226634952 -0.4453269904 0.2226634952
0.2783293690 -0.3896611166 0.1669976214
0.3339952428 -0.3339952428 0.1113317476
0.3896611166 -0.2783293690 0.0556658738
0.4453269904 -0.2226634952 0.0000000000
0.5009928642 -0.1669976214 -0.0556658738
0.5566587381 -0.1113317476 -0.1113317476
0.6123246119 -0.0556658738 -0.1669976214
0.1113317476 -0.6679904857 0.4453269904
0.1669976214 -0.6123246119 0.3896611166
0.2226634952 -0.5566587381 0.3339952428
0.2783293690 -0.5009928642 0.2783293690
0.3339952428 -0.4453269904 0.2226634952
0.3896611166 -0.3896611166 0.1669976214
0.4453269904 -0.3339952428 0.1113317476
0.5009928642 -0.2783293690 0.0556658738
0.5566587381 -0.2226634952 0.0000000000
0.6123246119 -0.1669976214 -0.0556658738
0.6679904857 -0.1113317476 -0.1113317476
-0.5009928642 -0.0556658738 -0.0556658738
-0.4453269904 -0.0000000000 -0.1113317476
-0.3896611166 0.0556658738 -0.1669976214
-0.3339952428 0.1113317476 -0.2226634952
-0.2783293690 0.1669976214 -0.2783293690
-0.2226634952 0.2226634952 -0.3339952428
-0.1669976214 0.2783293690 -0.3896611166
-0.1113317476 0.3339952428 -0.4453269904
-0.0556658738 0.3896611166 -0.5009928642
0.0000000000 0.4453269904 -0.5566587381
0.0556658738 0.5009928642 -0.6123246119
-0.4453269904 -0.1113317476 -0.0000000000
-0.3896611166 -0.0556658738 -0.0556658738
-0.3339952428 -0.0000000000 -0.1113317476
-0.2783293690 0.0556658738 -0.1669976214
-0.2226634952 0.1113317476 -0.2226634952
-0.1669976214 0.1669976214 -0.2783293690
-0.1113317476 0.2226634952 -0.3339952428
-0.0556658738 0.2783293690 -0.3896611166
0.0000000000 0.3339952428 -0.4453269904
0.0556658738 0.3896611166 -0.5009928642
0.1113317476 0.4453269904 -0.5566587381
-0.3896611166 -0.1669976214 0.0556658738
-0.3339952428 -0.1113317476 0.0000000000
-0.2783293690 -0.0556658738 -0.0556658738
-0.2226634952 -0.0000000000 -0.1113317476
-0.1669976214 0.0556658738 -0.1669976214
-0.1113317476 0.1113317476 -0.2226634952
-0.0556658738 0.1669976214 -0.2783293690
0.0000000000 0.2226634952 -0.3339952428
0.0556658738 0.2783293690 -0.3896611166
0.1113317476 0.3339952428 -0.4453269904
0.1669976214 0.3896611166 -0.5009928642
-0.3339952428 -0.2226634952 0.1113317476
-0.2783293690 -0.1669976214 0.0556658738
-0.2226634952 -0.1113317476 -0.0000000000
-0.1669976214 -0.0556658738 -0.0556658738
-0.1113317476 -0.0000000000 -0.1113317476
-0.0556658738 0.0556658738 -0.1669976214
-0.0000000000 0.1113317476 -0.2226634952
0.0556658738 0.1669976214 -0.2783293690
0.1113317476 0.2226634952 -0.3339952428
0.1669976214 0.2783293690 -0.3896611166
0.2226634952 0.3339952428 -0.4453269904
-0.2783293690 -0.2783293690 0.1669976214
-0.2226634952 -0.2226634952 0.1113317476
-0.1669976214 -0.1669976214 0.0556658738
-0.1113317476 -0.1113317476 -0.0000000000
-0.0556658738 -0.0556658738 -0.0556658738
-0.0000000000 -0.0000000000 -0.1113317476
0.0556658738 0.0556658738 -0.1669976214
0.1113317476 0.1113317476 -0.2226634952
0.1669976214 0.1669976214 -0.2783293690
0.2226634952 0.2226634952 -0.3339952428
0.2783293690 0.2783293690 -0.3896611166
-0.2226634952 -0.3339952428 0.2226634952
-0.1669976214 -0.2783293690 0.1669976214
-0.1113317476 -0.2226634952 0.1113317476
-0.0556658738 -0.1669976214 0.0556658738
-0.0000000000 -0.1113317476 0.0000000000
0.0556658738 -0.0556658738 -0.0556658738
0.1113317476 0.0000000000 -0.1113317476
0.1669976214 0.0556658738 -0.1669976214
0.2226634952 0.1113317476 -0.2226634952
0.2783293690 0.1669976214 -0.2783293690
0.3339952428 0.2226634952 -0.3339952428
-0.1669976214 -0.3896611166 0.2783293690
-0.1113317476 -0.3339952428 0.2226634952
-0.0556658738 -0.2783293690 0.1669976214
-0.0000000000 -0.2226634952 0.1113317476
0.0556658738 -0.1669976214 0.0556658738
0.1113317476 -0.1113317476 0.0000000000
0.1669976214 -0.0556658738 -0.0556658738
0.2226634952 0.0000000000 -0.1113317476
0.2783293690 0.0556658738 -0.1669976214
0.3339952428 0.1113317476 -0.2226634952
0.3896611166 0.1669976214 -0.2783293690
-0.1113317476 -0.4453269904 0.3339952428
-0.0556658738 -0.3896611166 0.2783293690
-0.0000000000 -0.3339952428 0.2226634952
0.0556658738 -0.2783293690 0.1669976214
0.1113317476 -0.2226634952 0.1113317476
0.1669976214 -0.1669976214 0.0556658738
0.2226634952 -0.1113317476 0.0000000000
0.2783293690 -0.0556658738 -0.0556658738
0.3339952428 0.0000000000 -0.1113317476
0.3896611166 0.0556658738 -0.1669976214
0.4453269904 0.1113317476 -0.2226634952
-0.0556658738 -0.5009928642 0.3896611166
-0.0000000000 -0.4453269904 0.3339952428
0.0556658738 -0.3896611166 0.2783293690
0.1113317476 -0.3339952428 0.2226634952
0.1669976214 -0.2783293690 0.1669976214
0.2226634952 -0.2226634952 0.1113317476
0.2783293690 -0.1669976214 0.0556658738
0.3339952428 -0.1113317476 0.0000000000
0.3896611166 -0.0556658738 -0.0556658738
0.4453269904 0.0000000000 -0.1113317476
0.5009928642 0.0556658738 -0.1669976214
0.0000000000 -0.5566587381 0.4453269904
0.0556658738 -0.5009928642 0.3896611166
0.1113317476 -0.4453269904 0.3339952428
0.1669976214 -0.3896611166 0.2783293690
0.2226634952 -0.3339952428 0.2226634952
0.2783293690 -0.2783293690 0.1669976214
0.3339952428 -0.2226634952 0.1113317476
0.3896611166 -0.1669976214 0.0556658738
0.4453269904 -0.1113317476 0.0000000000
0.5009928642 -0.0556658738 -0.0556658738
0.5566587381 0.0000000000 -0.1113317476
0.0556658738 -0.6123246119 0.5009928642
0.1113317476 -0.5566587381 0.4453269904
0.1669976214 -0.5009928642 0.3896611166
0.2226634952 -0.4453269904 0.3339952428
0.2783293690 -0.3896611166 0.2783293690
0.3339952428 -0.3339952428 0.2226634952
0.3896611166 -0.2783293690 0.1669976214
0.4453269904 -0.2226634952 0.1113317476
0.5009928642 -0.1669976214 0.0556658738
0.5566587381 -0.1113317476 0.0000000000
0.6123246119 -0.0556658738 -0.0556658738
-0.5566587381 -0.0000000000 0.0000000000
-0.5009928642 0.0556658738 -0.0556658738
-0.4453269904 0.1113317476 -0.1113317476
-0.3896611166 0.1669976214 -0.1669976214
-0.3339952428 0.2226634952 -0.2226634952
-0.2783293690 0.2783293690 -0.2783293690
-0.2226634952 0.3339952428 -0.3339952428
-0.1669976214 0.3896611166 -0.3896611166
-0.1113317476 0.4453269904 -0.4453269904
-0.0556658738 0.5009928642 -0.5009928642
0.0000000000 0.5566587381 -0.5566587381
-0.5009928642 -0.0556658738 0.0556658738
-0.4453269904 -0.0000000000 -0.0000000000
-0.3896611166 0.0556658738 -0.0556658738
-0.3339952428 0.1113317476 -0.1113317476
-0.2783293690 0.1669976214 -0.1669976214
-0.2226634952 0.2226634952 -0.2226634952
-0.1669976214 0.2783293690 -0.2783293690
-0.1113317476 0.3339952428 -0.3339952428
-0.0556658738 0.3896611166 -0.3896611166
0.0000000000 0.4453269904 -0.4453269904
0.0556658738 0.5009928642 -0.5009928642
-0.4453269904 -0.1113317476 0.1113317476
-0.3896611166 -0.0556658738 0.0556658738
-0.3339952428 -0.0000000000 -0.0000000000
-0.2783293690 0.0556658738 -0.0556658738
-0.2226634952 0.1113317476 -0.1113317476
-0.1669976214 0.1669976214 -0.1669976214
-0.1113317476 0.2226634952 -0.2226634952
-0.0556658738 0.2783293690 -0.2783293690
0.0000000000 0.3339952428 -0.3339952428
0.0556658738 0.3896611166 -0.3896611166
0.1113317476 0.4453269904 -0.4453269904
-0.3896611166 -0.1669976214 0.1669976214
-0.3339952428 -0.1113317476 0.1113317476
-0.2783293690 -0.0556658738 0.0556658738
-0.2226634952 -0.0000000000 -0.0000000000
-0.1669976214 0.0556658738 -0.0556658738
-0.1113317476 0.1113317476 -0.1113317476
-0.0556658738 0.1669976214 -0.1669976214
0.0000000000 0.2226634952 -0.2226634952
0.0556658738 0.2783293690 -0.2783293690
0.1113317476 0.3339952428 -0.3339952428
0.1669976214 0.3896611166 -0.3896611166
-0.3339952428 -0.2226634952 0.2226634952
-0.2783293690 -0.1669976214 0.1669976214
-0.2226634952 -0.1113317476 0.1113317476
-0.1669976214 -0.0556658738 0.0556658738
-0.1113317476 -0.0000000000 -0.0000000000
-0.0556658738 0.0556658738 -0.0556658738
0.0000000000 0.1113317476 -0.1113317476
0.0556658738 0.1669976214 -0.1669976214
0.1113317476 0.2226634952 -0.2226634952
0.1669976214 0.2783293690 -0.2783293690
0.2226634952 0.3339952428 -0.3339952428
-0.2783293690 -0.2783293690 0.2783293690
-0.2226634952 -0.2226634952 0.2226634952
-0.1669976214 -0.1669976214 0.1669976214
-0.1113317476 -0.1113317476 0.1113317476
-0.0556658738 -0.0556658738 0.0556658738
0.0000000000 0.0000000000 0.0000000000
0.0556658738 0.0556658738 -0.0556658738
0.1113317476 0.1113317476 -0.1113317476
0.1669976214 0.1669976214 -0.1669976214
0.2226634952 0.2226634952 -0.2226634952
0.2783293690 0.2783293690 -0.2783293690
-0.2226634952 -0.3339952428 0.3339952428
-0.1669976214 -0.2783293690 0.2783293690
-0.1113317476 -0.2226634952 0.2226634952
-0.0556658738 -0.1669976214 0.1669976214
-0.0000000000 -0.1113317476 0.1113317476
0.0556658738 -0.0556658738 0.0556658738
0.1113317476 0.0000000000 0.0000000000
0.1669976214 0.0556658738 -0.0556658738
0.2226634952 0.1113317476 -0.1113317476
0.2783293690 0.1669976214 -0.1669976214
0.3339952428 0.2226634952 -0.2226634952
-0.1669976214 -0.3896611166 0.3896611166
-0.1113317476 -0.3339952428 0.3339952428
-0.0556658738 -0.2783293690 0.2783293690
-0.0000000000 -0.2226634952 0.2226634952
0.0556658738 -0.1669976214 0.1669976214
0.1113317476 -0.1113317476 0.1113317476
0.1669976214 -0.0556658738 0.0556658738
0.2226634952 0.0000000000 0.0000000000
0.2783293690 0.0556658738 -0.0556658738
0.3339952428 0.1113317476 -0.1113317476
0.3896611166 0.1669976214 -0.1669976214
-0.1113317476 -0.4453269904 0.4453269904
-0.0556658738 -0.3896611166 0.3896611166
-0.0000000000 -0.3339952428 0.3339952428
0.0556658738 -0.2783293690 0.2783293690
0.1113317476 -0.2226634952 0.2226634952
0.1669976214 -0.1669976214 0.1669976214
0.2226634952 -0.1113317476 0.1113317476
0.2783293690 -0.0556658738 0.0556658738
0.3339952428 0.0000000000 0.0000000000
0.3896611166 0.0556658738 -0.0556658738
0.4453269904 0.1113317476 -0.1113317476
-0.0556658738 -0.5009928642 0.5009928642
-0.0000000000 -0.4453269904 0.4453269904
0.0556658738 -0.3896611166 0.3896611166
0.1113317476 -0.3339952428 0.3339952428
0.1669976214 -0.2783293690 0.2783293690
0.2226634952 -0.2226634952 0.2226634952
0.2783293690 -0.1669976214 0.1669976214
0.3339952428 -0.1113317476 0.1113317476
0.3896611166 -0.0556658738 0.0556658738
0.4453269904 0.0000000000 0.0000000000
0.5009928642 0.0556658738 -0.0556658738
0.0000000000 -0.5566587381 0.5566587381
0.0556658738 -0.5009928642 0.5009928642
0.1113317476 -0.4453269904 0.4453269904
0.1669976214 -0.3896611166 0.3896611166
0.2226634952 -0.3339952428 0.3339952428
0.2783293690 -0.2783293690 0.2783293690
0.3339952428 -0.2226634952 0.2226634952
0.3896611166 -0.1669976214 0.1669976214
0.4453269904 -0.1113317476 0.1113317476
0.5009928642 -0.0556658738 0.0556658738
0.5566587381 0.0000000000 0.0000000000
-0.6123246119 0.0556658738 0.0556658738
-0.5566587381 0.1113317476 0.0000000000
-0.5009928642 0.1669976214 -0.0556658738
-0.4453269904 0.2226634952 -0.1113317476
-0.3896611166 0.2783293690 -0.1669976214
-0.3339952428 0.3339952428 -0.2226634952
-0.2783293690 0.3896611166 -0.2783293690
-0.2226634952 0.4453269904 -0.3339952428
-0.1669976214 0.5009928642 -0.3896611166
-0.1113317476 0.5566587381 -0.4453269904
-0.0556658738 0.6123246119 -0.5009928642
-0.5566587381 -0.0000000000 0.1113317476
-0.5009928642 0.0556658738 0.0556658738
-0.4453269904 0.1113317476 -0.0000000000
-0.3896611166 0.1669976214 -0.0556658738
-0.3339952428 0.2226634952 -0.1113317476
-0.2783293690 0.2783293690 -0.1669976214
-0.2226634952 0.3339952428 -0.2226634952
-0.1669976214 0.3896611166 -0.2783293690
-0.1113317476 0.4453269904 -0.3339952428
-0.0556658738 0.5009928642 -0.3896611166
0.0000000000 0.5566587381 -0.4453269904
-0.5009928642 -0.0556658738 0.1669976214
-0.4453269904 -0.0000000000 0.1113317476
-0.3896611166 0.0556658738 0.0556658738
-0.3339952428 0.1113317476 -0.0000000000
-0.2783293690 0.1669976214 -0.0556658738
-0.2226634952 0.2226634952 -0.1113317476
-0.1669976214 0.2783293690 -0.1669976214
-0.1113317476 0.3339952428 -0.2226634952
-0.0556658738 0.3896611166 -0.2783293690
0.0000000000 0.4453269904 -0.3339952428
0.0556658738 0.5009928642 -0.3896611166
-0.4453269904 -0.1113317476 0.2226634952
-0.3896611166 -0.0556658738 0.1669976214
-0.3339952428 -0.0000000000 0.1113317476
-0.2783293690 0.0556658738 0.0556658738
-0.2226634952 0.1113317476 -0.0000000000
-0.1669976214 0.1669976214 -0.0556658738
-0.1113317476 0.2226634952 -0.1113317476
-0.0556658738 0.2783293690 -0.1669976214
0.0000000000 0.3339952428 -0.2226634952
0.0556658738 0.3896611166 -0.2783293690
0.1113317476 0.4453269904 -0.3339952428
-0.3896611166 -0.1669976214 0.2783293690
-0.3339952428 -0.1113317476 0.2226634952
-0.2783293690 -0.0556658738 0.1669976214
-0.2226634952 -0.0000000000 0.1113317476
-0.1669976214 0.0556658738 0.0556658738
-0.1113317476 0.1113317476 -0.0000000000
-0.0556658738 0.1669976214 -0.0556658738
0.0000000000 0.2226634952 -0.1113317476
0.0556658738 0.2783293690 -0.1669976214
0.1113317476 0.3339952428 -0.2226634952
0.1669976214 0.3896611166 -0.2783293690
-0.3339952428 -0.2226634952 0.3339952428
-0.2783293690 -0.1669976214 0.2783293690
-0.2226634952 -0.1113317476 0.2226634952
-0.1669976214 -0.0556658738 0.1669976214
-0.1113317476 0.0000000000 0.1113317476
-0.0556658738 0.0556658738 0.0556658738
0.0000000000 0.1113317476 0.0000000000
0.0556658738 0.1669976214 -0.0556658738
0.1113317476 0.2226634952 -0.1113317476
0.1669976214 0.2783293690 -0.1669976214
0.2226634952 0.3339952428 -0.2226634952
-0.2783293690 -0.2783293690 0.3896611166
-0.2226634952 -0.2226634952 0.3339952428
-0.1669976214 -0.1669976214 0.2783293690
-0.1113317476 -0.1113317476 0.2226634952
-0.0556658738 -0.0556658738 0.1669976214
0.0000000000 0.0000000000 0.1113317476
0.0556658738 0.0556658738 0.0556658738
0.1113317476 0.1113317476 0.0000000000
0.1669976214 0.1669976214 -0.0556658738
0.2226634952 0.2226634952 -0.1113317476
0.2783293690 0.2783293690 -0.1669976214
-0.2226634952 -0.3339952428 0.4453269904
-0.1669976214 -0.2783293690 0.3896611166
-0.1113317476 -0.2226634952 0.3339952428
-0.0556658738 -0.1669976214 0.2783293690
0.0000000000 -0.1113317476 0.2226634952
0.0556658738 -0.0556658738 0.1669976214
0.1113317476 0.0000000000 0.1113317476
0.1669976214 0.0556658738 0.0556658738
0.2226634952 0.1113317476 0.0000000000
0.2783293690 0.1669976214 -0.0556658738
0.3339952428 0.2226634952 -0.1113317476
-0.1669976214 -0.3896611166 0.5009928642
-0.1113317476 -0.3339952428 0.4453269904
-0.0556658738 -0.2783293690 0.3896611166
-0.0000000000 -0.2226634952 0.3339952428
0.0556658738 -0.1669976214 0.2783293690
0.1113317476 -0.1113317476 0.2226634952
0.1669976214 -0.0556658738 0.1669976214
0.2226634952 0.0000000000 0.1113317476
0.2783293690 0.0556658738 0.0556658738
0.3339952428 0.1113317476 0.0000000000
0.3896611166 0.1669976214 -0.0556658738
-0.1113317476 -0.4453269904 0.5566587381
-0.0556658738 -0.3896611166 0.5009928642
0.0000000000 -0.3339952428 0.4453269904
0.0556658738 -0.2783293690 0.3896611166
0.1113317476 -0.2226634952 0.3339952428
0.1669976214 -0.1669976214 0.2783293690
0.2226634952 -0.1113317476 0.2226634952
0.2783293690 -0.0556658738 0.1669976214
0.3339952428 0.0000000000 0.1113317476
0.3896611166 0.0556658738 0.0556658738
0.4453269904 0.1113317476 0.0000000000
-0.0556658738 -0.5009928642 0.6123246119
0.0000000000 -0.4453269904 0.5566587381
0.0556658738 -0.3896611166 0.5009928642
0.1113317476 -0.3339952428 0.4453269904
0.1669976214 -0.2783293690 0.3896611166
0.2226634952 -0.2226634952 0.3339952428
0.2783293690 -0.1669976214 0.2783293690
0.3339952428 -0.1113317476 0.2226634952
0.3896611166 -0.0556658738 0.1669976214
0.4453269904 0.0000000000 0.1113317476
0.5009928642 0.0556658738 0.0556658738
-0.6679904857 0.1113317476 0.1113317476
-0.6123246119 0.1669976214 0.0556658738
-0.5566587381 0.2226634952 -0.0000000000
-0.5009928642 0.2783293690 -0.0556658738
-0.4453269904 0.3339952428 -0.1113317476
-0.3896611166 0.3896611166 -0.1669976214
-0.3339952428 0.4453269904 -0.2226634952
-0.2783293690 0.5009928642 -0.2783293690
-0.2226634952 0.5566587381 -0.3339952428
-0.1669976214 0.6123246119 -0.3896611166
-0.1113317476 0.6679904857 -0.4453269904
-0.6123246119 0.0556658738 0.1669976214
-0.5566587381 0.1113317476 0.1113317476
-0.5009928642 0.1669976214 0.0556658738
-0.4453269904 0.2226634952 -0.0000000000
-0.3896611166 0.2783293690 -0.0556658738
-0.3339952428 0.3339952428 -0.1113317476
-0.2783293690 0.3896611166 -0.1669976214
-0.2226634952 0.4453269904 -0.2226634952
-0.1669976214 0.5009928642 -0.2783293690
-0.1113317476 0.5566587381 -0.3339952428
-0.0556658738 0.6123246119 -0.3896611166
-0.5566587381 -0.0000000000 0.2226634952
-0.5009928642 0.0556658738 0.1669976214
-0.4453269904 0.1113317476 0.1113317476
-0.3896611166 0.1669976214 0.0556658738
-0.3339952428 0.2226634952 -0.0000000000
-0.2783293690 0.2783293690 -0.0556658738
-0.2226634952 0.3339952428 -0.1113317476
-0.1669976214 0.3896611166 -0.1669976214
-0.1113317476 0.4453269904 -0.2226634952
-0.0556658738 0.5009928642 -0.2783293690
0.0000000000 0.5566587381 -0.3339952428
-0.5009928642 -0.0556658738 0.2783293690
-0.4453269904 -0.0000000000 0.2226634952
-0.3896611166 0.0556658738 0.1669976214
-0.3339952428 0.1113317476 0.1113317476
-0.2783293690 0.1669976214 0.0556658738
-0.2226634952 0.2226634952 -0.0000000000
-0.1669976214 0.2783293690 -0.0556658738
-0.1113317476 0.3339952428 -0.1113317476
-0.0556658738 0.3896611166 -0.1669976214
0.0000000000 0.4453269904 -0.2226634952
0.0556658738 0.5009928642 -0.2783293690
-0.4453269904 -0.1113317476 0.3339952428
-0.3896611166 -0.0556658738 0.2783293690
-0.3339952428 0.0000000000 0.2226634952
-0.2783293690 0.0556658738 0.1669976214
-0.2226634952 0.1113317476 0.1113317476
-0.1669976214 0.1669976214 0.0556658738
-0.1113317476 0.2226634952 -0.0000000000
-0.0556658738 0.2783293690 -0.0556658738
0.0000000000 0.3339952428 -0.1113317476
0.0556658738 0.3896611166 -0.1669976214
0.1113317476 0.4453269904 -0.2226634952
-0.3896611166 -0.1669976214 0.3896611166
-0.3339952428 -0.1113317476 0.3339952428
-0.2783293690 -0.0556658738 0.2783293690
-0.2226634952 0.0000000000 0.2226634952
-0.1669976214 0.0556658738 0.1669976214
-0.1113317476 0.1113317476 0.1113317476
-0.0556658738 0.1669976214 0.0556658738
0.0000000000 0.2226634952 0.0000000000
0.0556658738 0.2783293690 -0.0556658738
0.1113317476 0.3339952428 -0.1113317476
0.1669976214 0.3896611166 -0.1669976214
-0.3339952428 -0.2226634952 0.4453269904
-0.2783293690 -0.1669976214 0.3896611166
-0.2226634952 -0.1113317476 0.3339952428
-0.1669976214 -0.0556658738 0.2783293690
-0.1113317476 0.0000000000 0.2226634952
-0.0556658738 0.0556658738 0.1669976214
0.0000000000 0.1113317476 0.1113317476
0.0556658738 0.1669976214 0.0556658738
0.1113317476 0.2226634952 0.0000000000
0.1669976214 0.2783293690 -0.0556658738
0.2226634952 0.3339952428 -0.1113317476
-0.2783293690 -0.2783293690 0.5009928642
-0.2226634952 -0.2226634952 0.4453269904
-0.1669976214 -0.1669976214 0.3896611166
-0.1113317476 -0.1113317476 0.3339952428
-0.0556658738 -0.0556658738 0.2783293690
0.0000000000 0.0000000000 0.2226634952
0.0556658738 0.0556658738 0.1669976214
0.1113317476 0.1113317476 0.1113317476
0.1669976214 0.1669976214 0.0556658738
0.2226634952 0.2226634952 0.0000000000
0.2783293690 0.2783293690 -0.0556658738
-0.2226634952 -0.3339952428 0.5566587381
-0.1669976214 -0.2783293690 0.5009928642
-0.1113317476 -0.2226634952 0.4453269904
-0.0556658738 -0.1669976214 0.3896611166
0.0000000000 -0.1113317476 0.3339952428
0.0556658738 -0.0556658738 0.2783293690
0.1113317476 0.0000000000 0.2226634952
0.1669976214 0.0556658738 0.1669976214
0.2226634952 0.1113317476 0.1113317476
0.2783293690 0.1669976214 0.0556658738
0.3339952428 0.2226634952 0.0000000000
-0.1669976214 -0.3896611166 0.6123246119
-0.1113317476 -0.3339952428 0.5566587381
-0.0556658738 -0.2783293690 0.5009928642
0.0000000000 -0.2226634952 0.4453269904
0.0556658738 -0.1669976214 0.3896611166
0.1113317476 -0.1113317476 0.3339952428
0.1669976214 -0.0556658738 0.2783293690
0.2226634952 0.0000000000 0.2226634952
0.2783293690 0.0556658738 0.1669976214
0.3339952428 0.1113317476 0.1113317476
0.3896611166 0.1669976214 0.0556658738
-0.1113317476 -0.4453269904 0.6679904857
-0.0556658738 -0.3896611166 0.6123246119
0.0000000000 -0.3339952428 0.5566587381
0.0556658738 -0.2783293690 0.5009928642
0.1113317476 -0.2226634952 0.4453269904
0.1669976214 -0.1669976214 0.3896611166
0.2226634952 -0.1113317476 0.3339952428
0.2783293690 -0.0556658738 0.2783293690
0.3339952428 0.0000000000 0.2226634952
0.3896611166 0.0556658738 0.1669976214
0.4453269904 0.1113317476 0.1113317476
-0.7236563595 0.1669976214 0.1669976214
-0.6679904857 0.2226634952 0.1113317476
-0.6123246119 0.2783293690 0.0556658738
-0.5566587381 0.3339952428 -0.0000000000
-0.5009928642 0.3896611166 -0.0556658738
-0.4453269904 0.4453269904 -0.1113317476
-0.3896611166 0.5009928642 -0.1669976214
-0.3339952428 0.5566587381 -0.2226634952
-0.2783293690 0.6123246119 -0.2783293690
-0.2226634952 0.6679904857 -0.3339952428
-0.1669976214 0.7236563595 -0.3896611166
-0.6679904857 0.1113317476 0.2226634952
-0.6123246119 0.1669976214 0.1669976214
-0.5566587381 0.2226634952 0.1113317476
-0.5009928642 0.2783293690 0.0556658738
-0.4453269904 0.3339952428 -0.0000000000
-0.3896611166 0.3896611166 -0.0556658738
-0.3339952428 0.4453269904 -0.1113317476
-0.2783293690 0.5009928642 -0.1669976214
-0.2226634952 0.5566587381 -0.2226634952
-0.1669976214 0.6123246119 -0.2783293690
-0.1113317476 0.6679904857 -0.3339952428
-0.6123246119 0.0556658738 0.2783293690
-0.5566587381 0.1113317476 0.2226634952
-0.5009928642 0.1669976214 0.1669976214
-0.4453269904 0.2226634952 0.1113317476
-0.3896611166 0.2783293690 0.0556658738
-0.3339952428 0.3339952428 -0.0000000000
-0.2783293690 0.3896611166 -0.0556658738
-0.2226634952 0.4453269904 -0.1113317476
-0.1669976214 0.5009928642 -0.1669976214
-0.1113317476 0.5566587381 -0.2226634952
-0.0556658738 0.6123246119 -0.2783293690
-0.5566587381 0.0000000000 0.3339952428
-0.5009928642 0.0556658738 0.2783293690
-0.4453269904 0.1113317476 0.2226634952
-0.3896611166 0.1669976214 0.1669976214
-0.3339952428 0.2226634952 0.1113317476
-0.2783293690 0.2783293690 0.0556658738
-0.2226634952 0.3339952428 -0.0000000000
-0.1669976214 0.3896611166 -0.0556658738
-0.1113317476 0.4453269904 -0.1113317476
-0.0556658738 0.5009928642 -0.1669976214
0.0000000000 0.5566587381 -0.2226634952
-0.5009928642 -0.0556658738 0.3896611166
-0.4453269904 -0.0000000000 0.3339952428
-0.3896611166 0.0556658738 0.2783293690
-0.3339952428 0.1113317476 0.2226634952
-0.2783293690 0.1669976214 0.1669976214
-0.2226634952 0.2226634952 0.1113317476
-0.1669976214 0.2783293690 0.0556658738
-0.1113317476 0.3339952428 -0.0000000000
-0.0556658738 0.3896611166 -0.0556658738
0.0000000000 0.4453269904 -0.1113317476
0.0556658738 0.5009928642 -0.1669976214
-0.4453269904 -0.1113317476 0.4453269904
-0.3896611166 -0.0556658738 0.3896611166
-0.3339952428 0.0000000000 0.3339952428
-0.2783293690 0.0556658738 0.2783293690
-0.2226634952 0.1113317476 0.2226634952
-0.1669976214 0.1669976214 0.1669976214
-0.1113317476 0.2226634952 0.1113317476
-0.0556658738 0.2783293690 0.0556658738
0.0000000000 0.3339952428 0.0000000000
0.0556658738 0.3896611166 -0.0556658738
0.1113317476 0.4453269904 -0.1113317476
-0.3896611166 -0.1669976214 0.5009928642
-0.3339952428 -0.1113317476 0.4453269904
-0.2783293690 -0.0556658738 0.3896611166
-0.2226634952 0.0000000000 0.3339952428
-0.1669976214 0.0556658738 0.2783293690
-0.1113317476 0.1113317476 0.2226634952
-0.0556658738 0.1669976214 0.1669976214
0.0000000000 0.2226634952 0.1113317476
0.0556658738 0.2783293690 0.0556658738
0.1113317476 0.3339952428 -0.0000000000
0.1669976214 0.3896611166 -0.0556658738
-0.3339952428 -0.2226634952 0.5566587381
-0.2783293690 -0.1669976214 0.5009928642
-0.2226634952 -0.1113317476 0.4453269904
-0.1669976214 -0.0556658738 0.3896611166
-0.1113317476 0.0000000000 0.3339952428
-0.0556658738 0.0556658738 0.2783293690
0.0000000000 0.1113317476 0.2226634952
0.0556658738 0.1669976214 0.1669976214
0.1113317476 0.2226634952 0.1113317476
0.1669976214 0.2783293690 0.0556658738
0.2226634952 0.3339952428 0.0000000000
-0.2783293690 -0.2783293690 0.6123246119
-0.2226634952 -0.2226634952 0.5566587381
-0.1669976214 -0.1669976214 0.5009928642
-0.1113317476 -0.1113317476 0.4453269904
-0.0556658738 -0.0556658738 0.3896611166
0.0000000000 0.0000000000 0.3339952428
0.0556658738 0.0556658738 0.2783293690
0.1113317476 0.1113317476 0.2226634952
0.1669976214 0.1669976214 0.1669976214
0.2226634952 0.2226634952 0.1113317476
0.2783293690 0.2783293690 0.0556658738
-0.2226634952 -0.3339952428 0.6679904857
-0.1669976214 -0.2783293690 0.6123246119
-0.1113317476 -0.2226634952 0.5566587381
-0.0556658738 -0.1669976214 0.5009928642
0.0000000000 -0.1113317476 0.4453269904
0.0556658738 -0.0556658738 0.3896611166
0.1113317476 0.0000000000 0.3339952428
0.1669976214 0.0556658738 0.2783293690
0.2226634952 0.1113317476 0.2226634952
0.2783293690 0.1669976214 0.1669976214
0.3339952428 0.2226634952 0.1113317476
-0.1669976214 -0.3896611166 0.7236563595
-0.1113317476 -0.3339952428 0.6679904857
-0.0556658738 -0.2783293690 0.6123246119
0.0000000000 -0.2226634952 0.5566587381
0.0556658738 -0.1669976214 0.5009928642
0.1113317476 -0.1113317476 0.4453269904
0.1669976214 -0.0556658738 0.3896611166
0.2226634952 0.0000000000 0.3339952428
0.2783293690 0.0556658738 0.2783293690
0.3339952428 0.1113317476 0.2226634952
0.3896611166 0.1669976214 0.1669976214
-0.7793222333 0.2226634952 0.2226634952
-0.7236563595 0.2783293690 0.1669976214
-0.6679904857 0.3339952428 0.1113317476
-0.6123246119 0.3896611166 0.0556658738
-0.5566587381 0.4453269904 0.0000000000
-0.5009928642 0.5009928642 -0.0556658738
-0.4453269904 0.5566587381 -0.1113317476
-0.3896611166 0.6123246119 -0.1669976214
-0.3339952428 0.6679904857 -0.2226634952
-0.2783293690 0.7236563595 -0.2783293690
-0.2226634952 0.7793222333 -0.3339952428
-0.7236563595 0.1669976214 0.2783293690
-0.6679904857 0.2226634952 0.2226634952
-0.6123246119 0.2783293690 0.1669976214
-0.5566587381 0.3339952428 0.1113317476
-0.5009928642 0.3896611166 0.0556658738
-0.4453269904 0.4453269904 -0.0000000000
-0.3896611166 0.5009928642 -0.0556658738
-0.3339952428 0.5566587381 -0.1113317476
-0.2783293690 0.6123246119 -0.1669976214
-0.2226634952 0.6679904857 -0.2226634952
-0.1669976214 0.7236563595 -0.2783293690
-0.6679904857 0.1113317476 0.3339952428
-0.6123246119 0.1669976214 0.2783293690
-0.5566587381 0.2226634952 0.2226634952
-0.5009928642 0.2783293690 0.1669976214
-0.4453269904 0.3339952428 0.1113317476
-0.3896611166 0.3896611166 0.0556658738
-0.3339952428 0.4453269904 -0.0000000000
-0.2783293690 0.5009928642 -0.0556658738
-0.2226634952 0.5566587381 -0.1113317476
-0.1669976214 0.6123246119 -0.1669976214
-0.1113317476 0.6679904857 -0.2226634952
-0.6123246119 0.0556658738 0.3896611166
-0.5566587381 0.1113317476 0.3339952428
-0.5009928642 0.1669976214 0.2783293690
-0.4453269904 0.2226634952 0.2226634952
-0.3896611166 0.2783293690 0.1669976214
-0.3339952428 0.3339952428 0.1113317476
-0.2783293690 0.3896611166 0.0556658738
-0.2226634952 0.4453269904 -0.0000000000
-0.1669976214 0.5009928642 -0.0556658738
-0.1113317476 0.5566587381 -0.1113317476
-0.0556658738 0.6123246119 -0.1669976214
-0.5566587381 0.0000000000 0.4453269904
-0.5009928642 0.0556658738 0.3896611166
-0.4453269904 0.1113317476 0.3339952428
-0.3896611166 0.1669976214 0.2783293690
-0.3339952428 0.2226634952 0.2226634952
-0.2783293690 0.2783293690 0.1669976214
-0.2226634952 0.3339952428 0.1113317476
-0.1669976214 0.3896611166 0.0556658738
-0.1113317476 0.4453269904 0.0000000000
-0.0556658738 0.5009928642 -0.0556658738
0.0000000000 0.5566587381 -0.1113317476
-0.5009928642 -0.0556658738 0.5009928642
-0.4453269904 0.0000000000 0.4453269904
-0.3896611166 0.0556658738 0.3896611166
-0.3339952428 0.1113317476 0.3339952428
-0.2783293690 0.1669976214 0.2783293690
-0.2226634952 0.2226634952 0.2226634952
-0.1669976214 0.2783293690 0.1669976214
-0.1113317476 0.3339952428 0.1113317476
-0.0556658738 0.3896611166 0.0556658738
0.0000000000 0.4453269904 0.0000000000
0.0556658738 0.5009928642 -0.0556658738
-0.4453269904 -0.1113317476 0.5566587381
-0.3896611166 -0.0556658738 0.5009928642
-0.3339952428 0.0000000000 0.4453269904
-0.2783293690 0.0556658738 0.3896611166
-0.2226634952 0.1113317476 0.3339952428
-0.1669976214 0.1669976214 0.2783293690
-0.1113317476 0.2226634952 0.2226634952
-0.0556658738 0.2783293690 0.1669976214
0.0000000000 0.3339952428 0.1113317476
0.0556658738 0.3896611166 0.0556658738
0.1113317476 0.4453269904 0.0000000000
-0.3896611166 -0.1669976214 0.6123246119
-0.3339952428 -0.1113317476 0.5566587381
-0.2783293690 -0.0556658738 0.5009928642
-0.2226634952 0.0000000000 0.4453269904
-0.1669976214 0.0556658738 0.3896611166
-0.1113317476 0.1113317476 0.3339952428
-0.0556658738 0.1669976214 0.2783293690
0.0000000000 0.2226634952 0.2226634952
0.0556658738 0.2783293690 0.1669976214
0.1113317476 0.3339952428 0.1113317476
0.1669976214 0.3896611166 0.0556658738
-0.3339952428 -0.2226634952 0.6679904857
-0.2783293690 -0.1669976214 0.6123246119
-0.2226634952 -0.1113317476 0.5566587381
-0.1669976214 -0.0556658738 0.5009928642
-0.1113317476 0.0000000000 0.4453269904
-0.0556658738 0.0556658738 0.3896611166
0.0000000000 0.1113317476 0.3339952428
0.0556658738 0.1669976214 0.2783293690
0.1113317476 0.2226634952 0.2226634952
0.1669976214 0.2783293690 0.1669976214
0.2226634952 0.3339952428 0.1113317476
-0.2783293690 -0.2783293690 0.7236563595
-0.2226634952 -0.2226634952 0.6679904857
-0.1669976214 -0.1669976214 0.6123246119
-0.1113317476 -0.1113317476 0.5566587381
-0.0556658738 -0.0556658738 0.5009928642
0.0000000000 0.0000000000 0.4453269904
0.0556658738 0.0556658738 0.3896611166
0.1113317476 0.1113317476 0.3339952428
0.1669976214 0.1669976214 0.2783293690
0.2226634952 0.2226634952 0.2226634952
0.2783293690 0.2783293690 0.1669976214
-0.2226634952 -0.3339952428 0.7793222333
-0.1669976214 -0.2783293690 0.7236563595
-0.1113317476 -0.2226634952 0.6679904857
-0.0556658738 -0.1669976214 0.6123246119
0.0000000000 -0.1113317476 0.5566587381
0.0556658738 -0.0556658738 0.5009928642
0.1113317476 0.0000000000 0.4453269904
0.1669976214 0.0556658738 0.3896611166
0.2226634952 0.1113317476 0.3339952428
0.2783293690 0.1669976214 0.2783293690
0.3339952428 0.2226634952 0.2226634952
-0.8349881071 0.2783293690 0.2783293690
-0.7793222333 0.3339952428 0.2226634952
-0.7236563595 0.3896611166 0.1669976214
-0.6679904857 0.4453269904 0.1113317476
-0.6123246119 0.5009928642 0.0556658738
-0.5566587381 0.5566587381 0.0000000000
-0.5009928642 0.6123246119 -0.0556658738
-0.4453269904 0.6679904857 -0.1113317476
-0.3896611166 0.7236563595 -0.1669976214
-0.3339952428 0.7793222333 -0.2226634952
-0.2783293690 0.8349881071 -0.2783293690
-0.7793222333 0.2226634952 0.3339952428
-0.7236563595 0.2783293690 0.2783293690
-0.6679904857 0.3339952428 0.2226634952
-0.6123246119 0.3896611166 0.1669976214
-0.5566587381 0.4453269904 0.1113317476
-0.5009928642 0.5009928642 0.0556658738
-0.4453269904 0.5566587381 -0.0000000000
-0.3896611166 0.6123246119 -0.0556658738
-0.3339952428 0.6679904857 -0.1113317476
-0.2783293690 0.7236563595 -0.1669976214
-0.2226634952 0.7793222333 -0.2226634952
-0.7236563595 0.1669976214 0.3896611166
-0.6679904857 0.2226634952 0.3339952428
-0.6123246119 0.2783293690 0.2783293690
-0.5566587381 0.3339952428 0.2226634952
-0.5009928642 0.3896611166 0.1669976214
-0.4453269904 0.4453269904 0.1113317476
-0.3896611166 0.5009928642 0.0556658738
-0.3339952428 0.5566587381 -0.0000000000
-0.2783293690 0.6123246119 -0.0556658738
-0.2226634952 0.6679904857 -0.1113317476
-0.1669976214 0.7236563595 -0.1669976214
-0.6679904857 0.1113317476 0.4453269904
-0.6123246119 0.1669976214 0.3896611166
-0.5566587381 0.2226634952 0.3339952428
-0.5009928642 0.2783293690 0.2783293690
-0.4453269904 0.3339952428 0.2226634952
-0.3896611166 0.3896611166 0.1669976214
-0.3339952428 0.4453269904 0.1113317476
-0.2783293690 0.5009928642 0.0556658738
-0.2226634952 0.5566587381 0.0000000000
-0.1669976214 0.6123246119 -0.0556658738
-0.1113317476 0.6679904857 -0.1113317476
-0.6123246119 0.0556658738 0.5009928642
-0.5566587381 0.1113317476 0.4453269904
-0.5009928642 0.1669976214 0.3896611166
-0.4453269904 0.2226634952 0.3339952428
-0.3896611166 0.2783293690 0.2783293690
-0.3339952428 0.3339952428 0.2226634952
-0.2783293690 0.3896611166 0.1669976214
-0.2226634952 0.4453269904 0.1113317476
-0.1669976214 0.5009928642 0.0556658738
-0.1113317476 0.5566587381 -0.0000000000
-0.0556658738 0.6123246119 -0.0556658738
-0.5566587381 0.0000000000 0.5566587381
-0.5009928642 0.0556658738 0.5009928642
-0.4453269904 0.1113317476 0.4453269904
-0.3896611166 0.1669976214 0.3896611166
-0.3339952428 0.2226634952 0.3339952428
-0.2783293690 0.2783293690 0.2783293690
-0.2226634952 0.3339952428 0.2226634952
-0.1669976214 0.3896611166 0.1669976214
-0.1113317476 0.4453269904 0.1113317476
-0.0556658738 0.5009928642 0.0556658738
0.0000000000 0.5566587381 0.0000000000
-0.5009928642 -0.0556658738 0.6123246119
-0.4453269904 -0.0000000000 0.5566587381
-0.3896611166 0.0556658738 0.5009928642
-0.3339952428 0.1113317476 0.4453269904
-0.2783293690 0.1669976214 0.3896611166
-0.2226634952 0.2226634952 0.3339952428
-0.1669976214 0.2783293690 0.2783293690
-0.1113317476 0.3339952428 0.2226634952
-0.0556658738 0.3896611166 0.1669976214
0.0000000000 0.4453269904 0.1113317476
0.0556658738 0.5009928642 0.0556658738
-0.4453269904 -0.1113317476 0.6679904857
-0.3896611166 -0.0556658738 0.6123246119
-0.3339952428 0.0000000000 0.5566587381
-0.2783293690 0.0556658738 0.5009928642
-0.2226634952 0.1113317476 0.4453269904
-0.1669976214 0.1669976214 0.3896611166
-0.1113317476 0.2226634952 0.3339952428
-0.0556658738 0.2783293690 0.2783293690
0.0000000000 0.3339952428 0.2226634952
0.0556658738 0.3896611166 0.1669976214
0.1113317476 0.4453269904 0.1113317476
-0.3896611166 -0.1669976214 0.7236563595
-0.3339952428 -0.1113317476 0.6679904857
-0.2783293690 -0.0556658738 0.6123246119
-0.2226634952 0.0000000000 0.5566587381
-0.1669976214 0.0556658738 0.5009928642
-0.1113317476 0.1113317476 0.4453269904
-0.0556658738 0.1669976214 0.3896611166
0.0000000000 0.2226634952 0.3339952428
0.0556658738 0.2783293690 0.2783293690
0.1113317476 0.3339952428 0.2226634952
0.1669976214 0.3896611166 0.1669976214
-0.3339952428 -0.2226634952 0.7793222333
-0.2783293690 -0.1669976214 0.7236563595
-0.2226634952 -0.1113317476 0.6679904857
-0.1669976214 -0.0556658738 0.6123246119
-0.1113317476 0.0000000000 0.5566587381
-0.0556658738 0.0556658738 0.5009928642
0.0000000000 0.1113317476 0.4453269904
0.0556658738 0.1669976214 0.3896611166
0.1113317476 0.2226634952 0.3339952428
0.1669976214 0.2783293690 0.2783293690
0.2226634952 0.3339952428 0.2226634952
-0.2783293690 -0.2783293690 0.8349881071
-0.2226634952 -0.2226634952 0.7793222333
-0.1669976214 -0.1669976214 0.7236563595
-0.1113317476 -0.1113317476 0.6679904857
-0.0556658738 -0.0556658738 0.6123246119
0.0000000000 0.0000000000 0.5566587381
0.0556658738 0.0556658738 0.5009928642
0.1113317476 0.1113317476 0.4453269904
0.1669976214 0.1669976214 0.3896611166
0.2226634952 0.2226634952 0.3339952428
0.2783293690 0.2783293690 0.2783293690
 There are 14 alpha and 14 beta electrons
 Start computing overlap matrix
 Allocate 27599616 B from available memory: 1048575740896 B
 Time for computing overlap matrix: 1.6090000000 s
 ====== Initialize compute kernels for all-electron RI-J (kpts) ====== 
 ========================================================== 
 Range-separated parameter omega        = 0.900000000000000022
 Threshold for 1e2c shellpair           = 0.000000000000010000
 Threshold for 2e2c SR integral         = 0.000000000000000001
 Threshold for 2e3c SR integral         = 0.000000000100000000
 Threshold for AFT G-space screening is = 0.000000000001000000
 The exponent cutoff for C/D classification (omega2 / 2) is  = 0.405000000000000027
 ========================================================== 
 === Post process the basis set for RI calculation (exp_cutoff = 0.405000000000000027 ) === 
nshells_b1 before uncontraction = 16
nshells_b1 after uncontraction = 20
nshells_baux before uncontraction = 74
nshells_baux after uncontraction = 74
===============================================
nbsf total   = 44
nbsf compact = 18
nbsf diffuse = 26
naux total   = 242
naux compact = 242
naux diffuse = 0
nshells_bnuc = 2

 Number of unique atoms is 1
 Unique atom #0 (si) has 5 shells.

Shell 0 to 4 belongs to atom si
Shell 5 to 9 belongs to atom si

 Number of unique atoms is 1
 Unique atom #0 (si) has 5 shells.

Shell 0 to 4 belongs to atom si
Shell 5 to 9 belongs to atom si

 Number of unique atom is 1
 Unique atom #0 (si) has 37 auxiliary shells.

Auxiliary Shell 0 to 36 belongs to atom si
Auxiliary Shell 37 to 73 belongs to atom si

================= Automatically determine grid size for reciprocal space summation =================
 Range-separated parameter = 0.90000000000000 and G-space screening threshold = 0.00000000000100
The number of grid points along each axis dimension is (10, 10, 10)
Total number of grid points = 9261

Use nonortho shellpair for diffuse density
======== Initializing relevant kernel for RIJ (DD type) ========
There are 55 shellpairs in the reference unit cell
There are 2395 images and we expect to have 131725 in total
There are 6642 shellpairs in the lattice sum after screening
======== Initializing relevant kernel for RIJ (CD type) ========
There are 100 shellpairs in the reference unit cell
There are 1313 images and we expect to have 131300 in total
There are 5014 shellpairs in the lattice sum after screening
****** AFT -> SR ******
Maximum bra distance cutoff is 19.000000000000
Maximum bra ket distance cutoff is 16.923537234043
Maximum bra ket screening distance is 16.468750000000
Number of auxiliary image is 341
There are 100 shellpairs in the reference unit cell
There are 341 images and we expect to have 34100 in total
There are 5014 shellpairs in the lattice sum after screening
Available memory per thread for 2e3c calculation is 32.767129415000Gb
Finish initializing 2e3c SR with the lattice sum!
=================================================
======== Initializing relevant kernel for RIJ (CC type) ========
There are 54 shellpairs in the reference unit cell
There are 285 images and we expect to have 15390 in total
There are 126 shellpairs in the lattice sum after screening
****** AFT -> SR ******
Maximum bra distance cutoff is 7.000000000000
Maximum bra ket distance cutoff is 17.457123816333
Maximum bra ket screening distance is 16.343750000000
Number of auxiliary image is 285
There are 54 shellpairs in the reference unit cell
There are 27 images and we expect to have 1458 in total
There are 126 shellpairs in the lattice sum after screening
Available memory per thread for 2e3c calculation is 32.767129415000Gb
Finish initializing 2e3c SR with the lattice sum!
=================================================
======== Initializing the SR component for Vnuc (CD type) ========
Maximum bra distance cutoff is 19.000000000000
Maximum bra ket distance cutoff is 7.647118359706
Maximum bra ket screening distance is 7.125303119800
Number of auxiliary image is 341
There are 100 shellpairs in the reference unit cell
There are 341 images and we expect to have 34100 in total
There are 5014 shellpairs in the lattice sum after screening
Available memory per thread for 2e3c calculation is 32.767129415000Gb
Finish initializing 2e3c SR with the lattice sum!
=================================================
======== Initialize the SR component for Vnuc (CC type) ========
Maximum bra distance cutoff is 7.000000000000
Maximum bra ket distance cutoff is 9.111649205692
Maximum bra ket screening distance is 6.557184410270
Number of auxiliary image is 99
There are 54 shellpairs in the reference unit cell
There are 27 images and we expect to have 1458 in total
There are 126 shellpairs in the lattice sum after screening
Available memory per thread for 2e3c calculation is 32.767129415000Gb
Finish initializing 2e3c SR with the lattice sum!
=================================================
 Aufbau occupation scheme, occupation determined by eigenvalue
 == 0-th k-point nmo = 36 (-0.27833,-0.27833,-0.27833) ==
 == 1-th k-point nmo = 36 (-0.22266,-0.22266,-0.33400) ==
 == 2-th k-point nmo = 36 (-0.16700,-0.16700,-0.38966) ==
 == 3-th k-point nmo = 36 (-0.11133,-0.11133,-0.44533) ==
 == 4-th k-point nmo = 36 (-0.05567,-0.05567,-0.50099) ==
 == 5-th k-point nmo = 36 (-0.00000,-0.00000,-0.55666) ==
 == 6-th k-point nmo = 36 (0.05567,0.05567,-0.61232) ==
 == 7-th k-point nmo = 36 (0.11133,0.11133,-0.66799) ==
 == 8-th k-point nmo = 36 (0.16700,0.16700,-0.72366) ==
 == 9-th k-point nmo = 36 (0.22266,0.22266,-0.77932) ==
 == 10-th k-point nmo = 36 (0.27833,0.27833,-0.83499) ==
 == 11-th k-point nmo = 36 (-0.22266,-0.33400,-0.22266) ==
 == 12-th k-point nmo = 36 (-0.16700,-0.27833,-0.27833) ==
 == 13-th k-point nmo = 36 (-0.11133,-0.22266,-0.33400) ==
 == 14-th k-point nmo = 36 (-0.05567,-0.16700,-0.38966) ==
 == 15-th k-point nmo = 36 (-0.00000,-0.11133,-0.44533) ==
 == 16-th k-point nmo = 36 (0.05567,-0.05567,-0.50099) ==
 == 17-th k-point nmo = 36 (0.11133,-0.00000,-0.55666) ==
 == 18-th k-point nmo = 36 (0.16700,0.05567,-0.61232) ==
 == 19-th k-point nmo = 36 (0.22266,0.11133,-0.66799) ==
 == 20-th k-point nmo = 36 (0.27833,0.16700,-0.72366) ==
 == 21-th k-point nmo = 36 (0.33400,0.22266,-0.77932) ==
 == 22-th k-point nmo = 36 (-0.16700,-0.38966,-0.16700) ==
 == 23-th k-point nmo = 36 (-0.11133,-0.33400,-0.22266) ==
 == 24-th k-point nmo = 36 (-0.05567,-0.27833,-0.27833) ==
 == 25-th k-point nmo = 36 (-0.00000,-0.22266,-0.33400) ==
 == 26-th k-point nmo = 36 (0.05567,-0.16700,-0.38966) ==
 == 27-th k-point nmo = 36 (0.11133,-0.11133,-0.44533) ==
 == 28-th k-point nmo = 36 (0.16700,-0.05567,-0.50099) ==
 == 29-th k-point nmo = 36 (0.22266,-0.00000,-0.55666) ==
 == 30-th k-point nmo = 36 (0.27833,0.05567,-0.61232) ==
 == 31-th k-point nmo = 36 (0.33400,0.11133,-0.66799) ==
 == 32-th k-point nmo = 36 (0.38966,0.16700,-0.72366) ==
 == 33-th k-point nmo = 36 (-0.11133,-0.44533,-0.11133) ==
 == 34-th k-point nmo = 36 (-0.05567,-0.38966,-0.16700) ==
 == 35-th k-point nmo = 36 (-0.00000,-0.33400,-0.22266) ==
 == 36-th k-point nmo = 36 (0.05567,-0.27833,-0.27833) ==
 == 37-th k-point nmo = 36 (0.11133,-0.22266,-0.33400) ==
 == 38-th k-point nmo = 36 (0.16700,-0.16700,-0.38966) ==
 == 39-th k-point nmo = 36 (0.22266,-0.11133,-0.44533) ==
 == 40-th k-point nmo = 36 (0.27833,-0.05567,-0.50099) ==
 == 41-th k-point nmo = 36 (0.33400,0.00000,-0.55666) ==
 == 42-th k-point nmo = 36 (0.38966,0.05567,-0.61232) ==
 == 43-th k-point nmo = 36 (0.44533,0.11133,-0.66799) ==
 == 44-th k-point nmo = 36 (-0.05567,-0.50099,-0.05567) ==
 == 45-th k-point nmo = 36 (-0.00000,-0.44533,-0.11133) ==
 == 46-th k-point nmo = 36 (0.05567,-0.38966,-0.16700) ==
 == 47-th k-point nmo = 36 (0.11133,-0.33400,-0.22266) ==
 == 48-th k-point nmo = 36 (0.16700,-0.27833,-0.27833) ==
 == 49-th k-point nmo = 36 (0.22266,-0.22266,-0.33400) ==
 == 50-th k-point nmo = 36 (0.27833,-0.16700,-0.38966) ==
 == 51-th k-point nmo = 36 (0.33400,-0.11133,-0.44533) ==
 == 52-th k-point nmo = 36 (0.38966,-0.05567,-0.50099) ==
 == 53-th k-point nmo = 36 (0.44533,0.00000,-0.55666) ==
 == 54-th k-point nmo = 36 (0.50099,0.05567,-0.61232) ==
 == 55-th k-point nmo = 36 (-0.00000,-0.55666,0.00000) ==
 == 56-th k-point nmo = 36 (0.05567,-0.50099,-0.05567) ==
 == 57-th k-point nmo = 36 (0.11133,-0.44533,-0.11133) ==
 == 58-th k-point nmo = 36 (0.16700,-0.38966,-0.16700) ==
 == 59-th k-point nmo = 36 (0.22266,-0.33400,-0.22266) ==
 == 60-th k-point nmo = 36 (0.27833,-0.27833,-0.27833) ==
 == 61-th k-point nmo = 36 (0.33400,-0.22266,-0.33400) ==
 == 62-th k-point nmo = 36 (0.38966,-0.16700,-0.38966) ==
 == 63-th k-point nmo = 36 (0.44533,-0.11133,-0.44533) ==
 == 64-th k-point nmo = 36 (0.50099,-0.05567,-0.50099) ==
 == 65-th k-point nmo = 36 (0.55666,0.00000,-0.55666) ==
 == 66-th k-point nmo = 36 (0.05567,-0.61232,0.05567) ==
 == 67-th k-point nmo = 36 (0.11133,-0.55666,0.00000) ==
 == 68-th k-point nmo = 36 (0.16700,-0.50099,-0.05567) ==
 == 69-th k-point nmo = 36 (0.22266,-0.44533,-0.11133) ==
 == 70-th k-point nmo = 36 (0.27833,-0.38966,-0.16700) ==
 == 71-th k-point nmo = 36 (0.33400,-0.33400,-0.22266) ==
 == 72-th k-point nmo = 36 (0.38966,-0.27833,-0.27833) ==
 == 73-th k-point nmo = 36 (0.44533,-0.22266,-0.33400) ==
 == 74-th k-point nmo = 36 (0.50099,-0.16700,-0.38966) ==
 == 75-th k-point nmo = 36 (0.55666,-0.11133,-0.44533) ==
 == 76-th k-point nmo = 36 (0.61232,-0.05567,-0.50099) ==
 == 77-th k-point nmo = 36 (0.11133,-0.66799,0.11133) ==
 == 78-th k-point nmo = 36 (0.16700,-0.61232,0.05567) ==
 == 79-th k-point nmo = 36 (0.22266,-0.55666,0.00000) ==
 == 80-th k-point nmo = 36 (0.27833,-0.50099,-0.05567) ==
 == 81-th k-point nmo = 36 (0.33400,-0.44533,-0.11133) ==
 == 82-th k-point nmo = 36 (0.38966,-0.38966,-0.16700) ==
 == 83-th k-point nmo = 36 (0.44533,-0.33400,-0.22266) ==
 == 84-th k-point nmo = 36 (0.50099,-0.27833,-0.27833) ==
 == 85-th k-point nmo = 36 (0.55666,-0.22266,-0.33400) ==
 == 86-th k-point nmo = 36 (0.61232,-0.16700,-0.38966) ==
 == 87-th k-point nmo = 36 (0.66799,-0.11133,-0.44533) ==
 == 88-th k-point nmo = 36 (0.16700,-0.72366,0.16700) ==
 == 89-th k-point nmo = 36 (0.22266,-0.66799,0.11133) ==
 == 90-th k-point nmo = 36 (0.27833,-0.61232,0.05567) ==
 == 91-th k-point nmo = 36 (0.33400,-0.55666,0.00000) ==
 == 92-th k-point nmo = 36 (0.38966,-0.50099,-0.05567) ==
 == 93-th k-point nmo = 36 (0.44533,-0.44533,-0.11133) ==
 == 94-th k-point nmo = 36 (0.50099,-0.38966,-0.16700) ==
 == 95-th k-point nmo = 36 (0.55666,-0.33400,-0.22266) ==
 == 96-th k-point nmo = 36 (0.61232,-0.27833,-0.27833) ==
 == 97-th k-point nmo = 36 (0.66799,-0.22266,-0.33400) ==
 == 98-th k-point nmo = 36 (0.72366,-0.16700,-0.38966) ==
 == 99-th k-point nmo = 36 (0.22266,-0.77932,0.22266) ==
 == 100-th k-point nmo = 36 (0.27833,-0.72366,0.16700) ==
 == 101-th k-point nmo = 36 (0.33400,-0.66799,0.11133) ==
 == 102-th k-point nmo = 36 (0.38966,-0.61232,0.05567) ==
 == 103-th k-point nmo = 36 (0.44533,-0.55666,0.00000) ==
 == 104-th k-point nmo = 36 (0.50099,-0.50099,-0.05567) ==
 == 105-th k-point nmo = 36 (0.55666,-0.44533,-0.11133) ==
 == 106-th k-point nmo = 36 (0.61232,-0.38966,-0.16700) ==
 == 107-th k-point nmo = 36 (0.66799,-0.33400,-0.22266) ==
 == 108-th k-point nmo = 36 (0.72366,-0.27833,-0.27833) ==
 == 109-th k-point nmo = 36 (0.77932,-0.22266,-0.33400) ==
 == 110-th k-point nmo = 36 (0.27833,-0.83499,0.27833) ==
 == 111-th k-point nmo = 36 (0.33400,-0.77932,0.22266) ==
 == 112-th k-point nmo = 36 (0.38966,-0.72366,0.16700) ==
 == 113-th k-point nmo = 36 (0.44533,-0.66799,0.11133) ==
 == 114-th k-point nmo = 36 (0.50099,-0.61232,0.05567) ==
 == 115-th k-point nmo = 36 (0.55666,-0.55666,0.00000) ==
 == 116-th k-point nmo = 36 (0.61232,-0.50099,-0.05567) ==
 == 117-th k-point nmo = 36 (0.66799,-0.44533,-0.11133) ==
 == 118-th k-point nmo = 36 (0.72366,-0.38966,-0.16700) ==
 == 119-th k-point nmo = 36 (0.77932,-0.33400,-0.22266) ==
 == 120-th k-point nmo = 36 (0.83499,-0.27833,-0.27833) ==
 == 121-th k-point nmo = 36 (-0.33400,-0.22266,-0.22266) ==
 == 122-th k-point nmo = 36 (-0.27833,-0.16700,-0.27833) ==
 == 123-th k-point nmo = 36 (-0.22266,-0.11133,-0.33400) ==
 == 124-th k-point nmo = 36 (-0.16700,-0.05567,-0.38966) ==
 == 125-th k-point nmo = 36 (-0.11133,-0.00000,-0.44533) ==
 == 126-th k-point nmo = 36 (-0.05567,0.05567,-0.50099) ==
 == 127-th k-point nmo = 36 (-0.00000,0.11133,-0.55666) ==
 == 128-th k-point nmo = 36 (0.05567,0.16700,-0.61232) ==
 == 129-th k-point nmo = 36 (0.11133,0.22266,-0.66799) ==
 == 130-th k-point nmo = 36 (0.16700,0.27833,-0.72366) ==
 == 131-th k-point nmo = 36 (0.22266,0.33400,-0.77932) ==
 == 132-th k-point nmo = 36 (-0.27833,-0.27833,-0.16700) ==
 == 133-th k-point nmo = 36 (-0.22266,-0.22266,-0.22266) ==
 == 134-th k-point nmo = 36 (-0.16700,-0.16700,-0.27833) ==
 == 135-th k-point nmo = 36 (-0.11133,-0.11133,-0.33400) ==
 == 136-th k-point nmo = 36 (-0.05567,-0.05567,-0.38966) ==
 == 137-th k-point nmo = 36 (-0.00000,-0.00000,-0.44533) ==
 == 138-th k-point nmo = 36 (0.05567,0.05567,-0.50099) ==
 == 139-th k-point nmo = 36 (0.11133,0.11133,-0.55666) ==
 == 140-th k-point nmo = 36 (0.16700,0.16700,-0.61232) ==
 == 141-th k-point nmo = 36 (0.22266,0.22266,-0.66799) ==
 == 142-th k-point nmo = 36 (0.27833,0.27833,-0.72366) ==
 == 143-th k-point nmo = 36 (-0.22266,-0.33400,-0.11133) ==
 == 144-th k-point nmo = 36 (-0.16700,-0.27833,-0.16700) ==
 == 145-th k-point nmo = 36 (-0.11133,-0.22266,-0.22266) ==
 == 146-th k-point nmo = 36 (-0.05567,-0.16700,-0.27833) ==
 == 147-th k-point nmo = 36 (-0.00000,-0.11133,-0.33400) ==
 == 148-th k-point nmo = 36 (0.05567,-0.05567,-0.38966) ==
 == 149-th k-point nmo = 36 (0.11133,-0.00000,-0.44533) ==
 == 150-th k-point nmo = 36 (0.16700,0.05567,-0.50099) ==
 == 151-th k-point nmo = 36 (0.22266,0.11133,-0.55666) ==
 == 152-th k-point nmo = 36 (0.27833,0.16700,-0.61232) ==
 == 153-th k-point nmo = 36 (0.33400,0.22266,-0.66799) ==
 == 154-th k-point nmo = 36 (-0.16700,-0.38966,-0.05567) ==
 == 155-th k-point nmo = 36 (-0.11133,-0.33400,-0.11133) ==
 == 156-th k-point nmo = 36 (-0.05567,-0.27833,-0.16700) ==
 == 157-th k-point nmo = 36 (-0.00000,-0.22266,-0.22266) ==
 == 158-th k-point nmo = 36 (0.05567,-0.16700,-0.27833) ==
 == 159-th k-point nmo = 36 (0.11133,-0.11133,-0.33400) ==
 == 160-th k-point nmo = 36 (0.16700,-0.05567,-0.38966) ==
 == 161-th k-point nmo = 36 (0.22266,-0.00000,-0.44533) ==
 == 162-th k-point nmo = 36 (0.27833,0.05567,-0.50099) ==
 == 163-th k-point nmo = 36 (0.33400,0.11133,-0.55666) ==
 == 164-th k-point nmo = 36 (0.38966,0.16700,-0.61232) ==
 == 165-th k-point nmo = 36 (-0.11133,-0.44533,0.00000) ==
 == 166-th k-point nmo = 36 (-0.05567,-0.38966,-0.05567) ==
 == 167-th k-point nmo = 36 (-0.00000,-0.33400,-0.11133) ==
 == 168-th k-point nmo = 36 (0.05567,-0.27833,-0.16700) ==
 == 169-th k-point nmo = 36 (0.11133,-0.22266,-0.22266) ==
 == 170-th k-point nmo = 36 (0.16700,-0.16700,-0.27833) ==
 == 171-th k-point nmo = 36 (0.22266,-0.11133,-0.33400) ==
 == 172-th k-point nmo = 36 (0.27833,-0.05567,-0.38966) ==
 == 173-th k-point nmo = 36 (0.33400,-0.00000,-0.44533) ==
 == 174-th k-point nmo = 36 (0.38966,0.05567,-0.50099) ==
 == 175-th k-point nmo = 36 (0.44533,0.11133,-0.55666) ==
 == 176-th k-point nmo = 36 (-0.05567,-0.50099,0.05567) ==
 == 177-th k-point nmo = 36 (-0.00000,-0.44533,0.00000) ==
 == 178-th k-point nmo = 36 (0.05567,-0.38966,-0.05567) ==
 == 179-th k-point nmo = 36 (0.11133,-0.33400,-0.11133) ==
 == 180-th k-point nmo = 36 (0.16700,-0.27833,-0.16700) ==
 == 181-th k-point nmo = 36 (0.22266,-0.22266,-0.22266) ==
 == 182-th k-point nmo = 36 (0.27833,-0.16700,-0.27833) ==
 == 183-th k-point nmo = 36 (0.33400,-0.11133,-0.33400) ==
 == 184-th k-point nmo = 36 (0.38966,-0.05567,-0.38966) ==
 == 185-th k-point nmo = 36 (0.44533,0.00000,-0.44533) ==
 == 186-th k-point nmo = 36 (0.50099,0.05567,-0.50099) ==
 == 187-th k-point nmo = 36 (-0.00000,-0.55666,0.11133) ==
 == 188-th k-point nmo = 36 (0.05567,-0.50099,0.05567) ==
 == 189-th k-point nmo = 36 (0.11133,-0.44533,-0.00000) ==
 == 190-th k-point nmo = 36 (0.16700,-0.38966,-0.05567) ==
 == 191-th k-point nmo = 36 (0.22266,-0.33400,-0.11133) ==
 == 192-th k-point nmo = 36 (0.27833,-0.27833,-0.16700) ==
 == 193-th k-point nmo = 36 (0.33400,-0.22266,-0.22266) ==
 == 194-th k-point nmo = 36 (0.38966,-0.16700,-0.27833) ==
 == 195-th k-point nmo = 36 (0.44533,-0.11133,-0.33400) ==
 == 196-th k-point nmo = 36 (0.50099,-0.05567,-0.38966) ==
 == 197-th k-point nmo = 36 (0.55666,0.00000,-0.44533) ==
 == 198-th k-point nmo = 36 (0.05567,-0.61232,0.16700) ==
 == 199-th k-point nmo = 36 (0.11133,-0.55666,0.11133) ==
 == 200-th k-point nmo = 36 (0.16700,-0.50099,0.05567) ==
 == 201-th k-point nmo = 36 (0.22266,-0.44533,0.00000) ==
 == 202-th k-point nmo = 36 (0.27833,-0.38966,-0.05567) ==
 == 203-th k-point nmo = 36 (0.33400,-0.33400,-0.11133) ==
 == 204-th k-point nmo = 36 (0.38966,-0.27833,-0.16700) ==
 == 205-th k-point nmo = 36 (0.44533,-0.22266,-0.22266) ==
 == 206-th k-point nmo = 36 (0.50099,-0.16700,-0.27833) ==
 == 207-th k-point nmo = 36 (0.55666,-0.11133,-0.33400) ==
 == 208-th k-point nmo = 36 (0.61232,-0.05567,-0.38966) ==
[...]
 1.31323 1.35086 1.43481 1.58035 1.82608 2.29560
 == 1280-th k-point (-0.27833,0.16700,0.38966) occupation: 14==
 -64.99649 -64.99648 -4.62606 -4.62605 -3.03771 -3.03771 -3.03752 -3.03716 -3.03698 -3.03697
 -0.07222 0.02945 0.17471 0.21362 0.38098 0.40065 0.46137 0.56024 0.62783 0.68620
 0.75872 0.80642 0.81720 0.88439 0.99232 1.09004 1.11399 1.14246 1.16773 1.23436
 1.38163 1.40379 1.41981 1.57391 1.76523 2.57258
 == 1281-th k-point (-0.22266,0.22266,0.33400) occupation: 14==
 -64.99649 -64.99648 -4.62606 -4.62604 -3.03771 -3.03771 -3.03755 -3.03712 -3.03698 -3.03698
 -0.08553 0.03613 0.21161 0.22323 0.36006 0.40569 0.42869 0.56758 0.66533 0.70302
 0.71544 0.76548 0.80438 0.86673 0.97368 1.13886 1.14198 1.14308 1.21028 1.24558
 1.35589 1.43081 1.47143 1.59466 1.59816 2.61687
 == 1282-th k-point (-0.16700,0.27833,0.27833) occupation: 14==
 -64.99649 -64.99648 -4.62605 -4.62603 -3.03771 -3.03770 -3.03756 -3.03711 -3.03699 -3.03698
 -0.09344 0.04909 0.20353 0.23569 0.36284 0.41513 0.41868 0.57983 0.61867 0.67762
 0.72611 0.78540 0.83821 0.86715 0.95207 1.11279 1.13119 1.18648 1.20786 1.29891
 1.33194 1.43610 1.48840 1.53670 1.69130 2.56484
 == 1283-th k-point (-0.11133,0.33400,0.22266) occupation: 14==
 -64.99649 -64.99648 -4.62606 -4.62603 -3.03771 -3.03771 -3.03755 -3.03713 -3.03699 -3.03697
 -0.09499 0.06607 0.17838 0.22173 0.38193 0.40817 0.46278 0.50620 0.63512 0.68930
 0.73790 0.79178 0.83979 0.90202 0.97556 1.06660 1.08907 1.17201 1.20881 1.27904
 1.35877 1.40515 1.46503 1.60218 1.80684 2.48201
 == 1284-th k-point (-0.05567,0.38966,0.16700) occupation: 14==
 -64.99648 -64.99648 -4.62609 -4.62604 -3.03772 -3.03771 -3.03751 -3.03716 -3.03698 -3.03696
 -0.08972 0.07743 0.16054 0.19704 0.36110 0.42412 0.45789 0.52563 0.65723 0.70276
 0.74367 0.80388 0.85529 0.88698 1.02301 1.03235 1.05879 1.11054 1.19652 1.27249
 1.33905 1.36735 1.43172 1.57562 1.88697 2.31663
 == 1285-th k-point (0.00000,0.44533,0.11133) occupation: 14==
 -64.99648 -64.99648 -4.62611 -4.62605 -3.03773 -3.03772 -3.03747 -3.03720 -3.03697 -3.03696
 -0.07749 0.06691 0.16398 0.17859 0.33354 0.36829 0.52302 0.57639 0.68177 0.71862
 0.73990 0.81030 0.83281 0.92146 0.96314 1.02482 1.07241 1.08802 1.19547 1.26231
 1.31879 1.32204 1.41208 1.50733 2.02401 2.04811
 == 1286-th k-point (0.05567,0.50099,0.05567) occupation: 14==
 -64.99648 -64.99648 -4.62611 -4.62606 -3.03773 -3.03773 -3.03743 -3.03724 -3.03696 -3.03696
 -0.05863 0.04176 0.16146 0.17732 0.31290 0.34518 0.59040 0.59129 0.72017 0.73833
 0.74426 0.74810 0.83818 0.89814 0.97146 1.02937 1.08972 1.09132 1.19497 1.25706
 1.26146 1.29657 1.39300 1.48484 1.86199 2.13240
 == 1287-th k-point (-0.44533,-0.11133,0.66799) occupation: 14==
 -64.99648 -64.99648 -4.62610 -4.62607 -3.03774 -3.03772 -3.03743 -3.03724 -3.03696 -3.03695
 -0.05232 0.03640 0.14001 0.17189 0.34723 0.39824 0.50910 0.58968 0.64372 0.71919
 0.75924 0.81730 0.87548 0.92018 0.97112 1.02608 1.08219 1.11888 1.13574 1.20713
 1.27851 1.29995 1.39363 1.49458 1.85293 2.18280
 == 1288-th k-point (-0.38966,-0.05567,0.61232) occupation: 14==
 -64.99648 -64.99648 -4.62610 -4.62608 -3.03774 -3.03774 -3.03738 -3.03729 -3.03695 -3.03694
 -0.02731 0.01341 0.13383 0.14811 0.39386 0.40243 0.49296 0.55409 0.65153 0.70990
 0.77751 0.82697 0.90680 0.95704 0.97376 1.02532 1.07878 1.10525 1.11812 1.12005
 1.25241 1.27682 1.42686 1.46046 1.90597 1.90784
 == 1289-th k-point (-0.33400,0.00000,0.55666) occupation: 14==
 -64.99648 -64.99648 -4.62609 -4.62609 -3.03774 -3.03774 -3.03737 -3.03729 -3.03695 -3.03694
 -0.01982 0.00730 0.12335 0.14951 0.40751 0.45821 0.48240 0.48451 0.65088 0.69935
 0.78766 0.83597 0.92460 0.98787 1.00507 1.01904 1.04085 1.06431 1.11572 1.11592
 1.25267 1.27355 1.45517 1.47424 1.82233 1.90820
 == 1290-th k-point (-0.27833,0.05567,0.50099) occupation: 14==
 -64.99648 -64.99648 -4.62609 -4.62608 -3.03773 -3.03773 -3.03742 -3.03724 -3.03696 -3.03695
 -0.04239 0.02622 0.12532 0.16758 0.41174 0.42503 0.47409 0.54542 0.59386 0.70165
 0.78214 0.86124 0.90380 0.93532 0.98450 1.02978 1.06867 1.09299 1.11249 1.17071
 1.26602 1.31363 1.44159 1.51224 1.84689 2.00084
 == 1291-th k-point (-0.22266,0.11133,0.44533) occupation: 14==
 -64.99649 -64.99648 -4.62608 -4.62606 -3.03773 -3.03771 -3.03748 -3.03719 -3.03697 -3.03695
 -0.06480 0.03975 0.14627 0.19108 0.36654 0.44342 0.47463 0.52484 0.63270 0.70864
 0.75776 0.81372 0.85624 0.93659 0.98435 1.04796 1.07996 1.11300 1.14491 1.22512
 1.32133 1.35745 1.40835 1.57436 1.79412 2.38887
 == 1292-th k-point (-0.16700,0.16700,0.38966) occupation: 14==
 -64.99649 -64.99648 -4.62607 -4.62604 -3.03772 -3.03771 -3.03752 -3.03715 -3.03698 -3.03697
 -0.08287 0.05156 0.17472 0.20600 0.35350 0.44901 0.47144 0.48388 0.69084 0.71944
 0.72799 0.75497 0.83381 0.91600 0.98879 1.07941 1.08932 1.14420 1.15329 1.25533
 1.36530 1.37623 1.42142 1.66150 1.68316 2.58699
 == 1293-th k-point (-0.11133,0.22266,0.33400) occupation: 14==
 -64.99649 -64.99648 -4.62606 -4.62603 -3.03771 -3.03771 -3.03755 -3.03713 -3.03699 -3.03697
 -0.09499 0.06607 0.17838 0.22173 0.38193 0.40817 0.46278 0.50620 0.63512 0.68930
 0.73790 0.79178 0.83979 0.90202 0.97556 1.06660 1.08907 1.17201 1.20881 1.27904
 1.35877 1.40515 1.46503 1.60218 1.80684 2.48201
 == 1294-th k-point (-0.05567,0.27833,0.27833) occupation: 14==
 -64.99648 -64.99648 -4.62606 -4.62603 -3.03770 -3.03770 -3.03756 -3.03712 -3.03700 -3.03697
 -0.10036 0.08214 0.15923 0.23620 0.38059 0.44009 0.44693 0.52018 0.56906 0.68998
 0.74606 0.79516 0.83930 0.95518 0.95847 1.02692 1.07090 1.17176 1.25998 1.33223
 1.33966 1.41300 1.46974 1.62685 1.95946 2.26972
 == 1295-th k-point (0.00000,0.33400,0.22266) occupation: 14==
 -64.99648 -64.99648 -4.62607 -4.62603 -3.03771 -3.03771 -3.03754 -3.03713 -3.03700 -3.03696
 -0.09861 0.08906 0.15115 0.22137 0.40487 0.40850 0.46309 0.49857 0.59727 0.69458
 0.74853 0.80829 0.83523 0.92385 1.01048 1.02630 1.04294 1.14962 1.26999 1.27413
 1.34496 1.40011 1.46095 1.61800 2.06952 2.11966
 == 1296-th k-point (0.05567,0.38966,0.16700) occupation: 14==
 -64.99648 -64.99648 -4.62609 -4.62604 -3.03772 -3.03771 -3.03751 -3.03716 -3.03698 -3.03696
 -0.08972 0.07743 0.16054 0.19704 0.36110 0.42412 0.45789 0.52563 0.65723 0.70276
 0.74367 0.80388 0.85529 0.88698 1.02301 1.03235 1.05879 1.11054 1.19652 1.27249
 1.33905 1.36735 1.43172 1.57562 1.88696 2.31664
 == 1297-th k-point (0.11133,0.44533,0.11133) occupation: 14==
 -64.99649 -64.99648 -4.62610 -4.62605 -3.03773 -3.03772 -3.03748 -3.03719 -3.03697 -3.03696
 -0.07399 0.05820 0.15347 0.18937 0.33119 0.40568 0.51898 0.52830 0.70877 0.73427
 0.73472 0.74658 0.88788 0.89465 0.99375 1.03424 1.07024 1.09808 1.15978 1.27316
 1.31551 1.32486 1.38979 1.57255 1.76856 2.41909
 == 1298-th k-point (-0.38966,-0.16700,0.72366) occupation: 14==
 -64.99649 -64.99648 -4.62608 -4.62606 -3.03773 -3.03771 -3.03748 -3.03719 -3.03697 -3.03695
 -0.06480 0.03975 0.14627 0.19108 0.36654 0.44342 0.47463 0.52484 0.63270 0.70864
 0.75776 0.81372 0.85624 0.93659 0.98435 1.04796 1.07996 1.11300 1.14491 1.22512
 1.32133 1.35745 1.40835 1.57436 1.79412 2.38887
 == 1299-th k-point (-0.33400,-0.11133,0.66799) occupation: 14==
 -64.99648 -64.99648 -4.62609 -4.62608 -3.03773 -3.03773 -3.03742 -3.03724 -3.03696 -3.03695
 -0.04239 0.02622 0.12532 0.16758 0.41174 0.42503 0.47409 0.54542 0.59386 0.70165
 0.78214 0.86124 0.90380 0.93532 0.98450 1.02978 1.06867 1.09299 1.11249 1.17071
 1.26602 1.31363 1.44159 1.51225 1.84690 2.00084
 == 1300-th k-point (-0.27833,-0.05567,0.61232) occupation: 14==
 -64.99648 -64.99648 -4.62609 -4.62609 -3.03774 -3.03774 -3.03737 -3.03729 -3.03695 -3.03694
 -0.01982 0.00730 0.12335 0.14951 0.40751 0.45821 0.48240 0.48451 0.65088 0.69935
 0.78766 0.83597 0.92460 0.98787 1.00507 1.01904 1.04085 1.06431 1.11572 1.11592
 1.25267 1.27355 1.45517 1.47424 1.82234 1.90820
 == 1301-th k-point (-0.22266,0.00000,0.55666) occupation: 14==
 -64.99648 -64.99648 -4.62610 -4.62608 -3.03774 -3.03774 -3.03738 -3.03729 -3.03695 -3.03694
 -0.02731 0.01341 0.13383 0.14811 0.39386 0.40243 0.49296 0.55409 0.65153 0.70990
 0.77751 0.82697 0.90680 0.95704 0.97376 1.02532 1.07878 1.10525 1.11812 1.12005
 1.25241 1.27682 1.42686 1.46045 1.90597 1.90784
 == 1302-th k-point (-0.16700,0.05567,0.50099) occupation: 14==
 -64.99648 -64.99648 -4.62610 -4.62607 -3.03774 -3.03772 -3.03743 -3.03724 -3.03696 -3.03695
 -0.05232 0.03640 0.14001 0.17189 0.34723 0.39824 0.50910 0.58968 0.64372 0.71919
 0.75924 0.81730 0.87548 0.92018 0.97112 1.02608 1.08219 1.11888 1.13574 1.20713
 1.27851 1.29995 1.39363 1.49458 1.85293 2.18280
 == 1303-th k-point (-0.11133,0.11133,0.44533) occupation: 14==
 -64.99649 -64.99648 -4.62610 -4.62605 -3.03773 -3.03772 -3.03748 -3.03719 -3.03697 -3.03696
 -0.07399 0.05820 0.15347 0.18937 0.33119 0.40568 0.51898 0.52830 0.70877 0.73427
 0.73472 0.74658 0.88788 0.89465 0.99375 1.03424 1.07024 1.09808 1.15978 1.27316
 1.31551 1.32486 1.38979 1.57255 1.76857 2.41909
 == 1304-th k-point (-0.05567,0.16700,0.38966) occupation: 14==
 -64.99648 -64.99648 -4.62609 -4.62604 -3.03772 -3.03771 -3.03751 -3.03716 -3.03698 -3.03696
 -0.08972 0.07743 0.16054 0.19704 0.36110 0.42412 0.45789 0.52563 0.65723 0.70276
 0.74367 0.80388 0.85529 0.88698 1.02301 1.03235 1.05879 1.11054 1.19652 1.27249
 1.33905 1.36735 1.43172 1.57562 1.88697 2.31663
 == 1305-th k-point (0.00000,0.22266,0.33400) occupation: 14==
 -64.99648 -64.99648 -4.62607 -4.62603 -3.03771 -3.03771 -3.03754 -3.03713 -3.03700 -3.03696
 -0.09861 0.08906 0.15115 0.22137 0.40487 0.40850 0.46309 0.49857 0.59727 0.69458
 0.74853 0.80829 0.83523 0.92385 1.01048 1.02630 1.04294 1.14962 1.26999 1.27413
 1.34496 1.40011 1.46095 1.61800 2.06952 2.11966
 == 1306-th k-point (0.05567,0.27833,0.27833) occupation: 14==
 -64.99648 -64.99648 -4.62606 -4.62603 -3.03770 -3.03770 -3.03756 -3.03712 -3.03700 -3.03697
 -0.10036 0.08214 0.15923 0.23620 0.38059 0.44009 0.44693 0.52018 0.56906 0.68998
 0.74606 0.79516 0.83930 0.95518 0.95847 1.02692 1.07090 1.17176 1.25998 1.33223
 1.33966 1.41300 1.46974 1.62685 1.95946 2.26972
 == 1307-th k-point (0.11133,0.33400,0.22266) occupation: 14==
 -64.99649 -64.99648 -4.62606 -4.62603 -3.03771 -3.03771 -3.03755 -3.03713 -3.03699 -3.03697
 -0.09499 0.06607 0.17838 0.22173 0.38193 0.40817 0.46278 0.50620 0.63512 0.68930
 0.73790 0.79178 0.83979 0.90202 0.97556 1.06660 1.08907 1.17201 1.20881 1.27904
 1.35877 1.40515 1.46503 1.60218 1.80684 2.48201
 == 1308-th k-point (0.16700,0.38966,0.16700) occupation: 14==
 -64.99649 -64.99648 -4.62607 -4.62604 -3.03772 -3.03771 -3.03752 -3.03715 -3.03698 -3.03697
 -0.08287 0.05156 0.17472 0.20600 0.35350 0.44901 0.47144 0.48388 0.69084 0.71944
 0.72799 0.75497 0.83381 0.91600 0.98879 1.07941 1.08932 1.14420 1.15329 1.25533
 1.36530 1.37623 1.42143 1.66150 1.68316 2.58699
 == 1309-th k-point (-0.33400,-0.22266,0.77932) occupation: 14==
 -64.99649 -64.99648 -4.62606 -4.62605 -3.03771 -3.03771 -3.03752 -3.03716 -3.03698 -3.03697
 -0.07222 0.02945 0.17471 0.21362 0.38098 0.40065 0.46137 0.56024 0.62783 0.68620
 0.75872 0.80642 0.81720 0.88439 0.99232 1.09004 1.11399 1.14246 1.16773 1.23436
 1.38163 1.40379 1.41981 1.57391 1.76524 2.57258
 == 1310-th k-point (-0.27833,-0.16700,0.72366) occupation: 14==
 -64.99649 -64.99648 -4.62608 -4.62606 -3.03772 -3.03771 -3.03748 -3.03720 -3.03697 -3.03695
 -0.05485 0.02668 0.13766 0.19444 0.37467 0.43293 0.51836 0.54388 0.56227 0.68152
 0.78806 0.82988 0.89929 0.91768 0.98430 1.03683 1.07105 1.10116 1.16077 1.21063
 1.31323 1.35086 1.43480 1.58035 1.82608 2.29560
 == 1311-th k-point (-0.22266,-0.11133,0.66799) occupation: 14==
 -64.99648 -64.99648 -4.62609 -4.62608 -3.03774 -3.03772 -3.03742 -3.03726 -3.03696 -3.03694
 -0.03482 0.01782 0.12051 0.17626 0.35548 0.45926 0.49675 0.55744 0.59542 0.68118
 0.79697 0.86707 0.91664 0.92715 1.00396 1.00876 1.03726 1.06963 1.17063 1.18146
 1.25585 1.28421 1.43692 1.52109 1.78001 2.14558
 == 1312-th k-point (-0.16700,-0.05567,0.61232) occupation: 14==
 -64.99648 -64.99648 -4.62609 -4.62609 -3.03774 -3.03773 -3.03737 -3.03731 -3.03695 -3.03694
 -0.01551 -0.00164 0.13210 0.16396 0.34232 0.38990 0.56344 0.57285 0.65555 0.68841
 0.78775 0.82763 0.89337 0.91479 0.98066 1.02018 1.07980 1.11438 1.13312 1.18277
 1.24237 1.25010 1.41688 1.44162 1.83903 2.09740
 == 1313-th k-point (-0.11133,0.00000,0.55666) occupation: 14==
 -64.99648 -64.99648 -4.62610 -4.62608 -3.03773 -3.03773 -3.03738 -3.03729 -3.03695 -3.03695
 -0.03434 0.01490 0.15669 0.16120 0.33143 0.34237 0.58156 0.62902 0.67362 0.72018
 0.76002 0.81151 0.81905 0.88931 0.99272 1.02697 1.10919 1.11806 1.17562 1.18173
 1.25706 1.25999 1.38803 1.43083 1.99166 1.99201
 == 1314-th k-point (-0.05567,0.05567,0.50099) occupation: 14==
 -64.99648 -64.99648 -4.62611 -4.62606 -3.03773 -3.03773 -3.03743 -3.03724 -3.03696 -3.03696
 -0.05863 0.04176 0.16146 0.17732 0.31290 0.34518 0.59040 0.59129 0.72017 0.73833
 0.74426 0.74810 0.83818 0.89814 0.97146 1.02937 1.08972 1.09132 1.19497 1.25706
 1.26146 1.29657 1.39299 1.48484 1.86200 2.13240
 == 1315-th k-point (0.00000,0.11133,0.44533) occupation: 14==
 -64.99648 -64.99648 -4.62611 -4.62605 -3.03773 -3.03772 -3.03747 -3.03720 -3.03697 -3.03696
 -0.07749 0.06691 0.16398 0.17859 0.33354 0.36829 0.52302 0.57639 0.68177 0.71862
 0.73990 0.81030 0.83281 0.92146 0.96314 1.02482 1.07241 1.08802 1.19547 1.26231
 1.31879 1.32204 1.41208 1.50733 2.02401 2.04811
 == 1316-th k-point (0.05567,0.16700,0.38966) occupation: 14==
 -64.99648 -64.99648 -4.62609 -4.62604 -3.03772 -3.03771 -3.03751 -3.03716 -3.03698 -3.03696
 -0.08972 0.07743 0.16054 0.19704 0.36110 0.42412 0.45789 0.52563 0.65723 0.70276
 0.74367 0.80388 0.85529 0.88698 1.02301 1.03235 1.05879 1.11054 1.19652 1.27249
 1.33905 1.36735 1.43172 1.57562 1.88696 2.31664
 == 1317-th k-point (0.11133,0.22266,0.33400) occupation: 14==
 -64.99649 -64.99648 -4.62606 -4.62603 -3.03771 -3.03771 -3.03755 -3.03713 -3.03699 -3.03697
 -0.09499 0.06607 0.17838 0.22173 0.38193 0.40817 0.46278 0.50620 0.63512 0.68930
 0.73790 0.79178 0.83979 0.90202 0.97556 1.06660 1.08907 1.17201 1.20881 1.27904
 1.35877 1.40515 1.46503 1.60218 1.80684 2.48201
 == 1318-th k-point (0.16700,0.27833,0.27833) occupation: 14==
 -64.99649 -64.99648 -4.62605 -4.62603 -3.03771 -3.03770 -3.03756 -3.03711 -3.03699 -3.03698
 -0.09344 0.04909 0.20353 0.23569 0.36284 0.41513 0.41868 0.57983 0.61867 0.67762
 0.72611 0.78540 0.83821 0.86715 0.95207 1.11279 1.13119 1.18648 1.20786 1.29891
 1.33194 1.43610 1.48840 1.53670 1.69130 2.56484
 == 1319-th k-point (0.22266,0.33400,0.22266) occupation: 14==
 -64.99649 -64.99648 -4.62606 -4.62604 -3.03771 -3.03771 -3.03755 -3.03712 -3.03698 -3.03698
 -0.08553 0.03613 0.21161 0.22323 0.36006 0.40569 0.42869 0.56758 0.66533 0.70302
 0.71544 0.76548 0.80438 0.86673 0.97368 1.13886 1.14198 1.14308 1.21028 1.24558
 1.35589 1.43081 1.47143 1.59466 1.59816 2.61687
 == 1320-th k-point (-0.27833,-0.27833,0.83499) occupation: 14==
 -64.99649 -64.99648 -4.62606 -4.62605 -3.03771 -3.03771 -3.03754 -3.03713 -3.03698 -3.03698
 -0.07550 0.02114 0.20486 0.22700 0.35912 0.40778 0.42181 0.60279 0.65151 0.67609
 0.75737 0.79036 0.79237 0.80732 1.03134 1.06971 1.16071 1.18151 1.18844 1.23709
 1.36447 1.44184 1.44594 1.54144 1.61384 2.61823
 == 1321-th k-point (-0.22266,-0.22266,0.77932) occupation: 14==
 -64.99649 -64.99648 -4.62607 -4.62606 -3.03771 -3.03771 -3.03751 -3.03717 -3.03698 -3.03696
 -0.06493 0.02505 0.16210 0.21088 0.35732 0.44431 0.46062 0.54656 0.63591 0.66929
 0.79418 0.80581 0.80941 0.90067 1.02648 1.05070 1.09554 1.11930 1.19638 1.20238
 1.37565 1.37821 1.40964 1.61678 1.73524 2.53729
 == 1322-th k-point (-0.16700,-0.16700,0.72366) occupation: 14==
 -64.99649 -64.99648 -4.62609 -4.62606 -3.03773 -3.03772 -3.03746 -3.03722 -3.03697 -3.03695
 -0.05118 0.02828 0.13207 0.19356 0.33644 0.46300 0.51133 0.51587 0.64379 0.66851
 0.80018 0.81476 0.86868 0.97134 0.99400 1.00290 1.06412 1.08449 1.16714 1.22052
 1.30076 1.30299 1.41080 1.62198 1.69190 2.41153
 == 1323-th k-point (-0.11133,-0.11133,0.66799) occupation: 14==
 -64.99648 -64.99648 -4.62610 -4.62608 -3.03773 -3.03772 -3.03740 -3.03728 -3.03696 -3.03694
 -0.03362 0.01521 0.13245 0.18005 0.31967 0.38965 0.57952 0.58452 0.65421 0.67554
 0.79487 0.81612 0.88928 0.90379 0.95913 1.03204 1.08999 1.11564 1.14962 1.22611
 1.23508 1.25886 1.39804 1.49736 1.76287 2.29665
 == 1324-th k-point (-0.05567,-0.05567,0.61232) occupation: 14==
 -64.99648 -64.99648 -4.62610 -4.62609 -3.03773 -3.03773 -3.03735 -3.03732 -3.03696 -3.03695
 -0.01320 -0.00911 0.15518 0.17242 0.31082 0.33277 0.63415 0.64110 0.68248 0.69887
 0.78136 0.81008 0.81640 0.81784 1.01991 1.03928 1.11558 1.14267 1.16829 1.19143
 1.22989 1.25469 1.39392 1.43367 1.85328 2.10288
 == 1325-th k-point (0.00000,0.00000,0.55666) occupation: 14==
 -64.99648 -64.99648 -4.62611 -4.62608 -3.03773 -3.03773 -3.03738 -3.03729 -3.03696 -3.03696
 -0.03712 0.01473 0.17149 0.17149 0.30368 0.31679 0.63964 0.63964 0.74033 0.74033
 0.74484 0.75266 0.78958 0.82765 1.02736 1.03648 1.11094 1.11094 1.20991 1.20991
 1.23921 1.27383 1.41723 1.44381 1.92230 1.92231
 == 1326-th k-point (0.05567,0.05567,0.50099) occupation: 14==
 -64.99648 -64.99648 -4.62611 -4.62606 -3.03773 -3.03773 -3.03743 -3.03724 -3.03696 -3.03696
 -0.05863 0.04176 0.16146 0.17732 0.31290 0.34518 0.59040 0.59129 0.72017 0.73833
 0.74426 0.74810 0.83818 0.89814 0.97146 1.02937 1.08972 1.09132 1.19497 1.25706
 1.26146 1.29657 1.39300 1.48484 1.86199 2.13240
 == 1327-th k-point (0.11133,0.11133,0.44533) occupation: 14==
 -64.99649 -64.99648 -4.62610 -4.62605 -3.03773 -3.03772 -3.03748 -3.03719 -3.03697 -3.03696
 -0.07399 0.05820 0.15347 0.18937 0.33119 0.40568 0.51898 0.52830 0.70877 0.73427
 0.73472 0.74658 0.88788 0.89465 0.99375 1.03424 1.07024 1.09808 1.15978 1.27316
 1.31551 1.32486 1.38979 1.57255 1.76856 2.41909
 == 1328-th k-point (0.16700,0.16700,0.38966) occupation: 14==
 -64.99649 -64.99648 -4.62607 -4.62604 -3.03772 -3.03771 -3.03752 -3.03715 -3.03698 -3.03697
 -0.08287 0.05156 0.17472 0.20600 0.35350 0.44901 0.47144 0.48388 0.69084 0.71944
 0.72799 0.75497 0.83381 0.91600 0.98879 1.07941 1.08932 1.14420 1.15329 1.25533
 1.36530 1.37623 1.42143 1.66150 1.68316 2.58699
 == 1329-th k-point (0.22266,0.22266,0.33400) occupation: 14==
 -64.99649 -64.99648 -4.62606 -4.62604 -3.03771 -3.03771 -3.03755 -3.03712 -3.03698 -3.03698
 -0.08553 0.03613 0.21161 0.22323 0.36006 0.40569 0.42869 0.56758 0.66533 0.70302
 0.71544 0.76548 0.80438 0.86673 0.97368 1.13886 1.14198 1.14308 1.21028 1.24558
 1.35589 1.43081 1.47143 1.59466 1.59816 2.61687
 == 1330-th k-point (0.27833,0.27833,0.27833) occupation: 14==
 -64.99649 -64.99648 -4.62607 -4.62605 -3.03771 -3.03771 -3.03756 -3.03710 -3.03698 -3.03698
 -0.08271 0.02466 0.23274 0.23274 0.33854 0.40951 0.40951 0.60048 0.68784 0.68784
 0.70720 0.77817 0.77817 0.80072 1.00222 1.10974 1.17417 1.17417 1.24563 1.24563
 1.30564 1.47845 1.47845 1.52030 1.52030 2.61508
 ---------------------------------------------------------------------------
 VBM is at 665-th k-point with 7.58569 eV
 CBM is at 55-th k-point with 8.26368 eV
 Band gap is 0.67799 eV


           Ground-State Mulliken Net Atomic Charges

      Atom                 Charge (a.u.)          Spin (a.u.)
   --------------------------------------------------------
      1 Si               (0.000000,-0.000000)    (0.000000,0.000000)
      2 Si               (-0.000000,0.000000)    (0.000000,0.000000)
   --------------------------------------------------------
  Sum of atomic charges =      (-0.000000,0.000000)
  Sum of spin   charges =       (0.000000,0.000000)



 Total job time:  142.64 s.
 Tue Sep  9 11:30:16 2025


        *************************************************************
        *                                                           *
        *  Thank you very much for using QCPBC. Have a nice day.    *
        *                                                           *
        *************************************************************

Running job 1 of 1
