                  Welcome to Q-Chem
           with Periodic Boundary Condition
     A Quantum Leap Into The Future Of Chemistry

 Adam Rettig, Xintian Feng, Meng-Fu Chen, Hieu Dinh, Stephen Quiton,
 Anton Ni, Paul J. Robinson, Jinghong Zhang, Joonho Lee

Contributors to earlier versions of Q-Chem not listed above:
 Evgeny Epifanovsky, Leo Cunha, Jerome F. Gonthier, Kuan-Yu Liu
 Input file: /n/netscratch/joonholee_lab/Lab/hieudinh//si_2_ccpvdz_omega_0.9_666.scratch20250909110313/si_2_ccpvdz_omega_0.9_666.0
 Scratch folder: /n/netscratch/joonholee_lab/Lab/hieudinh//si_2_ccpvdz_omega_0.9_666.scratch20250909110313
 Auxillary files located at: /n/holylabs/LABS/joonholee_lab/Lab/qchem_base/qcaux
 Q-Chem begins on Tue Sep  9 11:03:14 2025

 -------------------------------------------------------------
 User input:
 -------------------------------------------------------------
 $lattice
 3
 0.000000 5.130600 5.130600
 5.130600 0.000000 5.130600
 5.130600 5.130600 0.000000
 $end
 
 $unitcell
 ABSOLUTE
 0 1
 Si 0.000000 0.000000 0.000000
 Si 2.565300 2.565300 2.565300
 $end
 
 $rem
 jobtype = sp
 method = pbe
 scf_convergence = 5
 scf_guess = autosad
 scf_algorithm = diis_gdm
 basis = cc-pvdz
 aux_basis = cc-pvtz-jk
 input_bohr = true
 symmetry = false
 rsdf_print_level 1
 is_basis_uctr true
 
 mp_mesh = [6,6,6]
 
 integral_direct true
 bvk_cgto true
 
 thresh 14
 mem_total 1000000
 threads 32
 
 MAX_SCF_CYCLES 500
 madelung = false
 omega 0.9
 do_rij_bigmem true
 automate_g true
 print_level 10
 grid_type_xc 1
 
 thresh_1e2c_sp 1e-14
 thresh_2e3c_bra_ket_sep 1e-10
 thresh_g 1e-12
 $end
 
 -------------------------------------------------------------
 Running PBC job

 Requested Exchange Correlation Functionals: 
  DFT Exchange:  1.00000 pbe_x
  DFT Correlation:  1.00000 pbe_c
 using 32 threads for computing.
 ---------------------------------------------------------------
      Coordinates of Atoms in Central Unit Cell (Angstroms)
    I     Atom         X            Y            Z
 ---------------------------------------------------------------
    1      Si      0.000000     0.000000     0.000000
    2      Si      1.357498     1.357498     1.357498
 ---------------------------------------------------------------
 --------------------------------------------------
              Lattice Vectors (Angstroms)
              X            Y            Z
 --------------------------------------------------
   X       0.000000     2.714997     2.714997
   Y       2.714997     0.000000     2.714997
   Z       2.714997     2.714997     0.000000
 --------------------------------------------------
 --------------------------------------------------
       Reciprocal Lattice Vectors (Angstroms^-1)
              X            Y            Z
 --------------------------------------------------
   X      -1.157126     1.157126     1.157126
   Y       1.157126    -1.157126     1.157126
   Z       1.157126     1.157126    -1.157126
 --------------------------------------------------

 Single point calculation requested

 Hamiltonian contributions:
 List of terms in Hamiltonian: kpts_nn, kpts_kinetic, kpts_vnuc_df, kpts_xc, kpts_rij_bigmem

 K-Points calculation started.

 Basis set information about using solid harmonic (1) or Cartesian (0):
  si : D(1) 

 Basis set information about using solid harmonic (1) or Cartesian (0):
  si : D(1) D(1) D(1) D(1) D(1) D(1) D(1) D(1) D(1) F(1) F(1) F(1) G(1) 

 There are 36 basis functions in the central unit cell.
 Print atomic basis of atoms in the central unit cell:
 -------------------------------------------------------------
2 84 84 16

  0.00000000000000e+00  0.00000000000000e+00  0.00000000000000e+00
  2.56530000000000e+00  2.56530000000000e+00  2.56530000000000e+00

  7.88600000000000e+04
  1.18200000000000e+04
  2.69200000000000e+03
  7.63400000000000e+02
  2.49600000000000e+02
  9.02800000000000e+01
  3.52900000000000e+01
  1.45100000000000e+01
  4.05300000000000e+00
  7.88600000000000e+04
  1.18200000000000e+04
  2.69200000000000e+03
  2.49600000000000e+02
  9.02800000000000e+01
  3.52900000000000e+01
  1.45100000000000e+01
  4.05300000000000e+00
  1.48200000000000e+00
  7.88600000000000e+04
  1.18200000000000e+04
  2.69200000000000e+03
  9.02800000000000e+01
  3.52900000000000e+01
  1.45100000000000e+01
  4.05300000000000e+00
  1.48200000000000e+00
  2.51700000000000e-01
  9.24300000000000e-02
  3.15900000000000e+02
  7.44200000000000e+01
  2.34800000000000e+01
  8.48800000000000e+00
  3.21700000000000e+00
  1.22900000000000e+00
  7.44200000000000e+01
  2.34800000000000e+01
  8.48800000000000e+00
  3.21700000000000e+00
  1.22900000000000e+00
  2.96400000000000e-01
  8.76800000000000e-02
  2.75000000000000e-01
  7.88600000000000e+04
  1.18200000000000e+04
  2.69200000000000e+03
  7.63400000000000e+02
  2.49600000000000e+02
  9.02800000000000e+01
  3.52900000000000e+01
  1.45100000000000e+01
  4.05300000000000e+00
  7.88600000000000e+04
  1.18200000000000e+04
  2.69200000000000e+03
  2.49600000000000e+02
  9.02800000000000e+01
  3.52900000000000e+01
  1.45100000000000e+01
  4.05300000000000e+00
  1.48200000000000e+00
  7.88600000000000e+04
  1.18200000000000e+04
  2.69200000000000e+03
  9.02800000000000e+01
  3.52900000000000e+01
  1.45100000000000e+01
  4.05300000000000e+00
  1.48200000000000e+00
  2.51700000000000e-01
  9.24300000000000e-02
  3.15900000000000e+02
  7.44200000000000e+01
  2.34800000000000e+01
  8.48800000000000e+00
  3.21700000000000e+00
  1.22900000000000e+00
  7.44200000000000e+01
  2.34800000000000e+01
  8.48800000000000e+00
  3.21700000000000e+00
  1.22900000000000e+00
  2.96400000000000e-01
  8.76800000000000e-02
  2.75000000000000e-01

  9.06253754413352e-01
  1.69293104204437e+00
  2.88765135213002e+00
  4.51686717623273e+00
  6.15495015249549e+00
  6.60292741422250e+00
  4.31307094498082e+00
  1.11211258821928e+00
  3.28871017883051e-02
  1.81811499558714e-03
  7.82084807797983e-03
 -3.64325186414446e-03
 -1.38589915538590e-01
 -3.09231066968474e-01
 -8.37223961363792e-01
 -2.35283994917911e-01
  1.05074974557404e+00
  5.58607098057301e-01
 -3.73189052056138e-04
 -4.34506392374390e-04
 -1.25465717071959e-03
  1.25391036214459e-02
  2.72204657714548e-02
  2.48300227161584e-02
 -1.48880417762021e-01
 -3.39029634838718e-01
  2.96723365521804e-01
  1.19473010431857e-01
  7.49634571599597e+00
  9.36025063316295e+00
  9.42818987380764e+00
  6.66500330898836e+00
  2.81728351118454e+00
  4.95548501763808e-01
  1.33801616421722e-01
 -1.41076498099296e-01
  2.71250274850203e-02
 -2.30271473527780e-01
  1.34383996261684e-01
  3.01514460345638e-01
  6.80089021682769e-02
  1.71886461192366e-01
  9.06253754413352e-01
  1.69293104204437e+00
  2.88765135213002e+00
  4.51686717623273e+00
  6.15495015249549e+00
  6.60292741422250e+00
  4.31307094498082e+00
  1.11211258821928e+00
  3.28871017883051e-02
  1.81811499558714e-03
  7.82084807797983e-03
 -3.64325186414446e-03
 -1.38589915538590e-01
 -3.09231066968474e-01
 -8.37223961363792e-01
 -2.35283994917911e-01
  1.05074974557404e+00
  5.58607098057301e-01
 -3.73189052056138e-04
 -4.34506392374390e-04
 -1.25465717071959e-03
  1.25391036214459e-02
  2.72204657714548e-02
  2.48300227161584e-02
 -1.48880417762021e-01
 -3.39029634838718e-01
  2.96723365521804e-01
  1.19473010431857e-01
  7.49634571599597e+00
  9.36025063316295e+00
  9.42818987380764e+00
  6.66500330898836e+00
  2.81728351118454e+00
  4.95548501763808e-01
  1.33801616421722e-01
 -1.41076498099296e-01
  2.71250274850203e-02
 -2.30271473527780e-01
  1.34383996261684e-01
  3.01514460345638e-01
  6.80089021682769e-02
  1.71886461192366e-01

0 0 0 0 1 1 1
0 0 
9 0

0 1 1 9 1 1 1
9 0 
9 0

0 2 2 18 1 1 1
18 0 
9 0

0 3 3 27 1 1 1
27 0 
1 0

0 4 4 28 1 3 3
28 1 
6 0

0 7 7 34 1 3 3
34 1 
6 0

0 10 10 40 1 3 3
40 1 
1 0

0 13 13 41 1 5 6
41 2 
1 1

1 18 18 42 1 1 1
42 0 
9 0

1 19 19 51 1 1 1
51 0 
9 0

1 20 20 60 1 1 1
60 0 
9 0

1 21 21 69 1 1 1
69 0 
1 0

1 22 22 70 1 3 3
70 1 
6 0

1 25 25 76 1 3 3
76 1 
6 0

1 28 28 82 1 3 3
82 1 
1 0

1 31 31 83 1 5 6
83 2 
1 1

 -------------------------------------------------------------
 Allocate 259112 B from available memory: 1048576000000 B
 There are 1331 image cells after screening.
 There are 1221 image cells for CGTO evaluation after screening.
 Real-Space grid for FFT initialized based on kinetic energy cutoff (eV) = 500.0
 Real-Space grid for FFT: (10,10,10)
 There are 9261 real-space grid points.
 There are 64 batches of real-space grid points. 
 Size of each grid batch is around 128
 Grid for AFT initialized based on kinetic energy cutoff (eV) = 500.0
 Real-Space grid for AFT: (10,10,10)
 There are 9261 real-space grid points.

 There are 5456 atom-centered grid points.

 Spacegroup symmetry group: Fd-3m
 Reducing spacegroup symmetry to symmorphic group: F -4 3 m
 Monkhorst-Pack mesh is [6,6,6]
 There are 216 k points.
kpoints in Bohr
-0.2041082040 -0.2041082040 -0.2041082040
-0.1020541020 -0.1020541020 -0.3061623059
-0.0000000000 -0.0000000000 -0.4082164079
0.1020541020 0.1020541020 -0.5102705099
0.2041082040 0.2041082040 -0.6123246119
0.3061623059 0.3061623059 -0.7143787138
-0.1020541020 -0.3061623059 -0.1020541020
-0.0000000000 -0.2041082040 -0.2041082040
0.1020541020 -0.1020541020 -0.3061623059
0.2041082040 -0.0000000000 -0.4082164079
0.3061623059 0.1020541020 -0.5102705099
0.4082164079 0.2041082040 -0.6123246119
-0.0000000000 -0.4082164079 0.0000000000
0.1020541020 -0.3061623059 -0.1020541020
0.2041082040 -0.2041082040 -0.2041082040
0.3061623059 -0.1020541020 -0.3061623059
0.4082164079 -0.0000000000 -0.4082164079
0.5102705099 0.1020541020 -0.5102705099
0.1020541020 -0.5102705099 0.1020541020
0.2041082040 -0.4082164079 0.0000000000
0.3061623059 -0.3061623059 -0.1020541020
0.4082164079 -0.2041082040 -0.2041082040
0.5102705099 -0.1020541020 -0.3061623059
0.6123246119 0.0000000000 -0.4082164079
0.2041082040 -0.6123246119 0.2041082040
0.3061623059 -0.5102705099 0.1020541020
0.4082164079 -0.4082164079 0.0000000000
0.5102705099 -0.3061623059 -0.1020541020
0.6123246119 -0.2041082040 -0.2041082040
0.7143787138 -0.1020541020 -0.3061623059
0.3061623059 -0.7143787138 0.3061623059
0.4082164079 -0.6123246119 0.2041082040
0.5102705099 -0.5102705099 0.1020541020
0.6123246119 -0.4082164079 0.0000000000
0.7143787138 -0.3061623059 -0.1020541020
0.8164328158 -0.2041082040 -0.2041082040
-0.3061623059 -0.1020541020 -0.1020541020
-0.2041082040 -0.0000000000 -0.2041082040
-0.1020541020 0.1020541020 -0.3061623059
-0.0000000000 0.2041082040 -0.4082164079
0.1020541020 0.3061623059 -0.5102705099
0.2041082040 0.4082164079 -0.6123246119
-0.2041082040 -0.2041082040 -0.0000000000
-0.1020541020 -0.1020541020 -0.1020541020
-0.0000000000 -0.0000000000 -0.2041082040
0.1020541020 0.1020541020 -0.3061623059
0.2041082040 0.2041082040 -0.4082164079
0.3061623059 0.3061623059 -0.5102705099
-0.1020541020 -0.3061623059 0.1020541020
-0.0000000000 -0.2041082040 0.0000000000
0.1020541020 -0.1020541020 -0.1020541020
0.2041082040 -0.0000000000 -0.2041082040
0.3061623059 0.1020541020 -0.3061623059
0.4082164079 0.2041082040 -0.4082164079
-0.0000000000 -0.4082164079 0.2041082040
0.1020541020 -0.3061623059 0.1020541020
0.2041082040 -0.2041082040 0.0000000000
0.3061623059 -0.1020541020 -0.1020541020
0.4082164079 0.0000000000 -0.2041082040
0.5102705099 0.1020541020 -0.3061623059
0.1020541020 -0.5102705099 0.3061623059
0.2041082040 -0.4082164079 0.2041082040
0.3061623059 -0.3061623059 0.1020541020
0.4082164079 -0.2041082040 0.0000000000
0.5102705099 -0.1020541020 -0.1020541020
0.6123246119 0.0000000000 -0.2041082040
0.2041082040 -0.6123246119 0.4082164079
0.3061623059 -0.5102705099 0.3061623059
0.4082164079 -0.4082164079 0.2041082040
0.5102705099 -0.3061623059 0.1020541020
0.6123246119 -0.2041082040 0.0000000000
0.7143787138 -0.1020541020 -0.1020541020
-0.4082164079 -0.0000000000 -0.0000000000
-0.3061623059 0.1020541020 -0.1020541020
-0.2041082040 0.2041082040 -0.2041082040
-0.1020541020 0.3061623059 -0.3061623059
0.0000000000 0.4082164079 -0.4082164079
0.1020541020 0.5102705099 -0.5102705099
-0.3061623059 -0.1020541020 0.1020541020
-0.2041082040 -0.0000000000 -0.0000000000
-0.1020541020 0.1020541020 -0.1020541020
0.0000000000 0.2041082040 -0.2041082040
0.1020541020 0.3061623059 -0.3061623059
0.2041082040 0.4082164079 -0.4082164079
-0.2041082040 -0.2041082040 0.2041082040
-0.1020541020 -0.1020541020 0.1020541020
0.0000000000 0.0000000000 0.0000000000
0.1020541020 0.1020541020 -0.1020541020
0.2041082040 0.2041082040 -0.2041082040
0.3061623059 0.3061623059 -0.3061623059
-0.1020541020 -0.3061623059 0.3061623059
-0.0000000000 -0.2041082040 0.2041082040
0.1020541020 -0.1020541020 0.1020541020
0.2041082040 0.0000000000 0.0000000000
0.3061623059 0.1020541020 -0.1020541020
0.4082164079 0.2041082040 -0.2041082040
-0.0000000000 -0.4082164079 0.4082164079
0.1020541020 -0.3061623059 0.3061623059
0.2041082040 -0.2041082040 0.2041082040
0.3061623059 -0.1020541020 0.1020541020
0.4082164079 0.0000000000 0.0000000000
0.5102705099 0.1020541020 -0.1020541020
0.1020541020 -0.5102705099 0.5102705099
0.2041082040 -0.4082164079 0.4082164079
0.3061623059 -0.3061623059 0.3061623059
0.4082164079 -0.2041082040 0.2041082040
0.5102705099 -0.1020541020 0.1020541020
0.6123246119 0.0000000000 0.0000000000
-0.5102705099 0.1020541020 0.1020541020
-0.4082164079 0.2041082040 -0.0000000000
-0.3061623059 0.3061623059 -0.1020541020
-0.2041082040 0.4082164079 -0.2041082040
-0.1020541020 0.5102705099 -0.3061623059
0.0000000000 0.6123246119 -0.4082164079
-0.4082164079 -0.0000000000 0.2041082040
-0.3061623059 0.1020541020 0.1020541020
-0.2041082040 0.2041082040 -0.0000000000
-0.1020541020 0.3061623059 -0.1020541020
0.0000000000 0.4082164079 -0.2041082040
0.1020541020 0.5102705099 -0.3061623059
-0.3061623059 -0.1020541020 0.3061623059
-0.2041082040 -0.0000000000 0.2041082040
-0.1020541020 0.1020541020 0.1020541020
0.0000000000 0.2041082040 0.0000000000
0.1020541020 0.3061623059 -0.1020541020
0.2041082040 0.4082164079 -0.2041082040
-0.2041082040 -0.2041082040 0.4082164079
-0.1020541020 -0.1020541020 0.3061623059
0.0000000000 0.0000000000 0.2041082040
0.1020541020 0.1020541020 0.1020541020
0.2041082040 0.2041082040 0.0000000000
0.3061623059 0.3061623059 -0.1020541020
-0.1020541020 -0.3061623059 0.5102705099
-0.0000000000 -0.2041082040 0.4082164079
0.1020541020 -0.1020541020 0.3061623059
0.2041082040 0.0000000000 0.2041082040
0.3061623059 0.1020541020 0.1020541020
0.4082164079 0.2041082040 0.0000000000
-0.0000000000 -0.4082164079 0.6123246119
0.1020541020 -0.3061623059 0.5102705099
0.2041082040 -0.2041082040 0.4082164079
0.3061623059 -0.1020541020 0.3061623059
0.4082164079 0.0000000000 0.2041082040
0.5102705099 0.1020541020 0.1020541020
-0.6123246119 0.2041082040 0.2041082040
-0.5102705099 0.3061623059 0.1020541020
-0.4082164079 0.4082164079 -0.0000000000
-0.3061623059 0.5102705099 -0.1020541020
-0.2041082040 0.6123246119 -0.2041082040
-0.1020541020 0.7143787138 -0.3061623059
-0.5102705099 0.1020541020 0.3061623059
-0.4082164079 0.2041082040 0.2041082040
-0.3061623059 0.3061623059 0.1020541020
-0.2041082040 0.4082164079 -0.0000000000
-0.1020541020 0.5102705099 -0.1020541020
0.0000000000 0.6123246119 -0.2041082040
-0.4082164079 -0.0000000000 0.4082164079
-0.3061623059 0.1020541020 0.3061623059
-0.2041082040 0.2041082040 0.2041082040
-0.1020541020 0.3061623059 0.1020541020
0.0000000000 0.4082164079 0.0000000000
0.1020541020 0.5102705099 -0.1020541020
-0.3061623059 -0.1020541020 0.5102705099
-0.2041082040 0.0000000000 0.4082164079
-0.1020541020 0.1020541020 0.3061623059
0.0000000000 0.2041082040 0.2041082040
0.1020541020 0.3061623059 0.1020541020
0.2041082040 0.4082164079 0.0000000000
-0.2041082040 -0.2041082040 0.6123246119
-0.1020541020 -0.1020541020 0.5102705099
0.0000000000 0.0000000000 0.4082164079
0.1020541020 0.1020541020 0.3061623059
0.2041082040 0.2041082040 0.2041082040
0.3061623059 0.3061623059 0.1020541020
-0.1020541020 -0.3061623059 0.7143787138
0.0000000000 -0.2041082040 0.6123246119
0.1020541020 -0.1020541020 0.5102705099
0.2041082040 0.0000000000 0.4082164079
0.3061623059 0.1020541020 0.3061623059
0.4082164079 0.2041082040 0.2041082040
-0.7143787138 0.3061623059 0.3061623059
-0.6123246119 0.4082164079 0.2041082040
-0.5102705099 0.5102705099 0.1020541020
-0.4082164079 0.6123246119 -0.0000000000
-0.3061623059 0.7143787138 -0.1020541020
-0.2041082040 0.8164328158 -0.2041082040
-0.6123246119 0.2041082040 0.4082164079
-0.5102705099 0.3061623059 0.3061623059
-0.4082164079 0.4082164079 0.2041082040
-0.3061623059 0.5102705099 0.1020541020
-0.2041082040 0.6123246119 0.0000000000
-0.1020541020 0.7143787138 -0.1020541020
-0.5102705099 0.1020541020 0.5102705099
-0.4082164079 0.2041082040 0.4082164079
-0.3061623059 0.3061623059 0.3061623059
-0.2041082040 0.4082164079 0.2041082040
-0.1020541020 0.5102705099 0.1020541020
0.0000000000 0.6123246119 0.0000000000
-0.4082164079 0.0000000000 0.6123246119
-0.3061623059 0.1020541020 0.5102705099
-0.2041082040 0.2041082040 0.4082164079
-0.1020541020 0.3061623059 0.3061623059
0.0000000000 0.4082164079 0.2041082040
0.1020541020 0.5102705099 0.1020541020
-0.3061623059 -0.1020541020 0.7143787138
-0.2041082040 0.0000000000 0.6123246119
-0.1020541020 0.1020541020 0.5102705099
0.0000000000 0.2041082040 0.4082164079
0.1020541020 0.3061623059 0.3061623059
0.2041082040 0.4082164079 0.2041082040
-0.2041082040 -0.2041082040 0.8164328158
-0.1020541020 -0.1020541020 0.7143787138
0.0000000000 0.0000000000 0.6123246119
0.1020541020 0.1020541020 0.5102705099
0.2041082040 0.2041082040 0.4082164079
0.3061623059 0.3061623059 0.3061623059
 There are 14 alpha and 14 beta electrons
 Start computing overlap matrix
 Allocate 4478976 B from available memory: 1048575740896 B
 Time for computing overlap matrix: 1.7030000000 s
 ====== Initialize compute kernels for all-electron RI-J (kpts) ====== 
 ========================================================== 
 Range-separated parameter omega        = 0.900000000000000022
 Threshold for 1e2c shellpair           = 0.000000000000010000
 Threshold for 2e2c SR integral         = 0.000000000000000001
 Threshold for 2e3c SR integral         = 0.000000000100000000
 Threshold for AFT G-space screening is = 0.000000000001000000
 The exponent cutoff for C/D classification (omega2 / 2) is  = 0.405000000000000027
 ========================================================== 
 === Post process the basis set for RI calculation (exp_cutoff = 0.405000000000000027 ) === 
nshells_b1 before uncontraction = 16
nshells_b1 after uncontraction = 20
nshells_baux before uncontraction = 74
nshells_baux after uncontraction = 74
===============================================
nbsf total   = 44
nbsf compact = 18
nbsf diffuse = 26
naux total   = 242
naux compact = 242
naux diffuse = 0
nshells_bnuc = 2

 Number of unique atoms is 1
 Unique atom #0 (si) has 5 shells.

Shell 0 to 4 belongs to atom si
Shell 5 to 9 belongs to atom si

 Number of unique atoms is 1
 Unique atom #0 (si) has 5 shells.

Shell 0 to 4 belongs to atom si
Shell 5 to 9 belongs to atom si

 Number of unique atom is 1
 Unique atom #0 (si) has 37 auxiliary shells.

Auxiliary Shell 0 to 36 belongs to atom si
Auxiliary Shell 37 to 73 belongs to atom si

================= Automatically determine grid size for reciprocal space summation =================
 Range-separated parameter = 0.90000000000000 and G-space screening threshold = 0.00000000000100
The number of grid points along each axis dimension is (10, 10, 10)
Total number of grid points = 9261

Use nonortho shellpair for diffuse density
======== Initializing relevant kernel for RIJ (DD type) ========
There are 55 shellpairs in the reference unit cell
There are 2395 images and we expect to have 131725 in total
There are 6642 shellpairs in the lattice sum after screening
======== Initializing relevant kernel for RIJ (CD type) ========
There are 100 shellpairs in the reference unit cell
There are 1313 images and we expect to have 131300 in total
There are 5014 shellpairs in the lattice sum after screening
****** AFT -> SR ******
Maximum bra distance cutoff is 19.000000000000
Maximum bra ket distance cutoff is 16.923537234043
Maximum bra ket screening distance is 16.468750000000
Number of auxiliary image is 341
There are 100 shellpairs in the reference unit cell
There are 341 images and we expect to have 34100 in total
There are 5014 shellpairs in the lattice sum after screening
Available memory per thread for 2e3c calculation is 32.767851935000Gb
Finish initializing 2e3c SR with the lattice sum!
=================================================
======== Initializing relevant kernel for RIJ (CC type) ========
There are 54 shellpairs in the reference unit cell
There are 285 images and we expect to have 15390 in total
There are 126 shellpairs in the lattice sum after screening
****** AFT -> SR ******
Maximum bra distance cutoff is 7.000000000000
Maximum bra ket distance cutoff is 17.457123816333
Maximum bra ket screening distance is 16.343750000000
Number of auxiliary image is 285
There are 54 shellpairs in the reference unit cell
There are 27 images and we expect to have 1458 in total
There are 126 shellpairs in the lattice sum after screening
Available memory per thread for 2e3c calculation is 32.767851935000Gb
Finish initializing 2e3c SR with the lattice sum!
=================================================
======== Initializing the SR component for Vnuc (CD type) ========
Maximum bra distance cutoff is 19.000000000000
Maximum bra ket distance cutoff is 7.647118359706
Maximum bra ket screening distance is 7.125303119800
Number of auxiliary image is 341
There are 100 shellpairs in the reference unit cell
There are 341 images and we expect to have 34100 in total
There are 5014 shellpairs in the lattice sum after screening
Available memory per thread for 2e3c calculation is 32.767851935000Gb
Finish initializing 2e3c SR with the lattice sum!
=================================================
======== Initialize the SR component for Vnuc (CC type) ========
Maximum bra distance cutoff is 7.000000000000
Maximum bra ket distance cutoff is 9.111649205692
Maximum bra ket screening distance is 6.557184410270
Number of auxiliary image is 99
There are 54 shellpairs in the reference unit cell
There are 27 images and we expect to have 1458 in total
There are 126 shellpairs in the lattice sum after screening
Available memory per thread for 2e3c calculation is 32.767851935000Gb
Finish initializing 2e3c SR with the lattice sum!
=================================================
 Aufbau occupation scheme, occupation determined by eigenvalue
 == 0-th k-point nmo = 36 (-0.20411,-0.20411,-0.20411) ==
 == 1-th k-point nmo = 36 (-0.10205,-0.10205,-0.30616) ==
 == 2-th k-point nmo = 36 (-0.00000,-0.00000,-0.40822) ==
 == 3-th k-point nmo = 36 (0.10205,0.10205,-0.51027) ==
 == 4-th k-point nmo = 36 (0.20411,0.20411,-0.61232) ==
 == 5-th k-point nmo = 36 (0.30616,0.30616,-0.71438) ==
 == 6-th k-point nmo = 36 (-0.10205,-0.30616,-0.10205) ==
 == 7-th k-point nmo = 36 (-0.00000,-0.20411,-0.20411) ==
 == 8-th k-point nmo = 36 (0.10205,-0.10205,-0.30616) ==
 == 9-th k-point nmo = 36 (0.20411,-0.00000,-0.40822) ==
 == 10-th k-point nmo = 36 (0.30616,0.10205,-0.51027) ==
 == 11-th k-point nmo = 36 (0.40822,0.20411,-0.61232) ==
 == 12-th k-point nmo = 36 (-0.00000,-0.40822,0.00000) ==
 == 13-th k-point nmo = 36 (0.10205,-0.30616,-0.10205) ==
 == 14-th k-point nmo = 36 (0.20411,-0.20411,-0.20411) ==
 == 15-th k-point nmo = 36 (0.30616,-0.10205,-0.30616) ==
 == 16-th k-point nmo = 36 (0.40822,-0.00000,-0.40822) ==
 == 17-th k-point nmo = 36 (0.51027,0.10205,-0.51027) ==
 == 18-th k-point nmo = 36 (0.10205,-0.51027,0.10205) ==
 == 19-th k-point nmo = 36 (0.20411,-0.40822,0.00000) ==
 == 20-th k-point nmo = 36 (0.30616,-0.30616,-0.10205) ==
 == 21-th k-point nmo = 36 (0.40822,-0.20411,-0.20411) ==
 == 22-th k-point nmo = 36 (0.51027,-0.10205,-0.30616) ==
 == 23-th k-point nmo = 36 (0.61232,0.00000,-0.40822) ==
 == 24-th k-point nmo = 36 (0.20411,-0.61232,0.20411) ==
 == 25-th k-point nmo = 36 (0.30616,-0.51027,0.10205) ==
 == 26-th k-point nmo = 36 (0.40822,-0.40822,0.00000) ==
 == 27-th k-point nmo = 36 (0.51027,-0.30616,-0.10205) ==
 == 28-th k-point nmo = 36 (0.61232,-0.20411,-0.20411) ==
 == 29-th k-point nmo = 36 (0.71438,-0.10205,-0.30616) ==
 == 30-th k-point nmo = 36 (0.30616,-0.71438,0.30616) ==
 == 31-th k-point nmo = 36 (0.40822,-0.61232,0.20411) ==
 == 32-th k-point nmo = 36 (0.51027,-0.51027,0.10205) ==
 == 33-th k-point nmo = 36 (0.61232,-0.40822,0.00000) ==
 == 34-th k-point nmo = 36 (0.71438,-0.30616,-0.10205) ==
 == 35-th k-point nmo = 36 (0.81643,-0.20411,-0.20411) ==
 == 36-th k-point nmo = 36 (-0.30616,-0.10205,-0.10205) ==
 == 37-th k-point nmo = 36 (-0.20411,-0.00000,-0.20411) ==
 == 38-th k-point nmo = 36 (-0.10205,0.10205,-0.30616) ==
 == 39-th k-point nmo = 36 (-0.00000,0.20411,-0.40822) ==
 == 40-th k-point nmo = 36 (0.10205,0.30616,-0.51027) ==
 == 41-th k-point nmo = 36 (0.20411,0.40822,-0.61232) ==
 == 42-th k-point nmo = 36 (-0.20411,-0.20411,-0.00000) ==
 == 43-th k-point nmo = 36 (-0.10205,-0.10205,-0.10205) ==
 == 44-th k-point nmo = 36 (-0.00000,-0.00000,-0.20411) ==
 == 45-th k-point nmo = 36 (0.10205,0.10205,-0.30616) ==
 == 46-th k-point nmo = 36 (0.20411,0.20411,-0.40822) ==
 == 47-th k-point nmo = 36 (0.30616,0.30616,-0.51027) ==
 == 48-th k-point nmo = 36 (-0.10205,-0.30616,0.10205) ==
 == 49-th k-point nmo = 36 (-0.00000,-0.20411,0.00000) ==
 == 50-th k-point nmo = 36 (0.10205,-0.10205,-0.10205) ==
 == 51-th k-point nmo = 36 (0.20411,-0.00000,-0.20411) ==
 == 52-th k-point nmo = 36 (0.30616,0.10205,-0.30616) ==
 == 53-th k-point nmo = 36 (0.40822,0.20411,-0.40822) ==
 == 54-th k-point nmo = 36 (-0.00000,-0.40822,0.20411) ==
 == 55-th k-point nmo = 36 (0.10205,-0.30616,0.10205) ==
 == 56-th k-point nmo = 36 (0.20411,-0.20411,0.00000) ==
 == 57-th k-point nmo = 36 (0.30616,-0.10205,-0.10205) ==
 == 58-th k-point nmo = 36 (0.40822,0.00000,-0.20411) ==
 == 59-th k-point nmo = 36 (0.51027,0.10205,-0.30616) ==
 == 60-th k-point nmo = 36 (0.10205,-0.51027,0.30616) ==
 == 61-th k-point nmo = 36 (0.20411,-0.40822,0.20411) ==
 == 62-th k-point nmo = 36 (0.30616,-0.30616,0.10205) ==
 == 63-th k-point nmo = 36 (0.40822,-0.20411,0.00000) ==
 == 64-th k-point nmo = 36 (0.51027,-0.10205,-0.10205) ==
 == 65-th k-point nmo = 36 (0.61232,0.00000,-0.20411) ==
 == 66-th k-point nmo = 36 (0.20411,-0.61232,0.40822) ==
 == 67-th k-point nmo = 36 (0.30616,-0.51027,0.30616) ==
 == 68-th k-point nmo = 36 (0.40822,-0.40822,0.20411) ==
 == 69-th k-point nmo = 36 (0.51027,-0.30616,0.10205) ==
 == 70-th k-point nmo = 36 (0.61232,-0.20411,0.00000) ==
 == 71-th k-point nmo = 36 (0.71438,-0.10205,-0.10205) ==
 == 72-th k-point nmo = 36 (-0.40822,-0.00000,-0.00000) ==
 == 73-th k-point nmo = 36 (-0.30616,0.10205,-0.10205) ==
 == 74-th k-point nmo = 36 (-0.20411,0.20411,-0.20411) ==
 == 75-th k-point nmo = 36 (-0.10205,0.30616,-0.30616) ==
 == 76-th k-point nmo = 36 (0.00000,0.40822,-0.40822) ==
 == 77-th k-point nmo = 36 (0.10205,0.51027,-0.51027) ==
 == 78-th k-point nmo = 36 (-0.30616,-0.10205,0.10205) ==
 == 79-th k-point nmo = 36 (-0.20411,-0.00000,-0.00000) ==
 == 80-th k-point nmo = 36 (-0.10205,0.10205,-0.10205) ==
 == 81-th k-point nmo = 36 (0.00000,0.20411,-0.20411) ==
 == 82-th k-point nmo = 36 (0.10205,0.30616,-0.30616) ==
 == 83-th k-point nmo = 36 (0.20411,0.40822,-0.40822) ==
 == 84-th k-point nmo = 36 (-0.20411,-0.20411,0.20411) ==
 == 85-th k-point nmo = 36 (-0.10205,-0.10205,0.10205) ==
 == 86-th k-point nmo = 36 (0.00000,0.00000,0.00000) ==
 == 87-th k-point nmo = 36 (0.10205,0.10205,-0.10205) ==
 == 88-th k-point nmo = 36 (0.20411,0.20411,-0.20411) ==
 == 89-th k-point nmo = 36 (0.30616,0.30616,-0.30616) ==
 == 90-th k-point nmo = 36 (-0.10205,-0.30616,0.30616) ==
 == 91-th k-point nmo = 36 (-0.00000,-0.20411,0.20411) ==
 == 92-th k-point nmo = 36 (0.10205,-0.10205,0.10205) ==
 == 93-th k-point nmo = 36 (0.20411,0.00000,0.00000) ==
 == 94-th k-point nmo = 36 (0.30616,0.10205,-0.10205) ==
 == 95-th k-point nmo = 36 (0.40822,0.20411,-0.20411) ==
 == 96-th k-point nmo = 36 (-0.00000,-0.40822,0.40822) ==
 == 97-th k-point nmo = 36 (0.10205,-0.30616,0.30616) ==
 == 98-th k-point nmo = 36 (0.20411,-0.20411,0.20411) ==
 == 99-th k-point nmo = 36 (0.30616,-0.10205,0.10205) ==
 == 100-th k-point nmo = 36 (0.40822,0.00000,0.00000) ==
 == 101-th k-point nmo = 36 (0.51027,0.10205,-0.10205) ==
 == 102-th k-point nmo = 36 (0.10205,-0.51027,0.51027) ==
 == 103-th k-point nmo = 36 (0.20411,-0.40822,0.40822) ==
 == 104-th k-point nmo = 36 (0.30616,-0.30616,0.30616) ==
 == 105-th k-point nmo = 36 (0.40822,-0.20411,0.20411) ==
 == 106-th k-point nmo = 36 (0.51027,-0.10205,0.10205) ==
 == 107-th k-point nmo = 36 (0.61232,0.00000,0.00000) ==
 == 108-th k-point nmo = 36 (-0.51027,0.10205,0.10205) ==
 == 109-th k-point nmo = 36 (-0.40822,0.20411,-0.00000) ==
 == 110-th k-point nmo = 36 (-0.30616,0.30616,-0.10205) ==
 == 111-th k-point nmo = 36 (-0.20411,0.40822,-0.20411) ==
 == 112-th k-point nmo = 36 (-0.10205,0.51027,-0.30616) ==
 == 113-th k-point nmo = 36 (0.00000,0.61232,-0.40822) ==
 == 114-th k-point nmo = 36 (-0.40822,-0.00000,0.20411) ==
 == 115-th k-point nmo = 36 (-0.30616,0.10205,0.10205) ==
 == 116-th k-point nmo = 36 (-0.20411,0.20411,-0.00000) ==
 == 117-th k-point nmo = 36 (-0.10205,0.30616,-0.10205) ==
 == 118-th k-point nmo = 36 (0.00000,0.40822,-0.20411) ==
 == 119-th k-point nmo = 36 (0.10205,0.51027,-0.30616) ==
 == 120-th k-point nmo = 36 (-0.30616,-0.10205,0.30616) ==
 == 121-th k-point nmo = 36 (-0.20411,-0.00000,0.20411) ==
 == 122-th k-point nmo = 36 (-0.10205,0.10205,0.10205) ==
 == 123-th k-point nmo = 36 (0.00000,0.20411,0.00000) ==
 == 124-th k-point nmo = 36 (0.10205,0.30616,-0.10205) ==
 == 125-th k-point nmo = 36 (0.20411,0.40822,-0.20411) ==
 == 126-th k-point nmo = 36 (-0.20411,-0.20411,0.40822) ==
 == 127-th k-point nmo = 36 (-0.10205,-0.10205,0.30616) ==
 == 128-th k-point nmo = 36 (0.00000,0.00000,0.20411) ==
 == 129-th k-point nmo = 36 (0.10205,0.10205,0.10205) ==
 == 130-th k-point nmo = 36 (0.20411,0.20411,0.00000) ==
 == 131-th k-point nmo = 36 (0.30616,0.30616,-0.10205) ==
 == 132-th k-point nmo = 36 (-0.10205,-0.30616,0.51027) ==
 == 133-th k-point nmo = 36 (-0.00000,-0.20411,0.40822) ==
 == 134-th k-point nmo = 36 (0.10205,-0.10205,0.30616) ==
 == 135-th k-point nmo = 36 (0.20411,0.00000,0.20411) ==
 == 136-th k-point nmo = 36 (0.30616,0.10205,0.10205) ==
 == 137-th k-point nmo = 36 (0.40822,0.20411,0.00000) ==
 == 138-th k-point nmo = 36 (-0.00000,-0.40822,0.61232) ==
 == 139-th k-point nmo = 36 (0.10205,-0.30616,0.51027) ==
 == 140-th k-point nmo = 36 (0.20411,-0.20411,0.40822) ==
 == 141-th k-point nmo = 36 (0.30616,-0.10205,0.30616) ==
 == 142-th k-point nmo = 36 (0.40822,0.00000,0.20411) ==
 == 143-th k-point nmo = 36 (0.51027,0.10205,0.10205) ==
 == 144-th k-point nmo = 36 (-0.61232,0.20411,0.20411) ==
 == 145-th k-point nmo = 36 (-0.51027,0.30616,0.10205) ==
 == 146-th k-point nmo = 36 (-0.40822,0.40822,-0.00000) ==
 == 147-th k-point nmo = 36 (-0.30616,0.51027,-0.10205) ==
 == 148-th k-point nmo = 36 (-0.20411,0.61232,-0.20411) ==
 == 149-th k-point nmo = 36 (-0.10205,0.71438,-0.30616) ==
 == 150-th k-point nmo = 36 (-0.51027,0.10205,0.30616) ==
 == 151-th k-point nmo = 36 (-0.40822,0.20411,0.20411) ==
 == 152-th k-point nmo = 36 (-0.30616,0.30616,0.10205) ==
 == 153-th k-point nmo = 36 (-0.20411,0.40822,-0.00000) ==
 == 154-th k-point nmo = 36 (-0.10205,0.51027,-0.10205) ==
 == 155-th k-point nmo = 36 (0.00000,0.61232,-0.20411) ==
 == 156-th k-point nmo = 36 (-0.40822,-0.00000,0.40822) ==
 == 157-th k-point nmo = 36 (-0.30616,0.10205,0.30616) ==
 == 158-th k-point nmo = 36 (-0.20411,0.20411,0.20411) ==
 == 159-th k-point nmo = 36 (-0.10205,0.30616,0.10205) ==
 == 160-th k-point nmo = 36 (0.00000,0.40822,0.00000) ==
 == 161-th k-point nmo = 36 (0.10205,0.51027,-0.10205) ==
 == 162-th k-point nmo = 36 (-0.30616,-0.10205,0.51027) ==
 == 163-th k-point nmo = 36 (-0.20411,0.00000,0.40822) ==
 == 164-th k-point nmo = 36 (-0.10205,0.10205,0.30616) ==
 == 165-th k-point nmo = 36 (0.00000,0.20411,0.20411) ==
 == 166-th k-point nmo = 36 (0.10205,0.30616,0.10205) ==
 == 167-th k-point nmo = 36 (0.20411,0.40822,0.00000) ==
 == 168-th k-point nmo = 36 (-0.20411,-0.20411,0.61232) ==
 == 169-th k-point nmo = 36 (-0.10205,-0.10205,0.51027) ==
 == 170-th k-point nmo = 36 (0.00000,0.00000,0.40822) ==
 == 171-th k-point nmo = 36 (0.10205,0.10205,0.30616) ==
 == 172-th k-point nmo = 36 (0.20411,0.20411,0.20411) ==
 == 173-th k-point nmo = 36 (0.30616,0.30616,0.10205) ==
 == 174-th k-point nmo = 36 (-0.10205,-0.30616,0.71438) ==
 == 175-th k-point nmo = 36 (0.00000,-0.20411,0.61232) ==
 == 176-th k-point nmo = 36 (0.10205,-0.10205,0.51027) ==
 == 177-th k-point nmo = 36 (0.20411,0.00000,0.40822) ==
 == 178-th k-point nmo = 36 (0.30616,0.10205,0.30616) ==
 == 179-th k-point nmo = 36 (0.40822,0.20411,0.20411) ==
 == 180-th k-point nmo = 36 (-0.71438,0.30616,0.30616) ==
 == 181-th k-point nmo = 36 (-0.61232,0.40822,0.20411) ==
 == 182-th k-point nmo = 36 (-0.51027,0.51027,0.10205) ==
 == 183-th k-point nmo = 36 (-0.40822,0.61232,-0.00000) ==
 == 184-th k-point nmo = 36 (-0.30616,0.71438,-0.10205) ==
 == 185-th k-point nmo = 36 (-0.20411,0.81643,-0.20411) ==
 == 186-th k-point nmo = 36 (-0.61232,0.20411,0.40822) ==
 == 187-th k-point nmo = 36 (-0.51027,0.30616,0.30616) ==
 == 188-th k-point nmo = 36 (-0.40822,0.40822,0.20411) ==
 == 189-th k-point nmo = 36 (-0.30616,0.51027,0.10205) ==
 == 190-th k-point nmo = 36 (-0.20411,0.61232,0.00000) ==
 == 191-th k-point nmo = 36 (-0.10205,0.71438,-0.10205) ==
 == 192-th k-point nmo = 36 (-0.51027,0.10205,0.51027) ==
 == 193-th k-point nmo = 36 (-0.40822,0.20411,0.40822) ==
 == 194-th k-point nmo = 36 (-0.30616,0.30616,0.30616) ==
 == 195-th k-point nmo = 36 (-0.20411,0.40822,0.20411) ==
 == 196-th k-point nmo = 36 (-0.10205,0.51027,0.10205) ==
 == 197-th k-point nmo = 36 (0.00000,0.61232,0.00000) ==
 == 198-th k-point nmo = 36 (-0.40822,0.00000,0.61232) ==
 == 199-th k-point nmo = 36 (-0.30616,0.10205,0.51027) ==
 == 200-th k-point nmo = 36 (-0.20411,0.20411,0.40822) ==
 == 201-th k-point nmo = 36 (-0.10205,0.30616,0.30616) ==
 == 202-th k-point nmo = 36 (0.00000,0.40822,0.20411) ==
 == 203-th k-point nmo = 36 (0.10205,0.51027,0.10205) ==
 == 204-th k-point nmo = 36 (-0.30616,-0.10205,0.71438) ==
 == 205-th k-point nmo = 36 (-0.20411,0.00000,0.61232) ==
 == 206-th k-point nmo = 36 (-0.10205,0.10205,0.51027) ==
 == 207-th k-point nmo = 36 (0.00000,0.20411,0.40822) ==
 == 208-th k-point nmo = 36 (0.10205,0.30616,0.30616) ==
 == 209-th k-point nmo = 36 (0.20411,0.40822,0.20411) ==
 == 210-th k-point nmo = 36 (-0.20411,-0.20411,0.81643) ==
 == 211-th k-point nmo = 36 (-0.10205,-0.10205,0.71438) ==
 == 212-th k-point nmo = 36 (0.00000,0.00000,0.61232) ==
 == 213-th k-point nmo = 36 (0.10205,0.10205,0.51027) ==
 == 214-th k-point nmo = 36 (0.20411,0.20411,0.40822) ==
 == 215-th k-point nmo = 36 (0.30616,0.30616,0.30616) ==

 Generate autoSAD guess
backing up fragment data
Atom # 0: si, charge: 0, multiplicity: 3.000000
writing autosad to fragment context
Settings for isolated fragments: 
  frgm_gamma: TRUE
  frgm_center: FALSE

    Running SCF for isolated atom #0
    Fragment Input file: /n/netscratch/joonholee_lab/Lab/hieudinh//si_2_ccpvdz_omega_0.9_666.scratch20250909110313/autosad_frgmt_0/frgmt_input.in
    Fragment Output file: /n/netscratch/joonholee_lab/Lab/hieudinh//si_2_ccpvdz_omega_0.9_666.scratch20250909110313/autosad_frgmt_0/frgmt_job.out
    Fragment job begins at Tue Sep  9 11:03:16 2025

 Integrated density by DFT XC:
   Numerical integral  =    13.999999917315
   Relative error      =     0.0000005906 %
Final energy components:
 DFT Correlation            Energy =  -0.48513826889399
 DFT Exchange               Energy = -20.16642564451806
 Kinetic (alpha)            Energy = 145.25889537694874
 Kinetic (beta)             Energy = 143.28753845481606
 Nuclear Attraction (alpha) Energy = -351.37163574421493
 Nuclear Attraction (beta)  Energy = -337.75785676323738
 Nuclear Repulsion          Energy =   0.00000000000000
 SEOQF                      Energy =  -0.00000000097530
 Total Coulomb              Energy = 132.01551581812907
----------------------------------------------
    SCF Energy: -289.2191067719
   Total fragment job time:  0.41 s.
restoring fragment data

 ------------------------------------------------------------------------
 Allocate 17656704 B from available memory: 1048571261920 B
 Time for generating SCF guess: 0.42 s

 Allocate 69752 B from available memory: 1048553605216 B
 Selected algorithms for each term:
  kpts_kinetic -> @0x14f0263ff680
  kpts_nn -> @0x14f0263ff800
  kpts_rij_bigmem -> @0x14f0263ff3e0
  kpts_vnuc_df -> @0x14f0263ff380
  kpts_xc -> @0x14f0263ff2c0
 Time for computing kinetic matrix is 1.85 s
Start calculating Vnuc DD type!
Start calculating Vnuc CD type!
Start calculating Vnuc CC type!
 Time for computing nuclear attraction matrix is 4.01 s
Compute (P|Q) and use solve on the fly!
Maximum distance between P and Q is 28.44997180930993
Number of images for (P|Qn) is 887
 Time for computing 2e2c SR integral is 0.09 s
Maximum dynamic memory per thread for 2e3c SR integrals: 0.010 GiB
Batch size for basis function pair is 468 out of 468
 === bvk cell = 0 has 100.000 % of the basis function pairs === 
 === bvk cell = 1 has 95.085 % of the basis function pairs === 
 === bvk cell = 2 has 42.308 % of the basis function pairs === 
 === bvk cell = 3 has 13.675 % of the basis function pairs === 
 === bvk cell = 4 has 42.308 % of the basis function pairs === 
 === bvk cell = 5 has 95.085 % of the basis function pairs === 
 === bvk cell = 6 has 95.085 % of the basis function pairs === 
 === bvk cell = 7 has 48.077 % of the basis function pairs === 
 === bvk cell = 8 has 7.692 % of the basis function pairs === 
 === bvk cell = 9 has 7.692 % of the basis function pairs === 
 === bvk cell = 10 has 43.162 % of the basis function pairs === 
 === bvk cell = 11 has 100.000 % of the basis function pairs === 
 === bvk cell = 12 has 42.308 % of the basis function pairs === 
 === bvk cell = 13 has 7.692 % of the basis function pairs === 
 === bvk cell = 14 has 0.000 % of the basis function pairs === 
 === bvk cell = 15 has 6.838 % of the basis function pairs === 
 === bvk cell = 16 has 30.769 % of the basis function pairs === 
 === bvk cell = 17 has 43.162 % of the basis function pairs === 
 === bvk cell = 18 has 13.675 % of the basis function pairs === 
 === bvk cell = 19 has 7.692 % of the basis function pairs === 
 === bvk cell = 20 has 6.838 % of the basis function pairs === 
 === bvk cell = 21 has 0.000 % of the basis function pairs === 
 === bvk cell = 22 has 6.838 % of the basis function pairs === 
 === bvk cell = 23 has 7.692 % of the basis function pairs === 
 === bvk cell = 24 has 42.308 % of the basis function pairs === 
 === bvk cell = 25 has 43.162 % of the basis function pairs === 
 === bvk cell = 26 has 30.769 % of the basis function pairs === 
 === bvk cell = 27 has 6.838 % of the basis function pairs === 
 === bvk cell = 28 has 0.000 % of the basis function pairs === 
 === bvk cell = 29 has 7.692 % of the basis function pairs === 
 === bvk cell = 30 has 95.085 % of the basis function pairs === 
 === bvk cell = 31 has 100.000 % of the basis function pairs === 
 === bvk cell = 32 has 43.162 % of the basis function pairs === 
 === bvk cell = 33 has 7.692 % of the basis function pairs === 
 === bvk cell = 34 has 7.692 % of the basis function pairs === 
 === bvk cell = 35 has 48.077 % of the basis function pairs === 
 === bvk cell = 36 has 95.085 % of the basis function pairs === 
 === bvk cell = 37 has 48.077 % of the basis function pairs === 
 === bvk cell = 38 has 7.692 % of the basis function pairs === 
 === bvk cell = 39 has 7.692 % of the basis function pairs === 
 === bvk cell = 40 has 43.162 % of the basis function pairs === 
 === bvk cell = 41 has 100.000 % of the basis function pairs === 
 === bvk cell = 42 has 48.077 % of the basis function pairs === 
 === bvk cell = 43 has 23.077 % of the basis function pairs === 
 === bvk cell = 44 has 0.000 % of the basis function pairs === 
 === bvk cell = 45 has 23.077 % of the basis function pairs === 
 === bvk cell = 46 has 30.769 % of the basis function pairs === 
 === bvk cell = 47 has 82.692 % of the basis function pairs === 
 === bvk cell = 48 has 7.692 % of the basis function pairs === 
 === bvk cell = 49 has 0.000 % of the basis function pairs === 
 === bvk cell = 50 has 0.000 % of the basis function pairs === 
 === bvk cell = 51 has 0.000 % of the basis function pairs === 
 === bvk cell = 52 has 29.915 % of the basis function pairs === 
 === bvk cell = 53 has 23.077 % of the basis function pairs === 
 === bvk cell = 54 has 7.692 % of the basis function pairs === 
 === bvk cell = 55 has 23.077 % of the basis function pairs === 
 === bvk cell = 56 has 0.000 % of the basis function pairs === 
 === bvk cell = 57 has 0.000 % of the basis function pairs === 
 === bvk cell = 58 has 0.000 % of the basis function pairs === 
 === bvk cell = 59 has 0.000 % of the basis function pairs === 
 === bvk cell = 60 has 43.162 % of the basis function pairs === 
 === bvk cell = 61 has 30.769 % of the basis function pairs === 
 === bvk cell = 62 has 29.915 % of the basis function pairs === 
 === bvk cell = 63 has 0.000 % of the basis function pairs === 
 === bvk cell = 64 has 6.838 % of the basis function pairs === 
 === bvk cell = 65 has 23.077 % of the basis function pairs === 
 === bvk cell = 66 has 100.000 % of the basis function pairs === 
 === bvk cell = 67 has 82.692 % of the basis function pairs === 
 === bvk cell = 68 has 23.077 % of the basis function pairs === 
 === bvk cell = 69 has 0.000 % of the basis function pairs === 
 === bvk cell = 70 has 23.077 % of the basis function pairs === 
 === bvk cell = 71 has 82.692 % of the basis function pairs === 
 === bvk cell = 72 has 42.308 % of the basis function pairs === 
 === bvk cell = 73 has 7.692 % of the basis function pairs === 
 === bvk cell = 74 has 0.000 % of the basis function pairs === 
 === bvk cell = 75 has 6.838 % of the basis function pairs === 
 === bvk cell = 76 has 30.769 % of the basis function pairs === 
 === bvk cell = 77 has 43.162 % of the basis function pairs === 
 === bvk cell = 78 has 7.692 % of the basis function pairs === 
 === bvk cell = 79 has 0.000 % of the basis function pairs === 
 === bvk cell = 80 has 0.000 % of the basis function pairs === 
 === bvk cell = 81 has 0.000 % of the basis function pairs === 
 === bvk cell = 82 has 29.915 % of the basis function pairs === 
 === bvk cell = 83 has 23.077 % of the basis function pairs === 
 === bvk cell = 84 has 0.000 % of the basis function pairs === 
 === bvk cell = 85 has 0.000 % of the basis function pairs === 
 === bvk cell = 86 has 0.000 % of the basis function pairs === 
 === bvk cell = 87 has 0.000 % of the basis function pairs === 
 === bvk cell = 88 has 6.838 % of the basis function pairs === 
 === bvk cell = 89 has 6.838 % of the basis function pairs === 
 === bvk cell = 90 has 6.838 % of the basis function pairs === 
 === bvk cell = 91 has 0.000 % of the basis function pairs === 
 === bvk cell = 92 has 0.000 % of the basis function pairs === 
 === bvk cell = 93 has 0.000 % of the basis function pairs === 
 === bvk cell = 94 has 0.000 % of the basis function pairs === 
 === bvk cell = 95 has 0.000 % of the basis function pairs === 
 === bvk cell = 96 has 30.769 % of the basis function pairs === 
 === bvk cell = 97 has 29.915 % of the basis function pairs === 
 === bvk cell = 98 has 6.838 % of the basis function pairs === 
 === bvk cell = 99 has 0.000 % of the basis function pairs === 
 === bvk cell = 100 has 6.838 % of the basis function pairs === 
 === bvk cell = 101 has 29.915 % of the basis function pairs === 
 === bvk cell = 102 has 43.162 % of the basis function pairs === 
 === bvk cell = 103 has 23.077 % of the basis function pairs === 
 === bvk cell = 104 has 6.838 % of the basis function pairs === 
 === bvk cell = 105 has 0.000 % of the basis function pairs === 
 === bvk cell = 106 has 29.915 % of the basis function pairs === 
 === bvk cell = 107 has 30.769 % of the basis function pairs === 
 === bvk cell = 108 has 13.675 % of the basis function pairs === 
 === bvk cell = 109 has 7.692 % of the basis function pairs === 
 === bvk cell = 110 has 6.838 % of the basis function pairs === 
 === bvk cell = 111 has 0.000 % of the basis function pairs === 
 === bvk cell = 112 has 6.838 % of the basis function pairs === 
 === bvk cell = 113 has 7.692 % of the basis function pairs === 
 === bvk cell = 114 has 7.692 % of the basis function pairs === 
 === bvk cell = 115 has 23.077 % of the basis function pairs === 
 === bvk cell = 116 has 0.000 % of the basis function pairs === 
 === bvk cell = 117 has 0.000 % of the basis function pairs === 
 === bvk cell = 118 has 0.000 % of the basis function pairs === 
 === bvk cell = 119 has 0.000 % of the basis function pairs === 
 === bvk cell = 120 has 6.838 % of the basis function pairs === 
 === bvk cell = 121 has 0.000 % of the basis function pairs === 
 === bvk cell = 122 has 0.000 % of the basis function pairs === 
 === bvk cell = 123 has 0.000 % of the basis function pairs === 
 === bvk cell = 124 has 0.000 % of the basis function pairs === 
 === bvk cell = 125 has 0.000 % of the basis function pairs === 
 === bvk cell = 126 has 0.000 % of the basis function pairs === 
 === bvk cell = 127 has 0.000 % of the basis function pairs === 
 === bvk cell = 128 has 0.000 % of the basis function pairs === 
 === bvk cell = 129 has 0.000 % of the basis function pairs === 
 === bvk cell = 130 has 0.000 % of the basis function pairs === 
 === bvk cell = 131 has 0.000 % of the basis function pairs === 
 === bvk cell = 132 has 6.838 % of the basis function pairs === 
 === bvk cell = 133 has 0.000 % of the basis function pairs === 
 === bvk cell = 134 has 0.000 % of the basis function pairs === 
 === bvk cell = 135 has 0.000 % of the basis function pairs === 
 === bvk cell = 136 has 0.000 % of the basis function pairs === 
 === bvk cell = 137 has 0.000 % of the basis function pairs === 
 === bvk cell = 138 has 7.692 % of the basis function pairs === 
 === bvk cell = 139 has 0.000 % of the basis function pairs === 
 === bvk cell = 140 has 0.000 % of the basis function pairs === 
 === bvk cell = 141 has 0.000 % of the basis function pairs === 
 === bvk cell = 142 has 0.000 % of the basis function pairs === 
 === bvk cell = 143 has 23.077 % of the basis function pairs === 
 === bvk cell = 144 has 42.308 % of the basis function pairs === 
 === bvk cell = 145 has 43.162 % of the basis function pairs === 
 === bvk cell = 146 has 30.769 % of the basis function pairs === 
 === bvk cell = 147 has 6.838 % of the basis function pairs === 
 === bvk cell = 148 has 0.000 % of the basis function pairs === 
 === bvk cell = 149 has 7.692 % of the basis function pairs === 
 === bvk cell = 150 has 43.162 % of the basis function pairs === 
 === bvk cell = 151 has 30.769 % of the basis function pairs === 
 === bvk cell = 152 has 29.915 % of the basis function pairs === 
 === bvk cell = 153 has 0.000 % of the basis function pairs === 
 === bvk cell = 154 has 6.838 % of the basis function pairs === 
 === bvk cell = 155 has 23.077 % of the basis function pairs === 
 === bvk cell = 156 has 30.769 % of the basis function pairs === 
 === bvk cell = 157 has 29.915 % of the basis function pairs === 
 === bvk cell = 158 has 6.838 % of the basis function pairs === 
 === bvk cell = 159 has 0.000 % of the basis function pairs === 
 === bvk cell = 160 has 6.838 % of the basis function pairs === 
 === bvk cell = 161 has 29.915 % of the basis function pairs === 
 === bvk cell = 162 has 6.838 % of the basis function pairs === 
 === bvk cell = 163 has 0.000 % of the basis function pairs === 
 === bvk cell = 164 has 0.000 % of the basis function pairs === 
 === bvk cell = 165 has 0.000 % of the basis function pairs === 
 === bvk cell = 166 has 0.000 % of the basis function pairs === 
 === bvk cell = 167 has 0.000 % of the basis function pairs === 
 === bvk cell = 168 has 0.000 % of the basis function pairs === 
 === bvk cell = 169 has 6.838 % of the basis function pairs === 
 === bvk cell = 170 has 6.838 % of the basis function pairs === 
 === bvk cell = 171 has 0.000 % of the basis function pairs === 
 === bvk cell = 172 has 0.000 % of the basis function pairs === 
 === bvk cell = 173 has 0.000 % of the basis function pairs === 
 === bvk cell = 174 has 7.692 % of the basis function pairs === 
 === bvk cell = 175 has 23.077 % of the basis function pairs === 
 === bvk cell = 176 has 29.915 % of the basis function pairs === 
 === bvk cell = 177 has 0.000 % of the basis function pairs === 
 === bvk cell = 178 has 0.000 % of the basis function pairs === 
 === bvk cell = 179 has 0.000 % of the basis function pairs === 
 === bvk cell = 180 has 95.085 % of the basis function pairs === 
 === bvk cell = 181 has 100.000 % of the basis function pairs === 
 === bvk cell = 182 has 43.162 % of the basis function pairs === 
 === bvk cell = 183 has 7.692 % of the basis function pairs === 
 === bvk cell = 184 has 7.692 % of the basis function pairs === 
 === bvk cell = 185 has 48.077 % of the basis function pairs === 
 === bvk cell = 186 has 100.000 % of the basis function pairs === 
 === bvk cell = 187 has 82.692 % of the basis function pairs === 
 === bvk cell = 188 has 23.077 % of the basis function pairs === 
 === bvk cell = 189 has 0.000 % of the basis function pairs === 
 === bvk cell = 190 has 23.077 % of the basis function pairs === 
 === bvk cell = 191 has 82.692 % of the basis function pairs === 
 === bvk cell = 192 has 43.162 % of the basis function pairs === 
 === bvk cell = 193 has 23.077 % of the basis function pairs === 
 === bvk cell = 194 has 6.838 % of the basis function pairs === 
 === bvk cell = 195 has 0.000 % of the basis function pairs === 
 === bvk cell = 196 has 29.915 % of the basis function pairs === 
 === bvk cell = 197 has 30.769 % of the basis function pairs === 
 === bvk cell = 198 has 7.692 % of the basis function pairs === 
 === bvk cell = 199 has 0.000 % of the basis function pairs === 
 === bvk cell = 200 has 0.000 % of the basis function pairs === 
 === bvk cell = 201 has 0.000 % of the basis function pairs === 
 === bvk cell = 202 has 0.000 % of the basis function pairs === 
 === bvk cell = 203 has 23.077 % of the basis function pairs === 
 === bvk cell = 204 has 7.692 % of the basis function pairs === 
 === bvk cell = 205 has 23.077 % of the basis function pairs === 
 === bvk cell = 206 has 29.915 % of the basis function pairs === 
 === bvk cell = 207 has 0.000 % of the basis function pairs === 
 === bvk cell = 208 has 0.000 % of the basis function pairs === 
 === bvk cell = 209 has 0.000 % of the basis function pairs === 
 === bvk cell = 210 has 48.077 % of the basis function pairs === 
 === bvk cell = 211 has 82.692 % of the basis function pairs === 
 === bvk cell = 212 has 30.769 % of the basis function pairs === 
 === bvk cell = 213 has 23.077 % of the basis function pairs === 
 === bvk cell = 214 has 0.000 % of the basis function pairs === 
 === bvk cell = 215 has 23.077 % of the basis function pairs === 
Static memory requirement for 2e3c SR integrals: 0.037 GB
There are 1 munu batches for computing 2e3c SR integrals with latsum
There are 4 Q batches for computing 2e3c SR integrals with latsum
 Time for computing 2e3c SR integral (CD) is 0.31 s
Maximum dynamic memory per thread for 2e3c SR integrals: 0.000 GiB
Batch size for basis function pair is 182 out of 182
 === bvk cell = 0 has 100.000 % of the basis function pairs === 
 === bvk cell = 1 has 34.066 % of the basis function pairs === 
 === bvk cell = 2 has 0.000 % of the basis function pairs === 
 === bvk cell = 3 has 0.000 % of the basis function pairs === 
 === bvk cell = 4 has 0.000 % of the basis function pairs === 
 === bvk cell = 5 has 9.890 % of the basis function pairs === 
 === bvk cell = 6 has 34.066 % of the basis function pairs === 
 === bvk cell = 7 has 0.000 % of the basis function pairs === 
 === bvk cell = 8 has 0.000 % of the basis function pairs === 
 === bvk cell = 9 has 0.000 % of the basis function pairs === 
 === bvk cell = 10 has 0.000 % of the basis function pairs === 
 === bvk cell = 11 has 0.000 % of the basis function pairs === 
 === bvk cell = 12 has 0.000 % of the basis function pairs === 
 === bvk cell = 13 has 0.000 % of the basis function pairs === 
 === bvk cell = 14 has 0.000 % of the basis function pairs === 
 === bvk cell = 15 has 0.000 % of the basis function pairs === 
 === bvk cell = 16 has 0.000 % of the basis function pairs === 
 === bvk cell = 17 has 0.000 % of the basis function pairs === 
 === bvk cell = 18 has 0.000 % of the basis function pairs === 
 === bvk cell = 19 has 0.000 % of the basis function pairs === 
 === bvk cell = 20 has 0.000 % of the basis function pairs === 
 === bvk cell = 21 has 0.000 % of the basis function pairs === 
 === bvk cell = 22 has 0.000 % of the basis function pairs === 
 === bvk cell = 23 has 0.000 % of the basis function pairs === 
 === bvk cell = 24 has 0.000 % of the basis function pairs === 
 === bvk cell = 25 has 0.000 % of the basis function pairs === 
 === bvk cell = 26 has 0.000 % of the basis function pairs === 
 === bvk cell = 27 has 0.000 % of the basis function pairs === 
 === bvk cell = 28 has 0.000 % of the basis function pairs === 
 === bvk cell = 29 has 0.000 % of the basis function pairs === 
 === bvk cell = 30 has 9.890 % of the basis function pairs === 
 === bvk cell = 31 has 0.000 % of the basis function pairs === 
 === bvk cell = 32 has 0.000 % of the basis function pairs === 
 === bvk cell = 33 has 0.000 % of the basis function pairs === 
 === bvk cell = 34 has 0.000 % of the basis function pairs === 
 === bvk cell = 35 has 0.000 % of the basis function pairs === 
 === bvk cell = 36 has 34.066 % of the basis function pairs === 
 === bvk cell = 37 has 0.000 % of the basis function pairs === 
 === bvk cell = 38 has 0.000 % of the basis function pairs === 
 === bvk cell = 39 has 0.000 % of the basis function pairs === 
 === bvk cell = 40 has 0.000 % of the basis function pairs === 
 === bvk cell = 41 has 0.000 % of the basis function pairs === 
 === bvk cell = 42 has 0.000 % of the basis function pairs === 
 === bvk cell = 43 has 0.000 % of the basis function pairs === 
 === bvk cell = 44 has 0.000 % of the basis function pairs === 
 === bvk cell = 45 has 0.000 % of the basis function pairs === 
 === bvk cell = 46 has 0.000 % of the basis function pairs === 
 === bvk cell = 47 has 0.000 % of the basis function pairs === 
 === bvk cell = 48 has 0.000 % of the basis function pairs === 
 === bvk cell = 49 has 0.000 % of the basis function pairs === 
 === bvk cell = 50 has 0.000 % of the basis function pairs === 
 === bvk cell = 51 has 0.000 % of the basis function pairs === 
 === bvk cell = 52 has 0.000 % of the basis function pairs === 
 === bvk cell = 53 has 0.000 % of the basis function pairs === 
 === bvk cell = 54 has 0.000 % of the basis function pairs === 
 === bvk cell = 55 has 0.000 % of the basis function pairs === 
 === bvk cell = 56 has 0.000 % of the basis function pairs === 
 === bvk cell = 57 has 0.000 % of the basis function pairs === 
 === bvk cell = 58 has 0.000 % of the basis function pairs === 
 === bvk cell = 59 has 0.000 % of the basis function pairs === 
 === bvk cell = 60 has 0.000 % of the basis function pairs === 
 === bvk cell = 61 has 0.000 % of the basis function pairs === 
 === bvk cell = 62 has 0.000 % of the basis function pairs === 
 === bvk cell = 63 has 0.000 % of the basis function pairs === 
 === bvk cell = 64 has 0.000 % of the basis function pairs === 
 === bvk cell = 65 has 0.000 % of the basis function pairs === 
 === bvk cell = 66 has 0.000 % of the basis function pairs === 
 === bvk cell = 67 has 0.000 % of the basis function pairs === 
 === bvk cell = 68 has 0.000 % of the basis function pairs === 
 === bvk cell = 69 has 0.000 % of the basis function pairs === 
 === bvk cell = 70 has 0.000 % of the basis function pairs === 
 === bvk cell = 71 has 0.000 % of the basis function pairs === 
 === bvk cell = 72 has 0.000 % of the basis function pairs === 
 === bvk cell = 73 has 0.000 % of the basis function pairs === 
 === bvk cell = 74 has 0.000 % of the basis function pairs === 
 === bvk cell = 75 has 0.000 % of the basis function pairs === 
 === bvk cell = 76 has 0.000 % of the basis function pairs === 
 === bvk cell = 77 has 0.000 % of the basis function pairs === 
 === bvk cell = 78 has 0.000 % of the basis function pairs === 
 === bvk cell = 79 has 0.000 % of the basis function pairs === 
 === bvk cell = 80 has 0.000 % of the basis function pairs === 
 === bvk cell = 81 has 0.000 % of the basis function pairs === 
 === bvk cell = 82 has 0.000 % of the basis function pairs === 
 === bvk cell = 83 has 0.000 % of the basis function pairs === 
 === bvk cell = 84 has 0.000 % of the basis function pairs === 
 === bvk cell = 85 has 0.000 % of the basis function pairs === 
 === bvk cell = 86 has 0.000 % of the basis function pairs === 
 === bvk cell = 87 has 0.000 % of the basis function pairs === 
 === bvk cell = 88 has 0.000 % of the basis function pairs === 
 === bvk cell = 89 has 0.000 % of the basis function pairs === 
 === bvk cell = 90 has 0.000 % of the basis function pairs === 
 === bvk cell = 91 has 0.000 % of the basis function pairs === 
 === bvk cell = 92 has 0.000 % of the basis function pairs === 
 === bvk cell = 93 has 0.000 % of the basis function pairs === 
 === bvk cell = 94 has 0.000 % of the basis function pairs === 
 === bvk cell = 95 has 0.000 % of the basis function pairs === 
 === bvk cell = 96 has 0.000 % of the basis function pairs === 
 === bvk cell = 97 has 0.000 % of the basis function pairs === 
 === bvk cell = 98 has 0.000 % of the basis function pairs === 
 === bvk cell = 99 has 0.000 % of the basis function pairs === 
 === bvk cell = 100 has 0.000 % of the basis function pairs === 
 === bvk cell = 101 has 0.000 % of the basis function pairs === 
 === bvk cell = 102 has 0.000 % of the basis function pairs === 
 === bvk cell = 103 has 0.000 % of the basis function pairs === 
 === bvk cell = 104 has 0.000 % of the basis function pairs === 
 === bvk cell = 105 has 0.000 % of the basis function pairs === 
 === bvk cell = 106 has 0.000 % of the basis function pairs === 
 === bvk cell = 107 has 0.000 % of the basis function pairs === 
 === bvk cell = 108 has 0.000 % of the basis function pairs === 
 === bvk cell = 109 has 0.000 % of the basis function pairs === 
 === bvk cell = 110 has 0.000 % of the basis function pairs === 
 === bvk cell = 111 has 0.000 % of the basis function pairs === 
 === bvk cell = 112 has 0.000 % of the basis function pairs === 
 === bvk cell = 113 has 0.000 % of the basis function pairs === 
 === bvk cell = 114 has 0.000 % of the basis function pairs === 
 === bvk cell = 115 has 0.000 % of the basis function pairs === 
 === bvk cell = 116 has 0.000 % of the basis function pairs === 
 === bvk cell = 117 has 0.000 % of the basis function pairs === 
 === bvk cell = 118 has 0.000 % of the basis function pairs === 
 === bvk cell = 119 has 0.000 % of the basis function pairs === 
 === bvk cell = 120 has 0.000 % of the basis function pairs === 
 === bvk cell = 121 has 0.000 % of the basis function pairs === 
 === bvk cell = 122 has 0.000 % of the basis function pairs === 
 === bvk cell = 123 has 0.000 % of the basis function pairs === 
 === bvk cell = 124 has 0.000 % of the basis function pairs === 
 === bvk cell = 125 has 0.000 % of the basis function pairs === 
 === bvk cell = 126 has 0.000 % of the basis function pairs === 
 === bvk cell = 127 has 0.000 % of the basis function pairs === 
 === bvk cell = 128 has 0.000 % of the basis function pairs === 
 === bvk cell = 129 has 0.000 % of the basis function pairs === 
 === bvk cell = 130 has 0.000 % of the basis function pairs === 
 === bvk cell = 131 has 0.000 % of the basis function pairs === 
 === bvk cell = 132 has 0.000 % of the basis function pairs === 
 === bvk cell = 133 has 0.000 % of the basis function pairs === 
 === bvk cell = 134 has 0.000 % of the basis function pairs === 
 === bvk cell = 135 has 0.000 % of the basis function pairs === 
 === bvk cell = 136 has 0.000 % of the basis function pairs === 
 === bvk cell = 137 has 0.000 % of the basis function pairs === 
 === bvk cell = 138 has 0.000 % of the basis function pairs === 
 === bvk cell = 139 has 0.000 % of the basis function pairs === 
 === bvk cell = 140 has 0.000 % of the basis function pairs === 
 === bvk cell = 141 has 0.000 % of the basis function pairs === 
 === bvk cell = 142 has 0.000 % of the basis function pairs === 
 === bvk cell = 143 has 0.000 % of the basis function pairs === 
 === bvk cell = 144 has 0.000 % of the basis function pairs === 
 === bvk cell = 145 has 0.000 % of the basis function pairs === 
 === bvk cell = 146 has 0.000 % of the basis function pairs === 
 === bvk cell = 147 has 0.000 % of the basis function pairs === 
 === bvk cell = 148 has 0.000 % of the basis function pairs === 
 === bvk cell = 149 has 0.000 % of the basis function pairs === 
 === bvk cell = 150 has 0.000 % of the basis function pairs === 
 === bvk cell = 151 has 0.000 % of the basis function pairs === 
 === bvk cell = 152 has 0.000 % of the basis function pairs === 
 === bvk cell = 153 has 0.000 % of the basis function pairs === 
 === bvk cell = 154 has 0.000 % of the basis function pairs === 
 === bvk cell = 155 has 0.000 % of the basis function pairs === 
 === bvk cell = 156 has 0.000 % of the basis function pairs === 
 === bvk cell = 157 has 0.000 % of the basis function pairs === 
 === bvk cell = 158 has 0.000 % of the basis function pairs === 
 === bvk cell = 159 has 0.000 % of the basis function pairs === 
 === bvk cell = 160 has 0.000 % of the basis function pairs === 
 === bvk cell = 161 has 0.000 % of the basis function pairs === 
 === bvk cell = 162 has 0.000 % of the basis function pairs === 
 === bvk cell = 163 has 0.000 % of the basis function pairs === 
 === bvk cell = 164 has 0.000 % of the basis function pairs === 
 === bvk cell = 165 has 0.000 % of the basis function pairs === 
 === bvk cell = 166 has 0.000 % of the basis function pairs === 
 === bvk cell = 167 has 0.000 % of the basis function pairs === 
 === bvk cell = 168 has 0.000 % of the basis function pairs === 
 === bvk cell = 169 has 0.000 % of the basis function pairs === 
 === bvk cell = 170 has 0.000 % of the basis function pairs === 
 === bvk cell = 171 has 0.000 % of the basis function pairs === 
 === bvk cell = 172 has 0.000 % of the basis function pairs === 
 === bvk cell = 173 has 0.000 % of the basis function pairs === 
 === bvk cell = 174 has 0.000 % of the basis function pairs === 
 === bvk cell = 175 has 0.000 % of the basis function pairs === 
 === bvk cell = 176 has 0.000 % of the basis function pairs === 
 === bvk cell = 177 has 0.000 % of the basis function pairs === 
 === bvk cell = 178 has 0.000 % of the basis function pairs === 
 === bvk cell = 179 has 0.000 % of the basis function pairs === 
 === bvk cell = 180 has 9.890 % of the basis function pairs === 
 === bvk cell = 181 has 0.000 % of the basis function pairs === 
 === bvk cell = 182 has 0.000 % of the basis function pairs === 
 === bvk cell = 183 has 0.000 % of the basis function pairs === 
 === bvk cell = 184 has 0.000 % of the basis function pairs === 
 === bvk cell = 185 has 0.000 % of the basis function pairs === 
 === bvk cell = 186 has 0.000 % of the basis function pairs === 
 === bvk cell = 187 has 0.000 % of the basis function pairs === 
 === bvk cell = 188 has 0.000 % of the basis function pairs === 
 === bvk cell = 189 has 0.000 % of the basis function pairs === 
 === bvk cell = 190 has 0.000 % of the basis function pairs === 
 === bvk cell = 191 has 0.000 % of the basis function pairs === 
 === bvk cell = 192 has 0.000 % of the basis function pairs === 
 === bvk cell = 193 has 0.000 % of the basis function pairs === 
 === bvk cell = 194 has 0.000 % of the basis function pairs === 
 === bvk cell = 195 has 0.000 % of the basis function pairs === 
 === bvk cell = 196 has 0.000 % of the basis function pairs === 
 === bvk cell = 197 has 0.000 % of the basis function pairs === 
 === bvk cell = 198 has 0.000 % of the basis function pairs === 
 === bvk cell = 199 has 0.000 % of the basis function pairs === 
 === bvk cell = 200 has 0.000 % of the basis function pairs === 
 === bvk cell = 201 has 0.000 % of the basis function pairs === 
 === bvk cell = 202 has 0.000 % of the basis function pairs === 
 === bvk cell = 203 has 0.000 % of the basis function pairs === 
 === bvk cell = 204 has 0.000 % of the basis function pairs === 
 === bvk cell = 205 has 0.000 % of the basis function pairs === 
 === bvk cell = 206 has 0.000 % of the basis function pairs === 
 === bvk cell = 207 has 0.000 % of the basis function pairs === 
 === bvk cell = 208 has 0.000 % of the basis function pairs === 
 === bvk cell = 209 has 0.000 % of the basis function pairs === 
 === bvk cell = 210 has 0.000 % of the basis function pairs === 
 === bvk cell = 211 has 0.000 % of the basis function pairs === 
 === bvk cell = 212 has 0.000 % of the basis function pairs === 
 === bvk cell = 213 has 0.000 % of the basis function pairs === 
 === bvk cell = 214 has 0.000 % of the basis function pairs === 
 === bvk cell = 215 has 0.000 % of the basis function pairs === 
Static memory requirement for 2e3c SR integrals: 0.001 GB
There are 1 munu batches for computing 2e3c SR integrals with latsum
There are 4 Q batches for computing 2e3c SR integrals with latsum
 Time for computing 2e3c SR integral (CC) is 0.06 s
 Time for RI-J this SCF iteration is 0.95 s
 Time for RI-J this SCF iteration is 0.52 s
 ----------------------------------------------
 Guess energy: -578.7629220035
 ----------------------------------------------
 Guess energy components:
 DFT Correlation    Energy =  -1.09468370678601
 DFT Exchange       Energy = -40.57580421163661
 Kinetic            Energy = 577.59211554628484
 Nuclear Attraction Energy = -1186.18051149901862
 Nuclear Repulsion  Energy = -102.89365928466421
 Total Coulomb      Energy = 174.38962115227105
 ----------------------------------------------
  Cycle       Energy         DIIS error
 ----------------------------------------------
 Time for RI-J this SCF iteration is 0.49 s
    1    -578.7671370853      2.71e-03  
 Energy components after cycle 1:
 DFT Correlation    Energy =  -1.09829998709411
 DFT Exchange       Energy = -40.51125835368195
 Kinetic            Energy = 577.04883298710422
 Nuclear Attraction Energy = -1184.90635086240195
 Nuclear Repulsion  Energy = -102.89365928466421
 Total Coulomb      Energy = 173.59359841548579
    2    -578.7671370853      1.20e-03  
 Energy components after cycle 2:
 DFT Correlation    Energy =  -1.09829998709411
 DFT Exchange       Energy = -40.51125835368195
 Kinetic            Energy = 577.04883298710422
 Nuclear Attraction Energy = -1184.90635086240195
 Nuclear Repulsion  Energy = -102.89365928466421
 Total Coulomb      Energy = 173.59359841548579
 ----------------------------------------------
  Cycle       Energy        RMS Gradient
 ----------------------------------------------
 Time for RI-J this SCF iteration is 0.48 s
    1    -578.7678344448      1.96e-02   Descent step
 Energy components after cycle 1:
 DFT Correlation    Energy =  -1.09769101153582
 DFT Exchange       Energy = -40.52706979378685
 Kinetic            Energy = 577.20278047986289
 Nuclear Attraction Energy = -1185.22270239009208
 Nuclear Repulsion  Energy = -102.89365928466421
 Total Coulomb      Energy = 173.77050755543050
 Time for RI-J this SCF iteration is 0.50 s
    2    -578.7678637400      5.87e-03   Normal BFGS step
 Energy components after cycle 2:
 DFT Correlation    Energy =  -1.09747502189968
 DFT Exchange       Energy = -40.53206138118407
 Kinetic            Energy = 577.24935478327336
 Nuclear Attraction Energy = -1185.32151904591660
 Nuclear Repulsion  Energy = -102.89365928466421
 Total Coulomb      Energy = 173.82749621040227
 Time for RI-J this SCF iteration is 0.47 s
    3    -578.7678784265      2.67e-03   Normal BFGS step
 Energy components after cycle 3:
 DFT Correlation    Energy =  -1.09756847201862
 DFT Exchange       Energy = -40.52942753445384
 Kinetic            Energy = 577.22334391993888
 Nuclear Attraction Energy = -1185.26913328785326
 Nuclear Repulsion  Energy = -102.89365928466421
 Total Coulomb      Energy = 173.79856623250802
 Time for RI-J this SCF iteration is 0.49 s
    4    -578.7678784846      1.94e-04   Normal BFGS step
 Energy components after cycle 4:
 DFT Correlation    Energy =  -1.09757449332725
 DFT Exchange       Energy = -40.52935849177940
 Kinetic            Energy = 577.22292591351538
 Nuclear Attraction Energy = -1185.26784635943113
 Nuclear Repulsion  Energy = -102.89365928466421
 Total Coulomb      Energy = 173.79763423110825
 Time for RI-J this SCF iteration is 0.48 s
    5    -578.7678784984      8.23e-05   Normal BFGS step
 Energy components after cycle 5:
 DFT Correlation    Energy =  -1.09757196022450
 DFT Exchange       Energy = -40.52942148168211
 Kinetic            Energy = 577.22352673507442
 Nuclear Attraction Energy = -1185.26909437624545
 Nuclear Repulsion  Energy = -102.89365928466421
 Total Coulomb      Energy = 173.79834186932030
 Time for RI-J this SCF iteration is 0.47 s
    6    -578.7678784984      3.72e-06   Normal BFGS step
 Energy components after cycle 6:
 DFT Correlation    Energy =  -1.09757192887769
 DFT Exchange       Energy = -40.52941711913961
 Kinetic            Energy = 577.22346984590729
 Nuclear Attraction Energy = -1185.26900327788758
 Nuclear Repulsion  Energy = -102.89365928466421
 Total Coulomb      Energy = 173.79830326621951
    6    -578.7678784984      3.72e-06  Convergence criterion met
 ----------------------------------------------
 Final energy components:
 DFT Correlation    Energy =  -1.09757192887769
 DFT Exchange       Energy = -40.52941711913961
 Kinetic            Energy = 577.22346984590729
 Nuclear Attraction Energy = -1185.26900327788758
 Nuclear Repulsion  Energy = -102.89365928466421
 Total Coulomb      Energy = 173.79830326621951
 ----------------------------------------------
 Final energy is -578.7678784984

 SCF time:   CPU 871.80s  wall 38.00s 
 Total wall time for computing Kinetic: 0.00 s (9)
 Total wall time for computing RIJ-BIGMEM: 4.86 s (9)
 Total wall time for computing RSDF Vnuc: 0.01 s (9)
 Total wall time for computing DFT XC: 22.80 s (9)
 ---------------------------------------------------------------------------
                        Orbital Energies (a.u.)
 ---------------------------------------------------------------------------
 == 0-th k-point (-0.20411,-0.20411,-0.20411) occupation: 14==
 -64.99595 -64.99594 -4.62559 -4.62553 -3.03723 -3.03723 -3.03713 -3.03661 -3.03653 -3.03653
 -0.11353 0.07959 0.24019 0.24019 0.34626 0.41449 0.41449 0.58249 0.62003 0.62003
 0.69257 0.80882 0.86964 0.86964 0.95311 1.11359 1.11359 1.21400 1.28693 1.28693
 1.29345 1.47672 1.47672 1.63714 1.63714 2.51756
 == 1-th k-point (-0.10205,-0.10205,-0.30616) occupation: 14==
 -64.99595 -64.99594 -4.62561 -4.62555 -3.03724 -3.03723 -3.03710 -3.03664 -3.03653 -3.03653
 -0.11640 0.11315 0.20355 0.21233 0.35467 0.43355 0.46051 0.47332 0.63838 0.65195
 0.72493 0.81951 0.84037 0.90241 1.03198 1.04179 1.07626 1.14024 1.19485 1.33620
 1.37443 1.41341 1.50911 1.64778 1.80753 2.31821
 == 2-th k-point (-0.00000,-0.00000,-0.40822) occupation: 14==
 -64.99594 -64.99594 -4.62565 -4.62557 -3.03725 -3.03725 -3.03703 -3.03670 -3.03651 -3.03651
 -0.09424 0.09211 0.18699 0.18699 0.30787 0.35943 0.55651 0.55651 0.66086 0.67570
 0.77721 0.82283 0.82283 0.94084 0.95225 1.04463 1.04653 1.04653 1.21721 1.32681
 1.32682 1.34952 1.50029 1.54212 1.93800 1.93801
 == 3-th k-point (0.10205,0.10205,-0.51027) occupation: 14==
 -64.99595 -64.99594 -4.62565 -4.62561 -3.03727 -3.03726 -3.03696 -3.03678 -3.03650 -3.03648
 -0.05136 0.03453 0.14193 0.18172 0.32152 0.38443 0.56411 0.56548 0.68698 0.70839
 0.76738 0.77569 0.88466 0.93294 0.93969 1.02859 1.09279 1.11834 1.13931 1.24936
 1.26386 1.28318 1.38333 1.51649 1.77767 2.31730
 == 4-th k-point (0.20411,0.20411,-0.61232) occupation: 14==
 -64.99595 -64.99594 -4.62562 -4.62561 -3.03726 -3.03724 -3.03699 -3.03676 -3.03651 -3.03648
 -0.04397 0.02693 0.11284 0.19835 0.34056 0.50754 0.52350 0.55040 0.55540 0.60364
 0.84831 0.90079 0.93173 0.93288 0.94172 0.97687 1.03697 1.07706 1.20643 1.24716
 1.26422 1.26515 1.45610 1.68416 1.70666 2.27247
 == 5-th k-point (0.30616,0.30616,-0.71438) occupation: 14==
 -64.99595 -64.99594 -4.62560 -4.62558 -3.03724 -3.03724 -3.03708 -3.03667 -3.03653 -3.03650
 -0.08668 0.05480 0.16400 0.22901 0.37327 0.43752 0.44218 0.55619 0.59373 0.65762
 0.77418 0.79967 0.85746 0.90890 0.94312 1.07125 1.08851 1.16523 1.19909 1.31004
 1.35621 1.41316 1.43759 1.59263 1.87667 2.43034
 == 6-th k-point (-0.10205,-0.30616,-0.10205) occupation: 14==
 -64.99595 -64.99594 -4.62561 -4.62555 -3.03724 -3.03723 -3.03710 -3.03664 -3.03653 -3.03653
 -0.11640 0.11315 0.20355 0.21233 0.35467 0.43355 0.46051 0.47332 0.63838 0.65195
 0.72493 0.81951 0.84037 0.90241 1.03198 1.04179 1.07626 1.14024 1.19485 1.33620
 1.37443 1.41341 1.50911 1.64778 1.80753 2.31821
 == 7-th k-point (-0.00000,-0.20411,-0.20411) occupation: 14==
 -64.99595 -64.99594 -4.62558 -4.62554 -3.03722 -3.03722 -3.03714 -3.03661 -3.03656 -3.03653
 -0.12923 0.13994 0.18772 0.25694 0.39373 0.41295 0.42717 0.49636 0.55934 0.65478
 0.70590 0.78602 0.84899 0.96488 1.00381 1.02226 1.11062 1.20237 1.24531 1.35834
 1.38096 1.45354 1.54689 1.65909 1.89207 2.10508
 == 8-th k-point (0.10205,-0.10205,-0.30616) occupation: 14==
 -64.99595 -64.99594 -4.62561 -4.62555 -3.03724 -3.03723 -3.03710 -3.03664 -3.03653 -3.03653
 -0.11640 0.11315 0.20355 0.21233 0.35467 0.43355 0.46051 0.47332 0.63838 0.65195
 0.72493 0.81951 0.84037 0.90241 1.03198 1.04179 1.07626 1.14024 1.19485 1.33620
 1.37443 1.41341 1.50911 1.64778 1.80753 2.31820
 == 9-th k-point (0.20411,-0.00000,-0.40822) occupation: 14==
 -64.99595 -64.99594 -4.62563 -4.62559 -3.03726 -3.03725 -3.03703 -3.03671 -3.03652 -3.03649
 -0.07999 0.06862 0.14432 0.19194 0.38817 0.42520 0.44023 0.54920 0.64580 0.66596
 0.78511 0.83189 0.85009 0.88623 1.00174 1.03580 1.06424 1.10600 1.21425 1.22864
 1.31877 1.36740 1.42139 1.55310 2.04923 2.07305
 == 10-th k-point (0.30616,0.10205,-0.51027) occupation: 14==
 -64.99595 -64.99594 -4.62563 -4.62562 -3.03727 -3.03726 -3.03697 -3.03677 -3.03650 -3.03648
 -0.04359 0.02411 0.12801 0.17440 0.40911 0.41477 0.51632 0.52613 0.57266 0.71637
 0.76291 0.85348 0.92335 0.95576 0.95599 1.02802 1.05886 1.10585 1.12188 1.18093
 1.27482 1.32450 1.44319 1.53042 1.83397 2.06925
 == 11-th k-point (0.40822,0.20411,-0.61232) occupation: 14==
 -64.99595 -64.99594 -4.62563 -4.62559 -3.03726 -3.03725 -3.03703 -3.03671 -3.03652 -3.03649
 -0.07999 0.06862 0.14432 0.19194 0.38817 0.42520 0.44023 0.54920 0.64580 0.66596
 0.78511 0.83189 0.85009 0.88623 1.00174 1.03580 1.06424 1.10600 1.21425 1.22864
 1.31877 1.36740 1.42139 1.55310 2.04923 2.07305
 == 12-th k-point (-0.00000,-0.40822,0.00000) occupation: 14==
 -64.99594 -64.99594 -4.62565 -4.62557 -3.03725 -3.03725 -3.03703 -3.03670 -3.03651 -3.03651
 -0.09424 0.09211 0.18699 0.18699 0.30787 0.35943 0.55651 0.55651 0.66086 0.67570
 0.77721 0.82283 0.82283 0.94084 0.95225 1.04463 1.04653 1.04653 1.21721 1.32681
 1.32682 1.34952 1.50029 1.54212 1.93800 1.93801
 == 13-th k-point (0.10205,-0.30616,-0.10205) occupation: 14==
 -64.99595 -64.99594 -4.62561 -4.62555 -3.03724 -3.03723 -3.03710 -3.03664 -3.03653 -3.03653
 -0.11640 0.11315 0.20355 0.21233 0.35467 0.43355 0.46051 0.47332 0.63838 0.65195
 0.72493 0.81951 0.84037 0.90241 1.03198 1.04179 1.07626 1.14024 1.19485 1.33620
 1.37443 1.41341 1.50911 1.64778 1.80753 2.31820
 == 14-th k-point (0.20411,-0.20411,-0.20411) occupation: 14==
 -64.99595 -64.99594 -4.62559 -4.62553 -3.03723 -3.03723 -3.03713 -3.03661 -3.03653 -3.03653
 -0.11353 0.07959 0.24019 0.24019 0.34626 0.41449 0.41449 0.58249 0.62003 0.62003
 0.69257 0.80882 0.86964 0.86964 0.95311 1.11359 1.11359 1.21400 1.28693 1.28693
 1.29345 1.47672 1.47672 1.63714 1.63714 2.51756
 == 15-th k-point (0.30616,-0.10205,-0.30616) occupation: 14==
 -64.99595 -64.99594 -4.62560 -4.62558 -3.03724 -3.03724 -3.03708 -3.03667 -3.03653 -3.03650
 -0.08668 0.05480 0.16400 0.22901 0.37327 0.43752 0.44218 0.55619 0.59373 0.65762
 0.77418 0.79967 0.85746 0.90890 0.94312 1.07125 1.08851 1.16523 1.19909 1.31004
 1.35621 1.41316 1.43759 1.59264 1.87667 2.43034
 == 16-th k-point (0.40822,-0.00000,-0.40822) occupation: 14==
 -64.99595 -64.99594 -4.62562 -4.62561 -3.03726 -3.03724 -3.03699 -3.03676 -3.03651 -3.03648
 -0.04397 0.02693 0.11284 0.19835 0.34056 0.50754 0.52350 0.55040 0.55540 0.60364
 0.84831 0.90079 0.93173 0.93288 0.94172 0.97687 1.03697 1.07706 1.20643 1.24716
 1.26422 1.26515 1.45610 1.68416 1.70666 2.27247
 == 17-th k-point (0.51027,0.10205,-0.51027) occupation: 14==
 -64.99595 -64.99594 -4.62565 -4.62561 -3.03726 -3.03726 -3.03696 -3.03678 -3.03650 -3.03648
 -0.05136 0.03453 0.14193 0.18172 0.32152 0.38443 0.56411 0.56548 0.68698 0.70839
 0.76738 0.77569 0.88466 0.93294 0.93969 1.02859 1.09279 1.11834 1.13931 1.24936
 1.26386 1.28318 1.38334 1.51649 1.77767 2.31731
 == 18-th k-point (0.10205,-0.51027,0.10205) occupation: 14==
 -64.99595 -64.99594 -4.62565 -4.62561 -3.03727 -3.03726 -3.03696 -3.03678 -3.03650 -3.03648
 -0.05136 0.03453 0.14193 0.18172 0.32152 0.38443 0.56411 0.56548 0.68698 0.70839
 0.76738 0.77569 0.88466 0.93294 0.93969 1.02859 1.09279 1.11834 1.13931 1.24936
 1.26386 1.28318 1.38333 1.51649 1.77767 2.31730
 == 19-th k-point (0.20411,-0.40822,0.00000) occupation: 14==
 -64.99595 -64.99594 -4.62563 -4.62559 -3.03726 -3.03725 -3.03703 -3.03671 -3.03652 -3.03649
 -0.07999 0.06862 0.14432 0.19194 0.38817 0.42520 0.44023 0.54920 0.64580 0.66596
 0.78511 0.83189 0.85009 0.88623 1.00174 1.03580 1.06424 1.10600 1.21425 1.22864
 1.31877 1.36740 1.42139 1.55310 2.04923 2.07305
 == 20-th k-point (0.30616,-0.30616,-0.10205) occupation: 14==
 -64.99595 -64.99594 -4.62560 -4.62558 -3.03724 -3.03724 -3.03708 -3.03667 -3.03653 -3.03650
 -0.08668 0.05480 0.16400 0.22901 0.37327 0.43752 0.44218 0.55619 0.59373 0.65762
 0.77418 0.79967 0.85746 0.90890 0.94312 1.07125 1.08851 1.16523 1.19909 1.31004
 1.35621 1.41316 1.43759 1.59264 1.87667 2.43034
 == 21-th k-point (0.40822,-0.20411,-0.20411) occupation: 14==
 -64.99595 -64.99594 -4.62561 -4.62559 -3.03725 -3.03725 -3.03705 -3.03669 -3.03651 -3.03650
 -0.07248 0.03250 0.17416 0.21092 0.35814 0.43646 0.45786 0.52769 0.66272 0.70322
 0.75961 0.76841 0.81342 0.91438 0.99001 1.09925 1.10642 1.11905 1.17560 1.22411
 1.38403 1.38716 1.40909 1.63063 1.69265 2.59491
 == 22-th k-point (0.51027,-0.10205,-0.30616) occupation: 14==
 -64.99595 -64.99594 -4.62563 -4.62562 -3.03727 -3.03726 -3.03697 -3.03677 -3.03650 -3.03648
 -0.04359 0.02411 0.12801 0.17440 0.40911 0.41477 0.51632 0.52613 0.57266 0.71637
 0.76291 0.85348 0.92335 0.95576 0.95599 1.02802 1.05886 1.10585 1.12188 1.18093
 1.27482 1.32450 1.44319 1.53042 1.83397 2.06925
 == 23-th k-point (0.61232,0.00000,-0.40822) occupation: 14==
 -64.99594 -64.99594 -4.62563 -4.62563 -3.03727 -3.03727 -3.03687 -3.03687 -3.03648 -3.03648
 -0.00718 -0.00718 0.14143 0.14143 0.38513 0.38513 0.53743 0.53743 0.68790 0.68790
 0.79540 0.79540 0.93254 0.93254 0.99707 0.99707 1.09016 1.09016 1.12996 1.12996
 1.25345 1.25345 1.43331 1.43331 1.91357 1.91357
 == 24-th k-point (0.20411,-0.61232,0.20411) occupation: 14==
[...]
 0.72493 0.81951 0.84037 0.90241 1.03198 1.04179 1.07626 1.14024 1.19485 1.33620
 1.37443 1.41341 1.50911 1.64778 1.80753 2.31820
 == 165-th k-point (0.00000,0.20411,0.20411) occupation: 14==
 -64.99595 -64.99594 -4.62558 -4.62554 -3.03722 -3.03722 -3.03714 -3.03661 -3.03656 -3.03653
 -0.12923 0.13994 0.18772 0.25694 0.39373 0.41295 0.42717 0.49636 0.55934 0.65478
 0.70590 0.78602 0.84899 0.96488 1.00381 1.02226 1.11062 1.20237 1.24531 1.35834
 1.38096 1.45354 1.54689 1.65909 1.89207 2.10508
 == 166-th k-point (0.10205,0.30616,0.10205) occupation: 14==
 -64.99595 -64.99594 -4.62561 -4.62555 -3.03724 -3.03723 -3.03710 -3.03664 -3.03653 -3.03653
 -0.11640 0.11315 0.20355 0.21233 0.35467 0.43355 0.46051 0.47332 0.63838 0.65195
 0.72493 0.81951 0.84037 0.90241 1.03198 1.04179 1.07626 1.14024 1.19485 1.33620
 1.37443 1.41341 1.50911 1.64778 1.80753 2.31821
 == 167-th k-point (0.20411,0.40822,0.00000) occupation: 14==
 -64.99595 -64.99594 -4.62563 -4.62559 -3.03726 -3.03725 -3.03703 -3.03671 -3.03652 -3.03649
 -0.07999 0.06862 0.14432 0.19194 0.38817 0.42520 0.44023 0.54920 0.64580 0.66596
 0.78511 0.83189 0.85009 0.88623 1.00174 1.03580 1.06424 1.10600 1.21425 1.22864
 1.31877 1.36740 1.42139 1.55310 2.04923 2.07305
 == 168-th k-point (-0.20411,-0.20411,0.61232) occupation: 14==
 -64.99595 -64.99594 -4.62562 -4.62561 -3.03726 -3.03724 -3.03699 -3.03676 -3.03651 -3.03648
 -0.04397 0.02693 0.11284 0.19835 0.34056 0.50754 0.52350 0.55040 0.55540 0.60364
 0.84831 0.90079 0.93173 0.93288 0.94172 0.97687 1.03697 1.07706 1.20643 1.24716
 1.26422 1.26515 1.45610 1.68416 1.70666 2.27247
 == 169-th k-point (-0.10205,-0.10205,0.51027) occupation: 14==
 -64.99595 -64.99594 -4.62565 -4.62561 -3.03727 -3.03726 -3.03696 -3.03678 -3.03650 -3.03648
 -0.05136 0.03453 0.14193 0.18172 0.32152 0.38443 0.56411 0.56548 0.68698 0.70839
 0.76738 0.77569 0.88466 0.93294 0.93969 1.02859 1.09279 1.11834 1.13931 1.24936
 1.26386 1.28318 1.38333 1.51649 1.77767 2.31730
 == 170-th k-point (0.00000,0.00000,0.40822) occupation: 14==
 -64.99594 -64.99594 -4.62565 -4.62557 -3.03725 -3.03725 -3.03703 -3.03670 -3.03651 -3.03651
 -0.09424 0.09211 0.18699 0.18699 0.30787 0.35943 0.55651 0.55651 0.66086 0.67570
 0.77721 0.82283 0.82283 0.94084 0.95225 1.04463 1.04653 1.04653 1.21721 1.32681
 1.32682 1.34952 1.50029 1.54212 1.93800 1.93801
 == 171-th k-point (0.10205,0.10205,0.30616) occupation: 14==
 -64.99595 -64.99594 -4.62561 -4.62555 -3.03724 -3.03723 -3.03710 -3.03664 -3.03653 -3.03653
 -0.11640 0.11315 0.20355 0.21233 0.35467 0.43355 0.46051 0.47332 0.63838 0.65195
 0.72493 0.81951 0.84037 0.90241 1.03198 1.04179 1.07626 1.14024 1.19485 1.33620
 1.37443 1.41341 1.50911 1.64778 1.80753 2.31821
 == 172-th k-point (0.20411,0.20411,0.20411) occupation: 14==
 -64.99595 -64.99594 -4.62559 -4.62553 -3.03723 -3.03723 -3.03713 -3.03661 -3.03653 -3.03653
 -0.11353 0.07959 0.24019 0.24019 0.34626 0.41449 0.41449 0.58249 0.62003 0.62003
 0.69257 0.80882 0.86964 0.86964 0.95311 1.11359 1.11359 1.21400 1.28693 1.28693
 1.29345 1.47672 1.47672 1.63714 1.63714 2.51756
 == 173-th k-point (0.30616,0.30616,0.10205) occupation: 14==
 -64.99595 -64.99594 -4.62560 -4.62558 -3.03724 -3.03724 -3.03708 -3.03667 -3.03653 -3.03650
 -0.08668 0.05480 0.16400 0.22901 0.37327 0.43752 0.44218 0.55619 0.59373 0.65762
 0.77418 0.79967 0.85746 0.90890 0.94312 1.07125 1.08851 1.16523 1.19909 1.31004
 1.35621 1.41316 1.43759 1.59263 1.87667 2.43034
 == 174-th k-point (-0.10205,-0.30616,0.71438) occupation: 14==
 -64.99595 -64.99594 -4.62563 -4.62562 -3.03727 -3.03726 -3.03697 -3.03677 -3.03650 -3.03648
 -0.04359 0.02411 0.12801 0.17440 0.40911 0.41477 0.51632 0.52613 0.57266 0.71637
 0.76291 0.85348 0.92335 0.95576 0.95599 1.02802 1.05886 1.10585 1.12188 1.18093
 1.27482 1.32450 1.44319 1.53042 1.83397 2.06924
 == 175-th k-point (0.00000,-0.20411,0.61232) occupation: 14==
 -64.99594 -64.99594 -4.62563 -4.62563 -3.03727 -3.03727 -3.03687 -3.03687 -3.03648 -3.03648
 -0.00718 -0.00718 0.14143 0.14143 0.38513 0.38513 0.53743 0.53743 0.68790 0.68790
 0.79540 0.79540 0.93254 0.93254 0.99707 0.99707 1.09016 1.09016 1.12996 1.12996
 1.25345 1.25345 1.43331 1.43331 1.91357 1.91357
 == 176-th k-point (0.10205,-0.10205,0.51027) occupation: 14==
 -64.99595 -64.99594 -4.62565 -4.62561 -3.03726 -3.03726 -3.03696 -3.03678 -3.03650 -3.03648
 -0.05136 0.03453 0.14193 0.18172 0.32152 0.38443 0.56411 0.56548 0.68698 0.70839
 0.76738 0.77569 0.88466 0.93294 0.93969 1.02859 1.09279 1.11834 1.13931 1.24936
 1.26386 1.28318 1.38334 1.51649 1.77767 2.31731
 == 177-th k-point (0.20411,0.00000,0.40822) occupation: 14==
 -64.99595 -64.99594 -4.62563 -4.62559 -3.03726 -3.03725 -3.03703 -3.03671 -3.03652 -3.03649
 -0.07999 0.06862 0.14432 0.19194 0.38817 0.42520 0.44023 0.54920 0.64580 0.66596
 0.78511 0.83189 0.85009 0.88623 1.00174 1.03580 1.06424 1.10600 1.21425 1.22864
 1.31877 1.36740 1.42139 1.55310 2.04923 2.07305
 == 178-th k-point (0.30616,0.10205,0.30616) occupation: 14==
 -64.99595 -64.99594 -4.62560 -4.62558 -3.03724 -3.03724 -3.03708 -3.03667 -3.03653 -3.03650
 -0.08668 0.05480 0.16400 0.22901 0.37327 0.43752 0.44218 0.55619 0.59373 0.65762
 0.77418 0.79967 0.85746 0.90890 0.94312 1.07125 1.08851 1.16523 1.19909 1.31004
 1.35621 1.41316 1.43759 1.59263 1.87667 2.43034
 == 179-th k-point (0.40822,0.20411,0.20411) occupation: 14==
 -64.99595 -64.99594 -4.62561 -4.62559 -3.03725 -3.03725 -3.03705 -3.03669 -3.03651 -3.03650
 -0.07248 0.03250 0.17416 0.21092 0.35814 0.43646 0.45786 0.52769 0.66272 0.70322
 0.75961 0.76841 0.81342 0.91438 0.99001 1.09925 1.10642 1.11905 1.17560 1.22411
 1.38403 1.38716 1.40909 1.63063 1.69264 2.59490
 == 180-th k-point (-0.71438,0.30616,0.30616) occupation: 14==
 -64.99595 -64.99594 -4.62560 -4.62558 -3.03724 -3.03724 -3.03708 -3.03667 -3.03653 -3.03650
 -0.08668 0.05480 0.16400 0.22901 0.37327 0.43752 0.44218 0.55619 0.59373 0.65762
 0.77418 0.79967 0.85746 0.90890 0.94312 1.07125 1.08851 1.16523 1.19909 1.31004
 1.35621 1.41316 1.43759 1.59263 1.87667 2.43034
 == 181-th k-point (-0.61232,0.40822,0.20411) occupation: 14==
 -64.99595 -64.99594 -4.62563 -4.62559 -3.03726 -3.03725 -3.03703 -3.03671 -3.03652 -3.03649
 -0.07999 0.06862 0.14432 0.19194 0.38817 0.42520 0.44023 0.54920 0.64580 0.66596
 0.78511 0.83189 0.85009 0.88623 1.00174 1.03580 1.06424 1.10600 1.21425 1.22864
 1.31877 1.36740 1.42139 1.55310 2.04923 2.07305
 == 182-th k-point (-0.51027,0.51027,0.10205) occupation: 14==
 -64.99595 -64.99594 -4.62565 -4.62561 -3.03726 -3.03726 -3.03696 -3.03678 -3.03650 -3.03648
 -0.05136 0.03453 0.14193 0.18172 0.32152 0.38443 0.56411 0.56548 0.68698 0.70839
 0.76738 0.77569 0.88466 0.93294 0.93969 1.02859 1.09279 1.11834 1.13931 1.24936
 1.26386 1.28318 1.38334 1.51649 1.77767 2.31731
 == 183-th k-point (-0.40822,0.61232,-0.00000) occupation: 14==
 -64.99594 -64.99594 -4.62563 -4.62563 -3.03727 -3.03727 -3.03687 -3.03687 -3.03648 -3.03648
 -0.00718 -0.00718 0.14143 0.14143 0.38513 0.38513 0.53743 0.53743 0.68790 0.68790
 0.79540 0.79540 0.93254 0.93254 0.99707 0.99707 1.09016 1.09016 1.12996 1.12996
 1.25345 1.25345 1.43331 1.43331 1.91357 1.91357
 == 184-th k-point (-0.30616,0.71438,-0.10205) occupation: 14==
 -64.99595 -64.99594 -4.62563 -4.62562 -3.03727 -3.03726 -3.03697 -3.03677 -3.03650 -3.03648
 -0.04359 0.02411 0.12801 0.17440 0.40911 0.41477 0.51632 0.52613 0.57266 0.71637
 0.76291 0.85348 0.92335 0.95576 0.95599 1.02802 1.05886 1.10585 1.12188 1.18093
 1.27482 1.32450 1.44319 1.53042 1.83397 2.06924
 == 185-th k-point (-0.20411,0.81643,-0.20411) occupation: 14==
 -64.99595 -64.99594 -4.62561 -4.62559 -3.03725 -3.03725 -3.03705 -3.03669 -3.03651 -3.03650
 -0.07248 0.03250 0.17416 0.21092 0.35814 0.43646 0.45786 0.52769 0.66272 0.70322
 0.75961 0.76841 0.81342 0.91438 0.99001 1.09925 1.10642 1.11905 1.17560 1.22411
 1.38403 1.38716 1.40909 1.63063 1.69264 2.59490
 == 186-th k-point (-0.61232,0.20411,0.40822) occupation: 14==
 -64.99595 -64.99594 -4.62563 -4.62559 -3.03726 -3.03725 -3.03703 -3.03671 -3.03652 -3.03649
 -0.07999 0.06862 0.14432 0.19194 0.38817 0.42520 0.44023 0.54920 0.64580 0.66596
 0.78511 0.83189 0.85009 0.88623 1.00174 1.03580 1.06424 1.10600 1.21425 1.22864
 1.31877 1.36740 1.42139 1.55310 2.04923 2.07305
 == 187-th k-point (-0.51027,0.30616,0.30616) occupation: 14==
 -64.99595 -64.99594 -4.62560 -4.62558 -3.03724 -3.03724 -3.03708 -3.03667 -3.03653 -3.03650
 -0.08668 0.05480 0.16400 0.22901 0.37327 0.43752 0.44218 0.55619 0.59373 0.65762
 0.77418 0.79967 0.85746 0.90890 0.94312 1.07125 1.08851 1.16523 1.19909 1.31004
 1.35621 1.41316 1.43759 1.59263 1.87667 2.43034
 == 188-th k-point (-0.40822,0.40822,0.20411) occupation: 14==
 -64.99595 -64.99594 -4.62561 -4.62559 -3.03725 -3.03725 -3.03705 -3.03669 -3.03651 -3.03650
 -0.07248 0.03250 0.17416 0.21092 0.35814 0.43646 0.45786 0.52769 0.66272 0.70322
 0.75961 0.76841 0.81342 0.91438 0.99001 1.09925 1.10642 1.11905 1.17560 1.22411
 1.38403 1.38716 1.40909 1.63063 1.69264 2.59491
 == 189-th k-point (-0.30616,0.51027,0.10205) occupation: 14==
 -64.99595 -64.99594 -4.62563 -4.62562 -3.03727 -3.03726 -3.03697 -3.03677 -3.03650 -3.03648
 -0.04359 0.02411 0.12801 0.17440 0.40911 0.41477 0.51632 0.52613 0.57266 0.71637
 0.76291 0.85348 0.92335 0.95576 0.95599 1.02802 1.05886 1.10585 1.12188 1.18093
 1.27482 1.32450 1.44319 1.53042 1.83396 2.06925
 == 190-th k-point (-0.20411,0.61232,0.00000) occupation: 14==
 -64.99594 -64.99594 -4.62563 -4.62563 -3.03727 -3.03727 -3.03687 -3.03687 -3.03648 -3.03648
 -0.00718 -0.00718 0.14143 0.14143 0.38513 0.38513 0.53743 0.53743 0.68790 0.68790
 0.79540 0.79540 0.93254 0.93254 0.99707 0.99707 1.09016 1.09016 1.12996 1.12996
 1.25345 1.25345 1.43331 1.43331 1.91357 1.91357
 == 191-th k-point (-0.10205,0.71438,-0.10205) occupation: 14==
 -64.99595 -64.99594 -4.62565 -4.62561 -3.03727 -3.03726 -3.03696 -3.03678 -3.03650 -3.03648
 -0.05136 0.03453 0.14193 0.18172 0.32152 0.38443 0.56411 0.56548 0.68698 0.70839
 0.76738 0.77569 0.88466 0.93294 0.93969 1.02859 1.09279 1.11834 1.13931 1.24936
 1.26386 1.28318 1.38334 1.51649 1.77767 2.31731
 == 192-th k-point (-0.51027,0.10205,0.51027) occupation: 14==
 -64.99595 -64.99594 -4.62565 -4.62561 -3.03726 -3.03726 -3.03696 -3.03678 -3.03650 -3.03648
 -0.05136 0.03453 0.14193 0.18172 0.32152 0.38443 0.56411 0.56548 0.68698 0.70839
 0.76738 0.77569 0.88466 0.93294 0.93969 1.02859 1.09279 1.11834 1.13931 1.24936
 1.26386 1.28318 1.38334 1.51649 1.77767 2.31731
 == 193-th k-point (-0.40822,0.20411,0.40822) occupation: 14==
 -64.99595 -64.99594 -4.62561 -4.62559 -3.03725 -3.03725 -3.03705 -3.03669 -3.03651 -3.03650
 -0.07248 0.03250 0.17416 0.21092 0.35814 0.43646 0.45786 0.52769 0.66272 0.70322
 0.75961 0.76841 0.81342 0.91438 0.99001 1.09925 1.10642 1.11905 1.17560 1.22411
 1.38403 1.38716 1.40909 1.63063 1.69264 2.59491
 == 194-th k-point (-0.30616,0.30616,0.30616) occupation: 14==
 -64.99595 -64.99594 -4.62562 -4.62559 -3.03725 -3.03725 -3.03709 -3.03664 -3.03652 -3.03652
 -0.07830 0.01879 0.23241 0.23241 0.33816 0.40903 0.40903 0.59961 0.70490 0.70490
 0.71597 0.75918 0.75918 0.79185 1.04871 1.05858 1.18883 1.18883 1.23380 1.23380
 1.31282 1.48647 1.48647 1.50315 1.50315 2.61677
 == 195-th k-point (-0.20411,0.40822,0.20411) occupation: 14==
 -64.99595 -64.99594 -4.62561 -4.62559 -3.03725 -3.03725 -3.03705 -3.03669 -3.03651 -3.03650
 -0.07248 0.03250 0.17416 0.21092 0.35814 0.43646 0.45786 0.52769 0.66272 0.70322
 0.75961 0.76841 0.81342 0.91438 0.99001 1.09925 1.10642 1.11905 1.17560 1.22411
 1.38403 1.38716 1.40909 1.63063 1.69264 2.59491
 == 196-th k-point (-0.10205,0.51027,0.10205) occupation: 14==
 -64.99595 -64.99594 -4.62565 -4.62561 -3.03726 -3.03726 -3.03696 -3.03678 -3.03650 -3.03648
 -0.05136 0.03453 0.14193 0.18172 0.32152 0.38443 0.56411 0.56548 0.68698 0.70839
 0.76738 0.77569 0.88466 0.93294 0.93969 1.02859 1.09279 1.11834 1.13931 1.24936
 1.26386 1.28318 1.38334 1.51649 1.77767 2.31731
 == 197-th k-point (0.00000,0.61232,0.00000) occupation: 14==
 -64.99594 -64.99594 -4.62564 -4.62564 -3.03726 -3.03726 -3.03687 -3.03687 -3.03649 -3.03649
 -0.01176 -0.01176 0.17046 0.17046 0.30853 0.30853 0.65535 0.65535 0.72465 0.72465
 0.77118 0.77118 0.78839 0.78839 1.03939 1.03939 1.13321 1.13321 1.18532 1.18532
 1.25054 1.25054 1.42298 1.42298 1.92019 1.92019
 == 198-th k-point (-0.40822,0.00000,0.61232) occupation: 14==
 -64.99594 -64.99594 -4.62563 -4.62563 -3.03727 -3.03727 -3.03687 -3.03687 -3.03648 -3.03648
 -0.00718 -0.00718 0.14143 0.14143 0.38513 0.38513 0.53743 0.53743 0.68790 0.68790
 0.79540 0.79540 0.93254 0.93254 0.99707 0.99707 1.09016 1.09016 1.12996 1.12996
 1.25345 1.25345 1.43331 1.43331 1.91357 1.91357
 == 199-th k-point (-0.30616,0.10205,0.51027) occupation: 14==
 -64.99595 -64.99594 -4.62563 -4.62562 -3.03727 -3.03726 -3.03697 -3.03677 -3.03650 -3.03648
 -0.04359 0.02411 0.12801 0.17440 0.40911 0.41477 0.51632 0.52613 0.57266 0.71637
 0.76291 0.85348 0.92335 0.95576 0.95599 1.02802 1.05886 1.10585 1.12188 1.18093
 1.27482 1.32450 1.44319 1.53042 1.83396 2.06925
 == 200-th k-point (-0.20411,0.20411,0.40822) occupation: 14==
 -64.99595 -64.99594 -4.62561 -4.62559 -3.03725 -3.03725 -3.03705 -3.03669 -3.03651 -3.03650
 -0.07248 0.03250 0.17416 0.21092 0.35814 0.43646 0.45786 0.52769 0.66272 0.70322
 0.75961 0.76841 0.81342 0.91438 0.99001 1.09925 1.10642 1.11905 1.17560 1.22411
 1.38403 1.38716 1.40909 1.63063 1.69264 2.59491
 == 201-th k-point (-0.10205,0.30616,0.30616) occupation: 14==
 -64.99595 -64.99594 -4.62560 -4.62558 -3.03724 -3.03724 -3.03708 -3.03667 -3.03653 -3.03650
 -0.08668 0.05480 0.16400 0.22901 0.37327 0.43752 0.44218 0.55619 0.59373 0.65762
 0.77418 0.79967 0.85746 0.90890 0.94312 1.07125 1.08851 1.16523 1.19909 1.31004
 1.35621 1.41316 1.43759 1.59263 1.87667 2.43034
 == 202-th k-point (0.00000,0.40822,0.20411) occupation: 14==
 -64.99595 -64.99594 -4.62563 -4.62559 -3.03726 -3.03725 -3.03703 -3.03671 -3.03652 -3.03649
 -0.07999 0.06862 0.14432 0.19194 0.38817 0.42520 0.44023 0.54920 0.64580 0.66596
 0.78511 0.83189 0.85009 0.88623 1.00174 1.03580 1.06424 1.10600 1.21425 1.22864
 1.31877 1.36740 1.42139 1.55310 2.04923 2.07305
 == 203-th k-point (0.10205,0.51027,0.10205) occupation: 14==
 -64.99595 -64.99594 -4.62565 -4.62561 -3.03727 -3.03726 -3.03696 -3.03678 -3.03650 -3.03648
 -0.05136 0.03453 0.14193 0.18172 0.32152 0.38443 0.56411 0.56548 0.68698 0.70839
 0.76738 0.77569 0.88466 0.93294 0.93969 1.02859 1.09279 1.11834 1.13931 1.24936
 1.26386 1.28318 1.38334 1.51649 1.77767 2.31731
 == 204-th k-point (-0.30616,-0.10205,0.71438) occupation: 14==
 -64.99595 -64.99594 -4.62563 -4.62562 -3.03727 -3.03726 -3.03697 -3.03677 -3.03650 -3.03648
 -0.04359 0.02411 0.12801 0.17440 0.40911 0.41477 0.51632 0.52613 0.57266 0.71637
 0.76291 0.85348 0.92335 0.95576 0.95599 1.02802 1.05886 1.10585 1.12188 1.18093
 1.27482 1.32450 1.44319 1.53042 1.83397 2.06924
 == 205-th k-point (-0.20411,0.00000,0.61232) occupation: 14==
 -64.99594 -64.99594 -4.62563 -4.62563 -3.03727 -3.03727 -3.03687 -3.03687 -3.03648 -3.03648
 -0.00718 -0.00718 0.14143 0.14143 0.38513 0.38513 0.53743 0.53743 0.68790 0.68790
 0.79540 0.79540 0.93254 0.93254 0.99707 0.99707 1.09016 1.09016 1.12996 1.12996
 1.25345 1.25345 1.43331 1.43331 1.91357 1.91357
 == 206-th k-point (-0.10205,0.10205,0.51027) occupation: 14==
 -64.99595 -64.99594 -4.62565 -4.62561 -3.03726 -3.03726 -3.03696 -3.03678 -3.03650 -3.03648
 -0.05136 0.03453 0.14193 0.18172 0.32152 0.38443 0.56411 0.56548 0.68698 0.70839
 0.76738 0.77569 0.88466 0.93294 0.93969 1.02859 1.09279 1.11834 1.13931 1.24936
 1.26386 1.28318 1.38334 1.51649 1.77767 2.31731
 == 207-th k-point (0.00000,0.20411,0.40822) occupation: 14==
 -64.99595 -64.99594 -4.62563 -4.62559 -3.03726 -3.03725 -3.03703 -3.03671 -3.03652 -3.03649
 -0.07999 0.06862 0.14432 0.19194 0.38817 0.42520 0.44023 0.54920 0.64580 0.66596
 0.78511 0.83189 0.85009 0.88623 1.00174 1.03580 1.06424 1.10600 1.21425 1.22864
 1.31877 1.36740 1.42139 1.55310 2.04923 2.07305
 == 208-th k-point (0.10205,0.30616,0.30616) occupation: 14==
 -64.99595 -64.99594 -4.62560 -4.62558 -3.03724 -3.03724 -3.03708 -3.03667 -3.03653 -3.03650
 -0.08668 0.05480 0.16400 0.22901 0.37327 0.43752 0.44218 0.55619 0.59373 0.65762
 0.77418 0.79967 0.85746 0.90890 0.94312 1.07125 1.08851 1.16523 1.19909 1.31004
 1.35621 1.41316 1.43759 1.59263 1.87667 2.43034
 == 209-th k-point (0.20411,0.40822,0.20411) occupation: 14==
 -64.99595 -64.99594 -4.62561 -4.62559 -3.03725 -3.03725 -3.03705 -3.03669 -3.03651 -3.03650
 -0.07248 0.03250 0.17416 0.21092 0.35814 0.43646 0.45786 0.52769 0.66272 0.70322
 0.75961 0.76841 0.81342 0.91438 0.99001 1.09925 1.10642 1.11905 1.17560 1.22411
 1.38403 1.38716 1.40909 1.63063 1.69264 2.59490
 == 210-th k-point (-0.20411,-0.20411,0.81643) occupation: 14==
 -64.99595 -64.99594 -4.62561 -4.62559 -3.03725 -3.03725 -3.03705 -3.03669 -3.03651 -3.03650
 -0.07248 0.03250 0.17416 0.21092 0.35814 0.43646 0.45786 0.52769 0.66272 0.70322
 0.75961 0.76841 0.81342 0.91438 0.99001 1.09925 1.10642 1.11905 1.17560 1.22411
 1.38403 1.38716 1.40909 1.63063 1.69264 2.59490
 == 211-th k-point (-0.10205,-0.10205,0.71438) occupation: 14==
 -64.99595 -64.99594 -4.62565 -4.62561 -3.03727 -3.03726 -3.03696 -3.03678 -3.03650 -3.03648
 -0.05136 0.03453 0.14193 0.18172 0.32152 0.38443 0.56411 0.56548 0.68698 0.70839
 0.76738 0.77569 0.88466 0.93294 0.93969 1.02859 1.09279 1.11834 1.13931 1.24936
 1.26386 1.28318 1.38334 1.51649 1.77767 2.31731
 == 212-th k-point (0.00000,0.00000,0.61232) occupation: 14==
 -64.99594 -64.99594 -4.62564 -4.62564 -3.03726 -3.03726 -3.03687 -3.03687 -3.03649 -3.03649
 -0.01176 -0.01176 0.17046 0.17046 0.30853 0.30853 0.65535 0.65535 0.72465 0.72465
 0.77118 0.77118 0.78839 0.78839 1.03939 1.03939 1.13321 1.13321 1.18532 1.18532
 1.25054 1.25054 1.42298 1.42298 1.92019 1.92019
 == 213-th k-point (0.10205,0.10205,0.51027) occupation: 14==
 -64.99595 -64.99594 -4.62565 -4.62561 -3.03727 -3.03726 -3.03696 -3.03678 -3.03650 -3.03648
 -0.05136 0.03453 0.14193 0.18172 0.32152 0.38443 0.56411 0.56548 0.68698 0.70839
 0.76738 0.77569 0.88466 0.93294 0.93969 1.02859 1.09279 1.11834 1.13931 1.24936
 1.26386 1.28318 1.38334 1.51649 1.77767 2.31731
 == 214-th k-point (0.20411,0.20411,0.40822) occupation: 14==
 -64.99595 -64.99594 -4.62561 -4.62559 -3.03725 -3.03725 -3.03705 -3.03669 -3.03651 -3.03650
 -0.07248 0.03250 0.17416 0.21092 0.35814 0.43646 0.45786 0.52769 0.66272 0.70322
 0.75961 0.76841 0.81342 0.91438 0.99001 1.09925 1.10642 1.11905 1.17560 1.22411
 1.38403 1.38716 1.40909 1.63063 1.69264 2.59490
 == 215-th k-point (0.30616,0.30616,0.30616) occupation: 14==
 -64.99595 -64.99594 -4.62562 -4.62559 -3.03725 -3.03725 -3.03709 -3.03664 -3.03652 -3.03652
 -0.07830 0.01879 0.23241 0.23241 0.33816 0.40903 0.40903 0.59962 0.70490 0.70490
 0.71597 0.75918 0.75918 0.79185 1.04871 1.05858 1.18883 1.18883 1.23380 1.23380
 1.31281 1.48647 1.48647 1.50315 1.50315 2.61677
 ---------------------------------------------------------------------------
 VBM is at 86-th k-point with 7.59335 eV
 CBM is at 170-th k-point with 8.37748 eV
 Band gap is 0.78413 eV


           Ground-State Mulliken Net Atomic Charges

      Atom                 Charge (a.u.)          Spin (a.u.)
   --------------------------------------------------------
      1 Si              (-0.000000,-0.000000)    (0.000000,0.000000)
      2 Si                (0.000000,0.000000)    (0.000000,0.000000)
   --------------------------------------------------------
  Sum of atomic charges =      (0.000000,-0.000000)
  Sum of spin   charges =       (0.000000,0.000000)



 Total job time:  38.63 s.
 Tue Sep  9 11:03:52 2025


        *************************************************************
        *                                                           *
        *  Thank you very much for using QCPBC. Have a nice day.    *
        *                                                           *
        *************************************************************

Running job 1 of 1
