                  Welcome to Q-Chem
           with Periodic Boundary Condition
     A Quantum Leap Into The Future Of Chemistry

 Adam Rettig, Xintian Feng, Meng-Fu Chen, Hieu Dinh, Stephen Quiton,
 Anton Ni, Paul J. Robinson, Jinghong Zhang, Joonho Lee

Contributors to earlier versions of Q-Chem not listed above:
 Evgeny Epifanovsky, Leo Cunha, Jerome F. Gonthier, Kuan-Yu Liu
 Input file: /n/netscratch/joonholee_lab/Lab/hieudinh//si_2_ccpvdz_omega_0.3_666.scratch20250909110158/si_2_ccpvdz_omega_0.3_666.0
 Scratch folder: /n/netscratch/joonholee_lab/Lab/hieudinh//si_2_ccpvdz_omega_0.3_666.scratch20250909110158
 Auxillary files located at: /n/holylabs/LABS/joonholee_lab/Lab/qchem_base/qcaux
 Q-Chem begins on Tue Sep  9 11:01:59 2025

 -------------------------------------------------------------
 User input:
 -------------------------------------------------------------
 $lattice
 3
 0.000000 5.130600 5.130600
 5.130600 0.000000 5.130600
 5.130600 5.130600 0.000000
 $end
 
 $unitcell
 ABSOLUTE
 0 1
 Si 0.000000 0.000000 0.000000
 Si 2.565300 2.565300 2.565300
 $end
 
 $rem
 jobtype = sp
 method = pbe
 scf_convergence = 5
 scf_guess = autosad
 scf_algorithm = diis_gdm
 basis = cc-pvdz
 aux_basis = cc-pvtz-jk
 input_bohr = true
 symmetry = false
 rsdf_print_level 1
 is_basis_uctr true
 
 mp_mesh = [6,6,6]
 
 integral_direct true
 bvk_cgto true
 
 thresh 14
 mem_total 1000000
 threads 32
 
 MAX_SCF_CYCLES 500
 madelung = false
 omega 0.3
 do_rij_bigmem true
 automate_g true
 print_level 10
 grid_type_xc 1
 
 thresh_1e2c_sp 1e-14
 thresh_2e3c_bra_ket_sep 1e-10
 thresh_g 1e-12
 $end
 
 -------------------------------------------------------------
 Running PBC job

 Requested Exchange Correlation Functionals: 
  DFT Exchange:  1.00000 pbe_x
  DFT Correlation:  1.00000 pbe_c
 using 32 threads for computing.
 ---------------------------------------------------------------
      Coordinates of Atoms in Central Unit Cell (Angstroms)
    I     Atom         X            Y            Z
 ---------------------------------------------------------------
    1      Si      0.000000     0.000000     0.000000
    2      Si      1.357498     1.357498     1.357498
 ---------------------------------------------------------------
 --------------------------------------------------
              Lattice Vectors (Angstroms)
              X            Y            Z
 --------------------------------------------------
   X       0.000000     2.714997     2.714997
   Y       2.714997     0.000000     2.714997
   Z       2.714997     2.714997     0.000000
 --------------------------------------------------
 --------------------------------------------------
       Reciprocal Lattice Vectors (Angstroms^-1)
              X            Y            Z
 --------------------------------------------------
   X      -1.157126     1.157126     1.157126
   Y       1.157126    -1.157126     1.157126
   Z       1.157126     1.157126    -1.157126
 --------------------------------------------------

 Single point calculation requested

 Hamiltonian contributions:
 List of terms in Hamiltonian: kpts_nn, kpts_kinetic, kpts_vnuc_df, kpts_xc, kpts_rij_bigmem

 K-Points calculation started.

 Basis set information about using solid harmonic (1) or Cartesian (0):
  si : D(1) 

 Basis set information about using solid harmonic (1) or Cartesian (0):
  si : D(1) D(1) D(1) D(1) D(1) D(1) D(1) D(1) D(1) F(1) F(1) F(1) G(1) 

 There are 36 basis functions in the central unit cell.
 Print atomic basis of atoms in the central unit cell:
 -------------------------------------------------------------
2 84 84 16

  0.00000000000000e+00  0.00000000000000e+00  0.00000000000000e+00
  2.56530000000000e+00  2.56530000000000e+00  2.56530000000000e+00

  7.88600000000000e+04
  1.18200000000000e+04
  2.69200000000000e+03
  7.63400000000000e+02
  2.49600000000000e+02
  9.02800000000000e+01
  3.52900000000000e+01
  1.45100000000000e+01
  4.05300000000000e+00
  7.88600000000000e+04
  1.18200000000000e+04
  2.69200000000000e+03
  2.49600000000000e+02
  9.02800000000000e+01
  3.52900000000000e+01
  1.45100000000000e+01
  4.05300000000000e+00
  1.48200000000000e+00
  7.88600000000000e+04
  1.18200000000000e+04
  2.69200000000000e+03
  9.02800000000000e+01
  3.52900000000000e+01
  1.45100000000000e+01
  4.05300000000000e+00
  1.48200000000000e+00
  2.51700000000000e-01
  9.24300000000000e-02
  3.15900000000000e+02
  7.44200000000000e+01
  2.34800000000000e+01
  8.48800000000000e+00
  3.21700000000000e+00
  1.22900000000000e+00
  7.44200000000000e+01
  2.34800000000000e+01
  8.48800000000000e+00
  3.21700000000000e+00
  1.22900000000000e+00
  2.96400000000000e-01
  8.76800000000000e-02
  2.75000000000000e-01
  7.88600000000000e+04
  1.18200000000000e+04
  2.69200000000000e+03
  7.63400000000000e+02
  2.49600000000000e+02
  9.02800000000000e+01
  3.52900000000000e+01
  1.45100000000000e+01
  4.05300000000000e+00
  7.88600000000000e+04
  1.18200000000000e+04
  2.69200000000000e+03
  2.49600000000000e+02
  9.02800000000000e+01
  3.52900000000000e+01
  1.45100000000000e+01
  4.05300000000000e+00
  1.48200000000000e+00
  7.88600000000000e+04
  1.18200000000000e+04
  2.69200000000000e+03
  9.02800000000000e+01
  3.52900000000000e+01
  1.45100000000000e+01
  4.05300000000000e+00
  1.48200000000000e+00
  2.51700000000000e-01
  9.24300000000000e-02
  3.15900000000000e+02
  7.44200000000000e+01
  2.34800000000000e+01
  8.48800000000000e+00
  3.21700000000000e+00
  1.22900000000000e+00
  7.44200000000000e+01
  2.34800000000000e+01
  8.48800000000000e+00
  3.21700000000000e+00
  1.22900000000000e+00
  2.96400000000000e-01
  8.76800000000000e-02
  2.75000000000000e-01

  9.06253754413352e-01
  1.69293104204437e+00
  2.88765135213002e+00
  4.51686717623273e+00
  6.15495015249549e+00
  6.60292741422250e+00
  4.31307094498082e+00
  1.11211258821928e+00
  3.28871017883051e-02
  1.81811499558714e-03
  7.82084807797983e-03
 -3.64325186414446e-03
 -1.38589915538590e-01
 -3.09231066968474e-01
 -8.37223961363792e-01
 -2.35283994917911e-01
  1.05074974557404e+00
  5.58607098057301e-01
 -3.73189052056138e-04
 -4.34506392374390e-04
 -1.25465717071959e-03
  1.25391036214459e-02
  2.72204657714548e-02
  2.48300227161584e-02
 -1.48880417762021e-01
 -3.39029634838718e-01
  2.96723365521804e-01
  1.19473010431857e-01
  7.49634571599597e+00
  9.36025063316295e+00
  9.42818987380764e+00
  6.66500330898836e+00
  2.81728351118454e+00
  4.95548501763808e-01
  1.33801616421722e-01
 -1.41076498099296e-01
  2.71250274850203e-02
 -2.30271473527780e-01
  1.34383996261684e-01
  3.01514460345638e-01
  6.80089021682769e-02
  1.71886461192366e-01
  9.06253754413352e-01
  1.69293104204437e+00
  2.88765135213002e+00
  4.51686717623273e+00
  6.15495015249549e+00
  6.60292741422250e+00
  4.31307094498082e+00
  1.11211258821928e+00
  3.28871017883051e-02
  1.81811499558714e-03
  7.82084807797983e-03
 -3.64325186414446e-03
 -1.38589915538590e-01
 -3.09231066968474e-01
 -8.37223961363792e-01
 -2.35283994917911e-01
  1.05074974557404e+00
  5.58607098057301e-01
 -3.73189052056138e-04
 -4.34506392374390e-04
 -1.25465717071959e-03
  1.25391036214459e-02
  2.72204657714548e-02
  2.48300227161584e-02
 -1.48880417762021e-01
 -3.39029634838718e-01
  2.96723365521804e-01
  1.19473010431857e-01
  7.49634571599597e+00
  9.36025063316295e+00
  9.42818987380764e+00
  6.66500330898836e+00
  2.81728351118454e+00
  4.95548501763808e-01
  1.33801616421722e-01
 -1.41076498099296e-01
  2.71250274850203e-02
 -2.30271473527780e-01
  1.34383996261684e-01
  3.01514460345638e-01
  6.80089021682769e-02
  1.71886461192366e-01

0 0 0 0 1 1 1
0 0 
9 0

0 1 1 9 1 1 1
9 0 
9 0

0 2 2 18 1 1 1
18 0 
9 0

0 3 3 27 1 1 1
27 0 
1 0

0 4 4 28 1 3 3
28 1 
6 0

0 7 7 34 1 3 3
34 1 
6 0

0 10 10 40 1 3 3
40 1 
1 0

0 13 13 41 1 5 6
41 2 
1 1

1 18 18 42 1 1 1
42 0 
9 0

1 19 19 51 1 1 1
51 0 
9 0

1 20 20 60 1 1 1
60 0 
9 0

1 21 21 69 1 1 1
69 0 
1 0

1 22 22 70 1 3 3
70 1 
6 0

1 25 25 76 1 3 3
76 1 
6 0

1 28 28 82 1 3 3
82 1 
1 0

1 31 31 83 1 5 6
83 2 
1 1

 -------------------------------------------------------------
 Allocate 259112 B from available memory: 1048576000000 B
 There are 1331 image cells after screening.
 There are 1221 image cells for CGTO evaluation after screening.
 Real-Space grid for FFT initialized based on kinetic energy cutoff (eV) = 500.0
 Real-Space grid for FFT: (10,10,10)
 There are 9261 real-space grid points.
 There are 64 batches of real-space grid points. 
 Size of each grid batch is around 128
 Grid for AFT initialized based on kinetic energy cutoff (eV) = 500.0
 Real-Space grid for AFT: (10,10,10)
 There are 9261 real-space grid points.

 There are 5456 atom-centered grid points.

 Spacegroup symmetry group: Fd-3m
 Reducing spacegroup symmetry to symmorphic group: F -4 3 m
 Monkhorst-Pack mesh is [6,6,6]
 There are 216 k points.
kpoints in Bohr
-0.2041082040 -0.2041082040 -0.2041082040
-0.1020541020 -0.1020541020 -0.3061623059
-0.0000000000 -0.0000000000 -0.4082164079
0.1020541020 0.1020541020 -0.5102705099
0.2041082040 0.2041082040 -0.6123246119
0.3061623059 0.3061623059 -0.7143787138
-0.1020541020 -0.3061623059 -0.1020541020
-0.0000000000 -0.2041082040 -0.2041082040
0.1020541020 -0.1020541020 -0.3061623059
0.2041082040 -0.0000000000 -0.4082164079
0.3061623059 0.1020541020 -0.5102705099
0.4082164079 0.2041082040 -0.6123246119
-0.0000000000 -0.4082164079 0.0000000000
0.1020541020 -0.3061623059 -0.1020541020
0.2041082040 -0.2041082040 -0.2041082040
0.3061623059 -0.1020541020 -0.3061623059
0.4082164079 -0.0000000000 -0.4082164079
0.5102705099 0.1020541020 -0.5102705099
0.1020541020 -0.5102705099 0.1020541020
0.2041082040 -0.4082164079 0.0000000000
0.3061623059 -0.3061623059 -0.1020541020
0.4082164079 -0.2041082040 -0.2041082040
0.5102705099 -0.1020541020 -0.3061623059
0.6123246119 0.0000000000 -0.4082164079
0.2041082040 -0.6123246119 0.2041082040
0.3061623059 -0.5102705099 0.1020541020
0.4082164079 -0.4082164079 0.0000000000
0.5102705099 -0.3061623059 -0.1020541020
0.6123246119 -0.2041082040 -0.2041082040
0.7143787138 -0.1020541020 -0.3061623059
0.3061623059 -0.7143787138 0.3061623059
0.4082164079 -0.6123246119 0.2041082040
0.5102705099 -0.5102705099 0.1020541020
0.6123246119 -0.4082164079 0.0000000000
0.7143787138 -0.3061623059 -0.1020541020
0.8164328158 -0.2041082040 -0.2041082040
-0.3061623059 -0.1020541020 -0.1020541020
-0.2041082040 -0.0000000000 -0.2041082040
-0.1020541020 0.1020541020 -0.3061623059
-0.0000000000 0.2041082040 -0.4082164079
0.1020541020 0.3061623059 -0.5102705099
0.2041082040 0.4082164079 -0.6123246119
-0.2041082040 -0.2041082040 -0.0000000000
-0.1020541020 -0.1020541020 -0.1020541020
-0.0000000000 -0.0000000000 -0.2041082040
0.1020541020 0.1020541020 -0.3061623059
0.2041082040 0.2041082040 -0.4082164079
0.3061623059 0.3061623059 -0.5102705099
-0.1020541020 -0.3061623059 0.1020541020
-0.0000000000 -0.2041082040 0.0000000000
0.1020541020 -0.1020541020 -0.1020541020
0.2041082040 -0.0000000000 -0.2041082040
0.3061623059 0.1020541020 -0.3061623059
0.4082164079 0.2041082040 -0.4082164079
-0.0000000000 -0.4082164079 0.2041082040
0.1020541020 -0.3061623059 0.1020541020
0.2041082040 -0.2041082040 0.0000000000
0.3061623059 -0.1020541020 -0.1020541020
0.4082164079 0.0000000000 -0.2041082040
0.5102705099 0.1020541020 -0.3061623059
0.1020541020 -0.5102705099 0.3061623059
0.2041082040 -0.4082164079 0.2041082040
0.3061623059 -0.3061623059 0.1020541020
0.4082164079 -0.2041082040 0.0000000000
0.5102705099 -0.1020541020 -0.1020541020
0.6123246119 0.0000000000 -0.2041082040
0.2041082040 -0.6123246119 0.4082164079
0.3061623059 -0.5102705099 0.3061623059
0.4082164079 -0.4082164079 0.2041082040
0.5102705099 -0.3061623059 0.1020541020
0.6123246119 -0.2041082040 0.0000000000
0.7143787138 -0.1020541020 -0.1020541020
-0.4082164079 -0.0000000000 -0.0000000000
-0.3061623059 0.1020541020 -0.1020541020
-0.2041082040 0.2041082040 -0.2041082040
-0.1020541020 0.3061623059 -0.3061623059
0.0000000000 0.4082164079 -0.4082164079
0.1020541020 0.5102705099 -0.5102705099
-0.3061623059 -0.1020541020 0.1020541020
-0.2041082040 -0.0000000000 -0.0000000000
-0.1020541020 0.1020541020 -0.1020541020
0.0000000000 0.2041082040 -0.2041082040
0.1020541020 0.3061623059 -0.3061623059
0.2041082040 0.4082164079 -0.4082164079
-0.2041082040 -0.2041082040 0.2041082040
-0.1020541020 -0.1020541020 0.1020541020
0.0000000000 0.0000000000 0.0000000000
0.1020541020 0.1020541020 -0.1020541020
0.2041082040 0.2041082040 -0.2041082040
0.3061623059 0.3061623059 -0.3061623059
-0.1020541020 -0.3061623059 0.3061623059
-0.0000000000 -0.2041082040 0.2041082040
0.1020541020 -0.1020541020 0.1020541020
0.2041082040 0.0000000000 0.0000000000
0.3061623059 0.1020541020 -0.1020541020
0.4082164079 0.2041082040 -0.2041082040
-0.0000000000 -0.4082164079 0.4082164079
0.1020541020 -0.3061623059 0.3061623059
0.2041082040 -0.2041082040 0.2041082040
0.3061623059 -0.1020541020 0.1020541020
0.4082164079 0.0000000000 0.0000000000
0.5102705099 0.1020541020 -0.1020541020
0.1020541020 -0.5102705099 0.5102705099
0.2041082040 -0.4082164079 0.4082164079
0.3061623059 -0.3061623059 0.3061623059
0.4082164079 -0.2041082040 0.2041082040
0.5102705099 -0.1020541020 0.1020541020
0.6123246119 0.0000000000 0.0000000000
-0.5102705099 0.1020541020 0.1020541020
-0.4082164079 0.2041082040 -0.0000000000
-0.3061623059 0.3061623059 -0.1020541020
-0.2041082040 0.4082164079 -0.2041082040
-0.1020541020 0.5102705099 -0.3061623059
0.0000000000 0.6123246119 -0.4082164079
-0.4082164079 -0.0000000000 0.2041082040
-0.3061623059 0.1020541020 0.1020541020
-0.2041082040 0.2041082040 -0.0000000000
-0.1020541020 0.3061623059 -0.1020541020
0.0000000000 0.4082164079 -0.2041082040
0.1020541020 0.5102705099 -0.3061623059
-0.3061623059 -0.1020541020 0.3061623059
-0.2041082040 -0.0000000000 0.2041082040
-0.1020541020 0.1020541020 0.1020541020
0.0000000000 0.2041082040 0.0000000000
0.1020541020 0.3061623059 -0.1020541020
0.2041082040 0.4082164079 -0.2041082040
-0.2041082040 -0.2041082040 0.4082164079
-0.1020541020 -0.1020541020 0.3061623059
0.0000000000 0.0000000000 0.2041082040
0.1020541020 0.1020541020 0.1020541020
0.2041082040 0.2041082040 0.0000000000
0.3061623059 0.3061623059 -0.1020541020
-0.1020541020 -0.3061623059 0.5102705099
-0.0000000000 -0.2041082040 0.4082164079
0.1020541020 -0.1020541020 0.3061623059
0.2041082040 0.0000000000 0.2041082040
0.3061623059 0.1020541020 0.1020541020
0.4082164079 0.2041082040 0.0000000000
-0.0000000000 -0.4082164079 0.6123246119
0.1020541020 -0.3061623059 0.5102705099
0.2041082040 -0.2041082040 0.4082164079
0.3061623059 -0.1020541020 0.3061623059
0.4082164079 0.0000000000 0.2041082040
0.5102705099 0.1020541020 0.1020541020
-0.6123246119 0.2041082040 0.2041082040
-0.5102705099 0.3061623059 0.1020541020
-0.4082164079 0.4082164079 -0.0000000000
-0.3061623059 0.5102705099 -0.1020541020
-0.2041082040 0.6123246119 -0.2041082040
-0.1020541020 0.7143787138 -0.3061623059
-0.5102705099 0.1020541020 0.3061623059
-0.4082164079 0.2041082040 0.2041082040
-0.3061623059 0.3061623059 0.1020541020
-0.2041082040 0.4082164079 -0.0000000000
-0.1020541020 0.5102705099 -0.1020541020
0.0000000000 0.6123246119 -0.2041082040
-0.4082164079 -0.0000000000 0.4082164079
-0.3061623059 0.1020541020 0.3061623059
-0.2041082040 0.2041082040 0.2041082040
-0.1020541020 0.3061623059 0.1020541020
0.0000000000 0.4082164079 0.0000000000
0.1020541020 0.5102705099 -0.1020541020
-0.3061623059 -0.1020541020 0.5102705099
-0.2041082040 0.0000000000 0.4082164079
-0.1020541020 0.1020541020 0.3061623059
0.0000000000 0.2041082040 0.2041082040
0.1020541020 0.3061623059 0.1020541020
0.2041082040 0.4082164079 0.0000000000
-0.2041082040 -0.2041082040 0.6123246119
-0.1020541020 -0.1020541020 0.5102705099
0.0000000000 0.0000000000 0.4082164079
0.1020541020 0.1020541020 0.3061623059
0.2041082040 0.2041082040 0.2041082040
0.3061623059 0.3061623059 0.1020541020
-0.1020541020 -0.3061623059 0.7143787138
0.0000000000 -0.2041082040 0.6123246119
0.1020541020 -0.1020541020 0.5102705099
0.2041082040 0.0000000000 0.4082164079
0.3061623059 0.1020541020 0.3061623059
0.4082164079 0.2041082040 0.2041082040
-0.7143787138 0.3061623059 0.3061623059
-0.6123246119 0.4082164079 0.2041082040
-0.5102705099 0.5102705099 0.1020541020
-0.4082164079 0.6123246119 -0.0000000000
-0.3061623059 0.7143787138 -0.1020541020
-0.2041082040 0.8164328158 -0.2041082040
-0.6123246119 0.2041082040 0.4082164079
-0.5102705099 0.3061623059 0.3061623059
-0.4082164079 0.4082164079 0.2041082040
-0.3061623059 0.5102705099 0.1020541020
-0.2041082040 0.6123246119 0.0000000000
-0.1020541020 0.7143787138 -0.1020541020
-0.5102705099 0.1020541020 0.5102705099
-0.4082164079 0.2041082040 0.4082164079
-0.3061623059 0.3061623059 0.3061623059
-0.2041082040 0.4082164079 0.2041082040
-0.1020541020 0.5102705099 0.1020541020
0.0000000000 0.6123246119 0.0000000000
-0.4082164079 0.0000000000 0.6123246119
-0.3061623059 0.1020541020 0.5102705099
-0.2041082040 0.2041082040 0.4082164079
-0.1020541020 0.3061623059 0.3061623059
0.0000000000 0.4082164079 0.2041082040
0.1020541020 0.5102705099 0.1020541020
-0.3061623059 -0.1020541020 0.7143787138
-0.2041082040 0.0000000000 0.6123246119
-0.1020541020 0.1020541020 0.5102705099
0.0000000000 0.2041082040 0.4082164079
0.1020541020 0.3061623059 0.3061623059
0.2041082040 0.4082164079 0.2041082040
-0.2041082040 -0.2041082040 0.8164328158
-0.1020541020 -0.1020541020 0.7143787138
0.0000000000 0.0000000000 0.6123246119
0.1020541020 0.1020541020 0.5102705099
0.2041082040 0.2041082040 0.4082164079
0.3061623059 0.3061623059 0.3061623059
 There are 14 alpha and 14 beta electrons
 Start computing overlap matrix
 Allocate 4478976 B from available memory: 1048575740896 B
 Time for computing overlap matrix: 1.6020000000 s
 ====== Initialize compute kernels for all-electron RI-J (kpts) ====== 
 ========================================================== 
 Range-separated parameter omega        = 0.299999999999999989
 Threshold for 1e2c shellpair           = 0.000000000000010000
 Threshold for 2e2c SR integral         = 0.000000000000000001
 Threshold for 2e3c SR integral         = 0.000000000100000000
 Threshold for AFT G-space screening is = 0.000000000001000000
 The exponent cutoff for C/D classification (omega2 / 2) is  = 0.044999999999999998
 ========================================================== 
 === Post process the basis set for RI calculation (exp_cutoff = 0.044999999999999998 ) === 
nshells_b1 before uncontraction = 16
nshells_b1 after uncontraction = 16
nshells_baux before uncontraction = 74
nshells_baux after uncontraction = 74
===============================================
nbsf total   = 36
nbsf compact = 36
nbsf diffuse = 0
naux total   = 242
naux compact = 242
naux diffuse = 0
nshells_bnuc = 2

 Number of unique atoms is 1
 Unique atom #0 (si) has 8 shells.

Shell 0 to 7 belongs to atom si
Shell 8 to 15 belongs to atom si

 Number of unique atom is 1
 Unique atom #0 (si) has 37 auxiliary shells.

Auxiliary Shell 0 to 36 belongs to atom si
Auxiliary Shell 37 to 73 belongs to atom si

================= Automatically determine grid size for reciprocal space summation =================
 Range-separated parameter = 0.30000000000000 and G-space screening threshold = 0.00000000000100
The number of grid points along each axis dimension is (4, 4, 4)
Total number of grid points = 729

Use nonortho shellpair for diffuse density
======== Initializing relevant kernel for RIJ (CC type) ========
There are 135 shellpairs in the reference unit cell
There are 2395 images and we expect to have 323325 in total
There are 9752 shellpairs in the lattice sum after screening
****** AFT -> SR ******
Maximum bra distance cutoff is 24.000000000000
Maximum bra ket distance cutoff is 35.357348128408
Maximum bra ket screening distance is 28.093750000000
Number of auxiliary image is 1409
There are 135 shellpairs in the reference unit cell
There are 551 images and we expect to have 74385 in total
There are 9752 shellpairs in the lattice sum after screening
Available memory per thread for 2e3c calculation is 32.767851935000Gb
Finish initializing 2e3c SR with the lattice sum!
=================================================
======== Initialize the SR component for Vnuc (CC type) ========
Maximum bra distance cutoff is 24.000000000000
Maximum bra ket distance cutoff is 29.210206846529
Maximum bra ket screening distance is 21.726328375039
Number of auxiliary image is 911
There are 135 shellpairs in the reference unit cell
There are 551 images and we expect to have 74385 in total
There are 9752 shellpairs in the lattice sum after screening
Available memory per thread for 2e3c calculation is 32.767851935000Gb
Finish initializing 2e3c SR with the lattice sum!
=================================================
 Aufbau occupation scheme, occupation determined by eigenvalue
 == 0-th k-point nmo = 36 (-0.20411,-0.20411,-0.20411) ==
 == 1-th k-point nmo = 36 (-0.10205,-0.10205,-0.30616) ==
 == 2-th k-point nmo = 36 (-0.00000,-0.00000,-0.40822) ==
 == 3-th k-point nmo = 36 (0.10205,0.10205,-0.51027) ==
 == 4-th k-point nmo = 36 (0.20411,0.20411,-0.61232) ==
 == 5-th k-point nmo = 36 (0.30616,0.30616,-0.71438) ==
 == 6-th k-point nmo = 36 (-0.10205,-0.30616,-0.10205) ==
 == 7-th k-point nmo = 36 (-0.00000,-0.20411,-0.20411) ==
 == 8-th k-point nmo = 36 (0.10205,-0.10205,-0.30616) ==
 == 9-th k-point nmo = 36 (0.20411,-0.00000,-0.40822) ==
 == 10-th k-point nmo = 36 (0.30616,0.10205,-0.51027) ==
 == 11-th k-point nmo = 36 (0.40822,0.20411,-0.61232) ==
 == 12-th k-point nmo = 36 (-0.00000,-0.40822,0.00000) ==
 == 13-th k-point nmo = 36 (0.10205,-0.30616,-0.10205) ==
 == 14-th k-point nmo = 36 (0.20411,-0.20411,-0.20411) ==
 == 15-th k-point nmo = 36 (0.30616,-0.10205,-0.30616) ==
 == 16-th k-point nmo = 36 (0.40822,-0.00000,-0.40822) ==
 == 17-th k-point nmo = 36 (0.51027,0.10205,-0.51027) ==
 == 18-th k-point nmo = 36 (0.10205,-0.51027,0.10205) ==
 == 19-th k-point nmo = 36 (0.20411,-0.40822,0.00000) ==
 == 20-th k-point nmo = 36 (0.30616,-0.30616,-0.10205) ==
 == 21-th k-point nmo = 36 (0.40822,-0.20411,-0.20411) ==
 == 22-th k-point nmo = 36 (0.51027,-0.10205,-0.30616) ==
 == 23-th k-point nmo = 36 (0.61232,0.00000,-0.40822) ==
 == 24-th k-point nmo = 36 (0.20411,-0.61232,0.20411) ==
 == 25-th k-point nmo = 36 (0.30616,-0.51027,0.10205) ==
 == 26-th k-point nmo = 36 (0.40822,-0.40822,0.00000) ==
 == 27-th k-point nmo = 36 (0.51027,-0.30616,-0.10205) ==
 == 28-th k-point nmo = 36 (0.61232,-0.20411,-0.20411) ==
 == 29-th k-point nmo = 36 (0.71438,-0.10205,-0.30616) ==
 == 30-th k-point nmo = 36 (0.30616,-0.71438,0.30616) ==
 == 31-th k-point nmo = 36 (0.40822,-0.61232,0.20411) ==
 == 32-th k-point nmo = 36 (0.51027,-0.51027,0.10205) ==
 == 33-th k-point nmo = 36 (0.61232,-0.40822,0.00000) ==
 == 34-th k-point nmo = 36 (0.71438,-0.30616,-0.10205) ==
 == 35-th k-point nmo = 36 (0.81643,-0.20411,-0.20411) ==
 == 36-th k-point nmo = 36 (-0.30616,-0.10205,-0.10205) ==
 == 37-th k-point nmo = 36 (-0.20411,-0.00000,-0.20411) ==
 == 38-th k-point nmo = 36 (-0.10205,0.10205,-0.30616) ==
 == 39-th k-point nmo = 36 (-0.00000,0.20411,-0.40822) ==
 == 40-th k-point nmo = 36 (0.10205,0.30616,-0.51027) ==
 == 41-th k-point nmo = 36 (0.20411,0.40822,-0.61232) ==
 == 42-th k-point nmo = 36 (-0.20411,-0.20411,-0.00000) ==
 == 43-th k-point nmo = 36 (-0.10205,-0.10205,-0.10205) ==
 == 44-th k-point nmo = 36 (-0.00000,-0.00000,-0.20411) ==
 == 45-th k-point nmo = 36 (0.10205,0.10205,-0.30616) ==
 == 46-th k-point nmo = 36 (0.20411,0.20411,-0.40822) ==
 == 47-th k-point nmo = 36 (0.30616,0.30616,-0.51027) ==
 == 48-th k-point nmo = 36 (-0.10205,-0.30616,0.10205) ==
 == 49-th k-point nmo = 36 (-0.00000,-0.20411,0.00000) ==
 == 50-th k-point nmo = 36 (0.10205,-0.10205,-0.10205) ==
 == 51-th k-point nmo = 36 (0.20411,-0.00000,-0.20411) ==
 == 52-th k-point nmo = 36 (0.30616,0.10205,-0.30616) ==
 == 53-th k-point nmo = 36 (0.40822,0.20411,-0.40822) ==
 == 54-th k-point nmo = 36 (-0.00000,-0.40822,0.20411) ==
 == 55-th k-point nmo = 36 (0.10205,-0.30616,0.10205) ==
 == 56-th k-point nmo = 36 (0.20411,-0.20411,0.00000) ==
 == 57-th k-point nmo = 36 (0.30616,-0.10205,-0.10205) ==
 == 58-th k-point nmo = 36 (0.40822,0.00000,-0.20411) ==
 == 59-th k-point nmo = 36 (0.51027,0.10205,-0.30616) ==
 == 60-th k-point nmo = 36 (0.10205,-0.51027,0.30616) ==
 == 61-th k-point nmo = 36 (0.20411,-0.40822,0.20411) ==
 == 62-th k-point nmo = 36 (0.30616,-0.30616,0.10205) ==
 == 63-th k-point nmo = 36 (0.40822,-0.20411,0.00000) ==
 == 64-th k-point nmo = 36 (0.51027,-0.10205,-0.10205) ==
 == 65-th k-point nmo = 36 (0.61232,0.00000,-0.20411) ==
 == 66-th k-point nmo = 36 (0.20411,-0.61232,0.40822) ==
 == 67-th k-point nmo = 36 (0.30616,-0.51027,0.30616) ==
 == 68-th k-point nmo = 36 (0.40822,-0.40822,0.20411) ==
 == 69-th k-point nmo = 36 (0.51027,-0.30616,0.10205) ==
 == 70-th k-point nmo = 36 (0.61232,-0.20411,0.00000) ==
 == 71-th k-point nmo = 36 (0.71438,-0.10205,-0.10205) ==
 == 72-th k-point nmo = 36 (-0.40822,-0.00000,-0.00000) ==
 == 73-th k-point nmo = 36 (-0.30616,0.10205,-0.10205) ==
 == 74-th k-point nmo = 36 (-0.20411,0.20411,-0.20411) ==
 == 75-th k-point nmo = 36 (-0.10205,0.30616,-0.30616) ==
 == 76-th k-point nmo = 36 (0.00000,0.40822,-0.40822) ==
 == 77-th k-point nmo = 36 (0.10205,0.51027,-0.51027) ==
 == 78-th k-point nmo = 36 (-0.30616,-0.10205,0.10205) ==
 == 79-th k-point nmo = 36 (-0.20411,-0.00000,-0.00000) ==
 == 80-th k-point nmo = 36 (-0.10205,0.10205,-0.10205) ==
 == 81-th k-point nmo = 36 (0.00000,0.20411,-0.20411) ==
 == 82-th k-point nmo = 36 (0.10205,0.30616,-0.30616) ==
 == 83-th k-point nmo = 36 (0.20411,0.40822,-0.40822) ==
 == 84-th k-point nmo = 36 (-0.20411,-0.20411,0.20411) ==
 == 85-th k-point nmo = 36 (-0.10205,-0.10205,0.10205) ==
 == 86-th k-point nmo = 36 (0.00000,0.00000,0.00000) ==
 == 87-th k-point nmo = 36 (0.10205,0.10205,-0.10205) ==
 == 88-th k-point nmo = 36 (0.20411,0.20411,-0.20411) ==
 == 89-th k-point nmo = 36 (0.30616,0.30616,-0.30616) ==
 == 90-th k-point nmo = 36 (-0.10205,-0.30616,0.30616) ==
 == 91-th k-point nmo = 36 (-0.00000,-0.20411,0.20411) ==
 == 92-th k-point nmo = 36 (0.10205,-0.10205,0.10205) ==
 == 93-th k-point nmo = 36 (0.20411,0.00000,0.00000) ==
 == 94-th k-point nmo = 36 (0.30616,0.10205,-0.10205) ==
 == 95-th k-point nmo = 36 (0.40822,0.20411,-0.20411) ==
 == 96-th k-point nmo = 36 (-0.00000,-0.40822,0.40822) ==
 == 97-th k-point nmo = 36 (0.10205,-0.30616,0.30616) ==
 == 98-th k-point nmo = 36 (0.20411,-0.20411,0.20411) ==
 == 99-th k-point nmo = 36 (0.30616,-0.10205,0.10205) ==
 == 100-th k-point nmo = 36 (0.40822,0.00000,0.00000) ==
 == 101-th k-point nmo = 36 (0.51027,0.10205,-0.10205) ==
 == 102-th k-point nmo = 36 (0.10205,-0.51027,0.51027) ==
 == 103-th k-point nmo = 36 (0.20411,-0.40822,0.40822) ==
 == 104-th k-point nmo = 36 (0.30616,-0.30616,0.30616) ==
 == 105-th k-point nmo = 36 (0.40822,-0.20411,0.20411) ==
 == 106-th k-point nmo = 36 (0.51027,-0.10205,0.10205) ==
 == 107-th k-point nmo = 36 (0.61232,0.00000,0.00000) ==
 == 108-th k-point nmo = 36 (-0.51027,0.10205,0.10205) ==
 == 109-th k-point nmo = 36 (-0.40822,0.20411,-0.00000) ==
 == 110-th k-point nmo = 36 (-0.30616,0.30616,-0.10205) ==
 == 111-th k-point nmo = 36 (-0.20411,0.40822,-0.20411) ==
 == 112-th k-point nmo = 36 (-0.10205,0.51027,-0.30616) ==
 == 113-th k-point nmo = 36 (0.00000,0.61232,-0.40822) ==
 == 114-th k-point nmo = 36 (-0.40822,-0.00000,0.20411) ==
 == 115-th k-point nmo = 36 (-0.30616,0.10205,0.10205) ==
 == 116-th k-point nmo = 36 (-0.20411,0.20411,-0.00000) ==
 == 117-th k-point nmo = 36 (-0.10205,0.30616,-0.10205) ==
 == 118-th k-point nmo = 36 (0.00000,0.40822,-0.20411) ==
 == 119-th k-point nmo = 36 (0.10205,0.51027,-0.30616) ==
 == 120-th k-point nmo = 36 (-0.30616,-0.10205,0.30616) ==
 == 121-th k-point nmo = 36 (-0.20411,-0.00000,0.20411) ==
 == 122-th k-point nmo = 36 (-0.10205,0.10205,0.10205) ==
 == 123-th k-point nmo = 36 (0.00000,0.20411,0.00000) ==
 == 124-th k-point nmo = 36 (0.10205,0.30616,-0.10205) ==
 == 125-th k-point nmo = 36 (0.20411,0.40822,-0.20411) ==
 == 126-th k-point nmo = 36 (-0.20411,-0.20411,0.40822) ==
 == 127-th k-point nmo = 36 (-0.10205,-0.10205,0.30616) ==
 == 128-th k-point nmo = 36 (0.00000,0.00000,0.20411) ==
 == 129-th k-point nmo = 36 (0.10205,0.10205,0.10205) ==
 == 130-th k-point nmo = 36 (0.20411,0.20411,0.00000) ==
 == 131-th k-point nmo = 36 (0.30616,0.30616,-0.10205) ==
 == 132-th k-point nmo = 36 (-0.10205,-0.30616,0.51027) ==
 == 133-th k-point nmo = 36 (-0.00000,-0.20411,0.40822) ==
 == 134-th k-point nmo = 36 (0.10205,-0.10205,0.30616) ==
 == 135-th k-point nmo = 36 (0.20411,0.00000,0.20411) ==
 == 136-th k-point nmo = 36 (0.30616,0.10205,0.10205) ==
 == 137-th k-point nmo = 36 (0.40822,0.20411,0.00000) ==
 == 138-th k-point nmo = 36 (-0.00000,-0.40822,0.61232) ==
 == 139-th k-point nmo = 36 (0.10205,-0.30616,0.51027) ==
 == 140-th k-point nmo = 36 (0.20411,-0.20411,0.40822) ==
 == 141-th k-point nmo = 36 (0.30616,-0.10205,0.30616) ==
 == 142-th k-point nmo = 36 (0.40822,0.00000,0.20411) ==
 == 143-th k-point nmo = 36 (0.51027,0.10205,0.10205) ==
 == 144-th k-point nmo = 36 (-0.61232,0.20411,0.20411) ==
 == 145-th k-point nmo = 36 (-0.51027,0.30616,0.10205) ==
 == 146-th k-point nmo = 36 (-0.40822,0.40822,-0.00000) ==
 == 147-th k-point nmo = 36 (-0.30616,0.51027,-0.10205) ==
 == 148-th k-point nmo = 36 (-0.20411,0.61232,-0.20411) ==
 == 149-th k-point nmo = 36 (-0.10205,0.71438,-0.30616) ==
 == 150-th k-point nmo = 36 (-0.51027,0.10205,0.30616) ==
 == 151-th k-point nmo = 36 (-0.40822,0.20411,0.20411) ==
 == 152-th k-point nmo = 36 (-0.30616,0.30616,0.10205) ==
 == 153-th k-point nmo = 36 (-0.20411,0.40822,-0.00000) ==
 == 154-th k-point nmo = 36 (-0.10205,0.51027,-0.10205) ==
 == 155-th k-point nmo = 36 (0.00000,0.61232,-0.20411) ==
 == 156-th k-point nmo = 36 (-0.40822,-0.00000,0.40822) ==
 == 157-th k-point nmo = 36 (-0.30616,0.10205,0.30616) ==
 == 158-th k-point nmo = 36 (-0.20411,0.20411,0.20411) ==
 == 159-th k-point nmo = 36 (-0.10205,0.30616,0.10205) ==
 == 160-th k-point nmo = 36 (0.00000,0.40822,0.00000) ==
 == 161-th k-point nmo = 36 (0.10205,0.51027,-0.10205) ==
 == 162-th k-point nmo = 36 (-0.30616,-0.10205,0.51027) ==
 == 163-th k-point nmo = 36 (-0.20411,0.00000,0.40822) ==
 == 164-th k-point nmo = 36 (-0.10205,0.10205,0.30616) ==
 == 165-th k-point nmo = 36 (0.00000,0.20411,0.20411) ==
 == 166-th k-point nmo = 36 (0.10205,0.30616,0.10205) ==
 == 167-th k-point nmo = 36 (0.20411,0.40822,0.00000) ==
 == 168-th k-point nmo = 36 (-0.20411,-0.20411,0.61232) ==
 == 169-th k-point nmo = 36 (-0.10205,-0.10205,0.51027) ==
 == 170-th k-point nmo = 36 (0.00000,0.00000,0.40822) ==
 == 171-th k-point nmo = 36 (0.10205,0.10205,0.30616) ==
 == 172-th k-point nmo = 36 (0.20411,0.20411,0.20411) ==
 == 173-th k-point nmo = 36 (0.30616,0.30616,0.10205) ==
 == 174-th k-point nmo = 36 (-0.10205,-0.30616,0.71438) ==
 == 175-th k-point nmo = 36 (0.00000,-0.20411,0.61232) ==
 == 176-th k-point nmo = 36 (0.10205,-0.10205,0.51027) ==
 == 177-th k-point nmo = 36 (0.20411,0.00000,0.40822) ==
 == 178-th k-point nmo = 36 (0.30616,0.10205,0.30616) ==
 == 179-th k-point nmo = 36 (0.40822,0.20411,0.20411) ==
 == 180-th k-point nmo = 36 (-0.71438,0.30616,0.30616) ==
 == 181-th k-point nmo = 36 (-0.61232,0.40822,0.20411) ==
 == 182-th k-point nmo = 36 (-0.51027,0.51027,0.10205) ==
 == 183-th k-point nmo = 36 (-0.40822,0.61232,-0.00000) ==
 == 184-th k-point nmo = 36 (-0.30616,0.71438,-0.10205) ==
 == 185-th k-point nmo = 36 (-0.20411,0.81643,-0.20411) ==
 == 186-th k-point nmo = 36 (-0.61232,0.20411,0.40822) ==
 == 187-th k-point nmo = 36 (-0.51027,0.30616,0.30616) ==
 == 188-th k-point nmo = 36 (-0.40822,0.40822,0.20411) ==
 == 189-th k-point nmo = 36 (-0.30616,0.51027,0.10205) ==
 == 190-th k-point nmo = 36 (-0.20411,0.61232,0.00000) ==
 == 191-th k-point nmo = 36 (-0.10205,0.71438,-0.10205) ==
 == 192-th k-point nmo = 36 (-0.51027,0.10205,0.51027) ==
 == 193-th k-point nmo = 36 (-0.40822,0.20411,0.40822) ==
 == 194-th k-point nmo = 36 (-0.30616,0.30616,0.30616) ==
 == 195-th k-point nmo = 36 (-0.20411,0.40822,0.20411) ==
 == 196-th k-point nmo = 36 (-0.10205,0.51027,0.10205) ==
 == 197-th k-point nmo = 36 (0.00000,0.61232,0.00000) ==
 == 198-th k-point nmo = 36 (-0.40822,0.00000,0.61232) ==
 == 199-th k-point nmo = 36 (-0.30616,0.10205,0.51027) ==
 == 200-th k-point nmo = 36 (-0.20411,0.20411,0.40822) ==
 == 201-th k-point nmo = 36 (-0.10205,0.30616,0.30616) ==
 == 202-th k-point nmo = 36 (0.00000,0.40822,0.20411) ==
 == 203-th k-point nmo = 36 (0.10205,0.51027,0.10205) ==
 == 204-th k-point nmo = 36 (-0.30616,-0.10205,0.71438) ==
 == 205-th k-point nmo = 36 (-0.20411,0.00000,0.61232) ==
 == 206-th k-point nmo = 36 (-0.10205,0.10205,0.51027) ==
 == 207-th k-point nmo = 36 (0.00000,0.20411,0.40822) ==
 == 208-th k-point nmo = 36 (0.10205,0.30616,0.30616) ==
 == 209-th k-point nmo = 36 (0.20411,0.40822,0.20411) ==
 == 210-th k-point nmo = 36 (-0.20411,-0.20411,0.81643) ==
 == 211-th k-point nmo = 36 (-0.10205,-0.10205,0.71438) ==
 == 212-th k-point nmo = 36 (0.00000,0.00000,0.61232) ==
 == 213-th k-point nmo = 36 (0.10205,0.10205,0.51027) ==
 == 214-th k-point nmo = 36 (0.20411,0.20411,0.40822) ==
 == 215-th k-point nmo = 36 (0.30616,0.30616,0.30616) ==

 Generate autoSAD guess
backing up fragment data
Atom # 0: si, charge: 0, multiplicity: 3.000000
writing autosad to fragment context
Settings for isolated fragments: 
  frgm_gamma: TRUE
  frgm_center: FALSE

    Running SCF for isolated atom #0
    Fragment Input file: /n/netscratch/joonholee_lab/Lab/hieudinh//si_2_ccpvdz_omega_0.3_666.scratch20250909110158/autosad_frgmt_0/frgmt_input.in
    Fragment Output file: /n/netscratch/joonholee_lab/Lab/hieudinh//si_2_ccpvdz_omega_0.3_666.scratch20250909110158/autosad_frgmt_0/frgmt_job.out
    Fragment job begins at Tue Sep  9 11:02:02 2025

 Integrated density by DFT XC:
   Numerical integral  =    13.999999917315
   Relative error      =     0.0000005906 %
Final energy components:
 DFT Correlation            Energy =  -0.48513826889399
 DFT Exchange               Energy = -20.16642564451808
 Kinetic (alpha)            Energy = 145.25889537694866
 Kinetic (beta)             Energy = 143.28753845481637
 Nuclear Attraction (alpha) Energy = -351.37163574421481
 Nuclear Attraction (beta)  Energy = -337.75785676323801
 Nuclear Repulsion          Energy =   0.00000000000000
 SEOQF                      Energy =  -0.00000000097530
 Total Coulomb              Energy = 132.01551581812930
----------------------------------------------
    SCF Energy: -289.2191067719
   Total fragment job time:  0.38 s.
restoring fragment data

 ------------------------------------------------------------------------
 Allocate 17656704 B from available memory: 1048571261920 B
 Time for generating SCF guess: 0.39 s

 Allocate 69752 B from available memory: 1048553605216 B
 Selected algorithms for each term:
  kpts_kinetic -> @0x15240edeb680
  kpts_nn -> @0x15240edeb800
  kpts_rij_bigmem -> @0x15240edeb3e0
  kpts_vnuc_df -> @0x15240edeb380
  kpts_xc -> @0x15240edeb2c0
 Time for computing kinetic matrix is 1.73 s
Start calculating Vnuc CC type!
 Time for computing nuclear attraction matrix is 2.07 s
Compute (P|Q) and use solve on the fly!
Maximum distance between P and Q is 36.45654200218807
Number of images for (P|Qn) is 1633
 Time for computing 2e2c SR integral is 0.16 s
Maximum dynamic memory per thread for 2e3c SR integrals: 0.023 GiB
Batch size for basis function pair is 703 out of 703
 === bvk cell = 0 has 100.000 % of the basis function pairs === 
 === bvk cell = 1 has 92.461 % of the basis function pairs === 
 === bvk cell = 2 has 55.050 % of the basis function pairs === 
 === bvk cell = 3 has 21.906 % of the basis function pairs === 
 === bvk cell = 4 has 46.942 % of the basis function pairs === 
 === bvk cell = 5 has 90.754 % of the basis function pairs === 
 === bvk cell = 6 has 92.461 % of the basis function pairs === 
 === bvk cell = 7 has 70.555 % of the basis function pairs === 
 === bvk cell = 8 has 27.312 % of the basis function pairs === 
 === bvk cell = 9 has 21.195 % of the basis function pairs === 
 === bvk cell = 10 has 61.024 % of the basis function pairs === 
 === bvk cell = 11 has 91.465 % of the basis function pairs === 
 === bvk cell = 12 has 55.050 % of the basis function pairs === 
 === bvk cell = 13 has 27.312 % of the basis function pairs === 
 === bvk cell = 14 has 2.276 % of the basis function pairs === 
 === bvk cell = 15 has 21.195 % of the basis function pairs === 
 === bvk cell = 16 has 40.541 % of the basis function pairs === 
 === bvk cell = 17 has 68.990 % of the basis function pairs === 
 === bvk cell = 18 has 21.906 % of the basis function pairs === 
 === bvk cell = 19 has 21.195 % of the basis function pairs === 
 === bvk cell = 20 has 21.195 % of the basis function pairs === 
 === bvk cell = 21 has 5.974 % of the basis function pairs === 
 === bvk cell = 22 has 27.169 % of the basis function pairs === 
 === bvk cell = 23 has 27.169 % of the basis function pairs === 
 === bvk cell = 24 has 46.942 % of the basis function pairs === 
 === bvk cell = 25 has 61.024 % of the basis function pairs === 
 === bvk cell = 26 has 40.541 % of the basis function pairs === 
 === bvk cell = 27 has 27.169 % of the basis function pairs === 
 === bvk cell = 28 has 2.276 % of the basis function pairs === 
 === bvk cell = 29 has 21.195 % of the basis function pairs === 
 === bvk cell = 30 has 90.754 % of the basis function pairs === 
 === bvk cell = 31 has 91.465 % of the basis function pairs === 
 === bvk cell = 32 has 68.990 % of the basis function pairs === 
 === bvk cell = 33 has 27.169 % of the basis function pairs === 
 === bvk cell = 34 has 21.195 % of the basis function pairs === 
 === bvk cell = 35 has 62.447 % of the basis function pairs === 
 === bvk cell = 36 has 92.461 % of the basis function pairs === 
 === bvk cell = 37 has 70.555 % of the basis function pairs === 
 === bvk cell = 38 has 27.312 % of the basis function pairs === 
 === bvk cell = 39 has 21.195 % of the basis function pairs === 
 === bvk cell = 40 has 61.024 % of the basis function pairs === 
 === bvk cell = 41 has 91.465 % of the basis function pairs === 
 === bvk cell = 42 has 70.555 % of the basis function pairs === 
 === bvk cell = 43 has 41.110 % of the basis function pairs === 
 === bvk cell = 44 has 12.518 % of the basis function pairs === 
 === bvk cell = 45 has 33.428 % of the basis function pairs === 
 === bvk cell = 46 has 65.861 % of the basis function pairs === 
 === bvk cell = 47 has 86.629 % of the basis function pairs === 
 === bvk cell = 48 has 27.312 % of the basis function pairs === 
 === bvk cell = 49 has 12.518 % of the basis function pairs === 
 === bvk cell = 50 has 4.125 % of the basis function pairs === 
 === bvk cell = 51 has 26.458 % of the basis function pairs === 
 === bvk cell = 52 has 37.980 % of the basis function pairs === 
 === bvk cell = 53 has 44.808 % of the basis function pairs === 
 === bvk cell = 54 has 21.195 % of the basis function pairs === 
 === bvk cell = 55 has 33.428 % of the basis function pairs === 
 === bvk cell = 56 has 26.458 % of the basis function pairs === 
 === bvk cell = 57 has 5.974 % of the basis function pairs === 
 === bvk cell = 58 has 12.518 % of the basis function pairs === 
 === bvk cell = 59 has 16.216 % of the basis function pairs === 
 === bvk cell = 60 has 61.024 % of the basis function pairs === 
 === bvk cell = 61 has 65.861 % of the basis function pairs === 
 === bvk cell = 62 has 37.980 % of the basis function pairs === 
 === bvk cell = 63 has 12.518 % of the basis function pairs === 
 === bvk cell = 64 has 9.104 % of the basis function pairs === 
 === bvk cell = 65 has 36.700 % of the basis function pairs === 
 === bvk cell = 66 has 91.465 % of the basis function pairs === 
 === bvk cell = 67 has 86.629 % of the basis function pairs === 
 === bvk cell = 68 has 44.808 % of the basis function pairs === 
 === bvk cell = 69 has 16.216 % of the basis function pairs === 
 === bvk cell = 70 has 36.700 % of the basis function pairs === 
 === bvk cell = 71 has 83.499 % of the basis function pairs === 
 === bvk cell = 72 has 55.050 % of the basis function pairs === 
 === bvk cell = 73 has 27.312 % of the basis function pairs === 
 === bvk cell = 74 has 2.276 % of the basis function pairs === 
 === bvk cell = 75 has 21.195 % of the basis function pairs === 
 === bvk cell = 76 has 40.541 % of the basis function pairs === 
 === bvk cell = 77 has 68.990 % of the basis function pairs === 
 === bvk cell = 78 has 27.312 % of the basis function pairs === 
 === bvk cell = 79 has 12.518 % of the basis function pairs === 
 === bvk cell = 80 has 4.125 % of the basis function pairs === 
 === bvk cell = 81 has 26.458 % of the basis function pairs === 
 === bvk cell = 82 has 37.980 % of the basis function pairs === 
 === bvk cell = 83 has 44.808 % of the basis function pairs === 
 === bvk cell = 84 has 2.276 % of the basis function pairs === 
 === bvk cell = 85 has 4.125 % of the basis function pairs === 
 === bvk cell = 86 has 0.000 % of the basis function pairs === 
 === bvk cell = 87 has 5.974 % of the basis function pairs === 
 === bvk cell = 88 has 18.065 % of the basis function pairs === 
 === bvk cell = 89 has 16.501 % of the basis function pairs === 
 === bvk cell = 90 has 21.195 % of the basis function pairs === 
 === bvk cell = 91 has 26.458 % of the basis function pairs === 
 === bvk cell = 92 has 5.974 % of the basis function pairs === 
 === bvk cell = 93 has 1.849 % of the basis function pairs === 
 === bvk cell = 94 has 2.276 % of the basis function pairs === 
 === bvk cell = 95 has 9.673 % of the basis function pairs === 
 === bvk cell = 96 has 40.541 % of the basis function pairs === 
 === bvk cell = 97 has 37.980 % of the basis function pairs === 
 === bvk cell = 98 has 18.065 % of the basis function pairs === 
 === bvk cell = 99 has 2.276 % of the basis function pairs === 
 === bvk cell = 100 has 12.091 % of the basis function pairs === 
 === bvk cell = 101 has 37.838 % of the basis function pairs === 
 === bvk cell = 102 has 68.990 % of the basis function pairs === 
 === bvk cell = 103 has 44.808 % of the basis function pairs === 
 === bvk cell = 104 has 16.501 % of the basis function pairs === 
 === bvk cell = 105 has 9.673 % of the basis function pairs === 
 === bvk cell = 106 has 37.838 % of the basis function pairs === 
 === bvk cell = 107 has 65.861 % of the basis function pairs === 
 === bvk cell = 108 has 21.906 % of the basis function pairs === 
 === bvk cell = 109 has 21.195 % of the basis function pairs === 
 === bvk cell = 110 has 21.195 % of the basis function pairs === 
 === bvk cell = 111 has 5.974 % of the basis function pairs === 
 === bvk cell = 112 has 27.169 % of the basis function pairs === 
 === bvk cell = 113 has 27.169 % of the basis function pairs === 
 === bvk cell = 114 has 21.195 % of the basis function pairs === 
 === bvk cell = 115 has 33.428 % of the basis function pairs === 
 === bvk cell = 116 has 26.458 % of the basis function pairs === 
 === bvk cell = 117 has 5.974 % of the basis function pairs === 
 === bvk cell = 118 has 12.518 % of the basis function pairs === 
 === bvk cell = 119 has 16.216 % of the basis function pairs === 
 === bvk cell = 120 has 21.195 % of the basis function pairs === 
 === bvk cell = 121 has 26.458 % of the basis function pairs === 
 === bvk cell = 122 has 5.974 % of the basis function pairs === 
 === bvk cell = 123 has 1.849 % of the basis function pairs === 
 === bvk cell = 124 has 2.276 % of the basis function pairs === 
 === bvk cell = 125 has 9.673 % of the basis function pairs === 
 === bvk cell = 126 has 5.974 % of the basis function pairs === 
 === bvk cell = 127 has 5.974 % of the basis function pairs === 
 === bvk cell = 128 has 1.849 % of the basis function pairs === 
 === bvk cell = 129 has 0.000 % of the basis function pairs === 
 === bvk cell = 130 has 0.427 % of the basis function pairs === 
 === bvk cell = 131 has 5.974 % of the basis function pairs === 
 === bvk cell = 132 has 27.169 % of the basis function pairs === 
 === bvk cell = 133 has 12.518 % of the basis function pairs === 
 === bvk cell = 134 has 2.276 % of the basis function pairs === 
 === bvk cell = 135 has 0.427 % of the basis function pairs === 
 === bvk cell = 136 has 5.974 % of the basis function pairs === 
 === bvk cell = 137 has 26.458 % of the basis function pairs === 
 === bvk cell = 138 has 27.169 % of the basis function pairs === 
 === bvk cell = 139 has 16.216 % of the basis function pairs === 
 === bvk cell = 140 has 9.673 % of the basis function pairs === 
 === bvk cell = 141 has 5.974 % of the basis function pairs === 
 === bvk cell = 142 has 26.458 % of the basis function pairs === 
 === bvk cell = 143 has 36.558 % of the basis function pairs === 
 === bvk cell = 144 has 46.942 % of the basis function pairs === 
 === bvk cell = 145 has 61.024 % of the basis function pairs === 
 === bvk cell = 146 has 40.541 % of the basis function pairs === 
 === bvk cell = 147 has 27.169 % of the basis function pairs === 
 === bvk cell = 148 has 2.276 % of the basis function pairs === 
 === bvk cell = 149 has 21.195 % of the basis function pairs === 
 === bvk cell = 150 has 61.024 % of the basis function pairs === 
 === bvk cell = 151 has 65.861 % of the basis function pairs === 
 === bvk cell = 152 has 37.980 % of the basis function pairs === 
 === bvk cell = 153 has 12.518 % of the basis function pairs === 
 === bvk cell = 154 has 9.104 % of the basis function pairs === 
 === bvk cell = 155 has 36.700 % of the basis function pairs === 
 === bvk cell = 156 has 40.541 % of the basis function pairs === 
 === bvk cell = 157 has 37.980 % of the basis function pairs === 
 === bvk cell = 158 has 18.065 % of the basis function pairs === 
 === bvk cell = 159 has 2.276 % of the basis function pairs === 
 === bvk cell = 160 has 12.091 % of the basis function pairs === 
 === bvk cell = 161 has 37.838 % of the basis function pairs === 
 === bvk cell = 162 has 27.169 % of the basis function pairs === 
 === bvk cell = 163 has 12.518 % of the basis function pairs === 
 === bvk cell = 164 has 2.276 % of the basis function pairs === 
 === bvk cell = 165 has 0.427 % of the basis function pairs === 
 === bvk cell = 166 has 5.974 % of the basis function pairs === 
 === bvk cell = 167 has 26.458 % of the basis function pairs === 
 === bvk cell = 168 has 2.276 % of the basis function pairs === 
 === bvk cell = 169 has 9.104 % of the basis function pairs === 
 === bvk cell = 170 has 12.091 % of the basis function pairs === 
 === bvk cell = 171 has 5.974 % of the basis function pairs === 
 === bvk cell = 172 has 0.000 % of the basis function pairs === 
 === bvk cell = 173 has 5.548 % of the basis function pairs === 
 === bvk cell = 174 has 21.195 % of the basis function pairs === 
 === bvk cell = 175 has 36.700 % of the basis function pairs === 
 === bvk cell = 176 has 37.838 % of the basis function pairs === 
 === bvk cell = 177 has 26.458 % of the basis function pairs === 
 === bvk cell = 178 has 5.548 % of the basis function pairs === 
 === bvk cell = 179 has 9.673 % of the basis function pairs === 
 === bvk cell = 180 has 90.754 % of the basis function pairs === 
 === bvk cell = 181 has 91.465 % of the basis function pairs === 
 === bvk cell = 182 has 68.990 % of the basis function pairs === 
 === bvk cell = 183 has 27.169 % of the basis function pairs === 
 === bvk cell = 184 has 21.195 % of the basis function pairs === 
 === bvk cell = 185 has 62.447 % of the basis function pairs === 
 === bvk cell = 186 has 91.465 % of the basis function pairs === 
 === bvk cell = 187 has 86.629 % of the basis function pairs === 
 === bvk cell = 188 has 44.808 % of the basis function pairs === 
 === bvk cell = 189 has 16.216 % of the basis function pairs === 
 === bvk cell = 190 has 36.700 % of the basis function pairs === 
 === bvk cell = 191 has 83.499 % of the basis function pairs === 
 === bvk cell = 192 has 68.990 % of the basis function pairs === 
 === bvk cell = 193 has 44.808 % of the basis function pairs === 
 === bvk cell = 194 has 16.501 % of the basis function pairs === 
 === bvk cell = 195 has 9.673 % of the basis function pairs === 
 === bvk cell = 196 has 37.838 % of the basis function pairs === 
 === bvk cell = 197 has 65.861 % of the basis function pairs === 
 === bvk cell = 198 has 27.169 % of the basis function pairs === 
 === bvk cell = 199 has 16.216 % of the basis function pairs === 
 === bvk cell = 200 has 9.673 % of the basis function pairs === 
 === bvk cell = 201 has 5.974 % of the basis function pairs === 
 === bvk cell = 202 has 26.458 % of the basis function pairs === 
 === bvk cell = 203 has 36.558 % of the basis function pairs === 
 === bvk cell = 204 has 21.195 % of the basis function pairs === 
 === bvk cell = 205 has 36.700 % of the basis function pairs === 
 === bvk cell = 206 has 37.838 % of the basis function pairs === 
 === bvk cell = 207 has 26.458 % of the basis function pairs === 
 === bvk cell = 208 has 5.548 % of the basis function pairs === 
 === bvk cell = 209 has 9.673 % of the basis function pairs === 
 === bvk cell = 210 has 62.447 % of the basis function pairs === 
 === bvk cell = 211 has 83.499 % of the basis function pairs === 
 === bvk cell = 212 has 65.861 % of the basis function pairs === 
 === bvk cell = 213 has 36.558 % of the basis function pairs === 
 === bvk cell = 214 has 9.673 % of the basis function pairs === 
 === bvk cell = 215 has 30.156 % of the basis function pairs === 
Static memory requirement for 2e3c SR integrals: 0.088 GB
There are 1 munu batches for computing 2e3c SR integrals with latsum
There are 4 Q batches for computing 2e3c SR integrals with latsum
 Time for computing 2e3c SR integral (CC) is 1.74 s
 Time for RI-J this SCF iteration is 1.98 s
 Time for RI-J this SCF iteration is 0.12 s
 ----------------------------------------------
 Guess energy: -578.7629241068
 ----------------------------------------------
 Guess energy components:
 DFT Correlation    Energy =  -1.09468370009508
 DFT Exchange       Energy = -40.57580443032124
 Kinetic            Energy = 577.59211774335188
 Nuclear Attraction Energy = -1186.18051594153530
 Nuclear Repulsion  Energy = -102.89365928466421
 Total Coulomb      Energy = 174.38962150649334
 ----------------------------------------------
  Cycle       Energy         DIIS error
 ----------------------------------------------
 Time for RI-J this SCF iteration is 0.07 s
    1    -578.7671388780      2.71e-03  
 Energy components after cycle 1:
 DFT Correlation    Energy =  -1.09829974711633
 DFT Exchange       Energy = -40.51126218342799
 Kinetic            Energy = 577.04886109812912
 Nuclear Attraction Energy = -1184.90642299583396
 Nuclear Repulsion  Energy = -102.89365928466421
 Total Coulomb      Energy = 173.59364423491581
    2    -578.7671388780      1.20e-03  
 Energy components after cycle 2:
 DFT Correlation    Energy =  -1.09829974711633
 DFT Exchange       Energy = -40.51126218342799
 Kinetic            Energy = 577.04886109812912
 Nuclear Attraction Energy = -1184.90642299583396
 Nuclear Repulsion  Energy = -102.89365928466421
 Total Coulomb      Energy = 173.59364423491581
 ----------------------------------------------
  Cycle       Energy        RMS Gradient
 ----------------------------------------------
 Time for RI-J this SCF iteration is 0.05 s
    1    -578.7678361310      1.96e-02   Descent step
 Energy components after cycle 1:
 DFT Correlation    Energy =  -1.09769080633988
 DFT Exchange       Energy = -40.52707315129005
 Kinetic            Energy = 577.20280516480557
 Nuclear Attraction Energy = -1185.22276500462249
 Nuclear Repulsion  Energy = -102.89365928466421
 Total Coulomb      Energy = 173.77054695106142
 Time for RI-J this SCF iteration is 0.09 s
    2    -578.7678654389      5.87e-03   Normal BFGS step
 Energy components after cycle 2:
 DFT Correlation    Energy =  -1.09747486816281
 DFT Exchange       Energy = -40.53206358627036
 Kinetic            Energy = 577.24936887198237
 Nuclear Attraction Energy = -1185.32155889154728
 Nuclear Repulsion  Energy = -102.89365928466421
 Total Coulomb      Energy = 173.82752231975604
 Time for RI-J this SCF iteration is 0.05 s
    3    -578.7678801227      2.67e-03   Normal BFGS step
 Energy components after cycle 3:
 DFT Correlation    Energy =  -1.09756831442542
 DFT Exchange       Energy = -40.52942974670506
 Kinetic            Energy = 577.22335779982234
 Nuclear Attraction Energy = -1185.26917323246971
 Nuclear Repulsion  Energy = -102.89365928466421
 Total Coulomb      Energy = 173.79859265577656
 Time for RI-J this SCF iteration is 0.05 s
    4    -578.7678801807      1.94e-04   Normal BFGS step
 Energy components after cycle 4:
 DFT Correlation    Energy =  -1.09757433050963
 DFT Exchange       Energy = -40.52936086556166
 Kinetic            Energy = 577.22294142668841
 Nuclear Attraction Energy = -1185.26788953476716
 Nuclear Repulsion  Energy = -102.89365928466421
 Total Coulomb      Energy = 173.79766240811051
 Time for RI-J this SCF iteration is 0.06 s
    5    -578.7678801945      8.23e-05   Normal BFGS step
 Energy components after cycle 5:
 DFT Correlation    Energy =  -1.09757179834646
 DFT Exchange       Energy = -40.52942382856173
 Kinetic            Energy = 577.22354198140044
 Nuclear Attraction Energy = -1185.26913701442140
 Nuclear Repulsion  Energy = -102.89365928466421
 Total Coulomb      Energy = 173.79836975005861
 Time for RI-J this SCF iteration is 0.08 s
    6    -578.7678801946      3.72e-06   Normal BFGS step
 Energy components after cycle 6:
 DFT Correlation    Energy =  -1.09757176715965
 DFT Exchange       Energy = -40.52941945941964
 Kinetic            Energy = 577.22348502152818
 Nuclear Attraction Energy = -1185.26904578285871
 Nuclear Repulsion  Energy = -102.89365928466421
 Total Coulomb      Energy = 173.79833107801841
    6    -578.7678801946      3.72e-06  Convergence criterion met
 ----------------------------------------------
 Final energy components:
 DFT Correlation    Energy =  -1.09757176715965
 DFT Exchange       Energy = -40.52941945941964
 Kinetic            Energy = 577.22348502152818
 Nuclear Attraction Energy = -1185.26904578285871
 Nuclear Repulsion  Energy = -102.89365928466421
 Total Coulomb      Energy = 173.79833107801841
 ----------------------------------------------
 Final energy is -578.7678801946

 SCF time:   CPU 771.72s  wall 35.00s 
 Total wall time for computing Kinetic: 0.01 s (9)
 Total wall time for computing RIJ-BIGMEM: 2.55 s (9)
 Total wall time for computing RSDF Vnuc: 0.01 s (9)
 Total wall time for computing DFT XC: 23.06 s (9)
 ---------------------------------------------------------------------------
                        Orbital Energies (a.u.)
 ---------------------------------------------------------------------------
 == 0-th k-point (-0.20411,-0.20411,-0.20411) occupation: 14==
 -64.99595 -64.99594 -4.62559 -4.62553 -3.03723 -3.03723 -3.03713 -3.03661 -3.03653 -3.03653
 -0.11353 0.07959 0.24019 0.24019 0.34626 0.41450 0.41450 0.58249 0.62003 0.62003
 0.69257 0.80882 0.86964 0.86964 0.95310 1.11359 1.11359 1.21399 1.28693 1.28693
 1.29346 1.47673 1.47673 1.63713 1.63713 2.51757
 == 1-th k-point (-0.10205,-0.10205,-0.30616) occupation: 14==
 -64.99595 -64.99594 -4.62561 -4.62555 -3.03724 -3.03723 -3.03710 -3.03664 -3.03653 -3.03652
 -0.11640 0.11315 0.20355 0.21233 0.35467 0.43355 0.46051 0.47332 0.63838 0.65195
 0.72493 0.81951 0.84037 0.90240 1.03198 1.04179 1.07625 1.14025 1.19484 1.33620
 1.37444 1.41343 1.50910 1.64778 1.80752 2.31821
 == 2-th k-point (-0.00000,-0.00000,-0.40822) occupation: 14==
 -64.99594 -64.99594 -4.62565 -4.62557 -3.03725 -3.03725 -3.03703 -3.03670 -3.03651 -3.03651
 -0.09424 0.09211 0.18699 0.18699 0.30787 0.35943 0.55651 0.55651 0.66086 0.67571
 0.77721 0.82283 0.82283 0.94084 0.95225 1.04464 1.04654 1.04654 1.21720 1.32684
 1.32684 1.34952 1.50028 1.54212 1.93801 1.93801
 == 3-th k-point (0.10205,0.10205,-0.51027) occupation: 14==
 -64.99595 -64.99594 -4.62565 -4.62561 -3.03726 -3.03726 -3.03696 -3.03678 -3.03649 -3.03648
 -0.05136 0.03453 0.14193 0.18172 0.32152 0.38443 0.56411 0.56548 0.68698 0.70839
 0.76738 0.77569 0.88467 0.93293 0.93969 1.02859 1.09279 1.11834 1.13931 1.24936
 1.26388 1.28318 1.38334 1.51648 1.77767 2.31731
 == 4-th k-point (0.20411,0.20411,-0.61232) occupation: 14==
 -64.99595 -64.99594 -4.62562 -4.62561 -3.03725 -3.03724 -3.03699 -3.03676 -3.03651 -3.03648
 -0.04397 0.02693 0.11284 0.19835 0.34056 0.50754 0.52350 0.55040 0.55540 0.60364
 0.84831 0.90079 0.93172 0.93288 0.94172 0.97688 1.03697 1.07707 1.20642 1.24715
 1.26422 1.26518 1.45612 1.68415 1.70666 2.27247
 == 5-th k-point (0.30616,0.30616,-0.71438) occupation: 14==
 -64.99595 -64.99594 -4.62560 -4.62558 -3.03724 -3.03724 -3.03708 -3.03667 -3.03653 -3.03650
 -0.08668 0.05480 0.16400 0.22901 0.37327 0.43752 0.44218 0.55619 0.59373 0.65762
 0.77418 0.79967 0.85746 0.90890 0.94312 1.07125 1.08851 1.16523 1.19909 1.31006
 1.35619 1.41319 1.43759 1.59263 1.87667 2.43035
 == 6-th k-point (-0.10205,-0.30616,-0.10205) occupation: 14==
 -64.99595 -64.99594 -4.62561 -4.62555 -3.03724 -3.03723 -3.03710 -3.03664 -3.03653 -3.03652
 -0.11640 0.11315 0.20355 0.21233 0.35467 0.43355 0.46051 0.47332 0.63838 0.65195
 0.72493 0.81951 0.84037 0.90240 1.03198 1.04179 1.07625 1.14025 1.19484 1.33620
 1.37444 1.41343 1.50910 1.64778 1.80752 2.31821
 == 7-th k-point (-0.00000,-0.20411,-0.20411) occupation: 14==
 -64.99594 -64.99594 -4.62558 -4.62554 -3.03722 -3.03722 -3.03714 -3.03661 -3.03656 -3.03652
 -0.12923 0.13994 0.18772 0.25693 0.39374 0.41295 0.42717 0.49635 0.55935 0.65478
 0.70590 0.78601 0.84898 0.96487 1.00381 1.02226 1.11062 1.20237 1.24530 1.35835
 1.38098 1.45356 1.54688 1.65908 1.89207 2.10507
 == 8-th k-point (0.10205,-0.10205,-0.30616) occupation: 14==
 -64.99595 -64.99594 -4.62561 -4.62555 -3.03724 -3.03723 -3.03710 -3.03664 -3.03653 -3.03652
 -0.11640 0.11315 0.20355 0.21233 0.35467 0.43355 0.46051 0.47332 0.63838 0.65195
 0.72493 0.81951 0.84037 0.90240 1.03198 1.04179 1.07625 1.14025 1.19484 1.33620
 1.37444 1.41343 1.50910 1.64778 1.80752 2.31821
 == 9-th k-point (0.20411,-0.00000,-0.40822) occupation: 14==
 -64.99594 -64.99594 -4.62563 -4.62559 -3.03726 -3.03725 -3.03702 -3.03671 -3.03651 -3.03649
 -0.07999 0.06862 0.14432 0.19194 0.38817 0.42519 0.44024 0.54920 0.64580 0.66596
 0.78511 0.83189 0.85009 0.88623 1.00174 1.03580 1.06424 1.10600 1.21424 1.22865
 1.31877 1.36742 1.42138 1.55309 2.04924 2.07305
 == 10-th k-point (0.30616,0.10205,-0.51027) occupation: 14==
 -64.99595 -64.99594 -4.62563 -4.62561 -3.03726 -3.03726 -3.03697 -3.03677 -3.03650 -3.03648
 -0.04359 0.02411 0.12801 0.17440 0.40911 0.41477 0.51632 0.52613 0.57266 0.71637
 0.76291 0.85349 0.92335 0.95576 0.95599 1.02802 1.05886 1.10585 1.12189 1.18093
 1.27483 1.32450 1.44320 1.53041 1.83397 2.06925
 == 11-th k-point (0.40822,0.20411,-0.61232) occupation: 14==
 -64.99594 -64.99594 -4.62563 -4.62559 -3.03726 -3.03725 -3.03702 -3.03671 -3.03651 -3.03649
 -0.07999 0.06862 0.14432 0.19194 0.38817 0.42519 0.44024 0.54920 0.64580 0.66596
 0.78511 0.83189 0.85009 0.88623 1.00174 1.03580 1.06424 1.10600 1.21424 1.22865
 1.31877 1.36742 1.42138 1.55309 2.04924 2.07305
 == 12-th k-point (-0.00000,-0.40822,0.00000) occupation: 14==
 -64.99594 -64.99594 -4.62565 -4.62557 -3.03725 -3.03725 -3.03703 -3.03670 -3.03651 -3.03651
 -0.09424 0.09211 0.18699 0.18699 0.30787 0.35943 0.55651 0.55651 0.66086 0.67571
 0.77721 0.82283 0.82283 0.94084 0.95225 1.04464 1.04654 1.04654 1.21720 1.32684
 1.32684 1.34952 1.50028 1.54212 1.93801 1.93801
 == 13-th k-point (0.10205,-0.30616,-0.10205) occupation: 14==
 -64.99595 -64.99594 -4.62561 -4.62555 -3.03724 -3.03723 -3.03710 -3.03664 -3.03653 -3.03652
 -0.11640 0.11315 0.20355 0.21233 0.35467 0.43355 0.46051 0.47332 0.63838 0.65195
 0.72493 0.81951 0.84037 0.90240 1.03198 1.04179 1.07625 1.14025 1.19484 1.33620
 1.37444 1.41343 1.50910 1.64778 1.80752 2.31821
 == 14-th k-point (0.20411,-0.20411,-0.20411) occupation: 14==
 -64.99595 -64.99594 -4.62559 -4.62553 -3.03723 -3.03723 -3.03713 -3.03661 -3.03653 -3.03653
 -0.11353 0.07959 0.24019 0.24019 0.34626 0.41449 0.41450 0.58249 0.62003 0.62003
 0.69257 0.80882 0.86964 0.86964 0.95310 1.11359 1.11359 1.21399 1.28693 1.28693
 1.29346 1.47673 1.47673 1.63713 1.63713 2.51757
 == 15-th k-point (0.30616,-0.10205,-0.30616) occupation: 14==
 -64.99595 -64.99594 -4.62560 -4.62558 -3.03724 -3.03724 -3.03708 -3.03667 -3.03653 -3.03650
 -0.08668 0.05480 0.16400 0.22901 0.37327 0.43752 0.44218 0.55619 0.59373 0.65762
 0.77418 0.79967 0.85746 0.90890 0.94312 1.07125 1.08851 1.16523 1.19909 1.31006
 1.35619 1.41319 1.43759 1.59263 1.87667 2.43035
 == 16-th k-point (0.40822,-0.00000,-0.40822) occupation: 14==
 -64.99595 -64.99594 -4.62562 -4.62561 -3.03725 -3.03724 -3.03699 -3.03676 -3.03651 -3.03648
 -0.04397 0.02693 0.11284 0.19835 0.34056 0.50754 0.52350 0.55040 0.55540 0.60364
 0.84831 0.90079 0.93172 0.93288 0.94172 0.97688 1.03697 1.07707 1.20642 1.24715
 1.26422 1.26518 1.45612 1.68415 1.70666 2.27247
 == 17-th k-point (0.51027,0.10205,-0.51027) occupation: 14==
 -64.99595 -64.99594 -4.62565 -4.62561 -3.03726 -3.03726 -3.03696 -3.03678 -3.03649 -3.03648
 -0.05136 0.03453 0.14193 0.18172 0.32152 0.38443 0.56411 0.56548 0.68698 0.70839
 0.76738 0.77569 0.88467 0.93293 0.93969 1.02859 1.09279 1.11834 1.13931 1.24936
 1.26388 1.28318 1.38334 1.51648 1.77767 2.31731
 == 18-th k-point (0.10205,-0.51027,0.10205) occupation: 14==
 -64.99595 -64.99594 -4.62565 -4.62561 -3.03726 -3.03726 -3.03696 -3.03678 -3.03649 -3.03648
 -0.05136 0.03453 0.14193 0.18172 0.32152 0.38443 0.56411 0.56548 0.68698 0.70839
 0.76738 0.77569 0.88467 0.93293 0.93969 1.02859 1.09279 1.11834 1.13931 1.24936
 1.26388 1.28318 1.38334 1.51648 1.77767 2.31731
 == 19-th k-point (0.20411,-0.40822,0.00000) occupation: 14==
 -64.99594 -64.99594 -4.62563 -4.62559 -3.03726 -3.03725 -3.03702 -3.03671 -3.03651 -3.03649
 -0.07999 0.06862 0.14432 0.19194 0.38817 0.42519 0.44024 0.54920 0.64580 0.66596
 0.78511 0.83189 0.85009 0.88623 1.00174 1.03580 1.06424 1.10600 1.21424 1.22865
 1.31877 1.36742 1.42138 1.55309 2.04924 2.07305
 == 20-th k-point (0.30616,-0.30616,-0.10205) occupation: 14==
 -64.99595 -64.99594 -4.62560 -4.62558 -3.03724 -3.03724 -3.03708 -3.03667 -3.03653 -3.03650
 -0.08668 0.05480 0.16400 0.22901 0.37327 0.43752 0.44218 0.55619 0.59373 0.65762
 0.77418 0.79967 0.85746 0.90890 0.94312 1.07125 1.08851 1.16523 1.19909 1.31006
 1.35619 1.41319 1.43759 1.59263 1.87667 2.43035
 == 21-th k-point (0.40822,-0.20411,-0.20411) occupation: 14==
 -64.99595 -64.99594 -4.62561 -4.62559 -3.03725 -3.03725 -3.03705 -3.03669 -3.03651 -3.03650
 -0.07248 0.03250 0.17416 0.21092 0.35814 0.43646 0.45786 0.52769 0.66272 0.70322
 0.75962 0.76841 0.81342 0.91438 0.99000 1.09925 1.10641 1.11905 1.17561 1.22410
 1.38405 1.38718 1.40908 1.63063 1.69264 2.59491
 == 22-th k-point (0.51027,-0.10205,-0.30616) occupation: 14==
 -64.99595 -64.99594 -4.62563 -4.62561 -3.03726 -3.03726 -3.03697 -3.03677 -3.03650 -3.03648
 -0.04359 0.02411 0.12801 0.17440 0.40911 0.41477 0.51632 0.52613 0.57266 0.71637
 0.76291 0.85349 0.92335 0.95576 0.95599 1.02802 1.05886 1.10585 1.12189 1.18093
 1.27483 1.32450 1.44320 1.53041 1.83397 2.06925
 == 23-th k-point (0.61232,0.00000,-0.40822) occupation: 14==
 -64.99594 -64.99594 -4.62563 -4.62563 -3.03727 -3.03727 -3.03687 -3.03687 -3.03648 -3.03648
 -0.00718 -0.00718 0.14143 0.14143 0.38513 0.38513 0.53743 0.53743 0.68790 0.68790
 0.79540 0.79540 0.93254 0.93254 0.99708 0.99708 1.09016 1.09016 1.12996 1.12996
 1.25345 1.25345 1.43331 1.43331 1.91357 1.91357
 == 24-th k-point (0.20411,-0.61232,0.20411) occupation: 14==
 -64.99595 -64.99594 -4.62562 -4.62561 -3.03725 -3.03724 -3.03699 -3.03676 -3.03651 -3.03648
 -0.04397 0.02693 0.11284 0.19835 0.34056 0.50754 0.52350 0.55040 0.55540 0.60364
 0.84831 0.90079 0.93172 0.93288 0.94172 0.97688 1.03697 1.07707 1.20642 1.24715
 1.26422 1.26518 1.45612 1.68415 1.70666 2.27247
 == 25-th k-point (0.30616,-0.51027,0.10205) occupation: 14==
 -64.99595 -64.99594 -4.62563 -4.62561 -3.03726 -3.03726 -3.03697 -3.03677 -3.03650 -3.03648
 -0.04359 0.02411 0.12801 0.17440 0.40911 0.41477 0.51632 0.52613 0.57266 0.71637
 0.76291 0.85349 0.92335 0.95576 0.95599 1.02802 1.05886 1.10585 1.12189 1.18093
 1.27483 1.32450 1.44320 1.53041 1.83397 2.06925
 == 26-th k-point (0.40822,-0.40822,0.00000) occupation: 14==
 -64.99595 -64.99594 -4.62562 -4.62561 -3.03725 -3.03724 -3.03699 -3.03676 -3.03651 -3.03648
 -0.04397 0.02693 0.11284 0.19835 0.34056 0.50754 0.52350 0.55040 0.55540 0.60364
 0.84831 0.90079 0.93172 0.93288 0.94172 0.97688 1.03697 1.07707 1.20642 1.24715
 1.26422 1.26518 1.45612 1.68415 1.70666 2.27247
 == 27-th k-point (0.51027,-0.30616,-0.10205) occupation: 14==
 -64.99595 -64.99594 -4.62563 -4.62561 -3.03726 -3.03726 -3.03697 -3.03677 -3.03650 -3.03648
 -0.04359 0.02411 0.12801 0.17440 0.40911 0.41477 0.51632 0.52613 0.57266 0.71637
 0.76291 0.85349 0.92335 0.95576 0.95599 1.02802 1.05886 1.10585 1.12189 1.18093
 1.27483 1.32450 1.44320 1.53041 1.83397 2.06925
 == 28-th k-point (0.61232,-0.20411,-0.20411) occupation: 14==
 -64.99595 -64.99594 -4.62562 -4.62561 -3.03725 -3.03724 -3.03699 -3.03676 -3.03651 -3.03648
 -0.04397 0.02693 0.11284 0.19835 0.34056 0.50754 0.52350 0.55040 0.55540 0.60364
 0.84831 0.90079 0.93172 0.93288 0.94172 0.97688 1.03697 1.07707 1.20642 1.24715
 1.26422 1.26518 1.45612 1.68415 1.70666 2.27247
 == 29-th k-point (0.71438,-0.10205,-0.30616) occupation: 14==
 -64.99595 -64.99594 -4.62563 -4.62561 -3.03726 -3.03726 -3.03697 -3.03677 -3.03650 -3.03648
 -0.04359 0.02411 0.12801 0.17440 0.40911 0.41477 0.51632 0.52613 0.57266 0.71637
 0.76291 0.85349 0.92335 0.95576 0.95599 1.02802 1.05886 1.10585 1.12189 1.18093
 1.27483 1.32450 1.44320 1.53041 1.83397 2.06925
 == 30-th k-point (0.30616,-0.71438,0.30616) occupation: 14==
 -64.99595 -64.99594 -4.62560 -4.62558 -3.03724 -3.03724 -3.03708 -3.03667 -3.03653 -3.03650
 -0.08668 0.05480 0.16400 0.22901 0.37327 0.43752 0.44218 0.55619 0.59373 0.65762
 0.77418 0.79967 0.85746 0.90890 0.94312 1.07125 1.08851 1.16523 1.19909 1.31006
 1.35619 1.41319 1.43759 1.59263 1.87667 2.43035
 == 31-th k-point (0.40822,-0.61232,0.20411) occupation: 14==
 -64.99594 -64.99594 -4.62563 -4.62559 -3.03726 -3.03725 -3.03702 -3.03671 -3.03651 -3.03649
 -0.07999 0.06862 0.14432 0.19194 0.38817 0.42519 0.44024 0.54920 0.64580 0.66596
 0.78511 0.83189 0.85009 0.88623 1.00174 1.03580 1.06424 1.10600 1.21424 1.22865
 1.31877 1.36742 1.42138 1.55309 2.04924 2.07305
 == 32-th k-point (0.51027,-0.51027,0.10205) occupation: 14==
 -64.99595 -64.99594 -4.62565 -4.62561 -3.03726 -3.03726 -3.03696 -3.03678 -3.03649 -3.03648
 -0.05136 0.03453 0.14193 0.18172 0.32152 0.38443 0.56411 0.56548 0.68698 0.70839
 0.76738 0.77569 0.88467 0.93293 0.93969 1.02859 1.09279 1.11834 1.13931 1.24936
 1.26388 1.28318 1.38334 1.51648 1.77767 2.31731
 == 33-th k-point (0.61232,-0.40822,0.00000) occupation: 14==
 -64.99594 -64.99594 -4.62563 -4.62563 -3.03727 -3.03727 -3.03687 -3.03687 -3.03648 -3.03648
 -0.00718 -0.00718 0.14143 0.14143 0.38513 0.38513 0.53743 0.53743 0.68790 0.68790
 0.79540 0.79540 0.93254 0.93254 0.99708 0.99708 1.09016 1.09016 1.12996 1.12996
 1.25345 1.25345 1.43331 1.43331 1.91357 1.91357
 == 34-th k-point (0.71438,-0.30616,-0.10205) occupation: 14==
 -64.99595 -64.99594 -4.62563 -4.62561 -3.03726 -3.03726 -3.03697 -3.03677 -3.03650 -3.03648
 -0.04359 0.02411 0.12801 0.17440 0.40911 0.41477 0.51632 0.52613 0.57266 0.71637
 0.76291 0.85349 0.92335 0.95576 0.95599 1.02802 1.05886 1.10585 1.12189 1.18093
 1.27483 1.32450 1.44320 1.53041 1.83397 2.06925
 == 35-th k-point (0.81643,-0.20411,-0.20411) occupation: 14==
 -64.99595 -64.99594 -4.62561 -4.62559 -3.03725 -3.03725 -3.03705 -3.03669 -3.03651 -3.03650
 -0.07248 0.03250 0.17416 0.21092 0.35814 0.43646 0.45786 0.52769 0.66272 0.70322
 0.75962 0.76841 0.81342 0.91438 0.99000 1.09925 1.10641 1.11905 1.17561 1.22410
 1.38405 1.38718 1.40908 1.63063 1.69264 2.59491
 == 36-th k-point (-0.30616,-0.10205,-0.10205) occupation: 14==
 -64.99595 -64.99594 -4.62561 -4.62555 -3.03724 -3.03723 -3.03710 -3.03664 -3.03653 -3.03652
 -0.11640 0.11315 0.20355 0.21233 0.35467 0.43355 0.46051 0.47332 0.63838 0.65195
 0.72493 0.81951 0.84037 0.90240 1.03198 1.04179 1.07625 1.14025 1.19484 1.33620
 1.37444 1.41343 1.50910 1.64778 1.80752 2.31821
 == 37-th k-point (-0.20411,-0.00000,-0.20411) occupation: 14==
 -64.99594 -64.99594 -4.62558 -4.62554 -3.03722 -3.03722 -3.03714 -3.03661 -3.03656 -3.03652
 -0.12923 0.13994 0.18772 0.25693 0.39374 0.41295 0.42717 0.49635 0.55935 0.65478
 0.70590 0.78601 0.84898 0.96487 1.00381 1.02226 1.11062 1.20237 1.24530 1.35835
 1.38098 1.45356 1.54688 1.65908 1.89207 2.10507
 == 38-th k-point (-0.10205,0.10205,-0.30616) occupation: 14==
 -64.99595 -64.99594 -4.62561 -4.62555 -3.03724 -3.03723 -3.03710 -3.03664 -3.03653 -3.03652
 -0.11640 0.11315 0.20355 0.21233 0.35467 0.43355 0.46051 0.47332 0.63838 0.65195
 0.72493 0.81951 0.84037 0.90240 1.03198 1.04179 1.07625 1.14025 1.19484 1.33620
 1.37444 1.41343 1.50910 1.64778 1.80752 2.31821
 == 39-th k-point (-0.00000,0.20411,-0.40822) occupation: 14==
 -64.99594 -64.99594 -4.62563 -4.62559 -3.03726 -3.03725 -3.03702 -3.03671 -3.03651 -3.03649
 -0.07999 0.06862 0.14432 0.19194 0.38817 0.42519 0.44024 0.54920 0.64580 0.66596
 0.78511 0.83189 0.85009 0.88623 1.00174 1.03580 1.06424 1.10600 1.21424 1.22865
 1.31877 1.36742 1.42138 1.55309 2.04924 2.07305
 == 40-th k-point (0.10205,0.30616,-0.51027) occupation: 14==
 -64.99595 -64.99594 -4.62563 -4.62561 -3.03726 -3.03726 -3.03697 -3.03677 -3.03650 -3.03648
 -0.04359 0.02411 0.12801 0.17440 0.40911 0.41477 0.51632 0.52613 0.57266 0.71637
 0.76291 0.85349 0.92335 0.95576 0.95599 1.02802 1.05886 1.10585 1.12189 1.18093
 1.27483 1.32450 1.44320 1.53041 1.83397 2.06925
 == 41-th k-point (0.20411,0.40822,-0.61232) occupation: 14==
 -64.99594 -64.99594 -4.62563 -4.62559 -3.03726 -3.03725 -3.03702 -3.03671 -3.03651 -3.03649
 -0.07999 0.06862 0.14432 0.19194 0.38817 0.42519 0.44024 0.54920 0.64580 0.66596
 0.78511 0.83189 0.85009 0.88623 1.00174 1.03580 1.06424 1.10600 1.21424 1.22865
 1.31877 1.36742 1.42138 1.55309 2.04924 2.07305
 == 42-th k-point (-0.20411,-0.20411,-0.00000) occupation: 14==
 -64.99594 -64.99594 -4.62558 -4.62554 -3.03722 -3.03722 -3.03714 -3.03661 -3.03656 -3.03652
 -0.12923 0.13994 0.18772 0.25693 0.39374 0.41295 0.42717 0.49635 0.55935 0.65478
 0.70590 0.78601 0.84898 0.96487 1.00381 1.02226 1.11062 1.20237 1.24530 1.35835
 1.38098 1.45356 1.54688 1.65908 1.89207 2.10507
 == 43-th k-point (-0.10205,-0.10205,-0.10205) occupation: 14==
 -64.99594 -64.99594 -4.62552 -4.62547 -3.03719 -3.03719 -3.03716 -3.03658 -3.03657 -3.03657
 -0.15078 0.18951 0.26156 0.26156 0.36743 0.40008 0.40008 0.48009 0.58250 0.58250
 0.66035 0.82509 0.89927 0.89927 1.06499 1.13990 1.14659 1.14659 1.29672 1.29672
 1.47102 1.47102 1.47205 1.70841 1.70841 1.92327
 == 44-th k-point (-0.00000,-0.00000,-0.20411) occupation: 14==
 -64.99594 -64.99594 -4.62553 -4.62550 -3.03719 -3.03719 -3.03716 -3.03660 -3.03656 -3.03656
 -0.14629 0.20260 0.23347 0.23347 0.34370 0.44379 0.44379 0.44520 0.56679 0.60949
 0.67436 0.86404 0.86404 0.87887 1.11196 1.11196 1.12736 1.14459 1.15501 1.36240
 1.45894 1.45894 1.62126 1.66732 1.77128 1.77128
 == 45-th k-point (0.10205,0.10205,-0.30616) occupation: 14==
 -64.99595 -64.99594 -4.62561 -4.62555 -3.03724 -3.03723 -3.03710 -3.03664 -3.03653 -3.03652
 -0.11640 0.11315 0.20355 0.21233 0.35467 0.43355 0.46051 0.47332 0.63838 0.65195
 0.72493 0.81951 0.84037 0.90240 1.03198 1.04179 1.07625 1.14025 1.19484 1.33620
 1.37444 1.41343 1.50910 1.64778 1.80752 2.31821
 == 46-th k-point (0.20411,0.20411,-0.40822) occupation: 14==
 -64.99595 -64.99594 -4.62561 -4.62559 -3.03725 -3.03725 -3.03705 -3.03669 -3.03651 -3.03650
 -0.07248 0.03250 0.17416 0.21092 0.35814 0.43646 0.45786 0.52769 0.66272 0.70322
 0.75962 0.76841 0.81342 0.91438 0.99000 1.09925 1.10641 1.11905 1.17561 1.22410
 1.38405 1.38718 1.40908 1.63063 1.69264 2.59491
 == 47-th k-point (0.30616,0.30616,-0.51027) occupation: 14==
 -64.99595 -64.99594 -4.62560 -4.62558 -3.03724 -3.03724 -3.03708 -3.03667 -3.03653 -3.03650
 -0.08668 0.05480 0.16400 0.22901 0.37327 0.43752 0.44218 0.55619 0.59373 0.65762
 0.77418 0.79967 0.85746 0.90890 0.94312 1.07125 1.08851 1.16523 1.19909 1.31006
 1.35619 1.41319 1.43759 1.59263 1.87667 2.43035
 == 48-th k-point (-0.10205,-0.30616,0.10205) occupation: 14==
 -64.99595 -64.99594 -4.62561 -4.62555 -3.03724 -3.03723 -3.03710 -3.03664 -3.03653 -3.03652
 -0.11640 0.11315 0.20355 0.21233 0.35467 0.43355 0.46051 0.47332 0.63838 0.65195
 0.72493 0.81951 0.84037 0.90240 1.03198 1.04179 1.07625 1.14025 1.19484 1.33620
 1.37444 1.41343 1.50910 1.64778 1.80752 2.31821
 == 49-th k-point (-0.00000,-0.20411,0.00000) occupation: 14==
 -64.99594 -64.99594 -4.62553 -4.62550 -3.03719 -3.03719 -3.03716 -3.03660 -3.03656 -3.03656
 -0.14629 0.20260 0.23347 0.23347 0.34370 0.44379 0.44379 0.44520 0.56679 0.60949
 0.67436 0.86404 0.86404 0.87887 1.11196 1.11196 1.12736 1.14459 1.15501 1.36240
 1.45894 1.45894 1.62126 1.66732 1.77128 1.77128
 == 50-th k-point (0.10205,-0.10205,-0.10205) occupation: 14==
 -64.99594 -64.99594 -4.62552 -4.62547 -3.03719 -3.03719 -3.03716 -3.03658 -3.03657 -3.03657
 -0.15078 0.18951 0.26156 0.26156 0.36743 0.40008 0.40008 0.48009 0.58250 0.58250
 0.66035 0.82509 0.89927 0.89927 1.06499 1.13990 1.14659 1.14659 1.29672 1.29672
 1.47102 1.47102 1.47205 1.70841 1.70841 1.92327
 == 51-th k-point (0.20411,-0.00000,-0.20411) occupation: 14==
 -64.99594 -64.99594 -4.62558 -4.62554 -3.03722 -3.03722 -3.03714 -3.03661 -3.03656 -3.03652
 -0.12923 0.13994 0.18772 0.25693 0.39374 0.41295 0.42717 0.49635 0.55935 0.65478
 0.70590 0.78601 0.84898 0.96487 1.00381 1.02226 1.11062 1.20237 1.24530 1.35835
 1.38098 1.45356 1.54688 1.65908 1.89207 2.10507
 == 52-th k-point (0.30616,0.10205,-0.30616) occupation: 14==
 -64.99595 -64.99594 -4.62560 -4.62558 -3.03724 -3.03724 -3.03708 -3.03667 -3.03653 -3.03650
 -0.08668 0.05480 0.16400 0.22901 0.37327 0.43752 0.44218 0.55619 0.59373 0.65762
 0.77418 0.79967 0.85746 0.90890 0.94312 1.07125 1.08851 1.16523 1.19909 1.31006
 1.35619 1.41319 1.43759 1.59263 1.87667 2.43035
 == 53-th k-point (0.40822,0.20411,-0.40822) occupation: 14==
 -64.99595 -64.99594 -4.62561 -4.62559 -3.03725 -3.03725 -3.03705 -3.03669 -3.03651 -3.03650
 -0.07248 0.03250 0.17416 0.21092 0.35814 0.43646 0.45786 0.52769 0.66272 0.70322
 0.75962 0.76841 0.81342 0.91438 0.99000 1.09925 1.10641 1.11905 1.17561 1.22410
 1.38405 1.38718 1.40908 1.63063 1.69264 2.59491
 == 54-th k-point (-0.00000,-0.40822,0.20411) occupation: 14==
 -64.99594 -64.99594 -4.62563 -4.62559 -3.03726 -3.03725 -3.03702 -3.03671 -3.03651 -3.03649
 -0.07999 0.06862 0.14432 0.19194 0.38817 0.42519 0.44024 0.54920 0.64580 0.66596
 0.78511 0.83189 0.85009 0.88623 1.00174 1.03580 1.06424 1.10600 1.21424 1.22865
 1.31877 1.36742 1.42138 1.55309 2.04924 2.07305
 == 55-th k-point (0.10205,-0.30616,0.10205) occupation: 14==
 -64.99595 -64.99594 -4.62561 -4.62555 -3.03724 -3.03723 -3.03710 -3.03664 -3.03653 -3.03652
 -0.11640 0.11315 0.20355 0.21233 0.35467 0.43355 0.46051 0.47332 0.63838 0.65195
 0.72493 0.81951 0.84037 0.90240 1.03198 1.04179 1.07625 1.14025 1.19484 1.33620
 1.37444 1.41343 1.50910 1.64778 1.80752 2.31821
 == 56-th k-point (0.20411,-0.20411,0.00000) occupation: 14==
 -64.99594 -64.99594 -4.62558 -4.62554 -3.03722 -3.03722 -3.03714 -3.03661 -3.03656 -3.03652
 -0.12923 0.13994 0.18772 0.25693 0.39374 0.41295 0.42717 0.49635 0.55935 0.65478
 0.70590 0.78601 0.84898 0.96487 1.00381 1.02226 1.11062 1.20237 1.24530 1.35835
 1.38098 1.45356 1.54688 1.65908 1.89207 2.10507
 == 57-th k-point (0.30616,-0.10205,-0.10205) occupation: 14==
 -64.99595 -64.99594 -4.62561 -4.62555 -3.03724 -3.03723 -3.03710 -3.03664 -3.03653 -3.03652
 -0.11640 0.11315 0.20355 0.21233 0.35467 0.43355 0.46051 0.47332 0.63838 0.65195
 0.72493 0.81951 0.84037 0.90240 1.03198 1.04179 1.07625 1.14025 1.19484 1.33620
 1.37444 1.41343 1.50910 1.64778 1.80752 2.31821
 == 58-th k-point (0.40822,0.00000,-0.20411) occupation: 14==
 -64.99594 -64.99594 -4.62563 -4.62559 -3.03726 -3.03725 -3.03702 -3.03671 -3.03651 -3.03649
 -0.07999 0.06862 0.14432 0.19194 0.38817 0.42519 0.44024 0.54920 0.64580 0.66596
 0.78511 0.83189 0.85009 0.88623 1.00174 1.03580 1.06424 1.10600 1.21424 1.22865
 1.31877 1.36742 1.42138 1.55309 2.04924 2.07305
 == 59-th k-point (0.51027,0.10205,-0.30616) occupation: 14==
 -64.99595 -64.99594 -4.62563 -4.62561 -3.03726 -3.03726 -3.03697 -3.03677 -3.03650 -3.03648
 -0.04359 0.02411 0.12801 0.17440 0.40911 0.41477 0.51632 0.52613 0.57266 0.71637
 0.76291 0.85349 0.92335 0.95576 0.95599 1.02802 1.05886 1.10585 1.12189 1.18093
 1.27483 1.32450 1.44320 1.53041 1.83397 2.06925
 == 60-th k-point (0.10205,-0.51027,0.30616) occupation: 14==
 -64.99595 -64.99594 -4.62563 -4.62561 -3.03726 -3.03726 -3.03697 -3.03677 -3.03650 -3.03648
 -0.04359 0.02411 0.12801 0.17440 0.40911 0.41477 0.51632 0.52613 0.57266 0.71637
 0.76291 0.85349 0.92335 0.95576 0.95599 1.02802 1.05886 1.10585 1.12189 1.18093
 1.27483 1.32450 1.44320 1.53041 1.83397 2.06925
 == 61-th k-point (0.20411,-0.40822,0.20411) occupation: 14==
 -64.99595 -64.99594 -4.62561 -4.62559 -3.03725 -3.03725 -3.03705 -3.03669 -3.03651 -3.03650
 -0.07248 0.03250 0.17416 0.21092 0.35814 0.43646 0.45786 0.52769 0.66272 0.70322
 0.75962 0.76841 0.81342 0.91438 0.99000 1.09925 1.10641 1.11905 1.17561 1.22410
 1.38405 1.38718 1.40908 1.63063 1.69264 2.59491
 == 62-th k-point (0.30616,-0.30616,0.10205) occupation: 14==
 -64.99595 -64.99594 -4.62560 -4.62558 -3.03724 -3.03724 -3.03708 -3.03667 -3.03653 -3.03650
 -0.08668 0.05480 0.16400 0.22901 0.37327 0.43752 0.44218 0.55619 0.59373 0.65762
 0.77418 0.79967 0.85746 0.90890 0.94312 1.07125 1.08851 1.16523 1.19909 1.31006
 1.35619 1.41319 1.43759 1.59263 1.87667 2.43035
 == 63-th k-point (0.40822,-0.20411,0.00000) occupation: 14==
 -64.99594 -64.99594 -4.62563 -4.62559 -3.03726 -3.03725 -3.03702 -3.03671 -3.03651 -3.03649
 -0.07999 0.06862 0.14432 0.19194 0.38817 0.42519 0.44024 0.54920 0.64580 0.66596
 0.78511 0.83189 0.85009 0.88623 1.00174 1.03580 1.06424 1.10600 1.21424 1.22865
 1.31877 1.36742 1.42138 1.55309 2.04924 2.07305
 == 64-th k-point (0.51027,-0.10205,-0.10205) occupation: 14==
 -64.99595 -64.99594 -4.62565 -4.62561 -3.03726 -3.03726 -3.03696 -3.03678 -3.03649 -3.03648
 -0.05136 0.03453 0.14193 0.18172 0.32152 0.38443 0.56411 0.56548 0.68698 0.70839
 0.76738 0.77569 0.88467 0.93293 0.93969 1.02859 1.09279 1.11834 1.13931 1.24936
 1.26388 1.28318 1.38334 1.51648 1.77767 2.31731
 == 65-th k-point (0.61232,0.00000,-0.20411) occupation: 14==
 -64.99594 -64.99594 -4.62563 -4.62563 -3.03727 -3.03727 -3.03687 -3.03687 -3.03648 -3.03648
 -0.00718 -0.00718 0.14143 0.14143 0.38513 0.38513 0.53743 0.53743 0.68790 0.68790
 0.79540 0.79540 0.93254 0.93254 0.99708 0.99708 1.09016 1.09016 1.12996 1.12996
 1.25345 1.25345 1.43331 1.43331 1.91357 1.91357
 == 66-th k-point (0.20411,-0.61232,0.40822) occupation: 14==
 -64.99594 -64.99594 -4.62563 -4.62559 -3.03726 -3.03725 -3.03702 -3.03671 -3.03651 -3.03649
 -0.07999 0.06862 0.14432 0.19194 0.38817 0.42519 0.44024 0.54920 0.64580 0.66596
 0.78511 0.83189 0.85009 0.88623 1.00174 1.03580 1.06424 1.10600 1.21424 1.22865
 1.31877 1.36742 1.42138 1.55309 2.04924 2.07305
 == 67-th k-point (0.30616,-0.51027,0.30616) occupation: 14==
 -64.99595 -64.99594 -4.62560 -4.62558 -3.03724 -3.03724 -3.03708 -3.03667 -3.03653 -3.03650
 -0.08668 0.05480 0.16400 0.22901 0.37327 0.43752 0.44218 0.55619 0.59373 0.65762
 0.77418 0.79967 0.85746 0.90890 0.94312 1.07125 1.08851 1.16523 1.19909 1.31006
[...]
 0.72493 0.81951 0.84037 0.90240 1.03198 1.04179 1.07625 1.14025 1.19484 1.33620
 1.37444 1.41343 1.50910 1.64778 1.80752 2.31821
 == 165-th k-point (0.00000,0.20411,0.20411) occupation: 14==
 -64.99594 -64.99594 -4.62558 -4.62554 -3.03722 -3.03722 -3.03714 -3.03661 -3.03656 -3.03652
 -0.12923 0.13994 0.18772 0.25693 0.39374 0.41295 0.42717 0.49635 0.55935 0.65478
 0.70590 0.78601 0.84898 0.96487 1.00381 1.02226 1.11062 1.20237 1.24530 1.35835
 1.38098 1.45356 1.54688 1.65908 1.89207 2.10507
 == 166-th k-point (0.10205,0.30616,0.10205) occupation: 14==
 -64.99595 -64.99594 -4.62561 -4.62555 -3.03724 -3.03723 -3.03710 -3.03664 -3.03653 -3.03652
 -0.11640 0.11315 0.20355 0.21233 0.35467 0.43355 0.46051 0.47332 0.63838 0.65195
 0.72493 0.81951 0.84037 0.90240 1.03198 1.04179 1.07625 1.14025 1.19484 1.33620
 1.37444 1.41343 1.50910 1.64778 1.80752 2.31821
 == 167-th k-point (0.20411,0.40822,0.00000) occupation: 14==
 -64.99594 -64.99594 -4.62563 -4.62559 -3.03726 -3.03725 -3.03702 -3.03671 -3.03651 -3.03649
 -0.07999 0.06862 0.14432 0.19194 0.38817 0.42519 0.44024 0.54920 0.64580 0.66596
 0.78511 0.83189 0.85009 0.88623 1.00174 1.03580 1.06424 1.10600 1.21424 1.22865
 1.31877 1.36742 1.42138 1.55309 2.04924 2.07305
 == 168-th k-point (-0.20411,-0.20411,0.61232) occupation: 14==
 -64.99595 -64.99594 -4.62562 -4.62561 -3.03725 -3.03724 -3.03699 -3.03676 -3.03651 -3.03648
 -0.04397 0.02693 0.11284 0.19835 0.34056 0.50754 0.52350 0.55040 0.55540 0.60364
 0.84831 0.90079 0.93172 0.93288 0.94172 0.97688 1.03697 1.07707 1.20642 1.24715
 1.26422 1.26518 1.45612 1.68415 1.70666 2.27247
 == 169-th k-point (-0.10205,-0.10205,0.51027) occupation: 14==
 -64.99595 -64.99594 -4.62565 -4.62561 -3.03726 -3.03726 -3.03696 -3.03678 -3.03649 -3.03648
 -0.05136 0.03453 0.14193 0.18172 0.32152 0.38443 0.56411 0.56548 0.68698 0.70839
 0.76738 0.77569 0.88467 0.93293 0.93969 1.02859 1.09279 1.11834 1.13931 1.24936
 1.26388 1.28318 1.38334 1.51648 1.77767 2.31731
 == 170-th k-point (0.00000,0.00000,0.40822) occupation: 14==
 -64.99594 -64.99594 -4.62565 -4.62557 -3.03725 -3.03725 -3.03703 -3.03670 -3.03651 -3.03651
 -0.09424 0.09211 0.18699 0.18699 0.30787 0.35943 0.55651 0.55651 0.66086 0.67571
 0.77721 0.82283 0.82283 0.94084 0.95225 1.04464 1.04654 1.04654 1.21720 1.32684
 1.32684 1.34952 1.50028 1.54212 1.93801 1.93801
 == 171-th k-point (0.10205,0.10205,0.30616) occupation: 14==
 -64.99595 -64.99594 -4.62561 -4.62555 -3.03724 -3.03723 -3.03710 -3.03664 -3.03653 -3.03652
 -0.11640 0.11315 0.20355 0.21233 0.35467 0.43355 0.46051 0.47332 0.63838 0.65195
 0.72493 0.81951 0.84037 0.90240 1.03198 1.04179 1.07625 1.14025 1.19484 1.33620
 1.37444 1.41343 1.50910 1.64778 1.80752 2.31821
 == 172-th k-point (0.20411,0.20411,0.20411) occupation: 14==
 -64.99595 -64.99594 -4.62559 -4.62553 -3.03723 -3.03723 -3.03713 -3.03661 -3.03653 -3.03653
 -0.11353 0.07959 0.24019 0.24019 0.34626 0.41450 0.41450 0.58249 0.62003 0.62003
 0.69257 0.80882 0.86964 0.86964 0.95310 1.11359 1.11359 1.21399 1.28693 1.28693
 1.29346 1.47673 1.47673 1.63713 1.63713 2.51757
 == 173-th k-point (0.30616,0.30616,0.10205) occupation: 14==
 -64.99595 -64.99594 -4.62560 -4.62558 -3.03724 -3.03724 -3.03708 -3.03667 -3.03653 -3.03650
 -0.08668 0.05480 0.16400 0.22901 0.37327 0.43752 0.44218 0.55619 0.59373 0.65762
 0.77418 0.79967 0.85746 0.90890 0.94312 1.07125 1.08851 1.16523 1.19909 1.31006
 1.35619 1.41319 1.43759 1.59263 1.87667 2.43035
 == 174-th k-point (-0.10205,-0.30616,0.71438) occupation: 14==
 -64.99595 -64.99594 -4.62563 -4.62561 -3.03726 -3.03726 -3.03697 -3.03677 -3.03650 -3.03648
 -0.04359 0.02411 0.12801 0.17440 0.40911 0.41477 0.51632 0.52613 0.57266 0.71637
 0.76291 0.85349 0.92335 0.95576 0.95599 1.02802 1.05886 1.10585 1.12189 1.18093
 1.27483 1.32450 1.44320 1.53041 1.83397 2.06925
 == 175-th k-point (0.00000,-0.20411,0.61232) occupation: 14==
 -64.99594 -64.99594 -4.62563 -4.62563 -3.03727 -3.03727 -3.03687 -3.03687 -3.03648 -3.03648
 -0.00718 -0.00718 0.14143 0.14143 0.38513 0.38513 0.53743 0.53743 0.68790 0.68790
 0.79540 0.79540 0.93254 0.93254 0.99708 0.99708 1.09016 1.09016 1.12996 1.12996
 1.25345 1.25345 1.43331 1.43331 1.91357 1.91357
 == 176-th k-point (0.10205,-0.10205,0.51027) occupation: 14==
 -64.99595 -64.99594 -4.62565 -4.62561 -3.03726 -3.03726 -3.03696 -3.03678 -3.03649 -3.03648
 -0.05136 0.03453 0.14193 0.18172 0.32152 0.38443 0.56411 0.56548 0.68698 0.70839
 0.76738 0.77569 0.88467 0.93293 0.93969 1.02859 1.09279 1.11834 1.13931 1.24936
 1.26388 1.28318 1.38334 1.51648 1.77767 2.31731
 == 177-th k-point (0.20411,0.00000,0.40822) occupation: 14==
 -64.99594 -64.99594 -4.62563 -4.62559 -3.03726 -3.03725 -3.03702 -3.03671 -3.03651 -3.03649
 -0.07999 0.06862 0.14432 0.19194 0.38817 0.42519 0.44024 0.54920 0.64580 0.66596
 0.78511 0.83189 0.85009 0.88623 1.00174 1.03580 1.06424 1.10600 1.21424 1.22865
 1.31877 1.36742 1.42138 1.55309 2.04924 2.07305
 == 178-th k-point (0.30616,0.10205,0.30616) occupation: 14==
 -64.99595 -64.99594 -4.62560 -4.62558 -3.03724 -3.03724 -3.03708 -3.03667 -3.03653 -3.03650
 -0.08668 0.05480 0.16400 0.22901 0.37327 0.43752 0.44218 0.55619 0.59373 0.65762
 0.77418 0.79967 0.85746 0.90890 0.94312 1.07125 1.08851 1.16523 1.19909 1.31006
 1.35619 1.41319 1.43759 1.59263 1.87667 2.43035
 == 179-th k-point (0.40822,0.20411,0.20411) occupation: 14==
 -64.99595 -64.99594 -4.62561 -4.62559 -3.03725 -3.03725 -3.03705 -3.03669 -3.03651 -3.03650
 -0.07248 0.03250 0.17416 0.21092 0.35814 0.43646 0.45786 0.52769 0.66272 0.70322
 0.75962 0.76841 0.81342 0.91438 0.99000 1.09925 1.10641 1.11905 1.17561 1.22410
 1.38405 1.38718 1.40908 1.63063 1.69264 2.59491
 == 180-th k-point (-0.71438,0.30616,0.30616) occupation: 14==
 -64.99595 -64.99594 -4.62560 -4.62558 -3.03724 -3.03724 -3.03708 -3.03667 -3.03653 -3.03650
 -0.08668 0.05480 0.16400 0.22901 0.37327 0.43752 0.44218 0.55619 0.59373 0.65762
 0.77418 0.79967 0.85746 0.90890 0.94312 1.07125 1.08851 1.16523 1.19909 1.31006
 1.35619 1.41319 1.43759 1.59263 1.87667 2.43035
 == 181-th k-point (-0.61232,0.40822,0.20411) occupation: 14==
 -64.99594 -64.99594 -4.62563 -4.62559 -3.03726 -3.03725 -3.03702 -3.03671 -3.03651 -3.03649
 -0.07999 0.06862 0.14432 0.19194 0.38817 0.42519 0.44024 0.54920 0.64580 0.66596
 0.78511 0.83189 0.85009 0.88623 1.00174 1.03580 1.06424 1.10600 1.21424 1.22865
 1.31877 1.36742 1.42138 1.55309 2.04924 2.07305
 == 182-th k-point (-0.51027,0.51027,0.10205) occupation: 14==
 -64.99595 -64.99594 -4.62565 -4.62561 -3.03726 -3.03726 -3.03696 -3.03678 -3.03649 -3.03648
 -0.05136 0.03453 0.14193 0.18172 0.32152 0.38443 0.56411 0.56548 0.68698 0.70839
 0.76738 0.77569 0.88467 0.93293 0.93969 1.02859 1.09279 1.11834 1.13931 1.24936
 1.26388 1.28318 1.38334 1.51648 1.77767 2.31731
 == 183-th k-point (-0.40822,0.61232,-0.00000) occupation: 14==
 -64.99594 -64.99594 -4.62563 -4.62563 -3.03727 -3.03727 -3.03687 -3.03687 -3.03648 -3.03648
 -0.00718 -0.00718 0.14143 0.14143 0.38513 0.38513 0.53743 0.53743 0.68790 0.68790
 0.79540 0.79540 0.93254 0.93254 0.99708 0.99708 1.09016 1.09016 1.12996 1.12996
 1.25345 1.25345 1.43331 1.43331 1.91357 1.91357
 == 184-th k-point (-0.30616,0.71438,-0.10205) occupation: 14==
 -64.99595 -64.99594 -4.62563 -4.62561 -3.03726 -3.03726 -3.03697 -3.03677 -3.03650 -3.03648
 -0.04359 0.02411 0.12801 0.17440 0.40911 0.41477 0.51632 0.52613 0.57266 0.71637
 0.76291 0.85349 0.92335 0.95576 0.95599 1.02802 1.05886 1.10585 1.12189 1.18093
 1.27483 1.32450 1.44320 1.53041 1.83397 2.06925
 == 185-th k-point (-0.20411,0.81643,-0.20411) occupation: 14==
 -64.99595 -64.99594 -4.62561 -4.62559 -3.03725 -3.03725 -3.03705 -3.03669 -3.03651 -3.03650
 -0.07248 0.03250 0.17416 0.21092 0.35814 0.43646 0.45786 0.52769 0.66272 0.70322
 0.75962 0.76841 0.81342 0.91438 0.99000 1.09925 1.10641 1.11905 1.17561 1.22410
 1.38405 1.38718 1.40908 1.63063 1.69264 2.59491
 == 186-th k-point (-0.61232,0.20411,0.40822) occupation: 14==
 -64.99594 -64.99594 -4.62563 -4.62559 -3.03726 -3.03725 -3.03702 -3.03671 -3.03651 -3.03649
 -0.07999 0.06862 0.14432 0.19194 0.38817 0.42519 0.44024 0.54920 0.64580 0.66596
 0.78511 0.83189 0.85009 0.88623 1.00174 1.03580 1.06424 1.10600 1.21424 1.22865
 1.31877 1.36742 1.42138 1.55309 2.04924 2.07305
 == 187-th k-point (-0.51027,0.30616,0.30616) occupation: 14==
 -64.99595 -64.99594 -4.62560 -4.62558 -3.03724 -3.03724 -3.03708 -3.03667 -3.03653 -3.03650
 -0.08668 0.05480 0.16400 0.22901 0.37327 0.43752 0.44218 0.55619 0.59373 0.65762
 0.77418 0.79967 0.85746 0.90890 0.94312 1.07125 1.08851 1.16523 1.19909 1.31006
 1.35619 1.41319 1.43759 1.59263 1.87667 2.43035
 == 188-th k-point (-0.40822,0.40822,0.20411) occupation: 14==
 -64.99595 -64.99594 -4.62561 -4.62559 -3.03725 -3.03725 -3.03705 -3.03669 -3.03651 -3.03650
 -0.07248 0.03250 0.17416 0.21092 0.35814 0.43646 0.45786 0.52769 0.66272 0.70322
 0.75962 0.76841 0.81342 0.91438 0.99000 1.09925 1.10641 1.11905 1.17561 1.22410
 1.38405 1.38718 1.40908 1.63063 1.69264 2.59491
 == 189-th k-point (-0.30616,0.51027,0.10205) occupation: 14==
 -64.99595 -64.99594 -4.62563 -4.62561 -3.03726 -3.03726 -3.03697 -3.03677 -3.03650 -3.03648
 -0.04359 0.02411 0.12801 0.17440 0.40911 0.41477 0.51632 0.52613 0.57266 0.71637
 0.76291 0.85349 0.92335 0.95576 0.95599 1.02802 1.05886 1.10585 1.12189 1.18093
 1.27483 1.32450 1.44320 1.53041 1.83397 2.06925
 == 190-th k-point (-0.20411,0.61232,0.00000) occupation: 14==
 -64.99594 -64.99594 -4.62563 -4.62563 -3.03727 -3.03727 -3.03687 -3.03687 -3.03648 -3.03648
 -0.00718 -0.00718 0.14143 0.14143 0.38513 0.38513 0.53743 0.53743 0.68790 0.68790
 0.79540 0.79540 0.93254 0.93254 0.99708 0.99708 1.09016 1.09016 1.12996 1.12996
 1.25345 1.25345 1.43331 1.43331 1.91357 1.91357
 == 191-th k-point (-0.10205,0.71438,-0.10205) occupation: 14==
 -64.99595 -64.99594 -4.62565 -4.62561 -3.03726 -3.03726 -3.03696 -3.03678 -3.03649 -3.03648
 -0.05136 0.03453 0.14193 0.18172 0.32152 0.38443 0.56411 0.56548 0.68698 0.70839
 0.76738 0.77569 0.88467 0.93293 0.93969 1.02859 1.09279 1.11834 1.13931 1.24936
 1.26388 1.28318 1.38334 1.51648 1.77767 2.31731
 == 192-th k-point (-0.51027,0.10205,0.51027) occupation: 14==
 -64.99595 -64.99594 -4.62565 -4.62561 -3.03726 -3.03726 -3.03696 -3.03678 -3.03649 -3.03648
 -0.05136 0.03453 0.14193 0.18172 0.32152 0.38443 0.56411 0.56548 0.68698 0.70839
 0.76738 0.77569 0.88467 0.93293 0.93969 1.02859 1.09279 1.11834 1.13931 1.24936
 1.26388 1.28318 1.38334 1.51648 1.77767 2.31731
 == 193-th k-point (-0.40822,0.20411,0.40822) occupation: 14==
 -64.99595 -64.99594 -4.62561 -4.62559 -3.03725 -3.03725 -3.03705 -3.03669 -3.03651 -3.03650
 -0.07248 0.03250 0.17416 0.21092 0.35814 0.43646 0.45786 0.52769 0.66272 0.70322
 0.75962 0.76841 0.81342 0.91438 0.99000 1.09925 1.10641 1.11905 1.17561 1.22410
 1.38405 1.38718 1.40908 1.63063 1.69264 2.59491
 == 194-th k-point (-0.30616,0.30616,0.30616) occupation: 14==
 -64.99595 -64.99594 -4.62562 -4.62559 -3.03724 -3.03724 -3.03709 -3.03664 -3.03651 -3.03651
 -0.07830 0.01879 0.23241 0.23241 0.33816 0.40903 0.40903 0.59961 0.70489 0.70489
 0.71597 0.75918 0.75918 0.79185 1.04872 1.05857 1.18882 1.18882 1.23382 1.23382
 1.31281 1.48646 1.48646 1.50316 1.50316 2.61678
 == 195-th k-point (-0.20411,0.40822,0.20411) occupation: 14==
 -64.99595 -64.99594 -4.62561 -4.62559 -3.03725 -3.03725 -3.03705 -3.03669 -3.03651 -3.03650
 -0.07248 0.03250 0.17416 0.21092 0.35814 0.43646 0.45786 0.52769 0.66272 0.70322
 0.75962 0.76841 0.81342 0.91438 0.99000 1.09925 1.10641 1.11905 1.17561 1.22410
 1.38405 1.38718 1.40908 1.63063 1.69264 2.59491
 == 196-th k-point (-0.10205,0.51027,0.10205) occupation: 14==
 -64.99595 -64.99594 -4.62565 -4.62561 -3.03726 -3.03726 -3.03696 -3.03678 -3.03649 -3.03648
 -0.05136 0.03453 0.14193 0.18172 0.32152 0.38443 0.56411 0.56548 0.68698 0.70839
 0.76738 0.77569 0.88467 0.93293 0.93969 1.02859 1.09279 1.11834 1.13931 1.24936
 1.26388 1.28318 1.38334 1.51648 1.77767 2.31731
 == 197-th k-point (0.00000,0.61232,0.00000) occupation: 14==
 -64.99594 -64.99594 -4.62564 -4.62564 -3.03726 -3.03726 -3.03687 -3.03687 -3.03649 -3.03649
 -0.01176 -0.01176 0.17046 0.17046 0.30853 0.30853 0.65535 0.65535 0.72464 0.72464
 0.77118 0.77118 0.78839 0.78839 1.03939 1.03939 1.13321 1.13321 1.18534 1.18534
 1.25053 1.25053 1.42297 1.42297 1.92019 1.92019
 == 198-th k-point (-0.40822,0.00000,0.61232) occupation: 14==
 -64.99594 -64.99594 -4.62563 -4.62563 -3.03727 -3.03727 -3.03687 -3.03687 -3.03648 -3.03648
 -0.00718 -0.00718 0.14143 0.14143 0.38513 0.38513 0.53743 0.53743 0.68790 0.68790
 0.79540 0.79540 0.93254 0.93254 0.99708 0.99708 1.09016 1.09016 1.12996 1.12996
 1.25345 1.25345 1.43331 1.43331 1.91357 1.91357
 == 199-th k-point (-0.30616,0.10205,0.51027) occupation: 14==
 -64.99595 -64.99594 -4.62563 -4.62561 -3.03726 -3.03726 -3.03697 -3.03677 -3.03650 -3.03648
 -0.04359 0.02411 0.12801 0.17440 0.40911 0.41477 0.51632 0.52613 0.57266 0.71637
 0.76291 0.85349 0.92335 0.95576 0.95599 1.02802 1.05886 1.10585 1.12189 1.18093
 1.27483 1.32450 1.44320 1.53041 1.83397 2.06925
 == 200-th k-point (-0.20411,0.20411,0.40822) occupation: 14==
 -64.99595 -64.99594 -4.62561 -4.62559 -3.03725 -3.03725 -3.03705 -3.03669 -3.03651 -3.03650
 -0.07248 0.03250 0.17416 0.21092 0.35814 0.43646 0.45786 0.52769 0.66272 0.70322
 0.75962 0.76841 0.81342 0.91438 0.99000 1.09925 1.10641 1.11905 1.17561 1.22410
 1.38405 1.38718 1.40908 1.63063 1.69264 2.59491
 == 201-th k-point (-0.10205,0.30616,0.30616) occupation: 14==
 -64.99595 -64.99594 -4.62560 -4.62558 -3.03724 -3.03724 -3.03708 -3.03667 -3.03653 -3.03650
 -0.08668 0.05480 0.16400 0.22901 0.37327 0.43752 0.44218 0.55619 0.59373 0.65762
 0.77418 0.79967 0.85746 0.90890 0.94312 1.07125 1.08851 1.16523 1.19909 1.31006
 1.35619 1.41319 1.43759 1.59263 1.87667 2.43035
 == 202-th k-point (0.00000,0.40822,0.20411) occupation: 14==
 -64.99594 -64.99594 -4.62563 -4.62559 -3.03726 -3.03725 -3.03702 -3.03671 -3.03651 -3.03649
 -0.07999 0.06862 0.14432 0.19194 0.38817 0.42519 0.44024 0.54920 0.64580 0.66596
 0.78511 0.83189 0.85009 0.88623 1.00174 1.03580 1.06424 1.10600 1.21424 1.22865
 1.31877 1.36742 1.42138 1.55309 2.04924 2.07305
 == 203-th k-point (0.10205,0.51027,0.10205) occupation: 14==
 -64.99595 -64.99594 -4.62565 -4.62561 -3.03726 -3.03726 -3.03696 -3.03678 -3.03649 -3.03648
 -0.05136 0.03453 0.14193 0.18172 0.32152 0.38443 0.56411 0.56548 0.68698 0.70839
 0.76738 0.77569 0.88467 0.93293 0.93969 1.02859 1.09279 1.11834 1.13931 1.24936
 1.26388 1.28318 1.38334 1.51648 1.77767 2.31731
 == 204-th k-point (-0.30616,-0.10205,0.71438) occupation: 14==
 -64.99595 -64.99594 -4.62563 -4.62561 -3.03726 -3.03726 -3.03697 -3.03677 -3.03650 -3.03648
 -0.04359 0.02411 0.12801 0.17440 0.40911 0.41477 0.51632 0.52613 0.57266 0.71637
 0.76291 0.85349 0.92335 0.95576 0.95599 1.02802 1.05886 1.10585 1.12189 1.18093
 1.27483 1.32450 1.44320 1.53041 1.83397 2.06925
 == 205-th k-point (-0.20411,0.00000,0.61232) occupation: 14==
 -64.99594 -64.99594 -4.62563 -4.62563 -3.03727 -3.03727 -3.03687 -3.03687 -3.03648 -3.03648
 -0.00718 -0.00718 0.14143 0.14143 0.38513 0.38513 0.53743 0.53743 0.68790 0.68790
 0.79540 0.79540 0.93254 0.93254 0.99708 0.99708 1.09016 1.09016 1.12996 1.12996
 1.25345 1.25345 1.43331 1.43331 1.91357 1.91357
 == 206-th k-point (-0.10205,0.10205,0.51027) occupation: 14==
 -64.99595 -64.99594 -4.62565 -4.62561 -3.03726 -3.03726 -3.03696 -3.03678 -3.03649 -3.03648
 -0.05136 0.03453 0.14193 0.18172 0.32152 0.38443 0.56411 0.56548 0.68698 0.70839
 0.76738 0.77569 0.88467 0.93293 0.93969 1.02859 1.09279 1.11834 1.13931 1.24936
 1.26388 1.28318 1.38334 1.51648 1.77767 2.31731
 == 207-th k-point (0.00000,0.20411,0.40822) occupation: 14==
 -64.99594 -64.99594 -4.62563 -4.62559 -3.03726 -3.03725 -3.03702 -3.03671 -3.03651 -3.03649
 -0.07999 0.06862 0.14432 0.19194 0.38817 0.42519 0.44024 0.54920 0.64580 0.66596
 0.78511 0.83189 0.85009 0.88623 1.00174 1.03580 1.06424 1.10600 1.21424 1.22865
 1.31877 1.36742 1.42138 1.55309 2.04924 2.07305
 == 208-th k-point (0.10205,0.30616,0.30616) occupation: 14==
 -64.99595 -64.99594 -4.62560 -4.62558 -3.03724 -3.03724 -3.03708 -3.03667 -3.03653 -3.03650
 -0.08668 0.05480 0.16400 0.22901 0.37327 0.43752 0.44218 0.55619 0.59373 0.65762
 0.77418 0.79967 0.85746 0.90890 0.94312 1.07125 1.08851 1.16523 1.19909 1.31006
 1.35619 1.41319 1.43759 1.59263 1.87667 2.43035
 == 209-th k-point (0.20411,0.40822,0.20411) occupation: 14==
 -64.99595 -64.99594 -4.62561 -4.62559 -3.03725 -3.03725 -3.03705 -3.03669 -3.03651 -3.03650
 -0.07248 0.03250 0.17416 0.21092 0.35814 0.43646 0.45786 0.52769 0.66272 0.70322
 0.75962 0.76841 0.81342 0.91438 0.99000 1.09925 1.10641 1.11905 1.17561 1.22410
 1.38405 1.38718 1.40908 1.63063 1.69264 2.59491
 == 210-th k-point (-0.20411,-0.20411,0.81643) occupation: 14==
 -64.99595 -64.99594 -4.62561 -4.62559 -3.03725 -3.03725 -3.03705 -3.03669 -3.03651 -3.03650
 -0.07248 0.03250 0.17416 0.21092 0.35814 0.43646 0.45786 0.52769 0.66272 0.70322
 0.75962 0.76841 0.81342 0.91438 0.99000 1.09925 1.10641 1.11905 1.17561 1.22410
 1.38405 1.38718 1.40908 1.63063 1.69264 2.59491
 == 211-th k-point (-0.10205,-0.10205,0.71438) occupation: 14==
 -64.99595 -64.99594 -4.62565 -4.62561 -3.03726 -3.03726 -3.03696 -3.03678 -3.03649 -3.03648
 -0.05136 0.03453 0.14193 0.18172 0.32152 0.38443 0.56411 0.56548 0.68698 0.70839
 0.76738 0.77569 0.88467 0.93293 0.93969 1.02859 1.09279 1.11834 1.13931 1.24936
 1.26388 1.28318 1.38334 1.51648 1.77767 2.31731
 == 212-th k-point (0.00000,0.00000,0.61232) occupation: 14==
 -64.99594 -64.99594 -4.62564 -4.62564 -3.03726 -3.03726 -3.03687 -3.03687 -3.03649 -3.03649
 -0.01176 -0.01176 0.17046 0.17046 0.30853 0.30853 0.65535 0.65535 0.72464 0.72464
 0.77118 0.77118 0.78839 0.78839 1.03939 1.03939 1.13321 1.13321 1.18534 1.18534
 1.25053 1.25053 1.42297 1.42297 1.92019 1.92019
 == 213-th k-point (0.10205,0.10205,0.51027) occupation: 14==
 -64.99595 -64.99594 -4.62565 -4.62561 -3.03726 -3.03726 -3.03696 -3.03678 -3.03649 -3.03648
 -0.05136 0.03453 0.14193 0.18172 0.32152 0.38443 0.56411 0.56548 0.68698 0.70839
 0.76738 0.77569 0.88467 0.93293 0.93969 1.02859 1.09279 1.11834 1.13931 1.24936
 1.26388 1.28318 1.38334 1.51648 1.77767 2.31731
 == 214-th k-point (0.20411,0.20411,0.40822) occupation: 14==
 -64.99595 -64.99594 -4.62561 -4.62559 -3.03725 -3.03725 -3.03705 -3.03669 -3.03651 -3.03650
 -0.07248 0.03250 0.17416 0.21092 0.35814 0.43646 0.45786 0.52769 0.66272 0.70322
 0.75962 0.76841 0.81342 0.91438 0.99000 1.09925 1.10641 1.11905 1.17561 1.22410
 1.38405 1.38718 1.40908 1.63063 1.69264 2.59491
 == 215-th k-point (0.30616,0.30616,0.30616) occupation: 14==
 -64.99595 -64.99594 -4.62562 -4.62559 -3.03724 -3.03724 -3.03709 -3.03664 -3.03651 -3.03651
 -0.07830 0.01879 0.23241 0.23241 0.33816 0.40903 0.40903 0.59961 0.70489 0.70489
 0.71597 0.75918 0.75918 0.79185 1.04872 1.05857 1.18882 1.18882 1.23382 1.23382
 1.31281 1.48646 1.48646 1.50316 1.50316 2.61678
 ---------------------------------------------------------------------------
 VBM is at 86-th k-point with 7.59333 eV
 CBM is at 2-th k-point with 8.37749 eV
 Band gap is 0.78416 eV


           Ground-State Mulliken Net Atomic Charges

      Atom                 Charge (a.u.)          Spin (a.u.)
   --------------------------------------------------------
      1 Si              (-0.000000,-0.000000)    (0.000000,0.000000)
      2 Si                (0.000000,0.000000)    (0.000000,0.000000)
   --------------------------------------------------------
  Sum of atomic charges =      (0.000000,-0.000000)
  Sum of spin   charges =       (0.000000,0.000000)



 Total job time:  34.85 s.
 Tue Sep  9 11:02:34 2025


        *************************************************************
        *                                                           *
        *  Thank you very much for using QCPBC. Have a nice day.    *
        *                                                           *
        *************************************************************

Running job 1 of 1
