                  Welcome to Q-Chem
           with Periodic Boundary Condition
     A Quantum Leap Into The Future Of Chemistry

 Adam Rettig, Xintian Feng, Meng-Fu Chen, Hieu Dinh, Stephen Quiton,
 Anton Ni, Paul J. Robinson, Jinghong Zhang, Joonho Lee

Contributors to earlier versions of Q-Chem not listed above:
 Evgeny Epifanovsky, Leo Cunha, Jerome F. Gonthier, Kuan-Yu Liu
 Input file: /n/netscratch/joonholee_lab/Lab/hieudinh//si_2_ccpvdz_omega_0.9_888.scratch20250909110945/si_2_ccpvdz_omega_0.9_888.0
 Scratch folder: /n/netscratch/joonholee_lab/Lab/hieudinh//si_2_ccpvdz_omega_0.9_888.scratch20250909110945
 Auxillary files located at: /n/holylabs/LABS/joonholee_lab/Lab/qchem_base/qcaux
 Q-Chem begins on Tue Sep  9 11:09:46 2025

 -------------------------------------------------------------
 User input:
 -------------------------------------------------------------
 $lattice
 3
 0.000000 5.130600 5.130600
 5.130600 0.000000 5.130600
 5.130600 5.130600 0.000000
 $end
 
 $unitcell
 ABSOLUTE
 0 1
 Si 0.000000 0.000000 0.000000
 Si 2.565300 2.565300 2.565300
 $end
 
 $rem
 jobtype = sp
 method = pbe
 scf_convergence = 5
 scf_guess = autosad
 scf_algorithm = diis_gdm
 basis = cc-pvdz
 aux_basis = cc-pvtz-jk
 input_bohr = true
 symmetry = false
 rsdf_print_level 1
 is_basis_uctr true
 
 mp_mesh = [8,8,8]
 
 integral_direct true
 bvk_cgto true
 
 thresh 14
 mem_total 1000000
 threads 32
 
 MAX_SCF_CYCLES 500
 madelung = false
 omega 0.9
 do_rij_bigmem true
 automate_g true
 print_level 10
 grid_type_xc 1
 
 thresh_1e2c_sp 1e-14
 thresh_2e3c_bra_ket_sep 1e-10
 thresh_g 1e-12
 $end
 
 -------------------------------------------------------------
 Running PBC job

 Requested Exchange Correlation Functionals: 
  DFT Exchange:  1.00000 pbe_x
  DFT Correlation:  1.00000 pbe_c
 using 32 threads for computing.
 ---------------------------------------------------------------
      Coordinates of Atoms in Central Unit Cell (Angstroms)
    I     Atom         X            Y            Z
 ---------------------------------------------------------------
    1      Si      0.000000     0.000000     0.000000
    2      Si      1.357498     1.357498     1.357498
 ---------------------------------------------------------------
 --------------------------------------------------
              Lattice Vectors (Angstroms)
              X            Y            Z
 --------------------------------------------------
   X       0.000000     2.714997     2.714997
   Y       2.714997     0.000000     2.714997
   Z       2.714997     2.714997     0.000000
 --------------------------------------------------
 --------------------------------------------------
       Reciprocal Lattice Vectors (Angstroms^-1)
              X            Y            Z
 --------------------------------------------------
   X      -1.157126     1.157126     1.157126
   Y       1.157126    -1.157126     1.157126
   Z       1.157126     1.157126    -1.157126
 --------------------------------------------------

 Single point calculation requested

 Hamiltonian contributions:
 List of terms in Hamiltonian: kpts_nn, kpts_kinetic, kpts_vnuc_df, kpts_xc, kpts_rij_bigmem

 K-Points calculation started.

 Basis set information about using solid harmonic (1) or Cartesian (0):
  si : D(1) 

 Basis set information about using solid harmonic (1) or Cartesian (0):
  si : D(1) D(1) D(1) D(1) D(1) D(1) D(1) D(1) D(1) F(1) F(1) F(1) G(1) 

 There are 36 basis functions in the central unit cell.
 Print atomic basis of atoms in the central unit cell:
 -------------------------------------------------------------
2 84 84 16

  0.00000000000000e+00  0.00000000000000e+00  0.00000000000000e+00
  2.56530000000000e+00  2.56530000000000e+00  2.56530000000000e+00

  7.88600000000000e+04
  1.18200000000000e+04
  2.69200000000000e+03
  7.63400000000000e+02
  2.49600000000000e+02
  9.02800000000000e+01
  3.52900000000000e+01
  1.45100000000000e+01
  4.05300000000000e+00
  7.88600000000000e+04
  1.18200000000000e+04
  2.69200000000000e+03
  2.49600000000000e+02
  9.02800000000000e+01
  3.52900000000000e+01
  1.45100000000000e+01
  4.05300000000000e+00
  1.48200000000000e+00
  7.88600000000000e+04
  1.18200000000000e+04
  2.69200000000000e+03
  9.02800000000000e+01
  3.52900000000000e+01
  1.45100000000000e+01
  4.05300000000000e+00
  1.48200000000000e+00
  2.51700000000000e-01
  9.24300000000000e-02
  3.15900000000000e+02
  7.44200000000000e+01
  2.34800000000000e+01
  8.48800000000000e+00
  3.21700000000000e+00
  1.22900000000000e+00
  7.44200000000000e+01
  2.34800000000000e+01
  8.48800000000000e+00
  3.21700000000000e+00
  1.22900000000000e+00
  2.96400000000000e-01
  8.76800000000000e-02
  2.75000000000000e-01
  7.88600000000000e+04
  1.18200000000000e+04
  2.69200000000000e+03
  7.63400000000000e+02
  2.49600000000000e+02
  9.02800000000000e+01
  3.52900000000000e+01
  1.45100000000000e+01
  4.05300000000000e+00
  7.88600000000000e+04
  1.18200000000000e+04
  2.69200000000000e+03
  2.49600000000000e+02
  9.02800000000000e+01
  3.52900000000000e+01
  1.45100000000000e+01
  4.05300000000000e+00
  1.48200000000000e+00
  7.88600000000000e+04
  1.18200000000000e+04
  2.69200000000000e+03
  9.02800000000000e+01
  3.52900000000000e+01
  1.45100000000000e+01
  4.05300000000000e+00
  1.48200000000000e+00
  2.51700000000000e-01
  9.24300000000000e-02
  3.15900000000000e+02
  7.44200000000000e+01
  2.34800000000000e+01
  8.48800000000000e+00
  3.21700000000000e+00
  1.22900000000000e+00
  7.44200000000000e+01
  2.34800000000000e+01
  8.48800000000000e+00
  3.21700000000000e+00
  1.22900000000000e+00
  2.96400000000000e-01
  8.76800000000000e-02
  2.75000000000000e-01

  9.06253754413352e-01
  1.69293104204437e+00
  2.88765135213002e+00
  4.51686717623273e+00
  6.15495015249549e+00
  6.60292741422250e+00
  4.31307094498082e+00
  1.11211258821928e+00
  3.28871017883051e-02
  1.81811499558714e-03
  7.82084807797983e-03
 -3.64325186414446e-03
 -1.38589915538590e-01
 -3.09231066968474e-01
 -8.37223961363792e-01
 -2.35283994917911e-01
  1.05074974557404e+00
  5.58607098057301e-01
 -3.73189052056138e-04
 -4.34506392374390e-04
 -1.25465717071959e-03
  1.25391036214459e-02
  2.72204657714548e-02
  2.48300227161584e-02
 -1.48880417762021e-01
 -3.39029634838718e-01
  2.96723365521804e-01
  1.19473010431857e-01
  7.49634571599597e+00
  9.36025063316295e+00
  9.42818987380764e+00
  6.66500330898836e+00
  2.81728351118454e+00
  4.95548501763808e-01
  1.33801616421722e-01
 -1.41076498099296e-01
  2.71250274850203e-02
 -2.30271473527780e-01
  1.34383996261684e-01
  3.01514460345638e-01
  6.80089021682769e-02
  1.71886461192366e-01
  9.06253754413352e-01
  1.69293104204437e+00
  2.88765135213002e+00
  4.51686717623273e+00
  6.15495015249549e+00
  6.60292741422250e+00
  4.31307094498082e+00
  1.11211258821928e+00
  3.28871017883051e-02
  1.81811499558714e-03
  7.82084807797983e-03
 -3.64325186414446e-03
 -1.38589915538590e-01
 -3.09231066968474e-01
 -8.37223961363792e-01
 -2.35283994917911e-01
  1.05074974557404e+00
  5.58607098057301e-01
 -3.73189052056138e-04
 -4.34506392374390e-04
 -1.25465717071959e-03
  1.25391036214459e-02
  2.72204657714548e-02
  2.48300227161584e-02
 -1.48880417762021e-01
 -3.39029634838718e-01
  2.96723365521804e-01
  1.19473010431857e-01
  7.49634571599597e+00
  9.36025063316295e+00
  9.42818987380764e+00
  6.66500330898836e+00
  2.81728351118454e+00
  4.95548501763808e-01
  1.33801616421722e-01
 -1.41076498099296e-01
  2.71250274850203e-02
 -2.30271473527780e-01
  1.34383996261684e-01
  3.01514460345638e-01
  6.80089021682769e-02
  1.71886461192366e-01

0 0 0 0 1 1 1
0 0 
9 0

0 1 1 9 1 1 1
9 0 
9 0

0 2 2 18 1 1 1
18 0 
9 0

0 3 3 27 1 1 1
27 0 
1 0

0 4 4 28 1 3 3
28 1 
6 0

0 7 7 34 1 3 3
34 1 
6 0

0 10 10 40 1 3 3
40 1 
1 0

0 13 13 41 1 5 6
41 2 
1 1

1 18 18 42 1 1 1
42 0 
9 0

1 19 19 51 1 1 1
51 0 
9 0

1 20 20 60 1 1 1
60 0 
9 0

1 21 21 69 1 1 1
69 0 
1 0

1 22 22 70 1 3 3
70 1 
6 0

1 25 25 76 1 3 3
76 1 
6 0

1 28 28 82 1 3 3
82 1 
1 0

1 31 31 83 1 5 6
83 2 
1 1

 -------------------------------------------------------------
 Allocate 259112 B from available memory: 1048576000000 B
 There are 1331 image cells after screening.
 There are 1221 image cells for CGTO evaluation after screening.
 Real-Space grid for FFT initialized based on kinetic energy cutoff (eV) = 500.0
 Real-Space grid for FFT: (10,10,10)
 There are 9261 real-space grid points.
 There are 64 batches of real-space grid points. 
 Size of each grid batch is around 128
 Grid for AFT initialized based on kinetic energy cutoff (eV) = 500.0
 Real-Space grid for AFT: (10,10,10)
 There are 9261 real-space grid points.

 There are 5456 atom-centered grid points.

 Spacegroup symmetry group: Fd-3m
 Reducing spacegroup symmetry to symmorphic group: F -4 3 m
 Monkhorst-Pack mesh is [8,8,8]
 There are 512 k points.
kpoints in Bohr
-0.2296217294 -0.2296217294 -0.2296217294
-0.1530811530 -0.1530811530 -0.3061623059
-0.0765405765 -0.0765405765 -0.3827028824
-0.0000000000 -0.0000000000 -0.4592434589
0.0765405765 0.0765405765 -0.5357840354
0.1530811530 0.1530811530 -0.6123246119
0.2296217294 0.2296217294 -0.6888651883
0.3061623059 0.3061623059 -0.7654057648
-0.1530811530 -0.3061623059 -0.1530811530
-0.0765405765 -0.2296217294 -0.2296217294
-0.0000000000 -0.1530811530 -0.3061623059
0.0765405765 -0.0765405765 -0.3827028824
0.1530811530 -0.0000000000 -0.4592434589
0.2296217294 0.0765405765 -0.5357840354
0.3061623059 0.1530811530 -0.6123246119
0.3827028824 0.2296217294 -0.6888651883
-0.0765405765 -0.3827028824 -0.0765405765
-0.0000000000 -0.3061623059 -0.1530811530
0.0765405765 -0.2296217294 -0.2296217294
0.1530811530 -0.1530811530 -0.3061623059
0.2296217294 -0.0765405765 -0.3827028824
0.3061623059 -0.0000000000 -0.4592434589
0.3827028824 0.0765405765 -0.5357840354
0.4592434589 0.1530811530 -0.6123246119
-0.0000000000 -0.4592434589 0.0000000000
0.0765405765 -0.3827028824 -0.0765405765
0.1530811530 -0.3061623059 -0.1530811530
0.2296217294 -0.2296217294 -0.2296217294
0.3061623059 -0.1530811530 -0.3061623059
0.3827028824 -0.0765405765 -0.3827028824
0.4592434589 0.0000000000 -0.4592434589
0.5357840354 0.0765405765 -0.5357840354
0.0765405765 -0.5357840354 0.0765405765
0.1530811530 -0.4592434589 0.0000000000
0.2296217294 -0.3827028824 -0.0765405765
0.3061623059 -0.3061623059 -0.1530811530
0.3827028824 -0.2296217294 -0.2296217294
0.4592434589 -0.1530811530 -0.3061623059
0.5357840354 -0.0765405765 -0.3827028824
0.6123246119 0.0000000000 -0.4592434589
0.1530811530 -0.6123246119 0.1530811530
0.2296217294 -0.5357840354 0.0765405765
0.3061623059 -0.4592434589 0.0000000000
0.3827028824 -0.3827028824 -0.0765405765
0.4592434589 -0.3061623059 -0.1530811530
0.5357840354 -0.2296217294 -0.2296217294
0.6123246119 -0.1530811530 -0.3061623059
0.6888651883 -0.0765405765 -0.3827028824
0.2296217294 -0.6888651883 0.2296217294
0.3061623059 -0.6123246119 0.1530811530
0.3827028824 -0.5357840354 0.0765405765
0.4592434589 -0.4592434589 0.0000000000
0.5357840354 -0.3827028824 -0.0765405765
0.6123246119 -0.3061623059 -0.1530811530
0.6888651883 -0.2296217294 -0.2296217294
0.7654057648 -0.1530811530 -0.3061623059
0.3061623059 -0.7654057648 0.3061623059
0.3827028824 -0.6888651883 0.2296217294
0.4592434589 -0.6123246119 0.1530811530
0.5357840354 -0.5357840354 0.0765405765
0.6123246119 -0.4592434589 0.0000000000
0.6888651883 -0.3827028824 -0.0765405765
0.7654057648 -0.3061623059 -0.1530811530
0.8419463413 -0.2296217294 -0.2296217294
-0.3061623059 -0.1530811530 -0.1530811530
-0.2296217294 -0.0765405765 -0.2296217294
-0.1530811530 -0.0000000000 -0.3061623059
-0.0765405765 0.0765405765 -0.3827028824
-0.0000000000 0.1530811530 -0.4592434589
0.0765405765 0.2296217294 -0.5357840354
0.1530811530 0.3061623059 -0.6123246119
0.2296217294 0.3827028824 -0.6888651883
-0.2296217294 -0.2296217294 -0.0765405765
-0.1530811530 -0.1530811530 -0.1530811530
-0.0765405765 -0.0765405765 -0.2296217294
-0.0000000000 -0.0000000000 -0.3061623059
0.0765405765 0.0765405765 -0.3827028824
0.1530811530 0.1530811530 -0.4592434589
0.2296217294 0.2296217294 -0.5357840354
0.3061623059 0.3061623059 -0.6123246119
-0.1530811530 -0.3061623059 -0.0000000000
-0.0765405765 -0.2296217294 -0.0765405765
-0.0000000000 -0.1530811530 -0.1530811530
0.0765405765 -0.0765405765 -0.2296217294
0.1530811530 -0.0000000000 -0.3061623059
0.2296217294 0.0765405765 -0.3827028824
0.3061623059 0.1530811530 -0.4592434589
0.3827028824 0.2296217294 -0.5357840354
-0.0765405765 -0.3827028824 0.0765405765
-0.0000000000 -0.3061623059 0.0000000000
0.0765405765 -0.2296217294 -0.0765405765
0.1530811530 -0.1530811530 -0.1530811530
0.2296217294 -0.0765405765 -0.2296217294
0.3061623059 0.0000000000 -0.3061623059
0.3827028824 0.0765405765 -0.3827028824
0.4592434589 0.1530811530 -0.4592434589
-0.0000000000 -0.4592434589 0.1530811530
0.0765405765 -0.3827028824 0.0765405765
0.1530811530 -0.3061623059 0.0000000000
0.2296217294 -0.2296217294 -0.0765405765
0.3061623059 -0.1530811530 -0.1530811530
0.3827028824 -0.0765405765 -0.2296217294
0.4592434589 0.0000000000 -0.3061623059
0.5357840354 0.0765405765 -0.3827028824
0.0765405765 -0.5357840354 0.2296217294
0.1530811530 -0.4592434589 0.1530811530
0.2296217294 -0.3827028824 0.0765405765
0.3061623059 -0.3061623059 0.0000000000
0.3827028824 -0.2296217294 -0.0765405765
0.4592434589 -0.1530811530 -0.1530811530
0.5357840354 -0.0765405765 -0.2296217294
0.6123246119 0.0000000000 -0.3061623059
0.1530811530 -0.6123246119 0.3061623059
0.2296217294 -0.5357840354 0.2296217294
0.3061623059 -0.4592434589 0.1530811530
0.3827028824 -0.3827028824 0.0765405765
0.4592434589 -0.3061623059 0.0000000000
0.5357840354 -0.2296217294 -0.0765405765
0.6123246119 -0.1530811530 -0.1530811530
0.6888651883 -0.0765405765 -0.2296217294
0.2296217294 -0.6888651883 0.3827028824
0.3061623059 -0.6123246119 0.3061623059
0.3827028824 -0.5357840354 0.2296217294
0.4592434589 -0.4592434589 0.1530811530
0.5357840354 -0.3827028824 0.0765405765
0.6123246119 -0.3061623059 0.0000000000
0.6888651883 -0.2296217294 -0.0765405765
0.7654057648 -0.1530811530 -0.1530811530
-0.3827028824 -0.0765405765 -0.0765405765
-0.3061623059 -0.0000000000 -0.1530811530
-0.2296217294 0.0765405765 -0.2296217294
-0.1530811530 0.1530811530 -0.3061623059
-0.0765405765 0.2296217294 -0.3827028824
0.0000000000 0.3061623059 -0.4592434589
0.0765405765 0.3827028824 -0.5357840354
0.1530811530 0.4592434589 -0.6123246119
-0.3061623059 -0.1530811530 -0.0000000000
-0.2296217294 -0.0765405765 -0.0765405765
-0.1530811530 -0.0000000000 -0.1530811530
-0.0765405765 0.0765405765 -0.2296217294
-0.0000000000 0.1530811530 -0.3061623059
0.0765405765 0.2296217294 -0.3827028824
0.1530811530 0.3061623059 -0.4592434589
0.2296217294 0.3827028824 -0.5357840354
-0.2296217294 -0.2296217294 0.0765405765
-0.1530811530 -0.1530811530 -0.0000000000
-0.0765405765 -0.0765405765 -0.0765405765
-0.0000000000 -0.0000000000 -0.1530811530
0.0765405765 0.0765405765 -0.2296217294
0.1530811530 0.1530811530 -0.3061623059
0.2296217294 0.2296217294 -0.3827028824
0.3061623059 0.3061623059 -0.4592434589
-0.1530811530 -0.3061623059 0.1530811530
-0.0765405765 -0.2296217294 0.0765405765
-0.0000000000 -0.1530811530 0.0000000000
0.0765405765 -0.0765405765 -0.0765405765
0.1530811530 0.0000000000 -0.1530811530
0.2296217294 0.0765405765 -0.2296217294
0.3061623059 0.1530811530 -0.3061623059
0.3827028824 0.2296217294 -0.3827028824
-0.0765405765 -0.3827028824 0.2296217294
-0.0000000000 -0.3061623059 0.1530811530
0.0765405765 -0.2296217294 0.0765405765
0.1530811530 -0.1530811530 0.0000000000
0.2296217294 -0.0765405765 -0.0765405765
0.3061623059 0.0000000000 -0.1530811530
0.3827028824 0.0765405765 -0.2296217294
0.4592434589 0.1530811530 -0.3061623059
-0.0000000000 -0.4592434589 0.3061623059
0.0765405765 -0.3827028824 0.2296217294
0.1530811530 -0.3061623059 0.1530811530
0.2296217294 -0.2296217294 0.0765405765
0.3061623059 -0.1530811530 0.0000000000
0.3827028824 -0.0765405765 -0.0765405765
0.4592434589 0.0000000000 -0.1530811530
0.5357840354 0.0765405765 -0.2296217294
0.0765405765 -0.5357840354 0.3827028824
0.1530811530 -0.4592434589 0.3061623059
0.2296217294 -0.3827028824 0.2296217294
0.3061623059 -0.3061623059 0.1530811530
0.3827028824 -0.2296217294 0.0765405765
0.4592434589 -0.1530811530 0.0000000000
0.5357840354 -0.0765405765 -0.0765405765
0.6123246119 0.0000000000 -0.1530811530
0.1530811530 -0.6123246119 0.4592434589
0.2296217294 -0.5357840354 0.3827028824
0.3061623059 -0.4592434589 0.3061623059
0.3827028824 -0.3827028824 0.2296217294
0.4592434589 -0.3061623059 0.1530811530
0.5357840354 -0.2296217294 0.0765405765
0.6123246119 -0.1530811530 0.0000000000
0.6888651883 -0.0765405765 -0.0765405765
-0.4592434589 -0.0000000000 -0.0000000000
-0.3827028824 0.0765405765 -0.0765405765
-0.3061623059 0.1530811530 -0.1530811530
-0.2296217294 0.2296217294 -0.2296217294
-0.1530811530 0.3061623059 -0.3061623059
-0.0765405765 0.3827028824 -0.3827028824
0.0000000000 0.4592434589 -0.4592434589
0.0765405765 0.5357840354 -0.5357840354
-0.3827028824 -0.0765405765 0.0765405765
-0.3061623059 -0.0000000000 -0.0000000000
-0.2296217294 0.0765405765 -0.0765405765
-0.1530811530 0.1530811530 -0.1530811530
-0.0765405765 0.2296217294 -0.2296217294
0.0000000000 0.3061623059 -0.3061623059
0.0765405765 0.3827028824 -0.3827028824
0.1530811530 0.4592434589 -0.4592434589
-0.3061623059 -0.1530811530 0.1530811530
-0.2296217294 -0.0765405765 0.0765405765
-0.1530811530 -0.0000000000 -0.0000000000
-0.0765405765 0.0765405765 -0.0765405765
0.0000000000 0.1530811530 -0.1530811530
0.0765405765 0.2296217294 -0.2296217294
0.1530811530 0.3061623059 -0.3061623059
0.2296217294 0.3827028824 -0.3827028824
-0.2296217294 -0.2296217294 0.2296217294
-0.1530811530 -0.1530811530 0.1530811530
-0.0765405765 -0.0765405765 0.0765405765
0.0000000000 0.0000000000 0.0000000000
0.0765405765 0.0765405765 -0.0765405765
0.1530811530 0.1530811530 -0.1530811530
0.2296217294 0.2296217294 -0.2296217294
0.3061623059 0.3061623059 -0.3061623059
-0.1530811530 -0.3061623059 0.3061623059
-0.0765405765 -0.2296217294 0.2296217294
-0.0000000000 -0.1530811530 0.1530811530
0.0765405765 -0.0765405765 0.0765405765
0.1530811530 0.0000000000 0.0000000000
0.2296217294 0.0765405765 -0.0765405765
0.3061623059 0.1530811530 -0.1530811530
0.3827028824 0.2296217294 -0.2296217294
-0.0765405765 -0.3827028824 0.3827028824
-0.0000000000 -0.3061623059 0.3061623059
0.0765405765 -0.2296217294 0.2296217294
0.1530811530 -0.1530811530 0.1530811530
0.2296217294 -0.0765405765 0.0765405765
0.3061623059 0.0000000000 0.0000000000
0.3827028824 0.0765405765 -0.0765405765
0.4592434589 0.1530811530 -0.1530811530
-0.0000000000 -0.4592434589 0.4592434589
0.0765405765 -0.3827028824 0.3827028824
0.1530811530 -0.3061623059 0.3061623059
0.2296217294 -0.2296217294 0.2296217294
0.3061623059 -0.1530811530 0.1530811530
0.3827028824 -0.0765405765 0.0765405765
0.4592434589 0.0000000000 0.0000000000
0.5357840354 0.0765405765 -0.0765405765
0.0765405765 -0.5357840354 0.5357840354
0.1530811530 -0.4592434589 0.4592434589
0.2296217294 -0.3827028824 0.3827028824
0.3061623059 -0.3061623059 0.3061623059
0.3827028824 -0.2296217294 0.2296217294
0.4592434589 -0.1530811530 0.1530811530
0.5357840354 -0.0765405765 0.0765405765
0.6123246119 0.0000000000 0.0000000000
-0.5357840354 0.0765405765 0.0765405765
-0.4592434589 0.1530811530 -0.0000000000
-0.3827028824 0.2296217294 -0.0765405765
-0.3061623059 0.3061623059 -0.1530811530
-0.2296217294 0.3827028824 -0.2296217294
-0.1530811530 0.4592434589 -0.3061623059
-0.0765405765 0.5357840354 -0.3827028824
0.0000000000 0.6123246119 -0.4592434589
-0.4592434589 -0.0000000000 0.1530811530
-0.3827028824 0.0765405765 0.0765405765
-0.3061623059 0.1530811530 -0.0000000000
-0.2296217294 0.2296217294 -0.0765405765
-0.1530811530 0.3061623059 -0.1530811530
-0.0765405765 0.3827028824 -0.2296217294
0.0000000000 0.4592434589 -0.3061623059
0.0765405765 0.5357840354 -0.3827028824
-0.3827028824 -0.0765405765 0.2296217294
-0.3061623059 -0.0000000000 0.1530811530
-0.2296217294 0.0765405765 0.0765405765
-0.1530811530 0.1530811530 -0.0000000000
-0.0765405765 0.2296217294 -0.0765405765
0.0000000000 0.3061623059 -0.1530811530
0.0765405765 0.3827028824 -0.2296217294
0.1530811530 0.4592434589 -0.3061623059
-0.3061623059 -0.1530811530 0.3061623059
-0.2296217294 -0.0765405765 0.2296217294
-0.1530811530 0.0000000000 0.1530811530
-0.0765405765 0.0765405765 0.0765405765
0.0000000000 0.1530811530 0.0000000000
0.0765405765 0.2296217294 -0.0765405765
0.1530811530 0.3061623059 -0.1530811530
0.2296217294 0.3827028824 -0.2296217294
-0.2296217294 -0.2296217294 0.3827028824
-0.1530811530 -0.1530811530 0.3061623059
-0.0765405765 -0.0765405765 0.2296217294
0.0000000000 0.0000000000 0.1530811530
0.0765405765 0.0765405765 0.0765405765
0.1530811530 0.1530811530 0.0000000000
0.2296217294 0.2296217294 -0.0765405765
0.3061623059 0.3061623059 -0.1530811530
-0.1530811530 -0.3061623059 0.4592434589
-0.0765405765 -0.2296217294 0.3827028824
0.0000000000 -0.1530811530 0.3061623059
0.0765405765 -0.0765405765 0.2296217294
0.1530811530 0.0000000000 0.1530811530
0.2296217294 0.0765405765 0.0765405765
0.3061623059 0.1530811530 0.0000000000
0.3827028824 0.2296217294 -0.0765405765
-0.0765405765 -0.3827028824 0.5357840354
0.0000000000 -0.3061623059 0.4592434589
0.0765405765 -0.2296217294 0.3827028824
0.1530811530 -0.1530811530 0.3061623059
0.2296217294 -0.0765405765 0.2296217294
0.3061623059 0.0000000000 0.1530811530
0.3827028824 0.0765405765 0.0765405765
0.4592434589 0.1530811530 0.0000000000
0.0000000000 -0.4592434589 0.6123246119
0.0765405765 -0.3827028824 0.5357840354
0.1530811530 -0.3061623059 0.4592434589
0.2296217294 -0.2296217294 0.3827028824
0.3061623059 -0.1530811530 0.3061623059
0.3827028824 -0.0765405765 0.2296217294
0.4592434589 0.0000000000 0.1530811530
0.5357840354 0.0765405765 0.0765405765
-0.6123246119 0.1530811530 0.1530811530
-0.5357840354 0.2296217294 0.0765405765
-0.4592434589 0.3061623059 -0.0000000000
-0.3827028824 0.3827028824 -0.0765405765
-0.3061623059 0.4592434589 -0.1530811530
-0.2296217294 0.5357840354 -0.2296217294
-0.1530811530 0.6123246119 -0.3061623059
-0.0765405765 0.6888651883 -0.3827028824
-0.5357840354 0.0765405765 0.2296217294
-0.4592434589 0.1530811530 0.1530811530
-0.3827028824 0.2296217294 0.0765405765
-0.3061623059 0.3061623059 -0.0000000000
-0.2296217294 0.3827028824 -0.0765405765
-0.1530811530 0.4592434589 -0.1530811530
-0.0765405765 0.5357840354 -0.2296217294
0.0000000000 0.6123246119 -0.3061623059
-0.4592434589 -0.0000000000 0.3061623059
-0.3827028824 0.0765405765 0.2296217294
-0.3061623059 0.1530811530 0.1530811530
-0.2296217294 0.2296217294 0.0765405765
-0.1530811530 0.3061623059 -0.0000000000
-0.0765405765 0.3827028824 -0.0765405765
0.0000000000 0.4592434589 -0.1530811530
0.0765405765 0.5357840354 -0.2296217294
-0.3827028824 -0.0765405765 0.3827028824
-0.3061623059 0.0000000000 0.3061623059
-0.2296217294 0.0765405765 0.2296217294
-0.1530811530 0.1530811530 0.1530811530
-0.0765405765 0.2296217294 0.0765405765
0.0000000000 0.3061623059 0.0000000000
0.0765405765 0.3827028824 -0.0765405765
0.1530811530 0.4592434589 -0.1530811530
-0.3061623059 -0.1530811530 0.4592434589
-0.2296217294 -0.0765405765 0.3827028824
-0.1530811530 0.0000000000 0.3061623059
-0.0765405765 0.0765405765 0.2296217294
0.0000000000 0.1530811530 0.1530811530
0.0765405765 0.2296217294 0.0765405765
0.1530811530 0.3061623059 0.0000000000
0.2296217294 0.3827028824 -0.0765405765
-0.2296217294 -0.2296217294 0.5357840354
-0.1530811530 -0.1530811530 0.4592434589
-0.0765405765 -0.0765405765 0.3827028824
0.0000000000 0.0000000000 0.3061623059
0.0765405765 0.0765405765 0.2296217294
0.1530811530 0.1530811530 0.1530811530
0.2296217294 0.2296217294 0.0765405765
0.3061623059 0.3061623059 0.0000000000
-0.1530811530 -0.3061623059 0.6123246119
-0.0765405765 -0.2296217294 0.5357840354
0.0000000000 -0.1530811530 0.4592434589
0.0765405765 -0.0765405765 0.3827028824
0.1530811530 0.0000000000 0.3061623059
0.2296217294 0.0765405765 0.2296217294
0.3061623059 0.1530811530 0.1530811530
0.3827028824 0.2296217294 0.0765405765
-0.0765405765 -0.3827028824 0.6888651883
0.0000000000 -0.3061623059 0.6123246119
0.0765405765 -0.2296217294 0.5357840354
0.1530811530 -0.1530811530 0.4592434589
0.2296217294 -0.0765405765 0.3827028824
0.3061623059 0.0000000000 0.3061623059
0.3827028824 0.0765405765 0.2296217294
0.4592434589 0.1530811530 0.1530811530
-0.6888651883 0.2296217294 0.2296217294
-0.6123246119 0.3061623059 0.1530811530
-0.5357840354 0.3827028824 0.0765405765
-0.4592434589 0.4592434589 -0.0000000000
-0.3827028824 0.5357840354 -0.0765405765
-0.3061623059 0.6123246119 -0.1530811530
-0.2296217294 0.6888651883 -0.2296217294
-0.1530811530 0.7654057648 -0.3061623059
-0.6123246119 0.1530811530 0.3061623059
-0.5357840354 0.2296217294 0.2296217294
-0.4592434589 0.3061623059 0.1530811530
-0.3827028824 0.3827028824 0.0765405765
-0.3061623059 0.4592434589 -0.0000000000
-0.2296217294 0.5357840354 -0.0765405765
-0.1530811530 0.6123246119 -0.1530811530
-0.0765405765 0.6888651883 -0.2296217294
-0.5357840354 0.0765405765 0.3827028824
-0.4592434589 0.1530811530 0.3061623059
-0.3827028824 0.2296217294 0.2296217294
-0.3061623059 0.3061623059 0.1530811530
-0.2296217294 0.3827028824 0.0765405765
-0.1530811530 0.4592434589 -0.0000000000
-0.0765405765 0.5357840354 -0.0765405765
0.0000000000 0.6123246119 -0.1530811530
-0.4592434589 0.0000000000 0.4592434589
-0.3827028824 0.0765405765 0.3827028824
-0.3061623059 0.1530811530 0.3061623059
-0.2296217294 0.2296217294 0.2296217294
-0.1530811530 0.3061623059 0.1530811530
-0.0765405765 0.3827028824 0.0765405765
0.0000000000 0.4592434589 0.0000000000
0.0765405765 0.5357840354 -0.0765405765
-0.3827028824 -0.0765405765 0.5357840354
-0.3061623059 0.0000000000 0.4592434589
-0.2296217294 0.0765405765 0.3827028824
-0.1530811530 0.1530811530 0.3061623059
-0.0765405765 0.2296217294 0.2296217294
0.0000000000 0.3061623059 0.1530811530
0.0765405765 0.3827028824 0.0765405765
0.1530811530 0.4592434589 0.0000000000
-0.3061623059 -0.1530811530 0.6123246119
-0.2296217294 -0.0765405765 0.5357840354
-0.1530811530 0.0000000000 0.4592434589
-0.0765405765 0.0765405765 0.3827028824
0.0000000000 0.1530811530 0.3061623059
0.0765405765 0.2296217294 0.2296217294
0.1530811530 0.3061623059 0.1530811530
0.2296217294 0.3827028824 0.0765405765
-0.2296217294 -0.2296217294 0.6888651883
-0.1530811530 -0.1530811530 0.6123246119
-0.0765405765 -0.0765405765 0.5357840354
0.0000000000 0.0000000000 0.4592434589
0.0765405765 0.0765405765 0.3827028824
0.1530811530 0.1530811530 0.3061623059
0.2296217294 0.2296217294 0.2296217294
0.3061623059 0.3061623059 0.1530811530
-0.1530811530 -0.3061623059 0.7654057648
-0.0765405765 -0.2296217294 0.6888651883
0.0000000000 -0.1530811530 0.6123246119
0.0765405765 -0.0765405765 0.5357840354
0.1530811530 0.0000000000 0.4592434589
0.2296217294 0.0765405765 0.3827028824
0.3061623059 0.1530811530 0.3061623059
0.3827028824 0.2296217294 0.2296217294
-0.7654057648 0.3061623059 0.3061623059
-0.6888651883 0.3827028824 0.2296217294
-0.6123246119 0.4592434589 0.1530811530
-0.5357840354 0.5357840354 0.0765405765
-0.4592434589 0.6123246119 -0.0000000000
-0.3827028824 0.6888651883 -0.0765405765
-0.3061623059 0.7654057648 -0.1530811530
-0.2296217294 0.8419463413 -0.2296217294
-0.6888651883 0.2296217294 0.3827028824
-0.6123246119 0.3061623059 0.3061623059
-0.5357840354 0.3827028824 0.2296217294
-0.4592434589 0.4592434589 0.1530811530
-0.3827028824 0.5357840354 0.0765405765
-0.3061623059 0.6123246119 -0.0000000000
-0.2296217294 0.6888651883 -0.0765405765
-0.1530811530 0.7654057648 -0.1530811530
-0.6123246119 0.1530811530 0.4592434589
-0.5357840354 0.2296217294 0.3827028824
-0.4592434589 0.3061623059 0.3061623059
-0.3827028824 0.3827028824 0.2296217294
-0.3061623059 0.4592434589 0.1530811530
-0.2296217294 0.5357840354 0.0765405765
-0.1530811530 0.6123246119 0.0000000000
-0.0765405765 0.6888651883 -0.0765405765
-0.5357840354 0.0765405765 0.5357840354
-0.4592434589 0.1530811530 0.4592434589
-0.3827028824 0.2296217294 0.3827028824
-0.3061623059 0.3061623059 0.3061623059
-0.2296217294 0.3827028824 0.2296217294
-0.1530811530 0.4592434589 0.1530811530
-0.0765405765 0.5357840354 0.0765405765
0.0000000000 0.6123246119 0.0000000000
-0.4592434589 0.0000000000 0.6123246119
-0.3827028824 0.0765405765 0.5357840354
-0.3061623059 0.1530811530 0.4592434589
-0.2296217294 0.2296217294 0.3827028824
-0.1530811530 0.3061623059 0.3061623059
-0.0765405765 0.3827028824 0.2296217294
0.0000000000 0.4592434589 0.1530811530
0.0765405765 0.5357840354 0.0765405765
-0.3827028824 -0.0765405765 0.6888651883
-0.3061623059 0.0000000000 0.6123246119
-0.2296217294 0.0765405765 0.5357840354
-0.1530811530 0.1530811530 0.4592434589
-0.0765405765 0.2296217294 0.3827028824
0.0000000000 0.3061623059 0.3061623059
0.0765405765 0.3827028824 0.2296217294
0.1530811530 0.4592434589 0.1530811530
-0.3061623059 -0.1530811530 0.7654057648
-0.2296217294 -0.0765405765 0.6888651883
-0.1530811530 0.0000000000 0.6123246119
-0.0765405765 0.0765405765 0.5357840354
0.0000000000 0.1530811530 0.4592434589
0.0765405765 0.2296217294 0.3827028824
0.1530811530 0.3061623059 0.3061623059
0.2296217294 0.3827028824 0.2296217294
-0.2296217294 -0.2296217294 0.8419463413
-0.1530811530 -0.1530811530 0.7654057648
-0.0765405765 -0.0765405765 0.6888651883
0.0000000000 0.0000000000 0.6123246119
0.0765405765 0.0765405765 0.5357840354
0.1530811530 0.1530811530 0.4592434589
0.2296217294 0.2296217294 0.3827028824
0.3061623059 0.3061623059 0.3061623059
 There are 14 alpha and 14 beta electrons
 Start computing overlap matrix
 Allocate 10616832 B from available memory: 1048575740896 B
 Time for computing overlap matrix: 1.5960000000 s
 ====== Initialize compute kernels for all-electron RI-J (kpts) ====== 
 ========================================================== 
 Range-separated parameter omega        = 0.900000000000000022
 Threshold for 1e2c shellpair           = 0.000000000000010000
 Threshold for 2e2c SR integral         = 0.000000000000000001
 Threshold for 2e3c SR integral         = 0.000000000100000000
 Threshold for AFT G-space screening is = 0.000000000001000000
 The exponent cutoff for C/D classification (omega2 / 2) is  = 0.405000000000000027
 ========================================================== 
 === Post process the basis set for RI calculation (exp_cutoff = 0.405000000000000027 ) === 
nshells_b1 before uncontraction = 16
nshells_b1 after uncontraction = 20
nshells_baux before uncontraction = 74
nshells_baux after uncontraction = 74
===============================================
nbsf total   = 44
nbsf compact = 18
nbsf diffuse = 26
naux total   = 242
naux compact = 242
naux diffuse = 0
nshells_bnuc = 2

 Number of unique atoms is 1
 Unique atom #0 (si) has 5 shells.

Shell 0 to 4 belongs to atom si
Shell 5 to 9 belongs to atom si

 Number of unique atoms is 1
 Unique atom #0 (si) has 5 shells.

Shell 0 to 4 belongs to atom si
Shell 5 to 9 belongs to atom si

 Number of unique atom is 1
 Unique atom #0 (si) has 37 auxiliary shells.

Auxiliary Shell 0 to 36 belongs to atom si
Auxiliary Shell 37 to 73 belongs to atom si

================= Automatically determine grid size for reciprocal space summation =================
 Range-separated parameter = 0.90000000000000 and G-space screening threshold = 0.00000000000100
The number of grid points along each axis dimension is (10, 10, 10)
Total number of grid points = 9261

Use nonortho shellpair for diffuse density
======== Initializing relevant kernel for RIJ (DD type) ========
There are 55 shellpairs in the reference unit cell
There are 2395 images and we expect to have 131725 in total
There are 6642 shellpairs in the lattice sum after screening
======== Initializing relevant kernel for RIJ (CD type) ========
There are 100 shellpairs in the reference unit cell
There are 1313 images and we expect to have 131300 in total
There are 5014 shellpairs in the lattice sum after screening
****** AFT -> SR ******
Maximum bra distance cutoff is 19.000000000000
Maximum bra ket distance cutoff is 16.923537234043
Maximum bra ket screening distance is 16.468750000000
Number of auxiliary image is 341
There are 100 shellpairs in the reference unit cell
There are 341 images and we expect to have 34100 in total
There are 5014 shellpairs in the lattice sum after screening
Available memory per thread for 2e3c calculation is 32.767660127000Gb
Finish initializing 2e3c SR with the lattice sum!
=================================================
======== Initializing relevant kernel for RIJ (CC type) ========
There are 54 shellpairs in the reference unit cell
There are 285 images and we expect to have 15390 in total
There are 126 shellpairs in the lattice sum after screening
****** AFT -> SR ******
Maximum bra distance cutoff is 7.000000000000
Maximum bra ket distance cutoff is 17.457123816333
Maximum bra ket screening distance is 16.343750000000
Number of auxiliary image is 285
There are 54 shellpairs in the reference unit cell
There are 27 images and we expect to have 1458 in total
There are 126 shellpairs in the lattice sum after screening
Available memory per thread for 2e3c calculation is 32.767660127000Gb
Finish initializing 2e3c SR with the lattice sum!
=================================================
======== Initializing the SR component for Vnuc (CD type) ========
Maximum bra distance cutoff is 19.000000000000
Maximum bra ket distance cutoff is 7.647118359706
Maximum bra ket screening distance is 7.125303119800
Number of auxiliary image is 341
There are 100 shellpairs in the reference unit cell
There are 341 images and we expect to have 34100 in total
There are 5014 shellpairs in the lattice sum after screening
Available memory per thread for 2e3c calculation is 32.767660127000Gb
Finish initializing 2e3c SR with the lattice sum!
=================================================
======== Initialize the SR component for Vnuc (CC type) ========
Maximum bra distance cutoff is 7.000000000000
Maximum bra ket distance cutoff is 9.111649205692
Maximum bra ket screening distance is 6.557184410270
Number of auxiliary image is 99
There are 54 shellpairs in the reference unit cell
There are 27 images and we expect to have 1458 in total
There are 126 shellpairs in the lattice sum after screening
Available memory per thread for 2e3c calculation is 32.767660127000Gb
Finish initializing 2e3c SR with the lattice sum!
=================================================
 Aufbau occupation scheme, occupation determined by eigenvalue
 == 0-th k-point nmo = 36 (-0.22962,-0.22962,-0.22962) ==
 == 1-th k-point nmo = 36 (-0.15308,-0.15308,-0.30616) ==
 == 2-th k-point nmo = 36 (-0.07654,-0.07654,-0.38270) ==
 == 3-th k-point nmo = 36 (-0.00000,-0.00000,-0.45924) ==
 == 4-th k-point nmo = 36 (0.07654,0.07654,-0.53578) ==
 == 5-th k-point nmo = 36 (0.15308,0.15308,-0.61232) ==
 == 6-th k-point nmo = 36 (0.22962,0.22962,-0.68887) ==
 == 7-th k-point nmo = 36 (0.30616,0.30616,-0.76541) ==
 == 8-th k-point nmo = 36 (-0.15308,-0.30616,-0.15308) ==
 == 9-th k-point nmo = 36 (-0.07654,-0.22962,-0.22962) ==
 == 10-th k-point nmo = 36 (-0.00000,-0.15308,-0.30616) ==
 == 11-th k-point nmo = 36 (0.07654,-0.07654,-0.38270) ==
 == 12-th k-point nmo = 36 (0.15308,-0.00000,-0.45924) ==
 == 13-th k-point nmo = 36 (0.22962,0.07654,-0.53578) ==
 == 14-th k-point nmo = 36 (0.30616,0.15308,-0.61232) ==
 == 15-th k-point nmo = 36 (0.38270,0.22962,-0.68887) ==
 == 16-th k-point nmo = 36 (-0.07654,-0.38270,-0.07654) ==
 == 17-th k-point nmo = 36 (-0.00000,-0.30616,-0.15308) ==
 == 18-th k-point nmo = 36 (0.07654,-0.22962,-0.22962) ==
 == 19-th k-point nmo = 36 (0.15308,-0.15308,-0.30616) ==
 == 20-th k-point nmo = 36 (0.22962,-0.07654,-0.38270) ==
 == 21-th k-point nmo = 36 (0.30616,-0.00000,-0.45924) ==
 == 22-th k-point nmo = 36 (0.38270,0.07654,-0.53578) ==
 == 23-th k-point nmo = 36 (0.45924,0.15308,-0.61232) ==
 == 24-th k-point nmo = 36 (-0.00000,-0.45924,0.00000) ==
 == 25-th k-point nmo = 36 (0.07654,-0.38270,-0.07654) ==
 == 26-th k-point nmo = 36 (0.15308,-0.30616,-0.15308) ==
 == 27-th k-point nmo = 36 (0.22962,-0.22962,-0.22962) ==
 == 28-th k-point nmo = 36 (0.30616,-0.15308,-0.30616) ==
 == 29-th k-point nmo = 36 (0.38270,-0.07654,-0.38270) ==
 == 30-th k-point nmo = 36 (0.45924,0.00000,-0.45924) ==
 == 31-th k-point nmo = 36 (0.53578,0.07654,-0.53578) ==
 == 32-th k-point nmo = 36 (0.07654,-0.53578,0.07654) ==
 == 33-th k-point nmo = 36 (0.15308,-0.45924,0.00000) ==
 == 34-th k-point nmo = 36 (0.22962,-0.38270,-0.07654) ==
 == 35-th k-point nmo = 36 (0.30616,-0.30616,-0.15308) ==
 == 36-th k-point nmo = 36 (0.38270,-0.22962,-0.22962) ==
 == 37-th k-point nmo = 36 (0.45924,-0.15308,-0.30616) ==
 == 38-th k-point nmo = 36 (0.53578,-0.07654,-0.38270) ==
 == 39-th k-point nmo = 36 (0.61232,0.00000,-0.45924) ==
 == 40-th k-point nmo = 36 (0.15308,-0.61232,0.15308) ==
 == 41-th k-point nmo = 36 (0.22962,-0.53578,0.07654) ==
 == 42-th k-point nmo = 36 (0.30616,-0.45924,0.00000) ==
 == 43-th k-point nmo = 36 (0.38270,-0.38270,-0.07654) ==
 == 44-th k-point nmo = 36 (0.45924,-0.30616,-0.15308) ==
 == 45-th k-point nmo = 36 (0.53578,-0.22962,-0.22962) ==
 == 46-th k-point nmo = 36 (0.61232,-0.15308,-0.30616) ==
 == 47-th k-point nmo = 36 (0.68887,-0.07654,-0.38270) ==
 == 48-th k-point nmo = 36 (0.22962,-0.68887,0.22962) ==
 == 49-th k-point nmo = 36 (0.30616,-0.61232,0.15308) ==
 == 50-th k-point nmo = 36 (0.38270,-0.53578,0.07654) ==
 == 51-th k-point nmo = 36 (0.45924,-0.45924,0.00000) ==
 == 52-th k-point nmo = 36 (0.53578,-0.38270,-0.07654) ==
 == 53-th k-point nmo = 36 (0.61232,-0.30616,-0.15308) ==
 == 54-th k-point nmo = 36 (0.68887,-0.22962,-0.22962) ==
 == 55-th k-point nmo = 36 (0.76541,-0.15308,-0.30616) ==
 == 56-th k-point nmo = 36 (0.30616,-0.76541,0.30616) ==
 == 57-th k-point nmo = 36 (0.38270,-0.68887,0.22962) ==
 == 58-th k-point nmo = 36 (0.45924,-0.61232,0.15308) ==
 == 59-th k-point nmo = 36 (0.53578,-0.53578,0.07654) ==
 == 60-th k-point nmo = 36 (0.61232,-0.45924,0.00000) ==
 == 61-th k-point nmo = 36 (0.68887,-0.38270,-0.07654) ==
 == 62-th k-point nmo = 36 (0.76541,-0.30616,-0.15308) ==
 == 63-th k-point nmo = 36 (0.84195,-0.22962,-0.22962) ==
 == 64-th k-point nmo = 36 (-0.30616,-0.15308,-0.15308) ==
 == 65-th k-point nmo = 36 (-0.22962,-0.07654,-0.22962) ==
 == 66-th k-point nmo = 36 (-0.15308,-0.00000,-0.30616) ==
 == 67-th k-point nmo = 36 (-0.07654,0.07654,-0.38270) ==
 == 68-th k-point nmo = 36 (-0.00000,0.15308,-0.45924) ==
 == 69-th k-point nmo = 36 (0.07654,0.22962,-0.53578) ==
 == 70-th k-point nmo = 36 (0.15308,0.30616,-0.61232) ==
 == 71-th k-point nmo = 36 (0.22962,0.38270,-0.68887) ==
 == 72-th k-point nmo = 36 (-0.22962,-0.22962,-0.07654) ==
 == 73-th k-point nmo = 36 (-0.15308,-0.15308,-0.15308) ==
 == 74-th k-point nmo = 36 (-0.07654,-0.07654,-0.22962) ==
 == 75-th k-point nmo = 36 (-0.00000,-0.00000,-0.30616) ==
 == 76-th k-point nmo = 36 (0.07654,0.07654,-0.38270) ==
 == 77-th k-point nmo = 36 (0.15308,0.15308,-0.45924) ==
 == 78-th k-point nmo = 36 (0.22962,0.22962,-0.53578) ==
 == 79-th k-point nmo = 36 (0.30616,0.30616,-0.61232) ==
 == 80-th k-point nmo = 36 (-0.15308,-0.30616,-0.00000) ==
 == 81-th k-point nmo = 36 (-0.07654,-0.22962,-0.07654) ==
 == 82-th k-point nmo = 36 (-0.00000,-0.15308,-0.15308) ==
 == 83-th k-point nmo = 36 (0.07654,-0.07654,-0.22962) ==
 == 84-th k-point nmo = 36 (0.15308,-0.00000,-0.30616) ==
 == 85-th k-point nmo = 36 (0.22962,0.07654,-0.38270) ==
 == 86-th k-point nmo = 36 (0.30616,0.15308,-0.45924) ==
 == 87-th k-point nmo = 36 (0.38270,0.22962,-0.53578) ==
 == 88-th k-point nmo = 36 (-0.07654,-0.38270,0.07654) ==
 == 89-th k-point nmo = 36 (-0.00000,-0.30616,0.00000) ==
 == 90-th k-point nmo = 36 (0.07654,-0.22962,-0.07654) ==
 == 91-th k-point nmo = 36 (0.15308,-0.15308,-0.15308) ==
 == 92-th k-point nmo = 36 (0.22962,-0.07654,-0.22962) ==
 == 93-th k-point nmo = 36 (0.30616,0.00000,-0.30616) ==
 == 94-th k-point nmo = 36 (0.38270,0.07654,-0.38270) ==
 == 95-th k-point nmo = 36 (0.45924,0.15308,-0.45924) ==
 == 96-th k-point nmo = 36 (-0.00000,-0.45924,0.15308) ==
 == 97-th k-point nmo = 36 (0.07654,-0.38270,0.07654) ==
 == 98-th k-point nmo = 36 (0.15308,-0.30616,0.00000) ==
 == 99-th k-point nmo = 36 (0.22962,-0.22962,-0.07654) ==
 == 100-th k-point nmo = 36 (0.30616,-0.15308,-0.15308) ==
 == 101-th k-point nmo = 36 (0.38270,-0.07654,-0.22962) ==
 == 102-th k-point nmo = 36 (0.45924,0.00000,-0.30616) ==
 == 103-th k-point nmo = 36 (0.53578,0.07654,-0.38270) ==
 == 104-th k-point nmo = 36 (0.07654,-0.53578,0.22962) ==
 == 105-th k-point nmo = 36 (0.15308,-0.45924,0.15308) ==
 == 106-th k-point nmo = 36 (0.22962,-0.38270,0.07654) ==
 == 107-th k-point nmo = 36 (0.30616,-0.30616,0.00000) ==
 == 108-th k-point nmo = 36 (0.38270,-0.22962,-0.07654) ==
 == 109-th k-point nmo = 36 (0.45924,-0.15308,-0.15308) ==
 == 110-th k-point nmo = 36 (0.53578,-0.07654,-0.22962) ==
 == 111-th k-point nmo = 36 (0.61232,0.00000,-0.30616) ==
 == 112-th k-point nmo = 36 (0.15308,-0.61232,0.30616) ==
 == 113-th k-point nmo = 36 (0.22962,-0.53578,0.22962) ==
 == 114-th k-point nmo = 36 (0.30616,-0.45924,0.15308) ==
 == 115-th k-point nmo = 36 (0.38270,-0.38270,0.07654) ==
 == 116-th k-point nmo = 36 (0.45924,-0.30616,0.00000) ==
 == 117-th k-point nmo = 36 (0.53578,-0.22962,-0.07654) ==
 == 118-th k-point nmo = 36 (0.61232,-0.15308,-0.15308) ==
 == 119-th k-point nmo = 36 (0.68887,-0.07654,-0.22962) ==
 == 120-th k-point nmo = 36 (0.22962,-0.68887,0.38270) ==
 == 121-th k-point nmo = 36 (0.30616,-0.61232,0.30616) ==
 == 122-th k-point nmo = 36 (0.38270,-0.53578,0.22962) ==
 == 123-th k-point nmo = 36 (0.45924,-0.45924,0.15308) ==
 == 124-th k-point nmo = 36 (0.53578,-0.38270,0.07654) ==
 == 125-th k-point nmo = 36 (0.61232,-0.30616,0.00000) ==
 == 126-th k-point nmo = 36 (0.68887,-0.22962,-0.07654) ==
 == 127-th k-point nmo = 36 (0.76541,-0.15308,-0.15308) ==
 == 128-th k-point nmo = 36 (-0.38270,-0.07654,-0.07654) ==
 == 129-th k-point nmo = 36 (-0.30616,-0.00000,-0.15308) ==
 == 130-th k-point nmo = 36 (-0.22962,0.07654,-0.22962) ==
 == 131-th k-point nmo = 36 (-0.15308,0.15308,-0.30616) ==
 == 132-th k-point nmo = 36 (-0.07654,0.22962,-0.38270) ==
 == 133-th k-point nmo = 36 (0.00000,0.30616,-0.45924) ==
 == 134-th k-point nmo = 36 (0.07654,0.38270,-0.53578) ==
 == 135-th k-point nmo = 36 (0.15308,0.45924,-0.61232) ==
 == 136-th k-point nmo = 36 (-0.30616,-0.15308,-0.00000) ==
 == 137-th k-point nmo = 36 (-0.22962,-0.07654,-0.07654) ==
 == 138-th k-point nmo = 36 (-0.15308,-0.00000,-0.15308) ==
 == 139-th k-point nmo = 36 (-0.07654,0.07654,-0.22962) ==
 == 140-th k-point nmo = 36 (-0.00000,0.15308,-0.30616) ==
 == 141-th k-point nmo = 36 (0.07654,0.22962,-0.38270) ==
 == 142-th k-point nmo = 36 (0.15308,0.30616,-0.45924) ==
 == 143-th k-point nmo = 36 (0.22962,0.38270,-0.53578) ==
 == 144-th k-point nmo = 36 (-0.22962,-0.22962,0.07654) ==
 == 145-th k-point nmo = 36 (-0.15308,-0.15308,-0.00000) ==
 == 146-th k-point nmo = 36 (-0.07654,-0.07654,-0.07654) ==
 == 147-th k-point nmo = 36 (-0.00000,-0.00000,-0.15308) ==
 == 148-th k-point nmo = 36 (0.07654,0.07654,-0.22962) ==
 == 149-th k-point nmo = 36 (0.15308,0.15308,-0.30616) ==
 == 150-th k-point nmo = 36 (0.22962,0.22962,-0.38270) ==
 == 151-th k-point nmo = 36 (0.30616,0.30616,-0.45924) ==
 == 152-th k-point nmo = 36 (-0.15308,-0.30616,0.15308) ==
 == 153-th k-point nmo = 36 (-0.07654,-0.22962,0.07654) ==
 == 154-th k-point nmo = 36 (-0.00000,-0.15308,0.00000) ==
 == 155-th k-point nmo = 36 (0.07654,-0.07654,-0.07654) ==
 == 156-th k-point nmo = 36 (0.15308,0.00000,-0.15308) ==
 == 157-th k-point nmo = 36 (0.22962,0.07654,-0.22962) ==
 == 158-th k-point nmo = 36 (0.30616,0.15308,-0.30616) ==
 == 159-th k-point nmo = 36 (0.38270,0.22962,-0.38270) ==
 == 160-th k-point nmo = 36 (-0.07654,-0.38270,0.22962) ==
 == 161-th k-point nmo = 36 (-0.00000,-0.30616,0.15308) ==
 == 162-th k-point nmo = 36 (0.07654,-0.22962,0.07654) ==
 == 163-th k-point nmo = 36 (0.15308,-0.15308,0.00000) ==
 == 164-th k-point nmo = 36 (0.22962,-0.07654,-0.07654) ==
 == 165-th k-point nmo = 36 (0.30616,0.00000,-0.15308) ==
 == 166-th k-point nmo = 36 (0.38270,0.07654,-0.22962) ==
 == 167-th k-point nmo = 36 (0.45924,0.15308,-0.30616) ==
 == 168-th k-point nmo = 36 (-0.00000,-0.45924,0.30616) ==
 == 169-th k-point nmo = 36 (0.07654,-0.38270,0.22962) ==
 == 170-th k-point nmo = 36 (0.15308,-0.30616,0.15308) ==
 == 171-th k-point nmo = 36 (0.22962,-0.22962,0.07654) ==
 == 172-th k-point nmo = 36 (0.30616,-0.15308,0.00000) ==
 == 173-th k-point nmo = 36 (0.38270,-0.07654,-0.07654) ==
 == 174-th k-point nmo = 36 (0.45924,0.00000,-0.15308) ==
 == 175-th k-point nmo = 36 (0.53578,0.07654,-0.22962) ==
 == 176-th k-point nmo = 36 (0.07654,-0.53578,0.38270) ==
 == 177-th k-point nmo = 36 (0.15308,-0.45924,0.30616) ==
 == 178-th k-point nmo = 36 (0.22962,-0.38270,0.22962) ==
 == 179-th k-point nmo = 36 (0.30616,-0.30616,0.15308) ==
 == 180-th k-point nmo = 36 (0.38270,-0.22962,0.07654) ==
 == 181-th k-point nmo = 36 (0.45924,-0.15308,0.00000) ==
 == 182-th k-point nmo = 36 (0.53578,-0.07654,-0.07654) ==
 == 183-th k-point nmo = 36 (0.61232,0.00000,-0.15308) ==
 == 184-th k-point nmo = 36 (0.15308,-0.61232,0.45924) ==
 == 185-th k-point nmo = 36 (0.22962,-0.53578,0.38270) ==
 == 186-th k-point nmo = 36 (0.30616,-0.45924,0.30616) ==
 == 187-th k-point nmo = 36 (0.38270,-0.38270,0.22962) ==
 == 188-th k-point nmo = 36 (0.45924,-0.30616,0.15308) ==
 == 189-th k-point nmo = 36 (0.53578,-0.22962,0.07654) ==
 == 190-th k-point nmo = 36 (0.61232,-0.15308,0.00000) ==
 == 191-th k-point nmo = 36 (0.68887,-0.07654,-0.07654) ==
 == 192-th k-point nmo = 36 (-0.45924,-0.00000,-0.00000) ==
 == 193-th k-point nmo = 36 (-0.38270,0.07654,-0.07654) ==
 == 194-th k-point nmo = 36 (-0.30616,0.15308,-0.15308) ==
 == 195-th k-point nmo = 36 (-0.22962,0.22962,-0.22962) ==
 == 196-th k-point nmo = 36 (-0.15308,0.30616,-0.30616) ==
 == 197-th k-point nmo = 36 (-0.07654,0.38270,-0.38270) ==
 == 198-th k-point nmo = 36 (0.00000,0.45924,-0.45924) ==
 == 199-th k-point nmo = 36 (0.07654,0.53578,-0.53578) ==
 == 200-th k-point nmo = 36 (-0.38270,-0.07654,0.07654) ==
 == 201-th k-point nmo = 36 (-0.30616,-0.00000,-0.00000) ==
 == 202-th k-point nmo = 36 (-0.22962,0.07654,-0.07654) ==
 == 203-th k-point nmo = 36 (-0.15308,0.15308,-0.15308) ==
 == 204-th k-point nmo = 36 (-0.07654,0.22962,-0.22962) ==
 == 205-th k-point nmo = 36 (0.00000,0.30616,-0.30616) ==
 == 206-th k-point nmo = 36 (0.07654,0.38270,-0.38270) ==
 == 207-th k-point nmo = 36 (0.15308,0.45924,-0.45924) ==
 == 208-th k-point nmo = 36 (-0.30616,-0.15308,0.15308) ==
 == 209-th k-point nmo = 36 (-0.22962,-0.07654,0.07654) ==
 == 210-th k-point nmo = 36 (-0.15308,-0.00000,-0.00000) ==
 == 211-th k-point nmo = 36 (-0.07654,0.07654,-0.07654) ==
 == 212-th k-point nmo = 36 (0.00000,0.15308,-0.15308) ==
 == 213-th k-point nmo = 36 (0.07654,0.22962,-0.22962) ==
 == 214-th k-point nmo = 36 (0.15308,0.30616,-0.30616) ==
 == 215-th k-point nmo = 36 (0.22962,0.38270,-0.38270) ==
 == 216-th k-point nmo = 36 (-0.22962,-0.22962,0.22962) ==
 == 217-th k-point nmo = 36 (-0.15308,-0.15308,0.15308) ==
 == 218-th k-point nmo = 36 (-0.07654,-0.07654,0.07654) ==
 == 219-th k-point nmo = 36 (0.00000,0.00000,0.00000) ==
 == 220-th k-point nmo = 36 (0.07654,0.07654,-0.07654) ==
 == 221-th k-point nmo = 36 (0.15308,0.15308,-0.15308) ==
 == 222-th k-point nmo = 36 (0.22962,0.22962,-0.22962) ==
 == 223-th k-point nmo = 36 (0.30616,0.30616,-0.30616) ==
 == 224-th k-point nmo = 36 (-0.15308,-0.30616,0.30616) ==
 == 225-th k-point nmo = 36 (-0.07654,-0.22962,0.22962) ==
 == 226-th k-point nmo = 36 (-0.00000,-0.15308,0.15308) ==
 == 227-th k-point nmo = 36 (0.07654,-0.07654,0.07654) ==
 == 228-th k-point nmo = 36 (0.15308,0.00000,0.00000) ==
 == 229-th k-point nmo = 36 (0.22962,0.07654,-0.07654) ==
 == 230-th k-point nmo = 36 (0.30616,0.15308,-0.15308) ==
 == 231-th k-point nmo = 36 (0.38270,0.22962,-0.22962) ==
 == 232-th k-point nmo = 36 (-0.07654,-0.38270,0.38270) ==
 == 233-th k-point nmo = 36 (-0.00000,-0.30616,0.30616) ==
 == 234-th k-point nmo = 36 (0.07654,-0.22962,0.22962) ==
 == 235-th k-point nmo = 36 (0.15308,-0.15308,0.15308) ==
 == 236-th k-point nmo = 36 (0.22962,-0.07654,0.07654) ==
 == 237-th k-point nmo = 36 (0.30616,0.00000,0.00000) ==
 == 238-th k-point nmo = 36 (0.38270,0.07654,-0.07654) ==
 == 239-th k-point nmo = 36 (0.45924,0.15308,-0.15308) ==
 == 240-th k-point nmo = 36 (-0.00000,-0.45924,0.45924) ==
 == 241-th k-point nmo = 36 (0.07654,-0.38270,0.38270) ==
 == 242-th k-point nmo = 36 (0.15308,-0.30616,0.30616) ==
 == 243-th k-point nmo = 36 (0.22962,-0.22962,0.22962) ==
 == 244-th k-point nmo = 36 (0.30616,-0.15308,0.15308) ==
 == 245-th k-point nmo = 36 (0.38270,-0.07654,0.07654) ==
 == 246-th k-point nmo = 36 (0.45924,0.00000,0.00000) ==
 == 247-th k-point nmo = 36 (0.53578,0.07654,-0.07654) ==
 == 248-th k-point nmo = 36 (0.07654,-0.53578,0.53578) ==
 == 249-th k-point nmo = 36 (0.15308,-0.45924,0.45924) ==
 == 250-th k-point nmo = 36 (0.22962,-0.38270,0.38270) ==
 == 251-th k-point nmo = 36 (0.30616,-0.30616,0.30616) ==
 == 252-th k-point nmo = 36 (0.38270,-0.22962,0.22962) ==
 == 253-th k-point nmo = 36 (0.45924,-0.15308,0.15308) ==
 == 254-th k-point nmo = 36 (0.53578,-0.07654,0.07654) ==
 == 255-th k-point nmo = 36 (0.61232,0.00000,0.00000) ==
 == 256-th k-point nmo = 36 (-0.53578,0.07654,0.07654) ==
 == 257-th k-point nmo = 36 (-0.45924,0.15308,-0.00000) ==
 == 258-th k-point nmo = 36 (-0.38270,0.22962,-0.07654) ==
 == 259-th k-point nmo = 36 (-0.30616,0.30616,-0.15308) ==
 == 260-th k-point nmo = 36 (-0.22962,0.38270,-0.22962) ==
 == 261-th k-point nmo = 36 (-0.15308,0.45924,-0.30616) ==
 == 262-th k-point nmo = 36 (-0.07654,0.53578,-0.38270) ==
 == 263-th k-point nmo = 36 (0.00000,0.61232,-0.45924) ==
 == 264-th k-point nmo = 36 (-0.45924,-0.00000,0.15308) ==
 == 265-th k-point nmo = 36 (-0.38270,0.07654,0.07654) ==
 == 266-th k-point nmo = 36 (-0.30616,0.15308,-0.00000) ==
 == 267-th k-point nmo = 36 (-0.22962,0.22962,-0.07654) ==
 == 268-th k-point nmo = 36 (-0.15308,0.30616,-0.15308) ==
 == 269-th k-point nmo = 36 (-0.07654,0.38270,-0.22962) ==
 == 270-th k-point nmo = 36 (0.00000,0.45924,-0.30616) ==
 == 271-th k-point nmo = 36 (0.07654,0.53578,-0.38270) ==
 == 272-th k-point nmo = 36 (-0.38270,-0.07654,0.22962) ==
 == 273-th k-point nmo = 36 (-0.30616,-0.00000,0.15308) ==
 == 274-th k-point nmo = 36 (-0.22962,0.07654,0.07654) ==
 == 275-th k-point nmo = 36 (-0.15308,0.15308,-0.00000) ==
 == 276-th k-point nmo = 36 (-0.07654,0.22962,-0.07654) ==
 == 277-th k-point nmo = 36 (0.00000,0.30616,-0.15308) ==
 == 278-th k-point nmo = 36 (0.07654,0.38270,-0.22962) ==
 == 279-th k-point nmo = 36 (0.15308,0.45924,-0.30616) ==
 == 280-th k-point nmo = 36 (-0.30616,-0.15308,0.30616) ==
 == 281-th k-point nmo = 36 (-0.22962,-0.07654,0.22962) ==
 == 282-th k-point nmo = 36 (-0.15308,0.00000,0.15308) ==
 == 283-th k-point nmo = 36 (-0.07654,0.07654,0.07654) ==
 == 284-th k-point nmo = 36 (0.00000,0.15308,0.00000) ==
 == 285-th k-point nmo = 36 (0.07654,0.22962,-0.07654) ==
 == 286-th k-point nmo = 36 (0.15308,0.30616,-0.15308) ==
 == 287-th k-point nmo = 36 (0.22962,0.38270,-0.22962) ==
 == 288-th k-point nmo = 36 (-0.22962,-0.22962,0.38270) ==
 == 289-th k-point nmo = 36 (-0.15308,-0.15308,0.30616) ==
 == 290-th k-point nmo = 36 (-0.07654,-0.07654,0.22962) ==
 == 291-th k-point nmo = 36 (0.00000,0.00000,0.15308) ==
 == 292-th k-point nmo = 36 (0.07654,0.07654,0.07654) ==
 == 293-th k-point nmo = 36 (0.15308,0.15308,0.00000) ==
 == 294-th k-point nmo = 36 (0.22962,0.22962,-0.07654) ==
 == 295-th k-point nmo = 36 (0.30616,0.30616,-0.15308) ==
 == 296-th k-point nmo = 36 (-0.15308,-0.30616,0.45924) ==
 == 297-th k-point nmo = 36 (-0.07654,-0.22962,0.38270) ==
 == 298-th k-point nmo = 36 (0.00000,-0.15308,0.30616) ==
 == 299-th k-point nmo = 36 (0.07654,-0.07654,0.22962) ==
 == 300-th k-point nmo = 36 (0.15308,0.00000,0.15308) ==
 == 301-th k-point nmo = 36 (0.22962,0.07654,0.07654) ==
 == 302-th k-point nmo = 36 (0.30616,0.15308,0.00000) ==
 == 303-th k-point nmo = 36 (0.38270,0.22962,-0.07654) ==
 == 304-th k-point nmo = 36 (-0.07654,-0.38270,0.53578) ==
 == 305-th k-point nmo = 36 (0.00000,-0.30616,0.45924) ==
 == 306-th k-point nmo = 36 (0.07654,-0.22962,0.38270) ==
 == 307-th k-point nmo = 36 (0.15308,-0.15308,0.30616) ==
 == 308-th k-point nmo = 36 (0.22962,-0.07654,0.22962) ==
 == 309-th k-point nmo = 36 (0.30616,0.00000,0.15308) ==
 == 310-th k-point nmo = 36 (0.38270,0.07654,0.07654) ==
 == 311-th k-point nmo = 36 (0.45924,0.15308,0.00000) ==
 == 312-th k-point nmo = 36 (0.00000,-0.45924,0.61232) ==
 == 313-th k-point nmo = 36 (0.07654,-0.38270,0.53578) ==
 == 314-th k-point nmo = 36 (0.15308,-0.30616,0.45924) ==
 == 315-th k-point nmo = 36 (0.22962,-0.22962,0.38270) ==
 == 316-th k-point nmo = 36 (0.30616,-0.15308,0.30616) ==
 == 317-th k-point nmo = 36 (0.38270,-0.07654,0.22962) ==
 == 318-th k-point nmo = 36 (0.45924,0.00000,0.15308) ==
 == 319-th k-point nmo = 36 (0.53578,0.07654,0.07654) ==
 == 320-th k-point nmo = 36 (-0.61232,0.15308,0.15308) ==
 == 321-th k-point nmo = 36 (-0.53578,0.22962,0.07654) ==
 == 322-th k-point nmo = 36 (-0.45924,0.30616,-0.00000) ==
 == 323-th k-point nmo = 36 (-0.38270,0.38270,-0.07654) ==
 == 324-th k-point nmo = 36 (-0.30616,0.45924,-0.15308) ==
 == 325-th k-point nmo = 36 (-0.22962,0.53578,-0.22962) ==
 == 326-th k-point nmo = 36 (-0.15308,0.61232,-0.30616) ==
 == 327-th k-point nmo = 36 (-0.07654,0.68887,-0.38270) ==
 == 328-th k-point nmo = 36 (-0.53578,0.07654,0.22962) ==
 == 329-th k-point nmo = 36 (-0.45924,0.15308,0.15308) ==
 == 330-th k-point nmo = 36 (-0.38270,0.22962,0.07654) ==
 == 331-th k-point nmo = 36 (-0.30616,0.30616,-0.00000) ==
 == 332-th k-point nmo = 36 (-0.22962,0.38270,-0.07654) ==
 == 333-th k-point nmo = 36 (-0.15308,0.45924,-0.15308) ==
 == 334-th k-point nmo = 36 (-0.07654,0.53578,-0.22962) ==
 == 335-th k-point nmo = 36 (0.00000,0.61232,-0.30616) ==
 == 336-th k-point nmo = 36 (-0.45924,-0.00000,0.30616) ==
 == 337-th k-point nmo = 36 (-0.38270,0.07654,0.22962) ==
 == 338-th k-point nmo = 36 (-0.30616,0.15308,0.15308) ==
 == 339-th k-point nmo = 36 (-0.22962,0.22962,0.07654) ==
 == 340-th k-point nmo = 36 (-0.15308,0.30616,-0.00000) ==
 == 341-th k-point nmo = 36 (-0.07654,0.38270,-0.07654) ==
 == 342-th k-point nmo = 36 (0.00000,0.45924,-0.15308) ==
 == 343-th k-point nmo = 36 (0.07654,0.53578,-0.22962) ==
 == 344-th k-point nmo = 36 (-0.38270,-0.07654,0.38270) ==
 == 345-th k-point nmo = 36 (-0.30616,0.00000,0.30616) ==
 == 346-th k-point nmo = 36 (-0.22962,0.07654,0.22962) ==
 == 347-th k-point nmo = 36 (-0.15308,0.15308,0.15308) ==
 == 348-th k-point nmo = 36 (-0.07654,0.22962,0.07654) ==
 == 349-th k-point nmo = 36 (0.00000,0.30616,0.00000) ==
 == 350-th k-point nmo = 36 (0.07654,0.38270,-0.07654) ==
 == 351-th k-point nmo = 36 (0.15308,0.45924,-0.15308) ==
 == 352-th k-point nmo = 36 (-0.30616,-0.15308,0.45924) ==
 == 353-th k-point nmo = 36 (-0.22962,-0.07654,0.38270) ==
 == 354-th k-point nmo = 36 (-0.15308,0.00000,0.30616) ==
 == 355-th k-point nmo = 36 (-0.07654,0.07654,0.22962) ==
 == 356-th k-point nmo = 36 (0.00000,0.15308,0.15308) ==
 == 357-th k-point nmo = 36 (0.07654,0.22962,0.07654) ==
 == 358-th k-point nmo = 36 (0.15308,0.30616,0.00000) ==
 == 359-th k-point nmo = 36 (0.22962,0.38270,-0.07654) ==
 == 360-th k-point nmo = 36 (-0.22962,-0.22962,0.53578) ==
 == 361-th k-point nmo = 36 (-0.15308,-0.15308,0.45924) ==
 == 362-th k-point nmo = 36 (-0.07654,-0.07654,0.38270) ==
 == 363-th k-point nmo = 36 (0.00000,0.00000,0.30616) ==
 == 364-th k-point nmo = 36 (0.07654,0.07654,0.22962) ==
 == 365-th k-point nmo = 36 (0.15308,0.15308,0.15308) ==
 == 366-th k-point nmo = 36 (0.22962,0.22962,0.07654) ==
 == 367-th k-point nmo = 36 (0.30616,0.30616,0.00000) ==
 == 368-th k-point nmo = 36 (-0.15308,-0.30616,0.61232) ==
 == 369-th k-point nmo = 36 (-0.07654,-0.22962,0.53578) ==
 == 370-th k-point nmo = 36 (0.00000,-0.15308,0.45924) ==
 == 371-th k-point nmo = 36 (0.07654,-0.07654,0.38270) ==
 == 372-th k-point nmo = 36 (0.15308,0.00000,0.30616) ==
 == 373-th k-point nmo = 36 (0.22962,0.07654,0.22962) ==
 == 374-th k-point nmo = 36 (0.30616,0.15308,0.15308) ==
 == 375-th k-point nmo = 36 (0.38270,0.22962,0.07654) ==
 == 376-th k-point nmo = 36 (-0.07654,-0.38270,0.68887) ==
 == 377-th k-point nmo = 36 (0.00000,-0.30616,0.61232) ==
 == 378-th k-point nmo = 36 (0.07654,-0.22962,0.53578) ==
 == 379-th k-point nmo = 36 (0.15308,-0.15308,0.45924) ==
 == 380-th k-point nmo = 36 (0.22962,-0.07654,0.38270) ==
 == 381-th k-point nmo = 36 (0.30616,0.00000,0.30616) ==
 == 382-th k-point nmo = 36 (0.38270,0.07654,0.22962) ==
 == 383-th k-point nmo = 36 (0.45924,0.15308,0.15308) ==
 == 384-th k-point nmo = 36 (-0.68887,0.22962,0.22962) ==
 == 385-th k-point nmo = 36 (-0.61232,0.30616,0.15308) ==
 == 386-th k-point nmo = 36 (-0.53578,0.38270,0.07654) ==
 == 387-th k-point nmo = 36 (-0.45924,0.45924,-0.00000) ==
 == 388-th k-point nmo = 36 (-0.38270,0.53578,-0.07654) ==
 == 389-th k-point nmo = 36 (-0.30616,0.61232,-0.15308) ==
 == 390-th k-point nmo = 36 (-0.22962,0.68887,-0.22962) ==
 == 391-th k-point nmo = 36 (-0.15308,0.76541,-0.30616) ==
 == 392-th k-point nmo = 36 (-0.61232,0.15308,0.30616) ==
 == 393-th k-point nmo = 36 (-0.53578,0.22962,0.22962) ==
 == 394-th k-point nmo = 36 (-0.45924,0.30616,0.15308) ==
 == 395-th k-point nmo = 36 (-0.38270,0.38270,0.07654) ==
 == 396-th k-point nmo = 36 (-0.30616,0.45924,-0.00000) ==
 == 397-th k-point nmo = 36 (-0.22962,0.53578,-0.07654) ==
 == 398-th k-point nmo = 36 (-0.15308,0.61232,-0.15308) ==
 == 399-th k-point nmo = 36 (-0.07654,0.68887,-0.22962) ==
 == 400-th k-point nmo = 36 (-0.53578,0.07654,0.38270) ==
 == 401-th k-point nmo = 36 (-0.45924,0.15308,0.30616) ==
 == 402-th k-point nmo = 36 (-0.38270,0.22962,0.22962) ==
 == 403-th k-point nmo = 36 (-0.30616,0.30616,0.15308) ==
 == 404-th k-point nmo = 36 (-0.22962,0.38270,0.07654) ==
 == 405-th k-point nmo = 36 (-0.15308,0.45924,-0.00000) ==
 == 406-th k-point nmo = 36 (-0.07654,0.53578,-0.07654) ==
 == 407-th k-point nmo = 36 (0.00000,0.61232,-0.15308) ==
 == 408-th k-point nmo = 36 (-0.45924,0.00000,0.45924) ==
 == 409-th k-point nmo = 36 (-0.38270,0.07654,0.38270) ==
 == 410-th k-point nmo = 36 (-0.30616,0.15308,0.30616) ==
 == 411-th k-point nmo = 36 (-0.22962,0.22962,0.22962) ==
 == 412-th k-point nmo = 36 (-0.15308,0.30616,0.15308) ==
 == 413-th k-point nmo = 36 (-0.07654,0.38270,0.07654) ==
 == 414-th k-point nmo = 36 (0.00000,0.45924,0.00000) ==
 == 415-th k-point nmo = 36 (0.07654,0.53578,-0.07654) ==
 == 416-th k-point nmo = 36 (-0.38270,-0.07654,0.53578) ==
 == 417-th k-point nmo = 36 (-0.30616,0.00000,0.45924) ==
 == 418-th k-point nmo = 36 (-0.22962,0.07654,0.38270) ==
 == 419-th k-point nmo = 36 (-0.15308,0.15308,0.30616) ==
 == 420-th k-point nmo = 36 (-0.07654,0.22962,0.22962) ==
 == 421-th k-point nmo = 36 (0.00000,0.30616,0.15308) ==
 == 422-th k-point nmo = 36 (0.07654,0.38270,0.07654) ==
 == 423-th k-point nmo = 36 (0.15308,0.45924,0.00000) ==
 == 424-th k-point nmo = 36 (-0.30616,-0.15308,0.61232) ==
 == 425-th k-point nmo = 36 (-0.22962,-0.07654,0.53578) ==
 == 426-th k-point nmo = 36 (-0.15308,0.00000,0.45924) ==
 == 427-th k-point nmo = 36 (-0.07654,0.07654,0.38270) ==
 == 428-th k-point nmo = 36 (0.00000,0.15308,0.30616) ==
 == 429-th k-point nmo = 36 (0.07654,0.22962,0.22962) ==
 == 430-th k-point nmo = 36 (0.15308,0.30616,0.15308) ==
 == 431-th k-point nmo = 36 (0.22962,0.38270,0.07654) ==
 == 432-th k-point nmo = 36 (-0.22962,-0.22962,0.68887) ==
 == 433-th k-point nmo = 36 (-0.15308,-0.15308,0.61232) ==
 == 434-th k-point nmo = 36 (-0.07654,-0.07654,0.53578) ==
 == 435-th k-point nmo = 36 (0.00000,0.00000,0.45924) ==
 == 436-th k-point nmo = 36 (0.07654,0.07654,0.38270) ==
 == 437-th k-point nmo = 36 (0.15308,0.15308,0.30616) ==
 == 438-th k-point nmo = 36 (0.22962,0.22962,0.22962) ==
 == 439-th k-point nmo = 36 (0.30616,0.30616,0.15308) ==
 == 440-th k-point nmo = 36 (-0.15308,-0.30616,0.76541) ==
 == 441-th k-point nmo = 36 (-0.07654,-0.22962,0.68887) ==
 == 442-th k-point nmo = 36 (0.00000,-0.15308,0.61232) ==
 == 443-th k-point nmo = 36 (0.07654,-0.07654,0.53578) ==
 == 444-th k-point nmo = 36 (0.15308,0.00000,0.45924) ==
 == 445-th k-point nmo = 36 (0.22962,0.07654,0.38270) ==
 == 446-th k-point nmo = 36 (0.30616,0.15308,0.30616) ==
 == 447-th k-point nmo = 36 (0.38270,0.22962,0.22962) ==
 == 448-th k-point nmo = 36 (-0.76541,0.30616,0.30616) ==
 == 449-th k-point nmo = 36 (-0.68887,0.38270,0.22962) ==
 == 450-th k-point nmo = 36 (-0.61232,0.45924,0.15308) ==
 == 451-th k-point nmo = 36 (-0.53578,0.53578,0.07654) ==
 == 452-th k-point nmo = 36 (-0.45924,0.61232,-0.00000) ==
 == 453-th k-point nmo = 36 (-0.38270,0.68887,-0.07654) ==
 == 454-th k-point nmo = 36 (-0.30616,0.76541,-0.15308) ==
 == 455-th k-point nmo = 36 (-0.22962,0.84195,-0.22962) ==
 == 456-th k-point nmo = 36 (-0.68887,0.22962,0.38270) ==
 == 457-th k-point nmo = 36 (-0.61232,0.30616,0.30616) ==
 == 458-th k-point nmo = 36 (-0.53578,0.38270,0.22962) ==
 == 459-th k-point nmo = 36 (-0.45924,0.45924,0.15308) ==
 == 460-th k-point nmo = 36 (-0.38270,0.53578,0.07654) ==
 == 461-th k-point nmo = 36 (-0.30616,0.61232,-0.00000) ==
 == 462-th k-point nmo = 36 (-0.22962,0.68887,-0.07654) ==
 == 463-th k-point nmo = 36 (-0.15308,0.76541,-0.15308) ==
 == 464-th k-point nmo = 36 (-0.61232,0.15308,0.45924) ==
 == 465-th k-point nmo = 36 (-0.53578,0.22962,0.38270) ==
 == 466-th k-point nmo = 36 (-0.45924,0.30616,0.30616) ==
 == 467-th k-point nmo = 36 (-0.38270,0.38270,0.22962) ==
 == 468-th k-point nmo = 36 (-0.30616,0.45924,0.15308) ==
 == 469-th k-point nmo = 36 (-0.22962,0.53578,0.07654) ==
 == 470-th k-point nmo = 36 (-0.15308,0.61232,0.00000) ==
 == 471-th k-point nmo = 36 (-0.07654,0.68887,-0.07654) ==
 == 472-th k-point nmo = 36 (-0.53578,0.07654,0.53578) ==
 == 473-th k-point nmo = 36 (-0.45924,0.15308,0.45924) ==
 == 474-th k-point nmo = 36 (-0.38270,0.22962,0.38270) ==
 == 475-th k-point nmo = 36 (-0.30616,0.30616,0.30616) ==
 == 476-th k-point nmo = 36 (-0.22962,0.38270,0.22962) ==
 == 477-th k-point nmo = 36 (-0.15308,0.45924,0.15308) ==
 == 478-th k-point nmo = 36 (-0.07654,0.53578,0.07654) ==
 == 479-th k-point nmo = 36 (0.00000,0.61232,0.00000) ==
 == 480-th k-point nmo = 36 (-0.45924,0.00000,0.61232) ==
 == 481-th k-point nmo = 36 (-0.38270,0.07654,0.53578) ==
 == 482-th k-point nmo = 36 (-0.30616,0.15308,0.45924) ==
 == 483-th k-point nmo = 36 (-0.22962,0.22962,0.38270) ==
 == 484-th k-point nmo = 36 (-0.15308,0.30616,0.30616) ==
 == 485-th k-point nmo = 36 (-0.07654,0.38270,0.22962) ==
 == 486-th k-point nmo = 36 (0.00000,0.45924,0.15308) ==
 == 487-th k-point nmo = 36 (0.07654,0.53578,0.07654) ==
 == 488-th k-point nmo = 36 (-0.38270,-0.07654,0.68887) ==
 == 489-th k-point nmo = 36 (-0.30616,0.00000,0.61232) ==
 == 490-th k-point nmo = 36 (-0.22962,0.07654,0.53578) ==
 == 491-th k-point nmo = 36 (-0.15308,0.15308,0.45924) ==
 == 492-th k-point nmo = 36 (-0.07654,0.22962,0.38270) ==
 == 493-th k-point nmo = 36 (0.00000,0.30616,0.30616) ==
 == 494-th k-point nmo = 36 (0.07654,0.38270,0.22962) ==
 == 495-th k-point nmo = 36 (0.15308,0.45924,0.15308) ==
 == 496-th k-point nmo = 36 (-0.30616,-0.15308,0.76541) ==
 == 497-th k-point nmo = 36 (-0.22962,-0.07654,0.68887) ==
 == 498-th k-point nmo = 36 (-0.15308,0.00000,0.61232) ==
 == 499-th k-point nmo = 36 (-0.07654,0.07654,0.53578) ==
 == 500-th k-point nmo = 36 (0.00000,0.15308,0.45924) ==
 == 501-th k-point nmo = 36 (0.07654,0.22962,0.38270) ==
 == 502-th k-point nmo = 36 (0.15308,0.30616,0.30616) ==
 == 503-th k-point nmo = 36 (0.22962,0.38270,0.22962) ==
 == 504-th k-point nmo = 36 (-0.22962,-0.22962,0.84195) ==
 == 505-th k-point nmo = 36 (-0.15308,-0.15308,0.76541) ==
 == 506-th k-point nmo = 36 (-0.07654,-0.07654,0.68887) ==
 == 507-th k-point nmo = 36 (0.00000,0.00000,0.61232) ==
 == 508-th k-point nmo = 36 (0.07654,0.07654,0.53578) ==
 == 509-th k-point nmo = 36 (0.15308,0.15308,0.45924) ==
 == 510-th k-point nmo = 36 (0.22962,0.22962,0.38270) ==
 == 511-th k-point nmo = 36 (0.30616,0.30616,0.30616) ==

 Generate autoSAD guess
backing up fragment data
Atom # 0: si, charge: 0, multiplicity: 3.000000
writing autosad to fragment context
Settings for isolated fragments: 
  frgm_gamma: TRUE
  frgm_center: FALSE

    Running SCF for isolated atom #0
    Fragment Input file: /n/netscratch/joonholee_lab/Lab/hieudinh//si_2_ccpvdz_omega_0.9_888.scratch20250909110945/autosad_frgmt_0/frgmt_input.in
    Fragment Output file: /n/netscratch/joonholee_lab/Lab/hieudinh//si_2_ccpvdz_omega_0.9_888.scratch20250909110945/autosad_frgmt_0/frgmt_job.out
    Fragment job begins at Tue Sep  9 11:09:48 2025

 Integrated density by DFT XC:
   Numerical integral  =    13.999999917315
   Relative error      =     0.0000005906 %
Final energy components:
 DFT Correlation            Energy =  -0.48513826889399
 DFT Exchange               Energy = -20.16642564451801
 Kinetic (alpha)            Energy = 145.25889537694877
 Kinetic (beta)             Energy = 143.28753845481535
 Nuclear Attraction (alpha) Energy = -351.37163574421481
 Nuclear Attraction (beta)  Energy = -337.75785676323585
 Nuclear Repulsion          Energy =   0.00000000000000
 SEOQF                      Energy =  -0.00000000097530
 Total Coulomb              Energy = 132.01551581812879
----------------------------------------------
    SCF Energy: -289.2191067719
   Total fragment job time:  0.44 s.
restoring fragment data

 ------------------------------------------------------------------------
 Allocate 41852928 B from available memory: 1048565124064 B
 Time for generating SCF guess: 0.46 s

 Allocate 69752 B from available memory: 1048523271136 B
 Selected algorithms for each term:
  kpts_kinetic -> @0x149dd2f12680
  kpts_nn -> @0x149dd2f12800
  kpts_rij_bigmem -> @0x149dd2f123e0
  kpts_vnuc_df -> @0x149dd2f12380
  kpts_xc -> @0x149dd2f122c0
 Time for computing kinetic matrix is 1.66 s
Start calculating Vnuc DD type!
Start calculating Vnuc CD type!
Start calculating Vnuc CC type!
 Time for computing nuclear attraction matrix is 3.94 s
Compute (P|Q) and use solve on the fly!
Maximum distance between P and Q is 28.44997180930993
Number of images for (P|Qn) is 887
 Time for computing 2e2c SR integral is 0.09 s
Maximum dynamic memory per thread for 2e3c SR integrals: 0.010 GiB
Batch size for basis function pair is 468 out of 468
 === bvk cell = 0 has 100.000 % of the basis function pairs === 
 === bvk cell = 1 has 95.085 % of the basis function pairs === 
 === bvk cell = 2 has 42.308 % of the basis function pairs === 
 === bvk cell = 3 has 6.838 % of the basis function pairs === 
 === bvk cell = 4 has 0.000 % of the basis function pairs === 
 === bvk cell = 5 has 6.838 % of the basis function pairs === 
 === bvk cell = 6 has 42.308 % of the basis function pairs === 
 === bvk cell = 7 has 95.085 % of the basis function pairs === 
 === bvk cell = 8 has 95.085 % of the basis function pairs === 
 === bvk cell = 9 has 48.077 % of the basis function pairs === 
 === bvk cell = 10 has 7.692 % of the basis function pairs === 
 === bvk cell = 11 has 0.000 % of the basis function pairs === 
 === bvk cell = 12 has 0.000 % of the basis function pairs === 
 === bvk cell = 13 has 7.692 % of the basis function pairs === 
 === bvk cell = 14 has 43.162 % of the basis function pairs === 
 === bvk cell = 15 has 100.000 % of the basis function pairs === 
 === bvk cell = 16 has 42.308 % of the basis function pairs === 
 === bvk cell = 17 has 7.692 % of the basis function pairs === 
 === bvk cell = 18 has 0.000 % of the basis function pairs === 
 === bvk cell = 19 has 0.000 % of the basis function pairs === 
 === bvk cell = 20 has 0.000 % of the basis function pairs === 
 === bvk cell = 21 has 6.838 % of the basis function pairs === 
 === bvk cell = 22 has 30.769 % of the basis function pairs === 
 === bvk cell = 23 has 43.162 % of the basis function pairs === 
 === bvk cell = 24 has 6.838 % of the basis function pairs === 
 === bvk cell = 25 has 0.000 % of the basis function pairs === 
 === bvk cell = 26 has 0.000 % of the basis function pairs === 
 === bvk cell = 27 has 0.000 % of the basis function pairs === 
 === bvk cell = 28 has 0.000 % of the basis function pairs === 
 === bvk cell = 29 has 0.000 % of the basis function pairs === 
 === bvk cell = 30 has 6.838 % of the basis function pairs === 
 === bvk cell = 31 has 7.692 % of the basis function pairs === 
 === bvk cell = 32 has 0.000 % of the basis function pairs === 
 === bvk cell = 33 has 0.000 % of the basis function pairs === 
 === bvk cell = 34 has 0.000 % of the basis function pairs === 
 === bvk cell = 35 has 0.000 % of the basis function pairs === 
 === bvk cell = 36 has 0.000 % of the basis function pairs === 
 === bvk cell = 37 has 0.000 % of the basis function pairs === 
 === bvk cell = 38 has 0.000 % of the basis function pairs === 
 === bvk cell = 39 has 0.000 % of the basis function pairs === 
 === bvk cell = 40 has 6.838 % of the basis function pairs === 
 === bvk cell = 41 has 7.692 % of the basis function pairs === 
 === bvk cell = 42 has 6.838 % of the basis function pairs === 
 === bvk cell = 43 has 0.000 % of the basis function pairs === 
 === bvk cell = 44 has 0.000 % of the basis function pairs === 
 === bvk cell = 45 has 0.000 % of the basis function pairs === 
 === bvk cell = 46 has 0.000 % of the basis function pairs === 
 === bvk cell = 47 has 0.000 % of the basis function pairs === 
 === bvk cell = 48 has 42.308 % of the basis function pairs === 
 === bvk cell = 49 has 43.162 % of the basis function pairs === 
 === bvk cell = 50 has 30.769 % of the basis function pairs === 
 === bvk cell = 51 has 6.838 % of the basis function pairs === 
 === bvk cell = 52 has 0.000 % of the basis function pairs === 
 === bvk cell = 53 has 0.000 % of the basis function pairs === 
 === bvk cell = 54 has 0.000 % of the basis function pairs === 
 === bvk cell = 55 has 7.692 % of the basis function pairs === 
 === bvk cell = 56 has 95.085 % of the basis function pairs === 
 === bvk cell = 57 has 100.000 % of the basis function pairs === 
 === bvk cell = 58 has 43.162 % of the basis function pairs === 
 === bvk cell = 59 has 7.692 % of the basis function pairs === 
 === bvk cell = 60 has 0.000 % of the basis function pairs === 
 === bvk cell = 61 has 0.000 % of the basis function pairs === 
 === bvk cell = 62 has 7.692 % of the basis function pairs === 
 === bvk cell = 63 has 48.077 % of the basis function pairs === 
 === bvk cell = 64 has 95.085 % of the basis function pairs === 
 === bvk cell = 65 has 48.077 % of the basis function pairs === 
 === bvk cell = 66 has 7.692 % of the basis function pairs === 
 === bvk cell = 67 has 0.000 % of the basis function pairs === 
 === bvk cell = 68 has 0.000 % of the basis function pairs === 
 === bvk cell = 69 has 7.692 % of the basis function pairs === 
 === bvk cell = 70 has 43.162 % of the basis function pairs === 
 === bvk cell = 71 has 100.000 % of the basis function pairs === 
 === bvk cell = 72 has 48.077 % of the basis function pairs === 
 === bvk cell = 73 has 23.077 % of the basis function pairs === 
 === bvk cell = 74 has 0.000 % of the basis function pairs === 
 === bvk cell = 75 has 0.000 % of the basis function pairs === 
 === bvk cell = 76 has 0.000 % of the basis function pairs === 
 === bvk cell = 77 has 23.077 % of the basis function pairs === 
 === bvk cell = 78 has 30.769 % of the basis function pairs === 
 === bvk cell = 79 has 82.692 % of the basis function pairs === 
 === bvk cell = 80 has 7.692 % of the basis function pairs === 
 === bvk cell = 81 has 0.000 % of the basis function pairs === 
 === bvk cell = 82 has 0.000 % of the basis function pairs === 
 === bvk cell = 83 has 0.000 % of the basis function pairs === 
 === bvk cell = 84 has 0.000 % of the basis function pairs === 
 === bvk cell = 85 has 0.000 % of the basis function pairs === 
 === bvk cell = 86 has 29.915 % of the basis function pairs === 
 === bvk cell = 87 has 23.077 % of the basis function pairs === 
 === bvk cell = 88 has 0.000 % of the basis function pairs === 
 === bvk cell = 89 has 0.000 % of the basis function pairs === 
 === bvk cell = 90 has 0.000 % of the basis function pairs === 
 === bvk cell = 91 has 0.000 % of the basis function pairs === 
 === bvk cell = 92 has 0.000 % of the basis function pairs === 
 === bvk cell = 93 has 0.000 % of the basis function pairs === 
 === bvk cell = 94 has 0.000 % of the basis function pairs === 
 === bvk cell = 95 has 0.000 % of the basis function pairs === 
 === bvk cell = 96 has 0.000 % of the basis function pairs === 
 === bvk cell = 97 has 0.000 % of the basis function pairs === 
 === bvk cell = 98 has 0.000 % of the basis function pairs === 
 === bvk cell = 99 has 0.000 % of the basis function pairs === 
 === bvk cell = 100 has 0.000 % of the basis function pairs === 
 === bvk cell = 101 has 0.000 % of the basis function pairs === 
 === bvk cell = 102 has 0.000 % of the basis function pairs === 
 === bvk cell = 103 has 0.000 % of the basis function pairs === 
 === bvk cell = 104 has 7.692 % of the basis function pairs === 
 === bvk cell = 105 has 23.077 % of the basis function pairs === 
 === bvk cell = 106 has 0.000 % of the basis function pairs === 
 === bvk cell = 107 has 0.000 % of the basis function pairs === 
 === bvk cell = 108 has 0.000 % of the basis function pairs === 
 === bvk cell = 109 has 0.000 % of the basis function pairs === 
 === bvk cell = 110 has 0.000 % of the basis function pairs === 
 === bvk cell = 111 has 0.000 % of the basis function pairs === 
 === bvk cell = 112 has 43.162 % of the basis function pairs === 
 === bvk cell = 113 has 30.769 % of the basis function pairs === 
 === bvk cell = 114 has 29.915 % of the basis function pairs === 
 === bvk cell = 115 has 0.000 % of the basis function pairs === 
 === bvk cell = 116 has 0.000 % of the basis function pairs === 
 === bvk cell = 117 has 0.000 % of the basis function pairs === 
 === bvk cell = 118 has 6.838 % of the basis function pairs === 
 === bvk cell = 119 has 23.077 % of the basis function pairs === 
 === bvk cell = 120 has 100.000 % of the basis function pairs === 
 === bvk cell = 121 has 82.692 % of the basis function pairs === 
 === bvk cell = 122 has 23.077 % of the basis function pairs === 
 === bvk cell = 123 has 0.000 % of the basis function pairs === 
 === bvk cell = 124 has 0.000 % of the basis function pairs === 
 === bvk cell = 125 has 0.000 % of the basis function pairs === 
 === bvk cell = 126 has 23.077 % of the basis function pairs === 
 === bvk cell = 127 has 82.692 % of the basis function pairs === 
 === bvk cell = 128 has 42.308 % of the basis function pairs === 
 === bvk cell = 129 has 7.692 % of the basis function pairs === 
 === bvk cell = 130 has 0.000 % of the basis function pairs === 
 === bvk cell = 131 has 0.000 % of the basis function pairs === 
 === bvk cell = 132 has 0.000 % of the basis function pairs === 
 === bvk cell = 133 has 6.838 % of the basis function pairs === 
 === bvk cell = 134 has 30.769 % of the basis function pairs === 
 === bvk cell = 135 has 43.162 % of the basis function pairs === 
 === bvk cell = 136 has 7.692 % of the basis function pairs === 
 === bvk cell = 137 has 0.000 % of the basis function pairs === 
 === bvk cell = 138 has 0.000 % of the basis function pairs === 
 === bvk cell = 139 has 0.000 % of the basis function pairs === 
 === bvk cell = 140 has 0.000 % of the basis function pairs === 
 === bvk cell = 141 has 0.000 % of the basis function pairs === 
 === bvk cell = 142 has 29.915 % of the basis function pairs === 
 === bvk cell = 143 has 23.077 % of the basis function pairs === 
 === bvk cell = 144 has 0.000 % of the basis function pairs === 
 === bvk cell = 145 has 0.000 % of the basis function pairs === 
 === bvk cell = 146 has 0.000 % of the basis function pairs === 
 === bvk cell = 147 has 0.000 % of the basis function pairs === 
 === bvk cell = 148 has 0.000 % of the basis function pairs === 
 === bvk cell = 149 has 0.000 % of the basis function pairs === 
 === bvk cell = 150 has 6.838 % of the basis function pairs === 
 === bvk cell = 151 has 6.838 % of the basis function pairs === 
 === bvk cell = 152 has 0.000 % of the basis function pairs === 
 === bvk cell = 153 has 0.000 % of the basis function pairs === 
 === bvk cell = 154 has 0.000 % of the basis function pairs === 
 === bvk cell = 155 has 0.000 % of the basis function pairs === 
 === bvk cell = 156 has 0.000 % of the basis function pairs === 
 === bvk cell = 157 has 0.000 % of the basis function pairs === 
 === bvk cell = 158 has 0.000 % of the basis function pairs === 
 === bvk cell = 159 has 0.000 % of the basis function pairs === 
 === bvk cell = 160 has 0.000 % of the basis function pairs === 
 === bvk cell = 161 has 0.000 % of the basis function pairs === 
 === bvk cell = 162 has 0.000 % of the basis function pairs === 
 === bvk cell = 163 has 0.000 % of the basis function pairs === 
 === bvk cell = 164 has 0.000 % of the basis function pairs === 
 === bvk cell = 165 has 0.000 % of the basis function pairs === 
 === bvk cell = 166 has 0.000 % of the basis function pairs === 
 === bvk cell = 167 has 0.000 % of the basis function pairs === 
 === bvk cell = 168 has 6.838 % of the basis function pairs === 
 === bvk cell = 169 has 0.000 % of the basis function pairs === 
 === bvk cell = 170 has 0.000 % of the basis function pairs === 
 === bvk cell = 171 has 0.000 % of the basis function pairs === 
 === bvk cell = 172 has 0.000 % of the basis function pairs === 
 === bvk cell = 173 has 0.000 % of the basis function pairs === 
 === bvk cell = 174 has 0.000 % of the basis function pairs === 
 === bvk cell = 175 has 0.000 % of the basis function pairs === 
 === bvk cell = 176 has 30.769 % of the basis function pairs === 
 === bvk cell = 177 has 29.915 % of the basis function pairs === 
 === bvk cell = 178 has 6.838 % of the basis function pairs === 
 === bvk cell = 179 has 0.000 % of the basis function pairs === 
 === bvk cell = 180 has 0.000 % of the basis function pairs === 
 === bvk cell = 181 has 0.000 % of the basis function pairs === 
 === bvk cell = 182 has 6.838 % of the basis function pairs === 
 === bvk cell = 183 has 29.915 % of the basis function pairs === 
 === bvk cell = 184 has 43.162 % of the basis function pairs === 
 === bvk cell = 185 has 23.077 % of the basis function pairs === 
 === bvk cell = 186 has 6.838 % of the basis function pairs === 
 === bvk cell = 187 has 0.000 % of the basis function pairs === 
 === bvk cell = 188 has 0.000 % of the basis function pairs === 
 === bvk cell = 189 has 0.000 % of the basis function pairs === 
 === bvk cell = 190 has 29.915 % of the basis function pairs === 
 === bvk cell = 191 has 30.769 % of the basis function pairs === 
 === bvk cell = 192 has 6.838 % of the basis function pairs === 
 === bvk cell = 193 has 0.000 % of the basis function pairs === 
 === bvk cell = 194 has 0.000 % of the basis function pairs === 
 === bvk cell = 195 has 0.000 % of the basis function pairs === 
 === bvk cell = 196 has 0.000 % of the basis function pairs === 
 === bvk cell = 197 has 0.000 % of the basis function pairs === 
 === bvk cell = 198 has 6.838 % of the basis function pairs === 
 === bvk cell = 199 has 7.692 % of the basis function pairs === 
 === bvk cell = 200 has 0.000 % of the basis function pairs === 
 === bvk cell = 201 has 0.000 % of the basis function pairs === 
 === bvk cell = 202 has 0.000 % of the basis function pairs === 
 === bvk cell = 203 has 0.000 % of the basis function pairs === 
 === bvk cell = 204 has 0.000 % of the basis function pairs === 
 === bvk cell = 205 has 0.000 % of the basis function pairs === 
 === bvk cell = 206 has 0.000 % of the basis function pairs === 
[...]
 0.76792 0.86002 0.90902 0.92482 0.99749 1.02692 1.06228 1.06873 1.14528 1.16700
 1.25853 1.29379 1.42962 1.49774 1.81569 2.07003
 == 461-th k-point (-0.30616,0.61232,-0.00000) occupation: 14==
 -64.99638 -64.99638 -4.62601 -4.62601 -3.03766 -3.03766 -3.03725 -3.03725 -3.03686 -3.03686
 -0.00570 -0.00570 0.13357 0.13357 0.44468 0.44468 0.46780 0.46780 0.68654 0.68654
 0.80148 0.80148 0.95766 0.95766 1.03028 1.03028 1.06388 1.06388 1.08288 1.08288
 1.26003 1.26003 1.46276 1.46277 1.84727 1.84727
 == 462-th k-point (-0.22962,0.68887,-0.07654) occupation: 14==
 -64.99639 -64.99638 -4.62601 -4.62599 -3.03765 -3.03764 -3.03733 -3.03717 -3.03687 -3.03686
 -0.03671 0.02077 0.12586 0.16677 0.37126 0.44462 0.47968 0.56246 0.60624 0.71315
 0.76792 0.86002 0.90902 0.92482 0.99749 1.02692 1.06228 1.06873 1.14528 1.16700
 1.25853 1.29379 1.42962 1.49774 1.81569 2.07003
 == 463-th k-point (-0.15308,0.76541,-0.15308) occupation: 14==
 -64.99639 -64.99638 -4.62601 -4.62597 -3.03764 -3.03763 -3.03739 -3.03711 -3.03688 -3.03687
 -0.06437 0.04087 0.14564 0.19467 0.33856 0.45140 0.49684 0.50726 0.67484 0.70404
 0.76696 0.77389 0.86222 0.93963 1.00753 1.02408 1.07493 1.11435 1.13681 1.24263
 1.32335 1.33092 1.39248 1.61853 1.70392 2.48222
 == 464-th k-point (-0.61232,0.15308,0.45924) occupation: 14==
 -64.99639 -64.99638 -4.62602 -4.62598 -3.03765 -3.03763 -3.03737 -3.03713 -3.03689 -3.03687
 -0.06905 0.05659 0.15180 0.17428 0.35382 0.38265 0.49890 0.58374 0.67723 0.68446
 0.77617 0.81351 0.84256 0.91054 0.97673 1.02531 1.08036 1.09926 1.18138 1.22447
 1.30191 1.32678 1.39896 1.49972 2.02743 2.04322
 == 465-th k-point (-0.53578,0.22962,0.38270) occupation: 14==
 -64.99639 -64.99638 -4.62599 -4.62596 -3.03763 -3.03763 -3.03743 -3.03708 -3.03690 -3.03688
 -0.08279 0.06088 0.15357 0.20535 0.38948 0.41559 0.47271 0.50925 0.64698 0.66307
 0.78040 0.80201 0.85300 0.90050 0.99555 1.04360 1.06754 1.13958 1.19013 1.26022
 1.33919 1.38741 1.42697 1.58922 1.87378 2.37163
 == 466-th k-point (-0.45924,0.30616,0.30616) occupation: 14==
 -64.99639 -64.99638 -4.62597 -4.62596 -3.03762 -3.03762 -3.03746 -3.03705 -3.03690 -3.03689
 -0.08437 0.04073 0.18563 0.22990 0.36910 0.41869 0.42899 0.58262 0.62059 0.65695
 0.76488 0.78628 0.84074 0.86495 0.96116 1.11318 1.12248 1.15747 1.18667 1.28819
 1.36436 1.41872 1.45268 1.55352 1.74746 2.55537
 == 467-th k-point (-0.38270,0.38270,0.22962) occupation: 14==
 -64.99639 -64.99638 -4.62598 -4.62597 -3.03763 -3.03763 -3.03745 -3.03706 -3.03689 -3.03689
 -0.07534 0.02694 0.19244 0.21871 0.36318 0.41411 0.43784 0.56513 0.65620 0.70342
 0.75067 0.76487 0.79852 0.87180 1.00375 1.09409 1.13928 1.14402 1.19757 1.21932
 1.38176 1.41254 1.43492 1.59347 1.65740 2.62013
 == 468-th k-point (-0.30616,0.45924,0.15308) occupation: 14==
 -64.99639 -64.99638 -4.62599 -4.62598 -3.03764 -3.03762 -3.03741 -3.03711 -3.03689 -3.03687
 -0.05866 0.02572 0.14883 0.19663 0.39590 0.40046 0.50546 0.55995 0.56408 0.70940
 0.75468 0.82081 0.89107 0.89732 1.00397 1.04018 1.07957 1.13952 1.14119 1.20676
 1.33569 1.37152 1.42665 1.57161 1.83045 2.38175
 == 469-th k-point (-0.22962,0.53578,0.07654) occupation: 14==
 -64.99639 -64.99638 -4.62601 -4.62599 -3.03765 -3.03764 -3.03733 -3.03717 -3.03687 -3.03686
 -0.03671 0.02077 0.12586 0.16677 0.37126 0.44462 0.47968 0.56246 0.60624 0.71315
 0.76792 0.86002 0.90902 0.92482 0.99749 1.02692 1.06228 1.06873 1.14528 1.16700
 1.25853 1.29379 1.42962 1.49774 1.81569 2.07003
 == 470-th k-point (-0.15308,0.61232,0.00000) occupation: 14==
 -64.99638 -64.99638 -4.62601 -4.62601 -3.03765 -3.03765 -3.03725 -3.03725 -3.03686 -3.03686
 -0.00899 -0.00898 0.14968 0.14968 0.35554 0.35554 0.57862 0.57862 0.68983 0.68983
 0.78957 0.78957 0.89034 0.89034 1.00862 1.00862 1.10373 1.10373 1.15756 1.15756
 1.24735 1.24735 1.41262 1.41262 1.96499 1.96499
 == 471-th k-point (-0.07654,0.68887,-0.07654) occupation: 14==
 -64.99639 -64.99638 -4.62602 -4.62599 -3.03765 -3.03764 -3.03732 -3.03719 -3.03687 -3.03687
 -0.04335 0.02453 0.14897 0.17669 0.31508 0.35579 0.59553 0.59706 0.69353 0.71170
 0.76638 0.77510 0.85455 0.88845 0.97620 1.03164 1.10185 1.11749 1.16210 1.23634
 1.24105 1.27492 1.38343 1.47550 1.81880 2.21017
 == 472-th k-point (-0.53578,0.07654,0.53578) occupation: 14==
 -64.99639 -64.99638 -4.62602 -4.62599 -3.03765 -3.03764 -3.03732 -3.03719 -3.03687 -3.03687
 -0.04335 0.02453 0.14897 0.17669 0.31508 0.35579 0.59553 0.59706 0.69353 0.71170
 0.76638 0.77510 0.85455 0.88845 0.97620 1.03164 1.10185 1.11749 1.16210 1.23634
 1.24105 1.27492 1.38343 1.47550 1.81881 2.21017
 == 473-th k-point (-0.45924,0.15308,0.45924) occupation: 14==
 -64.99639 -64.99638 -4.62601 -4.62597 -3.03764 -3.03763 -3.03739 -3.03711 -3.03688 -3.03687
 -0.06437 0.04087 0.14564 0.19467 0.33856 0.45140 0.49684 0.50726 0.67484 0.70404
 0.76696 0.77389 0.86222 0.93963 1.00753 1.02408 1.07493 1.11435 1.13681 1.24262
 1.32335 1.33092 1.39248 1.61853 1.70393 2.48223
 == 474-th k-point (-0.38270,0.22962,0.38270) occupation: 14==
 -64.99639 -64.99638 -4.62598 -4.62597 -3.03763 -3.03763 -3.03745 -3.03706 -3.03689 -3.03689
 -0.07534 0.02694 0.19244 0.21871 0.36318 0.41411 0.43784 0.56513 0.65620 0.70342
 0.75067 0.76487 0.79852 0.87180 1.00375 1.09409 1.13928 1.14402 1.19757 1.21932
 1.38176 1.41254 1.43492 1.59347 1.65740 2.62013
 == 475-th k-point (-0.30616,0.30616,0.30616) occupation: 14==
 -64.99639 -64.99638 -4.62600 -4.62597 -3.03763 -3.03763 -3.03747 -3.03702 -3.03690 -3.03690
 -0.07850 0.01862 0.23220 0.23220 0.33797 0.40891 0.40891 0.59947 0.70475 0.70475
 0.71573 0.75902 0.75902 0.79162 1.04850 1.05843 1.18867 1.18867 1.23361 1.23361
 1.31259 1.48633 1.48633 1.50295 1.50295 2.61665
 == 476-th k-point (-0.22962,0.38270,0.22962) occupation: 14==
 -64.99639 -64.99638 -4.62598 -4.62597 -3.03763 -3.03763 -3.03745 -3.03706 -3.03689 -3.03689
 -0.07534 0.02694 0.19244 0.21871 0.36318 0.41411 0.43784 0.56513 0.65620 0.70342
 0.75067 0.76487 0.79852 0.87180 1.00375 1.09409 1.13928 1.14402 1.19757 1.21932
 1.38176 1.41254 1.43492 1.59347 1.65740 2.62013
 == 477-th k-point (-0.15308,0.45924,0.15308) occupation: 14==
 -64.99639 -64.99638 -4.62601 -4.62597 -3.03764 -3.03763 -3.03739 -3.03711 -3.03688 -3.03687
 -0.06437 0.04087 0.14564 0.19467 0.33856 0.45140 0.49684 0.50726 0.67484 0.70404
 0.76696 0.77389 0.86222 0.93963 1.00753 1.02408 1.07493 1.11435 1.13681 1.24262
 1.32335 1.33092 1.39248 1.61853 1.70393 2.48223
 == 478-th k-point (-0.07654,0.53578,0.07654) occupation: 14==
 -64.99639 -64.99638 -4.62602 -4.62599 -3.03765 -3.03764 -3.03732 -3.03719 -3.03687 -3.03687
 -0.04335 0.02453 0.14897 0.17669 0.31508 0.35579 0.59553 0.59706 0.69353 0.71170
 0.76638 0.77510 0.85455 0.88845 0.97620 1.03164 1.10185 1.11749 1.16210 1.23634
 1.24105 1.27492 1.38343 1.47550 1.81881 2.21017
 == 479-th k-point (0.00000,0.61232,0.00000) occupation: 14==
 -64.99638 -64.99638 -4.62601 -4.62601 -3.03764 -3.03764 -3.03725 -3.03725 -3.03687 -3.03687
 -0.01196 -0.01196 0.17028 0.17028 0.30840 0.30840 0.65517 0.65517 0.72447 0.72447
 0.77093 0.77093 0.78826 0.78827 1.03919 1.03919 1.13305 1.13305 1.18513 1.18513
 1.25037 1.25037 1.42282 1.42282 1.92003 1.92003
 == 480-th k-point (-0.45924,0.00000,0.61232) occupation: 14==
 -64.99638 -64.99638 -4.62601 -4.62601 -3.03765 -3.03765 -3.03725 -3.03725 -3.03686 -3.03686
 -0.00899 -0.00898 0.14968 0.14968 0.35554 0.35554 0.57862 0.57862 0.68983 0.68983
 0.78957 0.78957 0.89034 0.89034 1.00862 1.00862 1.10373 1.10373 1.15756 1.15756
 1.24735 1.24735 1.41262 1.41262 1.96499 1.96499
 == 481-th k-point (-0.38270,0.07654,0.53578) occupation: 14==
 -64.99639 -64.99638 -4.62601 -4.62599 -3.03765 -3.03764 -3.03733 -3.03717 -3.03687 -3.03686
 -0.03671 0.02077 0.12586 0.16677 0.37126 0.44462 0.47968 0.56246 0.60624 0.71315
 0.76792 0.86002 0.90902 0.92482 0.99749 1.02692 1.06228 1.06873 1.14528 1.16700
 1.25853 1.29379 1.42962 1.49774 1.81569 2.07003
 == 482-th k-point (-0.30616,0.15308,0.45924) occupation: 14==
 -64.99639 -64.99638 -4.62599 -4.62598 -3.03764 -3.03762 -3.03741 -3.03711 -3.03689 -3.03687
 -0.05866 0.02572 0.14883 0.19663 0.39590 0.40046 0.50546 0.55995 0.56408 0.70940
 0.75468 0.82081 0.89107 0.89732 1.00397 1.04018 1.07957 1.13952 1.14119 1.20676
 1.33569 1.37152 1.42665 1.57161 1.83045 2.38175
 == 483-th k-point (-0.22962,0.22962,0.38270) occupation: 14==
 -64.99639 -64.99638 -4.62598 -4.62597 -3.03763 -3.03763 -3.03745 -3.03706 -3.03689 -3.03689
 -0.07534 0.02694 0.19244 0.21871 0.36318 0.41411 0.43784 0.56513 0.65620 0.70342
 0.75067 0.76487 0.79852 0.87180 1.00375 1.09409 1.13928 1.14402 1.19757 1.21932
 1.38176 1.41254 1.43492 1.59347 1.65740 2.62013
 == 484-th k-point (-0.15308,0.30616,0.30616) occupation: 14==
 -64.99639 -64.99638 -4.62597 -4.62596 -3.03762 -3.03762 -3.03746 -3.03705 -3.03690 -3.03689
 -0.08437 0.04073 0.18563 0.22990 0.36910 0.41869 0.42899 0.58262 0.62059 0.65695
 0.76488 0.78628 0.84074 0.86495 0.96116 1.11318 1.12248 1.15747 1.18667 1.28819
 1.36436 1.41872 1.45268 1.55352 1.74746 2.55537
 == 485-th k-point (-0.07654,0.38270,0.22962) occupation: 14==
 -64.99639 -64.99638 -4.62599 -4.62596 -3.03763 -3.03763 -3.03743 -3.03708 -3.03690 -3.03688
 -0.08279 0.06088 0.15357 0.20535 0.38948 0.41559 0.47271 0.50925 0.64698 0.66307
 0.78040 0.80201 0.85300 0.90050 0.99555 1.04360 1.06754 1.13958 1.19013 1.26022
 1.33919 1.38741 1.42697 1.58922 1.87378 2.37163
 == 486-th k-point (0.00000,0.45924,0.15308) occupation: 14==
 -64.99639 -64.99638 -4.62602 -4.62598 -3.03765 -3.03763 -3.03737 -3.03713 -3.03689 -3.03687
 -0.06905 0.05659 0.15180 0.17428 0.35382 0.38265 0.49890 0.58374 0.67723 0.68446
 0.77617 0.81351 0.84256 0.91054 0.97673 1.02531 1.08036 1.09926 1.18138 1.22447
 1.30191 1.32678 1.39896 1.49972 2.02743 2.04322
 == 487-th k-point (0.07654,0.53578,0.07654) occupation: 14==
 -64.99639 -64.99638 -4.62602 -4.62599 -3.03765 -3.03764 -3.03732 -3.03719 -3.03687 -3.03687
 -0.04335 0.02453 0.14897 0.17669 0.31508 0.35579 0.59553 0.59706 0.69353 0.71170
 0.76638 0.77510 0.85455 0.88845 0.97620 1.03164 1.10185 1.11749 1.16210 1.23634
 1.24105 1.27492 1.38343 1.47550 1.81880 2.21017
 == 488-th k-point (-0.38270,-0.07654,0.68887) occupation: 14==
 -64.99639 -64.99638 -4.62601 -4.62599 -3.03765 -3.03764 -3.03733 -3.03717 -3.03687 -3.03686
 -0.03671 0.02077 0.12586 0.16677 0.37126 0.44462 0.47968 0.56246 0.60624 0.71315
 0.76792 0.86002 0.90902 0.92482 0.99749 1.02692 1.06228 1.06873 1.14528 1.16700
 1.25853 1.29379 1.42962 1.49774 1.81569 2.07003
 == 489-th k-point (-0.30616,0.00000,0.61232) occupation: 14==
 -64.99638 -64.99638 -4.62601 -4.62601 -3.03766 -3.03766 -3.03725 -3.03725 -3.03686 -3.03686
 -0.00570 -0.00570 0.13357 0.13357 0.44468 0.44468 0.46780 0.46780 0.68654 0.68654
 0.80148 0.80148 0.95766 0.95766 1.03028 1.03028 1.06388 1.06388 1.08288 1.08288
 1.26003 1.26003 1.46276 1.46277 1.84727 1.84727
 == 490-th k-point (-0.22962,0.07654,0.53578) occupation: 14==
 -64.99639 -64.99638 -4.62601 -4.62599 -3.03765 -3.03764 -3.03733 -3.03717 -3.03687 -3.03686
 -0.03671 0.02077 0.12586 0.16677 0.37126 0.44462 0.47968 0.56246 0.60624 0.71315
 0.76792 0.86002 0.90902 0.92482 0.99749 1.02692 1.06228 1.06873 1.14528 1.16700
 1.25853 1.29379 1.42962 1.49774 1.81569 2.07003
 == 491-th k-point (-0.15308,0.15308,0.45924) occupation: 14==
 -64.99639 -64.99638 -4.62601 -4.62597 -3.03764 -3.03763 -3.03739 -3.03711 -3.03688 -3.03687
 -0.06437 0.04087 0.14564 0.19467 0.33856 0.45140 0.49684 0.50726 0.67484 0.70404
 0.76696 0.77389 0.86222 0.93963 1.00753 1.02408 1.07493 1.11435 1.13681 1.24262
 1.32335 1.33092 1.39248 1.61853 1.70393 2.48223
 == 492-th k-point (-0.07654,0.22962,0.38270) occupation: 14==
 -64.99639 -64.99638 -4.62599 -4.62596 -3.03763 -3.03763 -3.03743 -3.03708 -3.03690 -3.03688
 -0.08279 0.06088 0.15357 0.20535 0.38948 0.41559 0.47271 0.50925 0.64698 0.66307
 0.78040 0.80201 0.85300 0.90050 0.99555 1.04360 1.06754 1.13958 1.19013 1.26022
 1.33919 1.38741 1.42697 1.58922 1.87378 2.37163
 == 493-th k-point (0.00000,0.30616,0.30616) occupation: 14==
 -64.99639 -64.99638 -4.62598 -4.62596 -3.03762 -3.03761 -3.03746 -3.03706 -3.03691 -3.03687
 -0.08917 0.07441 0.13738 0.22775 0.37344 0.45946 0.47811 0.50930 0.56594 0.65921
 0.78509 0.81600 0.84828 0.95240 0.97494 1.01777 1.02965 1.15189 1.24824 1.31213
 1.33289 1.41941 1.42249 1.65228 2.07199 2.17525
 == 494-th k-point (0.07654,0.38270,0.22962) occupation: 14==
 -64.99639 -64.99638 -4.62599 -4.62596 -3.03763 -3.03763 -3.03743 -3.03708 -3.03690 -3.03688
 -0.08279 0.06088 0.15357 0.20535 0.38948 0.41559 0.47271 0.50925 0.64698 0.66307
 0.78040 0.80201 0.85300 0.90050 0.99555 1.04360 1.06754 1.13958 1.19013 1.26022
 1.33919 1.38741 1.42697 1.58922 1.87378 2.37164
 == 495-th k-point (0.15308,0.45924,0.15308) occupation: 14==
 -64.99639 -64.99638 -4.62601 -4.62597 -3.03764 -3.03763 -3.03739 -3.03711 -3.03688 -3.03687
 -0.06437 0.04087 0.14564 0.19467 0.33856 0.45140 0.49684 0.50726 0.67484 0.70404
 0.76696 0.77389 0.86222 0.93963 1.00753 1.02408 1.07493 1.11435 1.13681 1.24263
 1.32335 1.33092 1.39248 1.61853 1.70392 2.48222
 == 496-th k-point (-0.30616,-0.15308,0.76541) occupation: 14==
 -64.99639 -64.99638 -4.62599 -4.62598 -3.03764 -3.03762 -3.03741 -3.03711 -3.03689 -3.03687
 -0.05866 0.02572 0.14883 0.19663 0.39590 0.40046 0.50546 0.55995 0.56408 0.70940
 0.75468 0.82081 0.89107 0.89732 1.00397 1.04018 1.07957 1.13952 1.14119 1.20676
 1.33569 1.37152 1.42665 1.57161 1.83045 2.38175
 == 497-th k-point (-0.22962,-0.07654,0.68887) occupation: 14==
 -64.99639 -64.99638 -4.62601 -4.62599 -3.03765 -3.03764 -3.03733 -3.03717 -3.03687 -3.03686
 -0.03671 0.02077 0.12586 0.16677 0.37126 0.44462 0.47968 0.56246 0.60624 0.71315
 0.76792 0.86002 0.90902 0.92482 0.99749 1.02692 1.06228 1.06873 1.14528 1.16700
 1.25853 1.29379 1.42962 1.49774 1.81569 2.07003
 == 498-th k-point (-0.15308,0.00000,0.61232) occupation: 14==
 -64.99638 -64.99638 -4.62601 -4.62601 -3.03765 -3.03765 -3.03725 -3.03725 -3.03686 -3.03686
 -0.00899 -0.00898 0.14968 0.14968 0.35554 0.35554 0.57862 0.57862 0.68983 0.68983
 0.78957 0.78957 0.89034 0.89034 1.00862 1.00862 1.10373 1.10373 1.15756 1.15756
 1.24735 1.24735 1.41262 1.41262 1.96499 1.96499
 == 499-th k-point (-0.07654,0.07654,0.53578) occupation: 14==
 -64.99639 -64.99638 -4.62602 -4.62599 -3.03765 -3.03764 -3.03732 -3.03719 -3.03687 -3.03687
 -0.04335 0.02453 0.14897 0.17669 0.31508 0.35579 0.59553 0.59706 0.69353 0.71170
 0.76638 0.77510 0.85455 0.88845 0.97620 1.03164 1.10185 1.11749 1.16210 1.23634
 1.24105 1.27492 1.38343 1.47550 1.81881 2.21017
 == 500-th k-point (0.00000,0.15308,0.45924) occupation: 14==
 -64.99639 -64.99638 -4.62602 -4.62598 -3.03765 -3.03763 -3.03737 -3.03713 -3.03689 -3.03687
 -0.06905 0.05659 0.15180 0.17428 0.35382 0.38265 0.49890 0.58374 0.67723 0.68446
 0.77617 0.81351 0.84256 0.91054 0.97673 1.02531 1.08036 1.09926 1.18138 1.22447
 1.30191 1.32678 1.39896 1.49972 2.02743 2.04322
 == 501-th k-point (0.07654,0.22962,0.38270) occupation: 14==
 -64.99639 -64.99638 -4.62599 -4.62596 -3.03763 -3.03763 -3.03743 -3.03708 -3.03690 -3.03688
 -0.08279 0.06088 0.15357 0.20535 0.38948 0.41559 0.47271 0.50925 0.64698 0.66307
 0.78040 0.80201 0.85300 0.90050 0.99555 1.04360 1.06754 1.13958 1.19013 1.26022
 1.33919 1.38741 1.42697 1.58922 1.87378 2.37164
 == 502-th k-point (0.15308,0.30616,0.30616) occupation: 14==
 -64.99639 -64.99638 -4.62597 -4.62596 -3.03762 -3.03762 -3.03746 -3.03705 -3.03690 -3.03689
 -0.08437 0.04073 0.18563 0.22990 0.36910 0.41869 0.42899 0.58262 0.62059 0.65695
 0.76488 0.78628 0.84074 0.86495 0.96116 1.11318 1.12248 1.15747 1.18667 1.28819
 1.36436 1.41872 1.45268 1.55352 1.74746 2.55537
 == 503-th k-point (0.22962,0.38270,0.22962) occupation: 14==
 -64.99639 -64.99638 -4.62598 -4.62597 -3.03763 -3.03763 -3.03745 -3.03706 -3.03689 -3.03689
 -0.07534 0.02694 0.19244 0.21871 0.36318 0.41411 0.43784 0.56513 0.65620 0.70342
 0.75067 0.76487 0.79852 0.87180 1.00375 1.09409 1.13928 1.14402 1.19757 1.21932
 1.38176 1.41254 1.43492 1.59347 1.65740 2.62013
 == 504-th k-point (-0.22962,-0.22962,0.84195) occupation: 14==
 -64.99639 -64.99638 -4.62598 -4.62597 -3.03763 -3.03763 -3.03745 -3.03706 -3.03689 -3.03689
 -0.07534 0.02694 0.19244 0.21871 0.36318 0.41411 0.43784 0.56513 0.65620 0.70342
 0.75067 0.76487 0.79852 0.87180 1.00375 1.09409 1.13928 1.14402 1.19757 1.21932
 1.38176 1.41254 1.43492 1.59347 1.65740 2.62013
 == 505-th k-point (-0.15308,-0.15308,0.76541) occupation: 14==
 -64.99639 -64.99638 -4.62601 -4.62597 -3.03764 -3.03763 -3.03739 -3.03711 -3.03688 -3.03687
 -0.06437 0.04087 0.14564 0.19467 0.33856 0.45140 0.49684 0.50726 0.67484 0.70404
 0.76696 0.77389 0.86222 0.93963 1.00753 1.02408 1.07493 1.11435 1.13681 1.24262
 1.32335 1.33092 1.39248 1.61853 1.70392 2.48222
 == 506-th k-point (-0.07654,-0.07654,0.68887) occupation: 14==
 -64.99639 -64.99638 -4.62602 -4.62599 -3.03765 -3.03764 -3.03732 -3.03719 -3.03687 -3.03687
 -0.04335 0.02453 0.14897 0.17669 0.31508 0.35579 0.59553 0.59706 0.69353 0.71170
 0.76638 0.77510 0.85455 0.88845 0.97620 1.03164 1.10185 1.11749 1.16210 1.23634
 1.24105 1.27492 1.38343 1.47550 1.81880 2.21017
 == 507-th k-point (0.00000,0.00000,0.61232) occupation: 14==
 -64.99638 -64.99638 -4.62601 -4.62601 -3.03764 -3.03764 -3.03725 -3.03725 -3.03687 -3.03687
 -0.01196 -0.01196 0.17028 0.17028 0.30840 0.30840 0.65517 0.65517 0.72447 0.72447
 0.77093 0.77093 0.78826 0.78827 1.03919 1.03919 1.13305 1.13305 1.18513 1.18513
 1.25037 1.25037 1.42282 1.42282 1.92003 1.92003
 == 508-th k-point (0.07654,0.07654,0.53578) occupation: 14==
 -64.99639 -64.99638 -4.62602 -4.62599 -3.03765 -3.03764 -3.03732 -3.03719 -3.03687 -3.03687
 -0.04335 0.02453 0.14897 0.17669 0.31508 0.35579 0.59553 0.59706 0.69353 0.71170
 0.76638 0.77510 0.85455 0.88845 0.97620 1.03164 1.10185 1.11749 1.16210 1.23634
 1.24105 1.27492 1.38343 1.47550 1.81880 2.21017
 == 509-th k-point (0.15308,0.15308,0.45924) occupation: 14==
 -64.99639 -64.99638 -4.62601 -4.62597 -3.03764 -3.03763 -3.03739 -3.03711 -3.03688 -3.03687
 -0.06437 0.04087 0.14564 0.19467 0.33856 0.45140 0.49684 0.50726 0.67484 0.70404
 0.76696 0.77389 0.86222 0.93963 1.00753 1.02408 1.07493 1.11435 1.13681 1.24262
 1.32335 1.33092 1.39248 1.61853 1.70392 2.48222
 == 510-th k-point (0.22962,0.22962,0.38270) occupation: 14==
 -64.99639 -64.99638 -4.62598 -4.62597 -3.03763 -3.03763 -3.03745 -3.03706 -3.03689 -3.03689
 -0.07534 0.02694 0.19244 0.21871 0.36318 0.41411 0.43784 0.56513 0.65620 0.70342
 0.75067 0.76487 0.79852 0.87180 1.00375 1.09409 1.13928 1.14402 1.19757 1.21932
 1.38176 1.41254 1.43492 1.59347 1.65740 2.62013
 == 511-th k-point (0.30616,0.30616,0.30616) occupation: 14==
 -64.99639 -64.99638 -4.62600 -4.62597 -3.03763 -3.03763 -3.03747 -3.03702 -3.03690 -3.03690
 -0.07850 0.01862 0.23220 0.23220 0.33797 0.40891 0.40891 0.59947 0.70475 0.70475
 0.71573 0.75902 0.75902 0.79162 1.04850 1.05843 1.18867 1.18867 1.23361 1.23361
 1.31259 1.48633 1.48633 1.50295 1.50295 2.61665
 ---------------------------------------------------------------------------
 VBM is at 219-th k-point with 7.58715 eV
 CBM is at 192-th k-point with 8.26725 eV
 Band gap is 0.68010 eV


           Ground-State Mulliken Net Atomic Charges

      Atom                 Charge (a.u.)          Spin (a.u.)
   --------------------------------------------------------
      1 Si               (0.000002,-0.000000)    (0.000000,0.000000)
      2 Si               (-0.000002,0.000000)    (0.000000,0.000000)
   --------------------------------------------------------
  Sum of atomic charges =      (-0.000000,0.000000)
  Sum of spin   charges =       (0.000000,0.000000)



 Total job time:  92.72 s.
 Tue Sep  9 11:11:18 2025


        *************************************************************
        *                                                           *
        *  Thank you very much for using QCPBC. Have a nice day.    *
        *                                                           *
        *************************************************************

Running job 1 of 1
