                  Welcome to Q-Chem
           with Periodic Boundary Condition
     A Quantum Leap Into The Future Of Chemistry

 Adam Rettig, Xintian Feng, Meng-Fu Chen, Hieu Dinh, Stephen Quiton,
 Anton Ni, Paul J. Robinson, Jinghong Zhang, Joonho Lee

Contributors to earlier versions of Q-Chem not listed above:
 Evgeny Epifanovsky, Leo Cunha, Jerome F. Gonthier, Kuan-Yu Liu
 Input file: /n/netscratch/joonholee_lab/Lab/hieudinh//si_2_ccpvdz_omega_0.6_999.scratch20250909111304/si_2_ccpvdz_omega_0.6_999.0
 Scratch folder: /n/netscratch/joonholee_lab/Lab/hieudinh//si_2_ccpvdz_omega_0.6_999.scratch20250909111304
 Auxillary files located at: /n/holylabs/LABS/joonholee_lab/Lab/qchem_base/qcaux
 Q-Chem begins on Tue Sep  9 11:13:05 2025

 -------------------------------------------------------------
 User input:
 -------------------------------------------------------------
 $lattice
 3
 0.000000 5.130600 5.130600
 5.130600 0.000000 5.130600
 5.130600 5.130600 0.000000
 $end
 
 $unitcell
 ABSOLUTE
 0 1
 Si 0.000000 0.000000 0.000000
 Si 2.565300 2.565300 2.565300
 $end
 
 $rem
 jobtype = sp
 method = pbe
 scf_convergence = 5
 scf_guess = autosad
 scf_algorithm = diis_gdm
 basis = cc-pvdz
 aux_basis = cc-pvtz-jk
 input_bohr = true
 symmetry = false
 rsdf_print_level 1
 is_basis_uctr true
 
 mp_mesh = [9,9,9]
 
 integral_direct true
 bvk_cgto true
 
 thresh 14
 mem_total 1000000
 threads 32
 
 MAX_SCF_CYCLES 500
 madelung = false
 omega 0.6
 do_rij_bigmem true
 automate_g true
 print_level 10
 grid_type_xc 1
 
 thresh_1e2c_sp 1e-14
 thresh_2e3c_bra_ket_sep 1e-10
 thresh_g 1e-12
 $end
 
 -------------------------------------------------------------
 Running PBC job

 Requested Exchange Correlation Functionals: 
  DFT Exchange:  1.00000 pbe_x
  DFT Correlation:  1.00000 pbe_c
 using 32 threads for computing.
 ---------------------------------------------------------------
      Coordinates of Atoms in Central Unit Cell (Angstroms)
    I     Atom         X            Y            Z
 ---------------------------------------------------------------
    1      Si      0.000000     0.000000     0.000000
    2      Si      1.357498     1.357498     1.357498
 ---------------------------------------------------------------
 --------------------------------------------------
              Lattice Vectors (Angstroms)
              X            Y            Z
 --------------------------------------------------
   X       0.000000     2.714997     2.714997
   Y       2.714997     0.000000     2.714997
   Z       2.714997     2.714997     0.000000
 --------------------------------------------------
 --------------------------------------------------
       Reciprocal Lattice Vectors (Angstroms^-1)
              X            Y            Z
 --------------------------------------------------
   X      -1.157126     1.157126     1.157126
   Y       1.157126    -1.157126     1.157126
   Z       1.157126     1.157126    -1.157126
 --------------------------------------------------

 Single point calculation requested

 Hamiltonian contributions:
 List of terms in Hamiltonian: kpts_nn, kpts_kinetic, kpts_vnuc_df, kpts_xc, kpts_rij_bigmem

 K-Points calculation started.

 Basis set information about using solid harmonic (1) or Cartesian (0):
  si : D(1) 

 Basis set information about using solid harmonic (1) or Cartesian (0):
  si : D(1) D(1) D(1) D(1) D(1) D(1) D(1) D(1) D(1) F(1) F(1) F(1) G(1) 

 There are 36 basis functions in the central unit cell.
 Print atomic basis of atoms in the central unit cell:
 -------------------------------------------------------------
2 84 84 16

  0.00000000000000e+00  0.00000000000000e+00  0.00000000000000e+00
  2.56530000000000e+00  2.56530000000000e+00  2.56530000000000e+00

  7.88600000000000e+04
  1.18200000000000e+04
  2.69200000000000e+03
  7.63400000000000e+02
  2.49600000000000e+02
  9.02800000000000e+01
  3.52900000000000e+01
  1.45100000000000e+01
  4.05300000000000e+00
  7.88600000000000e+04
  1.18200000000000e+04
  2.69200000000000e+03
  2.49600000000000e+02
  9.02800000000000e+01
  3.52900000000000e+01
  1.45100000000000e+01
  4.05300000000000e+00
  1.48200000000000e+00
  7.88600000000000e+04
  1.18200000000000e+04
  2.69200000000000e+03
  9.02800000000000e+01
  3.52900000000000e+01
  1.45100000000000e+01
  4.05300000000000e+00
  1.48200000000000e+00
  2.51700000000000e-01
  9.24300000000000e-02
  3.15900000000000e+02
  7.44200000000000e+01
  2.34800000000000e+01
  8.48800000000000e+00
  3.21700000000000e+00
  1.22900000000000e+00
  7.44200000000000e+01
  2.34800000000000e+01
  8.48800000000000e+00
  3.21700000000000e+00
  1.22900000000000e+00
  2.96400000000000e-01
  8.76800000000000e-02
  2.75000000000000e-01
  7.88600000000000e+04
  1.18200000000000e+04
  2.69200000000000e+03
  7.63400000000000e+02
  2.49600000000000e+02
  9.02800000000000e+01
  3.52900000000000e+01
  1.45100000000000e+01
  4.05300000000000e+00
  7.88600000000000e+04
  1.18200000000000e+04
  2.69200000000000e+03
  2.49600000000000e+02
  9.02800000000000e+01
  3.52900000000000e+01
  1.45100000000000e+01
  4.05300000000000e+00
  1.48200000000000e+00
  7.88600000000000e+04
  1.18200000000000e+04
  2.69200000000000e+03
  9.02800000000000e+01
  3.52900000000000e+01
  1.45100000000000e+01
  4.05300000000000e+00
  1.48200000000000e+00
  2.51700000000000e-01
  9.24300000000000e-02
  3.15900000000000e+02
  7.44200000000000e+01
  2.34800000000000e+01
  8.48800000000000e+00
  3.21700000000000e+00
  1.22900000000000e+00
  7.44200000000000e+01
  2.34800000000000e+01
  8.48800000000000e+00
  3.21700000000000e+00
  1.22900000000000e+00
  2.96400000000000e-01
  8.76800000000000e-02
  2.75000000000000e-01

  9.06253754413352e-01
  1.69293104204437e+00
  2.88765135213002e+00
  4.51686717623273e+00
  6.15495015249549e+00
  6.60292741422250e+00
  4.31307094498082e+00
  1.11211258821928e+00
  3.28871017883051e-02
  1.81811499558714e-03
  7.82084807797983e-03
 -3.64325186414446e-03
 -1.38589915538590e-01
 -3.09231066968474e-01
 -8.37223961363792e-01
 -2.35283994917911e-01
  1.05074974557404e+00
  5.58607098057301e-01
 -3.73189052056138e-04
 -4.34506392374390e-04
 -1.25465717071959e-03
  1.25391036214459e-02
  2.72204657714548e-02
  2.48300227161584e-02
 -1.48880417762021e-01
 -3.39029634838718e-01
  2.96723365521804e-01
  1.19473010431857e-01
  7.49634571599597e+00
  9.36025063316295e+00
  9.42818987380764e+00
  6.66500330898836e+00
  2.81728351118454e+00
  4.95548501763808e-01
  1.33801616421722e-01
 -1.41076498099296e-01
  2.71250274850203e-02
 -2.30271473527780e-01
  1.34383996261684e-01
  3.01514460345638e-01
  6.80089021682769e-02
  1.71886461192366e-01
  9.06253754413352e-01
  1.69293104204437e+00
  2.88765135213002e+00
  4.51686717623273e+00
  6.15495015249549e+00
  6.60292741422250e+00
  4.31307094498082e+00
  1.11211258821928e+00
  3.28871017883051e-02
  1.81811499558714e-03
  7.82084807797983e-03
 -3.64325186414446e-03
 -1.38589915538590e-01
 -3.09231066968474e-01
 -8.37223961363792e-01
 -2.35283994917911e-01
  1.05074974557404e+00
  5.58607098057301e-01
 -3.73189052056138e-04
 -4.34506392374390e-04
 -1.25465717071959e-03
  1.25391036214459e-02
  2.72204657714548e-02
  2.48300227161584e-02
 -1.48880417762021e-01
 -3.39029634838718e-01
  2.96723365521804e-01
  1.19473010431857e-01
  7.49634571599597e+00
  9.36025063316295e+00
  9.42818987380764e+00
  6.66500330898836e+00
  2.81728351118454e+00
  4.95548501763808e-01
  1.33801616421722e-01
 -1.41076498099296e-01
  2.71250274850203e-02
 -2.30271473527780e-01
  1.34383996261684e-01
  3.01514460345638e-01
  6.80089021682769e-02
  1.71886461192366e-01

0 0 0 0 1 1 1
0 0 
9 0

0 1 1 9 1 1 1
9 0 
9 0

0 2 2 18 1 1 1
18 0 
9 0

0 3 3 27 1 1 1
27 0 
1 0

0 4 4 28 1 3 3
28 1 
6 0

0 7 7 34 1 3 3
34 1 
6 0

0 10 10 40 1 3 3
40 1 
1 0

0 13 13 41 1 5 6
41 2 
1 1

1 18 18 42 1 1 1
42 0 
9 0

1 19 19 51 1 1 1
51 0 
9 0

1 20 20 60 1 1 1
60 0 
9 0

1 21 21 69 1 1 1
69 0 
1 0

1 22 22 70 1 3 3
70 1 
6 0

1 25 25 76 1 3 3
76 1 
6 0

1 28 28 82 1 3 3
82 1 
1 0

1 31 31 83 1 5 6
83 2 
1 1

 -------------------------------------------------------------
 Allocate 259112 B from available memory: 1048576000000 B
 There are 1331 image cells after screening.
 There are 1221 image cells for CGTO evaluation after screening.
 Real-Space grid for FFT initialized based on kinetic energy cutoff (eV) = 500.0
 Real-Space grid for FFT: (10,10,10)
 There are 9261 real-space grid points.
 There are 64 batches of real-space grid points. 
 Size of each grid batch is around 128
 Grid for AFT initialized based on kinetic energy cutoff (eV) = 500.0
 Real-Space grid for AFT: (10,10,10)
 There are 9261 real-space grid points.

 There are 5456 atom-centered grid points.

 Spacegroup symmetry group: Fd-3m
 Reducing spacegroup symmetry to symmorphic group: F -4 3 m
 Monkhorst-Pack mesh is [9,9,9]
 There are 729 k points.
kpoints in Bohr
-0.2721442719 -0.2721442719 -0.2721442719
-0.2041082040 -0.2041082040 -0.3401803399
-0.1360721360 -0.1360721360 -0.4082164079
-0.0680360680 -0.0680360680 -0.4762524759
-0.0000000000 -0.0000000000 -0.5442885439
0.0680360680 0.0680360680 -0.6123246119
0.1360721360 0.1360721360 -0.6803606798
0.2041082040 0.2041082040 -0.7483967478
0.2721442719 0.2721442719 -0.8164328158
-0.2041082040 -0.3401803399 -0.2041082040
-0.1360721360 -0.2721442719 -0.2721442719
-0.0680360680 -0.2041082040 -0.3401803399
-0.0000000000 -0.1360721360 -0.4082164079
0.0680360680 -0.0680360680 -0.4762524759
0.1360721360 -0.0000000000 -0.5442885439
0.2041082040 0.0680360680 -0.6123246119
0.2721442719 0.1360721360 -0.6803606798
0.3401803399 0.2041082040 -0.7483967478
-0.1360721360 -0.4082164079 -0.1360721360
-0.0680360680 -0.3401803399 -0.2041082040
-0.0000000000 -0.2721442719 -0.2721442719
0.0680360680 -0.2041082040 -0.3401803399
0.1360721360 -0.1360721360 -0.4082164079
0.2041082040 -0.0680360680 -0.4762524759
0.2721442719 -0.0000000000 -0.5442885439
0.3401803399 0.0680360680 -0.6123246119
0.4082164079 0.1360721360 -0.6803606798
-0.0680360680 -0.4762524759 -0.0680360680
-0.0000000000 -0.4082164079 -0.1360721360
0.0680360680 -0.3401803399 -0.2041082040
0.1360721360 -0.2721442719 -0.2721442719
0.2041082040 -0.2041082040 -0.3401803399
0.2721442719 -0.1360721360 -0.4082164079
0.3401803399 -0.0680360680 -0.4762524759
0.4082164079 0.0000000000 -0.5442885439
0.4762524759 0.0680360680 -0.6123246119
-0.0000000000 -0.5442885439 0.0000000000
0.0680360680 -0.4762524759 -0.0680360680
0.1360721360 -0.4082164079 -0.1360721360
0.2041082040 -0.3401803399 -0.2041082040
0.2721442719 -0.2721442719 -0.2721442719
0.3401803399 -0.2041082040 -0.3401803399
0.4082164079 -0.1360721360 -0.4082164079
0.4762524759 -0.0680360680 -0.4762524759
0.5442885439 0.0000000000 -0.5442885439
0.0680360680 -0.6123246119 0.0680360680
0.1360721360 -0.5442885439 -0.0000000000
0.2041082040 -0.4762524759 -0.0680360680
0.2721442719 -0.4082164079 -0.1360721360
0.3401803399 -0.3401803399 -0.2041082040
0.4082164079 -0.2721442719 -0.2721442719
0.4762524759 -0.2041082040 -0.3401803399
0.5442885439 -0.1360721360 -0.4082164079
0.6123246119 -0.0680360680 -0.4762524759
0.1360721360 -0.6803606798 0.1360721360
0.2041082040 -0.6123246119 0.0680360680
0.2721442719 -0.5442885439 0.0000000000
0.3401803399 -0.4762524759 -0.0680360680
0.4082164079 -0.4082164079 -0.1360721360
0.4762524759 -0.3401803399 -0.2041082040
0.5442885439 -0.2721442719 -0.2721442719
0.6123246119 -0.2041082040 -0.3401803399
0.6803606798 -0.1360721360 -0.4082164079
0.2041082040 -0.7483967478 0.2041082040
0.2721442719 -0.6803606798 0.1360721360
0.3401803399 -0.6123246119 0.0680360680
0.4082164079 -0.5442885439 0.0000000000
0.4762524759 -0.4762524759 -0.0680360680
0.5442885439 -0.4082164079 -0.1360721360
0.6123246119 -0.3401803399 -0.2041082040
0.6803606798 -0.2721442719 -0.2721442719
0.7483967478 -0.2041082040 -0.3401803399
0.2721442719 -0.8164328158 0.2721442719
0.3401803399 -0.7483967478 0.2041082040
0.4082164079 -0.6803606798 0.1360721360
0.4762524759 -0.6123246119 0.0680360680
0.5442885439 -0.5442885439 0.0000000000
0.6123246119 -0.4762524759 -0.0680360680
0.6803606798 -0.4082164079 -0.1360721360
0.7483967478 -0.3401803399 -0.2041082040
0.8164328158 -0.2721442719 -0.2721442719
-0.3401803399 -0.2041082040 -0.2041082040
-0.2721442719 -0.1360721360 -0.2721442719
-0.2041082040 -0.0680360680 -0.3401803399
-0.1360721360 -0.0000000000 -0.4082164079
-0.0680360680 0.0680360680 -0.4762524759
-0.0000000000 0.1360721360 -0.5442885439
0.0680360680 0.2041082040 -0.6123246119
0.1360721360 0.2721442719 -0.6803606798
0.2041082040 0.3401803399 -0.7483967478
-0.2721442719 -0.2721442719 -0.1360721360
-0.2041082040 -0.2041082040 -0.2041082040
-0.1360721360 -0.1360721360 -0.2721442719
-0.0680360680 -0.0680360680 -0.3401803399
-0.0000000000 -0.0000000000 -0.4082164079
0.0680360680 0.0680360680 -0.4762524759
0.1360721360 0.1360721360 -0.5442885439
0.2041082040 0.2041082040 -0.6123246119
0.2721442719 0.2721442719 -0.6803606798
-0.2041082040 -0.3401803399 -0.0680360680
-0.1360721360 -0.2721442719 -0.1360721360
-0.0680360680 -0.2041082040 -0.2041082040
-0.0000000000 -0.1360721360 -0.2721442719
0.0680360680 -0.0680360680 -0.3401803399
0.1360721360 -0.0000000000 -0.4082164079
0.2041082040 0.0680360680 -0.4762524759
0.2721442719 0.1360721360 -0.5442885439
0.3401803399 0.2041082040 -0.6123246119
-0.1360721360 -0.4082164079 0.0000000000
-0.0680360680 -0.3401803399 -0.0680360680
-0.0000000000 -0.2721442719 -0.1360721360
0.0680360680 -0.2041082040 -0.2041082040
0.1360721360 -0.1360721360 -0.2721442719
0.2041082040 -0.0680360680 -0.3401803399
0.2721442719 -0.0000000000 -0.4082164079
0.3401803399 0.0680360680 -0.4762524759
0.4082164079 0.1360721360 -0.5442885439
-0.0680360680 -0.4762524759 0.0680360680
-0.0000000000 -0.4082164079 0.0000000000
0.0680360680 -0.3401803399 -0.0680360680
0.1360721360 -0.2721442719 -0.1360721360
0.2041082040 -0.2041082040 -0.2041082040
0.2721442719 -0.1360721360 -0.2721442719
0.3401803399 -0.0680360680 -0.3401803399
0.4082164079 0.0000000000 -0.4082164079
0.4762524759 0.0680360680 -0.4762524759
-0.0000000000 -0.5442885439 0.1360721360
0.0680360680 -0.4762524759 0.0680360680
0.1360721360 -0.4082164079 0.0000000000
0.2041082040 -0.3401803399 -0.0680360680
0.2721442719 -0.2721442719 -0.1360721360
0.3401803399 -0.2041082040 -0.2041082040
0.4082164079 -0.1360721360 -0.2721442719
0.4762524759 -0.0680360680 -0.3401803399
0.5442885439 0.0000000000 -0.4082164079
0.0680360680 -0.6123246119 0.2041082040
0.1360721360 -0.5442885439 0.1360721360
0.2041082040 -0.4762524759 0.0680360680
0.2721442719 -0.4082164079 0.0000000000
0.3401803399 -0.3401803399 -0.0680360680
0.4082164079 -0.2721442719 -0.1360721360
0.4762524759 -0.2041082040 -0.2041082040
0.5442885439 -0.1360721360 -0.2721442719
0.6123246119 -0.0680360680 -0.3401803399
0.1360721360 -0.6803606798 0.2721442719
0.2041082040 -0.6123246119 0.2041082040
0.2721442719 -0.5442885439 0.1360721360
0.3401803399 -0.4762524759 0.0680360680
0.4082164079 -0.4082164079 0.0000000000
0.4762524759 -0.3401803399 -0.0680360680
0.5442885439 -0.2721442719 -0.1360721360
0.6123246119 -0.2041082040 -0.2041082040
0.6803606798 -0.1360721360 -0.2721442719
0.2041082040 -0.7483967478 0.3401803399
0.2721442719 -0.6803606798 0.2721442719
0.3401803399 -0.6123246119 0.2041082040
0.4082164079 -0.5442885439 0.1360721360
0.4762524759 -0.4762524759 0.0680360680
0.5442885439 -0.4082164079 0.0000000000
0.6123246119 -0.3401803399 -0.0680360680
0.6803606798 -0.2721442719 -0.1360721360
0.7483967478 -0.2041082040 -0.2041082040
-0.4082164079 -0.1360721360 -0.1360721360
-0.3401803399 -0.0680360680 -0.2041082040
-0.2721442719 -0.0000000000 -0.2721442719
-0.2041082040 0.0680360680 -0.3401803399
-0.1360721360 0.1360721360 -0.4082164079
-0.0680360680 0.2041082040 -0.4762524759
-0.0000000000 0.2721442719 -0.5442885439
0.0680360680 0.3401803399 -0.6123246119
0.1360721360 0.4082164079 -0.6803606798
-0.3401803399 -0.2041082040 -0.0680360680
-0.2721442719 -0.1360721360 -0.1360721360
-0.2041082040 -0.0680360680 -0.2041082040
-0.1360721360 -0.0000000000 -0.2721442719
-0.0680360680 0.0680360680 -0.3401803399
-0.0000000000 0.1360721360 -0.4082164079
0.0680360680 0.2041082040 -0.4762524759
0.1360721360 0.2721442719 -0.5442885439
0.2041082040 0.3401803399 -0.6123246119
-0.2721442719 -0.2721442719 0.0000000000
-0.2041082040 -0.2041082040 -0.0680360680
-0.1360721360 -0.1360721360 -0.1360721360
-0.0680360680 -0.0680360680 -0.2041082040
-0.0000000000 -0.0000000000 -0.2721442719
0.0680360680 0.0680360680 -0.3401803399
0.1360721360 0.1360721360 -0.4082164079
0.2041082040 0.2041082040 -0.4762524759
0.2721442719 0.2721442719 -0.5442885439
-0.2041082040 -0.3401803399 0.0680360680
-0.1360721360 -0.2721442719 -0.0000000000
-0.0680360680 -0.2041082040 -0.0680360680
-0.0000000000 -0.1360721360 -0.1360721360
0.0680360680 -0.0680360680 -0.2041082040
0.1360721360 -0.0000000000 -0.2721442719
0.2041082040 0.0680360680 -0.3401803399
0.2721442719 0.1360721360 -0.4082164079
0.3401803399 0.2041082040 -0.4762524759
-0.1360721360 -0.4082164079 0.1360721360
-0.0680360680 -0.3401803399 0.0680360680
-0.0000000000 -0.2721442719 0.0000000000
0.0680360680 -0.2041082040 -0.0680360680
0.1360721360 -0.1360721360 -0.1360721360
0.2041082040 -0.0680360680 -0.2041082040
0.2721442719 0.0000000000 -0.2721442719
0.3401803399 0.0680360680 -0.3401803399
0.4082164079 0.1360721360 -0.4082164079
-0.0680360680 -0.4762524759 0.2041082040
-0.0000000000 -0.4082164079 0.1360721360
0.0680360680 -0.3401803399 0.0680360680
0.1360721360 -0.2721442719 0.0000000000
0.2041082040 -0.2041082040 -0.0680360680
0.2721442719 -0.1360721360 -0.1360721360
0.3401803399 -0.0680360680 -0.2041082040
0.4082164079 0.0000000000 -0.2721442719
0.4762524759 0.0680360680 -0.3401803399
-0.0000000000 -0.5442885439 0.2721442719
0.0680360680 -0.4762524759 0.2041082040
0.1360721360 -0.4082164079 0.1360721360
0.2041082040 -0.3401803399 0.0680360680
0.2721442719 -0.2721442719 0.0000000000
0.3401803399 -0.2041082040 -0.0680360680
0.4082164079 -0.1360721360 -0.1360721360
0.4762524759 -0.0680360680 -0.2041082040
0.5442885439 0.0000000000 -0.2721442719
0.0680360680 -0.6123246119 0.3401803399
0.1360721360 -0.5442885439 0.2721442719
0.2041082040 -0.4762524759 0.2041082040
0.2721442719 -0.4082164079 0.1360721360
0.3401803399 -0.3401803399 0.0680360680
0.4082164079 -0.2721442719 0.0000000000
0.4762524759 -0.2041082040 -0.0680360680
0.5442885439 -0.1360721360 -0.1360721360
0.6123246119 -0.0680360680 -0.2041082040
0.1360721360 -0.6803606798 0.4082164079
0.2041082040 -0.6123246119 0.3401803399
0.2721442719 -0.5442885439 0.2721442719
0.3401803399 -0.4762524759 0.2041082040
0.4082164079 -0.4082164079 0.1360721360
0.4762524759 -0.3401803399 0.0680360680
0.5442885439 -0.2721442719 0.0000000000
0.6123246119 -0.2041082040 -0.0680360680
0.6803606798 -0.1360721360 -0.1360721360
-0.4762524759 -0.0680360680 -0.0680360680
-0.4082164079 -0.0000000000 -0.1360721360
-0.3401803399 0.0680360680 -0.2041082040
-0.2721442719 0.1360721360 -0.2721442719
-0.2041082040 0.2041082040 -0.3401803399
-0.1360721360 0.2721442719 -0.4082164079
-0.0680360680 0.3401803399 -0.4762524759
0.0000000000 0.4082164079 -0.5442885439
0.0680360680 0.4762524759 -0.6123246119
-0.4082164079 -0.1360721360 0.0000000000
-0.3401803399 -0.0680360680 -0.0680360680
-0.2721442719 -0.0000000000 -0.1360721360
-0.2041082040 0.0680360680 -0.2041082040
-0.1360721360 0.1360721360 -0.2721442719
-0.0680360680 0.2041082040 -0.3401803399
0.0000000000 0.2721442719 -0.4082164079
0.0680360680 0.3401803399 -0.4762524759
0.1360721360 0.4082164079 -0.5442885439
-0.3401803399 -0.2041082040 0.0680360680
-0.2721442719 -0.1360721360 -0.0000000000
-0.2041082040 -0.0680360680 -0.0680360680
-0.1360721360 -0.0000000000 -0.1360721360
-0.0680360680 0.0680360680 -0.2041082040
-0.0000000000 0.1360721360 -0.2721442719
0.0680360680 0.2041082040 -0.3401803399
0.1360721360 0.2721442719 -0.4082164079
0.2041082040 0.3401803399 -0.4762524759
-0.2721442719 -0.2721442719 0.1360721360
-0.2041082040 -0.2041082040 0.0680360680
-0.1360721360 -0.1360721360 0.0000000000
-0.0680360680 -0.0680360680 -0.0680360680
-0.0000000000 -0.0000000000 -0.1360721360
0.0680360680 0.0680360680 -0.2041082040
0.1360721360 0.1360721360 -0.2721442719
0.2041082040 0.2041082040 -0.3401803399
0.2721442719 0.2721442719 -0.4082164079
-0.2041082040 -0.3401803399 0.2041082040
-0.1360721360 -0.2721442719 0.1360721360
-0.0680360680 -0.2041082040 0.0680360680
-0.0000000000 -0.1360721360 0.0000000000
0.0680360680 -0.0680360680 -0.0680360680
0.1360721360 0.0000000000 -0.1360721360
0.2041082040 0.0680360680 -0.2041082040
0.2721442719 0.1360721360 -0.2721442719
0.3401803399 0.2041082040 -0.3401803399
-0.1360721360 -0.4082164079 0.2721442719
-0.0680360680 -0.3401803399 0.2041082040
-0.0000000000 -0.2721442719 0.1360721360
0.0680360680 -0.2041082040 0.0680360680
0.1360721360 -0.1360721360 0.0000000000
0.2041082040 -0.0680360680 -0.0680360680
0.2721442719 0.0000000000 -0.1360721360
0.3401803399 0.0680360680 -0.2041082040
0.4082164079 0.1360721360 -0.2721442719
-0.0680360680 -0.4762524759 0.3401803399
-0.0000000000 -0.4082164079 0.2721442719
0.0680360680 -0.3401803399 0.2041082040
0.1360721360 -0.2721442719 0.1360721360
0.2041082040 -0.2041082040 0.0680360680
0.2721442719 -0.1360721360 0.0000000000
0.3401803399 -0.0680360680 -0.0680360680
0.4082164079 0.0000000000 -0.1360721360
0.4762524759 0.0680360680 -0.2041082040
-0.0000000000 -0.5442885439 0.4082164079
0.0680360680 -0.4762524759 0.3401803399
0.1360721360 -0.4082164079 0.2721442719
0.2041082040 -0.3401803399 0.2041082040
0.2721442719 -0.2721442719 0.1360721360
0.3401803399 -0.2041082040 0.0680360680
0.4082164079 -0.1360721360 0.0000000000
0.4762524759 -0.0680360680 -0.0680360680
0.5442885439 0.0000000000 -0.1360721360
0.0680360680 -0.6123246119 0.4762524759
0.1360721360 -0.5442885439 0.4082164079
0.2041082040 -0.4762524759 0.3401803399
0.2721442719 -0.4082164079 0.2721442719
0.3401803399 -0.3401803399 0.2041082040
0.4082164079 -0.2721442719 0.1360721360
0.4762524759 -0.2041082040 0.0680360680
0.5442885439 -0.1360721360 0.0000000000
0.6123246119 -0.0680360680 -0.0680360680
-0.5442885439 -0.0000000000 0.0000000000
-0.4762524759 0.0680360680 -0.0680360680
-0.4082164079 0.1360721360 -0.1360721360
-0.3401803399 0.2041082040 -0.2041082040
-0.2721442719 0.2721442719 -0.2721442719
-0.2041082040 0.3401803399 -0.3401803399
-0.1360721360 0.4082164079 -0.4082164079
-0.0680360680 0.4762524759 -0.4762524759
0.0000000000 0.5442885439 -0.5442885439
-0.4762524759 -0.0680360680 0.0680360680
-0.4082164079 -0.0000000000 -0.0000000000
-0.3401803399 0.0680360680 -0.0680360680
-0.2721442719 0.1360721360 -0.1360721360
-0.2041082040 0.2041082040 -0.2041082040
-0.1360721360 0.2721442719 -0.2721442719
-0.0680360680 0.3401803399 -0.3401803399
0.0000000000 0.4082164079 -0.4082164079
0.0680360680 0.4762524759 -0.4762524759
-0.4082164079 -0.1360721360 0.1360721360
-0.3401803399 -0.0680360680 0.0680360680
-0.2721442719 -0.0000000000 0.0000000000
-0.2041082040 0.0680360680 -0.0680360680
-0.1360721360 0.1360721360 -0.1360721360
-0.0680360680 0.2041082040 -0.2041082040
0.0000000000 0.2721442719 -0.2721442719
0.0680360680 0.3401803399 -0.3401803399
0.1360721360 0.4082164079 -0.4082164079
-0.3401803399 -0.2041082040 0.2041082040
-0.2721442719 -0.1360721360 0.1360721360
-0.2041082040 -0.0680360680 0.0680360680
-0.1360721360 -0.0000000000 0.0000000000
-0.0680360680 0.0680360680 -0.0680360680
0.0000000000 0.1360721360 -0.1360721360
0.0680360680 0.2041082040 -0.2041082040
0.1360721360 0.2721442719 -0.2721442719
0.2041082040 0.3401803399 -0.3401803399
-0.2721442719 -0.2721442719 0.2721442719
-0.2041082040 -0.2041082040 0.2041082040
-0.1360721360 -0.1360721360 0.1360721360
-0.0680360680 -0.0680360680 0.0680360680
0.0000000000 0.0000000000 0.0000000000
0.0680360680 0.0680360680 -0.0680360680
0.1360721360 0.1360721360 -0.1360721360
0.2041082040 0.2041082040 -0.2041082040
0.2721442719 0.2721442719 -0.2721442719
-0.2041082040 -0.3401803399 0.3401803399
-0.1360721360 -0.2721442719 0.2721442719
-0.0680360680 -0.2041082040 0.2041082040
0.0000000000 -0.1360721360 0.1360721360
0.0680360680 -0.0680360680 0.0680360680
0.1360721360 0.0000000000 0.0000000000
0.2041082040 0.0680360680 -0.0680360680
0.2721442719 0.1360721360 -0.1360721360
0.3401803399 0.2041082040 -0.2041082040
-0.1360721360 -0.4082164079 0.4082164079
-0.0680360680 -0.3401803399 0.3401803399
0.0000000000 -0.2721442719 0.2721442719
0.0680360680 -0.2041082040 0.2041082040
0.1360721360 -0.1360721360 0.1360721360
0.2041082040 -0.0680360680 0.0680360680
0.2721442719 0.0000000000 0.0000000000
0.3401803399 0.0680360680 -0.0680360680
0.4082164079 0.1360721360 -0.1360721360
-0.0680360680 -0.4762524759 0.4762524759
-0.0000000000 -0.4082164079 0.4082164079
0.0680360680 -0.3401803399 0.3401803399
0.1360721360 -0.2721442719 0.2721442719
0.2041082040 -0.2041082040 0.2041082040
0.2721442719 -0.1360721360 0.1360721360
0.3401803399 -0.0680360680 0.0680360680
0.4082164079 0.0000000000 0.0000000000
0.4762524759 0.0680360680 -0.0680360680
0.0000000000 -0.5442885439 0.5442885439
0.0680360680 -0.4762524759 0.4762524759
0.1360721360 -0.4082164079 0.4082164079
0.2041082040 -0.3401803399 0.3401803399
0.2721442719 -0.2721442719 0.2721442719
0.3401803399 -0.2041082040 0.2041082040
0.4082164079 -0.1360721360 0.1360721360
0.4762524759 -0.0680360680 0.0680360680
0.5442885439 0.0000000000 0.0000000000
-0.6123246119 0.0680360680 0.0680360680
-0.5442885439 0.1360721360 -0.0000000000
-0.4762524759 0.2041082040 -0.0680360680
-0.4082164079 0.2721442719 -0.1360721360
-0.3401803399 0.3401803399 -0.2041082040
-0.2721442719 0.4082164079 -0.2721442719
-0.2041082040 0.4762524759 -0.3401803399
-0.1360721360 0.5442885439 -0.4082164079
-0.0680360680 0.6123246119 -0.4762524759
-0.5442885439 -0.0000000000 0.1360721360
-0.4762524759 0.0680360680 0.0680360680
-0.4082164079 0.1360721360 -0.0000000000
-0.3401803399 0.2041082040 -0.0680360680
-0.2721442719 0.2721442719 -0.1360721360
-0.2041082040 0.3401803399 -0.2041082040
-0.1360721360 0.4082164079 -0.2721442719
-0.0680360680 0.4762524759 -0.3401803399
0.0000000000 0.5442885439 -0.4082164079
-0.4762524759 -0.0680360680 0.2041082040
-0.4082164079 -0.0000000000 0.1360721360
-0.3401803399 0.0680360680 0.0680360680
-0.2721442719 0.1360721360 0.0000000000
-0.2041082040 0.2041082040 -0.0680360680
-0.1360721360 0.2721442719 -0.1360721360
-0.0680360680 0.3401803399 -0.2041082040
0.0000000000 0.4082164079 -0.2721442719
0.0680360680 0.4762524759 -0.3401803399
-0.4082164079 -0.1360721360 0.2721442719
-0.3401803399 -0.0680360680 0.2041082040
-0.2721442719 0.0000000000 0.1360721360
-0.2041082040 0.0680360680 0.0680360680
-0.1360721360 0.1360721360 0.0000000000
-0.0680360680 0.2041082040 -0.0680360680
0.0000000000 0.2721442719 -0.1360721360
0.0680360680 0.3401803399 -0.2041082040
0.1360721360 0.4082164079 -0.2721442719
-0.3401803399 -0.2041082040 0.3401803399
-0.2721442719 -0.1360721360 0.2721442719
-0.2041082040 -0.0680360680 0.2041082040
-0.1360721360 0.0000000000 0.1360721360
-0.0680360680 0.0680360680 0.0680360680
0.0000000000 0.1360721360 0.0000000000
0.0680360680 0.2041082040 -0.0680360680
0.1360721360 0.2721442719 -0.1360721360
0.2041082040 0.3401803399 -0.2041082040
-0.2721442719 -0.2721442719 0.4082164079
-0.2041082040 -0.2041082040 0.3401803399
-0.1360721360 -0.1360721360 0.2721442719
-0.0680360680 -0.0680360680 0.2041082040
0.0000000000 0.0000000000 0.1360721360
0.0680360680 0.0680360680 0.0680360680
0.1360721360 0.1360721360 0.0000000000
0.2041082040 0.2041082040 -0.0680360680
0.2721442719 0.2721442719 -0.1360721360
-0.2041082040 -0.3401803399 0.4762524759
-0.1360721360 -0.2721442719 0.4082164079
-0.0680360680 -0.2041082040 0.3401803399
0.0000000000 -0.1360721360 0.2721442719
0.0680360680 -0.0680360680 0.2041082040
0.1360721360 0.0000000000 0.1360721360
0.2041082040 0.0680360680 0.0680360680
0.2721442719 0.1360721360 0.0000000000
0.3401803399 0.2041082040 -0.0680360680
-0.1360721360 -0.4082164079 0.5442885439
-0.0680360680 -0.3401803399 0.4762524759
0.0000000000 -0.2721442719 0.4082164079
0.0680360680 -0.2041082040 0.3401803399
0.1360721360 -0.1360721360 0.2721442719
0.2041082040 -0.0680360680 0.2041082040
0.2721442719 0.0000000000 0.1360721360
0.3401803399 0.0680360680 0.0680360680
0.4082164079 0.1360721360 0.0000000000
-0.0680360680 -0.4762524759 0.6123246119
0.0000000000 -0.4082164079 0.5442885439
0.0680360680 -0.3401803399 0.4762524759
0.1360721360 -0.2721442719 0.4082164079
0.2041082040 -0.2041082040 0.3401803399
0.2721442719 -0.1360721360 0.2721442719
0.3401803399 -0.0680360680 0.2041082040
0.4082164079 0.0000000000 0.1360721360
0.4762524759 0.0680360680 0.0680360680
-0.6803606798 0.1360721360 0.1360721360
-0.6123246119 0.2041082040 0.0680360680
-0.5442885439 0.2721442719 0.0000000000
-0.4762524759 0.3401803399 -0.0680360680
-0.4082164079 0.4082164079 -0.1360721360
-0.3401803399 0.4762524759 -0.2041082040
-0.2721442719 0.5442885439 -0.2721442719
-0.2041082040 0.6123246119 -0.3401803399
-0.1360721360 0.6803606798 -0.4082164079
-0.6123246119 0.0680360680 0.2041082040
-0.5442885439 0.1360721360 0.1360721360
-0.4762524759 0.2041082040 0.0680360680
-0.4082164079 0.2721442719 -0.0000000000
-0.3401803399 0.3401803399 -0.0680360680
-0.2721442719 0.4082164079 -0.1360721360
-0.2041082040 0.4762524759 -0.2041082040
-0.1360721360 0.5442885439 -0.2721442719
-0.0680360680 0.6123246119 -0.3401803399
-0.5442885439 0.0000000000 0.2721442719
-0.4762524759 0.0680360680 0.2041082040
-0.4082164079 0.1360721360 0.1360721360
-0.3401803399 0.2041082040 0.0680360680
-0.2721442719 0.2721442719 0.0000000000
-0.2041082040 0.3401803399 -0.0680360680
-0.1360721360 0.4082164079 -0.1360721360
-0.0680360680 0.4762524759 -0.2041082040
0.0000000000 0.5442885439 -0.2721442719
-0.4762524759 -0.0680360680 0.3401803399
-0.4082164079 -0.0000000000 0.2721442719
-0.3401803399 0.0680360680 0.2041082040
-0.2721442719 0.1360721360 0.1360721360
-0.2041082040 0.2041082040 0.0680360680
-0.1360721360 0.2721442719 0.0000000000
-0.0680360680 0.3401803399 -0.0680360680
0.0000000000 0.4082164079 -0.1360721360
0.0680360680 0.4762524759 -0.2041082040
-0.4082164079 -0.1360721360 0.4082164079
-0.3401803399 -0.0680360680 0.3401803399
-0.2721442719 0.0000000000 0.2721442719
-0.2041082040 0.0680360680 0.2041082040
-0.1360721360 0.1360721360 0.1360721360
-0.0680360680 0.2041082040 0.0680360680
0.0000000000 0.2721442719 0.0000000000
0.0680360680 0.3401803399 -0.0680360680
0.1360721360 0.4082164079 -0.1360721360
-0.3401803399 -0.2041082040 0.4762524759
-0.2721442719 -0.1360721360 0.4082164079
-0.2041082040 -0.0680360680 0.3401803399
-0.1360721360 0.0000000000 0.2721442719
-0.0680360680 0.0680360680 0.2041082040
0.0000000000 0.1360721360 0.1360721360
0.0680360680 0.2041082040 0.0680360680
0.1360721360 0.2721442719 0.0000000000
0.2041082040 0.3401803399 -0.0680360680
-0.2721442719 -0.2721442719 0.5442885439
-0.2041082040 -0.2041082040 0.4762524759
-0.1360721360 -0.1360721360 0.4082164079
-0.0680360680 -0.0680360680 0.3401803399
0.0000000000 0.0000000000 0.2721442719
0.0680360680 0.0680360680 0.2041082040
0.1360721360 0.1360721360 0.1360721360
0.2041082040 0.2041082040 0.0680360680
0.2721442719 0.2721442719 0.0000000000
-0.2041082040 -0.3401803399 0.6123246119
-0.1360721360 -0.2721442719 0.5442885439
-0.0680360680 -0.2041082040 0.4762524759
0.0000000000 -0.1360721360 0.4082164079
0.0680360680 -0.0680360680 0.3401803399
0.1360721360 0.0000000000 0.2721442719
0.2041082040 0.0680360680 0.2041082040
0.2721442719 0.1360721360 0.1360721360
0.3401803399 0.2041082040 0.0680360680
-0.1360721360 -0.4082164079 0.6803606798
-0.0680360680 -0.3401803399 0.6123246119
0.0000000000 -0.2721442719 0.5442885439
0.0680360680 -0.2041082040 0.4762524759
0.1360721360 -0.1360721360 0.4082164079
0.2041082040 -0.0680360680 0.3401803399
0.2721442719 0.0000000000 0.2721442719
0.3401803399 0.0680360680 0.2041082040
0.4082164079 0.1360721360 0.1360721360
-0.7483967478 0.2041082040 0.2041082040
-0.6803606798 0.2721442719 0.1360721360
-0.6123246119 0.3401803399 0.0680360680
-0.5442885439 0.4082164079 -0.0000000000
-0.4762524759 0.4762524759 -0.0680360680
-0.4082164079 0.5442885439 -0.1360721360
-0.3401803399 0.6123246119 -0.2041082040
-0.2721442719 0.6803606798 -0.2721442719
-0.2041082040 0.7483967478 -0.3401803399
-0.6803606798 0.1360721360 0.2721442719
-0.6123246119 0.2041082040 0.2041082040
-0.5442885439 0.2721442719 0.1360721360
-0.4762524759 0.3401803399 0.0680360680
-0.4082164079 0.4082164079 -0.0000000000
-0.3401803399 0.4762524759 -0.0680360680
-0.2721442719 0.5442885439 -0.1360721360
-0.2041082040 0.6123246119 -0.2041082040
-0.1360721360 0.6803606798 -0.2721442719
-0.6123246119 0.0680360680 0.3401803399
-0.5442885439 0.1360721360 0.2721442719
-0.4762524759 0.2041082040 0.2041082040
-0.4082164079 0.2721442719 0.1360721360
-0.3401803399 0.3401803399 0.0680360680
-0.2721442719 0.4082164079 -0.0000000000
-0.2041082040 0.4762524759 -0.0680360680
-0.1360721360 0.5442885439 -0.1360721360
-0.0680360680 0.6123246119 -0.2041082040
-0.5442885439 0.0000000000 0.4082164079
-0.4762524759 0.0680360680 0.3401803399
-0.4082164079 0.1360721360 0.2721442719
-0.3401803399 0.2041082040 0.2041082040
-0.2721442719 0.2721442719 0.1360721360
-0.2041082040 0.3401803399 0.0680360680
-0.1360721360 0.4082164079 -0.0000000000
-0.0680360680 0.4762524759 -0.0680360680
0.0000000000 0.5442885439 -0.1360721360
-0.4762524759 -0.0680360680 0.4762524759
-0.4082164079 0.0000000000 0.4082164079
-0.3401803399 0.0680360680 0.3401803399
-0.2721442719 0.1360721360 0.2721442719
-0.2041082040 0.2041082040 0.2041082040
-0.1360721360 0.2721442719 0.1360721360
-0.0680360680 0.3401803399 0.0680360680
0.0000000000 0.4082164079 0.0000000000
0.0680360680 0.4762524759 -0.0680360680
-0.4082164079 -0.1360721360 0.5442885439
-0.3401803399 -0.0680360680 0.4762524759
-0.2721442719 0.0000000000 0.4082164079
-0.2041082040 0.0680360680 0.3401803399
-0.1360721360 0.1360721360 0.2721442719
-0.0680360680 0.2041082040 0.2041082040
0.0000000000 0.2721442719 0.1360721360
0.0680360680 0.3401803399 0.0680360680
0.1360721360 0.4082164079 0.0000000000
-0.3401803399 -0.2041082040 0.6123246119
-0.2721442719 -0.1360721360 0.5442885439
-0.2041082040 -0.0680360680 0.4762524759
-0.1360721360 0.0000000000 0.4082164079
-0.0680360680 0.0680360680 0.3401803399
0.0000000000 0.1360721360 0.2721442719
0.0680360680 0.2041082040 0.2041082040
0.1360721360 0.2721442719 0.1360721360
0.2041082040 0.3401803399 0.0680360680
-0.2721442719 -0.2721442719 0.6803606798
-0.2041082040 -0.2041082040 0.6123246119
-0.1360721360 -0.1360721360 0.5442885439
-0.0680360680 -0.0680360680 0.4762524759
0.0000000000 0.0000000000 0.4082164079
0.0680360680 0.0680360680 0.3401803399
0.1360721360 0.1360721360 0.2721442719
0.2041082040 0.2041082040 0.2041082040
0.2721442719 0.2721442719 0.1360721360
-0.2041082040 -0.3401803399 0.7483967478
-0.1360721360 -0.2721442719 0.6803606798
-0.0680360680 -0.2041082040 0.6123246119
0.0000000000 -0.1360721360 0.5442885439
0.0680360680 -0.0680360680 0.4762524759
0.1360721360 0.0000000000 0.4082164079
0.2041082040 0.0680360680 0.3401803399
0.2721442719 0.1360721360 0.2721442719
0.3401803399 0.2041082040 0.2041082040
-0.8164328158 0.2721442719 0.2721442719
-0.7483967478 0.3401803399 0.2041082040
-0.6803606798 0.4082164079 0.1360721360
-0.6123246119 0.4762524759 0.0680360680
-0.5442885439 0.5442885439 0.0000000000
-0.4762524759 0.6123246119 -0.0680360680
-0.4082164079 0.6803606798 -0.1360721360
-0.3401803399 0.7483967478 -0.2041082040
-0.2721442719 0.8164328158 -0.2721442719
-0.7483967478 0.2041082040 0.3401803399
-0.6803606798 0.2721442719 0.2721442719
-0.6123246119 0.3401803399 0.2041082040
-0.5442885439 0.4082164079 0.1360721360
-0.4762524759 0.4762524759 0.0680360680
-0.4082164079 0.5442885439 -0.0000000000
-0.3401803399 0.6123246119 -0.0680360680
-0.2721442719 0.6803606798 -0.1360721360
-0.2041082040 0.7483967478 -0.2041082040
-0.6803606798 0.1360721360 0.4082164079
-0.6123246119 0.2041082040 0.3401803399
-0.5442885439 0.2721442719 0.2721442719
-0.4762524759 0.3401803399 0.2041082040
-0.4082164079 0.4082164079 0.1360721360
-0.3401803399 0.4762524759 0.0680360680
-0.2721442719 0.5442885439 0.0000000000
-0.2041082040 0.6123246119 -0.0680360680
-0.1360721360 0.6803606798 -0.1360721360
-0.6123246119 0.0680360680 0.4762524759
-0.5442885439 0.1360721360 0.4082164079
-0.4762524759 0.2041082040 0.3401803399
-0.4082164079 0.2721442719 0.2721442719
-0.3401803399 0.3401803399 0.2041082040
-0.2721442719 0.4082164079 0.1360721360
-0.2041082040 0.4762524759 0.0680360680
-0.1360721360 0.5442885439 0.0000000000
-0.0680360680 0.6123246119 -0.0680360680
-0.5442885439 0.0000000000 0.5442885439
-0.4762524759 0.0680360680 0.4762524759
-0.4082164079 0.1360721360 0.4082164079
-0.3401803399 0.2041082040 0.3401803399
-0.2721442719 0.2721442719 0.2721442719
-0.2041082040 0.3401803399 0.2041082040
-0.1360721360 0.4082164079 0.1360721360
-0.0680360680 0.4762524759 0.0680360680
0.0000000000 0.5442885439 0.0000000000
-0.4762524759 -0.0680360680 0.6123246119
-0.4082164079 0.0000000000 0.5442885439
-0.3401803399 0.0680360680 0.4762524759
-0.2721442719 0.1360721360 0.4082164079
-0.2041082040 0.2041082040 0.3401803399
-0.1360721360 0.2721442719 0.2721442719
-0.0680360680 0.3401803399 0.2041082040
0.0000000000 0.4082164079 0.1360721360
0.0680360680 0.4762524759 0.0680360680
-0.4082164079 -0.1360721360 0.6803606798
-0.3401803399 -0.0680360680 0.6123246119
-0.2721442719 0.0000000000 0.5442885439
-0.2041082040 0.0680360680 0.4762524759
-0.1360721360 0.1360721360 0.4082164079
-0.0680360680 0.2041082040 0.3401803399
0.0000000000 0.2721442719 0.2721442719
0.0680360680 0.3401803399 0.2041082040
0.1360721360 0.4082164079 0.1360721360
-0.3401803399 -0.2041082040 0.7483967478
-0.2721442719 -0.1360721360 0.6803606798
-0.2041082040 -0.0680360680 0.6123246119
-0.1360721360 0.0000000000 0.5442885439
-0.0680360680 0.0680360680 0.4762524759
0.0000000000 0.1360721360 0.4082164079
0.0680360680 0.2041082040 0.3401803399
0.1360721360 0.2721442719 0.2721442719
0.2041082040 0.3401803399 0.2041082040
-0.2721442719 -0.2721442719 0.8164328158
-0.2041082040 -0.2041082040 0.7483967478
-0.1360721360 -0.1360721360 0.6803606798
-0.0680360680 -0.0680360680 0.6123246119
0.0000000000 0.0000000000 0.5442885439
0.0680360680 0.0680360680 0.4762524759
0.1360721360 0.1360721360 0.4082164079
0.2041082040 0.2041082040 0.3401803399
0.2721442719 0.2721442719 0.2721442719
 There are 14 alpha and 14 beta electrons
 Start computing overlap matrix
 Allocate 15116544 B from available memory: 1048575740896 B
 Time for computing overlap matrix: 1.6080000000 s
 ====== Initialize compute kernels for all-electron RI-J (kpts) ====== 
 ========================================================== 
 Range-separated parameter omega        = 0.599999999999999978
 Threshold for 1e2c shellpair           = 0.000000000000010000
 Threshold for 2e2c SR integral         = 0.000000000000000001
 Threshold for 2e3c SR integral         = 0.000000000100000000
 Threshold for AFT G-space screening is = 0.000000000001000000
 The exponent cutoff for C/D classification (omega2 / 2) is  = 0.179999999999999993
 ========================================================== 
 === Post process the basis set for RI calculation (exp_cutoff = 0.179999999999999993 ) === 
nshells_b1 before uncontraction = 16
nshells_b1 after uncontraction = 16
nshells_baux before uncontraction = 74
nshells_baux after uncontraction = 74
===============================================
nbsf total   = 36
nbsf compact = 28
nbsf diffuse = 8
naux total   = 242
naux compact = 242
naux diffuse = 0
nshells_bnuc = 2

 Number of unique atoms is 1
 Unique atom #0 (si) has 6 shells.

Shell 0 to 5 belongs to atom si
Shell 6 to 11 belongs to atom si

 Number of unique atoms is 1
 Unique atom #0 (si) has 2 shells.

Shell 0 to 1 belongs to atom si
Shell 2 to 3 belongs to atom si

 Number of unique atom is 1
 Unique atom #0 (si) has 37 auxiliary shells.

Auxiliary Shell 0 to 36 belongs to atom si
Auxiliary Shell 37 to 73 belongs to atom si

================= Automatically determine grid size for reciprocal space summation =================
 Range-separated parameter = 0.60000000000000 and G-space screening threshold = 0.00000000000100
The number of grid points along each axis dimension is (7, 7, 7)
Total number of grid points = 3375

Use nonortho shellpair for diffuse density
======== Initializing relevant kernel for RIJ (DD type) ========
There are 10 shellpairs in the reference unit cell
There are 2395 images and we expect to have 23950 in total
There are 2310 shellpairs in the lattice sum after screening
======== Initializing relevant kernel for RIJ (CD type) ========
There are 48 shellpairs in the reference unit cell
There are 1657 images and we expect to have 79536 in total
There are 5616 shellpairs in the lattice sum after screening
****** AFT -> SR ******
Maximum bra distance cutoff is 20.000000000000
Maximum bra ket distance cutoff is 21.527796542407
Maximum bra ket screening distance is 20.218750000000
Number of auxiliary image is 455
There are 48 shellpairs in the reference unit cell
There are 437 images and we expect to have 20976 in total
There are 5616 shellpairs in the lattice sum after screening
Available memory per thread for 2e3c calculation is 32.767519511000Gb
Finish initializing 2e3c SR with the lattice sum!
=================================================
======== Initializing relevant kernel for RIJ (CC type) ========
There are 77 shellpairs in the reference unit cell
There are 887 images and we expect to have 68299 in total
There are 1826 shellpairs in the lattice sum after screening
****** AFT -> SR ******
Maximum bra distance cutoff is 15.000000000000
Maximum bra ket distance cutoff is 26.119433613361
Maximum bra ket screening distance is 19.750000000000
Number of auxiliary image is 695
There are 77 shellpairs in the reference unit cell
There are 237 images and we expect to have 18249 in total
There are 1826 shellpairs in the lattice sum after screening
Available memory per thread for 2e3c calculation is 32.767519511000Gb
Finish initializing 2e3c SR with the lattice sum!
=================================================
======== Initializing the SR component for Vnuc (CD type) ========
Maximum bra distance cutoff is 20.000000000000
Maximum bra ket distance cutoff is 14.110858526687
Maximum bra ket screening distance is 12.589502200220
Number of auxiliary image is 437
There are 48 shellpairs in the reference unit cell
There are 437 images and we expect to have 20976 in total
There are 5616 shellpairs in the lattice sum after screening
Available memory per thread for 2e3c calculation is 32.767519511000Gb
Finish initializing 2e3c SR with the lattice sum!
=================================================
======== Initialize the SR component for Vnuc (CC type) ========
Maximum bra distance cutoff is 15.000000000000
Maximum bra ket distance cutoff is 19.007169255949
Maximum bra ket screening distance is 11.748074693494
Number of auxiliary image is 341
There are 77 shellpairs in the reference unit cell
There are 237 images and we expect to have 18249 in total
There are 1826 shellpairs in the lattice sum after screening
Available memory per thread for 2e3c calculation is 32.767519511000Gb
Finish initializing 2e3c SR with the lattice sum!
=================================================
 Aufbau occupation scheme, occupation determined by eigenvalue
 == 0-th k-point nmo = 36 (-0.27214,-0.27214,-0.27214) ==
 == 1-th k-point nmo = 36 (-0.20411,-0.20411,-0.34018) ==
 == 2-th k-point nmo = 36 (-0.13607,-0.13607,-0.40822) ==
 == 3-th k-point nmo = 36 (-0.06804,-0.06804,-0.47625) ==
 == 4-th k-point nmo = 36 (-0.00000,-0.00000,-0.54429) ==
 == 5-th k-point nmo = 36 (0.06804,0.06804,-0.61232) ==
 == 6-th k-point nmo = 36 (0.13607,0.13607,-0.68036) ==
 == 7-th k-point nmo = 36 (0.20411,0.20411,-0.74840) ==
 == 8-th k-point nmo = 36 (0.27214,0.27214,-0.81643) ==
 == 9-th k-point nmo = 36 (-0.20411,-0.34018,-0.20411) ==
 == 10-th k-point nmo = 36 (-0.13607,-0.27214,-0.27214) ==
 == 11-th k-point nmo = 36 (-0.06804,-0.20411,-0.34018) ==
 == 12-th k-point nmo = 36 (-0.00000,-0.13607,-0.40822) ==
 == 13-th k-point nmo = 36 (0.06804,-0.06804,-0.47625) ==
 == 14-th k-point nmo = 36 (0.13607,-0.00000,-0.54429) ==
 == 15-th k-point nmo = 36 (0.20411,0.06804,-0.61232) ==
 == 16-th k-point nmo = 36 (0.27214,0.13607,-0.68036) ==
 == 17-th k-point nmo = 36 (0.34018,0.20411,-0.74840) ==
 == 18-th k-point nmo = 36 (-0.13607,-0.40822,-0.13607) ==
 == 19-th k-point nmo = 36 (-0.06804,-0.34018,-0.20411) ==
 == 20-th k-point nmo = 36 (-0.00000,-0.27214,-0.27214) ==
 == 21-th k-point nmo = 36 (0.06804,-0.20411,-0.34018) ==
 == 22-th k-point nmo = 36 (0.13607,-0.13607,-0.40822) ==
 == 23-th k-point nmo = 36 (0.20411,-0.06804,-0.47625) ==
 == 24-th k-point nmo = 36 (0.27214,-0.00000,-0.54429) ==
 == 25-th k-point nmo = 36 (0.34018,0.06804,-0.61232) ==
 == 26-th k-point nmo = 36 (0.40822,0.13607,-0.68036) ==
 == 27-th k-point nmo = 36 (-0.06804,-0.47625,-0.06804) ==
 == 28-th k-point nmo = 36 (-0.00000,-0.40822,-0.13607) ==
 == 29-th k-point nmo = 36 (0.06804,-0.34018,-0.20411) ==
 == 30-th k-point nmo = 36 (0.13607,-0.27214,-0.27214) ==
 == 31-th k-point nmo = 36 (0.20411,-0.20411,-0.34018) ==
 == 32-th k-point nmo = 36 (0.27214,-0.13607,-0.40822) ==
 == 33-th k-point nmo = 36 (0.34018,-0.06804,-0.47625) ==
 == 34-th k-point nmo = 36 (0.40822,0.00000,-0.54429) ==
 == 35-th k-point nmo = 36 (0.47625,0.06804,-0.61232) ==
 == 36-th k-point nmo = 36 (-0.00000,-0.54429,0.00000) ==
 == 37-th k-point nmo = 36 (0.06804,-0.47625,-0.06804) ==
 == 38-th k-point nmo = 36 (0.13607,-0.40822,-0.13607) ==
 == 39-th k-point nmo = 36 (0.20411,-0.34018,-0.20411) ==
 == 40-th k-point nmo = 36 (0.27214,-0.27214,-0.27214) ==
 == 41-th k-point nmo = 36 (0.34018,-0.20411,-0.34018) ==
 == 42-th k-point nmo = 36 (0.40822,-0.13607,-0.40822) ==
 == 43-th k-point nmo = 36 (0.47625,-0.06804,-0.47625) ==
 == 44-th k-point nmo = 36 (0.54429,0.00000,-0.54429) ==
 == 45-th k-point nmo = 36 (0.06804,-0.61232,0.06804) ==
 == 46-th k-point nmo = 36 (0.13607,-0.54429,-0.00000) ==
 == 47-th k-point nmo = 36 (0.20411,-0.47625,-0.06804) ==
 == 48-th k-point nmo = 36 (0.27214,-0.40822,-0.13607) ==
 == 49-th k-point nmo = 36 (0.34018,-0.34018,-0.20411) ==
 == 50-th k-point nmo = 36 (0.40822,-0.27214,-0.27214) ==
 == 51-th k-point nmo = 36 (0.47625,-0.20411,-0.34018) ==
 == 52-th k-point nmo = 36 (0.54429,-0.13607,-0.40822) ==
 == 53-th k-point nmo = 36 (0.61232,-0.06804,-0.47625) ==
 == 54-th k-point nmo = 36 (0.13607,-0.68036,0.13607) ==
 == 55-th k-point nmo = 36 (0.20411,-0.61232,0.06804) ==
 == 56-th k-point nmo = 36 (0.27214,-0.54429,0.00000) ==
 == 57-th k-point nmo = 36 (0.34018,-0.47625,-0.06804) ==
 == 58-th k-point nmo = 36 (0.40822,-0.40822,-0.13607) ==
 == 59-th k-point nmo = 36 (0.47625,-0.34018,-0.20411) ==
 == 60-th k-point nmo = 36 (0.54429,-0.27214,-0.27214) ==
 == 61-th k-point nmo = 36 (0.61232,-0.20411,-0.34018) ==
 == 62-th k-point nmo = 36 (0.68036,-0.13607,-0.40822) ==
 == 63-th k-point nmo = 36 (0.20411,-0.74840,0.20411) ==
 == 64-th k-point nmo = 36 (0.27214,-0.68036,0.13607) ==
 == 65-th k-point nmo = 36 (0.34018,-0.61232,0.06804) ==
 == 66-th k-point nmo = 36 (0.40822,-0.54429,0.00000) ==
 == 67-th k-point nmo = 36 (0.47625,-0.47625,-0.06804) ==
 == 68-th k-point nmo = 36 (0.54429,-0.40822,-0.13607) ==
 == 69-th k-point nmo = 36 (0.61232,-0.34018,-0.20411) ==
 == 70-th k-point nmo = 36 (0.68036,-0.27214,-0.27214) ==
 == 71-th k-point nmo = 36 (0.74840,-0.20411,-0.34018) ==
 == 72-th k-point nmo = 36 (0.27214,-0.81643,0.27214) ==
 == 73-th k-point nmo = 36 (0.34018,-0.74840,0.20411) ==
 == 74-th k-point nmo = 36 (0.40822,-0.68036,0.13607) ==
 == 75-th k-point nmo = 36 (0.47625,-0.61232,0.06804) ==
 == 76-th k-point nmo = 36 (0.54429,-0.54429,0.00000) ==
 == 77-th k-point nmo = 36 (0.61232,-0.47625,-0.06804) ==
 == 78-th k-point nmo = 36 (0.68036,-0.40822,-0.13607) ==
 == 79-th k-point nmo = 36 (0.74840,-0.34018,-0.20411) ==
 == 80-th k-point nmo = 36 (0.81643,-0.27214,-0.27214) ==
 == 81-th k-point nmo = 36 (-0.34018,-0.20411,-0.20411) ==
 == 82-th k-point nmo = 36 (-0.27214,-0.13607,-0.27214) ==
 == 83-th k-point nmo = 36 (-0.20411,-0.06804,-0.34018) ==
 == 84-th k-point nmo = 36 (-0.13607,-0.00000,-0.40822) ==
 == 85-th k-point nmo = 36 (-0.06804,0.06804,-0.47625) ==
 == 86-th k-point nmo = 36 (-0.00000,0.13607,-0.54429) ==
 == 87-th k-point nmo = 36 (0.06804,0.20411,-0.61232) ==
 == 88-th k-point nmo = 36 (0.13607,0.27214,-0.68036) ==
 == 89-th k-point nmo = 36 (0.20411,0.34018,-0.74840) ==
 == 90-th k-point nmo = 36 (-0.27214,-0.27214,-0.13607) ==
 == 91-th k-point nmo = 36 (-0.20411,-0.20411,-0.20411) ==
 == 92-th k-point nmo = 36 (-0.13607,-0.13607,-0.27214) ==
 == 93-th k-point nmo = 36 (-0.06804,-0.06804,-0.34018) ==
 == 94-th k-point nmo = 36 (-0.00000,-0.00000,-0.40822) ==
 == 95-th k-point nmo = 36 (0.06804,0.06804,-0.47625) ==
 == 96-th k-point nmo = 36 (0.13607,0.13607,-0.54429) ==
 == 97-th k-point nmo = 36 (0.20411,0.20411,-0.61232) ==
 == 98-th k-point nmo = 36 (0.27214,0.27214,-0.68036) ==
 == 99-th k-point nmo = 36 (-0.20411,-0.34018,-0.06804) ==
 == 100-th k-point nmo = 36 (-0.13607,-0.27214,-0.13607) ==
 == 101-th k-point nmo = 36 (-0.06804,-0.20411,-0.20411) ==
 == 102-th k-point nmo = 36 (-0.00000,-0.13607,-0.27214) ==
 == 103-th k-point nmo = 36 (0.06804,-0.06804,-0.34018) ==
 == 104-th k-point nmo = 36 (0.13607,-0.00000,-0.40822) ==
 == 105-th k-point nmo = 36 (0.20411,0.06804,-0.47625) ==
 == 106-th k-point nmo = 36 (0.27214,0.13607,-0.54429) ==
 == 107-th k-point nmo = 36 (0.34018,0.20411,-0.61232) ==
 == 108-th k-point nmo = 36 (-0.13607,-0.40822,0.00000) ==
 == 109-th k-point nmo = 36 (-0.06804,-0.34018,-0.06804) ==
 == 110-th k-point nmo = 36 (-0.00000,-0.27214,-0.13607) ==
 == 111-th k-point nmo = 36 (0.06804,-0.20411,-0.20411) ==
 == 112-th k-point nmo = 36 (0.13607,-0.13607,-0.27214) ==
 == 113-th k-point nmo = 36 (0.20411,-0.06804,-0.34018) ==
 == 114-th k-point nmo = 36 (0.27214,-0.00000,-0.40822) ==
 == 115-th k-point nmo = 36 (0.34018,0.06804,-0.47625) ==
 == 116-th k-point nmo = 36 (0.40822,0.13607,-0.54429) ==
 == 117-th k-point nmo = 36 (-0.06804,-0.47625,0.06804) ==
 == 118-th k-point nmo = 36 (-0.00000,-0.40822,0.00000) ==
 == 119-th k-point nmo = 36 (0.06804,-0.34018,-0.06804) ==
 == 120-th k-point nmo = 36 (0.13607,-0.27214,-0.13607) ==
 == 121-th k-point nmo = 36 (0.20411,-0.20411,-0.20411) ==
 == 122-th k-point nmo = 36 (0.27214,-0.13607,-0.27214) ==
 == 123-th k-point nmo = 36 (0.34018,-0.06804,-0.34018) ==
 == 124-th k-point nmo = 36 (0.40822,0.00000,-0.40822) ==
 == 125-th k-point nmo = 36 (0.47625,0.06804,-0.47625) ==
 == 126-th k-point nmo = 36 (-0.00000,-0.54429,0.13607) ==
 == 127-th k-point nmo = 36 (0.06804,-0.47625,0.06804) ==
 == 128-th k-point nmo = 36 (0.13607,-0.40822,0.00000) ==
 == 129-th k-point nmo = 36 (0.20411,-0.34018,-0.06804) ==
 == 130-th k-point nmo = 36 (0.27214,-0.27214,-0.13607) ==
 == 131-th k-point nmo = 36 (0.34018,-0.20411,-0.20411) ==
 == 132-th k-point nmo = 36 (0.40822,-0.13607,-0.27214) ==
 == 133-th k-point nmo = 36 (0.47625,-0.06804,-0.34018) ==
 == 134-th k-point nmo = 36 (0.54429,0.00000,-0.40822) ==
 == 135-th k-point nmo = 36 (0.06804,-0.61232,0.20411) ==
 == 136-th k-point nmo = 36 (0.13607,-0.54429,0.13607) ==
 == 137-th k-point nmo = 36 (0.20411,-0.47625,0.06804) ==
 == 138-th k-point nmo = 36 (0.27214,-0.40822,0.00000) ==
 == 139-th k-point nmo = 36 (0.34018,-0.34018,-0.06804) ==
 == 140-th k-point nmo = 36 (0.40822,-0.27214,-0.13607) ==
 == 141-th k-point nmo = 36 (0.47625,-0.20411,-0.20411) ==
 == 142-th k-point nmo = 36 (0.54429,-0.13607,-0.27214) ==
 == 143-th k-point nmo = 36 (0.61232,-0.06804,-0.34018) ==
 == 144-th k-point nmo = 36 (0.13607,-0.68036,0.27214) ==
 == 145-th k-point nmo = 36 (0.20411,-0.61232,0.20411) ==
 == 146-th k-point nmo = 36 (0.27214,-0.54429,0.13607) ==
 == 147-th k-point nmo = 36 (0.34018,-0.47625,0.06804) ==
 == 148-th k-point nmo = 36 (0.40822,-0.40822,0.00000) ==
 == 149-th k-point nmo = 36 (0.47625,-0.34018,-0.06804) ==
 == 150-th k-point nmo = 36 (0.54429,-0.27214,-0.13607) ==
 == 151-th k-point nmo = 36 (0.61232,-0.20411,-0.20411) ==
 == 152-th k-point nmo = 36 (0.68036,-0.13607,-0.27214) ==
 == 153-th k-point nmo = 36 (0.20411,-0.74840,0.34018) ==
 == 154-th k-point nmo = 36 (0.27214,-0.68036,0.27214) ==
 == 155-th k-point nmo = 36 (0.34018,-0.61232,0.20411) ==
 == 156-th k-point nmo = 36 (0.40822,-0.54429,0.13607) ==
 == 157-th k-point nmo = 36 (0.47625,-0.47625,0.06804) ==
 == 158-th k-point nmo = 36 (0.54429,-0.40822,0.00000) ==
 == 159-th k-point nmo = 36 (0.61232,-0.34018,-0.06804) ==
 == 160-th k-point nmo = 36 (0.68036,-0.27214,-0.13607) ==
 == 161-th k-point nmo = 36 (0.74840,-0.20411,-0.20411) ==
 == 162-th k-point nmo = 36 (-0.40822,-0.13607,-0.13607) ==
 == 163-th k-point nmo = 36 (-0.34018,-0.06804,-0.20411) ==
 == 164-th k-point nmo = 36 (-0.27214,-0.00000,-0.27214) ==
 == 165-th k-point nmo = 36 (-0.20411,0.06804,-0.34018) ==
 == 166-th k-point nmo = 36 (-0.13607,0.13607,-0.40822) ==
 == 167-th k-point nmo = 36 (-0.06804,0.20411,-0.47625) ==
 == 168-th k-point nmo = 36 (-0.00000,0.27214,-0.54429) ==
 == 169-th k-point nmo = 36 (0.06804,0.34018,-0.61232) ==
 == 170-th k-point nmo = 36 (0.13607,0.40822,-0.68036) ==
 == 171-th k-point nmo = 36 (-0.34018,-0.20411,-0.06804) ==
 == 172-th k-point nmo = 36 (-0.27214,-0.13607,-0.13607) ==
 == 173-th k-point nmo = 36 (-0.20411,-0.06804,-0.20411) ==
 == 174-th k-point nmo = 36 (-0.13607,-0.00000,-0.27214) ==
 == 175-th k-point nmo = 36 (-0.06804,0.06804,-0.34018) ==
 == 176-th k-point nmo = 36 (-0.00000,0.13607,-0.40822) ==
 == 177-th k-point nmo = 36 (0.06804,0.20411,-0.47625) ==
 == 178-th k-point nmo = 36 (0.13607,0.27214,-0.54429) ==
 == 179-th k-point nmo = 36 (0.20411,0.34018,-0.61232) ==
 == 180-th k-point nmo = 36 (-0.27214,-0.27214,0.00000) ==
 == 181-th k-point nmo = 36 (-0.20411,-0.20411,-0.06804) ==
 == 182-th k-point nmo = 36 (-0.13607,-0.13607,-0.13607) ==
 == 183-th k-point nmo = 36 (-0.06804,-0.06804,-0.20411) ==
 == 184-th k-point nmo = 36 (-0.00000,-0.00000,-0.27214) ==
 == 185-th k-point nmo = 36 (0.06804,0.06804,-0.34018) ==
 == 186-th k-point nmo = 36 (0.13607,0.13607,-0.40822) ==
 == 187-th k-point nmo = 36 (0.20411,0.20411,-0.47625) ==
 == 188-th k-point nmo = 36 (0.27214,0.27214,-0.54429) ==
 == 189-th k-point nmo = 36 (-0.20411,-0.34018,0.06804) ==
 == 190-th k-point nmo = 36 (-0.13607,-0.27214,-0.00000) ==
 == 191-th k-point nmo = 36 (-0.06804,-0.20411,-0.06804) ==
 == 192-th k-point nmo = 36 (-0.00000,-0.13607,-0.13607) ==
 == 193-th k-point nmo = 36 (0.06804,-0.06804,-0.20411) ==
 == 194-th k-point nmo = 36 (0.13607,-0.00000,-0.27214) ==
 == 195-th k-point nmo = 36 (0.20411,0.06804,-0.34018) ==
 == 196-th k-point nmo = 36 (0.27214,0.13607,-0.40822) ==
 == 197-th k-point nmo = 36 (0.34018,0.20411,-0.47625) ==
 == 198-th k-point nmo = 36 (-0.13607,-0.40822,0.13607) ==
 == 199-th k-point nmo = 36 (-0.06804,-0.34018,0.06804) ==
 == 200-th k-point nmo = 36 (-0.00000,-0.27214,0.00000) ==
 == 201-th k-point nmo = 36 (0.06804,-0.20411,-0.06804) ==
 == 202-th k-point nmo = 36 (0.13607,-0.13607,-0.13607) ==
 == 203-th k-point nmo = 36 (0.20411,-0.06804,-0.20411) ==
 == 204-th k-point nmo = 36 (0.27214,0.00000,-0.27214) ==
 == 205-th k-point nmo = 36 (0.34018,0.06804,-0.34018) ==
 == 206-th k-point nmo = 36 (0.40822,0.13607,-0.40822) ==
 == 207-th k-point nmo = 36 (-0.06804,-0.47625,0.20411) ==
 == 208-th k-point nmo = 36 (-0.00000,-0.40822,0.13607) ==
 == 209-th k-point nmo = 36 (0.06804,-0.34018,0.06804) ==
 == 210-th k-point nmo = 36 (0.13607,-0.27214,0.00000) ==
 == 211-th k-point nmo = 36 (0.20411,-0.20411,-0.06804) ==
 == 212-th k-point nmo = 36 (0.27214,-0.13607,-0.13607) ==
 == 213-th k-point nmo = 36 (0.34018,-0.06804,-0.20411) ==
 == 214-th k-point nmo = 36 (0.40822,0.00000,-0.27214) ==
 == 215-th k-point nmo = 36 (0.47625,0.06804,-0.34018) ==
 == 216-th k-point nmo = 36 (-0.00000,-0.54429,0.27214) ==
 == 217-th k-point nmo = 36 (0.06804,-0.47625,0.20411) ==
 == 218-th k-point nmo = 36 (0.13607,-0.40822,0.13607) ==
 == 219-th k-point nmo = 36 (0.20411,-0.34018,0.06804) ==
 == 220-th k-point nmo = 36 (0.27214,-0.27214,0.00000) ==
 == 221-th k-point nmo = 36 (0.34018,-0.20411,-0.06804) ==
 == 222-th k-point nmo = 36 (0.40822,-0.13607,-0.13607) ==
 == 223-th k-point nmo = 36 (0.47625,-0.06804,-0.20411) ==
 == 224-th k-point nmo = 36 (0.54429,0.00000,-0.27214) ==
 == 225-th k-point nmo = 36 (0.06804,-0.61232,0.34018) ==
 == 226-th k-point nmo = 36 (0.13607,-0.54429,0.27214) ==
 == 227-th k-point nmo = 36 (0.20411,-0.47625,0.20411) ==
 == 228-th k-point nmo = 36 (0.27214,-0.40822,0.13607) ==
 == 229-th k-point nmo = 36 (0.34018,-0.34018,0.06804) ==
 == 230-th k-point nmo = 36 (0.40822,-0.27214,0.00000) ==
 == 231-th k-point nmo = 36 (0.47625,-0.20411,-0.06804) ==
 == 232-th k-point nmo = 36 (0.54429,-0.13607,-0.13607) ==
 == 233-th k-point nmo = 36 (0.61232,-0.06804,-0.20411) ==
 == 234-th k-point nmo = 36 (0.13607,-0.68036,0.40822) ==
 == 235-th k-point nmo = 36 (0.20411,-0.61232,0.34018) ==
 == 236-th k-point nmo = 36 (0.27214,-0.54429,0.27214) ==
 == 237-th k-point nmo = 36 (0.34018,-0.47625,0.20411) ==
 == 238-th k-point nmo = 36 (0.40822,-0.40822,0.13607) ==
 == 239-th k-point nmo = 36 (0.47625,-0.34018,0.06804) ==
 == 240-th k-point nmo = 36 (0.54429,-0.27214,0.00000) ==
 == 241-th k-point nmo = 36 (0.61232,-0.20411,-0.06804) ==
 == 242-th k-point nmo = 36 (0.68036,-0.13607,-0.13607) ==
 == 243-th k-point nmo = 36 (-0.47625,-0.06804,-0.06804) ==
 == 244-th k-point nmo = 36 (-0.40822,-0.00000,-0.13607) ==
 == 245-th k-point nmo = 36 (-0.34018,0.06804,-0.20411) ==
 == 246-th k-point nmo = 36 (-0.27214,0.13607,-0.27214) ==
 == 247-th k-point nmo = 36 (-0.20411,0.20411,-0.34018) ==
 == 248-th k-point nmo = 36 (-0.13607,0.27214,-0.40822) ==
 == 249-th k-point nmo = 36 (-0.06804,0.34018,-0.47625) ==
 == 250-th k-point nmo = 36 (0.00000,0.40822,-0.54429) ==
 == 251-th k-point nmo = 36 (0.06804,0.47625,-0.61232) ==
 == 252-th k-point nmo = 36 (-0.40822,-0.13607,0.00000) ==
 == 253-th k-point nmo = 36 (-0.34018,-0.06804,-0.06804) ==
 == 254-th k-point nmo = 36 (-0.27214,-0.00000,-0.13607) ==
 == 255-th k-point nmo = 36 (-0.20411,0.06804,-0.20411) ==
 == 256-th k-point nmo = 36 (-0.13607,0.13607,-0.27214) ==
 == 257-th k-point nmo = 36 (-0.06804,0.20411,-0.34018) ==
 == 258-th k-point nmo = 36 (0.00000,0.27214,-0.40822) ==
 == 259-th k-point nmo = 36 (0.06804,0.34018,-0.47625) ==
 == 260-th k-point nmo = 36 (0.13607,0.40822,-0.54429) ==
 == 261-th k-point nmo = 36 (-0.34018,-0.20411,0.06804) ==
 == 262-th k-point nmo = 36 (-0.27214,-0.13607,-0.00000) ==
 == 263-th k-point nmo = 36 (-0.20411,-0.06804,-0.06804) ==
 == 264-th k-point nmo = 36 (-0.13607,-0.00000,-0.13607) ==
 == 265-th k-point nmo = 36 (-0.06804,0.06804,-0.20411) ==
 == 266-th k-point nmo = 36 (-0.00000,0.13607,-0.27214) ==
 == 267-th k-point nmo = 36 (0.06804,0.20411,-0.34018) ==
 == 268-th k-point nmo = 36 (0.13607,0.27214,-0.40822) ==
 == 269-th k-point nmo = 36 (0.20411,0.34018,-0.47625) ==
 == 270-th k-point nmo = 36 (-0.27214,-0.27214,0.13607) ==
 == 271-th k-point nmo = 36 (-0.20411,-0.20411,0.06804) ==
 == 272-th k-point nmo = 36 (-0.13607,-0.13607,0.00000) ==
 == 273-th k-point nmo = 36 (-0.06804,-0.06804,-0.06804) ==
 == 274-th k-point nmo = 36 (-0.00000,-0.00000,-0.13607) ==
 == 275-th k-point nmo = 36 (0.06804,0.06804,-0.20411) ==
 == 276-th k-point nmo = 36 (0.13607,0.13607,-0.27214) ==
 == 277-th k-point nmo = 36 (0.20411,0.20411,-0.34018) ==
 == 278-th k-point nmo = 36 (0.27214,0.27214,-0.40822) ==
 == 279-th k-point nmo = 36 (-0.20411,-0.34018,0.20411) ==
 == 280-th k-point nmo = 36 (-0.13607,-0.27214,0.13607) ==
 == 281-th k-point nmo = 36 (-0.06804,-0.20411,0.06804) ==
 == 282-th k-point nmo = 36 (-0.00000,-0.13607,0.00000) ==
 == 283-th k-point nmo = 36 (0.06804,-0.06804,-0.06804) ==
 == 284-th k-point nmo = 36 (0.13607,0.00000,-0.13607) ==
 == 285-th k-point nmo = 36 (0.20411,0.06804,-0.20411) ==
 == 286-th k-point nmo = 36 (0.27214,0.13607,-0.27214) ==
 == 287-th k-point nmo = 36 (0.34018,0.20411,-0.34018) ==
 == 288-th k-point nmo = 36 (-0.13607,-0.40822,0.27214) ==
 == 289-th k-point nmo = 36 (-0.06804,-0.34018,0.20411) ==
 == 290-th k-point nmo = 36 (-0.00000,-0.27214,0.13607) ==
 == 291-th k-point nmo = 36 (0.06804,-0.20411,0.06804) ==
 == 292-th k-point nmo = 36 (0.13607,-0.13607,0.00000) ==
 == 293-th k-point nmo = 36 (0.20411,-0.06804,-0.06804) ==
 == 294-th k-point nmo = 36 (0.27214,0.00000,-0.13607) ==
 == 295-th k-point nmo = 36 (0.34018,0.06804,-0.20411) ==
 == 296-th k-point nmo = 36 (0.40822,0.13607,-0.27214) ==
 == 297-th k-point nmo = 36 (-0.06804,-0.47625,0.34018) ==
 == 298-th k-point nmo = 36 (-0.00000,-0.40822,0.27214) ==
 == 299-th k-point nmo = 36 (0.06804,-0.34018,0.20411) ==
 == 300-th k-point nmo = 36 (0.13607,-0.27214,0.13607) ==
 == 301-th k-point nmo = 36 (0.20411,-0.20411,0.06804) ==
 == 302-th k-point nmo = 36 (0.27214,-0.13607,0.00000) ==
 == 303-th k-point nmo = 36 (0.34018,-0.06804,-0.06804) ==
 == 304-th k-point nmo = 36 (0.40822,0.00000,-0.13607) ==
 == 305-th k-point nmo = 36 (0.47625,0.06804,-0.20411) ==
 == 306-th k-point nmo = 36 (-0.00000,-0.54429,0.40822) ==
 == 307-th k-point nmo = 36 (0.06804,-0.47625,0.34018) ==
 == 308-th k-point nmo = 36 (0.13607,-0.40822,0.27214) ==
 == 309-th k-point nmo = 36 (0.20411,-0.34018,0.20411) ==
 == 310-th k-point nmo = 36 (0.27214,-0.27214,0.13607) ==
 == 311-th k-point nmo = 36 (0.34018,-0.20411,0.06804) ==
 == 312-th k-point nmo = 36 (0.40822,-0.13607,0.00000) ==
 == 313-th k-point nmo = 36 (0.47625,-0.06804,-0.06804) ==
 == 314-th k-point nmo = 36 (0.54429,0.00000,-0.13607) ==
 == 315-th k-point nmo = 36 (0.06804,-0.61232,0.47625) ==
 == 316-th k-point nmo = 36 (0.13607,-0.54429,0.40822) ==
 == 317-th k-point nmo = 36 (0.20411,-0.47625,0.34018) ==
 == 318-th k-point nmo = 36 (0.27214,-0.40822,0.27214) ==
 == 319-th k-point nmo = 36 (0.34018,-0.34018,0.20411) ==
 == 320-th k-point nmo = 36 (0.40822,-0.27214,0.13607) ==
 == 321-th k-point nmo = 36 (0.47625,-0.20411,0.06804) ==
 == 322-th k-point nmo = 36 (0.54429,-0.13607,0.00000) ==
 == 323-th k-point nmo = 36 (0.61232,-0.06804,-0.06804) ==
 == 324-th k-point nmo = 36 (-0.54429,-0.00000,0.00000) ==
 == 325-th k-point nmo = 36 (-0.47625,0.06804,-0.06804) ==
 == 326-th k-point nmo = 36 (-0.40822,0.13607,-0.13607) ==
 == 327-th k-point nmo = 36 (-0.34018,0.20411,-0.20411) ==
 == 328-th k-point nmo = 36 (-0.27214,0.27214,-0.27214) ==
 == 329-th k-point nmo = 36 (-0.20411,0.34018,-0.34018) ==
 == 330-th k-point nmo = 36 (-0.13607,0.40822,-0.40822) ==
 == 331-th k-point nmo = 36 (-0.06804,0.47625,-0.47625) ==
 == 332-th k-point nmo = 36 (0.00000,0.54429,-0.54429) ==
 == 333-th k-point nmo = 36 (-0.47625,-0.06804,0.06804) ==
 == 334-th k-point nmo = 36 (-0.40822,-0.00000,-0.00000) ==
 == 335-th k-point nmo = 36 (-0.34018,0.06804,-0.06804) ==
 == 336-th k-point nmo = 36 (-0.27214,0.13607,-0.13607) ==
 == 337-th k-point nmo = 36 (-0.20411,0.20411,-0.20411) ==
 == 338-th k-point nmo = 36 (-0.13607,0.27214,-0.27214) ==
 == 339-th k-point nmo = 36 (-0.06804,0.34018,-0.34018) ==
 == 340-th k-point nmo = 36 (0.00000,0.40822,-0.40822) ==
 == 341-th k-point nmo = 36 (0.06804,0.47625,-0.47625) ==
 == 342-th k-point nmo = 36 (-0.40822,-0.13607,0.13607) ==
 == 343-th k-point nmo = 36 (-0.34018,-0.06804,0.06804) ==
 == 344-th k-point nmo = 36 (-0.27214,-0.00000,0.00000) ==
 == 345-th k-point nmo = 36 (-0.20411,0.06804,-0.06804) ==
 == 346-th k-point nmo = 36 (-0.13607,0.13607,-0.13607) ==
 == 347-th k-point nmo = 36 (-0.06804,0.20411,-0.20411) ==
 == 348-th k-point nmo = 36 (0.00000,0.27214,-0.27214) ==
 == 349-th k-point nmo = 36 (0.06804,0.34018,-0.34018) ==
 == 350-th k-point nmo = 36 (0.13607,0.40822,-0.40822) ==
 == 351-th k-point nmo = 36 (-0.34018,-0.20411,0.20411) ==
 == 352-th k-point nmo = 36 (-0.27214,-0.13607,0.13607) ==
 == 353-th k-point nmo = 36 (-0.20411,-0.06804,0.06804) ==
 == 354-th k-point nmo = 36 (-0.13607,-0.00000,0.00000) ==
 == 355-th k-point nmo = 36 (-0.06804,0.06804,-0.06804) ==
 == 356-th k-point nmo = 36 (0.00000,0.13607,-0.13607) ==
 == 357-th k-point nmo = 36 (0.06804,0.20411,-0.20411) ==
 == 358-th k-point nmo = 36 (0.13607,0.27214,-0.27214) ==
 == 359-th k-point nmo = 36 (0.20411,0.34018,-0.34018) ==
 == 360-th k-point nmo = 36 (-0.27214,-0.27214,0.27214) ==
 == 361-th k-point nmo = 36 (-0.20411,-0.20411,0.20411) ==
 == 362-th k-point nmo = 36 (-0.13607,-0.13607,0.13607) ==
 == 363-th k-point nmo = 36 (-0.06804,-0.06804,0.06804) ==
 == 364-th k-point nmo = 36 (0.00000,0.00000,0.00000) ==
 == 365-th k-point nmo = 36 (0.06804,0.06804,-0.06804) ==
 == 366-th k-point nmo = 36 (0.13607,0.13607,-0.13607) ==
 == 367-th k-point nmo = 36 (0.20411,0.20411,-0.20411) ==
 == 368-th k-point nmo = 36 (0.27214,0.27214,-0.27214) ==
 == 369-th k-point nmo = 36 (-0.20411,-0.34018,0.34018) ==
 == 370-th k-point nmo = 36 (-0.13607,-0.27214,0.27214) ==
 == 371-th k-point nmo = 36 (-0.06804,-0.20411,0.20411) ==
 == 372-th k-point nmo = 36 (0.00000,-0.13607,0.13607) ==
 == 373-th k-point nmo = 36 (0.06804,-0.06804,0.06804) ==
 == 374-th k-point nmo = 36 (0.13607,0.00000,0.00000) ==
 == 375-th k-point nmo = 36 (0.20411,0.06804,-0.06804) ==
 == 376-th k-point nmo = 36 (0.27214,0.13607,-0.13607) ==
 == 377-th k-point nmo = 36 (0.34018,0.20411,-0.20411) ==
 == 378-th k-point nmo = 36 (-0.13607,-0.40822,0.40822) ==
 == 379-th k-point nmo = 36 (-0.06804,-0.34018,0.34018) ==
 == 380-th k-point nmo = 36 (0.00000,-0.27214,0.27214) ==
 == 381-th k-point nmo = 36 (0.06804,-0.20411,0.20411) ==
 == 382-th k-point nmo = 36 (0.13607,-0.13607,0.13607) ==
 == 383-th k-point nmo = 36 (0.20411,-0.06804,0.06804) ==
 == 384-th k-point nmo = 36 (0.27214,0.00000,0.00000) ==
 == 385-th k-point nmo = 36 (0.34018,0.06804,-0.06804) ==
 == 386-th k-point nmo = 36 (0.40822,0.13607,-0.13607) ==
 == 387-th k-point nmo = 36 (-0.06804,-0.47625,0.47625) ==
 == 388-th k-point nmo = 36 (-0.00000,-0.40822,0.40822) ==
 == 389-th k-point nmo = 36 (0.06804,-0.34018,0.34018) ==
 == 390-th k-point nmo = 36 (0.13607,-0.27214,0.27214) ==
 == 391-th k-point nmo = 36 (0.20411,-0.20411,0.20411) ==
 == 392-th k-point nmo = 36 (0.27214,-0.13607,0.13607) ==
 == 393-th k-point nmo = 36 (0.34018,-0.06804,0.06804) ==
 == 394-th k-point nmo = 36 (0.40822,0.00000,0.00000) ==
 == 395-th k-point nmo = 36 (0.47625,0.06804,-0.06804) ==
 == 396-th k-point nmo = 36 (0.00000,-0.54429,0.54429) ==
 == 397-th k-point nmo = 36 (0.06804,-0.47625,0.47625) ==
 == 398-th k-point nmo = 36 (0.13607,-0.40822,0.40822) ==
 == 399-th k-point nmo = 36 (0.20411,-0.34018,0.34018) ==
 == 400-th k-point nmo = 36 (0.27214,-0.27214,0.27214) ==
 == 401-th k-point nmo = 36 (0.34018,-0.20411,0.20411) ==
 == 402-th k-point nmo = 36 (0.40822,-0.13607,0.13607) ==
 == 403-th k-point nmo = 36 (0.47625,-0.06804,0.06804) ==
 == 404-th k-point nmo = 36 (0.54429,0.00000,0.00000) ==
 == 405-th k-point nmo = 36 (-0.61232,0.06804,0.06804) ==
 == 406-th k-point nmo = 36 (-0.54429,0.13607,-0.00000) ==
 == 407-th k-point nmo = 36 (-0.47625,0.20411,-0.06804) ==
 == 408-th k-point nmo = 36 (-0.40822,0.27214,-0.13607) ==
 == 409-th k-point nmo = 36 (-0.34018,0.34018,-0.20411) ==
 == 410-th k-point nmo = 36 (-0.27214,0.40822,-0.27214) ==
 == 411-th k-point nmo = 36 (-0.20411,0.47625,-0.34018) ==
 == 412-th k-point nmo = 36 (-0.13607,0.54429,-0.40822) ==
 == 413-th k-point nmo = 36 (-0.06804,0.61232,-0.47625) ==
 == 414-th k-point nmo = 36 (-0.54429,-0.00000,0.13607) ==
 == 415-th k-point nmo = 36 (-0.47625,0.06804,0.06804) ==
 == 416-th k-point nmo = 36 (-0.40822,0.13607,-0.00000) ==
 == 417-th k-point nmo = 36 (-0.34018,0.20411,-0.06804) ==
 == 418-th k-point nmo = 36 (-0.27214,0.27214,-0.13607) ==
 == 419-th k-point nmo = 36 (-0.20411,0.34018,-0.20411) ==
 == 420-th k-point nmo = 36 (-0.13607,0.40822,-0.27214) ==
 == 421-th k-point nmo = 36 (-0.06804,0.47625,-0.34018) ==
 == 422-th k-point nmo = 36 (0.00000,0.54429,-0.40822) ==
 == 423-th k-point nmo = 36 (-0.47625,-0.06804,0.20411) ==
 == 424-th k-point nmo = 36 (-0.40822,-0.00000,0.13607) ==
 == 425-th k-point nmo = 36 (-0.34018,0.06804,0.06804) ==
 == 426-th k-point nmo = 36 (-0.27214,0.13607,0.00000) ==
 == 427-th k-point nmo = 36 (-0.20411,0.20411,-0.06804) ==
 == 428-th k-point nmo = 36 (-0.13607,0.27214,-0.13607) ==
 == 429-th k-point nmo = 36 (-0.06804,0.34018,-0.20411) ==
 == 430-th k-point nmo = 36 (0.00000,0.40822,-0.27214) ==
 == 431-th k-point nmo = 36 (0.06804,0.47625,-0.34018) ==
 == 432-th k-point nmo = 36 (-0.40822,-0.13607,0.27214) ==
 == 433-th k-point nmo = 36 (-0.34018,-0.06804,0.20411) ==
 == 434-th k-point nmo = 36 (-0.27214,0.00000,0.13607) ==
 == 435-th k-point nmo = 36 (-0.20411,0.06804,0.06804) ==
 == 436-th k-point nmo = 36 (-0.13607,0.13607,0.00000) ==
 == 437-th k-point nmo = 36 (-0.06804,0.20411,-0.06804) ==
 == 438-th k-point nmo = 36 (0.00000,0.27214,-0.13607) ==
 == 439-th k-point nmo = 36 (0.06804,0.34018,-0.20411) ==
 == 440-th k-point nmo = 36 (0.13607,0.40822,-0.27214) ==
 == 441-th k-point nmo = 36 (-0.34018,-0.20411,0.34018) ==
 == 442-th k-point nmo = 36 (-0.27214,-0.13607,0.27214) ==
 == 443-th k-point nmo = 36 (-0.20411,-0.06804,0.20411) ==
 == 444-th k-point nmo = 36 (-0.13607,0.00000,0.13607) ==
 == 445-th k-point nmo = 36 (-0.06804,0.06804,0.06804) ==
 == 446-th k-point nmo = 36 (0.00000,0.13607,0.00000) ==
 == 447-th k-point nmo = 36 (0.06804,0.20411,-0.06804) ==
 == 448-th k-point nmo = 36 (0.13607,0.27214,-0.13607) ==
 == 449-th k-point nmo = 36 (0.20411,0.34018,-0.20411) ==
 == 450-th k-point nmo = 36 (-0.27214,-0.27214,0.40822) ==
 == 451-th k-point nmo = 36 (-0.20411,-0.20411,0.34018) ==
 == 452-th k-point nmo = 36 (-0.13607,-0.13607,0.27214) ==
 == 453-th k-point nmo = 36 (-0.06804,-0.06804,0.20411) ==
 == 454-th k-point nmo = 36 (0.00000,0.00000,0.13607) ==
 == 455-th k-point nmo = 36 (0.06804,0.06804,0.06804) ==
 == 456-th k-point nmo = 36 (0.13607,0.13607,0.00000) ==
 == 457-th k-point nmo = 36 (0.20411,0.20411,-0.06804) ==
 == 458-th k-point nmo = 36 (0.27214,0.27214,-0.13607) ==
 == 459-th k-point nmo = 36 (-0.20411,-0.34018,0.47625) ==
 == 460-th k-point nmo = 36 (-0.13607,-0.27214,0.40822) ==
 == 461-th k-point nmo = 36 (-0.06804,-0.20411,0.34018) ==
 == 462-th k-point nmo = 36 (0.00000,-0.13607,0.27214) ==
 == 463-th k-point nmo = 36 (0.06804,-0.06804,0.20411) ==
 == 464-th k-point nmo = 36 (0.13607,0.00000,0.13607) ==
 == 465-th k-point nmo = 36 (0.20411,0.06804,0.06804) ==
 == 466-th k-point nmo = 36 (0.27214,0.13607,0.00000) ==
 == 467-th k-point nmo = 36 (0.34018,0.20411,-0.06804) ==
 == 468-th k-point nmo = 36 (-0.13607,-0.40822,0.54429) ==
 == 469-th k-point nmo = 36 (-0.06804,-0.34018,0.47625) ==
 == 470-th k-point nmo = 36 (0.00000,-0.27214,0.40822) ==
 == 471-th k-point nmo = 36 (0.06804,-0.20411,0.34018) ==
 == 472-th k-point nmo = 36 (0.13607,-0.13607,0.27214) ==
 == 473-th k-point nmo = 36 (0.20411,-0.06804,0.20411) ==
 == 474-th k-point nmo = 36 (0.27214,0.00000,0.13607) ==
 == 475-th k-point nmo = 36 (0.34018,0.06804,0.06804) ==
 == 476-th k-point nmo = 36 (0.40822,0.13607,0.00000) ==
 == 477-th k-point nmo = 36 (-0.06804,-0.47625,0.61232) ==
 == 478-th k-point nmo = 36 (0.00000,-0.40822,0.54429) ==
 == 479-th k-point nmo = 36 (0.06804,-0.34018,0.47625) ==
 == 480-th k-point nmo = 36 (0.13607,-0.27214,0.40822) ==
 == 481-th k-point nmo = 36 (0.20411,-0.20411,0.34018) ==
 == 482-th k-point nmo = 36 (0.27214,-0.13607,0.27214) ==
 == 483-th k-point nmo = 36 (0.34018,-0.06804,0.20411) ==
 == 484-th k-point nmo = 36 (0.40822,0.00000,0.13607) ==
 == 485-th k-point nmo = 36 (0.47625,0.06804,0.06804) ==
 == 486-th k-point nmo = 36 (-0.68036,0.13607,0.13607) ==
 == 487-th k-point nmo = 36 (-0.61232,0.20411,0.06804) ==
 == 488-th k-point nmo = 36 (-0.54429,0.27214,0.00000) ==
 == 489-th k-point nmo = 36 (-0.47625,0.34018,-0.06804) ==
 == 490-th k-point nmo = 36 (-0.40822,0.40822,-0.13607) ==
 == 491-th k-point nmo = 36 (-0.34018,0.47625,-0.20411) ==
 == 492-th k-point nmo = 36 (-0.27214,0.54429,-0.27214) ==
 == 493-th k-point nmo = 36 (-0.20411,0.61232,-0.34018) ==
 == 494-th k-point nmo = 36 (-0.13607,0.68036,-0.40822) ==
 == 495-th k-point nmo = 36 (-0.61232,0.06804,0.20411) ==
 == 496-th k-point nmo = 36 (-0.54429,0.13607,0.13607) ==
 == 497-th k-point nmo = 36 (-0.47625,0.20411,0.06804) ==
 == 498-th k-point nmo = 36 (-0.40822,0.27214,-0.00000) ==
 == 499-th k-point nmo = 36 (-0.34018,0.34018,-0.06804) ==
 == 500-th k-point nmo = 36 (-0.27214,0.40822,-0.13607) ==
 == 501-th k-point nmo = 36 (-0.20411,0.47625,-0.20411) ==
 == 502-th k-point nmo = 36 (-0.13607,0.54429,-0.27214) ==
 == 503-th k-point nmo = 36 (-0.06804,0.61232,-0.34018) ==
 == 504-th k-point nmo = 36 (-0.54429,0.00000,0.27214) ==
 == 505-th k-point nmo = 36 (-0.47625,0.06804,0.20411) ==
 == 506-th k-point nmo = 36 (-0.40822,0.13607,0.13607) ==
 == 507-th k-point nmo = 36 (-0.34018,0.20411,0.06804) ==
 == 508-th k-point nmo = 36 (-0.27214,0.27214,0.00000) ==
 == 509-th k-point nmo = 36 (-0.20411,0.34018,-0.06804) ==
 == 510-th k-point nmo = 36 (-0.13607,0.40822,-0.13607) ==
 == 511-th k-point nmo = 36 (-0.06804,0.47625,-0.20411) ==
 == 512-th k-point nmo = 36 (0.00000,0.54429,-0.27214) ==
 == 513-th k-point nmo = 36 (-0.47625,-0.06804,0.34018) ==
 == 514-th k-point nmo = 36 (-0.40822,-0.00000,0.27214) ==
 == 515-th k-point nmo = 36 (-0.34018,0.06804,0.20411) ==
 == 516-th k-point nmo = 36 (-0.27214,0.13607,0.13607) ==
 == 517-th k-point nmo = 36 (-0.20411,0.20411,0.06804) ==
 == 518-th k-point nmo = 36 (-0.13607,0.27214,0.00000) ==
 == 519-th k-point nmo = 36 (-0.06804,0.34018,-0.06804) ==
 == 520-th k-point nmo = 36 (0.00000,0.40822,-0.13607) ==
 == 521-th k-point nmo = 36 (0.06804,0.47625,-0.20411) ==
 == 522-th k-point nmo = 36 (-0.40822,-0.13607,0.40822) ==
 == 523-th k-point nmo = 36 (-0.34018,-0.06804,0.34018) ==
 == 524-th k-point nmo = 36 (-0.27214,0.00000,0.27214) ==
 == 525-th k-point nmo = 36 (-0.20411,0.06804,0.20411) ==
 == 526-th k-point nmo = 36 (-0.13607,0.13607,0.13607) ==
 == 527-th k-point nmo = 36 (-0.06804,0.20411,0.06804) ==
 == 528-th k-point nmo = 36 (0.00000,0.27214,0.00000) ==
 == 529-th k-point nmo = 36 (0.06804,0.34018,-0.06804) ==
 == 530-th k-point nmo = 36 (0.13607,0.40822,-0.13607) ==
 == 531-th k-point nmo = 36 (-0.34018,-0.20411,0.47625) ==
 == 532-th k-point nmo = 36 (-0.27214,-0.13607,0.40822) ==
 == 533-th k-point nmo = 36 (-0.20411,-0.06804,0.34018) ==
 == 534-th k-point nmo = 36 (-0.13607,0.00000,0.27214) ==
 == 535-th k-point nmo = 36 (-0.06804,0.06804,0.20411) ==
 == 536-th k-point nmo = 36 (0.00000,0.13607,0.13607) ==
 == 537-th k-point nmo = 36 (0.06804,0.20411,0.06804) ==
 == 538-th k-point nmo = 36 (0.13607,0.27214,0.00000) ==
 == 539-th k-point nmo = 36 (0.20411,0.34018,-0.06804) ==
 == 540-th k-point nmo = 36 (-0.27214,-0.27214,0.54429) ==
 == 541-th k-point nmo = 36 (-0.20411,-0.20411,0.47625) ==
 == 542-th k-point nmo = 36 (-0.13607,-0.13607,0.40822) ==
 == 543-th k-point nmo = 36 (-0.06804,-0.06804,0.34018) ==
 == 544-th k-point nmo = 36 (0.00000,0.00000,0.27214) ==
 == 545-th k-point nmo = 36 (0.06804,0.06804,0.20411) ==
 == 546-th k-point nmo = 36 (0.13607,0.13607,0.13607) ==
 == 547-th k-point nmo = 36 (0.20411,0.20411,0.06804) ==
 == 548-th k-point nmo = 36 (0.27214,0.27214,0.00000) ==
 == 549-th k-point nmo = 36 (-0.20411,-0.34018,0.61232) ==
 == 550-th k-point nmo = 36 (-0.13607,-0.27214,0.54429) ==
 == 551-th k-point nmo = 36 (-0.06804,-0.20411,0.47625) ==
 == 552-th k-point nmo = 36 (0.00000,-0.13607,0.40822) ==
 == 553-th k-point nmo = 36 (0.06804,-0.06804,0.34018) ==
 == 554-th k-point nmo = 36 (0.13607,0.00000,0.27214) ==
 == 555-th k-point nmo = 36 (0.20411,0.06804,0.20411) ==
 == 556-th k-point nmo = 36 (0.27214,0.13607,0.13607) ==
 == 557-th k-point nmo = 36 (0.34018,0.20411,0.06804) ==
 == 558-th k-point nmo = 36 (-0.13607,-0.40822,0.68036) ==
 == 559-th k-point nmo = 36 (-0.06804,-0.34018,0.61232) ==
 == 560-th k-point nmo = 36 (0.00000,-0.27214,0.54429) ==
 == 561-th k-point nmo = 36 (0.06804,-0.20411,0.47625) ==
 == 562-th k-point nmo = 36 (0.13607,-0.13607,0.40822) ==
 == 563-th k-point nmo = 36 (0.20411,-0.06804,0.34018) ==
 == 564-th k-point nmo = 36 (0.27214,0.00000,0.27214) ==
 == 565-th k-point nmo = 36 (0.34018,0.06804,0.20411) ==
 == 566-th k-point nmo = 36 (0.40822,0.13607,0.13607) ==
 == 567-th k-point nmo = 36 (-0.74840,0.20411,0.20411) ==
 == 568-th k-point nmo = 36 (-0.68036,0.27214,0.13607) ==
 == 569-th k-point nmo = 36 (-0.61232,0.34018,0.06804) ==
 == 570-th k-point nmo = 36 (-0.54429,0.40822,-0.00000) ==
 == 571-th k-point nmo = 36 (-0.47625,0.47625,-0.06804) ==
 == 572-th k-point nmo = 36 (-0.40822,0.54429,-0.13607) ==
 == 573-th k-point nmo = 36 (-0.34018,0.61232,-0.20411) ==
 == 574-th k-point nmo = 36 (-0.27214,0.68036,-0.27214) ==
 == 575-th k-point nmo = 36 (-0.20411,0.74840,-0.34018) ==
 == 576-th k-point nmo = 36 (-0.68036,0.13607,0.27214) ==
 == 577-th k-point nmo = 36 (-0.61232,0.20411,0.20411) ==
 == 578-th k-point nmo = 36 (-0.54429,0.27214,0.13607) ==
 == 579-th k-point nmo = 36 (-0.47625,0.34018,0.06804) ==
 == 580-th k-point nmo = 36 (-0.40822,0.40822,-0.00000) ==
 == 581-th k-point nmo = 36 (-0.34018,0.47625,-0.06804) ==
 == 582-th k-point nmo = 36 (-0.27214,0.54429,-0.13607) ==
 == 583-th k-point nmo = 36 (-0.20411,0.61232,-0.20411) ==
 == 584-th k-point nmo = 36 (-0.13607,0.68036,-0.27214) ==
 == 585-th k-point nmo = 36 (-0.61232,0.06804,0.34018) ==
 == 586-th k-point nmo = 36 (-0.54429,0.13607,0.27214) ==
 == 587-th k-point nmo = 36 (-0.47625,0.20411,0.20411) ==
 == 588-th k-point nmo = 36 (-0.40822,0.27214,0.13607) ==
 == 589-th k-point nmo = 36 (-0.34018,0.34018,0.06804) ==
 == 590-th k-point nmo = 36 (-0.27214,0.40822,-0.00000) ==
 == 591-th k-point nmo = 36 (-0.20411,0.47625,-0.06804) ==
 == 592-th k-point nmo = 36 (-0.13607,0.54429,-0.13607) ==
 == 593-th k-point nmo = 36 (-0.06804,0.61232,-0.20411) ==
 == 594-th k-point nmo = 36 (-0.54429,0.00000,0.40822) ==
 == 595-th k-point nmo = 36 (-0.47625,0.06804,0.34018) ==
 == 596-th k-point nmo = 36 (-0.40822,0.13607,0.27214) ==
 == 597-th k-point nmo = 36 (-0.34018,0.20411,0.20411) ==
 == 598-th k-point nmo = 36 (-0.27214,0.27214,0.13607) ==
 == 599-th k-point nmo = 36 (-0.20411,0.34018,0.06804) ==
 == 600-th k-point nmo = 36 (-0.13607,0.40822,-0.00000) ==
 == 601-th k-point nmo = 36 (-0.06804,0.47625,-0.06804) ==
 == 602-th k-point nmo = 36 (0.00000,0.54429,-0.13607) ==
 == 603-th k-point nmo = 36 (-0.47625,-0.06804,0.47625) ==
 == 604-th k-point nmo = 36 (-0.40822,0.00000,0.40822) ==
 == 605-th k-point nmo = 36 (-0.34018,0.06804,0.34018) ==
 == 606-th k-point nmo = 36 (-0.27214,0.13607,0.27214) ==
 == 607-th k-point nmo = 36 (-0.20411,0.20411,0.20411) ==
 == 608-th k-point nmo = 36 (-0.13607,0.27214,0.13607) ==
 == 609-th k-point nmo = 36 (-0.06804,0.34018,0.06804) ==
 == 610-th k-point nmo = 36 (0.00000,0.40822,0.00000) ==
 == 611-th k-point nmo = 36 (0.06804,0.47625,-0.06804) ==
 == 612-th k-point nmo = 36 (-0.40822,-0.13607,0.54429) ==
 == 613-th k-point nmo = 36 (-0.34018,-0.06804,0.47625) ==
 == 614-th k-point nmo = 36 (-0.27214,0.00000,0.40822) ==
 == 615-th k-point nmo = 36 (-0.20411,0.06804,0.34018) ==
 == 616-th k-point nmo = 36 (-0.13607,0.13607,0.27214) ==
 == 617-th k-point nmo = 36 (-0.06804,0.20411,0.20411) ==
 == 618-th k-point nmo = 36 (0.00000,0.27214,0.13607) ==
 == 619-th k-point nmo = 36 (0.06804,0.34018,0.06804) ==
 == 620-th k-point nmo = 36 (0.13607,0.40822,0.00000) ==
 == 621-th k-point nmo = 36 (-0.34018,-0.20411,0.61232) ==
 == 622-th k-point nmo = 36 (-0.27214,-0.13607,0.54429) ==
 == 623-th k-point nmo = 36 (-0.20411,-0.06804,0.47625) ==
 == 624-th k-point nmo = 36 (-0.13607,0.00000,0.40822) ==
 == 625-th k-point nmo = 36 (-0.06804,0.06804,0.34018) ==
 == 626-th k-point nmo = 36 (0.00000,0.13607,0.27214) ==
[...]
 0.76865 0.81421 0.83785 0.91531 0.97621 1.07243 1.10107 1.13276 1.15236 1.23300
 1.35559 1.39371 1.41627 1.57990 1.81572 2.48619
 == 678-th k-point (-0.40822,0.27214,0.27214) occupation: 14==
 -64.99645 -64.99644 -4.62603 -4.62602 -3.03768 -3.03767 -3.03750 -3.03710 -3.03695 -3.03694
 -0.07399 0.02235 0.19478 0.22477 0.36352 0.41098 0.42789 0.60160 0.63973 0.66715
 0.76588 0.80078 0.80368 0.81690 1.02517 1.07262 1.14816 1.17189 1.18011 1.23828
 1.37824 1.42867 1.43370 1.55328 1.65934 2.61019
 == 679-th k-point (-0.34018,0.34018,0.20411) occupation: 14==
 -64.99645 -64.99644 -4.62603 -4.62602 -3.03768 -3.03767 -3.03750 -3.03710 -3.03695 -3.03694
 -0.07399 0.02235 0.19478 0.22477 0.36352 0.41098 0.42789 0.60160 0.63973 0.66715
 0.76588 0.80078 0.80368 0.81690 1.02517 1.07262 1.14816 1.17189 1.18011 1.23828
 1.37824 1.42867 1.43370 1.55328 1.65934 2.61019
 == 680-th k-point (-0.27214,0.40822,0.13607) occupation: 14==
 -64.99645 -64.99644 -4.62603 -4.62602 -3.03768 -3.03767 -3.03747 -3.03714 -3.03694 -3.03692
 -0.06903 0.03366 0.15930 0.20522 0.38871 0.40257 0.48645 0.53443 0.61868 0.68477
 0.76865 0.81421 0.83785 0.91531 0.97621 1.07243 1.10107 1.13276 1.15236 1.23300
 1.35559 1.39371 1.41627 1.57990 1.81572 2.48619
 == 681-th k-point (-0.20411,0.47625,0.06804) occupation: 14==
 -64.99644 -64.99644 -4.62606 -4.62603 -3.03770 -3.03768 -3.03741 -3.03719 -3.03693 -3.03691
 -0.05749 0.04039 0.13759 0.17655 0.36508 0.43114 0.46984 0.56877 0.62637 0.70800
 0.76903 0.82569 0.88952 0.90187 0.99145 1.04456 1.06180 1.10958 1.13835 1.20878
 1.28814 1.32643 1.40596 1.52377 1.83999 2.20521
 == 682-th k-point (-0.13607,0.54429,0.00000) occupation: 14==
 -64.99644 -64.99644 -4.62607 -4.62604 -3.03770 -3.03769 -3.03736 -3.03725 -3.03692 -3.03691
 -0.03807 0.02037 0.15141 0.15920 0.34296 0.35562 0.55532 0.62052 0.65960 0.71969
 0.76214 0.82012 0.83188 0.91837 0.97288 1.02329 1.10235 1.11902 1.16384 1.17463
 1.26191 1.26913 1.38876 1.44062 1.98698 1.99430
 == 683-th k-point (-0.06804,0.61232,-0.06804) occupation: 14==
 -64.99644 -64.99644 -4.62606 -4.62606 -3.03770 -3.03769 -3.03732 -3.03728 -3.03692 -3.03691
 -0.01387 -0.00766 0.14947 0.17351 0.31205 0.34322 0.62578 0.63510 0.67038 0.69025
 0.78620 0.81911 0.82628 0.83238 1.01131 1.03917 1.10853 1.14747 1.15940 1.19460
 1.22410 1.25508 1.39296 1.44000 1.83085 2.15500
 == 684-th k-point (-0.54429,0.00000,0.54429) occupation: 14==
 -64.99644 -64.99644 -4.62606 -4.62606 -3.03770 -3.03769 -3.03732 -3.03728 -3.03692 -3.03691
 -0.01387 -0.00766 0.14947 0.17351 0.31205 0.34322 0.62578 0.63510 0.67038 0.69025
 0.78620 0.81911 0.82628 0.83238 1.01131 1.03917 1.10853 1.14747 1.15940 1.19460
 1.22410 1.25508 1.39296 1.44000 1.83084 2.15500
 == 685-th k-point (-0.47625,0.06804,0.47625) occupation: 14==
 -64.99645 -64.99644 -4.62606 -4.62604 -3.03770 -3.03768 -3.03738 -3.03722 -3.03693 -3.03691
 -0.03787 0.01967 0.12622 0.18475 0.32533 0.41968 0.55608 0.55917 0.64199 0.66455
 0.80398 0.82611 0.90662 0.93721 0.94434 1.02471 1.08147 1.08514 1.16150 1.22639
 1.25575 1.26058 1.40841 1.53982 1.73160 2.33824
 == 686-th k-point (-0.40822,0.13607,0.40822) occupation: 14==
 -64.99645 -64.99644 -4.62604 -4.62603 -3.03768 -3.03768 -3.03745 -3.03716 -3.03694 -3.03692
 -0.05828 0.02631 0.14467 0.20386 0.34898 0.47175 0.48237 0.51697 0.63198 0.66055
 0.80658 0.81955 0.82953 0.93729 1.01299 1.04725 1.05636 1.09772 1.19448 1.20050
 1.34086 1.34412 1.41821 1.64652 1.71463 2.46141
 == 687-th k-point (-0.34018,0.20411,0.34018) occupation: 14==
 -64.99645 -64.99644 -4.62603 -4.62602 -3.03768 -3.03767 -3.03750 -3.03710 -3.03695 -3.03694
 -0.07399 0.02235 0.19478 0.22477 0.36352 0.41098 0.42789 0.60160 0.63973 0.66715
 0.76588 0.80078 0.80368 0.81690 1.02517 1.07262 1.14816 1.17189 1.18011 1.23828
 1.37824 1.42867 1.43370 1.55328 1.65934 2.61019
 == 688-th k-point (-0.27214,0.27214,0.27214) occupation: 14==
 -64.99645 -64.99644 -4.62603 -4.62601 -3.03767 -3.03767 -3.03752 -3.03707 -3.03695 -3.03695
 -0.08457 0.02750 0.23305 0.23305 0.33886 0.40982 0.40982 0.60085 0.68187 0.68187
 0.70396 0.78528 0.78528 0.80431 0.99213 1.12251 1.16883 1.16883 1.24986 1.24986
 1.30243 1.47671 1.47671 1.52682 1.52682 2.61385
 == 689-th k-point (-0.20411,0.34018,0.20411) occupation: 14==
 -64.99645 -64.99644 -4.62602 -4.62600 -3.03768 -3.03767 -3.03752 -3.03709 -3.03695 -3.03695
 -0.08802 0.04365 0.20455 0.21959 0.36339 0.41000 0.43762 0.54413 0.67466 0.70198
 0.71188 0.76874 0.81231 0.88926 0.96463 1.12107 1.12696 1.15835 1.19671 1.25015
 1.36197 1.41977 1.46599 1.62627 1.62960 2.61135
 == 690-th k-point (-0.13607,0.40822,0.13607) occupation: 14==
 -64.99645 -64.99644 -4.62605 -4.62601 -3.03769 -3.03768 -3.03747 -3.03713 -3.03694 -3.03693
 -0.08254 0.06137 0.16409 0.19811 0.34318 0.44167 0.48019 0.49665 0.70498 0.72225
 0.72440 0.75610 0.85835 0.90156 1.02420 1.04206 1.06690 1.11366 1.16247 1.27040
 1.34922 1.35156 1.40770 1.62353 1.73170 2.52274
 == 691-th k-point (-0.06804,0.47625,0.06804) occupation: 14==
 -64.99644 -64.99644 -4.62608 -4.62602 -3.03769 -3.03769 -3.03741 -3.03719 -3.03693 -3.03692
 -0.06727 0.05291 0.15985 0.18077 0.31748 0.35922 0.56800 0.57100 0.71748 0.73130
 0.73997 0.75414 0.85205 0.92866 0.94537 1.02958 1.08320 1.08458 1.18901 1.27353
 1.27905 1.30779 1.39287 1.51039 1.84265 2.20937
 == 692-th k-point (0.00000,0.54429,0.00000) occupation: 14==
 -64.99644 -64.99644 -4.62607 -4.62604 -3.03769 -3.03769 -3.03736 -3.03724 -3.03692 -3.03692
 -0.04244 0.02089 0.17212 0.17212 0.30314 0.31920 0.63363 0.63363 0.73843 0.74527
 0.74655 0.74655 0.79233 0.83695 1.02242 1.03512 1.10373 1.10373 1.21865 1.21865
 1.23800 1.28030 1.41870 1.45008 1.92342 1.92343
 == 693-th k-point (-0.47625,-0.06804,0.61232) occupation: 14==
 -64.99644 -64.99644 -4.62607 -4.62604 -3.03770 -3.03769 -3.03736 -3.03725 -3.03692 -3.03691
 -0.03807 0.02037 0.15141 0.15920 0.34296 0.35562 0.55532 0.62052 0.65960 0.71969
 0.76214 0.82012 0.83188 0.91837 0.97288 1.02329 1.10235 1.11902 1.16384 1.17463
 1.26191 1.26913 1.38876 1.44062 1.98698 1.99429
 == 694-th k-point (-0.40822,0.00000,0.54429) occupation: 14==
 -64.99644 -64.99644 -4.62606 -4.62606 -3.03770 -3.03770 -3.03734 -3.03726 -3.03692 -3.03691
 -0.01864 0.00335 0.12453 0.16254 0.35731 0.42006 0.53347 0.54434 0.64419 0.68651
 0.79262 0.84139 0.91381 0.95224 0.97050 1.01042 1.06910 1.08061 1.13420 1.17299
 1.24974 1.25507 1.43392 1.46072 1.81592 2.05360
 == 695-th k-point (-0.34018,0.06804,0.47625) occupation: 14==
 -64.99644 -64.99644 -4.62605 -4.62604 -3.03769 -3.03769 -3.03741 -3.03720 -3.03693 -3.03691
 -0.04392 0.02456 0.12317 0.18077 0.37624 0.45281 0.51369 0.53062 0.57041 0.67941
 0.79996 0.85568 0.92268 0.94495 0.96474 1.01949 1.05696 1.07472 1.15698 1.19223
 1.27248 1.31564 1.44616 1.54776 1.81479 2.11163
 == 696-th k-point (-0.27214,0.13607,0.40822) occupation: 14==
 -64.99645 -64.99644 -4.62603 -4.62602 -3.03768 -3.03767 -3.03747 -3.03714 -3.03694 -3.03692
 -0.06903 0.03366 0.15930 0.20522 0.38871 0.40257 0.48645 0.53443 0.61868 0.68477
 0.76865 0.81421 0.83785 0.91531 0.97621 1.07243 1.10107 1.13276 1.15236 1.23300
 1.35559 1.39371 1.41627 1.57990 1.81572 2.48619
 == 697-th k-point (-0.20411,0.20411,0.34018) occupation: 14==
 -64.99645 -64.99644 -4.62602 -4.62600 -3.03768 -3.03767 -3.03752 -3.03709 -3.03695 -3.03695
 -0.08802 0.04365 0.20455 0.21959 0.36339 0.41000 0.43762 0.54413 0.67466 0.70198
 0.71188 0.76874 0.81231 0.88926 0.96463 1.12107 1.12696 1.15835 1.19671 1.25015
 1.36197 1.41977 1.46599 1.62627 1.62960 2.61135
 == 698-th k-point (-0.13607,0.27214,0.27214) occupation: 14==
 -64.99645 -64.99644 -4.62602 -4.62598 -3.03767 -3.03767 -3.03753 -3.03707 -3.03696 -3.03694
 -0.09828 0.06137 0.19354 0.23736 0.37033 0.41987 0.42269 0.56228 0.60015 0.68535
 0.72455 0.79040 0.84329 0.89577 0.94684 1.08544 1.11612 1.19996 1.21546 1.31570
 1.33354 1.42888 1.49043 1.55787 1.76189 2.50045
 == 699-th k-point (-0.06804,0.34018,0.20411) occupation: 14==
 -64.99644 -64.99644 -4.62604 -4.62600 -3.03767 -3.03767 -3.03751 -3.03709 -3.03696 -3.03693
 -0.09844 0.08162 0.16641 0.21754 0.38507 0.41712 0.46543 0.49150 0.62340 0.69997
 0.73573 0.80214 0.84045 0.90438 1.00905 1.03680 1.06513 1.15259 1.22855 1.28346
 1.35299 1.39686 1.46398 1.60906 1.88509 2.35060
 == 700-th k-point (0.00000,0.40822,0.13607) occupation: 14==
 -64.99644 -64.99644 -4.62606 -4.62601 -3.03769 -3.03768 -3.03746 -3.03714 -3.03695 -3.03693
 -0.08801 0.08059 0.16227 0.18806 0.34894 0.39056 0.48745 0.55279 0.65868 0.71632
 0.73528 0.82652 0.83502 0.89713 0.99900 1.02223 1.07990 1.08350 1.19699 1.27552
 1.33251 1.35057 1.43119 1.53862 2.05033 2.07459
 == 701-th k-point (0.06804,0.47625,0.06804) occupation: 14==
 -64.99644 -64.99644 -4.62608 -4.62602 -3.03769 -3.03769 -3.03741 -3.03719 -3.03693 -3.03692
 -0.06727 0.05291 0.15985 0.18077 0.31748 0.35922 0.56800 0.57100 0.71748 0.73130
 0.73997 0.75414 0.85205 0.92866 0.94537 1.02958 1.08320 1.08458 1.18901 1.27353
 1.27905 1.30779 1.39287 1.51039 1.84265 2.20936
 == 702-th k-point (-0.40822,-0.13607,0.68036) occupation: 14==
 -64.99644 -64.99644 -4.62606 -4.62603 -3.03770 -3.03768 -3.03741 -3.03719 -3.03693 -3.03691
 -0.05749 0.04039 0.13759 0.17655 0.36508 0.43114 0.46984 0.56877 0.62637 0.70800
 0.76903 0.82569 0.88952 0.90187 0.99145 1.04456 1.06180 1.10958 1.13835 1.20878
 1.28814 1.32643 1.40596 1.52376 1.83999 2.20521
 == 703-th k-point (-0.34018,-0.06804,0.61232) occupation: 14==
 -64.99644 -64.99644 -4.62606 -4.62605 -3.03771 -3.03770 -3.03735 -3.03725 -3.03692 -3.03691
 -0.02772 0.01505 0.12600 0.14997 0.42689 0.43213 0.45442 0.52242 0.64202 0.70425
 0.78510 0.83993 0.91276 0.96752 0.98577 1.05071 1.06713 1.06982 1.09532 1.12301
 1.25379 1.28477 1.44662 1.47860 1.85703 1.89186
 == 704-th k-point (-0.27214,0.00000,0.54429) occupation: 14==
 -64.99644 -64.99644 -4.62606 -4.62605 -3.03771 -3.03770 -3.03735 -3.03725 -3.03692 -3.03691
 -0.02772 0.01505 0.12600 0.14997 0.42689 0.43213 0.45442 0.52242 0.64202 0.70425
 0.78510 0.83993 0.91276 0.96752 0.98577 1.05071 1.06713 1.06982 1.09532 1.12301
 1.25379 1.28477 1.44662 1.47860 1.85703 1.89186
 == 705-th k-point (-0.20411,0.06804,0.47625) occupation: 14==
 -64.99644 -64.99644 -4.62606 -4.62603 -3.03770 -3.03768 -3.03741 -3.03719 -3.03693 -3.03691
 -0.05749 0.04039 0.13759 0.17655 0.36508 0.43114 0.46984 0.56877 0.62637 0.70800
 0.76903 0.82569 0.88952 0.90187 0.99145 1.04456 1.06180 1.10958 1.13835 1.20878
 1.28814 1.32643 1.40596 1.52377 1.83999 2.20521
 == 706-th k-point (-0.13607,0.13607,0.40822) occupation: 14==
 -64.99645 -64.99644 -4.62605 -4.62601 -3.03769 -3.03768 -3.03747 -3.03713 -3.03694 -3.03693
 -0.08254 0.06137 0.16409 0.19811 0.34318 0.44167 0.48019 0.49665 0.70498 0.72225
 0.72440 0.75610 0.85835 0.90156 1.02420 1.04206 1.06690 1.11366 1.16247 1.27040
 1.34922 1.35156 1.40770 1.62353 1.73170 2.52274
 == 707-th k-point (-0.06804,0.20411,0.34018) occupation: 14==
 -64.99644 -64.99644 -4.62604 -4.62600 -3.03767 -3.03767 -3.03751 -3.03709 -3.03696 -3.03693
 -0.09844 0.08162 0.16641 0.21754 0.38507 0.41712 0.46543 0.49150 0.62340 0.69997
 0.73573 0.80214 0.84045 0.90438 1.00905 1.03680 1.06513 1.15259 1.22855 1.28346
 1.35299 1.39686 1.46398 1.60906 1.88509 2.35060
 == 708-th k-point (0.00000,0.27214,0.27214) occupation: 14==
 -64.99644 -64.99644 -4.62603 -4.62599 -3.03767 -3.03766 -3.03753 -3.03708 -3.03697 -3.03693
 -0.10385 0.09429 0.15211 0.23808 0.38324 0.44191 0.45900 0.50077 0.56035 0.69776
 0.74053 0.79510 0.83114 0.97414 0.97734 1.00471 1.05710 1.16836 1.29140 1.31326
 1.34816 1.41364 1.47587 1.65083 2.03877 2.15125
 == 709-th k-point (0.06804,0.34018,0.20411) occupation: 14==
 -64.99644 -64.99644 -4.62604 -4.62600 -3.03767 -3.03767 -3.03751 -3.03709 -3.03696 -3.03693
 -0.09844 0.08162 0.16641 0.21754 0.38507 0.41712 0.46543 0.49150 0.62340 0.69997
 0.73573 0.80214 0.84045 0.90438 1.00905 1.03680 1.06513 1.15259 1.22855 1.28346
 1.35299 1.39686 1.46398 1.60906 1.88509 2.35060
 == 710-th k-point (0.13607,0.40822,0.13607) occupation: 14==
 -64.99645 -64.99644 -4.62605 -4.62601 -3.03769 -3.03768 -3.03747 -3.03713 -3.03694 -3.03693
 -0.08254 0.06137 0.16409 0.19811 0.34318 0.44167 0.48019 0.49665 0.70498 0.72225
 0.72440 0.75610 0.85835 0.90156 1.02420 1.04206 1.06690 1.11366 1.16247 1.27040
 1.34922 1.35156 1.40770 1.62353 1.73170 2.52274
 == 711-th k-point (-0.34018,-0.20411,0.74840) occupation: 14==
 -64.99645 -64.99644 -4.62603 -4.62602 -3.03768 -3.03767 -3.03747 -3.03714 -3.03694 -3.03692
 -0.06903 0.03366 0.15930 0.20522 0.38871 0.40257 0.48645 0.53443 0.61868 0.68477
 0.76865 0.81421 0.83785 0.91531 0.97621 1.07243 1.10107 1.13276 1.15236 1.23300
 1.35559 1.39371 1.41627 1.57990 1.81572 2.48619
 == 712-th k-point (-0.27214,-0.13607,0.68036) occupation: 14==
 -64.99644 -64.99644 -4.62605 -4.62604 -3.03769 -3.03769 -3.03741 -3.03720 -3.03693 -3.03691
 -0.04392 0.02456 0.12317 0.18077 0.37624 0.45281 0.51369 0.53062 0.57041 0.67941
 0.79996 0.85568 0.92268 0.94495 0.96474 1.01949 1.05696 1.07472 1.15698 1.19223
 1.27248 1.31564 1.44616 1.54776 1.81479 2.11163
 == 713-th k-point (-0.20411,-0.06804,0.61232) occupation: 14==
 -64.99644 -64.99644 -4.62606 -4.62606 -3.03770 -3.03770 -3.03734 -3.03726 -3.03692 -3.03691
 -0.01864 0.00335 0.12453 0.16254 0.35731 0.42006 0.53347 0.54434 0.64419 0.68651
 0.79262 0.84139 0.91381 0.95224 0.97050 1.01042 1.06910 1.08061 1.13420 1.17299
 1.24974 1.25507 1.43392 1.46072 1.81592 2.05361
 == 714-th k-point (-0.13607,0.00000,0.54429) occupation: 14==
 -64.99644 -64.99644 -4.62607 -4.62604 -3.03770 -3.03769 -3.03736 -3.03725 -3.03692 -3.03691
 -0.03807 0.02037 0.15141 0.15920 0.34296 0.35562 0.55532 0.62052 0.65960 0.71969
 0.76214 0.82012 0.83188 0.91837 0.97288 1.02329 1.10235 1.11902 1.16384 1.17463
 1.26191 1.26913 1.38876 1.44062 1.98698 1.99430
 == 715-th k-point (-0.06804,0.06804,0.47625) occupation: 14==
 -64.99644 -64.99644 -4.62608 -4.62602 -3.03769 -3.03769 -3.03741 -3.03719 -3.03693 -3.03692
 -0.06727 0.05291 0.15985 0.18077 0.31748 0.35922 0.56800 0.57100 0.71748 0.73130
 0.73997 0.75414 0.85205 0.92866 0.94537 1.02958 1.08320 1.08458 1.18901 1.27353
 1.27905 1.30779 1.39287 1.51039 1.84265 2.20937
 == 716-th k-point (0.00000,0.13607,0.40822) occupation: 14==
 -64.99644 -64.99644 -4.62606 -4.62601 -3.03769 -3.03768 -3.03746 -3.03714 -3.03695 -3.03693
 -0.08801 0.08059 0.16227 0.18806 0.34894 0.39056 0.48745 0.55279 0.65868 0.71632
 0.73528 0.82652 0.83502 0.89713 0.99900 1.02223 1.07990 1.08350 1.19699 1.27552
 1.33251 1.35057 1.43119 1.53862 2.05033 2.07459
 == 717-th k-point (0.06804,0.20411,0.34018) occupation: 14==
 -64.99644 -64.99644 -4.62604 -4.62600 -3.03767 -3.03767 -3.03751 -3.03709 -3.03696 -3.03693
 -0.09844 0.08162 0.16641 0.21754 0.38507 0.41712 0.46543 0.49150 0.62340 0.69997
 0.73573 0.80214 0.84045 0.90438 1.00905 1.03680 1.06513 1.15259 1.22855 1.28346
 1.35299 1.39686 1.46398 1.60906 1.88509 2.35060
 == 718-th k-point (0.13607,0.27214,0.27214) occupation: 14==
 -64.99645 -64.99644 -4.62602 -4.62598 -3.03767 -3.03767 -3.03753 -3.03707 -3.03696 -3.03694
 -0.09828 0.06137 0.19354 0.23736 0.37033 0.41987 0.42269 0.56228 0.60015 0.68535
 0.72455 0.79040 0.84329 0.89577 0.94684 1.08544 1.11612 1.19996 1.21546 1.31570
 1.33354 1.42888 1.49043 1.55787 1.76189 2.50045
 == 719-th k-point (0.20411,0.34018,0.20411) occupation: 14==
 -64.99645 -64.99644 -4.62602 -4.62600 -3.03768 -3.03767 -3.03752 -3.03709 -3.03695 -3.03695
 -0.08802 0.04365 0.20455 0.21959 0.36339 0.41000 0.43762 0.54413 0.67466 0.70198
 0.71188 0.76874 0.81231 0.88926 0.96463 1.12107 1.12696 1.15835 1.19671 1.25015
 1.36197 1.41977 1.46599 1.62627 1.62960 2.61135
 == 720-th k-point (-0.27214,-0.27214,0.81643) occupation: 14==
 -64.99645 -64.99644 -4.62603 -4.62602 -3.03768 -3.03767 -3.03750 -3.03710 -3.03695 -3.03694
 -0.07399 0.02235 0.19478 0.22477 0.36352 0.41098 0.42789 0.60160 0.63973 0.66715
 0.76588 0.80078 0.80368 0.81690 1.02517 1.07262 1.14816 1.17189 1.18011 1.23828
 1.37824 1.42867 1.43370 1.55328 1.65934 2.61019
 == 721-th k-point (-0.20411,-0.20411,0.74840) occupation: 14==
 -64.99645 -64.99644 -4.62604 -4.62603 -3.03768 -3.03768 -3.03745 -3.03716 -3.03694 -3.03692
 -0.05828 0.02631 0.14467 0.20386 0.34898 0.47175 0.48237 0.51697 0.63198 0.66055
 0.80658 0.81955 0.82953 0.93729 1.01299 1.04725 1.05636 1.09772 1.19448 1.20050
 1.34086 1.34412 1.41821 1.64652 1.71463 2.46141
 == 722-th k-point (-0.13607,-0.13607,0.68036) occupation: 14==
 -64.99645 -64.99644 -4.62606 -4.62604 -3.03770 -3.03768 -3.03738 -3.03722 -3.03693 -3.03691
 -0.03787 0.01967 0.12622 0.18475 0.32533 0.41968 0.55608 0.55917 0.64199 0.66455
 0.80398 0.82611 0.90662 0.93721 0.94434 1.02471 1.08147 1.08514 1.16150 1.22639
 1.25575 1.26058 1.40841 1.53982 1.73160 2.33824
 == 723-th k-point (-0.06804,-0.06804,0.61232) occupation: 14==
 -64.99644 -64.99644 -4.62606 -4.62606 -3.03770 -3.03769 -3.03732 -3.03728 -3.03692 -3.03691
 -0.01387 -0.00766 0.14947 0.17351 0.31205 0.34322 0.62578 0.63510 0.67038 0.69025
 0.78620 0.81911 0.82628 0.83238 1.01131 1.03917 1.10853 1.14747 1.15940 1.19460
 1.22410 1.25508 1.39296 1.44000 1.83085 2.15500
 == 724-th k-point (0.00000,0.00000,0.54429) occupation: 14==
 -64.99644 -64.99644 -4.62607 -4.62604 -3.03769 -3.03769 -3.03736 -3.03724 -3.03692 -3.03692
 -0.04244 0.02089 0.17212 0.17212 0.30314 0.31920 0.63363 0.63363 0.73843 0.74527
 0.74655 0.74655 0.79233 0.83695 1.02242 1.03512 1.10373 1.10373 1.21865 1.21865
 1.23800 1.28030 1.41870 1.45008 1.92342 1.92343
 == 725-th k-point (0.06804,0.06804,0.47625) occupation: 14==
 -64.99644 -64.99644 -4.62608 -4.62602 -3.03769 -3.03769 -3.03741 -3.03719 -3.03693 -3.03692
 -0.06727 0.05291 0.15985 0.18077 0.31748 0.35922 0.56800 0.57100 0.71748 0.73130
 0.73997 0.75414 0.85205 0.92866 0.94537 1.02958 1.08320 1.08458 1.18901 1.27353
 1.27905 1.30779 1.39287 1.51039 1.84265 2.20936
 == 726-th k-point (0.13607,0.13607,0.40822) occupation: 14==
 -64.99645 -64.99644 -4.62605 -4.62601 -3.03769 -3.03768 -3.03747 -3.03713 -3.03694 -3.03693
 -0.08254 0.06137 0.16409 0.19811 0.34318 0.44167 0.48019 0.49665 0.70498 0.72225
 0.72440 0.75610 0.85835 0.90156 1.02420 1.04206 1.06690 1.11366 1.16247 1.27040
 1.34922 1.35156 1.40770 1.62353 1.73170 2.52274
 == 727-th k-point (0.20411,0.20411,0.34018) occupation: 14==
 -64.99645 -64.99644 -4.62602 -4.62600 -3.03768 -3.03767 -3.03752 -3.03709 -3.03695 -3.03695
 -0.08802 0.04365 0.20455 0.21959 0.36339 0.41000 0.43762 0.54413 0.67466 0.70198
 0.71188 0.76874 0.81231 0.88926 0.96463 1.12107 1.12696 1.15835 1.19671 1.25015
 1.36197 1.41977 1.46599 1.62627 1.62960 2.61135
 == 728-th k-point (0.27214,0.27214,0.27214) occupation: 14==
 -64.99645 -64.99644 -4.62603 -4.62601 -3.03767 -3.03767 -3.03752 -3.03707 -3.03695 -3.03695
 -0.08457 0.02750 0.23305 0.23305 0.33886 0.40982 0.40982 0.60085 0.68187 0.68187
 0.70396 0.78528 0.78528 0.80431 0.99213 1.12251 1.16883 1.16883 1.24986 1.24986
 1.30244 1.47671 1.47671 1.52682 1.52682 2.61385
 ---------------------------------------------------------------------------
 VBM is at 364-th k-point with 7.58625 eV
 CBM is at 4-th k-point with 8.24884 eV
 Band gap is 0.66259 eV


           Ground-State Mulliken Net Atomic Charges

      Atom                 Charge (a.u.)          Spin (a.u.)
   --------------------------------------------------------
      1 Si              (-0.000000,-0.000000)    (0.000000,0.000000)
      2 Si                (0.000000,0.000000)    (0.000000,0.000000)
   --------------------------------------------------------
  Sum of atomic charges =     (-0.000000,-0.000000)
  Sum of spin   charges =       (0.000000,0.000000)



 Total job time:  102.42 s.
 Tue Sep  9 11:14:47 2025


        *************************************************************
        *                                                           *
        *  Thank you very much for using QCPBC. Have a nice day.    *
        *                                                           *
        *************************************************************

Running job 1 of 1
