                  Welcome to Q-Chem
           with Periodic Boundary Condition
     A Quantum Leap Into The Future Of Chemistry

 Adam Rettig, Xintian Feng, Meng-Fu Chen, Hieu Dinh, Stephen Quiton,
 Anton Ni, Paul J. Robinson, Jinghong Zhang, Joonho Lee

Contributors to earlier versions of Q-Chem not listed above:
 Evgeny Epifanovsky, Leo Cunha, Jerome F. Gonthier, Kuan-Yu Liu
 Input file: /n/home02/hieudinh/rsdf_test_full_J/benchmark_nocd/si/si_ccpvtz_101010.in
 Scratch folder: /n/netscratch/joonholee_lab/Lab/hieudinh//nhome02hieudinhrsdf_test_full_Jbenchmark_nocdsisi_ccpvtz_101010.scratch20251118165051
 Auxillary files located at: /n/home02/hieudinh/qcpbc/qcaux
 Q-Chem begins on Tue Nov 18 16:50:52 2025

 -------------------------------------------------------------
 User input:
 -------------------------------------------------------------
 $lattice
 3
 0.000000 10.261200 10.261200
 10.261200 0.000000 10.261200
 10.261200 10.261200 0.000000
 $end
 
 $unitcell
 ABSOLUTE
 0 1
 Si 0.000000 0.000000 0.000000
 Si 2.565300 2.565300 2.565300
 Si 5.130600 5.130600 0.000000
 Si 7.695900 7.695900 2.565300
 Si 5.130600 0.000000 5.130600
 Si 7.695900 2.565300 7.695900
 Si 10.261200 5.130600 5.130600
 Si 12.826500 7.695900 7.695900
 Si 0.000000 5.130600 5.130600
 Si 2.565300 7.695900 7.695900
 Si 5.130600 10.261200 5.130600
 Si 7.695900 12.826500 7.695900
 Si 5.130600 5.130600 10.261200
 Si 7.695900 7.695900 12.826500
 Si 10.261200 10.261200 10.261200
 Si 12.826500 12.826500 12.826500
 $end
 
 $rem
 jobtype = sp
 method = pbe
 scf_convergence = 5
 scf_guess = autosad
 scf_algorithm = gdm
 basis = gen
 aux_basis = gen
 input_bohr = true
 symmetry false
 
 mp_mesh = [10,10,10]
 
 integral_direct true
 bvk_cgto true
 
 thresh 14
 mem_total 1000000
 threads 32
 
 MAX_SCF_CYCLES 3
 madelung = false
 omega 0.55
 do_rij_bigmem true
 is_basis_uctr false
 
 automate_g true
 print_level 10
 rsdf_print_level 1
 grid_type_xc 1 
 
 thresh_1e2c_sp 1e-14
 thresh_2e3c_bra_ket_sep 1e-10
 thresh_g 1e-12
 $end
 
 $basis
 Si     0
 S   13   1.00
       2.549000D+05           6.251010D-05
       3.819000D+04           4.855530D-04
       8.690000D+03           2.545160D-03
       2.462000D+03           1.058660D-02
       8.048000D+02           3.687870D-02
       2.913000D+02           1.074790D-01
       1.136000D+02           2.479360D-01
       4.675000D+01           3.909270D-01
       1.982000D+01           3.020260D-01
       7.708000D+00           5.592360D-02
       3.340000D+00          -4.024060D-03
       1.402000D+00           2.580300D-03
       2.070000D-01           6.079300D-04
 S   13   1.00
       2.549000D+05          -1.663700D-05
       3.819000D+04          -1.293100D-04
       8.690000D+03          -6.788280D-04
       2.462000D+03          -2.841170D-03
       8.048000D+02          -1.005510D-02
       2.913000D+02          -3.057740D-02
       1.136000D+02          -7.772560D-02
       4.675000D+01          -1.542360D-01
       1.982000D+01          -1.803680D-01
       7.708000D+00           7.982180D-02
       3.340000D+00           5.474410D-01
       1.402000D+00           4.801190D-01
       2.070000D-01          -1.069960D-02
 S   13   1.00
       2.549000D+05           4.262570D-06
       3.819000D+04           3.310620D-05
       8.690000D+03           1.740150D-04
       2.462000D+03           7.275740D-04
       8.048000D+02           2.583330D-03
       2.913000D+02           7.863540D-03
       1.136000D+02           2.021550D-02
       4.675000D+01           4.073200D-02
       1.982000D+01           4.993580D-02
       7.708000D+00          -2.493960D-02
       3.340000D+00          -1.903500D-01
       1.402000D+00          -3.183500D-01
       2.070000D-01           6.811800D-01
 S   1   1.00
       4.387000D-01           1.000000D+00
 S   1   1.00
       7.944000D-02           1.000000D+00
 P   7   1.00
       4.815000D+02           1.920450D-03
       1.139000D+02           1.535520D-02
       3.623000D+01           7.139910D-02
       1.334000D+01           2.130520D-01
       5.252000D+00           3.903540D-01
       2.120000D+00           3.937210D-01
       2.528000D-01           3.956300D-03
 P   7   1.00
       4.815000D+02          -4.052200D-04
       1.139000D+02          -3.358960D-03
       3.623000D+01          -1.528600D-02
       1.334000D+01          -4.892180D-02
       5.252000D+00          -8.550080D-02
       2.120000D+00          -1.121370D-01
       2.528000D-01           5.519190D-01
 P   1   1.00
       8.561000D-01           1.000000D+00
 P   1   1.00
       7.889000D-02           1.000000D+00
 D   1   1.00
       4.810000D-01           1.000000D+00
 D   1   1.00
       1.590000D-01           1.000000D+00
 F   1   1.00
       3.360000D-01           1.0000000
 ****
 $end
 
 $aux_basis
 Si     0
 S   1   1.00
    3966.7823006              1.0000000
 S   1   1.00
     913.65240130             1.0000000
 S   1   1.00
     309.47572532             1.0000000
 S   1   1.00
     121.48371896             1.0000000
 S   1   1.00
      51.949842541            1.0000000
 S   1   1.00
      22.531415259            1.0000000
 S   1   1.00
       8.6118544488           1.0000000
 S   1   1.00
       4.0353794583           1.0000000
 S   1   1.00
       1.5605354258           1.0000000
 S   1   1.00
       0.82658343937          1.0000000
 S   1   1.00
       0.48403471116          1.0000000
 S   1   1.00
       0.28757870174          1.0000000
 S   1   1.00
       0.13188187610          1.0000000
 P   1   1.00
     629.30680737             1.0000000
 P   1   1.00
     255.71500914             1.0000000
 P   1   1.00
     109.29630664             1.0000000
 P   1   1.00
      45.943769765            1.0000000
 P   1   1.00
      19.784226943            1.0000000
 P   1   1.00
       9.7746090299           1.0000000
 P   1   1.00
       4.6426781657           1.0000000
 P   1   1.00
       2.0449974109           1.0000000
 P   1   1.00
       0.82208144153          1.0000000
 P   1   1.00
       0.40978741460          1.0000000
 P   1   1.00
       0.18451465956          1.0000000
 D   1   1.00
     181.67344614             1.0000000
 D   1   1.00
      59.654414923            1.0000000
 D   1   1.00
      25.353983605            1.0000000
 D   1   1.00
      11.718973530            1.0000000
 D   1   1.00
       5.4455778078           1.0000000
 D   1   1.00
       2.4659440013           1.0000000
 D   1   1.00
       1.0365292729           1.0000000
 D   1   1.00
       0.41097001308          1.0000000
 D   1   1.00
       0.16950067844          1.0000000
 F   1   1.00
       1.9560745621690000000  1.0000000
 F   1   1.00
        .55887844633400000000 1.0000000
 F   1   1.00
        .23687844633400000000 1.0000000
 G   1   1.00
        .41387844633400000000 1.0000000
 ****
 $end
 -------------------------------------------------------------
 Running PBC job

 Requested Exchange Correlation Functionals: 
  DFT Exchange:  1.00000 pbe_x
  DFT Correlation:  1.00000 pbe_c
 using 32 threads for computing.
 ---------------------------------------------------------------
      Coordinates of Atoms in Central Unit Cell (Angstroms)
    I     Atom         X            Y            Z
 ---------------------------------------------------------------
    1      Si      0.000000     0.000000     0.000000
    2      Si      1.357498     1.357498     1.357498
    3      Si      2.714997     2.714997     0.000000
    4      Si      4.072495     4.072495     1.357498
    5      Si      2.714997     0.000000     2.714997
    6      Si      4.072495     1.357498     4.072495
    7      Si      5.429993     2.714997     2.714997
    8      Si      6.787491     4.072495     4.072495
    9      Si      0.000000     2.714997     2.714997
   10      Si      1.357498     4.072495     4.072495
   11      Si      2.714997     5.429993     2.714997
   12      Si      4.072495     6.787491     4.072495
   13      Si      2.714997     2.714997     5.429993
   14      Si      4.072495     4.072495     6.787491
   15      Si      5.429993     5.429993     5.429993
   16      Si      6.787491     6.787491     6.787491
 ---------------------------------------------------------------
 --------------------------------------------------
              Lattice Vectors (Angstroms)
              X            Y            Z
 --------------------------------------------------
   X       0.000000     5.429993     5.429993
   Y       5.429993     0.000000     5.429993
   Z       5.429993     5.429993     0.000000
 --------------------------------------------------
 --------------------------------------------------
       Reciprocal Lattice Vectors (Angstroms^-1)
              X            Y            Z
 --------------------------------------------------
   X      -0.578563     0.578563     0.578563
   Y       0.578563    -0.578563     0.578563
   Z       0.578563     0.578563    -0.578563
 --------------------------------------------------

 Single point calculation requested

 Hamiltonian contributions:
 List of terms in Hamiltonian: kpts_nn, kpts_kinetic, kpts_vnuc_df, kpts_xc, kpts_rij_bigmem

 K-Points calculation started.

 Basis set information about using solid harmonic (1) or Cartesian (0):
  si : D(1) D(1) F(1) 

 Basis set information about using solid harmonic (1) or Cartesian (0):
  si : D(1) D(1) D(1) D(1) D(1) D(1) D(1) D(1) D(1) F(1) F(1) F(1) G(1) 

 There are 544 basis functions in the central unit cell.
 Print atomic basis of atoms in the central unit cell:
 -------------------------------------------------------------
16 432 960 144

  0.00000000000000e+00  0.00000000000000e+00  0.00000000000000e+00
  2.56530000000000e+00  2.56530000000000e+00  2.56530000000000e+00
  5.13060000000000e+00  5.13060000000000e+00  0.00000000000000e+00
  7.69590000000000e+00  7.69590000000000e+00  2.56530000000000e+00
  5.13060000000000e+00  0.00000000000000e+00  5.13060000000000e+00
  7.69590000000000e+00  2.56530000000000e+00  7.69590000000000e+00
  1.02612000000000e+01  5.13060000000000e+00  5.13060000000000e+00
  1.28265000000000e+01  7.69590000000000e+00  7.69590000000000e+00
  0.00000000000000e+00  5.13060000000000e+00  5.13060000000000e+00
  2.56530000000000e+00  7.69590000000000e+00  7.69590000000000e+00
  5.13060000000000e+00  1.02612000000000e+01  5.13060000000000e+00
  7.69590000000000e+00  1.28265000000000e+01  7.69590000000000e+00
  5.13060000000000e+00  5.13060000000000e+00  1.02612000000000e+01
  7.69590000000000e+00  7.69590000000000e+00  1.28265000000000e+01
  1.02612000000000e+01  1.02612000000000e+01  1.02612000000000e+01
  1.28265000000000e+01  1.28265000000000e+01  1.28265000000000e+01

  2.54900000000000e+05
  3.81900000000000e+04
  8.69000000000000e+03
  2.46200000000000e+03
  8.04800000000000e+02
  2.91300000000000e+02
  1.13600000000000e+02
  4.67500000000000e+01
  1.98200000000000e+01
  7.70800000000000e+00
  3.34000000000000e+00
  1.40200000000000e+00
  2.07000000000000e-01
  4.38700000000000e-01
  7.94400000000000e-02
  4.81500000000000e+02
  1.13900000000000e+02
  3.62300000000000e+01
  1.33400000000000e+01
  5.25200000000000e+00
  2.12000000000000e+00
  2.52800000000000e-01
  8.56100000000000e-01
  7.88900000000000e-02
  4.81000000000000e-01
  1.59000000000000e-01
  3.36000000000000e-01
  2.54900000000000e+05
  3.81900000000000e+04
  8.69000000000000e+03
  2.46200000000000e+03
  8.04800000000000e+02
  2.91300000000000e+02
  1.13600000000000e+02
  4.67500000000000e+01
  1.98200000000000e+01
  7.70800000000000e+00
  3.34000000000000e+00
  1.40200000000000e+00
  2.07000000000000e-01
  4.38700000000000e-01
  7.94400000000000e-02
  4.81500000000000e+02
  1.13900000000000e+02
  3.62300000000000e+01
  1.33400000000000e+01
  5.25200000000000e+00
  2.12000000000000e+00
  2.52800000000000e-01
  8.56100000000000e-01
  7.88900000000000e-02
  4.81000000000000e-01
  1.59000000000000e-01
  3.36000000000000e-01
  2.54900000000000e+05
  3.81900000000000e+04
  8.69000000000000e+03
  2.46200000000000e+03
  8.04800000000000e+02
  2.91300000000000e+02
  1.13600000000000e+02
  4.67500000000000e+01
  1.98200000000000e+01
  7.70800000000000e+00
  3.34000000000000e+00
  1.40200000000000e+00
  2.07000000000000e-01
  4.38700000000000e-01
  7.94400000000000e-02
  4.81500000000000e+02
  1.13900000000000e+02
  3.62300000000000e+01
  1.33400000000000e+01
  5.25200000000000e+00
  2.12000000000000e+00
  2.52800000000000e-01
  8.56100000000000e-01
  7.88900000000000e-02
  4.81000000000000e-01
  1.59000000000000e-01
  3.36000000000000e-01
  2.54900000000000e+05
  3.81900000000000e+04
  8.69000000000000e+03
  2.46200000000000e+03
  8.04800000000000e+02
  2.91300000000000e+02
  1.13600000000000e+02
  4.67500000000000e+01
  1.98200000000000e+01
  7.70800000000000e+00
  3.34000000000000e+00
  1.40200000000000e+00
  2.07000000000000e-01
  4.38700000000000e-01
  7.94400000000000e-02
  4.81500000000000e+02
  1.13900000000000e+02
  3.62300000000000e+01
  1.33400000000000e+01
  5.25200000000000e+00
  2.12000000000000e+00
  2.52800000000000e-01
  8.56100000000000e-01
  7.88900000000000e-02
  4.81000000000000e-01
  1.59000000000000e-01
  3.36000000000000e-01
  2.54900000000000e+05
  3.81900000000000e+04
  8.69000000000000e+03
  2.46200000000000e+03
  8.04800000000000e+02
  2.91300000000000e+02
  1.13600000000000e+02
  4.67500000000000e+01
  1.98200000000000e+01
  7.70800000000000e+00
  3.34000000000000e+00
  1.40200000000000e+00
  2.07000000000000e-01
  4.38700000000000e-01
  7.94400000000000e-02
  4.81500000000000e+02
  1.13900000000000e+02
  3.62300000000000e+01
  1.33400000000000e+01
  5.25200000000000e+00
  2.12000000000000e+00
  2.52800000000000e-01
  8.56100000000000e-01
  7.88900000000000e-02
  4.81000000000000e-01
  1.59000000000000e-01
  3.36000000000000e-01
  2.54900000000000e+05
  3.81900000000000e+04
  8.69000000000000e+03
  2.46200000000000e+03
  8.04800000000000e+02
  2.91300000000000e+02
  1.13600000000000e+02
  4.67500000000000e+01
  1.98200000000000e+01
  7.70800000000000e+00
  3.34000000000000e+00
  1.40200000000000e+00
  2.07000000000000e-01
  4.38700000000000e-01
  7.94400000000000e-02
  4.81500000000000e+02
  1.13900000000000e+02
  3.62300000000000e+01
  1.33400000000000e+01
  5.25200000000000e+00
  2.12000000000000e+00
  2.52800000000000e-01
  8.56100000000000e-01
  7.88900000000000e-02
  4.81000000000000e-01
  1.59000000000000e-01
  3.36000000000000e-01
  2.54900000000000e+05
  3.81900000000000e+04
  8.69000000000000e+03
  2.46200000000000e+03
  8.04800000000000e+02
  2.91300000000000e+02
  1.13600000000000e+02
  4.67500000000000e+01
  1.98200000000000e+01
  7.70800000000000e+00
  3.34000000000000e+00
  1.40200000000000e+00
  2.07000000000000e-01
  4.38700000000000e-01
  7.94400000000000e-02
  4.81500000000000e+02
  1.13900000000000e+02
  3.62300000000000e+01
  1.33400000000000e+01
  5.25200000000000e+00
  2.12000000000000e+00
  2.52800000000000e-01
  8.56100000000000e-01
  7.88900000000000e-02
  4.81000000000000e-01
  1.59000000000000e-01
  3.36000000000000e-01
  2.54900000000000e+05
  3.81900000000000e+04
  8.69000000000000e+03
  2.46200000000000e+03
  8.04800000000000e+02
  2.91300000000000e+02
  1.13600000000000e+02
  4.67500000000000e+01
  1.98200000000000e+01
  7.70800000000000e+00
  3.34000000000000e+00
  1.40200000000000e+00
  2.07000000000000e-01
  4.38700000000000e-01
  7.94400000000000e-02
  4.81500000000000e+02
  1.13900000000000e+02
  3.62300000000000e+01
  1.33400000000000e+01
  5.25200000000000e+00
  2.12000000000000e+00
  2.52800000000000e-01
  8.56100000000000e-01
  7.88900000000000e-02
  4.81000000000000e-01
  1.59000000000000e-01
  3.36000000000000e-01
  2.54900000000000e+05
  3.81900000000000e+04
  8.69000000000000e+03
  2.46200000000000e+03
  8.04800000000000e+02
  2.91300000000000e+02
  1.13600000000000e+02
  4.67500000000000e+01
  1.98200000000000e+01
  7.70800000000000e+00
  3.34000000000000e+00
  1.40200000000000e+00
  2.07000000000000e-01
  4.38700000000000e-01
  7.94400000000000e-02
  4.81500000000000e+02
  1.13900000000000e+02
  3.62300000000000e+01
  1.33400000000000e+01
  5.25200000000000e+00
  2.12000000000000e+00
  2.52800000000000e-01
  8.56100000000000e-01
  7.88900000000000e-02
  4.81000000000000e-01
  1.59000000000000e-01
  3.36000000000000e-01
  2.54900000000000e+05
  3.81900000000000e+04
  8.69000000000000e+03
  2.46200000000000e+03
  8.04800000000000e+02
  2.91300000000000e+02
  1.13600000000000e+02
  4.67500000000000e+01
  1.98200000000000e+01
  7.70800000000000e+00
  3.34000000000000e+00
  1.40200000000000e+00
  2.07000000000000e-01
  4.38700000000000e-01
  7.94400000000000e-02
  4.81500000000000e+02
  1.13900000000000e+02
  3.62300000000000e+01
  1.33400000000000e+01
  5.25200000000000e+00
  2.12000000000000e+00
  2.52800000000000e-01
  8.56100000000000e-01
  7.88900000000000e-02
  4.81000000000000e-01
  1.59000000000000e-01
  3.36000000000000e-01
  2.54900000000000e+05
  3.81900000000000e+04
  8.69000000000000e+03
  2.46200000000000e+03
  8.04800000000000e+02
  2.91300000000000e+02
  1.13600000000000e+02
  4.67500000000000e+01
  1.98200000000000e+01
  7.70800000000000e+00
  3.34000000000000e+00
  1.40200000000000e+00
  2.07000000000000e-01
  4.38700000000000e-01
  7.94400000000000e-02
  4.81500000000000e+02
  1.13900000000000e+02
  3.62300000000000e+01
  1.33400000000000e+01
  5.25200000000000e+00
  2.12000000000000e+00
  2.52800000000000e-01
  8.56100000000000e-01
  7.88900000000000e-02
  4.81000000000000e-01
  1.59000000000000e-01
  3.36000000000000e-01
  2.54900000000000e+05
  3.81900000000000e+04
  8.69000000000000e+03
  2.46200000000000e+03
  8.04800000000000e+02
  2.91300000000000e+02
  1.13600000000000e+02
  4.67500000000000e+01
  1.98200000000000e+01
  7.70800000000000e+00
  3.34000000000000e+00
  1.40200000000000e+00
  2.07000000000000e-01
  4.38700000000000e-01
  7.94400000000000e-02
  4.81500000000000e+02
  1.13900000000000e+02
  3.62300000000000e+01
  1.33400000000000e+01
  5.25200000000000e+00
  2.12000000000000e+00
  2.52800000000000e-01
  8.56100000000000e-01
  7.88900000000000e-02
  4.81000000000000e-01
  1.59000000000000e-01
  3.36000000000000e-01
  2.54900000000000e+05
  3.81900000000000e+04
  8.69000000000000e+03
  2.46200000000000e+03
  8.04800000000000e+02
  2.91300000000000e+02
  1.13600000000000e+02
  4.67500000000000e+01
  1.98200000000000e+01
  7.70800000000000e+00
  3.34000000000000e+00
  1.40200000000000e+00
  2.07000000000000e-01
  4.38700000000000e-01
  7.94400000000000e-02
  4.81500000000000e+02
  1.13900000000000e+02
  3.62300000000000e+01
  1.33400000000000e+01
  5.25200000000000e+00
  2.12000000000000e+00
  2.52800000000000e-01
  8.56100000000000e-01
  7.88900000000000e-02
  4.81000000000000e-01
  1.59000000000000e-01
  3.36000000000000e-01
  2.54900000000000e+05
  3.81900000000000e+04
  8.69000000000000e+03
  2.46200000000000e+03
  8.04800000000000e+02
  2.91300000000000e+02
  1.13600000000000e+02
  4.67500000000000e+01
  1.98200000000000e+01
  7.70800000000000e+00
  3.34000000000000e+00
  1.40200000000000e+00
  2.07000000000000e-01
  4.38700000000000e-01
  7.94400000000000e-02
  4.81500000000000e+02
  1.13900000000000e+02
  3.62300000000000e+01
  1.33400000000000e+01
  5.25200000000000e+00
  2.12000000000000e+00
  2.52800000000000e-01
  8.56100000000000e-01
  7.88900000000000e-02
  4.81000000000000e-01
  1.59000000000000e-01
  3.36000000000000e-01
  2.54900000000000e+05
  3.81900000000000e+04
  8.69000000000000e+03
  2.46200000000000e+03
  8.04800000000000e+02
  2.91300000000000e+02
  1.13600000000000e+02
  4.67500000000000e+01
  1.98200000000000e+01
  7.70800000000000e+00
  3.34000000000000e+00
  1.40200000000000e+00
  2.07000000000000e-01
  4.38700000000000e-01
  7.94400000000000e-02
  4.81500000000000e+02
  1.13900000000000e+02
  3.62300000000000e+01
  1.33400000000000e+01
  5.25200000000000e+00
  2.12000000000000e+00
  2.52800000000000e-01
  8.56100000000000e-01
  7.88900000000000e-02
  4.81000000000000e-01
  1.59000000000000e-01
  3.36000000000000e-01
  2.54900000000000e+05
  3.81900000000000e+04
  8.69000000000000e+03
  2.46200000000000e+03
  8.04800000000000e+02
  2.91300000000000e+02
  1.13600000000000e+02
  4.67500000000000e+01
  1.98200000000000e+01
  7.70800000000000e+00
  3.34000000000000e+00
  1.40200000000000e+00
  2.07000000000000e-01
  4.38700000000000e-01
  7.94400000000000e-02
  4.81500000000000e+02
  1.13900000000000e+02
  3.62300000000000e+01
  1.33400000000000e+01
  5.25200000000000e+00
  2.12000000000000e+00
  2.52800000000000e-01
  8.56100000000000e-01
  7.88900000000000e-02
  4.81000000000000e-01
  1.59000000000000e-01
  3.36000000000000e-01

  5.05342882924414e-01
  9.45273469411120e-01
  1.63244480027292e+00
  2.63682388500924e+00
  3.97100251949347e+00
  5.40054468526540e+00
  6.14797258543505e+00
  4.98070088997371e+00
  2.02176489746253e+00
  1.84357149094381e-01
 -7.08488623570591e-03
  2.36913493026560e-03
  1.32950482512095e-04
 -1.38957418994420e-01
 -2.60090027852347e-01
 -4.49835706775664e-01
 -7.31126629696563e-01
 -1.11861777375438e+00
 -1.58739593447389e+00
 -1.99125636701477e+00
 -2.03025837503363e+00
 -1.24743111609232e+00
  2.71867405206707e-01
  9.95810075477156e-01
  4.55448471363036e-01
 -2.41754544584911e-03
  5.58641690839409e-02
  1.04485498965527e-01
  1.80940572893667e-01
  2.93783669027015e-01
  4.50951988226580e-01
  6.40557184508875e-01
  8.12648389129307e-01
  8.41310655339178e-01
  5.41906290515089e-01
 -1.33284671521752e-01
 -5.43309343865180e-01
 -4.73860280618372e-01
  2.41503867585103e-01
  3.84180942836044e-01
  1.06644759418552e-01
  6.70133452164188e+00
  8.83940558806038e+00
  9.81840820158908e+00
  8.40317351789580e+00
  4.80150582160193e+00
  1.55819330730478e+00
  1.09716888313239e-03
 -2.35644848731218e+00
 -3.22241300088705e+00
 -3.50308751124858e+00
 -3.21565115351729e+00
 -1.75266045923181e+00
 -7.39589051144409e-01
  2.55075294015732e-01
  1.17380433533106e+00
  5.95960578383022e-02
  4.57260134599596e-01
  6.58952976069849e-02
  1.26537084505476e-01
  5.05342882924414e-01
  9.45273469411120e-01
  1.63244480027292e+00
  2.63682388500924e+00
  3.97100251949347e+00
  5.40054468526540e+00
  6.14797258543505e+00
  4.98070088997371e+00
  2.02176489746253e+00
  1.84357149094381e-01
 -7.08488623570591e-03
  2.36913493026560e-03
  1.32950482512095e-04
 -1.38957418994420e-01
 -2.60090027852347e-01
 -4.49835706775664e-01
 -7.31126629696563e-01
 -1.11861777375438e+00
 -1.58739593447389e+00
 -1.99125636701477e+00
 -2.03025837503363e+00
 -1.24743111609232e+00
  2.71867405206707e-01
  9.95810075477156e-01
  4.55448471363036e-01
 -2.41754544584911e-03
  5.58641690839409e-02
  1.04485498965527e-01
  1.80940572893667e-01
  2.93783669027015e-01
  4.50951988226580e-01
  6.40557184508875e-01
  8.12648389129307e-01
  8.41310655339178e-01
  5.41906290515089e-01
 -1.33284671521752e-01
 -5.43309343865180e-01
 -4.73860280618372e-01
  2.41503867585103e-01
  3.84180942836044e-01
  1.06644759418552e-01
  6.70133452164188e+00
  8.83940558806038e+00
  9.81840820158908e+00
  8.40317351789580e+00
  4.80150582160193e+00
  1.55819330730478e+00
  1.09716888313239e-03
 -2.35644848731218e+00
 -3.22241300088705e+00
 -3.50308751124858e+00
 -3.21565115351729e+00
 -1.75266045923181e+00
 -7.39589051144409e-01
  2.55075294015732e-01
  1.17380433533106e+00
  5.95960578383022e-02
  4.57260134599596e-01
  6.58952976069849e-02
  1.26537084505476e-01
  5.05342882924414e-01
  9.45273469411120e-01
  1.63244480027292e+00
  2.63682388500924e+00
  3.97100251949347e+00
  5.40054468526540e+00
  6.14797258543505e+00
  4.98070088997371e+00
  2.02176489746253e+00
  1.84357149094381e-01
 -7.08488623570591e-03
  2.36913493026560e-03
  1.32950482512095e-04
 -1.38957418994420e-01
 -2.60090027852347e-01
 -4.49835706775664e-01
 -7.31126629696563e-01
 -1.11861777375438e+00
 -1.58739593447389e+00
 -1.99125636701477e+00
 -2.03025837503363e+00
 -1.24743111609232e+00
  2.71867405206707e-01
  9.95810075477156e-01
  4.55448471363036e-01
 -2.41754544584911e-03
  5.58641690839409e-02
  1.04485498965527e-01
  1.80940572893667e-01
  2.93783669027015e-01
  4.50951988226580e-01
  6.40557184508875e-01
  8.12648389129307e-01
  8.41310655339178e-01
  5.41906290515089e-01
 -1.33284671521752e-01
 -5.43309343865180e-01
 -4.73860280618372e-01
  2.41503867585103e-01
  3.84180942836044e-01
  1.06644759418552e-01
  6.70133452164188e+00
  8.83940558806038e+00
  9.81840820158908e+00
  8.40317351789580e+00
  4.80150582160193e+00
  1.55819330730478e+00
  1.09716888313239e-03
 -2.35644848731218e+00
 -3.22241300088705e+00
 -3.50308751124858e+00
 -3.21565115351729e+00
 -1.75266045923181e+00
 -7.39589051144409e-01
  2.55075294015732e-01
  1.17380433533106e+00
  5.95960578383022e-02
  4.57260134599596e-01
  6.58952976069849e-02
  1.26537084505476e-01
  5.05342882924414e-01
  9.45273469411120e-01
  1.63244480027292e+00
  2.63682388500924e+00
  3.97100251949347e+00
  5.40054468526540e+00
  6.14797258543505e+00
  4.98070088997371e+00
  2.02176489746253e+00
  1.84357149094381e-01
 -7.08488623570591e-03
  2.36913493026560e-03
  1.32950482512095e-04
 -1.38957418994420e-01
 -2.60090027852347e-01
 -4.49835706775664e-01
 -7.31126629696563e-01
 -1.11861777375438e+00
 -1.58739593447389e+00
 -1.99125636701477e+00
 -2.03025837503363e+00
 -1.24743111609232e+00
  2.71867405206707e-01
  9.95810075477156e-01
  4.55448471363036e-01
 -2.41754544584911e-03
  5.58641690839409e-02
  1.04485498965527e-01
  1.80940572893667e-01
  2.93783669027015e-01
  4.50951988226580e-01
  6.40557184508875e-01
  8.12648389129307e-01
  8.41310655339178e-01
  5.41906290515089e-01
 -1.33284671521752e-01
 -5.43309343865180e-01
 -4.73860280618372e-01
  2.41503867585103e-01
  3.84180942836044e-01
  1.06644759418552e-01
  6.70133452164188e+00
  8.83940558806038e+00
  9.81840820158908e+00
  8.40317351789580e+00
  4.80150582160193e+00
  1.55819330730478e+00
  1.09716888313239e-03
 -2.35644848731218e+00
 -3.22241300088705e+00
 -3.50308751124858e+00
 -3.21565115351729e+00
 -1.75266045923181e+00
 -7.39589051144409e-01
  2.55075294015732e-01
  1.17380433533106e+00
  5.95960578383022e-02
  4.57260134599596e-01
  6.58952976069849e-02
  1.26537084505476e-01
  5.05342882924414e-01
  9.45273469411120e-01
  1.63244480027292e+00
  2.63682388500924e+00
  3.97100251949347e+00
  5.40054468526540e+00
  6.14797258543505e+00
  4.98070088997371e+00
  2.02176489746253e+00
  1.84357149094381e-01
 -7.08488623570591e-03
  2.36913493026560e-03
  1.32950482512095e-04
 -1.38957418994420e-01
 -2.60090027852347e-01
 -4.49835706775664e-01
 -7.31126629696563e-01
 -1.11861777375438e+00
 -1.58739593447389e+00
 -1.99125636701477e+00
 -2.03025837503363e+00
 -1.24743111609232e+00
  2.71867405206707e-01
  9.95810075477156e-01
  4.55448471363036e-01
 -2.41754544584911e-03
  5.58641690839409e-02
  1.04485498965527e-01
  1.80940572893667e-01
  2.93783669027015e-01
  4.50951988226580e-01
  6.40557184508875e-01
  8.12648389129307e-01
  8.41310655339178e-01
  5.41906290515089e-01
 -1.33284671521752e-01
 -5.43309343865180e-01
 -4.73860280618372e-01
  2.41503867585103e-01
  3.84180942836044e-01
  1.06644759418552e-01
  6.70133452164188e+00
  8.83940558806038e+00
  9.81840820158908e+00
  8.40317351789580e+00
  4.80150582160193e+00
  1.55819330730478e+00
  1.09716888313239e-03
 -2.35644848731218e+00
 -3.22241300088705e+00
 -3.50308751124858e+00
 -3.21565115351729e+00
 -1.75266045923181e+00
 -7.39589051144409e-01
  2.55075294015732e-01
  1.17380433533106e+00
  5.95960578383022e-02
  4.57260134599596e-01
  6.58952976069849e-02
  1.26537084505476e-01
  5.05342882924414e-01
  9.45273469411120e-01
  1.63244480027292e+00
  2.63682388500924e+00
  3.97100251949347e+00
  5.40054468526540e+00
  6.14797258543505e+00
  4.98070088997371e+00
  2.02176489746253e+00
  1.84357149094381e-01
 -7.08488623570591e-03
  2.36913493026560e-03
  1.32950482512095e-04
 -1.38957418994420e-01
 -2.60090027852347e-01
 -4.49835706775664e-01
 -7.31126629696563e-01
 -1.11861777375438e+00
 -1.58739593447389e+00
 -1.99125636701477e+00
 -2.03025837503363e+00
 -1.24743111609232e+00
  2.71867405206707e-01
  9.95810075477156e-01
  4.55448471363036e-01
 -2.41754544584911e-03
  5.58641690839409e-02
  1.04485498965527e-01
  1.80940572893667e-01
  2.93783669027015e-01
  4.50951988226580e-01
  6.40557184508875e-01
  8.12648389129307e-01
  8.41310655339178e-01
  5.41906290515089e-01
 -1.33284671521752e-01
 -5.43309343865180e-01
 -4.73860280618372e-01
  2.41503867585103e-01
  3.84180942836044e-01
  1.06644759418552e-01
  6.70133452164188e+00
  8.83940558806038e+00
  9.81840820158908e+00
  8.40317351789580e+00
  4.80150582160193e+00
  1.55819330730478e+00
  1.09716888313239e-03
 -2.35644848731218e+00
 -3.22241300088705e+00
 -3.50308751124858e+00
 -3.21565115351729e+00
 -1.75266045923181e+00
 -7.39589051144409e-01
  2.55075294015732e-01
  1.17380433533106e+00
  5.95960578383022e-02
  4.57260134599596e-01
  6.58952976069849e-02
  1.26537084505476e-01
  5.05342882924414e-01
  9.45273469411120e-01
  1.63244480027292e+00
  2.63682388500924e+00
  3.97100251949347e+00
  5.40054468526540e+00
  6.14797258543505e+00
  4.98070088997371e+00
  2.02176489746253e+00
  1.84357149094381e-01
 -7.08488623570591e-03
  2.36913493026560e-03
  1.32950482512095e-04
 -1.38957418994420e-01
 -2.60090027852347e-01
 -4.49835706775664e-01
 -7.31126629696563e-01
 -1.11861777375438e+00
 -1.58739593447389e+00
 -1.99125636701477e+00
 -2.03025837503363e+00
 -1.24743111609232e+00
  2.71867405206707e-01
  9.95810075477156e-01
  4.55448471363036e-01
 -2.41754544584911e-03
  5.58641690839409e-02
  1.04485498965527e-01
  1.80940572893667e-01
  2.93783669027015e-01
  4.50951988226580e-01
  6.40557184508875e-01
  8.12648389129307e-01
  8.41310655339178e-01
  5.41906290515089e-01
 -1.33284671521752e-01
 -5.43309343865180e-01
 -4.73860280618372e-01
  2.41503867585103e-01
  3.84180942836044e-01
  1.06644759418552e-01
  6.70133452164188e+00
  8.83940558806038e+00
  9.81840820158908e+00
  8.40317351789580e+00
  4.80150582160193e+00
  1.55819330730478e+00
  1.09716888313239e-03
 -2.35644848731218e+00
 -3.22241300088705e+00
 -3.50308751124858e+00
 -3.21565115351729e+00
 -1.75266045923181e+00
 -7.39589051144409e-01
  2.55075294015732e-01
  1.17380433533106e+00
  5.95960578383022e-02
  4.57260134599596e-01
  6.58952976069849e-02
  1.26537084505476e-01
  5.05342882924414e-01
  9.45273469411120e-01
  1.63244480027292e+00
  2.63682388500924e+00
  3.97100251949347e+00
  5.40054468526540e+00
  6.14797258543505e+00
  4.98070088997371e+00
  2.02176489746253e+00
  1.84357149094381e-01
 -7.08488623570591e-03
  2.36913493026560e-03
  1.32950482512095e-04
 -1.38957418994420e-01
 -2.60090027852347e-01
 -4.49835706775664e-01
 -7.31126629696563e-01
 -1.11861777375438e+00
 -1.58739593447389e+00
 -1.99125636701477e+00
 -2.03025837503363e+00
 -1.24743111609232e+00
  2.71867405206707e-01
  9.95810075477156e-01
  4.55448471363036e-01
 -2.41754544584911e-03
  5.58641690839409e-02
  1.04485498965527e-01
  1.80940572893667e-01
  2.93783669027015e-01
  4.50951988226580e-01
  6.40557184508875e-01
  8.12648389129307e-01
  8.41310655339178e-01
  5.41906290515089e-01
 -1.33284671521752e-01
 -5.43309343865180e-01
 -4.73860280618372e-01
  2.41503867585103e-01
  3.84180942836044e-01
  1.06644759418552e-01
  6.70133452164188e+00
  8.83940558806038e+00
  9.81840820158908e+00
  8.40317351789580e+00
  4.80150582160193e+00
  1.55819330730478e+00
  1.09716888313239e-03
 -2.35644848731218e+00
 -3.22241300088705e+00
 -3.50308751124858e+00
 -3.21565115351729e+00
 -1.75266045923181e+00
 -7.39589051144409e-01
  2.55075294015732e-01
  1.17380433533106e+00
  5.95960578383022e-02
  4.57260134599596e-01
  6.58952976069849e-02
  1.26537084505476e-01
  5.05342882924414e-01
  9.45273469411120e-01
  1.63244480027292e+00
  2.63682388500924e+00
  3.97100251949347e+00
  5.40054468526540e+00
  6.14797258543505e+00
  4.98070088997371e+00
  2.02176489746253e+00
  1.84357149094381e-01
 -7.08488623570591e-03
  2.36913493026560e-03
  1.32950482512095e-04
 -1.38957418994420e-01
 -2.60090027852347e-01
 -4.49835706775664e-01
 -7.31126629696563e-01
 -1.11861777375438e+00
 -1.58739593447389e+00
 -1.99125636701477e+00
 -2.03025837503363e+00
 -1.24743111609232e+00
  2.71867405206707e-01
  9.95810075477156e-01
  4.55448471363036e-01
 -2.41754544584911e-03
  5.58641690839409e-02
  1.04485498965527e-01
  1.80940572893667e-01
  2.93783669027015e-01
  4.50951988226580e-01
  6.40557184508875e-01
  8.12648389129307e-01
  8.41310655339178e-01
  5.41906290515089e-01
 -1.33284671521752e-01
 -5.43309343865180e-01
 -4.73860280618372e-01
  2.41503867585103e-01
  3.84180942836044e-01
  1.06644759418552e-01
  6.70133452164188e+00
  8.83940558806038e+00
  9.81840820158908e+00
  8.40317351789580e+00
  4.80150582160193e+00
  1.55819330730478e+00
  1.09716888313239e-03
 -2.35644848731218e+00
 -3.22241300088705e+00
 -3.50308751124858e+00
 -3.21565115351729e+00
 -1.75266045923181e+00
 -7.39589051144409e-01
  2.55075294015732e-01
  1.17380433533106e+00
  5.95960578383022e-02
  4.57260134599596e-01
  6.58952976069849e-02
  1.26537084505476e-01
  5.05342882924414e-01
  9.45273469411120e-01
  1.63244480027292e+00
  2.63682388500924e+00
  3.97100251949347e+00
  5.40054468526540e+00
  6.14797258543505e+00
  4.98070088997371e+00
  2.02176489746253e+00
  1.84357149094381e-01
 -7.08488623570591e-03
  2.36913493026560e-03
  1.32950482512095e-04
 -1.38957418994420e-01
 -2.60090027852347e-01
 -4.49835706775664e-01
 -7.31126629696563e-01
 -1.11861777375438e+00
 -1.58739593447389e+00
 -1.99125636701477e+00
 -2.03025837503363e+00
 -1.24743111609232e+00
  2.71867405206707e-01
  9.95810075477156e-01
  4.55448471363036e-01
 -2.41754544584911e-03
  5.58641690839409e-02
  1.04485498965527e-01
  1.80940572893667e-01
  2.93783669027015e-01
  4.50951988226580e-01
  6.40557184508875e-01
  8.12648389129307e-01
  8.41310655339178e-01
  5.41906290515089e-01
 -1.33284671521752e-01
 -5.43309343865180e-01
 -4.73860280618372e-01
  2.41503867585103e-01
  3.84180942836044e-01
  1.06644759418552e-01
  6.70133452164188e+00
  8.83940558806038e+00
  9.81840820158908e+00
  8.40317351789580e+00
  4.80150582160193e+00
  1.55819330730478e+00
  1.09716888313239e-03
 -2.35644848731218e+00
 -3.22241300088705e+00
 -3.50308751124858e+00
 -3.21565115351729e+00
 -1.75266045923181e+00
 -7.39589051144409e-01
  2.55075294015732e-01
  1.17380433533106e+00
  5.95960578383022e-02
  4.57260134599596e-01
  6.58952976069849e-02
  1.26537084505476e-01
  5.05342882924414e-01
  9.45273469411120e-01
  1.63244480027292e+00
  2.63682388500924e+00
  3.97100251949347e+00
  5.40054468526540e+00
  6.14797258543505e+00
  4.98070088997371e+00
  2.02176489746253e+00
  1.84357149094381e-01
 -7.08488623570591e-03
  2.36913493026560e-03
  1.32950482512095e-04
 -1.38957418994420e-01
 -2.60090027852347e-01
 -4.49835706775664e-01
 -7.31126629696563e-01
 -1.11861777375438e+00
 -1.58739593447389e+00
 -1.99125636701477e+00
 -2.03025837503363e+00
 -1.24743111609232e+00
  2.71867405206707e-01
  9.95810075477156e-01
  4.55448471363036e-01
 -2.41754544584911e-03
  5.58641690839409e-02
  1.04485498965527e-01
  1.80940572893667e-01
  2.93783669027015e-01
  4.50951988226580e-01
  6.40557184508875e-01
  8.12648389129307e-01
  8.41310655339178e-01
  5.41906290515089e-01
 -1.33284671521752e-01
 -5.43309343865180e-01
 -4.73860280618372e-01
  2.41503867585103e-01
  3.84180942836044e-01
  1.06644759418552e-01
  6.70133452164188e+00
  8.83940558806038e+00
  9.81840820158908e+00
  8.40317351789580e+00
  4.80150582160193e+00
  1.55819330730478e+00
  1.09716888313239e-03
 -2.35644848731218e+00
 -3.22241300088705e+00
 -3.50308751124858e+00
 -3.21565115351729e+00
 -1.75266045923181e+00
 -7.39589051144409e-01
  2.55075294015732e-01
  1.17380433533106e+00
  5.95960578383022e-02
  4.57260134599596e-01
  6.58952976069849e-02
  1.26537084505476e-01
  5.05342882924414e-01
  9.45273469411120e-01
  1.63244480027292e+00
  2.63682388500924e+00
  3.97100251949347e+00
  5.40054468526540e+00
  6.14797258543505e+00
  4.98070088997371e+00
  2.02176489746253e+00
  1.84357149094381e-01
 -7.08488623570591e-03
  2.36913493026560e-03
  1.32950482512095e-04
 -1.38957418994420e-01
 -2.60090027852347e-01
 -4.49835706775664e-01
 -7.31126629696563e-01
 -1.11861777375438e+00
 -1.58739593447389e+00
 -1.99125636701477e+00
 -2.03025837503363e+00
 -1.24743111609232e+00
  2.71867405206707e-01
  9.95810075477156e-01
  4.55448471363036e-01
 -2.41754544584911e-03
  5.58641690839409e-02
  1.04485498965527e-01
  1.80940572893667e-01
  2.93783669027015e-01
  4.50951988226580e-01
  6.40557184508875e-01
  8.12648389129307e-01
  8.41310655339178e-01
  5.41906290515089e-01
 -1.33284671521752e-01
 -5.43309343865180e-01
 -4.73860280618372e-01
  2.41503867585103e-01
  3.84180942836044e-01
  1.06644759418552e-01
  6.70133452164188e+00
  8.83940558806038e+00
  9.81840820158908e+00
  8.40317351789580e+00
  4.80150582160193e+00
  1.55819330730478e+00
  1.09716888313239e-03
 -2.35644848731218e+00
 -3.22241300088705e+00
 -3.50308751124858e+00
 -3.21565115351729e+00
 -1.75266045923181e+00
 -7.39589051144409e-01
  2.55075294015732e-01
  1.17380433533106e+00
  5.95960578383022e-02
  4.57260134599596e-01
  6.58952976069849e-02
  1.26537084505476e-01
  5.05342882924414e-01
  9.45273469411120e-01
  1.63244480027292e+00
  2.63682388500924e+00
  3.97100251949347e+00
  5.40054468526540e+00
  6.14797258543505e+00
  4.98070088997371e+00
  2.02176489746253e+00
  1.84357149094381e-01
 -7.08488623570591e-03
  2.36913493026560e-03
  1.32950482512095e-04
 -1.38957418994420e-01
 -2.60090027852347e-01
 -4.49835706775664e-01
 -7.31126629696563e-01
 -1.11861777375438e+00
 -1.58739593447389e+00
 -1.99125636701477e+00
 -2.03025837503363e+00
 -1.24743111609232e+00
  2.71867405206707e-01
  9.95810075477156e-01
  4.55448471363036e-01
 -2.41754544584911e-03
  5.58641690839409e-02
  1.04485498965527e-01
  1.80940572893667e-01
  2.93783669027015e-01
  4.50951988226580e-01
  6.40557184508875e-01
  8.12648389129307e-01
  8.41310655339178e-01
  5.41906290515089e-01
 -1.33284671521752e-01
 -5.43309343865180e-01
 -4.73860280618372e-01
  2.41503867585103e-01
  3.84180942836044e-01
  1.06644759418552e-01
  6.70133452164188e+00
  8.83940558806038e+00
  9.81840820158908e+00
  8.40317351789580e+00
  4.80150582160193e+00
  1.55819330730478e+00
  1.09716888313239e-03
 -2.35644848731218e+00
 -3.22241300088705e+00
 -3.50308751124858e+00
 -3.21565115351729e+00
 -1.75266045923181e+00
 -7.39589051144409e-01
  2.55075294015732e-01
  1.17380433533106e+00
  5.95960578383022e-02
  4.57260134599596e-01
  6.58952976069849e-02
  1.26537084505476e-01
  5.05342882924414e-01
  9.45273469411120e-01
  1.63244480027292e+00
  2.63682388500924e+00
  3.97100251949347e+00
  5.40054468526540e+00
  6.14797258543505e+00
  4.98070088997371e+00
  2.02176489746253e+00
  1.84357149094381e-01
 -7.08488623570591e-03
  2.36913493026560e-03
  1.32950482512095e-04
 -1.38957418994420e-01
 -2.60090027852347e-01
 -4.49835706775664e-01
 -7.31126629696563e-01
 -1.11861777375438e+00
 -1.58739593447389e+00
 -1.99125636701477e+00
 -2.03025837503363e+00
 -1.24743111609232e+00
  2.71867405206707e-01
  9.95810075477156e-01
  4.55448471363036e-01
 -2.41754544584911e-03
  5.58641690839409e-02
  1.04485498965527e-01
  1.80940572893667e-01
  2.93783669027015e-01
  4.50951988226580e-01
  6.40557184508875e-01
  8.12648389129307e-01
  8.41310655339178e-01
  5.41906290515089e-01
 -1.33284671521752e-01
 -5.43309343865180e-01
 -4.73860280618372e-01
  2.41503867585103e-01
  3.84180942836044e-01
  1.06644759418552e-01
  6.70133452164188e+00
  8.83940558806038e+00
  9.81840820158908e+00
  8.40317351789580e+00
  4.80150582160193e+00
  1.55819330730478e+00
  1.09716888313239e-03
 -2.35644848731218e+00
 -3.22241300088705e+00
 -3.50308751124858e+00
 -3.21565115351729e+00
 -1.75266045923181e+00
 -7.39589051144409e-01
  2.55075294015732e-01
  1.17380433533106e+00
  5.95960578383022e-02
  4.57260134599596e-01
  6.58952976069849e-02
  1.26537084505476e-01
  5.05342882924414e-01
  9.45273469411120e-01
  1.63244480027292e+00
  2.63682388500924e+00
  3.97100251949347e+00
  5.40054468526540e+00
  6.14797258543505e+00
  4.98070088997371e+00
  2.02176489746253e+00
  1.84357149094381e-01
 -7.08488623570591e-03
  2.36913493026560e-03
  1.32950482512095e-04
 -1.38957418994420e-01
 -2.60090027852347e-01
 -4.49835706775664e-01
 -7.31126629696563e-01
 -1.11861777375438e+00
 -1.58739593447389e+00
 -1.99125636701477e+00
 -2.03025837503363e+00
 -1.24743111609232e+00
  2.71867405206707e-01
  9.95810075477156e-01
  4.55448471363036e-01
 -2.41754544584911e-03
  5.58641690839409e-02
  1.04485498965527e-01
  1.80940572893667e-01
  2.93783669027015e-01
  4.50951988226580e-01
  6.40557184508875e-01
  8.12648389129307e-01
  8.41310655339178e-01
  5.41906290515089e-01
 -1.33284671521752e-01
 -5.43309343865180e-01
 -4.73860280618372e-01
  2.41503867585103e-01
  3.84180942836044e-01
  1.06644759418552e-01
  6.70133452164188e+00
  8.83940558806038e+00
  9.81840820158908e+00
  8.40317351789580e+00
  4.80150582160193e+00
  1.55819330730478e+00
  1.09716888313239e-03
 -2.35644848731218e+00
 -3.22241300088705e+00
 -3.50308751124858e+00
 -3.21565115351729e+00
 -1.75266045923181e+00
 -7.39589051144409e-01
  2.55075294015732e-01
  1.17380433533106e+00
  5.95960578383022e-02
  4.57260134599596e-01
  6.58952976069849e-02
  1.26537084505476e-01
  5.05342882924414e-01
  9.45273469411120e-01
  1.63244480027292e+00
  2.63682388500924e+00
  3.97100251949347e+00
  5.40054468526540e+00
  6.14797258543505e+00
  4.98070088997371e+00
  2.02176489746253e+00
  1.84357149094381e-01
 -7.08488623570591e-03
  2.36913493026560e-03
  1.32950482512095e-04
 -1.38957418994420e-01
 -2.60090027852347e-01
 -4.49835706775664e-01
 -7.31126629696563e-01
 -1.11861777375438e+00
 -1.58739593447389e+00
 -1.99125636701477e+00
 -2.03025837503363e+00
 -1.24743111609232e+00
  2.71867405206707e-01
  9.95810075477156e-01
  4.55448471363036e-01
 -2.41754544584911e-03
  5.58641690839409e-02
  1.04485498965527e-01
  1.80940572893667e-01
  2.93783669027015e-01
  4.50951988226580e-01
  6.40557184508875e-01
  8.12648389129307e-01
  8.41310655339178e-01
  5.41906290515089e-01
 -1.33284671521752e-01
 -5.43309343865180e-01
 -4.73860280618372e-01
  2.41503867585103e-01
  3.84180942836044e-01
  1.06644759418552e-01
  6.70133452164188e+00
  8.83940558806038e+00
  9.81840820158908e+00
  8.40317351789580e+00
  4.80150582160193e+00
  1.55819330730478e+00
  1.09716888313239e-03
 -2.35644848731218e+00
 -3.22241300088705e+00
 -3.50308751124858e+00
 -3.21565115351729e+00
 -1.75266045923181e+00
 -7.39589051144409e-01
  2.55075294015732e-01
  1.17380433533106e+00
  5.95960578383022e-02
  4.57260134599596e-01
  6.58952976069849e-02
  1.26537084505476e-01

0 0 0 0 3 3 3
0 0 13 0 26 0 
13 0

0 3 3 13 1 1 1
39 0 
1 0

0 4 4 14 1 1 1
40 0 
1 0

0 5 5 15 2 6 6
41 1 48 1 
7 0

0 11 11 22 1 3 3
55 1 
1 0

0 14 14 23 1 3 3
56 1 
1 0

0 17 17 24 1 5 6
57 2 
1 1

0 22 22 25 1 5 6
58 2 
1 1

0 27 27 26 1 7 10
59 3 
1 1

1 34 34 27 3 3 3
60 0 73 0 86 0 
13 0

1 37 37 40 1 1 1
99 0 
1 0

1 38 38 41 1 1 1
100 0 
1 0

1 39 39 42 2 6 6
101 1 108 1 
7 0

1 45 45 49 1 3 3
115 1 
1 0

1 48 48 50 1 3 3
116 1 
1 0

1 51 51 51 1 5 6
117 2 
1 1

1 56 56 52 1 5 6
118 2 
1 1

1 61 61 53 1 7 10
119 3 
1 1

2 68 68 54 3 3 3
120 0 133 0 146 0 
13 0

2 71 71 67 1 1 1
159 0 
1 0

2 72 72 68 1 1 1
160 0 
1 0

2 73 73 69 2 6 6
161 1 168 1 
7 0

2 79 79 76 1 3 3
175 1 
1 0

2 82 82 77 1 3 3
176 1 
1 0

2 85 85 78 1 5 6
177 2 
1 1

2 90 90 79 1 5 6
178 2 
1 1

2 95 95 80 1 7 10
179 3 
1 1

3 102 102 81 3 3 3
180 0 193 0 206 0 
13 0

3 105 105 94 1 1 1
219 0 
1 0

3 106 106 95 1 1 1
220 0 
1 0

3 107 107 96 2 6 6
221 1 228 1 
7 0

3 113 113 103 1 3 3
235 1 
1 0

3 116 116 104 1 3 3
236 1 
1 0

3 119 119 105 1 5 6
237 2 
1 1

3 124 124 106 1 5 6
238 2 
1 1

3 129 129 107 1 7 10
239 3 
1 1

4 136 136 108 3 3 3
240 0 253 0 266 0 
13 0

4 139 139 121 1 1 1
279 0 
1 0

4 140 140 122 1 1 1
280 0 
1 0

4 141 141 123 2 6 6
281 1 288 1 
7 0

4 147 147 130 1 3 3
295 1 
1 0

4 150 150 131 1 3 3
296 1 
1 0

4 153 153 132 1 5 6
297 2 
1 1

4 158 158 133 1 5 6
298 2 
1 1

4 163 163 134 1 7 10
299 3 
1 1

5 170 170 135 3 3 3
300 0 313 0 326 0 
13 0

5 173 173 148 1 1 1
339 0 
1 0

5 174 174 149 1 1 1
340 0 
1 0

5 175 175 150 2 6 6
341 1 348 1 
7 0

5 181 181 157 1 3 3
355 1 
1 0

5 184 184 158 1 3 3
356 1 
1 0

5 187 187 159 1 5 6
357 2 
1 1

5 192 192 160 1 5 6
358 2 
1 1

5 197 197 161 1 7 10
359 3 
1 1

6 204 204 162 3 3 3
360 0 373 0 386 0 
13 0

6 207 207 175 1 1 1
399 0 
1 0

6 208 208 176 1 1 1
400 0 
1 0

6 209 209 177 2 6 6
401 1 408 1 
7 0

6 215 215 184 1 3 3
415 1 
1 0

6 218 218 185 1 3 3
416 1 
1 0

6 221 221 186 1 5 6
417 2 
1 1

6 226 226 187 1 5 6
418 2 
1 1

6 231 231 188 1 7 10
419 3 
1 1

7 238 238 189 3 3 3
420 0 433 0 446 0 
13 0

7 241 241 202 1 1 1
459 0 
1 0

7 242 242 203 1 1 1
460 0 
1 0

7 243 243 204 2 6 6
461 1 468 1 
7 0

7 249 249 211 1 3 3
475 1 
1 0

7 252 252 212 1 3 3
476 1 
1 0

7 255 255 213 1 5 6
477 2 
1 1

7 260 260 214 1 5 6
478 2 
1 1

7 265 265 215 1 7 10
479 3 
1 1

8 272 272 216 3 3 3
480 0 493 0 506 0 
13 0

8 275 275 229 1 1 1
519 0 
1 0

8 276 276 230 1 1 1
520 0 
1 0

8 277 277 231 2 6 6
521 1 528 1 
7 0

8 283 283 238 1 3 3
535 1 
1 0

8 286 286 239 1 3 3
536 1 
1 0

8 289 289 240 1 5 6
537 2 
1 1

8 294 294 241 1 5 6
538 2 
1 1

8 299 299 242 1 7 10
539 3 
1 1

9 306 306 243 3 3 3
540 0 553 0 566 0 
13 0

9 309 309 256 1 1 1
579 0 
1 0

9 310 310 257 1 1 1
580 0 
1 0

9 311 311 258 2 6 6
581 1 588 1 
7 0

9 317 317 265 1 3 3
595 1 
1 0

9 320 320 266 1 3 3
596 1 
1 0

9 323 323 267 1 5 6
597 2 
1 1

9 328 328 268 1 5 6
598 2 
1 1

9 333 333 269 1 7 10
599 3 
1 1

10 340 340 270 3 3 3
600 0 613 0 626 0 
13 0

10 343 343 283 1 1 1
639 0 
1 0

10 344 344 284 1 1 1
640 0 
1 0

10 345 345 285 2 6 6
641 1 648 1 
7 0

10 351 351 292 1 3 3
655 1 
1 0

10 354 354 293 1 3 3
656 1 
1 0

10 357 357 294 1 5 6
657 2 
1 1

10 362 362 295 1 5 6
658 2 
1 1

10 367 367 296 1 7 10
659 3 
1 1

11 374 374 297 3 3 3
660 0 673 0 686 0 
13 0

11 377 377 310 1 1 1
699 0 
1 0

11 378 378 311 1 1 1
700 0 
1 0

11 379 379 312 2 6 6
701 1 708 1 
7 0

11 385 385 319 1 3 3
715 1 
1 0

11 388 388 320 1 3 3
716 1 
1 0

11 391 391 321 1 5 6
717 2 
1 1

11 396 396 322 1 5 6
718 2 
1 1

11 401 401 323 1 7 10
719 3 
1 1

12 408 408 324 3 3 3
720 0 733 0 746 0 
13 0

12 411 411 337 1 1 1
759 0 
1 0

12 412 412 338 1 1 1
760 0 
1 0

12 413 413 339 2 6 6
761 1 768 1 
7 0

12 419 419 346 1 3 3
775 1 
1 0

12 422 422 347 1 3 3
776 1 
1 0

12 425 425 348 1 5 6
777 2 
1 1

12 430 430 349 1 5 6
778 2 
1 1

12 435 435 350 1 7 10
779 3 
1 1

13 442 442 351 3 3 3
780 0 793 0 806 0 
13 0

13 445 445 364 1 1 1
819 0 
1 0

13 446 446 365 1 1 1
820 0 
1 0

13 447 447 366 2 6 6
821 1 828 1 
7 0

13 453 453 373 1 3 3
835 1 
1 0

13 456 456 374 1 3 3
836 1 
1 0

13 459 459 375 1 5 6
837 2 
1 1

13 464 464 376 1 5 6
838 2 
1 1

13 469 469 377 1 7 10
839 3 
1 1

14 476 476 378 3 3 3
840 0 853 0 866 0 
13 0

14 479 479 391 1 1 1
879 0 
1 0

14 480 480 392 1 1 1
880 0 
1 0

14 481 481 393 2 6 6
881 1 888 1 
7 0

14 487 487 400 1 3 3
895 1 
1 0

14 490 490 401 1 3 3
896 1 
1 0

14 493 493 402 1 5 6
897 2 
1 1

14 498 498 403 1 5 6
898 2 
1 1

14 503 503 404 1 7 10
899 3 
1 1

15 510 510 405 3 3 3
900 0 913 0 926 0 
13 0

15 513 513 418 1 1 1
939 0 
1 0

15 514 514 419 1 1 1
940 0 
1 0

15 515 515 420 2 6 6
941 1 948 1 
7 0

15 521 521 427 1 3 3
955 1 
1 0

15 524 524 428 1 3 3
956 1 
1 0

15 527 527 429 1 5 6
957 2 
1 1

15 532 532 430 1 5 6
958 2 
1 1

15 537 537 431 1 7 10
959 3 
1 1

 -------------------------------------------------------------
 Allocate 2524424 B from available memory: 1048576000000 B
 There are 729 image cells after screening.
 There are 265 image cells for CGTO evaluation after screening.
 Real-Space grid for FFT initialized based on kinetic energy cutoff (eV) = 500.0
 Real-Space grid for FFT: (20,20,20)
 There are 68921 real-space grid points.
 There are 512 batches of real-space grid points. 
 Size of each grid batch is around 128
 Grid for AFT initialized based on kinetic energy cutoff (eV) = 500.0
 Real-Space grid for AFT: (20,20,20)
 There are 68921 real-space grid points.

 There are 43648 atom-centered grid points.

 Spacegroup symmetry group: Fd-3m
 Reducing spacegroup symmetry to symmorphic group: F -4 3 m
 Monkhorst-Pack mesh is [10,10,10]
 There are 1000 k points.
kpoints in Bohr
-0.1224649224 -0.1224649224 -0.1224649224
-0.0918486918 -0.0918486918 -0.1530811530
-0.0612324612 -0.0612324612 -0.1836973836
-0.0306162306 -0.0306162306 -0.2143136141
-0.0000000000 -0.0000000000 -0.2449298447
0.0306162306 0.0306162306 -0.2755460753
0.0612324612 0.0612324612 -0.3061623059
0.0918486918 0.0918486918 -0.3367785365
0.1224649224 0.1224649224 -0.3673947671
0.1530811530 0.1530811530 -0.3980109977
-0.0918486918 -0.1530811530 -0.0918486918
-0.0612324612 -0.1224649224 -0.1224649224
-0.0306162306 -0.0918486918 -0.1530811530
-0.0000000000 -0.0612324612 -0.1836973836
0.0306162306 -0.0306162306 -0.2143136141
0.0612324612 -0.0000000000 -0.2449298447
0.0918486918 0.0306162306 -0.2755460753
0.1224649224 0.0612324612 -0.3061623059
0.1530811530 0.0918486918 -0.3367785365
0.1836973836 0.1224649224 -0.3673947671
-0.0612324612 -0.1836973836 -0.0612324612
-0.0306162306 -0.1530811530 -0.0918486918
-0.0000000000 -0.1224649224 -0.1224649224
0.0306162306 -0.0918486918 -0.1530811530
0.0612324612 -0.0612324612 -0.1836973836
0.0918486918 -0.0306162306 -0.2143136141
0.1224649224 -0.0000000000 -0.2449298447
0.1530811530 0.0306162306 -0.2755460753
0.1836973836 0.0612324612 -0.3061623059
0.2143136141 0.0918486918 -0.3367785365
-0.0306162306 -0.2143136141 -0.0306162306
-0.0000000000 -0.1836973836 -0.0612324612
0.0306162306 -0.1530811530 -0.0918486918
0.0612324612 -0.1224649224 -0.1224649224
0.0918486918 -0.0918486918 -0.1530811530
0.1224649224 -0.0612324612 -0.1836973836
0.1530811530 -0.0306162306 -0.2143136141
0.1836973836 -0.0000000000 -0.2449298447
0.2143136141 0.0306162306 -0.2755460753
0.2449298447 0.0612324612 -0.3061623059
-0.0000000000 -0.2449298447 0.0000000000
0.0306162306 -0.2143136141 -0.0306162306
0.0612324612 -0.1836973836 -0.0612324612
0.0918486918 -0.1530811530 -0.0918486918
0.1224649224 -0.1224649224 -0.1224649224
0.1530811530 -0.0918486918 -0.1530811530
0.1836973836 -0.0612324612 -0.1836973836
0.2143136141 -0.0306162306 -0.2143136141
0.2449298447 -0.0000000000 -0.2449298447
0.2755460753 0.0306162306 -0.2755460753
0.0306162306 -0.2755460753 0.0306162306
0.0612324612 -0.2449298447 -0.0000000000
0.0918486918 -0.2143136141 -0.0306162306
0.1224649224 -0.1836973836 -0.0612324612
0.1530811530 -0.1530811530 -0.0918486918
0.1836973836 -0.1224649224 -0.1224649224
0.2143136141 -0.0918486918 -0.1530811530
0.2449298447 -0.0612324612 -0.1836973836
0.2755460753 -0.0306162306 -0.2143136141
0.3061623059 0.0000000000 -0.2449298447
0.0612324612 -0.3061623059 0.0612324612
0.0918486918 -0.2755460753 0.0306162306
0.1224649224 -0.2449298447 0.0000000000
0.1530811530 -0.2143136141 -0.0306162306
0.1836973836 -0.1836973836 -0.0612324612
0.2143136141 -0.1530811530 -0.0918486918
0.2449298447 -0.1224649224 -0.1224649224
0.2755460753 -0.0918486918 -0.1530811530
0.3061623059 -0.0612324612 -0.1836973836
0.3367785365 -0.0306162306 -0.2143136141
0.0918486918 -0.3367785365 0.0918486918
0.1224649224 -0.3061623059 0.0612324612
0.1530811530 -0.2755460753 0.0306162306
0.1836973836 -0.2449298447 -0.0000000000
0.2143136141 -0.2143136141 -0.0306162306
0.2449298447 -0.1836973836 -0.0612324612
0.2755460753 -0.1530811530 -0.0918486918
0.3061623059 -0.1224649224 -0.1224649224
0.3367785365 -0.0918486918 -0.1530811530
0.3673947671 -0.0612324612 -0.1836973836
0.1224649224 -0.3673947671 0.1224649224
0.1530811530 -0.3367785365 0.0918486918
0.1836973836 -0.3061623059 0.0612324612
0.2143136141 -0.2755460753 0.0306162306
0.2449298447 -0.2449298447 0.0000000000
0.2755460753 -0.2143136141 -0.0306162306
0.3061623059 -0.1836973836 -0.0612324612
0.3367785365 -0.1530811530 -0.0918486918
0.3673947671 -0.1224649224 -0.1224649224
0.3980109977 -0.0918486918 -0.1530811530
0.1530811530 -0.3980109977 0.1530811530
0.1836973836 -0.3673947671 0.1224649224
0.2143136141 -0.3367785365 0.0918486918
0.2449298447 -0.3061623059 0.0612324612
0.2755460753 -0.2755460753 0.0306162306
0.3061623059 -0.2449298447 0.0000000000
0.3367785365 -0.2143136141 -0.0306162306
0.3673947671 -0.1836973836 -0.0612324612
0.3980109977 -0.1530811530 -0.0918486918
0.4286272283 -0.1224649224 -0.1224649224
-0.1530811530 -0.0918486918 -0.0918486918
-0.1224649224 -0.0612324612 -0.1224649224
-0.0918486918 -0.0306162306 -0.1530811530
-0.0612324612 -0.0000000000 -0.1836973836
-0.0306162306 0.0306162306 -0.2143136141
-0.0000000000 0.0612324612 -0.2449298447
0.0306162306 0.0918486918 -0.2755460753
0.0612324612 0.1224649224 -0.3061623059
0.0918486918 0.1530811530 -0.3367785365
0.1224649224 0.1836973836 -0.3673947671
-0.1224649224 -0.1224649224 -0.0612324612
-0.0918486918 -0.0918486918 -0.0918486918
-0.0612324612 -0.0612324612 -0.1224649224
-0.0306162306 -0.0306162306 -0.1530811530
-0.0000000000 -0.0000000000 -0.1836973836
0.0306162306 0.0306162306 -0.2143136141
0.0612324612 0.0612324612 -0.2449298447
0.0918486918 0.0918486918 -0.2755460753
0.1224649224 0.1224649224 -0.3061623059
0.1530811530 0.1530811530 -0.3367785365
-0.0918486918 -0.1530811530 -0.0306162306
-0.0612324612 -0.1224649224 -0.0612324612
-0.0306162306 -0.0918486918 -0.0918486918
-0.0000000000 -0.0612324612 -0.1224649224
0.0306162306 -0.0306162306 -0.1530811530
0.0612324612 -0.0000000000 -0.1836973836
0.0918486918 0.0306162306 -0.2143136141
0.1224649224 0.0612324612 -0.2449298447
0.1530811530 0.0918486918 -0.2755460753
0.1836973836 0.1224649224 -0.3061623059
-0.0612324612 -0.1836973836 0.0000000000
-0.0306162306 -0.1530811530 -0.0306162306
-0.0000000000 -0.1224649224 -0.0612324612
0.0306162306 -0.0918486918 -0.0918486918
0.0612324612 -0.0612324612 -0.1224649224
0.0918486918 -0.0306162306 -0.1530811530
0.1224649224 -0.0000000000 -0.1836973836
0.1530811530 0.0306162306 -0.2143136141
0.1836973836 0.0612324612 -0.2449298447
0.2143136141 0.0918486918 -0.2755460753
-0.0306162306 -0.2143136141 0.0306162306
-0.0000000000 -0.1836973836 0.0000000000
0.0306162306 -0.1530811530 -0.0306162306
0.0612324612 -0.1224649224 -0.0612324612
0.0918486918 -0.0918486918 -0.0918486918
0.1224649224 -0.0612324612 -0.1224649224
0.1530811530 -0.0306162306 -0.1530811530
0.1836973836 0.0000000000 -0.1836973836
0.2143136141 0.0306162306 -0.2143136141
0.2449298447 0.0612324612 -0.2449298447
-0.0000000000 -0.2449298447 0.0612324612
0.0306162306 -0.2143136141 0.0306162306
0.0612324612 -0.1836973836 0.0000000000
0.0918486918 -0.1530811530 -0.0306162306
0.1224649224 -0.1224649224 -0.0612324612
0.1530811530 -0.0918486918 -0.0918486918
0.1836973836 -0.0612324612 -0.1224649224
0.2143136141 -0.0306162306 -0.1530811530
0.2449298447 0.0000000000 -0.1836973836
0.2755460753 0.0306162306 -0.2143136141
0.0306162306 -0.2755460753 0.0918486918
0.0612324612 -0.2449298447 0.0612324612
0.0918486918 -0.2143136141 0.0306162306
0.1224649224 -0.1836973836 0.0000000000
0.1530811530 -0.1530811530 -0.0306162306
0.1836973836 -0.1224649224 -0.0612324612
0.2143136141 -0.0918486918 -0.0918486918
0.2449298447 -0.0612324612 -0.1224649224
0.2755460753 -0.0306162306 -0.1530811530
0.3061623059 0.0000000000 -0.1836973836
0.0612324612 -0.3061623059 0.1224649224
0.0918486918 -0.2755460753 0.0918486918
0.1224649224 -0.2449298447 0.0612324612
0.1530811530 -0.2143136141 0.0306162306
0.1836973836 -0.1836973836 0.0000000000
0.2143136141 -0.1530811530 -0.0306162306
0.2449298447 -0.1224649224 -0.0612324612
0.2755460753 -0.0918486918 -0.0918486918
0.3061623059 -0.0612324612 -0.1224649224
0.3367785365 -0.0306162306 -0.1530811530
0.0918486918 -0.3367785365 0.1530811530
0.1224649224 -0.3061623059 0.1224649224
0.1530811530 -0.2755460753 0.0918486918
0.1836973836 -0.2449298447 0.0612324612
0.2143136141 -0.2143136141 0.0306162306
0.2449298447 -0.1836973836 0.0000000000
0.2755460753 -0.1530811530 -0.0306162306
0.3061623059 -0.1224649224 -0.0612324612
0.3367785365 -0.0918486918 -0.0918486918
0.3673947671 -0.0612324612 -0.1224649224
0.1224649224 -0.3673947671 0.1836973836
0.1530811530 -0.3367785365 0.1530811530
0.1836973836 -0.3061623059 0.1224649224
0.2143136141 -0.2755460753 0.0918486918
0.2449298447 -0.2449298447 0.0612324612
0.2755460753 -0.2143136141 0.0306162306
0.3061623059 -0.1836973836 0.0000000000
0.3367785365 -0.1530811530 -0.0306162306
0.3673947671 -0.1224649224 -0.0612324612
0.3980109977 -0.0918486918 -0.0918486918
-0.1836973836 -0.0612324612 -0.0612324612
-0.1530811530 -0.0306162306 -0.0918486918
-0.1224649224 -0.0000000000 -0.1224649224
-0.0918486918 0.0306162306 -0.1530811530
-0.0612324612 0.0612324612 -0.1836973836
-0.0306162306 0.0918486918 -0.2143136141
-0.0000000000 0.1224649224 -0.2449298447
0.0306162306 0.1530811530 -0.2755460753
0.0612324612 0.1836973836 -0.3061623059
0.0918486918 0.2143136141 -0.3367785365
-0.1530811530 -0.0918486918 -0.0306162306
-0.1224649224 -0.0612324612 -0.0612324612
-0.0918486918 -0.0306162306 -0.0918486918
-0.0612324612 -0.0000000000 -0.1224649224
-0.0306162306 0.0306162306 -0.1530811530
-0.0000000000 0.0612324612 -0.1836973836
0.0306162306 0.0918486918 -0.2143136141
0.0612324612 0.1224649224 -0.2449298447
0.0918486918 0.1530811530 -0.2755460753
0.1224649224 0.1836973836 -0.3061623059
-0.1224649224 -0.1224649224 0.0000000000
-0.0918486918 -0.0918486918 -0.0306162306
-0.0612324612 -0.0612324612 -0.0612324612
-0.0306162306 -0.0306162306 -0.0918486918
-0.0000000000 -0.0000000000 -0.1224649224
0.0306162306 0.0306162306 -0.1530811530
0.0612324612 0.0612324612 -0.1836973836
0.0918486918 0.0918486918 -0.2143136141
0.1224649224 0.1224649224 -0.2449298447
0.1530811530 0.1530811530 -0.2755460753
-0.0918486918 -0.1530811530 0.0306162306
-0.0612324612 -0.1224649224 -0.0000000000
-0.0306162306 -0.0918486918 -0.0306162306
-0.0000000000 -0.0612324612 -0.0612324612
0.0306162306 -0.0306162306 -0.0918486918
0.0612324612 -0.0000000000 -0.1224649224
0.0918486918 0.0306162306 -0.1530811530
0.1224649224 0.0612324612 -0.1836973836
0.1530811530 0.0918486918 -0.2143136141
0.1836973836 0.1224649224 -0.2449298447
-0.0612324612 -0.1836973836 0.0612324612
-0.0306162306 -0.1530811530 0.0306162306
-0.0000000000 -0.1224649224 0.0000000000
0.0306162306 -0.0918486918 -0.0306162306
0.0612324612 -0.0612324612 -0.0612324612
0.0918486918 -0.0306162306 -0.0918486918
0.1224649224 0.0000000000 -0.1224649224
0.1530811530 0.0306162306 -0.1530811530
0.1836973836 0.0612324612 -0.1836973836
0.2143136141 0.0918486918 -0.2143136141
-0.0306162306 -0.2143136141 0.0918486918
-0.0000000000 -0.1836973836 0.0612324612
0.0306162306 -0.1530811530 0.0306162306
0.0612324612 -0.1224649224 -0.0000000000
0.0918486918 -0.0918486918 -0.0306162306
0.1224649224 -0.0612324612 -0.0612324612
0.1530811530 -0.0306162306 -0.0918486918
0.1836973836 0.0000000000 -0.1224649224
0.2143136141 0.0306162306 -0.1530811530
0.2449298447 0.0612324612 -0.1836973836
-0.0000000000 -0.2449298447 0.1224649224
0.0306162306 -0.2143136141 0.0918486918
0.0612324612 -0.1836973836 0.0612324612
0.0918486918 -0.1530811530 0.0306162306
0.1224649224 -0.1224649224 0.0000000000
0.1530811530 -0.0918486918 -0.0306162306
0.1836973836 -0.0612324612 -0.0612324612
0.2143136141 -0.0306162306 -0.0918486918
0.2449298447 0.0000000000 -0.1224649224
0.2755460753 0.0306162306 -0.1530811530
0.0306162306 -0.2755460753 0.1530811530
0.0612324612 -0.2449298447 0.1224649224
0.0918486918 -0.2143136141 0.0918486918
0.1224649224 -0.1836973836 0.0612324612
0.1530811530 -0.1530811530 0.0306162306
0.1836973836 -0.1224649224 0.0000000000
0.2143136141 -0.0918486918 -0.0306162306
0.2449298447 -0.0612324612 -0.0612324612
0.2755460753 -0.0306162306 -0.0918486918
0.3061623059 0.0000000000 -0.1224649224
0.0612324612 -0.3061623059 0.1836973836
0.0918486918 -0.2755460753 0.1530811530
0.1224649224 -0.2449298447 0.1224649224
0.1530811530 -0.2143136141 0.0918486918
0.1836973836 -0.1836973836 0.0612324612
0.2143136141 -0.1530811530 0.0306162306
0.2449298447 -0.1224649224 0.0000000000
0.2755460753 -0.0918486918 -0.0306162306
0.3061623059 -0.0612324612 -0.0612324612
0.3367785365 -0.0306162306 -0.0918486918
0.0918486918 -0.3367785365 0.2143136141
0.1224649224 -0.3061623059 0.1836973836
0.1530811530 -0.2755460753 0.1530811530
0.1836973836 -0.2449298447 0.1224649224
0.2143136141 -0.2143136141 0.0918486918
0.2449298447 -0.1836973836 0.0612324612
0.2755460753 -0.1530811530 0.0306162306
0.3061623059 -0.1224649224 0.0000000000
0.3367785365 -0.0918486918 -0.0306162306
0.3673947671 -0.0612324612 -0.0612324612
-0.2143136141 -0.0306162306 -0.0306162306
-0.1836973836 -0.0000000000 -0.0612324612
-0.1530811530 0.0306162306 -0.0918486918
-0.1224649224 0.0612324612 -0.1224649224
-0.0918486918 0.0918486918 -0.1530811530
-0.0612324612 0.1224649224 -0.1836973836
-0.0306162306 0.1530811530 -0.2143136141
-0.0000000000 0.1836973836 -0.2449298447
0.0306162306 0.2143136141 -0.2755460753
0.0612324612 0.2449298447 -0.3061623059
-0.1836973836 -0.0612324612 0.0000000000
-0.1530811530 -0.0306162306 -0.0306162306
-0.1224649224 -0.0000000000 -0.0612324612
-0.0918486918 0.0306162306 -0.0918486918
-0.0612324612 0.0612324612 -0.1224649224
-0.0306162306 0.0918486918 -0.1530811530
0.0000000000 0.1224649224 -0.1836973836
0.0306162306 0.1530811530 -0.2143136141
0.0612324612 0.1836973836 -0.2449298447
0.0918486918 0.2143136141 -0.2755460753
-0.1530811530 -0.0918486918 0.0306162306
-0.1224649224 -0.0612324612 -0.0000000000
-0.0918486918 -0.0306162306 -0.0306162306
-0.0612324612 -0.0000000000 -0.0612324612
-0.0306162306 0.0306162306 -0.0918486918
-0.0000000000 0.0612324612 -0.1224649224
0.0306162306 0.0918486918 -0.1530811530
0.0612324612 0.1224649224 -0.1836973836
0.0918486918 0.1530811530 -0.2143136141
0.1224649224 0.1836973836 -0.2449298447
-0.1224649224 -0.1224649224 0.0612324612
-0.0918486918 -0.0918486918 0.0306162306
-0.0612324612 -0.0612324612 0.0000000000
-0.0306162306 -0.0306162306 -0.0306162306
-0.0000000000 -0.0000000000 -0.0612324612
0.0306162306 0.0306162306 -0.0918486918
0.0612324612 0.0612324612 -0.1224649224
0.0918486918 0.0918486918 -0.1530811530
0.1224649224 0.1224649224 -0.1836973836
0.1530811530 0.1530811530 -0.2143136141
-0.0918486918 -0.1530811530 0.0918486918
-0.0612324612 -0.1224649224 0.0612324612
-0.0306162306 -0.0918486918 0.0306162306
-0.0000000000 -0.0612324612 0.0000000000
0.0306162306 -0.0306162306 -0.0306162306
0.0612324612 0.0000000000 -0.0612324612
0.0918486918 0.0306162306 -0.0918486918
0.1224649224 0.0612324612 -0.1224649224
0.1530811530 0.0918486918 -0.1530811530
0.1836973836 0.1224649224 -0.1836973836
-0.0612324612 -0.1836973836 0.1224649224
-0.0306162306 -0.1530811530 0.0918486918
-0.0000000000 -0.1224649224 0.0612324612
0.0306162306 -0.0918486918 0.0306162306
0.0612324612 -0.0612324612 0.0000000000
0.0918486918 -0.0306162306 -0.0306162306
0.1224649224 0.0000000000 -0.0612324612
0.1530811530 0.0306162306 -0.0918486918
0.1836973836 0.0612324612 -0.1224649224
0.2143136141 0.0918486918 -0.1530811530
-0.0306162306 -0.2143136141 0.1530811530
-0.0000000000 -0.1836973836 0.1224649224
0.0306162306 -0.1530811530 0.0918486918
0.0612324612 -0.1224649224 0.0612324612
0.0918486918 -0.0918486918 0.0306162306
0.1224649224 -0.0612324612 0.0000000000
0.1530811530 -0.0306162306 -0.0306162306
0.1836973836 0.0000000000 -0.0612324612
0.2143136141 0.0306162306 -0.0918486918
0.2449298447 0.0612324612 -0.1224649224
-0.0000000000 -0.2449298447 0.1836973836
0.0306162306 -0.2143136141 0.1530811530
0.0612324612 -0.1836973836 0.1224649224
0.0918486918 -0.1530811530 0.0918486918
0.1224649224 -0.1224649224 0.0612324612
0.1530811530 -0.0918486918 0.0306162306
0.1836973836 -0.0612324612 0.0000000000
0.2143136141 -0.0306162306 -0.0306162306
0.2449298447 0.0000000000 -0.0612324612
0.2755460753 0.0306162306 -0.0918486918
0.0306162306 -0.2755460753 0.2143136141
0.0612324612 -0.2449298447 0.1836973836
0.0918486918 -0.2143136141 0.1530811530
0.1224649224 -0.1836973836 0.1224649224
0.1530811530 -0.1530811530 0.0918486918
0.1836973836 -0.1224649224 0.0612324612
0.2143136141 -0.0918486918 0.0306162306
0.2449298447 -0.0612324612 0.0000000000
0.2755460753 -0.0306162306 -0.0306162306
0.3061623059 0.0000000000 -0.0612324612
0.0612324612 -0.3061623059 0.2449298447
0.0918486918 -0.2755460753 0.2143136141
0.1224649224 -0.2449298447 0.1836973836
0.1530811530 -0.2143136141 0.1530811530
0.1836973836 -0.1836973836 0.1224649224
0.2143136141 -0.1530811530 0.0918486918
0.2449298447 -0.1224649224 0.0612324612
0.2755460753 -0.0918486918 0.0306162306
0.3061623059 -0.0612324612 0.0000000000
0.3367785365 -0.0306162306 -0.0306162306
-0.2449298447 -0.0000000000 -0.0000000000
-0.2143136141 0.0306162306 -0.0306162306
-0.1836973836 0.0612324612 -0.0612324612
-0.1530811530 0.0918486918 -0.0918486918
-0.1224649224 0.1224649224 -0.1224649224
-0.0918486918 0.1530811530 -0.1530811530
-0.0612324612 0.1836973836 -0.1836973836
-0.0306162306 0.2143136141 -0.2143136141
0.0000000000 0.2449298447 -0.2449298447
0.0306162306 0.2755460753 -0.2755460753
-0.2143136141 -0.0306162306 0.0306162306
-0.1836973836 -0.0000000000 -0.0000000000
-0.1530811530 0.0306162306 -0.0306162306
-0.1224649224 0.0612324612 -0.0612324612
-0.0918486918 0.0918486918 -0.0918486918
-0.0612324612 0.1224649224 -0.1224649224
-0.0306162306 0.1530811530 -0.1530811530
0.0000000000 0.1836973836 -0.1836973836
0.0306162306 0.2143136141 -0.2143136141
0.0612324612 0.2449298447 -0.2449298447
-0.1836973836 -0.0612324612 0.0612324612
-0.1530811530 -0.0306162306 0.0306162306
-0.1224649224 -0.0000000000 -0.0000000000
-0.0918486918 0.0306162306 -0.0306162306
-0.0612324612 0.0612324612 -0.0612324612
-0.0306162306 0.0918486918 -0.0918486918
0.0000000000 0.1224649224 -0.1224649224
0.0306162306 0.1530811530 -0.1530811530
0.0612324612 0.1836973836 -0.1836973836
0.0918486918 0.2143136141 -0.2143136141
-0.1530811530 -0.0918486918 0.0918486918
-0.1224649224 -0.0612324612 0.0612324612
-0.0918486918 -0.0306162306 0.0306162306
-0.0612324612 -0.0000000000 -0.0000000000
-0.0306162306 0.0306162306 -0.0306162306
0.0000000000 0.0612324612 -0.0612324612
0.0306162306 0.0918486918 -0.0918486918
0.0612324612 0.1224649224 -0.1224649224
0.0918486918 0.1530811530 -0.1530811530
0.1224649224 0.1836973836 -0.1836973836
-0.1224649224 -0.1224649224 0.1224649224
-0.0918486918 -0.0918486918 0.0918486918
-0.0612324612 -0.0612324612 0.0612324612
-0.0306162306 -0.0306162306 0.0306162306
0.0000000000 0.0000000000 0.0000000000
0.0306162306 0.0306162306 -0.0306162306
0.0612324612 0.0612324612 -0.0612324612
0.0918486918 0.0918486918 -0.0918486918
0.1224649224 0.1224649224 -0.1224649224
0.1530811530 0.1530811530 -0.1530811530
-0.0918486918 -0.1530811530 0.1530811530
-0.0612324612 -0.1224649224 0.1224649224
-0.0306162306 -0.0918486918 0.0918486918
0.0000000000 -0.0612324612 0.0612324612
0.0306162306 -0.0306162306 0.0306162306
0.0612324612 0.0000000000 0.0000000000
0.0918486918 0.0306162306 -0.0306162306
0.1224649224 0.0612324612 -0.0612324612
0.1530811530 0.0918486918 -0.0918486918
0.1836973836 0.1224649224 -0.1224649224
-0.0612324612 -0.1836973836 0.1836973836
-0.0306162306 -0.1530811530 0.1530811530
-0.0000000000 -0.1224649224 0.1224649224
0.0306162306 -0.0918486918 0.0918486918
0.0612324612 -0.0612324612 0.0612324612
0.0918486918 -0.0306162306 0.0306162306
0.1224649224 0.0000000000 0.0000000000
0.1530811530 0.0306162306 -0.0306162306
0.1836973836 0.0612324612 -0.0612324612
0.2143136141 0.0918486918 -0.0918486918
-0.0306162306 -0.2143136141 0.2143136141
-0.0000000000 -0.1836973836 0.1836973836
0.0306162306 -0.1530811530 0.1530811530
0.0612324612 -0.1224649224 0.1224649224
0.0918486918 -0.0918486918 0.0918486918
0.1224649224 -0.0612324612 0.0612324612
0.1530811530 -0.0306162306 0.0306162306
0.1836973836 0.0000000000 0.0000000000
0.2143136141 0.0306162306 -0.0306162306
0.2449298447 0.0612324612 -0.0612324612
-0.0000000000 -0.2449298447 0.2449298447
0.0306162306 -0.2143136141 0.2143136141
0.0612324612 -0.1836973836 0.1836973836
0.0918486918 -0.1530811530 0.1530811530
0.1224649224 -0.1224649224 0.1224649224
0.1530811530 -0.0918486918 0.0918486918
0.1836973836 -0.0612324612 0.0612324612
0.2143136141 -0.0306162306 0.0306162306
0.2449298447 0.0000000000 0.0000000000
0.2755460753 0.0306162306 -0.0306162306
0.0306162306 -0.2755460753 0.2755460753
0.0612324612 -0.2449298447 0.2449298447
0.0918486918 -0.2143136141 0.2143136141
0.1224649224 -0.1836973836 0.1836973836
0.1530811530 -0.1530811530 0.1530811530
0.1836973836 -0.1224649224 0.1224649224
0.2143136141 -0.0918486918 0.0918486918
0.2449298447 -0.0612324612 0.0612324612
0.2755460753 -0.0306162306 0.0306162306
0.3061623059 0.0000000000 0.0000000000
-0.2755460753 0.0306162306 0.0306162306
-0.2449298447 0.0612324612 -0.0000000000
-0.2143136141 0.0918486918 -0.0306162306
-0.1836973836 0.1224649224 -0.0612324612
-0.1530811530 0.1530811530 -0.0918486918
-0.1224649224 0.1836973836 -0.1224649224
-0.0918486918 0.2143136141 -0.1530811530
-0.0612324612 0.2449298447 -0.1836973836
-0.0306162306 0.2755460753 -0.2143136141
0.0000000000 0.3061623059 -0.2449298447
-0.2449298447 -0.0000000000 0.0612324612
-0.2143136141 0.0306162306 0.0306162306
-0.1836973836 0.0612324612 0.0000000000
-0.1530811530 0.0918486918 -0.0306162306
-0.1224649224 0.1224649224 -0.0612324612
-0.0918486918 0.1530811530 -0.0918486918
-0.0612324612 0.1836973836 -0.1224649224
-0.0306162306 0.2143136141 -0.1530811530
0.0000000000 0.2449298447 -0.1836973836
0.0306162306 0.2755460753 -0.2143136141
-0.2143136141 -0.0306162306 0.0918486918
-0.1836973836 -0.0000000000 0.0612324612
-0.1530811530 0.0306162306 0.0306162306
-0.1224649224 0.0612324612 -0.0000000000
-0.0918486918 0.0918486918 -0.0306162306
-0.0612324612 0.1224649224 -0.0612324612
-0.0306162306 0.1530811530 -0.0918486918
0.0000000000 0.1836973836 -0.1224649224
0.0306162306 0.2143136141 -0.1530811530
0.0612324612 0.2449298447 -0.1836973836
-0.1836973836 -0.0612324612 0.1224649224
-0.1530811530 -0.0306162306 0.0918486918
-0.1224649224 -0.0000000000 0.0612324612
-0.0918486918 0.0306162306 0.0306162306
-0.0612324612 0.0612324612 0.0000000000
-0.0306162306 0.0918486918 -0.0306162306
0.0000000000 0.1224649224 -0.0612324612
0.0306162306 0.1530811530 -0.0918486918
0.0612324612 0.1836973836 -0.1224649224
0.0918486918 0.2143136141 -0.1530811530
-0.1530811530 -0.0918486918 0.1530811530
-0.1224649224 -0.0612324612 0.1224649224
-0.0918486918 -0.0306162306 0.0918486918
-0.0612324612 0.0000000000 0.0612324612
-0.0306162306 0.0306162306 0.0306162306
0.0000000000 0.0612324612 0.0000000000
0.0306162306 0.0918486918 -0.0306162306
0.0612324612 0.1224649224 -0.0612324612
0.0918486918 0.1530811530 -0.0918486918
0.1224649224 0.1836973836 -0.1224649224
-0.1224649224 -0.1224649224 0.1836973836
-0.0918486918 -0.0918486918 0.1530811530
-0.0612324612 -0.0612324612 0.1224649224
-0.0306162306 -0.0306162306 0.0918486918
0.0000000000 0.0000000000 0.0612324612
0.0306162306 0.0306162306 0.0306162306
0.0612324612 0.0612324612 0.0000000000
0.0918486918 0.0918486918 -0.0306162306
0.1224649224 0.1224649224 -0.0612324612
0.1530811530 0.1530811530 -0.0918486918
-0.0918486918 -0.1530811530 0.2143136141
-0.0612324612 -0.1224649224 0.1836973836
-0.0306162306 -0.0918486918 0.1530811530
0.0000000000 -0.0612324612 0.1224649224
0.0306162306 -0.0306162306 0.0918486918
0.0612324612 0.0000000000 0.0612324612
0.0918486918 0.0306162306 0.0306162306
0.1224649224 0.0612324612 0.0000000000
0.1530811530 0.0918486918 -0.0306162306
0.1836973836 0.1224649224 -0.0612324612
-0.0612324612 -0.1836973836 0.2449298447
-0.0306162306 -0.1530811530 0.2143136141
-0.0000000000 -0.1224649224 0.1836973836
0.0306162306 -0.0918486918 0.1530811530
0.0612324612 -0.0612324612 0.1224649224
0.0918486918 -0.0306162306 0.0918486918
0.1224649224 0.0000000000 0.0612324612
0.1530811530 0.0306162306 0.0306162306
0.1836973836 0.0612324612 0.0000000000
0.2143136141 0.0918486918 -0.0306162306
-0.0306162306 -0.2143136141 0.2755460753
-0.0000000000 -0.1836973836 0.2449298447
0.0306162306 -0.1530811530 0.2143136141
0.0612324612 -0.1224649224 0.1836973836
0.0918486918 -0.0918486918 0.1530811530
0.1224649224 -0.0612324612 0.1224649224
0.1530811530 -0.0306162306 0.0918486918
0.1836973836 0.0000000000 0.0612324612
0.2143136141 0.0306162306 0.0306162306
0.2449298447 0.0612324612 0.0000000000
-0.0000000000 -0.2449298447 0.3061623059
0.0306162306 -0.2143136141 0.2755460753
0.0612324612 -0.1836973836 0.2449298447
0.0918486918 -0.1530811530 0.2143136141
0.1224649224 -0.1224649224 0.1836973836
0.1530811530 -0.0918486918 0.1530811530
0.1836973836 -0.0612324612 0.1224649224
0.2143136141 -0.0306162306 0.0918486918
0.2449298447 0.0000000000 0.0612324612
0.2755460753 0.0306162306 0.0306162306
-0.3061623059 0.0612324612 0.0612324612
-0.2755460753 0.0918486918 0.0306162306
-0.2449298447 0.1224649224 -0.0000000000
-0.2143136141 0.1530811530 -0.0306162306
-0.1836973836 0.1836973836 -0.0612324612
-0.1530811530 0.2143136141 -0.0918486918
-0.1224649224 0.2449298447 -0.1224649224
-0.0918486918 0.2755460753 -0.1530811530
-0.0612324612 0.3061623059 -0.1836973836
-0.0306162306 0.3367785365 -0.2143136141
-0.2755460753 0.0306162306 0.0918486918
-0.2449298447 0.0612324612 0.0612324612
-0.2143136141 0.0918486918 0.0306162306
-0.1836973836 0.1224649224 -0.0000000000
-0.1530811530 0.1530811530 -0.0306162306
-0.1224649224 0.1836973836 -0.0612324612
-0.0918486918 0.2143136141 -0.0918486918
-0.0612324612 0.2449298447 -0.1224649224
-0.0306162306 0.2755460753 -0.1530811530
0.0000000000 0.3061623059 -0.1836973836
-0.2449298447 -0.0000000000 0.1224649224
-0.2143136141 0.0306162306 0.0918486918
-0.1836973836 0.0612324612 0.0612324612
-0.1530811530 0.0918486918 0.0306162306
-0.1224649224 0.1224649224 -0.0000000000
-0.0918486918 0.1530811530 -0.0306162306
-0.0612324612 0.1836973836 -0.0612324612
-0.0306162306 0.2143136141 -0.0918486918
0.0000000000 0.2449298447 -0.1224649224
0.0306162306 0.2755460753 -0.1530811530
-0.2143136141 -0.0306162306 0.1530811530
-0.1836973836 0.0000000000 0.1224649224
-0.1530811530 0.0306162306 0.0918486918
-0.1224649224 0.0612324612 0.0612324612
-0.0918486918 0.0918486918 0.0306162306
-0.0612324612 0.1224649224 0.0000000000
-0.0306162306 0.1530811530 -0.0306162306
0.0000000000 0.1836973836 -0.0612324612
0.0306162306 0.2143136141 -0.0918486918
0.0612324612 0.2449298447 -0.1224649224
-0.1836973836 -0.0612324612 0.1836973836
-0.1530811530 -0.0306162306 0.1530811530
-0.1224649224 0.0000000000 0.1224649224
-0.0918486918 0.0306162306 0.0918486918
-0.0612324612 0.0612324612 0.0612324612
-0.0306162306 0.0918486918 0.0306162306
0.0000000000 0.1224649224 0.0000000000
0.0306162306 0.1530811530 -0.0306162306
0.0612324612 0.1836973836 -0.0612324612
0.0918486918 0.2143136141 -0.0918486918
-0.1530811530 -0.0918486918 0.2143136141
-0.1224649224 -0.0612324612 0.1836973836
-0.0918486918 -0.0306162306 0.1530811530
-0.0612324612 0.0000000000 0.1224649224
-0.0306162306 0.0306162306 0.0918486918
0.0000000000 0.0612324612 0.0612324612
0.0306162306 0.0918486918 0.0306162306
0.0612324612 0.1224649224 0.0000000000
0.0918486918 0.1530811530 -0.0306162306
0.1224649224 0.1836973836 -0.0612324612
-0.1224649224 -0.1224649224 0.2449298447
-0.0918486918 -0.0918486918 0.2143136141
-0.0612324612 -0.0612324612 0.1836973836
-0.0306162306 -0.0306162306 0.1530811530
0.0000000000 0.0000000000 0.1224649224
0.0306162306 0.0306162306 0.0918486918
0.0612324612 0.0612324612 0.0612324612
0.0918486918 0.0918486918 0.0306162306
0.1224649224 0.1224649224 0.0000000000
0.1530811530 0.1530811530 -0.0306162306
-0.0918486918 -0.1530811530 0.2755460753
-0.0612324612 -0.1224649224 0.2449298447
-0.0306162306 -0.0918486918 0.2143136141
0.0000000000 -0.0612324612 0.1836973836
0.0306162306 -0.0306162306 0.1530811530
0.0612324612 0.0000000000 0.1224649224
0.0918486918 0.0306162306 0.0918486918
0.1224649224 0.0612324612 0.0612324612
0.1530811530 0.0918486918 0.0306162306
0.1836973836 0.1224649224 0.0000000000
-0.0612324612 -0.1836973836 0.3061623059
-0.0306162306 -0.1530811530 0.2755460753
-0.0000000000 -0.1224649224 0.2449298447
0.0306162306 -0.0918486918 0.2143136141
0.0612324612 -0.0612324612 0.1836973836
0.0918486918 -0.0306162306 0.1530811530
0.1224649224 0.0000000000 0.1224649224
0.1530811530 0.0306162306 0.0918486918
0.1836973836 0.0612324612 0.0612324612
0.2143136141 0.0918486918 0.0306162306
-0.0306162306 -0.2143136141 0.3367785365
0.0000000000 -0.1836973836 0.3061623059
0.0306162306 -0.1530811530 0.2755460753
0.0612324612 -0.1224649224 0.2449298447
0.0918486918 -0.0918486918 0.2143136141
0.1224649224 -0.0612324612 0.1836973836
0.1530811530 -0.0306162306 0.1530811530
0.1836973836 0.0000000000 0.1224649224
0.2143136141 0.0306162306 0.0918486918
0.2449298447 0.0612324612 0.0612324612
-0.3367785365 0.0918486918 0.0918486918
-0.3061623059 0.1224649224 0.0612324612
-0.2755460753 0.1530811530 0.0306162306
-0.2449298447 0.1836973836 -0.0000000000
-0.2143136141 0.2143136141 -0.0306162306
-0.1836973836 0.2449298447 -0.0612324612
-0.1530811530 0.2755460753 -0.0918486918
-0.1224649224 0.3061623059 -0.1224649224
-0.0918486918 0.3367785365 -0.1530811530
-0.0612324612 0.3673947671 -0.1836973836
-0.3061623059 0.0612324612 0.1224649224
-0.2755460753 0.0918486918 0.0918486918
-0.2449298447 0.1224649224 0.0612324612
-0.2143136141 0.1530811530 0.0306162306
-0.1836973836 0.1836973836 -0.0000000000
-0.1530811530 0.2143136141 -0.0306162306
-0.1224649224 0.2449298447 -0.0612324612
-0.0918486918 0.2755460753 -0.0918486918
-0.0612324612 0.3061623059 -0.1224649224
-0.0306162306 0.3367785365 -0.1530811530
-0.2755460753 0.0306162306 0.1530811530
-0.2449298447 0.0612324612 0.1224649224
-0.2143136141 0.0918486918 0.0918486918
-0.1836973836 0.1224649224 0.0612324612
-0.1530811530 0.1530811530 0.0306162306
-0.1224649224 0.1836973836 -0.0000000000
-0.0918486918 0.2143136141 -0.0306162306
-0.0612324612 0.2449298447 -0.0612324612
-0.0306162306 0.2755460753 -0.0918486918
0.0000000000 0.3061623059 -0.1224649224
-0.2449298447 -0.0000000000 0.1836973836
-0.2143136141 0.0306162306 0.1530811530
-0.1836973836 0.0612324612 0.1224649224
-0.1530811530 0.0918486918 0.0918486918
-0.1224649224 0.1224649224 0.0612324612
-0.0918486918 0.1530811530 0.0306162306
-0.0612324612 0.1836973836 -0.0000000000
-0.0306162306 0.2143136141 -0.0306162306
0.0000000000 0.2449298447 -0.0612324612
0.0306162306 0.2755460753 -0.0918486918
-0.2143136141 -0.0306162306 0.2143136141
-0.1836973836 0.0000000000 0.1836973836
-0.1530811530 0.0306162306 0.1530811530
-0.1224649224 0.0612324612 0.1224649224
-0.0918486918 0.0918486918 0.0918486918
-0.0612324612 0.1224649224 0.0612324612
-0.0306162306 0.1530811530 0.0306162306
0.0000000000 0.1836973836 0.0000000000
0.0306162306 0.2143136141 -0.0306162306
0.0612324612 0.2449298447 -0.0612324612
-0.1836973836 -0.0612324612 0.2449298447
-0.1530811530 -0.0306162306 0.2143136141
-0.1224649224 0.0000000000 0.1836973836
-0.0918486918 0.0306162306 0.1530811530
-0.0612324612 0.0612324612 0.1224649224
-0.0306162306 0.0918486918 0.0918486918
0.0000000000 0.1224649224 0.0612324612
0.0306162306 0.1530811530 0.0306162306
0.0612324612 0.1836973836 0.0000000000
0.0918486918 0.2143136141 -0.0306162306
-0.1530811530 -0.0918486918 0.2755460753
-0.1224649224 -0.0612324612 0.2449298447
-0.0918486918 -0.0306162306 0.2143136141
-0.0612324612 0.0000000000 0.1836973836
-0.0306162306 0.0306162306 0.1530811530
0.0000000000 0.0612324612 0.1224649224
0.0306162306 0.0918486918 0.0918486918
0.0612324612 0.1224649224 0.0612324612
0.0918486918 0.1530811530 0.0306162306
0.1224649224 0.1836973836 0.0000000000
-0.1224649224 -0.1224649224 0.3061623059
-0.0918486918 -0.0918486918 0.2755460753
-0.0612324612 -0.0612324612 0.2449298447
-0.0306162306 -0.0306162306 0.2143136141
0.0000000000 0.0000000000 0.1836973836
0.0306162306 0.0306162306 0.1530811530
0.0612324612 0.0612324612 0.1224649224
0.0918486918 0.0918486918 0.0918486918
0.1224649224 0.1224649224 0.0612324612
0.1530811530 0.1530811530 0.0306162306
[...]
 === bvk cell = 734 has 0.000 % of the basis function pairs === 
 === bvk cell = 735 has 0.000 % of the basis function pairs === 
 === bvk cell = 736 has 0.000 % of the basis function pairs === 
 === bvk cell = 737 has 0.000 % of the basis function pairs === 
 === bvk cell = 738 has 0.000 % of the basis function pairs === 
 === bvk cell = 739 has 0.000 % of the basis function pairs === 
 === bvk cell = 740 has 0.000 % of the basis function pairs === 
 === bvk cell = 741 has 0.000 % of the basis function pairs === 
 === bvk cell = 742 has 0.000 % of the basis function pairs === 
 === bvk cell = 743 has 0.000 % of the basis function pairs === 
 === bvk cell = 744 has 0.000 % of the basis function pairs === 
 === bvk cell = 745 has 0.000 % of the basis function pairs === 
 === bvk cell = 746 has 0.000 % of the basis function pairs === 
 === bvk cell = 747 has 0.000 % of the basis function pairs === 
 === bvk cell = 748 has 0.000 % of the basis function pairs === 
 === bvk cell = 749 has 0.000 % of the basis function pairs === 
 === bvk cell = 750 has 0.000 % of the basis function pairs === 
 === bvk cell = 751 has 0.000 % of the basis function pairs === 
 === bvk cell = 752 has 0.000 % of the basis function pairs === 
 === bvk cell = 753 has 0.000 % of the basis function pairs === 
 === bvk cell = 754 has 0.000 % of the basis function pairs === 
 === bvk cell = 755 has 0.000 % of the basis function pairs === 
 === bvk cell = 756 has 0.000 % of the basis function pairs === 
 === bvk cell = 757 has 0.000 % of the basis function pairs === 
 === bvk cell = 758 has 0.000 % of the basis function pairs === 
 === bvk cell = 759 has 0.000 % of the basis function pairs === 
 === bvk cell = 760 has 0.000 % of the basis function pairs === 
 === bvk cell = 761 has 0.000 % of the basis function pairs === 
 === bvk cell = 762 has 0.000 % of the basis function pairs === 
 === bvk cell = 763 has 0.000 % of the basis function pairs === 
 === bvk cell = 764 has 0.000 % of the basis function pairs === 
 === bvk cell = 765 has 0.000 % of the basis function pairs === 
 === bvk cell = 766 has 0.000 % of the basis function pairs === 
 === bvk cell = 767 has 0.000 % of the basis function pairs === 
 === bvk cell = 768 has 0.000 % of the basis function pairs === 
 === bvk cell = 769 has 0.000 % of the basis function pairs === 
 === bvk cell = 770 has 0.000 % of the basis function pairs === 
 === bvk cell = 771 has 0.000 % of the basis function pairs === 
 === bvk cell = 772 has 0.000 % of the basis function pairs === 
 === bvk cell = 773 has 0.000 % of the basis function pairs === 
 === bvk cell = 774 has 0.000 % of the basis function pairs === 
 === bvk cell = 775 has 0.000 % of the basis function pairs === 
 === bvk cell = 776 has 0.000 % of the basis function pairs === 
 === bvk cell = 777 has 0.000 % of the basis function pairs === 
 === bvk cell = 778 has 0.000 % of the basis function pairs === 
 === bvk cell = 779 has 0.000 % of the basis function pairs === 
 === bvk cell = 780 has 0.000 % of the basis function pairs === 
 === bvk cell = 781 has 0.000 % of the basis function pairs === 
 === bvk cell = 782 has 0.000 % of the basis function pairs === 
 === bvk cell = 783 has 0.000 % of the basis function pairs === 
 === bvk cell = 784 has 0.000 % of the basis function pairs === 
 === bvk cell = 785 has 0.000 % of the basis function pairs === 
 === bvk cell = 786 has 0.000 % of the basis function pairs === 
 === bvk cell = 787 has 0.000 % of the basis function pairs === 
 === bvk cell = 788 has 0.000 % of the basis function pairs === 
 === bvk cell = 789 has 0.000 % of the basis function pairs === 
 === bvk cell = 790 has 0.000 % of the basis function pairs === 
 === bvk cell = 791 has 0.000 % of the basis function pairs === 
 === bvk cell = 792 has 0.000 % of the basis function pairs === 
 === bvk cell = 793 has 0.000 % of the basis function pairs === 
 === bvk cell = 794 has 0.000 % of the basis function pairs === 
 === bvk cell = 795 has 0.000 % of the basis function pairs === 
 === bvk cell = 796 has 0.000 % of the basis function pairs === 
 === bvk cell = 797 has 0.000 % of the basis function pairs === 
 === bvk cell = 798 has 0.000 % of the basis function pairs === 
 === bvk cell = 799 has 0.000 % of the basis function pairs === 
 === bvk cell = 800 has 1.941 % of the basis function pairs === 
 === bvk cell = 801 has 2.897 % of the basis function pairs === 
 === bvk cell = 802 has 0.287 % of the basis function pairs === 
 === bvk cell = 803 has 0.000 % of the basis function pairs === 
 === bvk cell = 804 has 0.000 % of the basis function pairs === 
 === bvk cell = 805 has 0.000 % of the basis function pairs === 
 === bvk cell = 806 has 0.000 % of the basis function pairs === 
 === bvk cell = 807 has 0.000 % of the basis function pairs === 
 === bvk cell = 808 has 0.000 % of the basis function pairs === 
 === bvk cell = 809 has 0.109 % of the basis function pairs === 
 === bvk cell = 810 has 2.945 % of the basis function pairs === 
 === bvk cell = 811 has 2.225 % of the basis function pairs === 
 === bvk cell = 812 has 0.044 % of the basis function pairs === 
 === bvk cell = 813 has 0.000 % of the basis function pairs === 
 === bvk cell = 814 has 0.000 % of the basis function pairs === 
 === bvk cell = 815 has 0.000 % of the basis function pairs === 
 === bvk cell = 816 has 0.000 % of the basis function pairs === 
 === bvk cell = 817 has 0.000 % of the basis function pairs === 
 === bvk cell = 818 has 0.000 % of the basis function pairs === 
 === bvk cell = 819 has 0.349 % of the basis function pairs === 
 === bvk cell = 820 has 0.290 % of the basis function pairs === 
 === bvk cell = 821 has 0.044 % of the basis function pairs === 
 === bvk cell = 822 has 0.000 % of the basis function pairs === 
 === bvk cell = 823 has 0.000 % of the basis function pairs === 
 === bvk cell = 824 has 0.000 % of the basis function pairs === 
 === bvk cell = 825 has 0.000 % of the basis function pairs === 
 === bvk cell = 826 has 0.000 % of the basis function pairs === 
 === bvk cell = 827 has 0.000 % of the basis function pairs === 
 === bvk cell = 828 has 0.000 % of the basis function pairs === 
 === bvk cell = 829 has 0.042 % of the basis function pairs === 
 === bvk cell = 830 has 0.000 % of the basis function pairs === 
 === bvk cell = 831 has 0.000 % of the basis function pairs === 
 === bvk cell = 832 has 0.000 % of the basis function pairs === 
 === bvk cell = 833 has 0.000 % of the basis function pairs === 
 === bvk cell = 834 has 0.000 % of the basis function pairs === 
 === bvk cell = 835 has 0.000 % of the basis function pairs === 
 === bvk cell = 836 has 0.000 % of the basis function pairs === 
 === bvk cell = 837 has 0.000 % of the basis function pairs === 
 === bvk cell = 838 has 0.000 % of the basis function pairs === 
 === bvk cell = 839 has 0.000 % of the basis function pairs === 
 === bvk cell = 840 has 0.000 % of the basis function pairs === 
 === bvk cell = 841 has 0.000 % of the basis function pairs === 
 === bvk cell = 842 has 0.000 % of the basis function pairs === 
 === bvk cell = 843 has 0.000 % of the basis function pairs === 
 === bvk cell = 844 has 0.000 % of the basis function pairs === 
 === bvk cell = 845 has 0.000 % of the basis function pairs === 
 === bvk cell = 846 has 0.000 % of the basis function pairs === 
 === bvk cell = 847 has 0.000 % of the basis function pairs === 
 === bvk cell = 848 has 0.000 % of the basis function pairs === 
 === bvk cell = 849 has 0.000 % of the basis function pairs === 
 === bvk cell = 850 has 0.000 % of the basis function pairs === 
 === bvk cell = 851 has 0.000 % of the basis function pairs === 
 === bvk cell = 852 has 0.000 % of the basis function pairs === 
 === bvk cell = 853 has 0.000 % of the basis function pairs === 
 === bvk cell = 854 has 0.000 % of the basis function pairs === 
 === bvk cell = 855 has 0.000 % of the basis function pairs === 
 === bvk cell = 856 has 0.000 % of the basis function pairs === 
 === bvk cell = 857 has 0.000 % of the basis function pairs === 
 === bvk cell = 858 has 0.000 % of the basis function pairs === 
 === bvk cell = 859 has 0.000 % of the basis function pairs === 
 === bvk cell = 860 has 0.000 % of the basis function pairs === 
 === bvk cell = 861 has 0.000 % of the basis function pairs === 
 === bvk cell = 862 has 0.000 % of the basis function pairs === 
 === bvk cell = 863 has 0.000 % of the basis function pairs === 
 === bvk cell = 864 has 0.000 % of the basis function pairs === 
 === bvk cell = 865 has 0.000 % of the basis function pairs === 
 === bvk cell = 866 has 0.000 % of the basis function pairs === 
 === bvk cell = 867 has 0.000 % of the basis function pairs === 
 === bvk cell = 868 has 0.000 % of the basis function pairs === 
 === bvk cell = 869 has 0.000 % of the basis function pairs === 
 === bvk cell = 870 has 0.000 % of the basis function pairs === 
 === bvk cell = 871 has 0.000 % of the basis function pairs === 
 === bvk cell = 872 has 0.000 % of the basis function pairs === 
 === bvk cell = 873 has 0.000 % of the basis function pairs === 
 === bvk cell = 874 has 0.000 % of the basis function pairs === 
 === bvk cell = 875 has 0.000 % of the basis function pairs === 
 === bvk cell = 876 has 0.000 % of the basis function pairs === 
 === bvk cell = 877 has 0.000 % of the basis function pairs === 
 === bvk cell = 878 has 0.000 % of the basis function pairs === 
 === bvk cell = 879 has 0.000 % of the basis function pairs === 
 === bvk cell = 880 has 0.000 % of the basis function pairs === 
 === bvk cell = 881 has 0.000 % of the basis function pairs === 
 === bvk cell = 882 has 0.000 % of the basis function pairs === 
 === bvk cell = 883 has 0.000 % of the basis function pairs === 
 === bvk cell = 884 has 0.000 % of the basis function pairs === 
 === bvk cell = 885 has 0.000 % of the basis function pairs === 
 === bvk cell = 886 has 0.000 % of the basis function pairs === 
 === bvk cell = 887 has 0.000 % of the basis function pairs === 
 === bvk cell = 888 has 0.000 % of the basis function pairs === 
 === bvk cell = 889 has 0.000 % of the basis function pairs === 
 === bvk cell = 890 has 0.109 % of the basis function pairs === 
 === bvk cell = 891 has 0.349 % of the basis function pairs === 
 === bvk cell = 892 has 0.042 % of the basis function pairs === 
 === bvk cell = 893 has 0.000 % of the basis function pairs === 
 === bvk cell = 894 has 0.000 % of the basis function pairs === 
 === bvk cell = 895 has 0.000 % of the basis function pairs === 
 === bvk cell = 896 has 0.000 % of the basis function pairs === 
 === bvk cell = 897 has 0.000 % of the basis function pairs === 
 === bvk cell = 898 has 0.000 % of the basis function pairs === 
 === bvk cell = 899 has 0.000 % of the basis function pairs === 
 === bvk cell = 900 has 41.481 % of the basis function pairs === 
 === bvk cell = 901 has 38.976 % of the basis function pairs === 
 === bvk cell = 902 has 4.355 % of the basis function pairs === 
 === bvk cell = 903 has 0.000 % of the basis function pairs === 
 === bvk cell = 904 has 0.000 % of the basis function pairs === 
 === bvk cell = 905 has 0.000 % of the basis function pairs === 
 === bvk cell = 906 has 0.000 % of the basis function pairs === 
 === bvk cell = 907 has 0.000 % of the basis function pairs === 
 === bvk cell = 908 has 0.109 % of the basis function pairs === 
 === bvk cell = 909 has 8.488 % of the basis function pairs === 
 === bvk cell = 910 has 39.881 % of the basis function pairs === 
 === bvk cell = 911 has 18.217 % of the basis function pairs === 
 === bvk cell = 912 has 0.608 % of the basis function pairs === 
 === bvk cell = 913 has 0.000 % of the basis function pairs === 
 === bvk cell = 914 has 0.000 % of the basis function pairs === 
 === bvk cell = 915 has 0.000 % of the basis function pairs === 
 === bvk cell = 916 has 0.000 % of the basis function pairs === 
 === bvk cell = 917 has 0.000 % of the basis function pairs === 
 === bvk cell = 918 has 0.362 % of the basis function pairs === 
 === bvk cell = 919 has 13.618 % of the basis function pairs === 
 === bvk cell = 920 has 4.508 % of the basis function pairs === 
 === bvk cell = 921 has 0.608 % of the basis function pairs === 
 === bvk cell = 922 has 0.000 % of the basis function pairs === 
 === bvk cell = 923 has 0.000 % of the basis function pairs === 
 === bvk cell = 924 has 0.000 % of the basis function pairs === 
 === bvk cell = 925 has 0.000 % of the basis function pairs === 
 === bvk cell = 926 has 0.000 % of the basis function pairs === 
 === bvk cell = 927 has 0.000 % of the basis function pairs === 
 === bvk cell = 928 has 0.058 % of the basis function pairs === 
 === bvk cell = 929 has 2.664 % of the basis function pairs === 
 === bvk cell = 930 has 0.000 % of the basis function pairs === 
 === bvk cell = 931 has 0.000 % of the basis function pairs === 
 === bvk cell = 932 has 0.000 % of the basis function pairs === 
 === bvk cell = 933 has 0.000 % of the basis function pairs === 
 === bvk cell = 934 has 0.000 % of the basis function pairs === 
 === bvk cell = 935 has 0.000 % of the basis function pairs === 
 === bvk cell = 936 has 0.000 % of the basis function pairs === 
 === bvk cell = 937 has 0.000 % of the basis function pairs === 
 === bvk cell = 938 has 0.000 % of the basis function pairs === 
 === bvk cell = 939 has 0.000 % of the basis function pairs === 
 === bvk cell = 940 has 0.000 % of the basis function pairs === 
 === bvk cell = 941 has 0.000 % of the basis function pairs === 
 === bvk cell = 942 has 0.000 % of the basis function pairs === 
 === bvk cell = 943 has 0.000 % of the basis function pairs === 
 === bvk cell = 944 has 0.000 % of the basis function pairs === 
 === bvk cell = 945 has 0.000 % of the basis function pairs === 
 === bvk cell = 946 has 0.000 % of the basis function pairs === 
 === bvk cell = 947 has 0.000 % of the basis function pairs === 
 === bvk cell = 948 has 0.000 % of the basis function pairs === 
 === bvk cell = 949 has 0.000 % of the basis function pairs === 
 === bvk cell = 950 has 0.000 % of the basis function pairs === 
 === bvk cell = 951 has 0.000 % of the basis function pairs === 
 === bvk cell = 952 has 0.000 % of the basis function pairs === 
 === bvk cell = 953 has 0.000 % of the basis function pairs === 
 === bvk cell = 954 has 0.000 % of the basis function pairs === 
 === bvk cell = 955 has 0.000 % of the basis function pairs === 
 === bvk cell = 956 has 0.000 % of the basis function pairs === 
 === bvk cell = 957 has 0.000 % of the basis function pairs === 
 === bvk cell = 958 has 0.000 % of the basis function pairs === 
 === bvk cell = 959 has 0.000 % of the basis function pairs === 
 === bvk cell = 960 has 0.000 % of the basis function pairs === 
 === bvk cell = 961 has 0.000 % of the basis function pairs === 
 === bvk cell = 962 has 0.000 % of the basis function pairs === 
 === bvk cell = 963 has 0.000 % of the basis function pairs === 
 === bvk cell = 964 has 0.000 % of the basis function pairs === 
 === bvk cell = 965 has 0.000 % of the basis function pairs === 
 === bvk cell = 966 has 0.000 % of the basis function pairs === 
 === bvk cell = 967 has 0.000 % of the basis function pairs === 
 === bvk cell = 968 has 0.000 % of the basis function pairs === 
 === bvk cell = 969 has 0.000 % of the basis function pairs === 
 === bvk cell = 970 has 0.000 % of the basis function pairs === 
 === bvk cell = 971 has 0.000 % of the basis function pairs === 
 === bvk cell = 972 has 0.000 % of the basis function pairs === 
 === bvk cell = 973 has 0.000 % of the basis function pairs === 
 === bvk cell = 974 has 0.000 % of the basis function pairs === 
 === bvk cell = 975 has 0.000 % of the basis function pairs === 
 === bvk cell = 976 has 0.000 % of the basis function pairs === 
 === bvk cell = 977 has 0.000 % of the basis function pairs === 
 === bvk cell = 978 has 0.000 % of the basis function pairs === 
 === bvk cell = 979 has 0.000 % of the basis function pairs === 
 === bvk cell = 980 has 0.109 % of the basis function pairs === 
 === bvk cell = 981 has 0.349 % of the basis function pairs === 
 === bvk cell = 982 has 0.042 % of the basis function pairs === 
 === bvk cell = 983 has 0.000 % of the basis function pairs === 
 === bvk cell = 984 has 0.000 % of the basis function pairs === 
 === bvk cell = 985 has 0.000 % of the basis function pairs === 
 === bvk cell = 986 has 0.000 % of the basis function pairs === 
 === bvk cell = 987 has 0.000 % of the basis function pairs === 
 === bvk cell = 988 has 0.000 % of the basis function pairs === 
 === bvk cell = 989 has 0.000 % of the basis function pairs === 
 === bvk cell = 990 has 8.378 % of the basis function pairs === 
 === bvk cell = 991 has 12.987 % of the basis function pairs === 
 === bvk cell = 992 has 2.278 % of the basis function pairs === 
 === bvk cell = 993 has 0.000 % of the basis function pairs === 
 === bvk cell = 994 has 0.000 % of the basis function pairs === 
 === bvk cell = 995 has 0.000 % of the basis function pairs === 
 === bvk cell = 996 has 0.000 % of the basis function pairs === 
 === bvk cell = 997 has 0.000 % of the basis function pairs === 
 === bvk cell = 998 has 0.000 % of the basis function pairs === 
 === bvk cell = 999 has 0.781 % of the basis function pairs === 
Static memory requirement for 2e3c SR integrals: 19.430 GB
There are 1 munu batches for computing 2e3c SR integrals with latsum
There are 32 Q batches for computing 2e3c SR integrals with latsum
 Time for computing 2e3c SR integral (CC) is 39.02 s
 Time for RI-J this SCF iteration is 51.68 s
 Time for RI-J this SCF iteration is 12.58 s
 ----------------------------------------------
 Guess energy: -4630.3003710190
 ----------------------------------------------
 Guess energy components:
 DFT Correlation    Energy =  -8.76056311906597
 DFT Exchange       Energy = -324.39723468913633
 Kinetic            Energy = 4617.93998924699281
 Nuclear Attraction Energy = -9485.66464710389482
 Nuclear Repulsion  Energy = -823.14927427733528
 Total Coulomb      Energy = 1393.73135892340861
 ----------------------------------------------
  Cycle       Energy        RMS Gradient
 ----------------------------------------------
 Time for RI-J this SCF iteration is 11.90 s
    1   -4630.3026699217      1.96e-02   Descent step
 Energy components after cycle 1:
 DFT Correlation    Energy =  -8.76217538528178
 DFT Exchange       Energy = -324.36881304482256
 Kinetic            Energy = 4617.69889255392718
 Nuclear Attraction Energy = -9485.11567780823498
 Nuclear Repulsion  Energy = -823.14927427733528
 Total Coulomb      Energy = 1393.39437804001773
 Time for RI-J this SCF iteration is 11.92 s
    2   -4630.3046800534      1.72e-02   Descent step
 Energy components after cycle 2:
 DFT Correlation    Energy =  -8.76380045068005
 DFT Exchange       Energy = -324.34106122606403
 Kinetic            Energy = 4617.46718690126363
 Nuclear Attraction Energy = -9484.58037623688870
 Nuclear Repulsion  Energy = -823.14927427733528
 Total Coulomb      Energy = 1393.06264523634400
 Time for RI-J this SCF iteration is 11.87 s
    3   -4630.3064021368      1.49e-02   Descent step
 Energy components after cycle 3:
 DFT Correlation    Energy =  -8.76543858265544
 DFT Exchange       Energy = -324.31407723228108
 Kinetic            Energy = 4617.24623429139683
 Nuclear Attraction Energy = -9484.06087582275723
 Nuclear Repulsion  Energy = -823.14927427733528
 Total Coulomb      Energy = 1392.73702948685673
    3   -4630.3064021368      1.49e-02
 ----------------------------------------------
 Final energy components:
 DFT Correlation    Energy =  -8.76543858265544
 DFT Exchange       Energy = -324.31407723228108
 Kinetic            Energy = 4617.24623429139683
 Nuclear Attraction Energy = -9484.06087582275723
 Nuclear Repulsion  Energy = -823.14927427733528
 Total Coulomb      Energy = 1392.73702948685673
 ----------------------------------------------
