                  Welcome to Q-Chem
           with Periodic Boundary Condition
     A Quantum Leap Into The Future Of Chemistry

 Adam Rettig, Xintian Feng, Meng-Fu Chen, Hieu Dinh, Stephen Quiton,
 Anton Ni, Paul J. Robinson, Jinghong Zhang, Joonho Lee

Contributors to earlier versions of Q-Chem not listed above:
 Evgeny Epifanovsky, Leo Cunha, Jerome F. Gonthier, Kuan-Yu Liu
 Input file: /n/home02/hieudinh/rsdf_test_full_J/benchmark_pyscf/si/qcpbc/si_ccpvtz_444.in
 Scratch folder: /n/netscratch/joonholee_lab/Lab/hieudinh//nhome02hieudinhrsdf_test_full_Jbenchmark_pyscfsiqcpbcsi_ccpvtz_444.scratch20250908040041
 Auxillary files located at: /n/holylabs/LABS/joonholee_lab/Lab/qchem_base/qcaux
 Q-Chem begins on Mon Sep  8 04:00:42 2025

 -------------------------------------------------------------
 User input:
 -------------------------------------------------------------
 $lattice
 3
 0.000000 10.261200 10.261200
 10.261200 0.000000 10.261200
 10.261200 10.261200 0.000000
 $end
 
 $unitcell
 ABSOLUTE
 0 1
 Si 0.000000 0.000000 0.000000
 Si 2.565300 2.565300 2.565300
 Si 5.130600 5.130600 0.000000
 Si 7.695900 7.695900 2.565300
 Si 5.130600 0.000000 5.130600
 Si 7.695900 2.565300 7.695900
 Si 10.261200 5.130600 5.130600
 Si 12.826500 7.695900 7.695900
 Si 0.000000 5.130600 5.130600
 Si 2.565300 7.695900 7.695900
 Si 5.130600 10.261200 5.130600
 Si 7.695900 12.826500 7.695900
 Si 5.130600 5.130600 10.261200
 Si 7.695900 7.695900 12.826500
 Si 10.261200 10.261200 10.261200
 Si 12.826500 12.826500 12.826500
 $end
 $rem
 jobtype = sp
 method = pbe
 scf_convergence = 5
 scf_guess = autosad
 scf_algorithm = diis_gdm
 basis = gen
 aux_basis = gen
 input_bohr = true
 symmetry false
 
 mp_mesh = [4,4,4]
 
 integral_direct true
 bvk_cgto true
 
 thresh 14
 mem_total 1000000
 threads 32
 
 MAX_SCF_CYCLES 500
 madelung = false
 omega 0.4
 do_rij_bigmem true
 automate_g true
 print_level 10
 rsdf_print_level 1
 grid_type_xc 1 
 
 thresh_1e2c_sp 1e-14
 thresh_2e3c_bra_ket_sep 1e-10
 thresh_g 1e-12
 $end
 
 $basis
 Si     0
 S   13   1.00
       2.549000D+05           6.251010D-05
       3.819000D+04           4.855530D-04
       8.690000D+03           2.545160D-03
       2.462000D+03           1.058660D-02
       8.048000D+02           3.687870D-02
       2.913000D+02           1.074790D-01
       1.136000D+02           2.479360D-01
       4.675000D+01           3.909270D-01
       1.982000D+01           3.020260D-01
       7.708000D+00           5.592360D-02
       3.340000D+00          -4.024060D-03
       1.402000D+00           2.580300D-03
       2.070000D-01           6.079300D-04
 S   13   1.00
       2.549000D+05          -1.663700D-05
       3.819000D+04          -1.293100D-04
       8.690000D+03          -6.788280D-04
       2.462000D+03          -2.841170D-03
       8.048000D+02          -1.005510D-02
       2.913000D+02          -3.057740D-02
       1.136000D+02          -7.772560D-02
       4.675000D+01          -1.542360D-01
       1.982000D+01          -1.803680D-01
       7.708000D+00           7.982180D-02
       3.340000D+00           5.474410D-01
       1.402000D+00           4.801190D-01
       2.070000D-01          -1.069960D-02
 S   13   1.00
       2.549000D+05           4.262570D-06
       3.819000D+04           3.310620D-05
       8.690000D+03           1.740150D-04
       2.462000D+03           7.275740D-04
       8.048000D+02           2.583330D-03
       2.913000D+02           7.863540D-03
       1.136000D+02           2.021550D-02
       4.675000D+01           4.073200D-02
       1.982000D+01           4.993580D-02
       7.708000D+00          -2.493960D-02
       3.340000D+00          -1.903500D-01
       1.402000D+00          -3.183500D-01
       2.070000D-01           6.811800D-01
 S   1   1.00
       4.387000D-01           1.000000D+00
 S   1   1.00
       7.944000D-02           1.000000D+00
 P   7   1.00
       4.815000D+02           1.920450D-03
       1.139000D+02           1.535520D-02
       3.623000D+01           7.139910D-02
       1.334000D+01           2.130520D-01
       5.252000D+00           3.903540D-01
       2.120000D+00           3.937210D-01
       2.528000D-01           3.956300D-03
 P   7   1.00
       4.815000D+02          -4.052200D-04
       1.139000D+02          -3.358960D-03
       3.623000D+01          -1.528600D-02
       1.334000D+01          -4.892180D-02
       5.252000D+00          -8.550080D-02
       2.120000D+00          -1.121370D-01
       2.528000D-01           5.519190D-01
 P   1   1.00
       8.561000D-01           1.000000D+00
 P   1   1.00
       7.889000D-02           1.000000D+00
 D   1   1.00
       4.810000D-01           1.000000D+00
 D   1   1.00
       1.590000D-01           1.000000D+00
 F   1   1.00
       3.360000D-01           1.0000000
 ****
 $end
 
 $aux_basis
 Si     0
 S   1   1.00
    3966.7823006              1.0000000
 S   1   1.00
     913.65240130             1.0000000
 S   1   1.00
     309.47572532             1.0000000
 S   1   1.00
     121.48371896             1.0000000
 S   1   1.00
      51.949842541            1.0000000
 S   1   1.00
      22.531415259            1.0000000
 S   1   1.00
       8.6118544488           1.0000000
 S   1   1.00
       4.0353794583           1.0000000
 S   1   1.00
       1.5605354258           1.0000000
 S   1   1.00
       0.82658343937          1.0000000
 S   1   1.00
       0.48403471116          1.0000000
 S   1   1.00
       0.28757870174          1.0000000
 S   1   1.00
       0.13188187610          1.0000000
 P   1   1.00
     629.30680737             1.0000000
 P   1   1.00
     255.71500914             1.0000000
 P   1   1.00
     109.29630664             1.0000000
 P   1   1.00
      45.943769765            1.0000000
 P   1   1.00
      19.784226943            1.0000000
 P   1   1.00
       9.7746090299           1.0000000
 P   1   1.00
       4.6426781657           1.0000000
 P   1   1.00
       2.0449974109           1.0000000
 P   1   1.00
       0.82208144153          1.0000000
 P   1   1.00
       0.40978741460          1.0000000
 P   1   1.00
       0.18451465956          1.0000000
 D   1   1.00
     181.67344614             1.0000000
 D   1   1.00
      59.654414923            1.0000000
 D   1   1.00
      25.353983605            1.0000000
 D   1   1.00
      11.718973530            1.0000000
 D   1   1.00
       5.4455778078           1.0000000
 D   1   1.00
       2.4659440013           1.0000000
 D   1   1.00
       1.0365292729           1.0000000
 D   1   1.00
       0.41097001308          1.0000000
 D   1   1.00
       0.16950067844          1.0000000
 F   1   1.00
       1.9560745621690000000  1.0000000
 F   1   1.00
        .55887844633400000000 1.0000000
 F   1   1.00
        .23687844633400000000 1.0000000
 G   1   1.00
        .41387844633400000000 1.0000000
 ****
 $end
 -------------------------------------------------------------
 Running PBC job

 Requested Exchange Correlation Functionals: 
  DFT Exchange:  1.00000 pbe_x
  DFT Correlation:  1.00000 pbe_c
 using 32 threads for computing.
 ---------------------------------------------------------------
      Coordinates of Atoms in Central Unit Cell (Angstroms)
    I     Atom         X            Y            Z
 ---------------------------------------------------------------
    1      Si      0.000000     0.000000     0.000000
    2      Si      1.357498     1.357498     1.357498
    3      Si      2.714997     2.714997     0.000000
    4      Si      4.072495     4.072495     1.357498
    5      Si      2.714997     0.000000     2.714997
    6      Si      4.072495     1.357498     4.072495
    7      Si      5.429993     2.714997     2.714997
    8      Si      6.787491     4.072495     4.072495
    9      Si      0.000000     2.714997     2.714997
   10      Si      1.357498     4.072495     4.072495
   11      Si      2.714997     5.429993     2.714997
   12      Si      4.072495     6.787491     4.072495
   13      Si      2.714997     2.714997     5.429993
   14      Si      4.072495     4.072495     6.787491
   15      Si      5.429993     5.429993     5.429993
   16      Si      6.787491     6.787491     6.787491
 ---------------------------------------------------------------
 --------------------------------------------------
              Lattice Vectors (Angstroms)
              X            Y            Z
 --------------------------------------------------
   X       0.000000     5.429993     5.429993
   Y       5.429993     0.000000     5.429993
   Z       5.429993     5.429993     0.000000
 --------------------------------------------------
 --------------------------------------------------
       Reciprocal Lattice Vectors (Angstroms^-1)
              X            Y            Z
 --------------------------------------------------
   X      -0.578563     0.578563     0.578563
   Y       0.578563    -0.578563     0.578563
   Z       0.578563     0.578563    -0.578563
 --------------------------------------------------

 Single point calculation requested

 Hamiltonian contributions:
 List of terms in Hamiltonian: kpts_nn, kpts_kinetic, kpts_vnuc_df, kpts_xc, kpts_rij_bigmem

 K-Points calculation started.

 Basis set information about using solid harmonic (1) or Cartesian (0):
  si : D(1) D(1) F(1) 

 Basis set information about using solid harmonic (1) or Cartesian (0):
  si : D(1) D(1) D(1) D(1) D(1) D(1) D(1) D(1) D(1) F(1) F(1) F(1) G(1) 

 There are 544 basis functions in the central unit cell.
 Print atomic basis of atoms in the central unit cell:
 -------------------------------------------------------------
16 432 960 144

  0.00000000000000e+00  0.00000000000000e+00  0.00000000000000e+00
  2.56530000000000e+00  2.56530000000000e+00  2.56530000000000e+00
  5.13060000000000e+00  5.13060000000000e+00  0.00000000000000e+00
  7.69590000000000e+00  7.69590000000000e+00  2.56530000000000e+00
  5.13060000000000e+00  0.00000000000000e+00  5.13060000000000e+00
  7.69590000000000e+00  2.56530000000000e+00  7.69590000000000e+00
  1.02612000000000e+01  5.13060000000000e+00  5.13060000000000e+00
  1.28265000000000e+01  7.69590000000000e+00  7.69590000000000e+00
  0.00000000000000e+00  5.13060000000000e+00  5.13060000000000e+00
  2.56530000000000e+00  7.69590000000000e+00  7.69590000000000e+00
  5.13060000000000e+00  1.02612000000000e+01  5.13060000000000e+00
  7.69590000000000e+00  1.28265000000000e+01  7.69590000000000e+00
  5.13060000000000e+00  5.13060000000000e+00  1.02612000000000e+01
  7.69590000000000e+00  7.69590000000000e+00  1.28265000000000e+01
  1.02612000000000e+01  1.02612000000000e+01  1.02612000000000e+01
  1.28265000000000e+01  1.28265000000000e+01  1.28265000000000e+01

  2.54900000000000e+05
  3.81900000000000e+04
  8.69000000000000e+03
  2.46200000000000e+03
  8.04800000000000e+02
  2.91300000000000e+02
  1.13600000000000e+02
  4.67500000000000e+01
  1.98200000000000e+01
  7.70800000000000e+00
  3.34000000000000e+00
  1.40200000000000e+00
  2.07000000000000e-01
  4.38700000000000e-01
  7.94400000000000e-02
  4.81500000000000e+02
  1.13900000000000e+02
  3.62300000000000e+01
  1.33400000000000e+01
  5.25200000000000e+00
  2.12000000000000e+00
  2.52800000000000e-01
  8.56100000000000e-01
  7.88900000000000e-02
  4.81000000000000e-01
  1.59000000000000e-01
  3.36000000000000e-01
  2.54900000000000e+05
  3.81900000000000e+04
  8.69000000000000e+03
  2.46200000000000e+03
  8.04800000000000e+02
  2.91300000000000e+02
  1.13600000000000e+02
  4.67500000000000e+01
  1.98200000000000e+01
  7.70800000000000e+00
  3.34000000000000e+00
  1.40200000000000e+00
  2.07000000000000e-01
  4.38700000000000e-01
  7.94400000000000e-02
  4.81500000000000e+02
  1.13900000000000e+02
  3.62300000000000e+01
  1.33400000000000e+01
  5.25200000000000e+00
  2.12000000000000e+00
  2.52800000000000e-01
  8.56100000000000e-01
  7.88900000000000e-02
  4.81000000000000e-01
  1.59000000000000e-01
  3.36000000000000e-01
  2.54900000000000e+05
  3.81900000000000e+04
  8.69000000000000e+03
  2.46200000000000e+03
  8.04800000000000e+02
  2.91300000000000e+02
  1.13600000000000e+02
  4.67500000000000e+01
  1.98200000000000e+01
  7.70800000000000e+00
  3.34000000000000e+00
  1.40200000000000e+00
  2.07000000000000e-01
  4.38700000000000e-01
  7.94400000000000e-02
  4.81500000000000e+02
  1.13900000000000e+02
  3.62300000000000e+01
  1.33400000000000e+01
  5.25200000000000e+00
  2.12000000000000e+00
  2.52800000000000e-01
  8.56100000000000e-01
  7.88900000000000e-02
  4.81000000000000e-01
  1.59000000000000e-01
  3.36000000000000e-01
  2.54900000000000e+05
  3.81900000000000e+04
  8.69000000000000e+03
  2.46200000000000e+03
  8.04800000000000e+02
  2.91300000000000e+02
  1.13600000000000e+02
  4.67500000000000e+01
  1.98200000000000e+01
  7.70800000000000e+00
  3.34000000000000e+00
  1.40200000000000e+00
  2.07000000000000e-01
  4.38700000000000e-01
  7.94400000000000e-02
  4.81500000000000e+02
  1.13900000000000e+02
  3.62300000000000e+01
  1.33400000000000e+01
  5.25200000000000e+00
  2.12000000000000e+00
  2.52800000000000e-01
  8.56100000000000e-01
  7.88900000000000e-02
  4.81000000000000e-01
  1.59000000000000e-01
  3.36000000000000e-01
  2.54900000000000e+05
  3.81900000000000e+04
  8.69000000000000e+03
  2.46200000000000e+03
  8.04800000000000e+02
  2.91300000000000e+02
  1.13600000000000e+02
  4.67500000000000e+01
  1.98200000000000e+01
  7.70800000000000e+00
  3.34000000000000e+00
  1.40200000000000e+00
  2.07000000000000e-01
  4.38700000000000e-01
  7.94400000000000e-02
  4.81500000000000e+02
  1.13900000000000e+02
  3.62300000000000e+01
  1.33400000000000e+01
  5.25200000000000e+00
  2.12000000000000e+00
  2.52800000000000e-01
  8.56100000000000e-01
  7.88900000000000e-02
  4.81000000000000e-01
  1.59000000000000e-01
  3.36000000000000e-01
  2.54900000000000e+05
  3.81900000000000e+04
  8.69000000000000e+03
  2.46200000000000e+03
  8.04800000000000e+02
  2.91300000000000e+02
  1.13600000000000e+02
  4.67500000000000e+01
  1.98200000000000e+01
  7.70800000000000e+00
  3.34000000000000e+00
  1.40200000000000e+00
  2.07000000000000e-01
  4.38700000000000e-01
  7.94400000000000e-02
  4.81500000000000e+02
  1.13900000000000e+02
  3.62300000000000e+01
  1.33400000000000e+01
  5.25200000000000e+00
  2.12000000000000e+00
  2.52800000000000e-01
  8.56100000000000e-01
  7.88900000000000e-02
  4.81000000000000e-01
  1.59000000000000e-01
  3.36000000000000e-01
  2.54900000000000e+05
  3.81900000000000e+04
  8.69000000000000e+03
  2.46200000000000e+03
  8.04800000000000e+02
  2.91300000000000e+02
  1.13600000000000e+02
  4.67500000000000e+01
  1.98200000000000e+01
  7.70800000000000e+00
  3.34000000000000e+00
  1.40200000000000e+00
  2.07000000000000e-01
  4.38700000000000e-01
  7.94400000000000e-02
  4.81500000000000e+02
  1.13900000000000e+02
  3.62300000000000e+01
  1.33400000000000e+01
  5.25200000000000e+00
  2.12000000000000e+00
  2.52800000000000e-01
  8.56100000000000e-01
  7.88900000000000e-02
  4.81000000000000e-01
  1.59000000000000e-01
  3.36000000000000e-01
  2.54900000000000e+05
  3.81900000000000e+04
  8.69000000000000e+03
  2.46200000000000e+03
  8.04800000000000e+02
  2.91300000000000e+02
  1.13600000000000e+02
  4.67500000000000e+01
  1.98200000000000e+01
  7.70800000000000e+00
  3.34000000000000e+00
  1.40200000000000e+00
  2.07000000000000e-01
  4.38700000000000e-01
  7.94400000000000e-02
  4.81500000000000e+02
  1.13900000000000e+02
  3.62300000000000e+01
  1.33400000000000e+01
  5.25200000000000e+00
  2.12000000000000e+00
  2.52800000000000e-01
  8.56100000000000e-01
  7.88900000000000e-02
  4.81000000000000e-01
  1.59000000000000e-01
  3.36000000000000e-01
  2.54900000000000e+05
  3.81900000000000e+04
  8.69000000000000e+03
  2.46200000000000e+03
  8.04800000000000e+02
  2.91300000000000e+02
  1.13600000000000e+02
  4.67500000000000e+01
  1.98200000000000e+01
  7.70800000000000e+00
  3.34000000000000e+00
  1.40200000000000e+00
  2.07000000000000e-01
  4.38700000000000e-01
  7.94400000000000e-02
  4.81500000000000e+02
  1.13900000000000e+02
  3.62300000000000e+01
  1.33400000000000e+01
  5.25200000000000e+00
  2.12000000000000e+00
  2.52800000000000e-01
  8.56100000000000e-01
  7.88900000000000e-02
  4.81000000000000e-01
  1.59000000000000e-01
  3.36000000000000e-01
  2.54900000000000e+05
  3.81900000000000e+04
  8.69000000000000e+03
  2.46200000000000e+03
  8.04800000000000e+02
  2.91300000000000e+02
  1.13600000000000e+02
  4.67500000000000e+01
  1.98200000000000e+01
  7.70800000000000e+00
  3.34000000000000e+00
  1.40200000000000e+00
  2.07000000000000e-01
  4.38700000000000e-01
  7.94400000000000e-02
  4.81500000000000e+02
  1.13900000000000e+02
  3.62300000000000e+01
  1.33400000000000e+01
  5.25200000000000e+00
  2.12000000000000e+00
  2.52800000000000e-01
  8.56100000000000e-01
  7.88900000000000e-02
  4.81000000000000e-01
  1.59000000000000e-01
  3.36000000000000e-01
  2.54900000000000e+05
  3.81900000000000e+04
  8.69000000000000e+03
  2.46200000000000e+03
  8.04800000000000e+02
  2.91300000000000e+02
  1.13600000000000e+02
  4.67500000000000e+01
  1.98200000000000e+01
  7.70800000000000e+00
  3.34000000000000e+00
  1.40200000000000e+00
  2.07000000000000e-01
  4.38700000000000e-01
  7.94400000000000e-02
  4.81500000000000e+02
  1.13900000000000e+02
  3.62300000000000e+01
  1.33400000000000e+01
  5.25200000000000e+00
  2.12000000000000e+00
  2.52800000000000e-01
  8.56100000000000e-01
  7.88900000000000e-02
  4.81000000000000e-01
  1.59000000000000e-01
  3.36000000000000e-01
  2.54900000000000e+05
  3.81900000000000e+04
  8.69000000000000e+03
  2.46200000000000e+03
  8.04800000000000e+02
  2.91300000000000e+02
  1.13600000000000e+02
  4.67500000000000e+01
  1.98200000000000e+01
  7.70800000000000e+00
  3.34000000000000e+00
  1.40200000000000e+00
  2.07000000000000e-01
  4.38700000000000e-01
  7.94400000000000e-02
  4.81500000000000e+02
  1.13900000000000e+02
  3.62300000000000e+01
  1.33400000000000e+01
  5.25200000000000e+00
  2.12000000000000e+00
  2.52800000000000e-01
  8.56100000000000e-01
  7.88900000000000e-02
  4.81000000000000e-01
  1.59000000000000e-01
  3.36000000000000e-01
  2.54900000000000e+05
  3.81900000000000e+04
  8.69000000000000e+03
  2.46200000000000e+03
  8.04800000000000e+02
  2.91300000000000e+02
  1.13600000000000e+02
  4.67500000000000e+01
  1.98200000000000e+01
  7.70800000000000e+00
  3.34000000000000e+00
  1.40200000000000e+00
  2.07000000000000e-01
  4.38700000000000e-01
  7.94400000000000e-02
  4.81500000000000e+02
  1.13900000000000e+02
  3.62300000000000e+01
  1.33400000000000e+01
  5.25200000000000e+00
  2.12000000000000e+00
  2.52800000000000e-01
  8.56100000000000e-01
  7.88900000000000e-02
  4.81000000000000e-01
  1.59000000000000e-01
  3.36000000000000e-01
  2.54900000000000e+05
  3.81900000000000e+04
  8.69000000000000e+03
  2.46200000000000e+03
  8.04800000000000e+02
  2.91300000000000e+02
  1.13600000000000e+02
  4.67500000000000e+01
  1.98200000000000e+01
  7.70800000000000e+00
  3.34000000000000e+00
  1.40200000000000e+00
  2.07000000000000e-01
  4.38700000000000e-01
  7.94400000000000e-02
  4.81500000000000e+02
  1.13900000000000e+02
  3.62300000000000e+01
  1.33400000000000e+01
  5.25200000000000e+00
  2.12000000000000e+00
  2.52800000000000e-01
  8.56100000000000e-01
  7.88900000000000e-02
  4.81000000000000e-01
  1.59000000000000e-01
  3.36000000000000e-01
  2.54900000000000e+05
  3.81900000000000e+04
  8.69000000000000e+03
  2.46200000000000e+03
  8.04800000000000e+02
  2.91300000000000e+02
  1.13600000000000e+02
  4.67500000000000e+01
  1.98200000000000e+01
  7.70800000000000e+00
  3.34000000000000e+00
  1.40200000000000e+00
  2.07000000000000e-01
  4.38700000000000e-01
  7.94400000000000e-02
  4.81500000000000e+02
  1.13900000000000e+02
  3.62300000000000e+01
  1.33400000000000e+01
  5.25200000000000e+00
  2.12000000000000e+00
  2.52800000000000e-01
  8.56100000000000e-01
  7.88900000000000e-02
  4.81000000000000e-01
  1.59000000000000e-01
  3.36000000000000e-01
  2.54900000000000e+05
  3.81900000000000e+04
  8.69000000000000e+03
  2.46200000000000e+03
  8.04800000000000e+02
  2.91300000000000e+02
  1.13600000000000e+02
  4.67500000000000e+01
  1.98200000000000e+01
  7.70800000000000e+00
  3.34000000000000e+00
  1.40200000000000e+00
  2.07000000000000e-01
  4.38700000000000e-01
  7.94400000000000e-02
  4.81500000000000e+02
  1.13900000000000e+02
  3.62300000000000e+01
  1.33400000000000e+01
  5.25200000000000e+00
  2.12000000000000e+00
  2.52800000000000e-01
  8.56100000000000e-01
  7.88900000000000e-02
  4.81000000000000e-01
  1.59000000000000e-01
  3.36000000000000e-01

  5.05342882924414e-01
  9.45273469411120e-01
  1.63244480027292e+00
  2.63682388500924e+00
  3.97100251949347e+00
  5.40054468526540e+00
  6.14797258543505e+00
  4.98070088997371e+00
  2.02176489746253e+00
  1.84357149094381e-01
 -7.08488623570591e-03
  2.36913493026560e-03
  1.32950482512095e-04
 -1.38957418994420e-01
 -2.60090027852347e-01
 -4.49835706775664e-01
 -7.31126629696563e-01
 -1.11861777375438e+00
 -1.58739593447389e+00
 -1.99125636701477e+00
 -2.03025837503363e+00
 -1.24743111609232e+00
  2.71867405206707e-01
  9.95810075477156e-01
  4.55448471363036e-01
 -2.41754544584911e-03
  5.58641690839409e-02
  1.04485498965527e-01
  1.80940572893667e-01
  2.93783669027015e-01
  4.50951988226580e-01
  6.40557184508875e-01
  8.12648389129307e-01
  8.41310655339178e-01
  5.41906290515089e-01
 -1.33284671521752e-01
 -5.43309343865180e-01
 -4.73860280618372e-01
  2.41503867585103e-01
  3.84180942836044e-01
  1.06644759418552e-01
  6.70133452164188e+00
  8.83940558806038e+00
  9.81840820158908e+00
  8.40317351789580e+00
  4.80150582160193e+00
  1.55819330730478e+00
  1.09716888313239e-03
 -2.35644848731218e+00
 -3.22241300088705e+00
 -3.50308751124858e+00
 -3.21565115351729e+00
 -1.75266045923181e+00
 -7.39589051144409e-01
  2.55075294015732e-01
  1.17380433533106e+00
  5.95960578383022e-02
  4.57260134599596e-01
  6.58952976069849e-02
  1.26537084505476e-01
  5.05342882924414e-01
  9.45273469411120e-01
  1.63244480027292e+00
  2.63682388500924e+00
  3.97100251949347e+00
  5.40054468526540e+00
  6.14797258543505e+00
  4.98070088997371e+00
  2.02176489746253e+00
  1.84357149094381e-01
 -7.08488623570591e-03
  2.36913493026560e-03
  1.32950482512095e-04
 -1.38957418994420e-01
 -2.60090027852347e-01
 -4.49835706775664e-01
 -7.31126629696563e-01
 -1.11861777375438e+00
 -1.58739593447389e+00
 -1.99125636701477e+00
 -2.03025837503363e+00
 -1.24743111609232e+00
  2.71867405206707e-01
  9.95810075477156e-01
  4.55448471363036e-01
 -2.41754544584911e-03
  5.58641690839409e-02
  1.04485498965527e-01
  1.80940572893667e-01
  2.93783669027015e-01
  4.50951988226580e-01
  6.40557184508875e-01
  8.12648389129307e-01
  8.41310655339178e-01
  5.41906290515089e-01
 -1.33284671521752e-01
 -5.43309343865180e-01
 -4.73860280618372e-01
  2.41503867585103e-01
  3.84180942836044e-01
  1.06644759418552e-01
  6.70133452164188e+00
  8.83940558806038e+00
  9.81840820158908e+00
  8.40317351789580e+00
  4.80150582160193e+00
  1.55819330730478e+00
  1.09716888313239e-03
 -2.35644848731218e+00
 -3.22241300088705e+00
 -3.50308751124858e+00
 -3.21565115351729e+00
 -1.75266045923181e+00
 -7.39589051144409e-01
  2.55075294015732e-01
  1.17380433533106e+00
  5.95960578383022e-02
  4.57260134599596e-01
  6.58952976069849e-02
  1.26537084505476e-01
  5.05342882924414e-01
  9.45273469411120e-01
  1.63244480027292e+00
  2.63682388500924e+00
  3.97100251949347e+00
  5.40054468526540e+00
  6.14797258543505e+00
  4.98070088997371e+00
  2.02176489746253e+00
  1.84357149094381e-01
 -7.08488623570591e-03
  2.36913493026560e-03
  1.32950482512095e-04
 -1.38957418994420e-01
 -2.60090027852347e-01
 -4.49835706775664e-01
 -7.31126629696563e-01
 -1.11861777375438e+00
 -1.58739593447389e+00
 -1.99125636701477e+00
 -2.03025837503363e+00
 -1.24743111609232e+00
  2.71867405206707e-01
  9.95810075477156e-01
  4.55448471363036e-01
 -2.41754544584911e-03
  5.58641690839409e-02
  1.04485498965527e-01
  1.80940572893667e-01
  2.93783669027015e-01
  4.50951988226580e-01
  6.40557184508875e-01
  8.12648389129307e-01
  8.41310655339178e-01
  5.41906290515089e-01
 -1.33284671521752e-01
 -5.43309343865180e-01
 -4.73860280618372e-01
  2.41503867585103e-01
  3.84180942836044e-01
  1.06644759418552e-01
  6.70133452164188e+00
  8.83940558806038e+00
  9.81840820158908e+00
  8.40317351789580e+00
  4.80150582160193e+00
  1.55819330730478e+00
  1.09716888313239e-03
 -2.35644848731218e+00
 -3.22241300088705e+00
 -3.50308751124858e+00
 -3.21565115351729e+00
 -1.75266045923181e+00
 -7.39589051144409e-01
  2.55075294015732e-01
  1.17380433533106e+00
  5.95960578383022e-02
  4.57260134599596e-01
  6.58952976069849e-02
  1.26537084505476e-01
  5.05342882924414e-01
  9.45273469411120e-01
  1.63244480027292e+00
  2.63682388500924e+00
  3.97100251949347e+00
  5.40054468526540e+00
  6.14797258543505e+00
  4.98070088997371e+00
  2.02176489746253e+00
  1.84357149094381e-01
 -7.08488623570591e-03
  2.36913493026560e-03
  1.32950482512095e-04
 -1.38957418994420e-01
 -2.60090027852347e-01
 -4.49835706775664e-01
 -7.31126629696563e-01
 -1.11861777375438e+00
 -1.58739593447389e+00
 -1.99125636701477e+00
 -2.03025837503363e+00
 -1.24743111609232e+00
  2.71867405206707e-01
  9.95810075477156e-01
  4.55448471363036e-01
 -2.41754544584911e-03
  5.58641690839409e-02
  1.04485498965527e-01
  1.80940572893667e-01
  2.93783669027015e-01
  4.50951988226580e-01
  6.40557184508875e-01
  8.12648389129307e-01
  8.41310655339178e-01
  5.41906290515089e-01
 -1.33284671521752e-01
 -5.43309343865180e-01
 -4.73860280618372e-01
  2.41503867585103e-01
  3.84180942836044e-01
  1.06644759418552e-01
  6.70133452164188e+00
  8.83940558806038e+00
  9.81840820158908e+00
  8.40317351789580e+00
  4.80150582160193e+00
  1.55819330730478e+00
  1.09716888313239e-03
 -2.35644848731218e+00
 -3.22241300088705e+00
 -3.50308751124858e+00
 -3.21565115351729e+00
 -1.75266045923181e+00
 -7.39589051144409e-01
  2.55075294015732e-01
  1.17380433533106e+00
  5.95960578383022e-02
  4.57260134599596e-01
  6.58952976069849e-02
  1.26537084505476e-01
  5.05342882924414e-01
  9.45273469411120e-01
  1.63244480027292e+00
  2.63682388500924e+00
  3.97100251949347e+00
  5.40054468526540e+00
  6.14797258543505e+00
  4.98070088997371e+00
  2.02176489746253e+00
  1.84357149094381e-01
 -7.08488623570591e-03
  2.36913493026560e-03
  1.32950482512095e-04
 -1.38957418994420e-01
 -2.60090027852347e-01
 -4.49835706775664e-01
 -7.31126629696563e-01
 -1.11861777375438e+00
 -1.58739593447389e+00
 -1.99125636701477e+00
 -2.03025837503363e+00
 -1.24743111609232e+00
  2.71867405206707e-01
  9.95810075477156e-01
  4.55448471363036e-01
 -2.41754544584911e-03
  5.58641690839409e-02
  1.04485498965527e-01
  1.80940572893667e-01
  2.93783669027015e-01
  4.50951988226580e-01
  6.40557184508875e-01
  8.12648389129307e-01
  8.41310655339178e-01
  5.41906290515089e-01
 -1.33284671521752e-01
 -5.43309343865180e-01
 -4.73860280618372e-01
  2.41503867585103e-01
  3.84180942836044e-01
  1.06644759418552e-01
  6.70133452164188e+00
  8.83940558806038e+00
  9.81840820158908e+00
  8.40317351789580e+00
  4.80150582160193e+00
  1.55819330730478e+00
  1.09716888313239e-03
 -2.35644848731218e+00
 -3.22241300088705e+00
 -3.50308751124858e+00
 -3.21565115351729e+00
 -1.75266045923181e+00
 -7.39589051144409e-01
  2.55075294015732e-01
  1.17380433533106e+00
  5.95960578383022e-02
  4.57260134599596e-01
  6.58952976069849e-02
  1.26537084505476e-01
  5.05342882924414e-01
  9.45273469411120e-01
  1.63244480027292e+00
  2.63682388500924e+00
  3.97100251949347e+00
  5.40054468526540e+00
  6.14797258543505e+00
  4.98070088997371e+00
  2.02176489746253e+00
  1.84357149094381e-01
 -7.08488623570591e-03
  2.36913493026560e-03
  1.32950482512095e-04
 -1.38957418994420e-01
 -2.60090027852347e-01
 -4.49835706775664e-01
 -7.31126629696563e-01
 -1.11861777375438e+00
 -1.58739593447389e+00
 -1.99125636701477e+00
 -2.03025837503363e+00
 -1.24743111609232e+00
  2.71867405206707e-01
  9.95810075477156e-01
  4.55448471363036e-01
 -2.41754544584911e-03
  5.58641690839409e-02
  1.04485498965527e-01
  1.80940572893667e-01
  2.93783669027015e-01
  4.50951988226580e-01
  6.40557184508875e-01
  8.12648389129307e-01
  8.41310655339178e-01
  5.41906290515089e-01
 -1.33284671521752e-01
 -5.43309343865180e-01
 -4.73860280618372e-01
  2.41503867585103e-01
  3.84180942836044e-01
  1.06644759418552e-01
  6.70133452164188e+00
  8.83940558806038e+00
  9.81840820158908e+00
  8.40317351789580e+00
  4.80150582160193e+00
  1.55819330730478e+00
  1.09716888313239e-03
 -2.35644848731218e+00
 -3.22241300088705e+00
 -3.50308751124858e+00
 -3.21565115351729e+00
 -1.75266045923181e+00
 -7.39589051144409e-01
  2.55075294015732e-01
  1.17380433533106e+00
  5.95960578383022e-02
  4.57260134599596e-01
  6.58952976069849e-02
  1.26537084505476e-01
  5.05342882924414e-01
  9.45273469411120e-01
  1.63244480027292e+00
  2.63682388500924e+00
  3.97100251949347e+00
  5.40054468526540e+00
  6.14797258543505e+00
  4.98070088997371e+00
  2.02176489746253e+00
  1.84357149094381e-01
 -7.08488623570591e-03
  2.36913493026560e-03
  1.32950482512095e-04
 -1.38957418994420e-01
 -2.60090027852347e-01
 -4.49835706775664e-01
 -7.31126629696563e-01
 -1.11861777375438e+00
 -1.58739593447389e+00
 -1.99125636701477e+00
 -2.03025837503363e+00
 -1.24743111609232e+00
  2.71867405206707e-01
  9.95810075477156e-01
  4.55448471363036e-01
 -2.41754544584911e-03
  5.58641690839409e-02
  1.04485498965527e-01
  1.80940572893667e-01
  2.93783669027015e-01
  4.50951988226580e-01
  6.40557184508875e-01
  8.12648389129307e-01
  8.41310655339178e-01
  5.41906290515089e-01
 -1.33284671521752e-01
 -5.43309343865180e-01
 -4.73860280618372e-01
  2.41503867585103e-01
  3.84180942836044e-01
  1.06644759418552e-01
  6.70133452164188e+00
  8.83940558806038e+00
  9.81840820158908e+00
  8.40317351789580e+00
  4.80150582160193e+00
  1.55819330730478e+00
  1.09716888313239e-03
 -2.35644848731218e+00
 -3.22241300088705e+00
 -3.50308751124858e+00
 -3.21565115351729e+00
 -1.75266045923181e+00
 -7.39589051144409e-01
  2.55075294015732e-01
  1.17380433533106e+00
  5.95960578383022e-02
  4.57260134599596e-01
  6.58952976069849e-02
  1.26537084505476e-01
  5.05342882924414e-01
  9.45273469411120e-01
  1.63244480027292e+00
  2.63682388500924e+00
  3.97100251949347e+00
  5.40054468526540e+00
  6.14797258543505e+00
  4.98070088997371e+00
  2.02176489746253e+00
  1.84357149094381e-01
 -7.08488623570591e-03
  2.36913493026560e-03
  1.32950482512095e-04
 -1.38957418994420e-01
 -2.60090027852347e-01
 -4.49835706775664e-01
 -7.31126629696563e-01
 -1.11861777375438e+00
 -1.58739593447389e+00
 -1.99125636701477e+00
 -2.03025837503363e+00
 -1.24743111609232e+00
  2.71867405206707e-01
  9.95810075477156e-01
  4.55448471363036e-01
 -2.41754544584911e-03
  5.58641690839409e-02
  1.04485498965527e-01
  1.80940572893667e-01
  2.93783669027015e-01
  4.50951988226580e-01
  6.40557184508875e-01
  8.12648389129307e-01
  8.41310655339178e-01
  5.41906290515089e-01
 -1.33284671521752e-01
 -5.43309343865180e-01
 -4.73860280618372e-01
  2.41503867585103e-01
  3.84180942836044e-01
  1.06644759418552e-01
  6.70133452164188e+00
  8.83940558806038e+00
  9.81840820158908e+00
  8.40317351789580e+00
  4.80150582160193e+00
  1.55819330730478e+00
  1.09716888313239e-03
 -2.35644848731218e+00
 -3.22241300088705e+00
 -3.50308751124858e+00
 -3.21565115351729e+00
 -1.75266045923181e+00
 -7.39589051144409e-01
  2.55075294015732e-01
  1.17380433533106e+00
  5.95960578383022e-02
  4.57260134599596e-01
  6.58952976069849e-02
  1.26537084505476e-01
  5.05342882924414e-01
  9.45273469411120e-01
  1.63244480027292e+00
  2.63682388500924e+00
  3.97100251949347e+00
  5.40054468526540e+00
  6.14797258543505e+00
  4.98070088997371e+00
  2.02176489746253e+00
  1.84357149094381e-01
 -7.08488623570591e-03
  2.36913493026560e-03
  1.32950482512095e-04
 -1.38957418994420e-01
 -2.60090027852347e-01
 -4.49835706775664e-01
 -7.31126629696563e-01
 -1.11861777375438e+00
 -1.58739593447389e+00
 -1.99125636701477e+00
 -2.03025837503363e+00
 -1.24743111609232e+00
  2.71867405206707e-01
  9.95810075477156e-01
  4.55448471363036e-01
 -2.41754544584911e-03
  5.58641690839409e-02
  1.04485498965527e-01
  1.80940572893667e-01
  2.93783669027015e-01
  4.50951988226580e-01
  6.40557184508875e-01
  8.12648389129307e-01
  8.41310655339178e-01
  5.41906290515089e-01
 -1.33284671521752e-01
 -5.43309343865180e-01
 -4.73860280618372e-01
  2.41503867585103e-01
  3.84180942836044e-01
  1.06644759418552e-01
  6.70133452164188e+00
  8.83940558806038e+00
  9.81840820158908e+00
  8.40317351789580e+00
  4.80150582160193e+00
  1.55819330730478e+00
  1.09716888313239e-03
 -2.35644848731218e+00
 -3.22241300088705e+00
 -3.50308751124858e+00
 -3.21565115351729e+00
 -1.75266045923181e+00
 -7.39589051144409e-01
  2.55075294015732e-01
  1.17380433533106e+00
  5.95960578383022e-02
  4.57260134599596e-01
  6.58952976069849e-02
  1.26537084505476e-01
  5.05342882924414e-01
  9.45273469411120e-01
  1.63244480027292e+00
  2.63682388500924e+00
  3.97100251949347e+00
  5.40054468526540e+00
  6.14797258543505e+00
  4.98070088997371e+00
  2.02176489746253e+00
  1.84357149094381e-01
 -7.08488623570591e-03
  2.36913493026560e-03
  1.32950482512095e-04
 -1.38957418994420e-01
 -2.60090027852347e-01
 -4.49835706775664e-01
 -7.31126629696563e-01
 -1.11861777375438e+00
 -1.58739593447389e+00
 -1.99125636701477e+00
 -2.03025837503363e+00
 -1.24743111609232e+00
  2.71867405206707e-01
  9.95810075477156e-01
  4.55448471363036e-01
 -2.41754544584911e-03
  5.58641690839409e-02
  1.04485498965527e-01
  1.80940572893667e-01
  2.93783669027015e-01
  4.50951988226580e-01
  6.40557184508875e-01
  8.12648389129307e-01
  8.41310655339178e-01
  5.41906290515089e-01
 -1.33284671521752e-01
 -5.43309343865180e-01
 -4.73860280618372e-01
  2.41503867585103e-01
  3.84180942836044e-01
  1.06644759418552e-01
  6.70133452164188e+00
  8.83940558806038e+00
  9.81840820158908e+00
  8.40317351789580e+00
  4.80150582160193e+00
  1.55819330730478e+00
  1.09716888313239e-03
 -2.35644848731218e+00
 -3.22241300088705e+00
 -3.50308751124858e+00
 -3.21565115351729e+00
 -1.75266045923181e+00
 -7.39589051144409e-01
  2.55075294015732e-01
  1.17380433533106e+00
  5.95960578383022e-02
  4.57260134599596e-01
  6.58952976069849e-02
  1.26537084505476e-01
  5.05342882924414e-01
  9.45273469411120e-01
  1.63244480027292e+00
  2.63682388500924e+00
  3.97100251949347e+00
  5.40054468526540e+00
  6.14797258543505e+00
  4.98070088997371e+00
  2.02176489746253e+00
  1.84357149094381e-01
 -7.08488623570591e-03
  2.36913493026560e-03
  1.32950482512095e-04
 -1.38957418994420e-01
 -2.60090027852347e-01
 -4.49835706775664e-01
 -7.31126629696563e-01
 -1.11861777375438e+00
 -1.58739593447389e+00
 -1.99125636701477e+00
 -2.03025837503363e+00
 -1.24743111609232e+00
  2.71867405206707e-01
  9.95810075477156e-01
  4.55448471363036e-01
 -2.41754544584911e-03
  5.58641690839409e-02
  1.04485498965527e-01
  1.80940572893667e-01
  2.93783669027015e-01
  4.50951988226580e-01
  6.40557184508875e-01
  8.12648389129307e-01
  8.41310655339178e-01
  5.41906290515089e-01
 -1.33284671521752e-01
 -5.43309343865180e-01
 -4.73860280618372e-01
  2.41503867585103e-01
  3.84180942836044e-01
  1.06644759418552e-01
  6.70133452164188e+00
  8.83940558806038e+00
  9.81840820158908e+00
  8.40317351789580e+00
  4.80150582160193e+00
  1.55819330730478e+00
  1.09716888313239e-03
 -2.35644848731218e+00
 -3.22241300088705e+00
 -3.50308751124858e+00
 -3.21565115351729e+00
 -1.75266045923181e+00
 -7.39589051144409e-01
  2.55075294015732e-01
  1.17380433533106e+00
  5.95960578383022e-02
  4.57260134599596e-01
  6.58952976069849e-02
  1.26537084505476e-01
  5.05342882924414e-01
  9.45273469411120e-01
  1.63244480027292e+00
  2.63682388500924e+00
  3.97100251949347e+00
  5.40054468526540e+00
  6.14797258543505e+00
  4.98070088997371e+00
  2.02176489746253e+00
  1.84357149094381e-01
 -7.08488623570591e-03
  2.36913493026560e-03
  1.32950482512095e-04
 -1.38957418994420e-01
 -2.60090027852347e-01
 -4.49835706775664e-01
 -7.31126629696563e-01
 -1.11861777375438e+00
 -1.58739593447389e+00
 -1.99125636701477e+00
 -2.03025837503363e+00
 -1.24743111609232e+00
  2.71867405206707e-01
  9.95810075477156e-01
  4.55448471363036e-01
 -2.41754544584911e-03
  5.58641690839409e-02
  1.04485498965527e-01
  1.80940572893667e-01
  2.93783669027015e-01
  4.50951988226580e-01
  6.40557184508875e-01
  8.12648389129307e-01
  8.41310655339178e-01
  5.41906290515089e-01
 -1.33284671521752e-01
 -5.43309343865180e-01
 -4.73860280618372e-01
  2.41503867585103e-01
  3.84180942836044e-01
  1.06644759418552e-01
  6.70133452164188e+00
  8.83940558806038e+00
  9.81840820158908e+00
  8.40317351789580e+00
  4.80150582160193e+00
  1.55819330730478e+00
  1.09716888313239e-03
 -2.35644848731218e+00
 -3.22241300088705e+00
 -3.50308751124858e+00
 -3.21565115351729e+00
 -1.75266045923181e+00
 -7.39589051144409e-01
  2.55075294015732e-01
  1.17380433533106e+00
  5.95960578383022e-02
  4.57260134599596e-01
  6.58952976069849e-02
  1.26537084505476e-01
  5.05342882924414e-01
  9.45273469411120e-01
  1.63244480027292e+00
  2.63682388500924e+00
  3.97100251949347e+00
  5.40054468526540e+00
  6.14797258543505e+00
  4.98070088997371e+00
  2.02176489746253e+00
  1.84357149094381e-01
 -7.08488623570591e-03
  2.36913493026560e-03
  1.32950482512095e-04
 -1.38957418994420e-01
 -2.60090027852347e-01
 -4.49835706775664e-01
 -7.31126629696563e-01
 -1.11861777375438e+00
 -1.58739593447389e+00
 -1.99125636701477e+00
 -2.03025837503363e+00
 -1.24743111609232e+00
  2.71867405206707e-01
  9.95810075477156e-01
  4.55448471363036e-01
 -2.41754544584911e-03
  5.58641690839409e-02
  1.04485498965527e-01
  1.80940572893667e-01
  2.93783669027015e-01
  4.50951988226580e-01
  6.40557184508875e-01
  8.12648389129307e-01
  8.41310655339178e-01
  5.41906290515089e-01
 -1.33284671521752e-01
 -5.43309343865180e-01
 -4.73860280618372e-01
  2.41503867585103e-01
  3.84180942836044e-01
  1.06644759418552e-01
  6.70133452164188e+00
  8.83940558806038e+00
  9.81840820158908e+00
  8.40317351789580e+00
  4.80150582160193e+00
  1.55819330730478e+00
  1.09716888313239e-03
 -2.35644848731218e+00
 -3.22241300088705e+00
 -3.50308751124858e+00
 -3.21565115351729e+00
 -1.75266045923181e+00
 -7.39589051144409e-01
  2.55075294015732e-01
  1.17380433533106e+00
  5.95960578383022e-02
  4.57260134599596e-01
  6.58952976069849e-02
  1.26537084505476e-01
  5.05342882924414e-01
  9.45273469411120e-01
  1.63244480027292e+00
  2.63682388500924e+00
  3.97100251949347e+00
  5.40054468526540e+00
  6.14797258543505e+00
  4.98070088997371e+00
  2.02176489746253e+00
  1.84357149094381e-01
 -7.08488623570591e-03
  2.36913493026560e-03
  1.32950482512095e-04
 -1.38957418994420e-01
 -2.60090027852347e-01
 -4.49835706775664e-01
 -7.31126629696563e-01
 -1.11861777375438e+00
 -1.58739593447389e+00
 -1.99125636701477e+00
 -2.03025837503363e+00
 -1.24743111609232e+00
  2.71867405206707e-01
  9.95810075477156e-01
  4.55448471363036e-01
 -2.41754544584911e-03
  5.58641690839409e-02
  1.04485498965527e-01
  1.80940572893667e-01
  2.93783669027015e-01
  4.50951988226580e-01
  6.40557184508875e-01
  8.12648389129307e-01
  8.41310655339178e-01
  5.41906290515089e-01
 -1.33284671521752e-01
 -5.43309343865180e-01
 -4.73860280618372e-01
  2.41503867585103e-01
  3.84180942836044e-01
  1.06644759418552e-01
  6.70133452164188e+00
  8.83940558806038e+00
  9.81840820158908e+00
  8.40317351789580e+00
  4.80150582160193e+00
  1.55819330730478e+00
  1.09716888313239e-03
 -2.35644848731218e+00
 -3.22241300088705e+00
 -3.50308751124858e+00
 -3.21565115351729e+00
 -1.75266045923181e+00
 -7.39589051144409e-01
  2.55075294015732e-01
  1.17380433533106e+00
  5.95960578383022e-02
  4.57260134599596e-01
  6.58952976069849e-02
  1.26537084505476e-01
  5.05342882924414e-01
  9.45273469411120e-01
  1.63244480027292e+00
  2.63682388500924e+00
  3.97100251949347e+00
  5.40054468526540e+00
  6.14797258543505e+00
  4.98070088997371e+00
  2.02176489746253e+00
  1.84357149094381e-01
 -7.08488623570591e-03
  2.36913493026560e-03
  1.32950482512095e-04
 -1.38957418994420e-01
 -2.60090027852347e-01
 -4.49835706775664e-01
 -7.31126629696563e-01
 -1.11861777375438e+00
 -1.58739593447389e+00
 -1.99125636701477e+00
 -2.03025837503363e+00
 -1.24743111609232e+00
  2.71867405206707e-01
  9.95810075477156e-01
  4.55448471363036e-01
 -2.41754544584911e-03
  5.58641690839409e-02
  1.04485498965527e-01
  1.80940572893667e-01
  2.93783669027015e-01
  4.50951988226580e-01
  6.40557184508875e-01
  8.12648389129307e-01
  8.41310655339178e-01
  5.41906290515089e-01
 -1.33284671521752e-01
 -5.43309343865180e-01
 -4.73860280618372e-01
  2.41503867585103e-01
  3.84180942836044e-01
  1.06644759418552e-01
  6.70133452164188e+00
  8.83940558806038e+00
  9.81840820158908e+00
  8.40317351789580e+00
  4.80150582160193e+00
  1.55819330730478e+00
  1.09716888313239e-03
 -2.35644848731218e+00
 -3.22241300088705e+00
 -3.50308751124858e+00
 -3.21565115351729e+00
 -1.75266045923181e+00
 -7.39589051144409e-01
  2.55075294015732e-01
  1.17380433533106e+00
  5.95960578383022e-02
  4.57260134599596e-01
  6.58952976069849e-02
  1.26537084505476e-01
  5.05342882924414e-01
  9.45273469411120e-01
  1.63244480027292e+00
  2.63682388500924e+00
  3.97100251949347e+00
  5.40054468526540e+00
  6.14797258543505e+00
  4.98070088997371e+00
  2.02176489746253e+00
  1.84357149094381e-01
 -7.08488623570591e-03
  2.36913493026560e-03
  1.32950482512095e-04
 -1.38957418994420e-01
 -2.60090027852347e-01
 -4.49835706775664e-01
 -7.31126629696563e-01
 -1.11861777375438e+00
 -1.58739593447389e+00
 -1.99125636701477e+00
 -2.03025837503363e+00
 -1.24743111609232e+00
  2.71867405206707e-01
  9.95810075477156e-01
  4.55448471363036e-01
 -2.41754544584911e-03
  5.58641690839409e-02
  1.04485498965527e-01
  1.80940572893667e-01
  2.93783669027015e-01
  4.50951988226580e-01
  6.40557184508875e-01
  8.12648389129307e-01
  8.41310655339178e-01
  5.41906290515089e-01
 -1.33284671521752e-01
 -5.43309343865180e-01
 -4.73860280618372e-01
  2.41503867585103e-01
  3.84180942836044e-01
  1.06644759418552e-01
  6.70133452164188e+00
  8.83940558806038e+00
  9.81840820158908e+00
  8.40317351789580e+00
  4.80150582160193e+00
  1.55819330730478e+00
  1.09716888313239e-03
 -2.35644848731218e+00
 -3.22241300088705e+00
 -3.50308751124858e+00
 -3.21565115351729e+00
 -1.75266045923181e+00
 -7.39589051144409e-01
  2.55075294015732e-01
  1.17380433533106e+00
  5.95960578383022e-02
  4.57260134599596e-01
  6.58952976069849e-02
  1.26537084505476e-01

0 0 0 0 3 3 3
0 0 13 0 26 0 
13 0

0 3 3 13 1 1 1
39 0 
1 0

0 4 4 14 1 1 1
40 0 
1 0

0 5 5 15 2 6 6
41 1 48 1 
7 0

0 11 11 22 1 3 3
55 1 
1 0

0 14 14 23 1 3 3
56 1 
1 0

0 17 17 24 1 5 6
57 2 
1 1

0 22 22 25 1 5 6
58 2 
1 1

0 27 27 26 1 7 10
59 3 
1 1

1 34 34 27 3 3 3
60 0 73 0 86 0 
13 0

1 37 37 40 1 1 1
99 0 
1 0

1 38 38 41 1 1 1
100 0 
1 0

1 39 39 42 2 6 6
101 1 108 1 
7 0

1 45 45 49 1 3 3
115 1 
1 0

1 48 48 50 1 3 3
116 1 
1 0

1 51 51 51 1 5 6
117 2 
1 1

1 56 56 52 1 5 6
118 2 
1 1

1 61 61 53 1 7 10
119 3 
1 1

2 68 68 54 3 3 3
120 0 133 0 146 0 
13 0

2 71 71 67 1 1 1
159 0 
1 0

2 72 72 68 1 1 1
160 0 
1 0

2 73 73 69 2 6 6
161 1 168 1 
7 0

2 79 79 76 1 3 3
175 1 
1 0

2 82 82 77 1 3 3
176 1 
1 0

2 85 85 78 1 5 6
177 2 
1 1

2 90 90 79 1 5 6
178 2 
1 1

2 95 95 80 1 7 10
179 3 
1 1

3 102 102 81 3 3 3
180 0 193 0 206 0 
13 0

3 105 105 94 1 1 1
219 0 
1 0

3 106 106 95 1 1 1
220 0 
1 0

3 107 107 96 2 6 6
221 1 228 1 
7 0

3 113 113 103 1 3 3
235 1 
1 0

3 116 116 104 1 3 3
236 1 
1 0

3 119 119 105 1 5 6
237 2 
1 1

3 124 124 106 1 5 6
238 2 
1 1

3 129 129 107 1 7 10
239 3 
1 1

4 136 136 108 3 3 3
240 0 253 0 266 0 
13 0

4 139 139 121 1 1 1
279 0 
1 0

4 140 140 122 1 1 1
280 0 
1 0

4 141 141 123 2 6 6
281 1 288 1 
7 0

4 147 147 130 1 3 3
295 1 
1 0

4 150 150 131 1 3 3
296 1 
1 0

4 153 153 132 1 5 6
297 2 
1 1

4 158 158 133 1 5 6
298 2 
1 1

4 163 163 134 1 7 10
299 3 
1 1

5 170 170 135 3 3 3
300 0 313 0 326 0 
13 0

5 173 173 148 1 1 1
339 0 
1 0

5 174 174 149 1 1 1
340 0 
1 0

5 175 175 150 2 6 6
341 1 348 1 
7 0

5 181 181 157 1 3 3
355 1 
1 0

5 184 184 158 1 3 3
356 1 
1 0

5 187 187 159 1 5 6
357 2 
1 1

5 192 192 160 1 5 6
358 2 
1 1

5 197 197 161 1 7 10
359 3 
1 1

6 204 204 162 3 3 3
360 0 373 0 386 0 
13 0

6 207 207 175 1 1 1
399 0 
1 0

6 208 208 176 1 1 1
400 0 
1 0

6 209 209 177 2 6 6
401 1 408 1 
7 0

6 215 215 184 1 3 3
415 1 
1 0

6 218 218 185 1 3 3
416 1 
1 0

6 221 221 186 1 5 6
417 2 
1 1

6 226 226 187 1 5 6
418 2 
1 1

6 231 231 188 1 7 10
419 3 
1 1

7 238 238 189 3 3 3
420 0 433 0 446 0 
13 0

7 241 241 202 1 1 1
459 0 
1 0

7 242 242 203 1 1 1
460 0 
1 0

7 243 243 204 2 6 6
461 1 468 1 
7 0

7 249 249 211 1 3 3
475 1 
1 0

7 252 252 212 1 3 3
476 1 
1 0

7 255 255 213 1 5 6
477 2 
1 1

7 260 260 214 1 5 6
478 2 
1 1

7 265 265 215 1 7 10
479 3 
1 1

8 272 272 216 3 3 3
480 0 493 0 506 0 
13 0

8 275 275 229 1 1 1
519 0 
1 0

8 276 276 230 1 1 1
520 0 
1 0

8 277 277 231 2 6 6
521 1 528 1 
7 0

8 283 283 238 1 3 3
535 1 
1 0

8 286 286 239 1 3 3
536 1 
1 0

8 289 289 240 1 5 6
537 2 
1 1

8 294 294 241 1 5 6
538 2 
1 1

8 299 299 242 1 7 10
539 3 
1 1

9 306 306 243 3 3 3
540 0 553 0 566 0 
13 0

9 309 309 256 1 1 1
579 0 
1 0

9 310 310 257 1 1 1
580 0 
1 0

9 311 311 258 2 6 6
581 1 588 1 
7 0

9 317 317 265 1 3 3
595 1 
1 0

9 320 320 266 1 3 3
596 1 
1 0

9 323 323 267 1 5 6
597 2 
1 1

9 328 328 268 1 5 6
598 2 
1 1

9 333 333 269 1 7 10
599 3 
1 1

10 340 340 270 3 3 3
600 0 613 0 626 0 
13 0

10 343 343 283 1 1 1
639 0 
1 0

10 344 344 284 1 1 1
640 0 
1 0

10 345 345 285 2 6 6
641 1 648 1 
7 0

10 351 351 292 1 3 3
655 1 
1 0

10 354 354 293 1 3 3
656 1 
1 0

10 357 357 294 1 5 6
657 2 
1 1

10 362 362 295 1 5 6
658 2 
1 1

10 367 367 296 1 7 10
659 3 
1 1

11 374 374 297 3 3 3
660 0 673 0 686 0 
13 0

11 377 377 310 1 1 1
699 0 
1 0

11 378 378 311 1 1 1
700 0 
1 0

11 379 379 312 2 6 6
701 1 708 1 
7 0

11 385 385 319 1 3 3
715 1 
1 0

11 388 388 320 1 3 3
716 1 
1 0

11 391 391 321 1 5 6
717 2 
1 1

11 396 396 322 1 5 6
718 2 
1 1

11 401 401 323 1 7 10
719 3 
1 1

12 408 408 324 3 3 3
720 0 733 0 746 0 
13 0

12 411 411 337 1 1 1
759 0 
1 0

12 412 412 338 1 1 1
760 0 
1 0

12 413 413 339 2 6 6
761 1 768 1 
7 0

12 419 419 346 1 3 3
775 1 
1 0

12 422 422 347 1 3 3
776 1 
1 0

12 425 425 348 1 5 6
777 2 
1 1

12 430 430 349 1 5 6
778 2 
1 1

12 435 435 350 1 7 10
779 3 
1 1

13 442 442 351 3 3 3
780 0 793 0 806 0 
13 0

13 445 445 364 1 1 1
819 0 
1 0

13 446 446 365 1 1 1
820 0 
1 0

13 447 447 366 2 6 6
821 1 828 1 
7 0

13 453 453 373 1 3 3
835 1 
1 0

13 456 456 374 1 3 3
836 1 
1 0

13 459 459 375 1 5 6
837 2 
1 1

13 464 464 376 1 5 6
838 2 
1 1

13 469 469 377 1 7 10
839 3 
1 1

14 476 476 378 3 3 3
840 0 853 0 866 0 
13 0

14 479 479 391 1 1 1
879 0 
1 0

14 480 480 392 1 1 1
880 0 
1 0

14 481 481 393 2 6 6
881 1 888 1 
7 0

14 487 487 400 1 3 3
895 1 
1 0

14 490 490 401 1 3 3
896 1 
1 0

14 493 493 402 1 5 6
897 2 
1 1

14 498 498 403 1 5 6
898 2 
1 1

14 503 503 404 1 7 10
899 3 
1 1

15 510 510 405 3 3 3
900 0 913 0 926 0 
13 0

15 513 513 418 1 1 1
939 0 
1 0

15 514 514 419 1 1 1
940 0 
1 0

15 515 515 420 2 6 6
941 1 948 1 
7 0

15 521 521 427 1 3 3
955 1 
1 0

15 524 524 428 1 3 3
956 1 
1 0

15 527 527 429 1 5 6
957 2 
1 1

15 532 532 430 1 5 6
958 2 
1 1

15 537 537 431 1 7 10
959 3 
1 1

 -------------------------------------------------------------
 Allocate 2524424 B from available memory: 1048576000000 B
 There are 729 image cells after screening.
 There are 265 image cells for CGTO evaluation after screening.
 Real-Space grid for FFT initialized based on kinetic energy cutoff (eV) = 500.0
 Real-Space grid for FFT: (20,20,20)
 There are 68921 real-space grid points.
 There are 512 batches of real-space grid points. 
 Size of each grid batch is around 128
 Grid for AFT initialized based on kinetic energy cutoff (eV) = 500.0
 Real-Space grid for AFT: (20,20,20)
 There are 68921 real-space grid points.

 There are 43648 atom-centered grid points.

 Spacegroup symmetry group: Fd-3m
 Reducing spacegroup symmetry to symmorphic group: F -4 3 m
 Monkhorst-Pack mesh is [4,4,4]
 There are 64 k points.
kpoints in Bohr
-0.0765405765 -0.0765405765 -0.0765405765
-0.0000000000 -0.0000000000 -0.1530811530
0.0765405765 0.0765405765 -0.2296217294
0.1530811530 0.1530811530 -0.3061623059
-0.0000000000 -0.1530811530 0.0000000000
0.0765405765 -0.0765405765 -0.0765405765
0.1530811530 0.0000000000 -0.1530811530
0.2296217294 0.0765405765 -0.2296217294
0.0765405765 -0.2296217294 0.0765405765
0.1530811530 -0.1530811530 0.0000000000
0.2296217294 -0.0765405765 -0.0765405765
0.3061623059 0.0000000000 -0.1530811530
0.1530811530 -0.3061623059 0.1530811530
0.2296217294 -0.2296217294 0.0765405765
0.3061623059 -0.1530811530 0.0000000000
0.3827028824 -0.0765405765 -0.0765405765
-0.1530811530 -0.0000000000 -0.0000000000
-0.0765405765 0.0765405765 -0.0765405765
0.0000000000 0.1530811530 -0.1530811530
0.0765405765 0.2296217294 -0.2296217294
-0.0765405765 -0.0765405765 0.0765405765
0.0000000000 0.0000000000 0.0000000000
0.0765405765 0.0765405765 -0.0765405765
0.1530811530 0.1530811530 -0.1530811530
-0.0000000000 -0.1530811530 0.1530811530
0.0765405765 -0.0765405765 0.0765405765
0.1530811530 0.0000000000 0.0000000000
0.2296217294 0.0765405765 -0.0765405765
0.0765405765 -0.2296217294 0.2296217294
0.1530811530 -0.1530811530 0.1530811530
0.2296217294 -0.0765405765 0.0765405765
0.3061623059 0.0000000000 0.0000000000
-0.2296217294 0.0765405765 0.0765405765
-0.1530811530 0.1530811530 -0.0000000000
-0.0765405765 0.2296217294 -0.0765405765
0.0000000000 0.3061623059 -0.1530811530
-0.1530811530 0.0000000000 0.1530811530
-0.0765405765 0.0765405765 0.0765405765
0.0000000000 0.1530811530 0.0000000000
0.0765405765 0.2296217294 -0.0765405765
-0.0765405765 -0.0765405765 0.2296217294
0.0000000000 0.0000000000 0.1530811530
0.0765405765 0.0765405765 0.0765405765
0.1530811530 0.1530811530 0.0000000000
0.0000000000 -0.1530811530 0.3061623059
0.0765405765 -0.0765405765 0.2296217294
0.1530811530 0.0000000000 0.1530811530
0.2296217294 0.0765405765 0.0765405765
-0.3061623059 0.1530811530 0.1530811530
-0.2296217294 0.2296217294 0.0765405765
-0.1530811530 0.3061623059 -0.0000000000
-0.0765405765 0.3827028824 -0.0765405765
-0.2296217294 0.0765405765 0.2296217294
-0.1530811530 0.1530811530 0.1530811530
-0.0765405765 0.2296217294 0.0765405765
0.0000000000 0.3061623059 0.0000000000
-0.1530811530 0.0000000000 0.3061623059
-0.0765405765 0.0765405765 0.2296217294
0.0000000000 0.1530811530 0.1530811530
0.0765405765 0.2296217294 0.0765405765
-0.0765405765 -0.0765405765 0.3827028824
0.0000000000 0.0000000000 0.3061623059
0.0765405765 0.0765405765 0.2296217294
0.1530811530 0.1530811530 0.1530811530
 There are 112 alpha and 112 beta electrons
 Start computing overlap matrix
 Allocate 303038464 B from available memory: 1048573475584 B
 Time for computing overlap matrix: 5.0820000000 s
 ====== Initialize compute kernels for all-electron RI-J (kpts) ====== 
 ========================================================== 
 Range-separated parameter omega        = 0.400000000000000022
 Threshold for 1e2c shellpair           = 0.000000000000010000
 Threshold for 2e2c SR integral         = 0.000000000000000001
 Threshold for 2e3c SR integral         = 0.000000000100000000
 Threshold for AFT G-space screening is = 0.000000000001000000
 The exponent cutoff for C/D classification (omega2 / 2) is  = 0.080000000000000016
 ========================================================== 
 === Post process the basis set for RI calculation (exp_cutoff = 0.080000000000000016 ) === 
nshells_b1 before uncontraction = 144
nshells_b1 after uncontraction = 144
nshells_baux before uncontraction = 592
nshells_baux after uncontraction = 592
===============================================
nbsf total   = 544
nbsf compact = 480
nbsf diffuse = 64
naux total   = 1936
naux compact = 1936
naux diffuse = 0
nshells_bnuc = 16

 Number of unique atoms is 1
 Unique atom #0 (si) has 7 shells.

Shell 0 to 6 belongs to atom si
Shell 7 to 13 belongs to atom si
Shell 14 to 20 belongs to atom si
Shell 21 to 27 belongs to atom si
Shell 28 to 34 belongs to atom si
Shell 35 to 41 belongs to atom si
Shell 42 to 48 belongs to atom si
Shell 49 to 55 belongs to atom si
Shell 56 to 62 belongs to atom si
Shell 63 to 69 belongs to atom si
Shell 70 to 76 belongs to atom si
Shell 77 to 83 belongs to atom si
Shell 84 to 90 belongs to atom si
Shell 91 to 97 belongs to atom si
Shell 98 to 104 belongs to atom si
Shell 105 to 111 belongs to atom si

 Number of unique atoms is 1
 Unique atom #0 (si) has 2 shells.

Shell 0 to 1 belongs to atom si
Shell 2 to 3 belongs to atom si
Shell 4 to 5 belongs to atom si
Shell 6 to 7 belongs to atom si
Shell 8 to 9 belongs to atom si
Shell 10 to 11 belongs to atom si
Shell 12 to 13 belongs to atom si
Shell 14 to 15 belongs to atom si
Shell 16 to 17 belongs to atom si
Shell 18 to 19 belongs to atom si
Shell 20 to 21 belongs to atom si
Shell 22 to 23 belongs to atom si
Shell 24 to 25 belongs to atom si
Shell 26 to 27 belongs to atom si
Shell 28 to 29 belongs to atom si
Shell 30 to 31 belongs to atom si

 Number of unique atom is 1
 Unique atom #0 (si) has 37 auxiliary shells.

Auxiliary Shell 0 to 36 belongs to atom si
Auxiliary Shell 37 to 73 belongs to atom si
Auxiliary Shell 74 to 110 belongs to atom si
Auxiliary Shell 111 to 147 belongs to atom si
Auxiliary Shell 148 to 184 belongs to atom si
Auxiliary Shell 185 to 221 belongs to atom si
Auxiliary Shell 222 to 258 belongs to atom si
Auxiliary Shell 259 to 295 belongs to atom si
Auxiliary Shell 296 to 332 belongs to atom si
Auxiliary Shell 333 to 369 belongs to atom si
Auxiliary Shell 370 to 406 belongs to atom si
Auxiliary Shell 407 to 443 belongs to atom si
Auxiliary Shell 444 to 480 belongs to atom si
Auxiliary Shell 481 to 517 belongs to atom si
Auxiliary Shell 518 to 554 belongs to atom si
Auxiliary Shell 555 to 591 belongs to atom si

================= Automatically determine grid size for reciprocal space summation =================
 Range-separated parameter = 0.40000000000000 and G-space screening threshold = 0.00000000000100
The number of grid points along each axis dimension is (9, 9, 9)
Total number of grid points = 6859

Use nonortho shellpair for diffuse density
======== Initializing relevant kernel for RIJ (DD type) ========
There are 528 shellpairs in the reference unit cell
There are 815 images and we expect to have 430320 in total
There are 19216 shellpairs in the lattice sum after screening
======== Initializing relevant kernel for RIJ (CD type) ========
There are 3584 shellpairs in the reference unit cell
There are 647 images and we expect to have 2318848 in total
There are 67552 shellpairs in the lattice sum after screening
****** AFT -> SR ******
Maximum bra distance cutoff is 22.000000000000
Maximum bra ket distance cutoff is 26.679112457438
Maximum bra ket screening distance is 24.281250000000
Number of auxiliary image is 213
There are 3584 shellpairs in the reference unit cell
There are 117 images and we expect to have 419328 in total
There are 67552 shellpairs in the lattice sum after screening
Available memory per thread for 2e3c calculation is 32.758451160000Gb
Finish initializing 2e3c SR with the lattice sum!
=================================================
======== Initializing relevant kernel for RIJ (CC type) ========
There are 6304 shellpairs in the reference unit cell
There are 455 images and we expect to have 2868320 in total
There are 35520 shellpairs in the lattice sum after screening
****** AFT -> SR ******
Maximum bra distance cutoff is 18.000000000000
Maximum bra ket distance cutoff is 31.276958582213
Maximum bra ket screening distance is 23.906250000000
Number of auxiliary image is 237
There are 6304 shellpairs in the reference unit cell
There are 99 images and we expect to have 624096 in total
There are 35520 shellpairs in the lattice sum after screening
Available memory per thread for 2e3c calculation is 32.758451160000Gb
Finish initializing 2e3c SR with the lattice sum!
=================================================
======== Initializing the SR component for Vnuc (CD type) ========
Maximum bra distance cutoff is 22.000000000000
Maximum bra ket distance cutoff is 20.024775525061
Maximum bra ket screening distance is 17.441677266996
Number of auxiliary image is 117
There are 3584 shellpairs in the reference unit cell
There are 117 images and we expect to have 419328 in total
There are 67552 shellpairs in the lattice sum after screening
Available memory per thread for 2e3c calculation is 32.758451160000Gb
Finish initializing 2e3c SR with the lattice sum!
=================================================
======== Initialize the SR component for Vnuc (CC type) ========
Maximum bra distance cutoff is 18.000000000000
Maximum bra ket distance cutoff is 24.890631274185
Maximum bra ket screening distance is 16.954216533142
Number of auxiliary image is 117
There are 6304 shellpairs in the reference unit cell
There are 99 images and we expect to have 624096 in total
There are 35520 shellpairs in the lattice sum after screening
Available memory per thread for 2e3c calculation is 32.758451160000Gb
Finish initializing 2e3c SR with the lattice sum!
=================================================
 Aufbau occupation scheme, occupation determined by eigenvalue
 == 0-th k-point nmo = 544 (-0.07654,-0.07654,-0.07654) ==
 == 1-th k-point nmo = 544 (-0.00000,-0.00000,-0.15308) ==
 == 2-th k-point nmo = 544 (0.07654,0.07654,-0.22962) ==
 == 3-th k-point nmo = 544 (0.15308,0.15308,-0.30616) ==
 == 4-th k-point nmo = 544 (-0.00000,-0.15308,0.00000) ==
 == 5-th k-point nmo = 544 (0.07654,-0.07654,-0.07654) ==
 == 6-th k-point nmo = 544 (0.15308,0.00000,-0.15308) ==
 == 7-th k-point nmo = 544 (0.22962,0.07654,-0.22962) ==
 == 8-th k-point nmo = 544 (0.07654,-0.22962,0.07654) ==
 == 9-th k-point nmo = 544 (0.15308,-0.15308,0.00000) ==
 == 10-th k-point nmo = 544 (0.22962,-0.07654,-0.07654) ==
 == 11-th k-point nmo = 544 (0.30616,0.00000,-0.15308) ==
 == 12-th k-point nmo = 544 (0.15308,-0.30616,0.15308) ==
 == 13-th k-point nmo = 544 (0.22962,-0.22962,0.07654) ==
 == 14-th k-point nmo = 544 (0.30616,-0.15308,0.00000) ==
 == 15-th k-point nmo = 544 (0.38270,-0.07654,-0.07654) ==
 == 16-th k-point nmo = 544 (-0.15308,-0.00000,-0.00000) ==
 == 17-th k-point nmo = 544 (-0.07654,0.07654,-0.07654) ==
 == 18-th k-point nmo = 544 (0.00000,0.15308,-0.15308) ==
 == 19-th k-point nmo = 544 (0.07654,0.22962,-0.22962) ==
 == 20-th k-point nmo = 544 (-0.07654,-0.07654,0.07654) ==
 == 21-th k-point nmo = 544 (0.00000,0.00000,0.00000) ==
 == 22-th k-point nmo = 544 (0.07654,0.07654,-0.07654) ==
 == 23-th k-point nmo = 544 (0.15308,0.15308,-0.15308) ==
 == 24-th k-point nmo = 544 (-0.00000,-0.15308,0.15308) ==
 == 25-th k-point nmo = 544 (0.07654,-0.07654,0.07654) ==
 == 26-th k-point nmo = 544 (0.15308,0.00000,0.00000) ==
 == 27-th k-point nmo = 544 (0.22962,0.07654,-0.07654) ==
 == 28-th k-point nmo = 544 (0.07654,-0.22962,0.22962) ==
 == 29-th k-point nmo = 544 (0.15308,-0.15308,0.15308) ==
 == 30-th k-point nmo = 544 (0.22962,-0.07654,0.07654) ==
 == 31-th k-point nmo = 544 (0.30616,0.00000,0.00000) ==
 == 32-th k-point nmo = 544 (-0.22962,0.07654,0.07654) ==
 == 33-th k-point nmo = 544 (-0.15308,0.15308,-0.00000) ==
 == 34-th k-point nmo = 544 (-0.07654,0.22962,-0.07654) ==
 == 35-th k-point nmo = 544 (0.00000,0.30616,-0.15308) ==
 == 36-th k-point nmo = 544 (-0.15308,0.00000,0.15308) ==
 == 37-th k-point nmo = 544 (-0.07654,0.07654,0.07654) ==
 == 38-th k-point nmo = 544 (0.00000,0.15308,0.00000) ==
 == 39-th k-point nmo = 544 (0.07654,0.22962,-0.07654) ==
 == 40-th k-point nmo = 544 (-0.07654,-0.07654,0.22962) ==
 == 41-th k-point nmo = 544 (0.00000,0.00000,0.15308) ==
 == 42-th k-point nmo = 544 (0.07654,0.07654,0.07654) ==
 == 43-th k-point nmo = 544 (0.15308,0.15308,0.00000) ==
 == 44-th k-point nmo = 544 (0.00000,-0.15308,0.30616) ==
 == 45-th k-point nmo = 544 (0.07654,-0.07654,0.22962) ==
 == 46-th k-point nmo = 544 (0.15308,0.00000,0.15308) ==
 == 47-th k-point nmo = 544 (0.22962,0.07654,0.07654) ==
 == 48-th k-point nmo = 544 (-0.30616,0.15308,0.15308) ==
 == 49-th k-point nmo = 544 (-0.22962,0.22962,0.07654) ==
 == 50-th k-point nmo = 544 (-0.15308,0.30616,-0.00000) ==
 == 51-th k-point nmo = 544 (-0.07654,0.38270,-0.07654) ==
 == 52-th k-point nmo = 544 (-0.22962,0.07654,0.22962) ==
 == 53-th k-point nmo = 544 (-0.15308,0.15308,0.15308) ==
 == 54-th k-point nmo = 544 (-0.07654,0.22962,0.07654) ==
 == 55-th k-point nmo = 544 (0.00000,0.30616,0.00000) ==
 == 56-th k-point nmo = 544 (-0.15308,0.00000,0.30616) ==
 == 57-th k-point nmo = 544 (-0.07654,0.07654,0.22962) ==
 == 58-th k-point nmo = 544 (0.00000,0.15308,0.15308) ==
 == 59-th k-point nmo = 544 (0.07654,0.22962,0.07654) ==
 == 60-th k-point nmo = 544 (-0.07654,-0.07654,0.38270) ==
 == 61-th k-point nmo = 544 (0.00000,0.00000,0.30616) ==
 == 62-th k-point nmo = 544 (0.07654,0.07654,0.22962) ==
 == 63-th k-point nmo = 544 (0.15308,0.15308,0.15308) ==

 Generate autoSAD guess
backing up fragment data
Atom # 0: si, charge: 0, multiplicity: 3.000000
writing autosad to fragment context
Settings for isolated fragments: 
  frgm_gamma: TRUE
  frgm_center: FALSE

    Running SCF for isolated atom #0
    Fragment Input file: /n/netscratch/joonholee_lab/Lab/hieudinh//nhome02hieudinhrsdf_test_full_Jbenchmark_pyscfsiqcpbcsi_ccpvtz_444.scratch20250908040041/autosad_frgmt_0/frgmt_input.in
    Fragment Output file: /n/netscratch/joonholee_lab/Lab/hieudinh//nhome02hieudinhrsdf_test_full_Jbenchmark_pyscfsiqcpbcsi_ccpvtz_444.scratch20250908040041/autosad_frgmt_0/frgmt_job.out
    Fragment job begins at Mon Sep  8 04:01:04 2025

 Integrated density by DFT XC:
   Numerical integral  =    13.999999324692
   Relative error      =     0.0000048236 %
Final energy components:
 DFT Correlation            Energy =  -0.48419291769762
 DFT Exchange               Energy = -20.15457771672860
 Kinetic (alpha)            Energy = 145.16532816247488
 Kinetic (beta)             Energy = 143.17442881803601
 Nuclear Attraction (alpha) Energy = -351.25548668351053
 Nuclear Attraction (beta)  Energy = -337.63206697064862
 Nuclear Repulsion          Energy =   0.00000000000000
 SEOQF                      Energy =   0.00000000065999
 Total Coulomb              Energy = 131.95998001584402
----------------------------------------------
    SCF Energy: -289.2265872916
   Total fragment job time:  0.36 s.
restoring fragment data

 ------------------------------------------------------------------------
 Allocate 909386752 B from available memory: 1048270437120 B
 Time for generating SCF guess: 0.55 s

 Allocate 903320 B from available memory: 1047361050368 B
 Selected algorithms for each term:
  kpts_kinetic -> @0x15464f4fc680
  kpts_nn -> @0x15464f4fc800
  kpts_rij_bigmem -> @0x15464f4fc3e0
  kpts_vnuc_df -> @0x15464f4fc380
  kpts_xc -> @0x15464f4fc2c0
 Time for computing kinetic matrix is 6.86 s
Start calculating Vnuc DD type!
Start calculating Vnuc CD type!
Start calculating Vnuc CC type!
 Time for computing nuclear attraction matrix is 9.52 s
Compute (P|Q) and use solve on the fly!
Maximum distance between P and Q is 32.62546518430815
Number of images for (P|Qn) is 285
 Time for computing 2e2c SR integral is 0.56 s
Maximum dynamic memory per thread for 2e3c SR integrals: 0.276 GiB
Batch size for basis function pair is 30720 out of 30720
 === bvk cell = 0 has 99.368 % of the basis function pairs === 
 === bvk cell = 1 has 79.242 % of the basis function pairs === 
 === bvk cell = 2 has 20.352 % of the basis function pairs === 
 === bvk cell = 3 has 79.242 % of the basis function pairs === 
 === bvk cell = 4 has 79.242 % of the basis function pairs === 
 === bvk cell = 5 has 28.057 % of the basis function pairs === 
 === bvk cell = 6 has 15.742 % of the basis function pairs === 
 === bvk cell = 7 has 85.488 % of the basis function pairs === 
 === bvk cell = 8 has 20.352 % of the basis function pairs === 
 === bvk cell = 9 has 15.742 % of the basis function pairs === 
 === bvk cell = 10 has 1.732 % of the basis function pairs === 
 === bvk cell = 11 has 15.742 % of the basis function pairs === 
 === bvk cell = 12 has 79.242 % of the basis function pairs === 
 === bvk cell = 13 has 85.488 % of the basis function pairs === 
 === bvk cell = 14 has 15.742 % of the basis function pairs === 
 === bvk cell = 15 has 28.057 % of the basis function pairs === 
 === bvk cell = 16 has 79.242 % of the basis function pairs === 
 === bvk cell = 17 has 28.057 % of the basis function pairs === 
 === bvk cell = 18 has 15.742 % of the basis function pairs === 
 === bvk cell = 19 has 85.488 % of the basis function pairs === 
 === bvk cell = 20 has 28.057 % of the basis function pairs === 
 === bvk cell = 21 has 3.590 % of the basis function pairs === 
 === bvk cell = 22 has 9.674 % of the basis function pairs === 
 === bvk cell = 23 has 47.285 % of the basis function pairs === 
 === bvk cell = 24 has 15.742 % of the basis function pairs === 
 === bvk cell = 25 has 9.674 % of the basis function pairs === 
 === bvk cell = 26 has 0.150 % of the basis function pairs === 
 === bvk cell = 27 has 3.327 % of the basis function pairs === 
 === bvk cell = 28 has 85.488 % of the basis function pairs === 
 === bvk cell = 29 has 47.285 % of the basis function pairs === 
 === bvk cell = 30 has 3.327 % of the basis function pairs === 
 === bvk cell = 31 has 47.285 % of the basis function pairs === 
 === bvk cell = 32 has 20.352 % of the basis function pairs === 
 === bvk cell = 33 has 15.742 % of the basis function pairs === 
 === bvk cell = 34 has 1.732 % of the basis function pairs === 
 === bvk cell = 35 has 15.742 % of the basis function pairs === 
 === bvk cell = 36 has 15.742 % of the basis function pairs === 
 === bvk cell = 37 has 9.674 % of the basis function pairs === 
 === bvk cell = 38 has 0.150 % of the basis function pairs === 
 === bvk cell = 39 has 3.327 % of the basis function pairs === 
 === bvk cell = 40 has 1.732 % of the basis function pairs === 
 === bvk cell = 41 has 0.150 % of the basis function pairs === 
 === bvk cell = 42 has 0.000 % of the basis function pairs === 
 === bvk cell = 43 has 0.150 % of the basis function pairs === 
 === bvk cell = 44 has 15.742 % of the basis function pairs === 
 === bvk cell = 45 has 3.327 % of the basis function pairs === 
 === bvk cell = 46 has 0.150 % of the basis function pairs === 
 === bvk cell = 47 has 9.674 % of the basis function pairs === 
 === bvk cell = 48 has 79.242 % of the basis function pairs === 
 === bvk cell = 49 has 85.488 % of the basis function pairs === 
 === bvk cell = 50 has 15.742 % of the basis function pairs === 
 === bvk cell = 51 has 28.057 % of the basis function pairs === 
 === bvk cell = 52 has 85.488 % of the basis function pairs === 
 === bvk cell = 53 has 47.285 % of the basis function pairs === 
 === bvk cell = 54 has 3.327 % of the basis function pairs === 
 === bvk cell = 55 has 47.285 % of the basis function pairs === 
 === bvk cell = 56 has 15.742 % of the basis function pairs === 
 === bvk cell = 57 has 3.327 % of the basis function pairs === 
 === bvk cell = 58 has 0.150 % of the basis function pairs === 
 === bvk cell = 59 has 9.674 % of the basis function pairs === 
 === bvk cell = 60 has 28.057 % of the basis function pairs === 
 === bvk cell = 61 has 47.285 % of the basis function pairs === 
 === bvk cell = 62 has 9.674 % of the basis function pairs === 
 === bvk cell = 63 has 3.590 % of the basis function pairs === 
Static memory requirement for 2e3c SR integrals: 8.335 GB
There are 1 munu batches for computing 2e3c SR integrals with latsum
There are 32 Q batches for computing 2e3c SR integrals with latsum
 Time for computing 2e3c SR integral (CD) is 17.73 s
Maximum dynamic memory per thread for 2e3c SR integrals: 0.331 GiB
Batch size for basis function pair is 116120 out of 116120
 === bvk cell = 0 has 90.165 % of the basis function pairs === 
 === bvk cell = 1 has 47.325 % of the basis function pairs === 
 === bvk cell = 2 has 0.663 % of the basis function pairs === 
 === bvk cell = 3 has 35.153 % of the basis function pairs === 
 === bvk cell = 4 has 48.476 % of the basis function pairs === 
 === bvk cell = 5 has 8.074 % of the basis function pairs === 
 === bvk cell = 6 has 0.175 % of the basis function pairs === 
 === bvk cell = 7 has 29.552 % of the basis function pairs === 
 === bvk cell = 8 has 0.663 % of the basis function pairs === 
 === bvk cell = 9 has 0.116 % of the basis function pairs === 
 === bvk cell = 10 has 0.000 % of the basis function pairs === 
 === bvk cell = 11 has 0.333 % of the basis function pairs === 
 === bvk cell = 12 has 34.003 % of the basis function pairs === 
 === bvk cell = 13 has 27.857 % of the basis function pairs === 
 === bvk cell = 14 has 0.275 % of the basis function pairs === 
 === bvk cell = 15 has 4.706 % of the basis function pairs === 
 === bvk cell = 16 has 50.434 % of the basis function pairs === 
 === bvk cell = 17 has 8.225 % of the basis function pairs === 
 === bvk cell = 18 has 0.247 % of the basis function pairs === 
 === bvk cell = 19 has 31.442 % of the basis function pairs === 
 === bvk cell = 20 has 8.225 % of the basis function pairs === 
 === bvk cell = 21 has 0.359 % of the basis function pairs === 
 === bvk cell = 22 has 0.111 % of the basis function pairs === 
 === bvk cell = 23 has 9.465 % of the basis function pairs === 
 === bvk cell = 24 has 0.247 % of the basis function pairs === 
 === bvk cell = 25 has 0.111 % of the basis function pairs === 
 === bvk cell = 26 has 0.000 % of the basis function pairs === 
 === bvk cell = 27 has 0.000 % of the basis function pairs === 
 === bvk cell = 28 has 30.281 % of the basis function pairs === 
 === bvk cell = 29 has 9.131 % of the basis function pairs === 
 === bvk cell = 30 has 0.000 % of the basis function pairs === 
 === bvk cell = 31 has 6.678 % of the basis function pairs === 
 === bvk cell = 32 has 0.663 % of the basis function pairs === 
 === bvk cell = 33 has 0.116 % of the basis function pairs === 
 === bvk cell = 34 has 0.000 % of the basis function pairs === 
 === bvk cell = 35 has 0.333 % of the basis function pairs === 
 === bvk cell = 36 has 0.116 % of the basis function pairs === 
 === bvk cell = 37 has 0.039 % of the basis function pairs === 
 === bvk cell = 38 has 0.000 % of the basis function pairs === 
 === bvk cell = 39 has 0.000 % of the basis function pairs === 
 === bvk cell = 40 has 0.000 % of the basis function pairs === 
 === bvk cell = 41 has 0.000 % of the basis function pairs === 
 === bvk cell = 42 has 0.000 % of the basis function pairs === 
 === bvk cell = 43 has 0.000 % of the basis function pairs === 
 === bvk cell = 44 has 0.333 % of the basis function pairs === 
 === bvk cell = 45 has 0.000 % of the basis function pairs === 
 === bvk cell = 46 has 0.000 % of the basis function pairs === 
 === bvk cell = 47 has 0.111 % of the basis function pairs === 
 === bvk cell = 48 has 32.044 % of the basis function pairs === 
 === bvk cell = 49 has 25.968 % of the basis function pairs === 
 === bvk cell = 50 has 0.202 % of the basis function pairs === 
 === bvk cell = 51 has 4.555 % of the basis function pairs === 
 === bvk cell = 52 has 27.129 % of the basis function pairs === 
 === bvk cell = 53 has 8.068 % of the basis function pairs === 
 === bvk cell = 54 has 0.000 % of the basis function pairs === 
 === bvk cell = 55 has 5.616 % of the basis function pairs === 
 === bvk cell = 56 has 0.202 % of the basis function pairs === 
 === bvk cell = 57 has 0.000 % of the basis function pairs === 
 === bvk cell = 58 has 0.000 % of the basis function pairs === 
 === bvk cell = 59 has 0.039 % of the basis function pairs === 
 === bvk cell = 60 has 4.555 % of the basis function pairs === 
 === bvk cell = 61 has 5.282 % of the basis function pairs === 
 === bvk cell = 62 has 0.039 % of the basis function pairs === 
 === bvk cell = 63 has 0.208 % of the basis function pairs === 
Static memory requirement for 2e3c SR integrals: 10.018 GB
There are 1 munu batches for computing 2e3c SR integrals with latsum
There are 32 Q batches for computing 2e3c SR integrals with latsum
 Time for computing 2e3c SR integral (CC) is 20.04 s
 Time for RI-J this SCF iteration is 41.46 s
 Time for RI-J this SCF iteration is 3.14 s
 ----------------------------------------------
 Guess energy: -4630.2715606687
 ----------------------------------------------
 Guess energy components:
 DFT Correlation    Energy =  -8.75392452766375
 DFT Exchange       Energy = -324.52359780886502
 Kinetic            Energy = 4619.03166975080330
 Nuclear Attraction Energy = -9488.13595372995405
 Nuclear Repulsion  Energy = -823.14927427733528
 Total Coulomb      Energy = 1395.25951992429668
 ----------------------------------------------
  Cycle       Energy         DIIS error
 ----------------------------------------------
 Time for RI-J this SCF iteration is 3.12 s
    1   -4630.2057749216      5.37e-04  
 Energy components after cycle 1:
 DFT Correlation    Energy =  -8.78087588394440
 DFT Exchange       Energy = -324.02226426298483
 Kinetic            Energy = 4614.50674815533694
 Nuclear Attraction Energy = -9478.08788913252465
 Nuclear Repulsion  Energy = -823.14927427733528
 Total Coulomb      Energy = 1389.32778047987745
    2   -4630.2057749216      1.02e-03  
 Energy components after cycle 2:
 DFT Correlation    Energy =  -8.78087588394440
 DFT Exchange       Energy = -324.02226426298483
 Kinetic            Energy = 4614.50674815533694
 Nuclear Attraction Energy = -9478.08788913252465
 Nuclear Repulsion  Energy = -823.14927427733528
 Total Coulomb      Energy = 1389.32778047987745
 ----------------------------------------------
  Cycle       Energy        RMS Gradient
 ----------------------------------------------
 Time for RI-J this SCF iteration is 2.99 s
    1   -4630.2519530669      1.54e-01   Descent step
 Energy components after cycle 1:
 DFT Correlation    Energy =  -8.78026746269093
 DFT Exchange       Energy = -324.03720389611749
 Kinetic            Energy = 4614.70512303741270
 Nuclear Attraction Energy = -9478.47604741706164
 Nuclear Repulsion  Energy = -823.14927427733528
 Total Coulomb      Energy = 1389.48571694886027
 Time for RI-J this SCF iteration is 3.04 s
    2   -4630.2841651672      1.05e-01   Descent step
 Energy components after cycle 2:
 DFT Correlation    Energy =  -8.77956753542353
 DFT Exchange       Energy = -324.05700963748490
 Kinetic            Energy = 4614.94806513222647
 Nuclear Attraction Energy = -9478.94143443735629
 Nuclear Repulsion  Energy = -823.14927427733528
 Total Coulomb      Energy = 1389.69505558813671
 Time for RI-J this SCF iteration is 3.00 s
    3   -4630.3029256247      7.08e-02   Descent step
 Energy components after cycle 3:
 DFT Correlation    Energy =  -8.77867112838157
 DFT Exchange       Energy = -324.08483200497614
 Kinetic            Energy = 4615.26974234680620
 Nuclear Attraction Energy = -9479.54942634823965
 Nuclear Repulsion  Energy = -823.14927427733528
 Total Coulomb      Energy = 1389.98953578740816
 Time for RI-J this SCF iteration is 2.99 s
    4   -4630.3089693016      3.50e-02   Descent step
 Energy components after cycle 4:
 DFT Correlation    Energy =  -8.77719813320762
 DFT Exchange       Energy = -324.13202843725122
 Kinetic            Energy = 4615.79241510638167
 Nuclear Attraction Energy = -9480.53398280382135
 Nuclear Repulsion  Energy = -823.14927427733528
 Total Coulomb      Energy = 1390.49109924363438
 Time for RI-J this SCF iteration is 3.00 s
    5   -4630.3094530735      5.29e-03   Normal BFGS step
 Energy components after cycle 5:
 DFT Correlation    Energy =  -8.77380239948392
 DFT Exchange       Energy = -324.23165751120888
 Kinetic            Energy = 4616.85334506131130
 Nuclear Attraction Energy = -9482.57321136766222
 Nuclear Repulsion  Energy = -823.14927427733528
 Total Coulomb      Energy = 1391.56514742083868
 Time for RI-J this SCF iteration is 2.99 s
    6   -4630.3096104139      4.09e-03   Normal BFGS step
 Energy components after cycle 6:
 DFT Correlation    Energy =  -8.77419168053914
 DFT Exchange       Energy = -324.20413259667811
 Kinetic            Energy = 4616.50765022965697
 Nuclear Attraction Energy = -9481.98748791582511
 Nuclear Repulsion  Energy = -823.14927427733528
 Total Coulomb      Energy = 1391.29782582685652
 Time for RI-J this SCF iteration is 2.98 s
    7   -4630.3096451508      2.62e-03   Normal BFGS step
 Energy components after cycle 7:
 DFT Correlation    Energy =  -8.77493103788933
 DFT Exchange       Energy = -324.18027470516557
 Kinetic            Energy = 4616.24646861842575
 Nuclear Attraction Energy = -9481.49606858687002
 Nuclear Repulsion  Energy = -823.14927427733528
 Total Coulomb      Energy = 1391.04443483807472
 Time for RI-J this SCF iteration is 2.99 s
    8   -4630.3096724606      1.49e-03   Normal BFGS step
 Energy components after cycle 8:
 DFT Correlation    Energy =  -8.77465364473129
 DFT Exchange       Energy = -324.19584093903296
 Kinetic            Energy = 4616.43648826276149
 Nuclear Attraction Energy = -9481.82499967502372
 Nuclear Repulsion  Energy = -823.14927427733528
 Total Coulomb      Energy = 1391.19860781277976
 Time for RI-J this SCF iteration is 3.01 s
    9   -4630.3096719910      5.56e-04   Normal BFGS step
 Energy components after cycle 9:
 DFT Correlation    Energy =  -8.77450913863557
 DFT Exchange       Energy = -324.19957700918292
 Kinetic            Energy = 4616.47468849058532
 Nuclear Attraction Energy = -9481.90090840459197
 Nuclear Repulsion  Energy = -823.14927427733528
 Total Coulomb      Energy = 1391.23990834816050
 Time for RI-J this SCF iteration is 3.02 s
   10   -4630.3096758558      6.99e-04   Normal BFGS step
 Energy components after cycle 10:
 DFT Correlation    Energy =  -8.77458914954518
 DFT Exchange       Energy = -324.19551876522286
 Kinetic            Energy = 4616.42590198667313
 Nuclear Attraction Energy = -9481.81549940399418
 Nuclear Repulsion  Energy = -823.14927427733528
 Total Coulomb      Energy = 1391.19930375363356
 Time for RI-J this SCF iteration is 3.03 s
   11   -4630.3096757292      1.53e-04   Normal BFGS step
 Energy components after cycle 11:
 DFT Correlation    Energy =  -8.77462116043019
 DFT Exchange       Energy = -324.19502282800636
 Kinetic            Energy = 4616.42204568485704
 Nuclear Attraction Energy = -9481.80591274109793
 Nuclear Repulsion  Energy = -823.14927427733528
 Total Coulomb      Energy = 1391.19310959284030
 Time for RI-J this SCF iteration is 3.03 s
   12   -4630.3096759983      1.73e-04   Normal BFGS step
 Energy components after cycle 12:
 DFT Correlation    Energy =  -8.77460692085821
 DFT Exchange       Energy = -324.19564825231930
 Kinetic            Energy = 4616.42938388435323
 Nuclear Attraction Energy = -9481.81900298941582
 Nuclear Repulsion  Energy = -823.14927427733528
 Total Coulomb      Energy = 1391.19947255727425
 Time for RI-J this SCF iteration is 3.02 s
   13   -4630.3096759416      9.63e-05   Normal BFGS step
 Energy components after cycle 13:
 DFT Correlation    Energy =  -8.77458906124169
 DFT Exchange       Energy = -324.19601759501057
 Kinetic            Energy = 4616.43282238455322
 Nuclear Attraction Energy = -9481.82637198829070
 Nuclear Repulsion  Energy = -823.14927427733528
 Total Coulomb      Energy = 1391.20375459570459
 Time for RI-J this SCF iteration is 3.02 s
   14   -4630.3096760656      1.00e-04   Normal BFGS step
 Energy components after cycle 14:
 DFT Correlation    Energy =  -8.77460100045225
 DFT Exchange       Energy = -324.19564051427670
[...]
 -4.62138 -4.62137 -3.03242 -3.03241 -3.03241 -3.03240 -3.03240 -3.03240 -3.03240 -3.03240
 -3.03239 -3.03239 -3.03239 -3.03239 -3.03239 -3.03238 -3.03238 -3.03237 -3.03229 -3.03227
 -3.03220 -3.03220 -3.03219 -3.03216 -3.03210 -3.03210 -3.03195 -3.03195 -3.03189 -3.03187
 -3.03186 -3.03186 -3.03180 -3.03179 -3.03171 -3.03171 -3.03170 -3.03168 -3.03168 -3.03168
 -3.03168 -3.03167 -3.03166 -3.03165 -3.03165 -3.03165 -3.03165 -3.03164 -3.03163 -3.03163
 -0.13687 -0.11814 -0.09822 -0.08250 -0.08250 -0.05648 -0.03643 -0.03643 0.02090 0.02090
 0.03133 0.06080 0.06080 0.09424 0.10546 0.12527 0.12527 0.12793 0.15279 0.15279
 0.15722 0.16580 0.16580 0.17668 0.19015 0.19351 0.20396 0.20396 0.20537 0.22669
 0.22983 0.24678 0.32716 0.34588 0.35629 0.36597 0.36597 0.37791 0.38398 0.38398
 0.38508 0.40927 0.40927 0.41329 0.41395 0.42050 0.43677 0.43677 0.44280 0.45510
 0.46375 0.46375 0.47298 0.47298 0.48092 0.48134 0.49880 0.49880 0.49995 0.50998
 0.51074 0.52427 0.53622 0.55359 0.55359 0.55783 0.57335 0.58022 0.58884 0.59201
 0.59201 0.61720 0.61720 0.63983 0.63983 0.64346 0.64959 0.65591 0.65623 0.65686
 0.69462 0.69462 0.71119 0.71182 0.72851 0.72851 0.73587 0.73587 0.73887 0.74885
 0.76305 0.76305 0.77855 0.78074 0.79284 0.80617 0.81026 0.81026 0.81046 0.81046
 0.82938 0.83762 0.83876 0.84316 0.84903 0.84903 0.85662 0.85662 0.87444 0.88144
 0.88144 0.88192 0.88974 0.90156 0.90274 0.93501 0.93985 0.93985 0.94159 0.94159
 0.95015 0.95929 0.96679 0.96679 0.97117 0.97178 0.97178 0.97710 0.97753 0.98945
 0.98945 1.00416 1.00416 1.01427 1.01808 1.01808 1.01919 1.02467 1.03117 1.03968
 1.08746 1.08746 1.09209 1.09209 1.10348 1.10504 1.10760 1.10760 1.11124 1.12052
 1.12142 1.12142 1.12387 1.14869 1.14869 1.15128 1.15323 1.16055 1.16055 1.16055
 1.19963 1.20932 1.20932 1.21391 1.21391 1.21973 1.24288 1.24288 1.24540 1.25308
 1.26799 1.26799 1.26964 1.28691 1.28937 1.29022 1.29438 1.30485 1.31480 1.32075
 1.32075 1.32675 1.32722 1.34434 1.34434 1.35285 1.37901 1.38973 1.38987 1.38987
 1.40530 1.40530 1.41255 1.41279 1.41861 1.41861 1.42823 1.42985 1.43487 1.44125
 1.44513 1.44612 1.44612 1.46370 1.47595 1.47595 1.47707 1.49823 1.49870 1.49875
 1.50170 1.50170 1.50448 1.52234 1.52234 1.52406 1.53427 1.53427 1.53929 1.54491
 1.55260 1.55260 1.56157 1.56364 1.56364 1.56837 1.58390 1.58528 1.58528 1.60015
 1.60015 1.61393 1.61415 1.61928 1.62565 1.63798 1.63798 1.64772 1.65929 1.65948
 1.67246 1.68553 1.68553 1.70173 1.70855 1.71016 1.72234 1.72535 1.72535 1.72705
 1.74218 1.74218 1.75147 1.76489 1.76941 1.78003 1.78078 1.78078 1.78344 1.78715
 1.78715 1.79890 1.80462 1.81822 1.82406 1.82406 1.82628 1.83507 1.83507 1.84292
 1.85501 1.85501 1.86152 1.88918 1.89423 1.90054 1.90054 1.90175 1.91800 1.91800
 1.91862 1.92182 1.93103 1.93410 1.94192 1.94192 1.94709 1.94709 1.95989 1.96577
 1.96618 1.96660 1.96660 1.97314 1.97314 1.98134 1.98285 2.00705 2.01004 2.01535
 2.01535 2.01799 2.02224 2.02691 2.02691 2.03052 2.03465 2.06234 2.06234 2.06491
 2.07013 2.07013 2.08408 2.09358 2.10076 2.10821 2.11384 2.13185 2.14632 2.14632
 2.14834 2.16019 2.16019 2.16338 2.16896 2.17176 2.17951 2.17951 2.18417 2.18417
 2.19288 2.19606 2.21540 2.21540 2.21731 2.21731 2.23480 2.24583 2.26759 2.26759
 2.27619 2.27619 2.27958 2.28355 2.28530 2.28887 2.29112 2.30686 2.31232 2.34884
 2.34940 2.34940 2.34988 2.35257 2.35257 2.35893 2.36303 2.37087 2.38556 2.38556
 2.39084 2.39084 2.39087 2.39438 2.42075 2.42075 2.42201 2.44253 2.44358 2.45259
 2.45259 2.45818 2.45818 2.46725 2.46725 2.49607 2.51150 2.51150 2.52502 2.52893
 2.53157 2.53457 2.53457 2.53945 2.54615 2.58098 2.59351 2.59351 2.59632 2.59758
 2.62952 2.63557 2.63557 2.65124 2.71219 2.71219 2.71387 2.71387 2.72596 2.79832
 2.94359 2.94359 2.98675 3.01610 3.01610 3.08675 3.13143 3.13143 3.20140 3.35405
 3.36219 3.38480 3.38480 3.46187 3.46327 3.50928 3.50928 3.55386 3.58670 3.59637
 3.61293 3.63610 3.63610 3.69243 3.71346 3.71346 3.81622 3.81622 3.82580 3.82580
 3.84026 3.84026 3.88759 3.88908 3.92908 3.92908 3.93947 3.95636 3.98391 3.98918
 3.99822 4.00044 4.00238 4.00238 4.02648 4.06215 4.08476 4.16277 5.73617 5.73940
 5.97084 6.29108 6.29108 6.55253 6.58404 6.58405 6.87527 6.87527 7.17129 7.37070
 7.49952 7.49952 7.57988 7.75821
 == 61-th k-point (0.00000,0.00000,0.30616) occupation: 112==
 -64.99266 -64.99266 -64.99266 -64.99266 -64.99265 -64.99265 -64.99265 -64.99265 -64.99265 -64.99265
 -64.99265 -64.99265 -64.99264 -64.99264 -64.99263 -64.99263 -4.62158 -4.62158 -4.62156 -4.62156
 -4.62156 -4.62156 -4.62148 -4.62148 -4.62148 -4.62148 -4.62141 -4.62141 -4.62141 -4.62141
 -4.62138 -4.62138 -3.03242 -3.03242 -3.03242 -3.03242 -3.03241 -3.03241 -3.03241 -3.03241
 -3.03239 -3.03239 -3.03239 -3.03239 -3.03238 -3.03238 -3.03238 -3.03238 -3.03225 -3.03225
 -3.03221 -3.03221 -3.03221 -3.03221 -3.03202 -3.03202 -3.03202 -3.03202 -3.03185 -3.03185
 -3.03185 -3.03185 -3.03183 -3.03183 -3.03169 -3.03169 -3.03169 -3.03169 -3.03169 -3.03169
 -3.03169 -3.03169 -3.03165 -3.03165 -3.03165 -3.03165 -3.03163 -3.03163 -3.03163 -3.03163
 -0.12435 -0.12435 -0.08891 -0.08891 -0.08891 -0.08891 -0.00550 -0.00550 -0.00550 -0.00550
 0.07423 0.07423 0.07423 0.07423 0.13287 0.13287 0.13287 0.13287 0.13671 0.13671
 0.13671 0.13671 0.14687 0.14687 0.20541 0.20541 0.20541 0.20541 0.22615 0.22615
 0.22615 0.22615 0.31867 0.31867 0.36822 0.36822 0.36822 0.36822 0.39430 0.39430
 0.43662 0.43662 0.43662 0.43662 0.45430 0.45430 0.45430 0.45430 0.46229 0.46229
 0.46229 0.46229 0.46882 0.46882 0.46882 0.46882 0.49094 0.49094 0.49094 0.49094
 0.50327 0.50327 0.50327 0.50327 0.52398 0.52398 0.52398 0.52398 0.57803 0.57803
 0.61665 0.61665 0.63600 0.63600 0.63600 0.63600 0.67411 0.67411 0.67411 0.67411
 0.69680 0.69680 0.74751 0.74751 0.74751 0.74751 0.76596 0.76596 0.76596 0.76596
 0.77389 0.77389 0.77389 0.77389 0.77665 0.77665 0.77665 0.77665 0.78114 0.78114
 0.78114 0.78114 0.80112 0.80112 0.89415 0.89415 0.89415 0.89415 0.91432 0.91432
 0.91432 0.91432 0.93166 0.93166 0.93166 0.93166 0.93300 0.93300 0.93300 0.93300
 0.94067 0.94067 0.94067 0.94067 0.97532 0.97532 0.97946 0.97946 0.97947 0.97947
 0.98526 0.98526 0.98526 0.98526 0.99313 0.99313 0.99313 0.99313 1.03606 1.03606
 1.03606 1.03606 1.05221 1.05221 1.09108 1.09108 1.09108 1.09108 1.10110 1.10110
 1.17601 1.17601 1.17601 1.17601 1.18594 1.18594 1.18594 1.18594 1.19650 1.19650
 1.19650 1.19650 1.24347 1.24347 1.24347 1.24347 1.25454 1.25454 1.25454 1.25454
 1.30878 1.30878 1.31602 1.31602 1.31602 1.31602 1.31937 1.31937 1.32700 1.32700
 1.32702 1.32702 1.33401 1.33401 1.33402 1.33402 1.38455 1.38455 1.38455 1.38455
 1.39146 1.39146 1.39146 1.39147 1.39737 1.39737 1.39738 1.39738 1.40202 1.40202
 1.40203 1.40203 1.41704 1.41704 1.41704 1.41704 1.45832 1.45832 1.46101 1.46101
 1.46667 1.46667 1.46668 1.46668 1.50244 1.50244 1.50244 1.50244 1.59064 1.59064
 1.59064 1.59064 1.61410 1.61410 1.61413 1.61413 1.62365 1.62365 1.62365 1.62365
 1.62707 1.62707 1.62707 1.62707 1.63706 1.63706 1.63706 1.63706 1.64085 1.64085
 1.71366 1.71366 1.71366 1.71366 1.74042 1.74042 1.74043 1.74043 1.74375 1.74375
 1.74375 1.74375 1.75813 1.75813 1.75813 1.75813 1.75864 1.75864 1.76770 1.76770
 1.76770 1.76770 1.77239 1.77239 1.77240 1.77240 1.78030 1.78030 1.85046 1.85046
 1.85047 1.85047 1.88132 1.88132 1.90515 1.90515 1.90515 1.90515 1.91978 1.91978
 1.91979 1.91979 1.94472 1.94472 1.94472 1.94472 1.97212 1.97212 1.97212 1.97212
 1.98082 1.98082 1.98088 1.98088 1.98093 1.98093 2.01708 2.01708 2.01709 2.01709
 2.04968 2.04968 2.04969 2.04969 2.05128 2.05128 2.05129 2.05129 2.06566 2.06566
 2.10671 2.10671 2.11531 2.11531 2.11532 2.11532 2.12345 2.12345 2.12345 2.12345
 2.15056 2.15056 2.15056 2.15056 2.15118 2.15118 2.15505 2.15505 2.15511 2.15511
 2.16999 2.16999 2.16999 2.16999 2.18862 2.18862 2.18863 2.18863 2.22688 2.22688
 2.27105 2.27105 2.27105 2.27105 2.29500 2.29500 2.29501 2.29501 2.30358 2.30358
 2.30359 2.30359 2.35371 2.35371 2.35372 2.35372 2.36311 2.36311 2.36327 2.36327
 2.40502 2.40502 2.40502 2.40502 2.44517 2.44517 2.44520 2.44520 2.46050 2.46050
 2.49695 2.49695 2.49695 2.49695 2.50168 2.50168 2.50170 2.50170 2.56200 2.56200
 2.56216 2.56216 2.58426 2.58426 2.58426 2.58426 2.60005 2.60005 2.60016 2.60016
 2.68683 2.68683 2.68691 2.68691 2.69418 2.69418 2.69420 2.69420 2.72324 2.72324
 2.88955 2.88955 2.88955 2.88955 3.02574 3.02574 3.02577 3.02577 3.41792 3.41792
 3.41792 3.41792 3.47942 3.47942 3.49117 3.49117 3.49118 3.49118 3.71571 3.71571
 3.71572 3.71572 3.72186 3.72186 3.72212 3.72212 3.72863 3.72863 3.72864 3.72864
 3.87135 3.87135 3.87136 3.87136 3.94560 3.94560 3.94561 3.94561 3.97535 3.97535
 4.04229 4.04229 4.04230 4.04230 4.28005 4.28005 4.28026 4.28026 5.26555 5.26555
 6.01330 6.01330 6.48461 6.48461 6.48463 6.48463 6.77865 6.77865 6.77874 6.77874
 7.55139 7.55139 7.55144 7.55144
 == 62-th k-point (0.07654,0.07654,0.22962) occupation: 112==
 -64.99267 -64.99266 -64.99266 -64.99266 -64.99266 -64.99265 -64.99265 -64.99265 -64.99265 -64.99265
 -64.99265 -64.99265 -64.99264 -64.99264 -64.99263 -64.99263 -4.62160 -4.62158 -4.62156 -4.62155
 -4.62155 -4.62153 -4.62151 -4.62151 -4.62145 -4.62145 -4.62143 -4.62142 -4.62142 -4.62140
 -4.62138 -4.62137 -3.03242 -3.03241 -3.03241 -3.03240 -3.03240 -3.03240 -3.03240 -3.03240
 -3.03239 -3.03239 -3.03239 -3.03239 -3.03239 -3.03238 -3.03238 -3.03237 -3.03229 -3.03227
 -3.03220 -3.03220 -3.03219 -3.03216 -3.03210 -3.03210 -3.03195 -3.03195 -3.03189 -3.03187
 -3.03186 -3.03186 -3.03180 -3.03179 -3.03171 -3.03171 -3.03170 -3.03168 -3.03168 -3.03168
 -3.03168 -3.03167 -3.03166 -3.03165 -3.03165 -3.03165 -3.03165 -3.03164 -3.03163 -3.03163
 -0.13687 -0.11814 -0.09822 -0.08250 -0.08250 -0.05648 -0.03643 -0.03643 0.02090 0.02090
 0.03133 0.06080 0.06080 0.09424 0.10546 0.12527 0.12527 0.12793 0.15279 0.15279
 0.15722 0.16580 0.16580 0.17668 0.19015 0.19351 0.20396 0.20396 0.20537 0.22669
 0.22983 0.24678 0.32716 0.34588 0.35629 0.36597 0.36597 0.37791 0.38398 0.38398
 0.38508 0.40927 0.40927 0.41329 0.41395 0.42050 0.43677 0.43677 0.44280 0.45510
 0.46375 0.46375 0.47298 0.47298 0.48092 0.48134 0.49880 0.49880 0.49995 0.50998
 0.51074 0.52427 0.53622 0.55359 0.55359 0.55783 0.57335 0.58022 0.58884 0.59201
 0.59201 0.61720 0.61720 0.63983 0.63983 0.64346 0.64959 0.65591 0.65623 0.65686
 0.69462 0.69462 0.71119 0.71182 0.72851 0.72851 0.73587 0.73587 0.73887 0.74885
 0.76305 0.76305 0.77855 0.78074 0.79284 0.80617 0.81026 0.81026 0.81046 0.81046
 0.82938 0.83762 0.83876 0.84316 0.84903 0.84903 0.85662 0.85662 0.87444 0.88144
 0.88144 0.88192 0.88974 0.90156 0.90274 0.93501 0.93985 0.93985 0.94159 0.94159
 0.95015 0.95929 0.96679 0.96679 0.97117 0.97178 0.97178 0.97710 0.97753 0.98945
 0.98945 1.00416 1.00416 1.01427 1.01808 1.01808 1.01919 1.02467 1.03117 1.03968
 1.08746 1.08746 1.09209 1.09209 1.10348 1.10504 1.10760 1.10760 1.11124 1.12052
 1.12142 1.12142 1.12387 1.14869 1.14869 1.15128 1.15323 1.16055 1.16055 1.16055
 1.19963 1.20932 1.20932 1.21391 1.21391 1.21973 1.24288 1.24288 1.24540 1.25308
 1.26799 1.26799 1.26964 1.28691 1.28937 1.29022 1.29438 1.30485 1.31480 1.32075
 1.32075 1.32675 1.32722 1.34434 1.34434 1.35285 1.37901 1.38973 1.38987 1.38987
 1.40530 1.40530 1.41255 1.41279 1.41861 1.41861 1.42823 1.42985 1.43487 1.44125
 1.44513 1.44612 1.44612 1.46370 1.47595 1.47595 1.47707 1.49823 1.49870 1.49875
 1.50170 1.50170 1.50448 1.52234 1.52234 1.52406 1.53427 1.53427 1.53929 1.54491
 1.55260 1.55260 1.56157 1.56364 1.56364 1.56837 1.58390 1.58528 1.58528 1.60015
 1.60015 1.61393 1.61415 1.61928 1.62565 1.63798 1.63798 1.64772 1.65929 1.65948
 1.67246 1.68553 1.68553 1.70173 1.70855 1.71016 1.72234 1.72535 1.72535 1.72705
 1.74218 1.74218 1.75147 1.76489 1.76941 1.78003 1.78078 1.78078 1.78344 1.78715
 1.78715 1.79890 1.80462 1.81822 1.82406 1.82406 1.82628 1.83507 1.83507 1.84292
 1.85501 1.85501 1.86152 1.88918 1.89423 1.90054 1.90054 1.90175 1.91800 1.91800
 1.91862 1.92182 1.93103 1.93410 1.94192 1.94192 1.94709 1.94709 1.95989 1.96577
 1.96618 1.96660 1.96660 1.97314 1.97314 1.98134 1.98285 2.00705 2.01004 2.01535
 2.01535 2.01799 2.02224 2.02691 2.02691 2.03052 2.03465 2.06234 2.06234 2.06491
 2.07013 2.07013 2.08408 2.09358 2.10076 2.10821 2.11384 2.13185 2.14632 2.14632
 2.14834 2.16019 2.16019 2.16338 2.16896 2.17176 2.17951 2.17951 2.18417 2.18417
 2.19288 2.19606 2.21540 2.21540 2.21731 2.21731 2.23480 2.24583 2.26759 2.26759
 2.27619 2.27619 2.27958 2.28355 2.28530 2.28887 2.29112 2.30686 2.31232 2.34884
 2.34940 2.34940 2.34988 2.35257 2.35257 2.35893 2.36303 2.37087 2.38556 2.38556
 2.39084 2.39084 2.39087 2.39438 2.42075 2.42075 2.42201 2.44253 2.44358 2.45259
 2.45259 2.45818 2.45818 2.46725 2.46725 2.49607 2.51150 2.51150 2.52502 2.52893
 2.53157 2.53457 2.53457 2.53945 2.54615 2.58098 2.59351 2.59351 2.59632 2.59758
 2.62952 2.63557 2.63557 2.65124 2.71219 2.71219 2.71387 2.71387 2.72596 2.79832
 2.94359 2.94359 2.98675 3.01610 3.01610 3.08675 3.13143 3.13143 3.20140 3.35405
 3.36219 3.38480 3.38480 3.46187 3.46327 3.50928 3.50928 3.55386 3.58670 3.59637
 3.61293 3.63610 3.63610 3.69243 3.71346 3.71346 3.81622 3.81622 3.82580 3.82580
 3.84026 3.84026 3.88759 3.88908 3.92908 3.92908 3.93947 3.95636 3.98391 3.98918
 3.99822 4.00044 4.00238 4.00238 4.02648 4.06215 4.08476 4.16277 5.73617 5.73940
 5.97084 6.29108 6.29108 6.55253 6.58404 6.58405 6.87527 6.87527 7.17129 7.37070
 7.49952 7.49952 7.57988 7.75821
 == 63-th k-point (0.15308,0.15308,0.15308) occupation: 112==
 -64.99267 -64.99267 -64.99267 -64.99267 -64.99267 -64.99267 -64.99266 -64.99266 -64.99263 -64.99263
 -64.99263 -64.99263 -64.99263 -64.99263 -64.99260 -64.99260 -4.62159 -4.62159 -4.62153 -4.62153
 -4.62153 -4.62153 -4.62153 -4.62153 -4.62143 -4.62143 -4.62143 -4.62143 -4.62143 -4.62143
 -4.62137 -4.62137 -3.03241 -3.03240 -3.03240 -3.03240 -3.03240 -3.03240 -3.03240 -3.03240
 -3.03240 -3.03240 -3.03240 -3.03240 -3.03238 -3.03238 -3.03238 -3.03238 -3.03230 -3.03230
 -3.03216 -3.03216 -3.03216 -3.03216 -3.03216 -3.03216 -3.03190 -3.03190 -3.03190 -3.03190
 -3.03190 -3.03190 -3.03176 -3.03176 -3.03171 -3.03171 -3.03171 -3.03171 -3.03167 -3.03167
 -3.03167 -3.03167 -3.03167 -3.03167 -3.03164 -3.03164 -3.03164 -3.03164 -3.03164 -3.03164
 -0.13472 -0.13472 -0.06406 -0.06406 -0.06406 -0.06406 -0.06406 -0.06406 0.04092 0.04092
 0.04092 0.04092 0.04092 0.04092 0.13112 0.13112 0.14489 0.14489 0.14489 0.14489
 0.14489 0.14489 0.19356 0.19356 0.19356 0.19356 0.19356 0.19356 0.24742 0.24742
 0.24742 0.24742 0.33382 0.33382 0.33382 0.33382 0.33382 0.33382 0.35239 0.35239
 0.40695 0.40695 0.40695 0.40695 0.44296 0.44296 0.44296 0.44296 0.44296 0.44296
 0.49004 0.49004 0.49004 0.49004 0.49004 0.49004 0.49817 0.49817 0.49817 0.49817
 0.49817 0.49817 0.53135 0.53135 0.55118 0.55118 0.55118 0.55118 0.62166 0.62166
 0.65670 0.65670 0.65670 0.65670 0.65670 0.65670 0.67643 0.67643 0.67643 0.67643
 0.67643 0.67643 0.71576 0.71576 0.73796 0.73796 0.73796 0.73796 0.73796 0.73796
 0.75341 0.75341 0.75341 0.75341 0.75341 0.75341 0.76657 0.76657 0.76657 0.76657
 0.76657 0.76657 0.83801 0.83801 0.83801 0.83801 0.90808 0.90808 0.90808 0.90808
 0.90808 0.90808 0.96059 0.96059 0.96059 0.96059 0.96059 0.96059 0.96845 0.96845
 0.96845 0.96845 0.97200 0.97200 0.98010 0.98010 0.98010 0.98010 0.98010 0.98010
 1.02541 1.02541 1.02541 1.02541 1.02541 1.02541 1.02619 1.02619 1.02619 1.02619
 1.02619 1.02619 1.04390 1.04390 1.04390 1.04390 1.04390 1.04390 1.04718 1.04718
 1.16472 1.16472 1.16472 1.16472 1.16472 1.16472 1.18907 1.18907 1.18907 1.18907
 1.18907 1.18907 1.22178 1.22178 1.22178 1.22178 1.24832 1.24832 1.24832 1.24832
 1.24832 1.24832 1.26061 1.26061 1.26061 1.26061 1.26061 1.26061 1.29497 1.29497
 1.29497 1.29497 1.35688 1.35688 1.39506 1.39506 1.39506 1.39506 1.39506 1.39506
 1.39562 1.39562 1.43794 1.43794 1.43794 1.43794 1.43794 1.43794 1.44544 1.44544
 1.46506 1.46506 1.46506 1.46506 1.46506 1.46506 1.47765 1.47765 1.47765 1.47765
 1.47765 1.47765 1.52489 1.52489 1.52489 1.52489 1.52489 1.52489 1.55173 1.55173
 1.55173 1.55173 1.58838 1.58838 1.58838 1.58838 1.61797 1.61797 1.61797 1.61797
 1.62449 1.62449 1.62449 1.62449 1.62449 1.62449 1.68810 1.68810 1.68810 1.68810
 1.68810 1.68810 1.69857 1.69857 1.69857 1.69857 1.69857 1.69857 1.72722 1.72722
 1.72722 1.72722 1.72722 1.72722 1.77723 1.77723 1.78275 1.78275 1.78275 1.78275
 1.80550 1.80550 1.80550 1.80550 1.80550 1.80550 1.81645 1.81645 1.81645 1.81645
 1.81645 1.81645 1.87932 1.87932 1.87932 1.87932 1.87932 1.87932 1.90154 1.90154
 1.94857 1.94857 1.94857 1.94857 1.94857 1.94857 1.96500 1.96500 1.98055 1.98055
 1.98055 1.98055 1.98509 1.98509 2.00479 2.00479 2.00479 2.00479 2.00479 2.00479
 2.01840 2.01840 2.01840 2.01840 2.01840 2.01840 2.06719 2.06719 2.10098 2.10098
 2.10098 2.10098 2.10098 2.10098 2.10752 2.10752 2.10752 2.10752 2.10752 2.10752
 2.12022 2.12022 2.12022 2.12022 2.18173 2.18173 2.18173 2.18173 2.18173 2.18173
 2.25808 2.25808 2.25808 2.25808 2.25808 2.25808 2.27219 2.27219 2.27219 2.27219
 2.29267 2.29267 2.30241 2.30241 2.30241 2.30241 2.30241 2.30241 2.33235 2.33235
 2.33235 2.33235 2.36418 2.36418 2.36418 2.36418 2.36418 2.36418 2.39731 2.39731
 2.39731 2.39731 2.39731 2.39731 2.40130 2.40130 2.40130 2.40130 2.40130 2.40130
 2.42320 2.42320 2.42320 2.42320 2.42320 2.42320 2.49729 2.49729 2.52705 2.52705
 2.52705 2.52705 2.52705 2.52705 2.57510 2.57510 2.57510 2.57510 2.57510 2.57510
 2.61339 2.61339 2.61339 2.61339 2.69105 2.69105 2.69105 2.69105 2.69105 2.69105
 3.17575 3.17575 3.17575 3.17575 3.17575 3.17575 3.32286 3.32286 3.32286 3.32286
 3.32286 3.32286 3.33175 3.33175 3.55659 3.55659 3.55659 3.55659 3.55659 3.55659
 3.73576 3.73576 3.73576 3.73576 3.73576 3.73576 3.82339 3.82339 3.82517 3.82517
 3.82517 3.82517 3.92866 3.92866 3.92866 3.92866 3.92866 3.92866 3.97887 3.97887
 3.97887 3.97887 3.97887 3.97887 4.03133 4.03133 4.03133 4.03133 4.35100 4.35100
 5.71947 5.71947 5.71947 5.71947 5.71947 5.71947 7.65348 7.65348 7.84706 7.84706
 7.84706 7.84706 7.84706 7.84706
 ---------------------------------------------------------------------------
 VBM is at 21-th k-point with 7.51292 eV
 CBM is at 16-th k-point with 8.16562 eV
 Band gap is 0.65269 eV


           Ground-State Mulliken Net Atomic Charges

      Atom                 Charge (a.u.)          Spin (a.u.)
   --------------------------------------------------------
      1 Si              (-0.000001,-0.000000)    (0.000000,0.000000)
      2 Si                (0.000001,0.000000)    (0.000000,0.000000)
      3 Si              (-0.000001,-0.000000)    (0.000000,0.000000)
      4 Si                (0.000001,0.000000)    (0.000000,0.000000)
      5 Si              (-0.000001,-0.000000)    (0.000000,0.000000)
      6 Si               (-0.000000,0.000000)    (0.000000,0.000000)
      7 Si               (-0.000001,0.000000)    (0.000000,0.000000)
      8 Si                (0.000000,0.000000)    (0.000000,0.000000)
      9 Si              (-0.000000,-0.000000)    (0.000000,0.000000)
     10 Si               (-0.000000,0.000000)    (0.000000,0.000000)
     11 Si               (-0.000001,0.000000)    (0.000000,0.000000)
     12 Si                (0.000000,0.000000)    (0.000000,0.000000)
     13 Si               (0.000000,-0.000000)    (0.000000,0.000000)
     14 Si                (0.000001,0.000000)    (0.000000,0.000000)
     15 Si                (0.000000,0.000000)    (0.000000,0.000000)
     16 Si                (0.000001,0.000000)    (0.000000,0.000000)
   --------------------------------------------------------
  Sum of atomic charges =     (-0.000000,-0.000000)
  Sum of spin   charges =       (0.000000,0.000000)



 Total job time:  1226.94 s.
 Mon Sep  8 04:21:09 2025


        *************************************************************
        *                                                           *
        *  Thank you very much for using QCPBC. Have a nice day.    *
        *                                                           *
        *************************************************************

