                  Welcome to Q-Chem
           with Periodic Boundary Condition
     A Quantum Leap Into The Future Of Chemistry

 Adam Rettig, Xintian Feng, Meng-Fu Chen, Hieu Dinh, Stephen Quiton,
 Anton Ni, Paul J. Robinson, Jinghong Zhang, Joonho Lee

Contributors to earlier versions of Q-Chem not listed above:
 Evgeny Epifanovsky, Leo Cunha, Jerome F. Gonthier, Kuan-Yu Liu
 Input file: /n/home02/hieudinh/rsdf_test_full_J/benchmark_pyscf/si/qcpbc/si_ccpvtz_333.in
 Scratch folder: /n/netscratch/joonholee_lab/Lab/hieudinh//nhome02hieudinhrsdf_test_full_Jbenchmark_pyscfsiqcpbcsi_ccpvtz_333.scratch20250908035344
 Auxillary files located at: /n/holylabs/LABS/joonholee_lab/Lab/qchem_base/qcaux
 Q-Chem begins on Mon Sep  8 03:53:44 2025

 -------------------------------------------------------------
 User input:
 -------------------------------------------------------------
 $lattice
 3
 0.000000 10.261200 10.261200
 10.261200 0.000000 10.261200
 10.261200 10.261200 0.000000
 $end
 
 $unitcell
 ABSOLUTE
 0 1
 Si 0.000000 0.000000 0.000000
 Si 2.565300 2.565300 2.565300
 Si 5.130600 5.130600 0.000000
 Si 7.695900 7.695900 2.565300
 Si 5.130600 0.000000 5.130600
 Si 7.695900 2.565300 7.695900
 Si 10.261200 5.130600 5.130600
 Si 12.826500 7.695900 7.695900
 Si 0.000000 5.130600 5.130600
 Si 2.565300 7.695900 7.695900
 Si 5.130600 10.261200 5.130600
 Si 7.695900 12.826500 7.695900
 Si 5.130600 5.130600 10.261200
 Si 7.695900 7.695900 12.826500
 Si 10.261200 10.261200 10.261200
 Si 12.826500 12.826500 12.826500
 $end
 $rem
 jobtype = sp
 method = pbe
 scf_convergence = 5
 scf_guess = autosad
 scf_algorithm = diis_gdm
 basis = gen
 aux_basis = gen
 input_bohr = true
 symmetry false
 latsum_factor 1.0
 
 mp_mesh = [3,3,3]
 
 integral_direct true
 bvk_cgto true
 
 thresh 14
 mem_total 1000000
 threads 32
 
 MAX_SCF_CYCLES 500
 madelung = false
 omega 0.4
 do_rij_bigmem true
 automate_g true
 print_level 10
 rsdf_print_level 1
 grid_type_xc 1 
 
 thresh_1e2c_sp 1e-14
 thresh_2e3c_bra_ket_sep 1e-10
 thresh_g 1e-12
 $end
 
 $basis
 Si     0
 S   13   1.00
       2.549000D+05           6.251010D-05
       3.819000D+04           4.855530D-04
       8.690000D+03           2.545160D-03
       2.462000D+03           1.058660D-02
       8.048000D+02           3.687870D-02
       2.913000D+02           1.074790D-01
       1.136000D+02           2.479360D-01
       4.675000D+01           3.909270D-01
       1.982000D+01           3.020260D-01
       7.708000D+00           5.592360D-02
       3.340000D+00          -4.024060D-03
       1.402000D+00           2.580300D-03
       2.070000D-01           6.079300D-04
 S   13   1.00
       2.549000D+05          -1.663700D-05
       3.819000D+04          -1.293100D-04
       8.690000D+03          -6.788280D-04
       2.462000D+03          -2.841170D-03
       8.048000D+02          -1.005510D-02
       2.913000D+02          -3.057740D-02
       1.136000D+02          -7.772560D-02
       4.675000D+01          -1.542360D-01
       1.982000D+01          -1.803680D-01
       7.708000D+00           7.982180D-02
       3.340000D+00           5.474410D-01
       1.402000D+00           4.801190D-01
       2.070000D-01          -1.069960D-02
 S   13   1.00
       2.549000D+05           4.262570D-06
       3.819000D+04           3.310620D-05
       8.690000D+03           1.740150D-04
       2.462000D+03           7.275740D-04
       8.048000D+02           2.583330D-03
       2.913000D+02           7.863540D-03
       1.136000D+02           2.021550D-02
       4.675000D+01           4.073200D-02
       1.982000D+01           4.993580D-02
       7.708000D+00          -2.493960D-02
       3.340000D+00          -1.903500D-01
       1.402000D+00          -3.183500D-01
       2.070000D-01           6.811800D-01
 S   1   1.00
       4.387000D-01           1.000000D+00
 S   1   1.00
       7.944000D-02           1.000000D+00
 P   7   1.00
       4.815000D+02           1.920450D-03
       1.139000D+02           1.535520D-02
       3.623000D+01           7.139910D-02
       1.334000D+01           2.130520D-01
       5.252000D+00           3.903540D-01
       2.120000D+00           3.937210D-01
       2.528000D-01           3.956300D-03
 P   7   1.00
       4.815000D+02          -4.052200D-04
       1.139000D+02          -3.358960D-03
       3.623000D+01          -1.528600D-02
       1.334000D+01          -4.892180D-02
       5.252000D+00          -8.550080D-02
       2.120000D+00          -1.121370D-01
       2.528000D-01           5.519190D-01
 P   1   1.00
       8.561000D-01           1.000000D+00
 P   1   1.00
       7.889000D-02           1.000000D+00
 D   1   1.00
       4.810000D-01           1.000000D+00
 D   1   1.00
       1.590000D-01           1.000000D+00
 F   1   1.00
       3.360000D-01           1.0000000
 ****
 $end
 
 $aux_basis
 Si     0
 S   1   1.00
    3966.7823006              1.0000000
 S   1   1.00
     913.65240130             1.0000000
 S   1   1.00
     309.47572532             1.0000000
 S   1   1.00
     121.48371896             1.0000000
 S   1   1.00
      51.949842541            1.0000000
 S   1   1.00
      22.531415259            1.0000000
 S   1   1.00
       8.6118544488           1.0000000
 S   1   1.00
       4.0353794583           1.0000000
 S   1   1.00
       1.5605354258           1.0000000
 S   1   1.00
       0.82658343937          1.0000000
 S   1   1.00
       0.48403471116          1.0000000
 S   1   1.00
       0.28757870174          1.0000000
 S   1   1.00
       0.13188187610          1.0000000
 P   1   1.00
     629.30680737             1.0000000
 P   1   1.00
     255.71500914             1.0000000
 P   1   1.00
     109.29630664             1.0000000
 P   1   1.00
      45.943769765            1.0000000
 P   1   1.00
      19.784226943            1.0000000
 P   1   1.00
       9.7746090299           1.0000000
 P   1   1.00
       4.6426781657           1.0000000
 P   1   1.00
       2.0449974109           1.0000000
 P   1   1.00
       0.82208144153          1.0000000
 P   1   1.00
       0.40978741460          1.0000000
 P   1   1.00
       0.18451465956          1.0000000
 D   1   1.00
     181.67344614             1.0000000
 D   1   1.00
      59.654414923            1.0000000
 D   1   1.00
      25.353983605            1.0000000
 D   1   1.00
      11.718973530            1.0000000
 D   1   1.00
       5.4455778078           1.0000000
 D   1   1.00
       2.4659440013           1.0000000
 D   1   1.00
       1.0365292729           1.0000000
 D   1   1.00
       0.41097001308          1.0000000
 D   1   1.00
       0.16950067844          1.0000000
 F   1   1.00
       1.9560745621690000000  1.0000000
 F   1   1.00
        .55887844633400000000 1.0000000
 F   1   1.00
        .23687844633400000000 1.0000000
 G   1   1.00
        .41387844633400000000 1.0000000
 ****
 $end
 -------------------------------------------------------------
 Running PBC job

 Requested Exchange Correlation Functionals: 
  DFT Exchange:  1.00000 pbe_x
  DFT Correlation:  1.00000 pbe_c
 using 32 threads for computing.
 ---------------------------------------------------------------
      Coordinates of Atoms in Central Unit Cell (Angstroms)
    I     Atom         X            Y            Z
 ---------------------------------------------------------------
    1      Si      0.000000     0.000000     0.000000
    2      Si      1.357498     1.357498     1.357498
    3      Si      2.714997     2.714997     0.000000
    4      Si      4.072495     4.072495     1.357498
    5      Si      2.714997     0.000000     2.714997
    6      Si      4.072495     1.357498     4.072495
    7      Si      5.429993     2.714997     2.714997
    8      Si      6.787491     4.072495     4.072495
    9      Si      0.000000     2.714997     2.714997
   10      Si      1.357498     4.072495     4.072495
   11      Si      2.714997     5.429993     2.714997
   12      Si      4.072495     6.787491     4.072495
   13      Si      2.714997     2.714997     5.429993
   14      Si      4.072495     4.072495     6.787491
   15      Si      5.429993     5.429993     5.429993
   16      Si      6.787491     6.787491     6.787491
 ---------------------------------------------------------------
 --------------------------------------------------
              Lattice Vectors (Angstroms)
              X            Y            Z
 --------------------------------------------------
   X       0.000000     5.429993     5.429993
   Y       5.429993     0.000000     5.429993
   Z       5.429993     5.429993     0.000000
 --------------------------------------------------
 --------------------------------------------------
       Reciprocal Lattice Vectors (Angstroms^-1)
              X            Y            Z
 --------------------------------------------------
   X      -0.578563     0.578563     0.578563
   Y       0.578563    -0.578563     0.578563
   Z       0.578563     0.578563    -0.578563
 --------------------------------------------------

 Single point calculation requested

 Hamiltonian contributions:
 List of terms in Hamiltonian: kpts_nn, kpts_kinetic, kpts_vnuc_df, kpts_xc, kpts_rij_bigmem

 K-Points calculation started.

 Basis set information about using solid harmonic (1) or Cartesian (0):
  si : D(1) D(1) F(1) 

 Basis set information about using solid harmonic (1) or Cartesian (0):
  si : D(1) D(1) D(1) D(1) D(1) D(1) D(1) D(1) D(1) F(1) F(1) F(1) G(1) 

 There are 544 basis functions in the central unit cell.
 Print atomic basis of atoms in the central unit cell:
 -------------------------------------------------------------
16 432 960 144

  0.00000000000000e+00  0.00000000000000e+00  0.00000000000000e+00
  2.56530000000000e+00  2.56530000000000e+00  2.56530000000000e+00
  5.13060000000000e+00  5.13060000000000e+00  0.00000000000000e+00
  7.69590000000000e+00  7.69590000000000e+00  2.56530000000000e+00
  5.13060000000000e+00  0.00000000000000e+00  5.13060000000000e+00
  7.69590000000000e+00  2.56530000000000e+00  7.69590000000000e+00
  1.02612000000000e+01  5.13060000000000e+00  5.13060000000000e+00
  1.28265000000000e+01  7.69590000000000e+00  7.69590000000000e+00
  0.00000000000000e+00  5.13060000000000e+00  5.13060000000000e+00
  2.56530000000000e+00  7.69590000000000e+00  7.69590000000000e+00
  5.13060000000000e+00  1.02612000000000e+01  5.13060000000000e+00
  7.69590000000000e+00  1.28265000000000e+01  7.69590000000000e+00
  5.13060000000000e+00  5.13060000000000e+00  1.02612000000000e+01
  7.69590000000000e+00  7.69590000000000e+00  1.28265000000000e+01
  1.02612000000000e+01  1.02612000000000e+01  1.02612000000000e+01
  1.28265000000000e+01  1.28265000000000e+01  1.28265000000000e+01

  2.54900000000000e+05
  3.81900000000000e+04
  8.69000000000000e+03
  2.46200000000000e+03
  8.04800000000000e+02
  2.91300000000000e+02
  1.13600000000000e+02
  4.67500000000000e+01
  1.98200000000000e+01
  7.70800000000000e+00
  3.34000000000000e+00
  1.40200000000000e+00
  2.07000000000000e-01
  4.38700000000000e-01
  7.94400000000000e-02
  4.81500000000000e+02
  1.13900000000000e+02
  3.62300000000000e+01
  1.33400000000000e+01
  5.25200000000000e+00
  2.12000000000000e+00
  2.52800000000000e-01
  8.56100000000000e-01
  7.88900000000000e-02
  4.81000000000000e-01
  1.59000000000000e-01
  3.36000000000000e-01
  2.54900000000000e+05
  3.81900000000000e+04
  8.69000000000000e+03
  2.46200000000000e+03
  8.04800000000000e+02
  2.91300000000000e+02
  1.13600000000000e+02
  4.67500000000000e+01
  1.98200000000000e+01
  7.70800000000000e+00
  3.34000000000000e+00
  1.40200000000000e+00
  2.07000000000000e-01
  4.38700000000000e-01
  7.94400000000000e-02
  4.81500000000000e+02
  1.13900000000000e+02
  3.62300000000000e+01
  1.33400000000000e+01
  5.25200000000000e+00
  2.12000000000000e+00
  2.52800000000000e-01
  8.56100000000000e-01
  7.88900000000000e-02
  4.81000000000000e-01
  1.59000000000000e-01
  3.36000000000000e-01
  2.54900000000000e+05
  3.81900000000000e+04
  8.69000000000000e+03
  2.46200000000000e+03
  8.04800000000000e+02
  2.91300000000000e+02
  1.13600000000000e+02
  4.67500000000000e+01
  1.98200000000000e+01
  7.70800000000000e+00
  3.34000000000000e+00
  1.40200000000000e+00
  2.07000000000000e-01
  4.38700000000000e-01
  7.94400000000000e-02
  4.81500000000000e+02
  1.13900000000000e+02
  3.62300000000000e+01
  1.33400000000000e+01
  5.25200000000000e+00
  2.12000000000000e+00
  2.52800000000000e-01
  8.56100000000000e-01
  7.88900000000000e-02
  4.81000000000000e-01
  1.59000000000000e-01
  3.36000000000000e-01
  2.54900000000000e+05
  3.81900000000000e+04
  8.69000000000000e+03
  2.46200000000000e+03
  8.04800000000000e+02
  2.91300000000000e+02
  1.13600000000000e+02
  4.67500000000000e+01
  1.98200000000000e+01
  7.70800000000000e+00
  3.34000000000000e+00
  1.40200000000000e+00
  2.07000000000000e-01
  4.38700000000000e-01
  7.94400000000000e-02
  4.81500000000000e+02
  1.13900000000000e+02
  3.62300000000000e+01
  1.33400000000000e+01
  5.25200000000000e+00
  2.12000000000000e+00
  2.52800000000000e-01
  8.56100000000000e-01
  7.88900000000000e-02
  4.81000000000000e-01
  1.59000000000000e-01
  3.36000000000000e-01
  2.54900000000000e+05
  3.81900000000000e+04
  8.69000000000000e+03
  2.46200000000000e+03
  8.04800000000000e+02
  2.91300000000000e+02
  1.13600000000000e+02
  4.67500000000000e+01
  1.98200000000000e+01
  7.70800000000000e+00
  3.34000000000000e+00
  1.40200000000000e+00
  2.07000000000000e-01
  4.38700000000000e-01
  7.94400000000000e-02
  4.81500000000000e+02
  1.13900000000000e+02
  3.62300000000000e+01
  1.33400000000000e+01
  5.25200000000000e+00
  2.12000000000000e+00
  2.52800000000000e-01
  8.56100000000000e-01
  7.88900000000000e-02
  4.81000000000000e-01
  1.59000000000000e-01
  3.36000000000000e-01
  2.54900000000000e+05
  3.81900000000000e+04
  8.69000000000000e+03
  2.46200000000000e+03
  8.04800000000000e+02
  2.91300000000000e+02
  1.13600000000000e+02
  4.67500000000000e+01
  1.98200000000000e+01
  7.70800000000000e+00
  3.34000000000000e+00
  1.40200000000000e+00
  2.07000000000000e-01
  4.38700000000000e-01
  7.94400000000000e-02
  4.81500000000000e+02
  1.13900000000000e+02
  3.62300000000000e+01
  1.33400000000000e+01
  5.25200000000000e+00
  2.12000000000000e+00
  2.52800000000000e-01
  8.56100000000000e-01
  7.88900000000000e-02
  4.81000000000000e-01
  1.59000000000000e-01
  3.36000000000000e-01
  2.54900000000000e+05
  3.81900000000000e+04
  8.69000000000000e+03
  2.46200000000000e+03
  8.04800000000000e+02
  2.91300000000000e+02
  1.13600000000000e+02
  4.67500000000000e+01
  1.98200000000000e+01
  7.70800000000000e+00
  3.34000000000000e+00
  1.40200000000000e+00
  2.07000000000000e-01
  4.38700000000000e-01
  7.94400000000000e-02
  4.81500000000000e+02
  1.13900000000000e+02
  3.62300000000000e+01
  1.33400000000000e+01
  5.25200000000000e+00
  2.12000000000000e+00
  2.52800000000000e-01
  8.56100000000000e-01
  7.88900000000000e-02
  4.81000000000000e-01
  1.59000000000000e-01
  3.36000000000000e-01
  2.54900000000000e+05
  3.81900000000000e+04
  8.69000000000000e+03
  2.46200000000000e+03
  8.04800000000000e+02
  2.91300000000000e+02
  1.13600000000000e+02
  4.67500000000000e+01
  1.98200000000000e+01
  7.70800000000000e+00
  3.34000000000000e+00
  1.40200000000000e+00
  2.07000000000000e-01
  4.38700000000000e-01
  7.94400000000000e-02
  4.81500000000000e+02
  1.13900000000000e+02
  3.62300000000000e+01
  1.33400000000000e+01
  5.25200000000000e+00
  2.12000000000000e+00
  2.52800000000000e-01
  8.56100000000000e-01
  7.88900000000000e-02
  4.81000000000000e-01
  1.59000000000000e-01
  3.36000000000000e-01
  2.54900000000000e+05
  3.81900000000000e+04
  8.69000000000000e+03
  2.46200000000000e+03
  8.04800000000000e+02
  2.91300000000000e+02
  1.13600000000000e+02
  4.67500000000000e+01
  1.98200000000000e+01
  7.70800000000000e+00
  3.34000000000000e+00
  1.40200000000000e+00
  2.07000000000000e-01
  4.38700000000000e-01
  7.94400000000000e-02
  4.81500000000000e+02
  1.13900000000000e+02
  3.62300000000000e+01
  1.33400000000000e+01
  5.25200000000000e+00
  2.12000000000000e+00
  2.52800000000000e-01
  8.56100000000000e-01
  7.88900000000000e-02
  4.81000000000000e-01
  1.59000000000000e-01
  3.36000000000000e-01
  2.54900000000000e+05
  3.81900000000000e+04
  8.69000000000000e+03
  2.46200000000000e+03
  8.04800000000000e+02
  2.91300000000000e+02
  1.13600000000000e+02
  4.67500000000000e+01
  1.98200000000000e+01
  7.70800000000000e+00
  3.34000000000000e+00
  1.40200000000000e+00
  2.07000000000000e-01
  4.38700000000000e-01
  7.94400000000000e-02
  4.81500000000000e+02
  1.13900000000000e+02
  3.62300000000000e+01
  1.33400000000000e+01
  5.25200000000000e+00
  2.12000000000000e+00
  2.52800000000000e-01
  8.56100000000000e-01
  7.88900000000000e-02
  4.81000000000000e-01
  1.59000000000000e-01
  3.36000000000000e-01
  2.54900000000000e+05
  3.81900000000000e+04
  8.69000000000000e+03
  2.46200000000000e+03
  8.04800000000000e+02
  2.91300000000000e+02
  1.13600000000000e+02
  4.67500000000000e+01
  1.98200000000000e+01
  7.70800000000000e+00
  3.34000000000000e+00
  1.40200000000000e+00
  2.07000000000000e-01
  4.38700000000000e-01
  7.94400000000000e-02
  4.81500000000000e+02
  1.13900000000000e+02
  3.62300000000000e+01
  1.33400000000000e+01
  5.25200000000000e+00
  2.12000000000000e+00
  2.52800000000000e-01
  8.56100000000000e-01
  7.88900000000000e-02
  4.81000000000000e-01
  1.59000000000000e-01
  3.36000000000000e-01
  2.54900000000000e+05
  3.81900000000000e+04
  8.69000000000000e+03
  2.46200000000000e+03
  8.04800000000000e+02
  2.91300000000000e+02
  1.13600000000000e+02
  4.67500000000000e+01
  1.98200000000000e+01
  7.70800000000000e+00
  3.34000000000000e+00
  1.40200000000000e+00
  2.07000000000000e-01
  4.38700000000000e-01
  7.94400000000000e-02
  4.81500000000000e+02
  1.13900000000000e+02
  3.62300000000000e+01
  1.33400000000000e+01
  5.25200000000000e+00
  2.12000000000000e+00
  2.52800000000000e-01
  8.56100000000000e-01
  7.88900000000000e-02
  4.81000000000000e-01
  1.59000000000000e-01
  3.36000000000000e-01
  2.54900000000000e+05
  3.81900000000000e+04
  8.69000000000000e+03
  2.46200000000000e+03
  8.04800000000000e+02
  2.91300000000000e+02
  1.13600000000000e+02
  4.67500000000000e+01
  1.98200000000000e+01
  7.70800000000000e+00
  3.34000000000000e+00
  1.40200000000000e+00
  2.07000000000000e-01
  4.38700000000000e-01
  7.94400000000000e-02
  4.81500000000000e+02
  1.13900000000000e+02
  3.62300000000000e+01
  1.33400000000000e+01
  5.25200000000000e+00
  2.12000000000000e+00
  2.52800000000000e-01
  8.56100000000000e-01
  7.88900000000000e-02
  4.81000000000000e-01
  1.59000000000000e-01
  3.36000000000000e-01
  2.54900000000000e+05
  3.81900000000000e+04
  8.69000000000000e+03
  2.46200000000000e+03
  8.04800000000000e+02
  2.91300000000000e+02
  1.13600000000000e+02
  4.67500000000000e+01
  1.98200000000000e+01
  7.70800000000000e+00
  3.34000000000000e+00
  1.40200000000000e+00
  2.07000000000000e-01
  4.38700000000000e-01
  7.94400000000000e-02
  4.81500000000000e+02
  1.13900000000000e+02
  3.62300000000000e+01
  1.33400000000000e+01
  5.25200000000000e+00
  2.12000000000000e+00
  2.52800000000000e-01
  8.56100000000000e-01
  7.88900000000000e-02
  4.81000000000000e-01
  1.59000000000000e-01
  3.36000000000000e-01
  2.54900000000000e+05
  3.81900000000000e+04
  8.69000000000000e+03
  2.46200000000000e+03
  8.04800000000000e+02
  2.91300000000000e+02
  1.13600000000000e+02
  4.67500000000000e+01
  1.98200000000000e+01
  7.70800000000000e+00
  3.34000000000000e+00
  1.40200000000000e+00
  2.07000000000000e-01
  4.38700000000000e-01
  7.94400000000000e-02
  4.81500000000000e+02
  1.13900000000000e+02
  3.62300000000000e+01
  1.33400000000000e+01
  5.25200000000000e+00
  2.12000000000000e+00
  2.52800000000000e-01
  8.56100000000000e-01
  7.88900000000000e-02
  4.81000000000000e-01
  1.59000000000000e-01
  3.36000000000000e-01
  2.54900000000000e+05
  3.81900000000000e+04
  8.69000000000000e+03
  2.46200000000000e+03
  8.04800000000000e+02
  2.91300000000000e+02
  1.13600000000000e+02
  4.67500000000000e+01
  1.98200000000000e+01
  7.70800000000000e+00
  3.34000000000000e+00
  1.40200000000000e+00
  2.07000000000000e-01
  4.38700000000000e-01
  7.94400000000000e-02
  4.81500000000000e+02
  1.13900000000000e+02
  3.62300000000000e+01
  1.33400000000000e+01
  5.25200000000000e+00
  2.12000000000000e+00
  2.52800000000000e-01
  8.56100000000000e-01
  7.88900000000000e-02
  4.81000000000000e-01
  1.59000000000000e-01
  3.36000000000000e-01

  5.05342882924414e-01
  9.45273469411120e-01
  1.63244480027292e+00
  2.63682388500924e+00
  3.97100251949347e+00
  5.40054468526540e+00
  6.14797258543505e+00
  4.98070088997371e+00
  2.02176489746253e+00
  1.84357149094381e-01
 -7.08488623570591e-03
  2.36913493026560e-03
  1.32950482512095e-04
 -1.38957418994420e-01
 -2.60090027852347e-01
 -4.49835706775664e-01
 -7.31126629696563e-01
 -1.11861777375438e+00
 -1.58739593447389e+00
 -1.99125636701477e+00
 -2.03025837503363e+00
 -1.24743111609232e+00
  2.71867405206707e-01
  9.95810075477156e-01
  4.55448471363036e-01
 -2.41754544584911e-03
  5.58641690839409e-02
  1.04485498965527e-01
  1.80940572893667e-01
  2.93783669027015e-01
  4.50951988226580e-01
  6.40557184508875e-01
  8.12648389129307e-01
  8.41310655339178e-01
  5.41906290515089e-01
 -1.33284671521752e-01
 -5.43309343865180e-01
 -4.73860280618372e-01
  2.41503867585103e-01
  3.84180942836044e-01
  1.06644759418552e-01
  6.70133452164188e+00
  8.83940558806038e+00
  9.81840820158908e+00
  8.40317351789580e+00
  4.80150582160193e+00
  1.55819330730478e+00
  1.09716888313239e-03
 -2.35644848731218e+00
 -3.22241300088705e+00
 -3.50308751124858e+00
 -3.21565115351729e+00
 -1.75266045923181e+00
 -7.39589051144409e-01
  2.55075294015732e-01
  1.17380433533106e+00
  5.95960578383022e-02
  4.57260134599596e-01
  6.58952976069849e-02
  1.26537084505476e-01
  5.05342882924414e-01
  9.45273469411120e-01
  1.63244480027292e+00
  2.63682388500924e+00
  3.97100251949347e+00
  5.40054468526540e+00
  6.14797258543505e+00
  4.98070088997371e+00
  2.02176489746253e+00
  1.84357149094381e-01
 -7.08488623570591e-03
  2.36913493026560e-03
  1.32950482512095e-04
 -1.38957418994420e-01
 -2.60090027852347e-01
 -4.49835706775664e-01
 -7.31126629696563e-01
 -1.11861777375438e+00
 -1.58739593447389e+00
 -1.99125636701477e+00
 -2.03025837503363e+00
 -1.24743111609232e+00
  2.71867405206707e-01
  9.95810075477156e-01
  4.55448471363036e-01
 -2.41754544584911e-03
  5.58641690839409e-02
  1.04485498965527e-01
  1.80940572893667e-01
  2.93783669027015e-01
  4.50951988226580e-01
  6.40557184508875e-01
  8.12648389129307e-01
  8.41310655339178e-01
  5.41906290515089e-01
 -1.33284671521752e-01
 -5.43309343865180e-01
 -4.73860280618372e-01
  2.41503867585103e-01
  3.84180942836044e-01
  1.06644759418552e-01
  6.70133452164188e+00
  8.83940558806038e+00
  9.81840820158908e+00
  8.40317351789580e+00
  4.80150582160193e+00
  1.55819330730478e+00
  1.09716888313239e-03
 -2.35644848731218e+00
 -3.22241300088705e+00
 -3.50308751124858e+00
 -3.21565115351729e+00
 -1.75266045923181e+00
 -7.39589051144409e-01
  2.55075294015732e-01
  1.17380433533106e+00
  5.95960578383022e-02
  4.57260134599596e-01
  6.58952976069849e-02
  1.26537084505476e-01
  5.05342882924414e-01
  9.45273469411120e-01
  1.63244480027292e+00
  2.63682388500924e+00
  3.97100251949347e+00
  5.40054468526540e+00
  6.14797258543505e+00
  4.98070088997371e+00
  2.02176489746253e+00
  1.84357149094381e-01
 -7.08488623570591e-03
  2.36913493026560e-03
  1.32950482512095e-04
 -1.38957418994420e-01
 -2.60090027852347e-01
 -4.49835706775664e-01
 -7.31126629696563e-01
 -1.11861777375438e+00
 -1.58739593447389e+00
 -1.99125636701477e+00
 -2.03025837503363e+00
 -1.24743111609232e+00
  2.71867405206707e-01
  9.95810075477156e-01
  4.55448471363036e-01
 -2.41754544584911e-03
  5.58641690839409e-02
  1.04485498965527e-01
  1.80940572893667e-01
  2.93783669027015e-01
  4.50951988226580e-01
  6.40557184508875e-01
  8.12648389129307e-01
  8.41310655339178e-01
  5.41906290515089e-01
 -1.33284671521752e-01
 -5.43309343865180e-01
 -4.73860280618372e-01
  2.41503867585103e-01
  3.84180942836044e-01
  1.06644759418552e-01
  6.70133452164188e+00
  8.83940558806038e+00
  9.81840820158908e+00
  8.40317351789580e+00
  4.80150582160193e+00
  1.55819330730478e+00
  1.09716888313239e-03
 -2.35644848731218e+00
 -3.22241300088705e+00
 -3.50308751124858e+00
 -3.21565115351729e+00
 -1.75266045923181e+00
 -7.39589051144409e-01
  2.55075294015732e-01
  1.17380433533106e+00
  5.95960578383022e-02
  4.57260134599596e-01
  6.58952976069849e-02
  1.26537084505476e-01
  5.05342882924414e-01
  9.45273469411120e-01
  1.63244480027292e+00
  2.63682388500924e+00
  3.97100251949347e+00
  5.40054468526540e+00
  6.14797258543505e+00
  4.98070088997371e+00
  2.02176489746253e+00
  1.84357149094381e-01
 -7.08488623570591e-03
  2.36913493026560e-03
  1.32950482512095e-04
 -1.38957418994420e-01
 -2.60090027852347e-01
 -4.49835706775664e-01
 -7.31126629696563e-01
 -1.11861777375438e+00
 -1.58739593447389e+00
 -1.99125636701477e+00
 -2.03025837503363e+00
 -1.24743111609232e+00
  2.71867405206707e-01
  9.95810075477156e-01
  4.55448471363036e-01
 -2.41754544584911e-03
  5.58641690839409e-02
  1.04485498965527e-01
  1.80940572893667e-01
  2.93783669027015e-01
  4.50951988226580e-01
  6.40557184508875e-01
  8.12648389129307e-01
  8.41310655339178e-01
  5.41906290515089e-01
 -1.33284671521752e-01
 -5.43309343865180e-01
 -4.73860280618372e-01
  2.41503867585103e-01
  3.84180942836044e-01
  1.06644759418552e-01
  6.70133452164188e+00
  8.83940558806038e+00
  9.81840820158908e+00
  8.40317351789580e+00
  4.80150582160193e+00
  1.55819330730478e+00
  1.09716888313239e-03
 -2.35644848731218e+00
 -3.22241300088705e+00
 -3.50308751124858e+00
 -3.21565115351729e+00
 -1.75266045923181e+00
 -7.39589051144409e-01
  2.55075294015732e-01
  1.17380433533106e+00
  5.95960578383022e-02
  4.57260134599596e-01
  6.58952976069849e-02
  1.26537084505476e-01
  5.05342882924414e-01
  9.45273469411120e-01
  1.63244480027292e+00
  2.63682388500924e+00
  3.97100251949347e+00
  5.40054468526540e+00
  6.14797258543505e+00
  4.98070088997371e+00
  2.02176489746253e+00
  1.84357149094381e-01
 -7.08488623570591e-03
  2.36913493026560e-03
  1.32950482512095e-04
 -1.38957418994420e-01
 -2.60090027852347e-01
 -4.49835706775664e-01
 -7.31126629696563e-01
 -1.11861777375438e+00
 -1.58739593447389e+00
 -1.99125636701477e+00
 -2.03025837503363e+00
 -1.24743111609232e+00
  2.71867405206707e-01
  9.95810075477156e-01
  4.55448471363036e-01
 -2.41754544584911e-03
  5.58641690839409e-02
  1.04485498965527e-01
  1.80940572893667e-01
  2.93783669027015e-01
  4.50951988226580e-01
  6.40557184508875e-01
  8.12648389129307e-01
  8.41310655339178e-01
  5.41906290515089e-01
 -1.33284671521752e-01
 -5.43309343865180e-01
 -4.73860280618372e-01
  2.41503867585103e-01
  3.84180942836044e-01
  1.06644759418552e-01
  6.70133452164188e+00
  8.83940558806038e+00
  9.81840820158908e+00
  8.40317351789580e+00
  4.80150582160193e+00
  1.55819330730478e+00
  1.09716888313239e-03
 -2.35644848731218e+00
 -3.22241300088705e+00
 -3.50308751124858e+00
 -3.21565115351729e+00
 -1.75266045923181e+00
 -7.39589051144409e-01
  2.55075294015732e-01
  1.17380433533106e+00
  5.95960578383022e-02
  4.57260134599596e-01
  6.58952976069849e-02
  1.26537084505476e-01
  5.05342882924414e-01
  9.45273469411120e-01
  1.63244480027292e+00
  2.63682388500924e+00
  3.97100251949347e+00
  5.40054468526540e+00
  6.14797258543505e+00
  4.98070088997371e+00
  2.02176489746253e+00
  1.84357149094381e-01
 -7.08488623570591e-03
  2.36913493026560e-03
  1.32950482512095e-04
 -1.38957418994420e-01
 -2.60090027852347e-01
 -4.49835706775664e-01
 -7.31126629696563e-01
 -1.11861777375438e+00
 -1.58739593447389e+00
 -1.99125636701477e+00
 -2.03025837503363e+00
 -1.24743111609232e+00
  2.71867405206707e-01
  9.95810075477156e-01
  4.55448471363036e-01
 -2.41754544584911e-03
  5.58641690839409e-02
  1.04485498965527e-01
  1.80940572893667e-01
  2.93783669027015e-01
  4.50951988226580e-01
  6.40557184508875e-01
  8.12648389129307e-01
  8.41310655339178e-01
  5.41906290515089e-01
 -1.33284671521752e-01
 -5.43309343865180e-01
 -4.73860280618372e-01
  2.41503867585103e-01
  3.84180942836044e-01
  1.06644759418552e-01
  6.70133452164188e+00
  8.83940558806038e+00
  9.81840820158908e+00
  8.40317351789580e+00
  4.80150582160193e+00
  1.55819330730478e+00
  1.09716888313239e-03
 -2.35644848731218e+00
 -3.22241300088705e+00
 -3.50308751124858e+00
 -3.21565115351729e+00
 -1.75266045923181e+00
 -7.39589051144409e-01
  2.55075294015732e-01
  1.17380433533106e+00
  5.95960578383022e-02
  4.57260134599596e-01
  6.58952976069849e-02
  1.26537084505476e-01
  5.05342882924414e-01
  9.45273469411120e-01
  1.63244480027292e+00
  2.63682388500924e+00
  3.97100251949347e+00
  5.40054468526540e+00
  6.14797258543505e+00
  4.98070088997371e+00
  2.02176489746253e+00
  1.84357149094381e-01
 -7.08488623570591e-03
  2.36913493026560e-03
  1.32950482512095e-04
 -1.38957418994420e-01
 -2.60090027852347e-01
 -4.49835706775664e-01
 -7.31126629696563e-01
 -1.11861777375438e+00
 -1.58739593447389e+00
 -1.99125636701477e+00
 -2.03025837503363e+00
 -1.24743111609232e+00
  2.71867405206707e-01
  9.95810075477156e-01
  4.55448471363036e-01
 -2.41754544584911e-03
  5.58641690839409e-02
  1.04485498965527e-01
  1.80940572893667e-01
  2.93783669027015e-01
  4.50951988226580e-01
  6.40557184508875e-01
  8.12648389129307e-01
  8.41310655339178e-01
  5.41906290515089e-01
 -1.33284671521752e-01
 -5.43309343865180e-01
 -4.73860280618372e-01
  2.41503867585103e-01
  3.84180942836044e-01
  1.06644759418552e-01
  6.70133452164188e+00
  8.83940558806038e+00
  9.81840820158908e+00
  8.40317351789580e+00
  4.80150582160193e+00
  1.55819330730478e+00
  1.09716888313239e-03
 -2.35644848731218e+00
 -3.22241300088705e+00
 -3.50308751124858e+00
 -3.21565115351729e+00
 -1.75266045923181e+00
 -7.39589051144409e-01
  2.55075294015732e-01
  1.17380433533106e+00
  5.95960578383022e-02
  4.57260134599596e-01
  6.58952976069849e-02
  1.26537084505476e-01
  5.05342882924414e-01
  9.45273469411120e-01
  1.63244480027292e+00
  2.63682388500924e+00
  3.97100251949347e+00
  5.40054468526540e+00
  6.14797258543505e+00
  4.98070088997371e+00
  2.02176489746253e+00
  1.84357149094381e-01
 -7.08488623570591e-03
  2.36913493026560e-03
  1.32950482512095e-04
 -1.38957418994420e-01
 -2.60090027852347e-01
 -4.49835706775664e-01
 -7.31126629696563e-01
 -1.11861777375438e+00
 -1.58739593447389e+00
 -1.99125636701477e+00
 -2.03025837503363e+00
 -1.24743111609232e+00
  2.71867405206707e-01
  9.95810075477156e-01
  4.55448471363036e-01
 -2.41754544584911e-03
  5.58641690839409e-02
  1.04485498965527e-01
  1.80940572893667e-01
  2.93783669027015e-01
  4.50951988226580e-01
  6.40557184508875e-01
  8.12648389129307e-01
  8.41310655339178e-01
  5.41906290515089e-01
 -1.33284671521752e-01
 -5.43309343865180e-01
 -4.73860280618372e-01
  2.41503867585103e-01
  3.84180942836044e-01
  1.06644759418552e-01
  6.70133452164188e+00
  8.83940558806038e+00
  9.81840820158908e+00
  8.40317351789580e+00
  4.80150582160193e+00
  1.55819330730478e+00
  1.09716888313239e-03
 -2.35644848731218e+00
 -3.22241300088705e+00
 -3.50308751124858e+00
 -3.21565115351729e+00
 -1.75266045923181e+00
 -7.39589051144409e-01
  2.55075294015732e-01
  1.17380433533106e+00
  5.95960578383022e-02
  4.57260134599596e-01
  6.58952976069849e-02
  1.26537084505476e-01
  5.05342882924414e-01
  9.45273469411120e-01
  1.63244480027292e+00
  2.63682388500924e+00
  3.97100251949347e+00
  5.40054468526540e+00
  6.14797258543505e+00
  4.98070088997371e+00
  2.02176489746253e+00
  1.84357149094381e-01
 -7.08488623570591e-03
  2.36913493026560e-03
  1.32950482512095e-04
 -1.38957418994420e-01
 -2.60090027852347e-01
 -4.49835706775664e-01
 -7.31126629696563e-01
 -1.11861777375438e+00
 -1.58739593447389e+00
 -1.99125636701477e+00
 -2.03025837503363e+00
 -1.24743111609232e+00
  2.71867405206707e-01
  9.95810075477156e-01
  4.55448471363036e-01
 -2.41754544584911e-03
  5.58641690839409e-02
  1.04485498965527e-01
  1.80940572893667e-01
  2.93783669027015e-01
  4.50951988226580e-01
  6.40557184508875e-01
  8.12648389129307e-01
  8.41310655339178e-01
  5.41906290515089e-01
 -1.33284671521752e-01
 -5.43309343865180e-01
 -4.73860280618372e-01
  2.41503867585103e-01
  3.84180942836044e-01
  1.06644759418552e-01
  6.70133452164188e+00
  8.83940558806038e+00
  9.81840820158908e+00
  8.40317351789580e+00
  4.80150582160193e+00
  1.55819330730478e+00
  1.09716888313239e-03
 -2.35644848731218e+00
 -3.22241300088705e+00
 -3.50308751124858e+00
 -3.21565115351729e+00
 -1.75266045923181e+00
 -7.39589051144409e-01
  2.55075294015732e-01
  1.17380433533106e+00
  5.95960578383022e-02
  4.57260134599596e-01
  6.58952976069849e-02
  1.26537084505476e-01
  5.05342882924414e-01
  9.45273469411120e-01
  1.63244480027292e+00
  2.63682388500924e+00
  3.97100251949347e+00
  5.40054468526540e+00
  6.14797258543505e+00
  4.98070088997371e+00
  2.02176489746253e+00
  1.84357149094381e-01
 -7.08488623570591e-03
  2.36913493026560e-03
  1.32950482512095e-04
 -1.38957418994420e-01
 -2.60090027852347e-01
 -4.49835706775664e-01
 -7.31126629696563e-01
 -1.11861777375438e+00
 -1.58739593447389e+00
 -1.99125636701477e+00
 -2.03025837503363e+00
 -1.24743111609232e+00
  2.71867405206707e-01
  9.95810075477156e-01
  4.55448471363036e-01
 -2.41754544584911e-03
  5.58641690839409e-02
  1.04485498965527e-01
  1.80940572893667e-01
  2.93783669027015e-01
  4.50951988226580e-01
  6.40557184508875e-01
  8.12648389129307e-01
  8.41310655339178e-01
  5.41906290515089e-01
 -1.33284671521752e-01
 -5.43309343865180e-01
 -4.73860280618372e-01
  2.41503867585103e-01
  3.84180942836044e-01
  1.06644759418552e-01
  6.70133452164188e+00
  8.83940558806038e+00
  9.81840820158908e+00
  8.40317351789580e+00
  4.80150582160193e+00
  1.55819330730478e+00
  1.09716888313239e-03
 -2.35644848731218e+00
 -3.22241300088705e+00
 -3.50308751124858e+00
 -3.21565115351729e+00
 -1.75266045923181e+00
 -7.39589051144409e-01
  2.55075294015732e-01
  1.17380433533106e+00
  5.95960578383022e-02
  4.57260134599596e-01
  6.58952976069849e-02
  1.26537084505476e-01
  5.05342882924414e-01
  9.45273469411120e-01
  1.63244480027292e+00
  2.63682388500924e+00
  3.97100251949347e+00
  5.40054468526540e+00
  6.14797258543505e+00
  4.98070088997371e+00
  2.02176489746253e+00
  1.84357149094381e-01
 -7.08488623570591e-03
  2.36913493026560e-03
  1.32950482512095e-04
 -1.38957418994420e-01
 -2.60090027852347e-01
 -4.49835706775664e-01
 -7.31126629696563e-01
 -1.11861777375438e+00
 -1.58739593447389e+00
 -1.99125636701477e+00
 -2.03025837503363e+00
 -1.24743111609232e+00
  2.71867405206707e-01
  9.95810075477156e-01
  4.55448471363036e-01
 -2.41754544584911e-03
  5.58641690839409e-02
  1.04485498965527e-01
  1.80940572893667e-01
  2.93783669027015e-01
  4.50951988226580e-01
  6.40557184508875e-01
  8.12648389129307e-01
  8.41310655339178e-01
  5.41906290515089e-01
 -1.33284671521752e-01
 -5.43309343865180e-01
 -4.73860280618372e-01
  2.41503867585103e-01
  3.84180942836044e-01
  1.06644759418552e-01
  6.70133452164188e+00
  8.83940558806038e+00
  9.81840820158908e+00
  8.40317351789580e+00
  4.80150582160193e+00
  1.55819330730478e+00
  1.09716888313239e-03
 -2.35644848731218e+00
 -3.22241300088705e+00
 -3.50308751124858e+00
 -3.21565115351729e+00
 -1.75266045923181e+00
 -7.39589051144409e-01
  2.55075294015732e-01
  1.17380433533106e+00
  5.95960578383022e-02
  4.57260134599596e-01
  6.58952976069849e-02
  1.26537084505476e-01
  5.05342882924414e-01
  9.45273469411120e-01
  1.63244480027292e+00
  2.63682388500924e+00
  3.97100251949347e+00
  5.40054468526540e+00
  6.14797258543505e+00
  4.98070088997371e+00
  2.02176489746253e+00
  1.84357149094381e-01
 -7.08488623570591e-03
  2.36913493026560e-03
  1.32950482512095e-04
 -1.38957418994420e-01
 -2.60090027852347e-01
 -4.49835706775664e-01
 -7.31126629696563e-01
 -1.11861777375438e+00
 -1.58739593447389e+00
 -1.99125636701477e+00
 -2.03025837503363e+00
 -1.24743111609232e+00
  2.71867405206707e-01
  9.95810075477156e-01
  4.55448471363036e-01
 -2.41754544584911e-03
  5.58641690839409e-02
  1.04485498965527e-01
  1.80940572893667e-01
  2.93783669027015e-01
  4.50951988226580e-01
  6.40557184508875e-01
  8.12648389129307e-01
  8.41310655339178e-01
  5.41906290515089e-01
 -1.33284671521752e-01
 -5.43309343865180e-01
 -4.73860280618372e-01
  2.41503867585103e-01
  3.84180942836044e-01
  1.06644759418552e-01
  6.70133452164188e+00
  8.83940558806038e+00
  9.81840820158908e+00
  8.40317351789580e+00
  4.80150582160193e+00
  1.55819330730478e+00
  1.09716888313239e-03
 -2.35644848731218e+00
 -3.22241300088705e+00
 -3.50308751124858e+00
 -3.21565115351729e+00
 -1.75266045923181e+00
 -7.39589051144409e-01
  2.55075294015732e-01
  1.17380433533106e+00
  5.95960578383022e-02
  4.57260134599596e-01
  6.58952976069849e-02
  1.26537084505476e-01
  5.05342882924414e-01
  9.45273469411120e-01
  1.63244480027292e+00
  2.63682388500924e+00
  3.97100251949347e+00
  5.40054468526540e+00
  6.14797258543505e+00
  4.98070088997371e+00
  2.02176489746253e+00
  1.84357149094381e-01
 -7.08488623570591e-03
  2.36913493026560e-03
  1.32950482512095e-04
 -1.38957418994420e-01
 -2.60090027852347e-01
 -4.49835706775664e-01
 -7.31126629696563e-01
 -1.11861777375438e+00
 -1.58739593447389e+00
 -1.99125636701477e+00
 -2.03025837503363e+00
 -1.24743111609232e+00
  2.71867405206707e-01
  9.95810075477156e-01
  4.55448471363036e-01
 -2.41754544584911e-03
  5.58641690839409e-02
  1.04485498965527e-01
  1.80940572893667e-01
  2.93783669027015e-01
  4.50951988226580e-01
  6.40557184508875e-01
  8.12648389129307e-01
  8.41310655339178e-01
  5.41906290515089e-01
 -1.33284671521752e-01
 -5.43309343865180e-01
 -4.73860280618372e-01
  2.41503867585103e-01
  3.84180942836044e-01
  1.06644759418552e-01
  6.70133452164188e+00
  8.83940558806038e+00
  9.81840820158908e+00
  8.40317351789580e+00
  4.80150582160193e+00
  1.55819330730478e+00
  1.09716888313239e-03
 -2.35644848731218e+00
 -3.22241300088705e+00
 -3.50308751124858e+00
 -3.21565115351729e+00
 -1.75266045923181e+00
 -7.39589051144409e-01
  2.55075294015732e-01
  1.17380433533106e+00
  5.95960578383022e-02
  4.57260134599596e-01
  6.58952976069849e-02
  1.26537084505476e-01
  5.05342882924414e-01
  9.45273469411120e-01
  1.63244480027292e+00
  2.63682388500924e+00
  3.97100251949347e+00
  5.40054468526540e+00
  6.14797258543505e+00
  4.98070088997371e+00
  2.02176489746253e+00
  1.84357149094381e-01
 -7.08488623570591e-03
  2.36913493026560e-03
  1.32950482512095e-04
 -1.38957418994420e-01
 -2.60090027852347e-01
 -4.49835706775664e-01
 -7.31126629696563e-01
 -1.11861777375438e+00
 -1.58739593447389e+00
 -1.99125636701477e+00
 -2.03025837503363e+00
 -1.24743111609232e+00
  2.71867405206707e-01
  9.95810075477156e-01
  4.55448471363036e-01
 -2.41754544584911e-03
  5.58641690839409e-02
  1.04485498965527e-01
  1.80940572893667e-01
  2.93783669027015e-01
  4.50951988226580e-01
  6.40557184508875e-01
  8.12648389129307e-01
  8.41310655339178e-01
  5.41906290515089e-01
 -1.33284671521752e-01
 -5.43309343865180e-01
 -4.73860280618372e-01
  2.41503867585103e-01
  3.84180942836044e-01
  1.06644759418552e-01
  6.70133452164188e+00
  8.83940558806038e+00
  9.81840820158908e+00
  8.40317351789580e+00
  4.80150582160193e+00
  1.55819330730478e+00
  1.09716888313239e-03
 -2.35644848731218e+00
 -3.22241300088705e+00
 -3.50308751124858e+00
 -3.21565115351729e+00
 -1.75266045923181e+00
 -7.39589051144409e-01
  2.55075294015732e-01
  1.17380433533106e+00
  5.95960578383022e-02
  4.57260134599596e-01
  6.58952976069849e-02
  1.26537084505476e-01
  5.05342882924414e-01
  9.45273469411120e-01
  1.63244480027292e+00
  2.63682388500924e+00
  3.97100251949347e+00
  5.40054468526540e+00
  6.14797258543505e+00
  4.98070088997371e+00
  2.02176489746253e+00
  1.84357149094381e-01
 -7.08488623570591e-03
  2.36913493026560e-03
  1.32950482512095e-04
 -1.38957418994420e-01
 -2.60090027852347e-01
 -4.49835706775664e-01
 -7.31126629696563e-01
 -1.11861777375438e+00
 -1.58739593447389e+00
 -1.99125636701477e+00
 -2.03025837503363e+00
 -1.24743111609232e+00
  2.71867405206707e-01
  9.95810075477156e-01
  4.55448471363036e-01
 -2.41754544584911e-03
  5.58641690839409e-02
  1.04485498965527e-01
  1.80940572893667e-01
  2.93783669027015e-01
  4.50951988226580e-01
  6.40557184508875e-01
  8.12648389129307e-01
  8.41310655339178e-01
  5.41906290515089e-01
 -1.33284671521752e-01
 -5.43309343865180e-01
 -4.73860280618372e-01
  2.41503867585103e-01
  3.84180942836044e-01
  1.06644759418552e-01
  6.70133452164188e+00
  8.83940558806038e+00
  9.81840820158908e+00
  8.40317351789580e+00
  4.80150582160193e+00
  1.55819330730478e+00
  1.09716888313239e-03
 -2.35644848731218e+00
 -3.22241300088705e+00
 -3.50308751124858e+00
 -3.21565115351729e+00
 -1.75266045923181e+00
 -7.39589051144409e-01
  2.55075294015732e-01
  1.17380433533106e+00
  5.95960578383022e-02
  4.57260134599596e-01
  6.58952976069849e-02
  1.26537084505476e-01
  5.05342882924414e-01
  9.45273469411120e-01
  1.63244480027292e+00
  2.63682388500924e+00
  3.97100251949347e+00
  5.40054468526540e+00
  6.14797258543505e+00
  4.98070088997371e+00
  2.02176489746253e+00
  1.84357149094381e-01
 -7.08488623570591e-03
  2.36913493026560e-03
  1.32950482512095e-04
 -1.38957418994420e-01
 -2.60090027852347e-01
 -4.49835706775664e-01
 -7.31126629696563e-01
 -1.11861777375438e+00
 -1.58739593447389e+00
 -1.99125636701477e+00
 -2.03025837503363e+00
 -1.24743111609232e+00
  2.71867405206707e-01
  9.95810075477156e-01
  4.55448471363036e-01
 -2.41754544584911e-03
  5.58641690839409e-02
  1.04485498965527e-01
  1.80940572893667e-01
  2.93783669027015e-01
  4.50951988226580e-01
  6.40557184508875e-01
  8.12648389129307e-01
  8.41310655339178e-01
  5.41906290515089e-01
 -1.33284671521752e-01
 -5.43309343865180e-01
 -4.73860280618372e-01
  2.41503867585103e-01
  3.84180942836044e-01
  1.06644759418552e-01
  6.70133452164188e+00
  8.83940558806038e+00
  9.81840820158908e+00
  8.40317351789580e+00
  4.80150582160193e+00
  1.55819330730478e+00
  1.09716888313239e-03
 -2.35644848731218e+00
 -3.22241300088705e+00
 -3.50308751124858e+00
 -3.21565115351729e+00
 -1.75266045923181e+00
 -7.39589051144409e-01
  2.55075294015732e-01
  1.17380433533106e+00
  5.95960578383022e-02
  4.57260134599596e-01
  6.58952976069849e-02
  1.26537084505476e-01

0 0 0 0 3 3 3
0 0 13 0 26 0 
13 0

0 3 3 13 1 1 1
39 0 
1 0

0 4 4 14 1 1 1
40 0 
1 0

0 5 5 15 2 6 6
41 1 48 1 
7 0

0 11 11 22 1 3 3
55 1 
1 0

0 14 14 23 1 3 3
56 1 
1 0

0 17 17 24 1 5 6
57 2 
1 1

0 22 22 25 1 5 6
58 2 
1 1

0 27 27 26 1 7 10
59 3 
1 1

1 34 34 27 3 3 3
60 0 73 0 86 0 
13 0

1 37 37 40 1 1 1
99 0 
1 0

1 38 38 41 1 1 1
100 0 
1 0

1 39 39 42 2 6 6
101 1 108 1 
7 0

1 45 45 49 1 3 3
115 1 
1 0

1 48 48 50 1 3 3
116 1 
1 0

1 51 51 51 1 5 6
117 2 
1 1

1 56 56 52 1 5 6
118 2 
1 1

1 61 61 53 1 7 10
119 3 
1 1

2 68 68 54 3 3 3
120 0 133 0 146 0 
13 0

2 71 71 67 1 1 1
159 0 
1 0

2 72 72 68 1 1 1
160 0 
1 0

2 73 73 69 2 6 6
161 1 168 1 
7 0

2 79 79 76 1 3 3
175 1 
1 0

2 82 82 77 1 3 3
176 1 
1 0

2 85 85 78 1 5 6
177 2 
1 1

2 90 90 79 1 5 6
178 2 
1 1

2 95 95 80 1 7 10
179 3 
1 1

3 102 102 81 3 3 3
180 0 193 0 206 0 
13 0

3 105 105 94 1 1 1
219 0 
1 0

3 106 106 95 1 1 1
220 0 
1 0

3 107 107 96 2 6 6
221 1 228 1 
7 0

3 113 113 103 1 3 3
235 1 
1 0

3 116 116 104 1 3 3
236 1 
1 0

3 119 119 105 1 5 6
237 2 
1 1

3 124 124 106 1 5 6
238 2 
1 1

3 129 129 107 1 7 10
239 3 
1 1

4 136 136 108 3 3 3
240 0 253 0 266 0 
13 0

4 139 139 121 1 1 1
279 0 
1 0

4 140 140 122 1 1 1
280 0 
1 0

4 141 141 123 2 6 6
281 1 288 1 
7 0

4 147 147 130 1 3 3
295 1 
1 0

4 150 150 131 1 3 3
296 1 
1 0

4 153 153 132 1 5 6
297 2 
1 1

4 158 158 133 1 5 6
298 2 
1 1

4 163 163 134 1 7 10
299 3 
1 1

5 170 170 135 3 3 3
300 0 313 0 326 0 
13 0

5 173 173 148 1 1 1
339 0 
1 0

5 174 174 149 1 1 1
340 0 
1 0

5 175 175 150 2 6 6
341 1 348 1 
7 0

5 181 181 157 1 3 3
355 1 
1 0

5 184 184 158 1 3 3
356 1 
1 0

5 187 187 159 1 5 6
357 2 
1 1

5 192 192 160 1 5 6
358 2 
1 1

5 197 197 161 1 7 10
359 3 
1 1

6 204 204 162 3 3 3
360 0 373 0 386 0 
13 0

6 207 207 175 1 1 1
399 0 
1 0

6 208 208 176 1 1 1
400 0 
1 0

6 209 209 177 2 6 6
401 1 408 1 
7 0

6 215 215 184 1 3 3
415 1 
1 0

6 218 218 185 1 3 3
416 1 
1 0

6 221 221 186 1 5 6
417 2 
1 1

6 226 226 187 1 5 6
418 2 
1 1

6 231 231 188 1 7 10
419 3 
1 1

7 238 238 189 3 3 3
420 0 433 0 446 0 
13 0

7 241 241 202 1 1 1
459 0 
1 0

7 242 242 203 1 1 1
460 0 
1 0

7 243 243 204 2 6 6
461 1 468 1 
7 0

7 249 249 211 1 3 3
475 1 
1 0

7 252 252 212 1 3 3
476 1 
1 0

7 255 255 213 1 5 6
477 2 
1 1

7 260 260 214 1 5 6
478 2 
1 1

7 265 265 215 1 7 10
479 3 
1 1

8 272 272 216 3 3 3
480 0 493 0 506 0 
13 0

8 275 275 229 1 1 1
519 0 
1 0

8 276 276 230 1 1 1
520 0 
1 0

8 277 277 231 2 6 6
521 1 528 1 
7 0

8 283 283 238 1 3 3
535 1 
1 0

8 286 286 239 1 3 3
536 1 
1 0

8 289 289 240 1 5 6
537 2 
1 1

8 294 294 241 1 5 6
538 2 
1 1

8 299 299 242 1 7 10
539 3 
1 1

9 306 306 243 3 3 3
540 0 553 0 566 0 
13 0

9 309 309 256 1 1 1
579 0 
1 0

9 310 310 257 1 1 1
580 0 
1 0

9 311 311 258 2 6 6
581 1 588 1 
7 0

9 317 317 265 1 3 3
595 1 
1 0

9 320 320 266 1 3 3
596 1 
1 0

9 323 323 267 1 5 6
597 2 
1 1

9 328 328 268 1 5 6
598 2 
1 1

9 333 333 269 1 7 10
599 3 
1 1

10 340 340 270 3 3 3
600 0 613 0 626 0 
13 0

10 343 343 283 1 1 1
639 0 
1 0

10 344 344 284 1 1 1
640 0 
1 0

10 345 345 285 2 6 6
641 1 648 1 
7 0

10 351 351 292 1 3 3
655 1 
1 0

10 354 354 293 1 3 3
656 1 
1 0

10 357 357 294 1 5 6
657 2 
1 1

10 362 362 295 1 5 6
658 2 
1 1

10 367 367 296 1 7 10
659 3 
1 1

11 374 374 297 3 3 3
660 0 673 0 686 0 
13 0

11 377 377 310 1 1 1
699 0 
1 0

11 378 378 311 1 1 1
700 0 
1 0

11 379 379 312 2 6 6
701 1 708 1 
7 0

11 385 385 319 1 3 3
715 1 
1 0

11 388 388 320 1 3 3
716 1 
1 0

11 391 391 321 1 5 6
717 2 
1 1

11 396 396 322 1 5 6
718 2 
1 1

11 401 401 323 1 7 10
719 3 
1 1

12 408 408 324 3 3 3
720 0 733 0 746 0 
13 0

12 411 411 337 1 1 1
759 0 
1 0

12 412 412 338 1 1 1
760 0 
1 0

12 413 413 339 2 6 6
761 1 768 1 
7 0

12 419 419 346 1 3 3
775 1 
1 0

12 422 422 347 1 3 3
776 1 
1 0

12 425 425 348 1 5 6
777 2 
1 1

12 430 430 349 1 5 6
778 2 
1 1

12 435 435 350 1 7 10
779 3 
1 1

13 442 442 351 3 3 3
780 0 793 0 806 0 
13 0

13 445 445 364 1 1 1
819 0 
1 0

13 446 446 365 1 1 1
820 0 
1 0

13 447 447 366 2 6 6
821 1 828 1 
7 0

13 453 453 373 1 3 3
835 1 
1 0

13 456 456 374 1 3 3
836 1 
1 0

13 459 459 375 1 5 6
837 2 
1 1

13 464 464 376 1 5 6
838 2 
1 1

13 469 469 377 1 7 10
839 3 
1 1

14 476 476 378 3 3 3
840 0 853 0 866 0 
13 0

14 479 479 391 1 1 1
879 0 
1 0

14 480 480 392 1 1 1
880 0 
1 0

14 481 481 393 2 6 6
881 1 888 1 
7 0

14 487 487 400 1 3 3
895 1 
1 0

14 490 490 401 1 3 3
896 1 
1 0

14 493 493 402 1 5 6
897 2 
1 1

14 498 498 403 1 5 6
898 2 
1 1

14 503 503 404 1 7 10
899 3 
1 1

15 510 510 405 3 3 3
900 0 913 0 926 0 
13 0

15 513 513 418 1 1 1
939 0 
1 0

15 514 514 419 1 1 1
940 0 
1 0

15 515 515 420 2 6 6
941 1 948 1 
7 0

15 521 521 427 1 3 3
955 1 
1 0

15 524 524 428 1 3 3
956 1 
1 0

15 527 527 429 1 5 6
957 2 
1 1

15 532 532 430 1 5 6
958 2 
1 1

15 537 537 431 1 7 10
959 3 
1 1

 -------------------------------------------------------------
 Allocate 2524424 B from available memory: 1048576000000 B
 There are 729 image cells after screening.
 There are 265 image cells for CGTO evaluation after screening.
 Real-Space grid for FFT initialized based on kinetic energy cutoff (eV) = 500.0
 Real-Space grid for FFT: (20,20,20)
 There are 68921 real-space grid points.
 There are 512 batches of real-space grid points. 
 Size of each grid batch is around 128
 Grid for AFT initialized based on kinetic energy cutoff (eV) = 500.0
 Real-Space grid for AFT: (20,20,20)
 There are 68921 real-space grid points.

 There are 43648 atom-centered grid points.

 Spacegroup symmetry group: Fd-3m
 Reducing spacegroup symmetry to symmorphic group: F -4 3 m
 Monkhorst-Pack mesh is [3,3,3]
 There are 27 k points.
kpoints in Bohr
-0.1020541020 -0.1020541020 -0.1020541020
-0.0000000000 -0.0000000000 -0.2041082040
0.1020541020 0.1020541020 -0.3061623059
-0.0000000000 -0.2041082040 0.0000000000
0.1020541020 -0.1020541020 -0.1020541020
0.2041082040 0.0000000000 -0.2041082040
0.1020541020 -0.3061623059 0.1020541020
0.2041082040 -0.2041082040 0.0000000000
0.3061623059 -0.1020541020 -0.1020541020
-0.2041082040 -0.0000000000 -0.0000000000
-0.1020541020 0.1020541020 -0.1020541020
0.0000000000 0.2041082040 -0.2041082040
-0.1020541020 -0.1020541020 0.1020541020
0.0000000000 0.0000000000 0.0000000000
0.1020541020 0.1020541020 -0.1020541020
-0.0000000000 -0.2041082040 0.2041082040
0.1020541020 -0.1020541020 0.1020541020
0.2041082040 0.0000000000 0.0000000000
-0.3061623059 0.1020541020 0.1020541020
-0.2041082040 0.2041082040 -0.0000000000
-0.1020541020 0.3061623059 -0.1020541020
-0.2041082040 0.0000000000 0.2041082040
-0.1020541020 0.1020541020 0.1020541020
0.0000000000 0.2041082040 0.0000000000
-0.1020541020 -0.1020541020 0.3061623059
0.0000000000 0.0000000000 0.2041082040
0.1020541020 0.1020541020 0.1020541020
 There are 112 alpha and 112 beta electrons
 Start computing overlap matrix
 Allocate 127844352 B from available memory: 1048573475584 B
 Time for computing overlap matrix: 4.7080000000 s
 ====== Initialize compute kernels for all-electron RI-J (kpts) ====== 
 ========================================================== 
 Range-separated parameter omega        = 0.400000000000000022
 Threshold for 1e2c shellpair           = 0.000000000000010000
 Threshold for 2e2c SR integral         = 0.000000000000000001
 Threshold for 2e3c SR integral         = 0.000000000100000000
 Threshold for AFT G-space screening is = 0.000000000001000000
 The exponent cutoff for C/D classification (omega2 / 2) is  = 0.080000000000000016
 ========================================================== 
 === Post process the basis set for RI calculation (exp_cutoff = 0.080000000000000016 ) === 
nshells_b1 before uncontraction = 144
nshells_b1 after uncontraction = 144
nshells_baux before uncontraction = 592
nshells_baux after uncontraction = 592
===============================================
nbsf total   = 544
nbsf compact = 480
nbsf diffuse = 64
naux total   = 1936
naux compact = 1936
naux diffuse = 0
nshells_bnuc = 16

 Number of unique atoms is 1
 Unique atom #0 (si) has 7 shells.

Shell 0 to 6 belongs to atom si
Shell 7 to 13 belongs to atom si
Shell 14 to 20 belongs to atom si
Shell 21 to 27 belongs to atom si
Shell 28 to 34 belongs to atom si
Shell 35 to 41 belongs to atom si
Shell 42 to 48 belongs to atom si
Shell 49 to 55 belongs to atom si
Shell 56 to 62 belongs to atom si
Shell 63 to 69 belongs to atom si
Shell 70 to 76 belongs to atom si
Shell 77 to 83 belongs to atom si
Shell 84 to 90 belongs to atom si
Shell 91 to 97 belongs to atom si
Shell 98 to 104 belongs to atom si
Shell 105 to 111 belongs to atom si

 Number of unique atoms is 1
 Unique atom #0 (si) has 2 shells.

Shell 0 to 1 belongs to atom si
Shell 2 to 3 belongs to atom si
Shell 4 to 5 belongs to atom si
Shell 6 to 7 belongs to atom si
Shell 8 to 9 belongs to atom si
Shell 10 to 11 belongs to atom si
Shell 12 to 13 belongs to atom si
Shell 14 to 15 belongs to atom si
Shell 16 to 17 belongs to atom si
Shell 18 to 19 belongs to atom si
Shell 20 to 21 belongs to atom si
Shell 22 to 23 belongs to atom si
Shell 24 to 25 belongs to atom si
Shell 26 to 27 belongs to atom si
Shell 28 to 29 belongs to atom si
Shell 30 to 31 belongs to atom si

 Number of unique atom is 1
 Unique atom #0 (si) has 37 auxiliary shells.

Auxiliary Shell 0 to 36 belongs to atom si
Auxiliary Shell 37 to 73 belongs to atom si
Auxiliary Shell 74 to 110 belongs to atom si
Auxiliary Shell 111 to 147 belongs to atom si
Auxiliary Shell 148 to 184 belongs to atom si
Auxiliary Shell 185 to 221 belongs to atom si
Auxiliary Shell 222 to 258 belongs to atom si
Auxiliary Shell 259 to 295 belongs to atom si
Auxiliary Shell 296 to 332 belongs to atom si
Auxiliary Shell 333 to 369 belongs to atom si
Auxiliary Shell 370 to 406 belongs to atom si
Auxiliary Shell 407 to 443 belongs to atom si
Auxiliary Shell 444 to 480 belongs to atom si
Auxiliary Shell 481 to 517 belongs to atom si
Auxiliary Shell 518 to 554 belongs to atom si
Auxiliary Shell 555 to 591 belongs to atom si

================= Automatically determine grid size for reciprocal space summation =================
 Range-separated parameter = 0.40000000000000 and G-space screening threshold = 0.00000000000100
The number of grid points along each axis dimension is (9, 9, 9)
Total number of grid points = 6859

Use nonortho shellpair for diffuse density
======== Initializing relevant kernel for RIJ (DD type) ========
There are 528 shellpairs in the reference unit cell
There are 815 images and we expect to have 430320 in total
There are 19216 shellpairs in the lattice sum after screening
======== Initializing relevant kernel for RIJ (CD type) ========
There are 3584 shellpairs in the reference unit cell
There are 647 images and we expect to have 2318848 in total
There are 67552 shellpairs in the lattice sum after screening
****** AFT -> SR ******
Maximum bra distance cutoff is 22.000000000000
Maximum bra ket distance cutoff is 26.679112457438
Maximum bra ket screening distance is 24.281250000000
Number of auxiliary image is 213
There are 3584 shellpairs in the reference unit cell
There are 117 images and we expect to have 419328 in total
There are 67552 shellpairs in the lattice sum after screening
Available memory per thread for 2e3c calculation is 32.763925976000Gb
Finish initializing 2e3c SR with the lattice sum!
=================================================
======== Initializing relevant kernel for RIJ (CC type) ========
There are 6304 shellpairs in the reference unit cell
There are 455 images and we expect to have 2868320 in total
There are 35520 shellpairs in the lattice sum after screening
****** AFT -> SR ******
Maximum bra distance cutoff is 18.000000000000
Maximum bra ket distance cutoff is 31.276958582213
Maximum bra ket screening distance is 23.906250000000
Number of auxiliary image is 237
There are 6304 shellpairs in the reference unit cell
There are 99 images and we expect to have 624096 in total
There are 35520 shellpairs in the lattice sum after screening
Available memory per thread for 2e3c calculation is 32.763925976000Gb
Finish initializing 2e3c SR with the lattice sum!
=================================================
======== Initializing the SR component for Vnuc (CD type) ========
Maximum bra distance cutoff is 22.000000000000
Maximum bra ket distance cutoff is 20.024775525061
Maximum bra ket screening distance is 17.441677266996
Number of auxiliary image is 117
There are 3584 shellpairs in the reference unit cell
There are 117 images and we expect to have 419328 in total
There are 67552 shellpairs in the lattice sum after screening
Available memory per thread for 2e3c calculation is 32.763925976000Gb
Finish initializing 2e3c SR with the lattice sum!
=================================================
======== Initialize the SR component for Vnuc (CC type) ========
Maximum bra distance cutoff is 18.000000000000
Maximum bra ket distance cutoff is 24.890631274185
Maximum bra ket screening distance is 16.954216533142
Number of auxiliary image is 117
There are 6304 shellpairs in the reference unit cell
There are 99 images and we expect to have 624096 in total
There are 35520 shellpairs in the lattice sum after screening
Available memory per thread for 2e3c calculation is 32.763925976000Gb
Finish initializing 2e3c SR with the lattice sum!
=================================================
 Aufbau occupation scheme, occupation determined by eigenvalue
 == 0-th k-point nmo = 544 (-0.10205,-0.10205,-0.10205) ==
 == 1-th k-point nmo = 544 (-0.00000,-0.00000,-0.20411) ==
 == 2-th k-point nmo = 544 (0.10205,0.10205,-0.30616) ==
 == 3-th k-point nmo = 544 (-0.00000,-0.20411,0.00000) ==
 == 4-th k-point nmo = 544 (0.10205,-0.10205,-0.10205) ==
 == 5-th k-point nmo = 544 (0.20411,0.00000,-0.20411) ==
 == 6-th k-point nmo = 544 (0.10205,-0.30616,0.10205) ==
 == 7-th k-point nmo = 544 (0.20411,-0.20411,0.00000) ==
 == 8-th k-point nmo = 544 (0.30616,-0.10205,-0.10205) ==
 == 9-th k-point nmo = 544 (-0.20411,-0.00000,-0.00000) ==
 == 10-th k-point nmo = 544 (-0.10205,0.10205,-0.10205) ==
 == 11-th k-point nmo = 544 (0.00000,0.20411,-0.20411) ==
 == 12-th k-point nmo = 544 (-0.10205,-0.10205,0.10205) ==
 == 13-th k-point nmo = 544 (0.00000,0.00000,0.00000) ==
 == 14-th k-point nmo = 544 (0.10205,0.10205,-0.10205) ==
 == 15-th k-point nmo = 544 (-0.00000,-0.20411,0.20411) ==
 == 16-th k-point nmo = 544 (0.10205,-0.10205,0.10205) ==
 == 17-th k-point nmo = 544 (0.20411,0.00000,0.00000) ==
 == 18-th k-point nmo = 544 (-0.30616,0.10205,0.10205) ==
 == 19-th k-point nmo = 544 (-0.20411,0.20411,-0.00000) ==
 == 20-th k-point nmo = 544 (-0.10205,0.30616,-0.10205) ==
 == 21-th k-point nmo = 544 (-0.20411,0.00000,0.20411) ==
 == 22-th k-point nmo = 544 (-0.10205,0.10205,0.10205) ==
 == 23-th k-point nmo = 544 (0.00000,0.20411,0.00000) ==
 == 24-th k-point nmo = 544 (-0.10205,-0.10205,0.30616) ==
 == 25-th k-point nmo = 544 (0.00000,0.00000,0.20411) ==
 == 26-th k-point nmo = 544 (0.10205,0.10205,0.10205) ==

 Generate autoSAD guess
backing up fragment data
Atom # 0: si, charge: 0, multiplicity: 3.000000
writing autosad to fragment context
Settings for isolated fragments: 
  frgm_gamma: TRUE
  frgm_center: FALSE

    Running SCF for isolated atom #0
    Fragment Input file: /n/netscratch/joonholee_lab/Lab/hieudinh//nhome02hieudinhrsdf_test_full_Jbenchmark_pyscfsiqcpbcsi_ccpvtz_333.scratch20250908035344/autosad_frgmt_0/frgmt_input.in
    Fragment Output file: /n/netscratch/joonholee_lab/Lab/hieudinh//nhome02hieudinhrsdf_test_full_Jbenchmark_pyscfsiqcpbcsi_ccpvtz_333.scratch20250908035344/autosad_frgmt_0/frgmt_job.out
    Fragment job begins at Mon Sep  8 03:53:58 2025

 Integrated density by DFT XC:
   Numerical integral  =    13.999999324692
   Relative error      =     0.0000048236 %
Final energy components:
 DFT Correlation            Energy =  -0.48419291769762
 DFT Exchange               Energy = -20.15457771672864
 Kinetic (alpha)            Energy = 145.16532816247536
 Kinetic (beta)             Energy = 143.17442881803629
 Nuclear Attraction (alpha) Energy = -351.25548668351132
 Nuclear Attraction (beta)  Energy = -337.63206697064925
 Nuclear Repulsion          Energy =   0.00000000000000
 SEOQF                      Energy =   0.00000000065999
 Total Coulomb              Energy = 131.95998001584425
----------------------------------------------
    SCF Energy: -289.2265872916
   Total fragment job time:  0.34 s.
restoring fragment data

 ------------------------------------------------------------------------
 Allocate 383647536 B from available memory: 1048445631232 B
 Time for generating SCF guess: 0.43 s

 Allocate 903320 B from available memory: 1048061983712 B
 Selected algorithms for each term:
  kpts_kinetic -> @0x15372f0cc680
  kpts_nn -> @0x15372f0cc800
  kpts_rij_bigmem -> @0x15372f0cc3e0
  kpts_vnuc_df -> @0x15372f0cc380
  kpts_xc -> @0x15372f0cc2c0
 Time for computing kinetic matrix is 6.66 s
Start calculating Vnuc DD type!
Start calculating Vnuc CD type!
Start calculating Vnuc CC type!
 Time for computing nuclear attraction matrix is 8.40 s
Compute (P|Q) and use solve on the fly!
Maximum distance between P and Q is 32.62546518430815
Number of images for (P|Qn) is 285
 Time for computing 2e2c SR integral is 0.59 s
Maximum dynamic memory per thread for 2e3c SR integrals: 0.272 GiB
Batch size for basis function pair is 30720 out of 30720
 === bvk cell = 0 has 99.368 % of the basis function pairs === 
 === bvk cell = 1 has 87.985 % of the basis function pairs === 
 === bvk cell = 2 has 87.985 % of the basis function pairs === 
 === bvk cell = 3 has 87.985 % of the basis function pairs === 
 === bvk cell = 4 has 57.295 % of the basis function pairs === 
 === bvk cell = 5 has 86.270 % of the basis function pairs === 
 === bvk cell = 6 has 87.985 % of the basis function pairs === 
 === bvk cell = 7 has 86.270 % of the basis function pairs === 
 === bvk cell = 8 has 57.295 % of the basis function pairs === 
 === bvk cell = 9 has 87.985 % of the basis function pairs === 
 === bvk cell = 10 has 57.295 % of the basis function pairs === 
 === bvk cell = 11 has 86.270 % of the basis function pairs === 
 === bvk cell = 12 has 57.295 % of the basis function pairs === 
 === bvk cell = 13 has 32.389 % of the basis function pairs === 
 === bvk cell = 14 has 50.537 % of the basis function pairs === 
 === bvk cell = 15 has 86.270 % of the basis function pairs === 
 === bvk cell = 16 has 50.537 % of the basis function pairs === 
 === bvk cell = 17 has 50.537 % of the basis function pairs === 
 === bvk cell = 18 has 87.985 % of the basis function pairs === 
 === bvk cell = 19 has 86.270 % of the basis function pairs === 
 === bvk cell = 20 has 57.295 % of the basis function pairs === 
 === bvk cell = 21 has 86.270 % of the basis function pairs === 
 === bvk cell = 22 has 50.537 % of the basis function pairs === 
 === bvk cell = 23 has 50.537 % of the basis function pairs === 
 === bvk cell = 24 has 57.295 % of the basis function pairs === 
 === bvk cell = 25 has 50.537 % of the basis function pairs === 
 === bvk cell = 26 has 32.389 % of the basis function pairs === 
Static memory requirement for 2e3c SR integrals: 8.227 GB
There are 1 munu batches for computing 2e3c SR integrals with latsum
There are 32 Q batches for computing 2e3c SR integrals with latsum
 Time for computing 2e3c SR integral (CD) is 17.21 s
Maximum dynamic memory per thread for 2e3c SR integrals: 0.331 GiB
Batch size for basis function pair is 116120 out of 116120
 === bvk cell = 0 has 90.165 % of the basis function pairs === 
 === bvk cell = 1 has 47.519 % of the basis function pairs === 
 === bvk cell = 2 has 35.623 % of the basis function pairs === 
 === bvk cell = 3 has 48.669 % of the basis function pairs === 
 === bvk cell = 4 has 8.365 % of the basis function pairs === 
 === bvk cell = 5 has 29.552 % of the basis function pairs === 
 === bvk cell = 6 has 34.472 % of the basis function pairs === 
 === bvk cell = 7 has 27.857 % of the basis function pairs === 
 === bvk cell = 8 has 5.314 % of the basis function pairs === 
 === bvk cell = 9 has 50.628 % of the basis function pairs === 
 === bvk cell = 10 has 8.589 % of the basis function pairs === 
 === bvk cell = 11 has 31.442 % of the basis function pairs === 
 === bvk cell = 12 has 8.589 % of the basis function pairs === 
 === bvk cell = 13 has 0.620 % of the basis function pairs === 
 === bvk cell = 14 has 9.465 % of the basis function pairs === 
 === bvk cell = 15 has 30.281 % of the basis function pairs === 
 === bvk cell = 16 has 9.131 % of the basis function pairs === 
 === bvk cell = 17 has 6.678 % of the basis function pairs === 
 === bvk cell = 18 has 32.514 % of the basis function pairs === 
 === bvk cell = 19 has 25.968 % of the basis function pairs === 
 === bvk cell = 20 has 5.090 % of the basis function pairs === 
 === bvk cell = 21 has 27.129 % of the basis function pairs === 
 === bvk cell = 22 has 8.068 % of the basis function pairs === 
 === bvk cell = 23 has 5.616 % of the basis function pairs === 
 === bvk cell = 24 has 5.090 % of the basis function pairs === 
 === bvk cell = 25 has 5.282 % of the basis function pairs === 
 === bvk cell = 26 has 0.396 % of the basis function pairs === 
Static memory requirement for 2e3c SR integrals: 10.018 GB
There are 1 munu batches for computing 2e3c SR integrals with latsum
There are 32 Q batches for computing 2e3c SR integrals with latsum
 Time for computing 2e3c SR integral (CC) is 19.64 s
 Time for RI-J this SCF iteration is 40.07 s
 Time for RI-J this SCF iteration is 3.66 s
 ----------------------------------------------
 Guess energy: -4630.2935408182
 ----------------------------------------------
 Guess energy components:
 DFT Correlation    Energy =  -8.75971908544491
 DFT Exchange       Energy = -324.40707828786236
 Kinetic            Energy = 4617.97690203873390
 Nuclear Attraction Energy = -9485.78406280899981
 Nuclear Repulsion  Energy = -823.14927427733528
 Total Coulomb      Energy = 1393.82969160265998
 ----------------------------------------------
  Cycle       Energy         DIIS error
 ----------------------------------------------
 Time for RI-J this SCF iteration is 3.11 s
    1   -4630.3027440051      2.69e-04  
 Energy components after cycle 1:
 DFT Correlation    Energy =  -8.77783971395409
 DFT Exchange       Energy = -324.09078229522845
 Kinetic            Energy = 4615.26019304724468
 Nuclear Attraction Energy = -9479.59482246570406
 Nuclear Repulsion  Energy = -823.14927427733528
 Total Coulomb      Energy = 1390.04978169990295
    2   -4630.3027440051      1.22e-04  
 Energy components after cycle 2:
 DFT Correlation    Energy =  -8.77783971395409
 DFT Exchange       Energy = -324.09078229522845
 Kinetic            Energy = 4615.26019304724468
 Nuclear Attraction Energy = -9479.59482246570406
 Nuclear Repulsion  Energy = -823.14927427733528
 Total Coulomb      Energy = 1390.04978169990295
 ----------------------------------------------
  Cycle       Energy        RMS Gradient
 ----------------------------------------------
 Time for RI-J this SCF iteration is 2.55 s
    1   -4630.3037179954      6.49e-03   Normal BFGS step
 Energy components after cycle 1:
 DFT Correlation    Energy =  -8.77261408066394
 DFT Exchange       Energy = -324.26444493487980
 Kinetic            Energy = 4617.18169551429128
 Nuclear Attraction Energy = -9483.18911225859301
 Nuclear Repulsion  Energy = -823.14927427733528
 Total Coulomb      Energy = 1391.89003204174151
 Time for RI-J this SCF iteration is 2.62 s
    2   -4630.3039305800      2.39e-03   Normal BFGS step
 Energy components after cycle 2:
 DFT Correlation    Energy =  -8.77368557993618
 DFT Exchange       Energy = -324.19976494221072
 Kinetic            Energy = 4616.38471147601831
 Nuclear Attraction Energy = -9481.81874179400802
 Nuclear Repulsion  Energy = -823.14927427733528
 Total Coulomb      Energy = 1391.25282453742875
 Time for RI-J this SCF iteration is 2.54 s
    3   -4630.3039303745      1.92e-04   Normal BFGS step
 Energy components after cycle 3:
 DFT Correlation    Energy =  -8.77385932364859
 DFT Exchange       Energy = -324.20387733462366
 Kinetic            Energy = 4616.45819686903360
 Nuclear Attraction Energy = -9481.91477813410347
 Nuclear Repulsion  Energy = -823.14927427733528
 Total Coulomb      Energy = 1391.27966182621367
 Time for RI-J this SCF iteration is 2.56 s
    4   -4630.3039312914      5.54e-04   Normal BFGS step
 Energy components after cycle 4:
 DFT Correlation    Energy =  -8.77387894506363
 DFT Exchange       Energy = -324.20515866153647
 Kinetic            Energy = 4616.47785128347186
 Nuclear Attraction Energy = -9481.94345590370904
 Nuclear Repulsion  Energy = -823.14927427733528
 Total Coulomb      Energy = 1391.28998521274980
 Time for RI-J this SCF iteration is 2.59 s
    5   -4630.3039318023      2.40e-04   Normal BFGS step
 Energy components after cycle 5:
 DFT Correlation    Energy =  -8.77376869678825
 DFT Exchange       Energy = -324.20247921862097
 Kinetic            Energy = 4616.43026148666013
 Nuclear Attraction Energy = -9481.88101682060733
 Nuclear Repulsion  Energy = -823.14927427733528
 Total Coulomb      Energy = 1391.27234572438670
 Time for RI-J this SCF iteration is 2.55 s
    6   -4630.3039318891      7.66e-05   Normal BFGS step
 Energy components after cycle 6:
 DFT Correlation    Energy =  -8.77380632402022
 DFT Exchange       Energy = -324.20324747858484
 Kinetic            Energy = 4616.44447171856518
 Nuclear Attraction Energy = -9481.89913568060365
 Nuclear Repulsion  Energy = -823.14927427733528
 Total Coulomb      Energy = 1391.27706015284957
 Time for RI-J this SCF iteration is 2.54 s
    7   -4630.3039318936      8.74e-05   Normal BFGS step
 Energy components after cycle 7:
 DFT Correlation    Energy =  -8.77382399110668
 DFT Exchange       Energy = -324.20367304376651
 Kinetic            Energy = 4616.45204486169041
 Nuclear Attraction Energy = -9481.90905799091342
 Nuclear Repulsion  Energy = -823.14927427733528
 Total Coulomb      Energy = 1391.27985254786972
 Time for RI-J this SCF iteration is 2.63 s
    8   -4630.3039319229      5.56e-05   Normal BFGS step
 Energy components after cycle 8:
 DFT Correlation    Energy =  -8.77380658846846
 DFT Exchange       Energy = -324.20329391420813
 Kinetic            Energy = 4616.44514192197767
 Nuclear Attraction Energy = -9481.90015879338353
 Nuclear Repulsion  Energy = -823.14927427733528
 Total Coulomb      Energy = 1391.27745972852995
 Time for RI-J this SCF iteration is 2.55 s
    9   -4630.3039319229      5.26e-06   Normal BFGS step
 Energy components after cycle 9:
 DFT Correlation    Energy =  -8.77380799608842
 DFT Exchange       Energy = -324.20331823394770
 Kinetic            Energy = 4616.44561206890921
 Nuclear Attraction Energy = -9481.90074008360352
 Nuclear Repulsion  Energy = -823.14927427733528
 Total Coulomb      Energy = 1391.27759659918297
    9   -4630.3039319229      5.26e-06  Convergence criterion met
 ----------------------------------------------
 Final energy components:
 DFT Correlation    Energy =  -8.77380799608842
 DFT Exchange       Energy = -324.20331823394770
 Kinetic            Energy = 4616.44561206890921
 Nuclear Attraction Energy = -9481.90074008360352
 Nuclear Repulsion  Energy = -823.14927427733528
 Total Coulomb      Energy = 1391.27759659918297
 ----------------------------------------------
 Final energy is -4630.3039319229

 SCF time:   CPU 11640.17s  wall 414.00s 
 Total wall time for computing Kinetic: 0.19 s (12)
 Total wall time for computing RIJ-BIGMEM: 69.97 s (12)
 Total wall time for computing RSDF Vnuc: 0.55 s (12)
 Total wall time for computing DFT XC: 250.44 s (12)
 ---------------------------------------------------------------------------
                        Orbital Energies (a.u.)
 ---------------------------------------------------------------------------
 == 0-th k-point (-0.10205,-0.10205,-0.10205) occupation: 112==
 -64.99222 -64.99221 -64.99221 -64.99221 -64.99220 -64.99220 -64.99220 -64.99219 -64.99218 -64.99218
 -64.99218 -64.99217 -64.99217 -64.99217 -64.99215 -64.99214 -4.62123 -4.62119 -4.62117 -4.62117
 -4.62117 -4.62114 -4.62114 -4.62114 -4.62107 -4.62107 -4.62107 -4.62104 -4.62104 -4.62104
 -4.62101 -4.62097 -3.03202 -3.03202 -3.03202 -3.03202 -3.03202 -3.03202 -3.03201 -3.03201
 -3.03201 -3.03201 -3.03201 -3.03201 -3.03200 -3.03200 -3.03198 -3.03198 -3.03194 -3.03190
 -3.03182 -3.03182 -3.03182 -3.03172 -3.03172 -3.03172 -3.03156 -3.03156 -3.03156 -3.03146
 -3.03146 -3.03146 -3.03139 -3.03137 -3.03134 -3.03134 -3.03132 -3.03132 -3.03129 -3.03129
 -3.03129 -3.03128 -3.03128 -3.03128 -3.03127 -3.03127 -3.03127 -3.03125 -3.03125 -3.03125
 -0.15067 -0.11327 -0.07217 -0.07217 -0.07217 -0.05103 -0.05103 -0.05103 0.03256 0.03256
 0.03256 0.03466 0.03466 0.03466 0.07938 0.14120 0.14120 0.14120 0.17321 0.17321
 0.17321 0.18078 0.18078 0.18078 0.18839 0.20965 0.20965 0.20965 0.23853 0.23853
 0.25931 0.25931 0.31705 0.31705 0.31705 0.34301 0.35332 0.35332 0.35332 0.36419
 0.37842 0.37842 0.37842 0.39564 0.39564 0.40777 0.40777 0.43024 0.43024 0.43024
 0.44988 0.44988 0.44988 0.47802 0.51631 0.51631 0.51631 0.54744 0.54744 0.55530
 0.55530 0.55530 0.55542 0.55542 0.55542 0.56910 0.58062 0.58062 0.61753 0.62291
 0.62908 0.62908 0.62908 0.67333 0.67333 0.67333 0.67517 0.67517 0.67517 0.68232
 0.68232 0.68232 0.68268 0.72356 0.72356 0.72356 0.72528 0.72528 0.72528 0.74408
 0.74408 0.74408 0.74895 0.74895 0.74895 0.75585 0.75585 0.75585 0.77934 0.78147
 0.78147 0.83170 0.83170 0.83341 0.83341 0.83341 0.87184 0.87184 0.87184 0.88427
 0.88427 0.88427 0.88470 0.88470 0.88470 0.92286 0.95548 0.95548 0.95548 0.96700
 0.96700 0.96812 0.98973 0.98973 0.98973 1.00413 1.00413 1.00413 1.01895 1.01895
 1.01895 1.02980 1.02980 1.02980 1.04729 1.04729 1.05269 1.05269 1.05269 1.06303
 1.06448 1.06448 1.06448 1.06701 1.06701 1.06701 1.08999 1.08999 1.08999 1.11472
 1.15443 1.15443 1.15443 1.15963 1.15963 1.15963 1.17429 1.17429 1.17429 1.18360
 1.18360 1.18360 1.21098 1.21098 1.21098 1.21630 1.21630 1.21802 1.21802 1.21802
 1.22278 1.22278 1.24618 1.28003 1.28003 1.30400 1.30400 1.31433 1.31433 1.31433
 1.33163 1.33163 1.33163 1.33307 1.33307 1.33307 1.36486 1.36486 1.36486 1.37154
 1.38521 1.40772 1.40954 1.40954 1.40954 1.42433 1.42433 1.42433 1.43461 1.43461
 1.43461 1.47623 1.47623 1.48118 1.48118 1.48118 1.48218 1.48218 1.48218 1.48622
 1.49392 1.52289 1.52289 1.53801 1.53801 1.53801 1.54719 1.54719 1.54724 1.54724
 1.54724 1.56118 1.56118 1.56118 1.58284 1.58284 1.58284 1.59541 1.59541 1.59987
 1.59987 1.61761 1.61761 1.61761 1.64557 1.64557 1.64557 1.67247 1.67247 1.67247
 1.70262 1.70262 1.70950 1.70950 1.70950 1.72497 1.73891 1.73891 1.73891 1.74313
 1.74313 1.74313 1.76663 1.76663 1.76663 1.79863 1.79863 1.80344 1.80344 1.80344
 1.81407 1.81407 1.81407 1.82218 1.82303 1.82303 1.82303 1.83222 1.83222 1.83222
 1.84721 1.84721 1.86266 1.86266 1.86266 1.89342 1.89342 1.89342 1.89916 1.90492
 1.91355 1.92797 1.92797 1.94124 1.94124 1.94124 1.96201 1.96201 1.96201 1.96219
 1.98483 1.98483 1.98483 1.99448 2.01094 2.01094 2.01094 2.01775 2.01787 2.01787
 2.02617 2.02617 2.02617 2.03679 2.03679 2.03679 2.04241 2.06021 2.06021 2.06021
 2.06212 2.06212 2.09101 2.09101 2.09101 2.12997 2.12997 2.12997 2.14210 2.15820
 2.15820 2.15820 2.17737 2.17737 2.17737 2.18516 2.18516 2.19367 2.19526 2.19526
 2.22069 2.22069 2.22069 2.23092 2.23092 2.23092 2.23333 2.23333 2.25441 2.25441
 2.25441 2.29865 2.29865 2.29865 2.31808 2.31808 2.31808 2.34084 2.34084 2.34084
 2.35186 2.35186 2.35753 2.35969 2.35969 2.35969 2.38224 2.38224 2.38224 2.38820
 2.38820 2.38820 2.40937 2.40937 2.40937 2.41155 2.42874 2.42874 2.44094 2.44094
 2.44094 2.44612 2.44612 2.44612 2.45709 2.45709 2.45709 2.52463 2.52463 2.52463
 2.52759 2.52759 2.52759 2.52837 2.52837 2.54886 2.55906 2.55906 2.55906 2.58591
 2.58591 2.58591 2.63301 2.63301 2.63301 2.73347 2.73347 2.73347 2.73440 2.73440
 3.08892 3.08892 3.08892 3.14679 3.14679 3.14679 3.25876 3.25876 3.25876 3.34773
 3.36005 3.42216 3.42216 3.42216 3.53821 3.53821 3.53821 3.60613 3.60613 3.60613
 3.68212 3.68212 3.68212 3.69097 3.69097 3.69359 3.69360 3.72849 3.76892 3.76892
 3.76892 3.89074 3.89074 3.89074 3.93175 4.00166 4.00166 4.00166 4.01776 4.01776
 4.01776 4.02481 4.02481 4.02481 4.04959 4.04959 4.04991 4.04991 4.09788 4.46964
 5.53430 5.53430 5.53430 5.82570 5.82570 5.82570 6.83951 7.61992 7.61992 7.61992
 7.84905 7.84905 7.84906 8.26744
 == 1-th k-point (-0.00000,-0.00000,-0.20411) occupation: 112==
 -64.99221 -64.99221 -64.99221 -64.99221 -64.99220 -64.99219 -64.99219 -64.99219 -64.99219 -64.99219
 -64.99219 -64.99219 -64.99218 -64.99217 -64.99217 -64.99216 -4.62123 -4.62118 -4.62118 -4.62118
 -4.62118 -4.62117 -4.62111 -4.62111 -4.62111 -4.62110 -4.62104 -4.62103 -4.62103 -4.62103
 -4.62103 -4.62098 -3.03204 -3.03204 -3.03203 -3.03203 -3.03203 -3.03203 -3.03201 -3.03201
 -3.03200 -3.03200 -3.03200 -3.03200 -3.03200 -3.03200 -3.03200 -3.03200 -3.03192 -3.03184
 -3.03184 -3.03184 -3.03184 -3.03179 -3.03164 -3.03164 -3.03164 -3.03164 -3.03150 -3.03145
 -3.03145 -3.03145 -3.03145 -3.03139 -3.03133 -3.03133 -3.03131 -3.03131 -3.03131 -3.03130
 -3.03129 -3.03129 -3.03128 -3.03128 -3.03128 -3.03128 -3.03125 -3.03125 -3.03125 -3.03125
 -0.14615 -0.09391 -0.08640 -0.08640 -0.08640 -0.08640 -0.00695 -0.00695 -0.00695 -0.00695
 0.05473 0.05473 0.05473 0.05473 0.09201 0.14068 0.14068 0.14068 0.14068 0.16313
 0.16313 0.16313 0.16313 0.18590 0.18590 0.20156 0.22746 0.22746 0.22746 0.22746
 0.23162 0.23162 0.30421 0.33979 0.35188 0.36848 0.36848 0.36848 0.36848 0.37954
 0.37954 0.37954 0.37954 0.43055 0.43055 0.43055 0.43055 0.43475 0.43475 0.43475
 0.43475 0.43705 0.43818 0.43818 0.52688 0.52889 0.52889 0.52889 0.52889 0.54706
 0.54706 0.54706 0.54706 0.54764 0.54764 0.55596 0.55596 0.55596 0.55596 0.59173
 0.62806 0.62806 0.62806 0.62806 0.63603 0.64323 0.65180 0.67431 0.67431 0.67431
 0.67431 0.70970 0.70970 0.70971 0.70971 0.74028 0.74028 0.75706 0.75920 0.75920
 0.75920 0.75920 0.76293 0.76293 0.76293 0.76293 0.76648 0.79178 0.79178 0.83216
 0.83216 0.83216 0.83216 0.85447 0.86526 0.86526 0.86526 0.86526 0.89173 0.89539
 0.89539 0.89539 0.89539 0.89609 0.89609 0.89609 0.89609 0.90690 0.90690 0.92997
 0.92997 0.92997 0.92997 0.96745 0.96745 0.96745 0.96745 0.99478 0.99478 0.99478
 0.99478 1.00589 1.00857 1.02312 1.02312 1.04106 1.04106 1.04106 1.04106 1.06694
 1.09423 1.09423 1.09423 1.09423 1.11169 1.11720 1.11720 1.11720 1.11720 1.15239
 1.15240 1.15240 1.15240 1.16618 1.16618 1.16618 1.16618 1.16680 1.18935 1.18935
 1.18935 1.18935 1.23923 1.23923 1.23923 1.23923 1.23929 1.25175 1.25175 1.25176
 1.25176 1.25449 1.25451 1.25689 1.26316 1.26316 1.26316 1.26316 1.31294 1.32049
 1.32049 1.32276 1.34108 1.34108 1.34108 1.34108 1.37644 1.38001 1.38001 1.38002
 1.38002 1.39201 1.39201 1.40524 1.40524 1.40524 1.40524 1.42628 1.42628 1.42628
 1.42628 1.46488 1.46488 1.46488 1.46488 1.46892 1.46892 1.46892 1.46892 1.49411
 1.49792 1.49792 1.52365 1.52365 1.52726 1.52726 1.52727 1.52727 1.54665 1.54896
 1.57831 1.57831 1.57832 1.57832 1.58038 1.58038 1.58039 1.58039 1.59436 1.59632
 1.59632 1.59632 1.59632 1.63131 1.63131 1.63131 1.63131 1.63881 1.63881 1.63881
 1.63881 1.67365 1.67368 1.70185 1.75436 1.75437 1.75437 1.75437 1.75497 1.75498
 1.76675 1.76721 1.77426 1.78473 1.78473 1.78473 1.78473 1.78717 1.80079 1.80079
 1.80079 1.80079 1.82255 1.82255 1.82317 1.82317 1.82317 1.82317 1.84372 1.84372
 1.84373 1.84373 1.85763 1.88771 1.88771 1.88771 1.88771 1.88846 1.90034 1.90034
 1.90035 1.90035 1.93262 1.94195 1.94215 1.94884 1.94884 1.94884 1.94884 1.96615
 1.96615 1.99841 1.99841 1.99841 1.99841 2.00259 2.01341 2.01341 2.01343 2.01343
 2.02068 2.03453 2.03907 2.03907 2.03907 2.03907 2.05768 2.05769 2.07027 2.07027
 2.07028 2.07028 2.10963 2.10963 2.10963 2.10963 2.11543 2.11543 2.13868 2.14059
 2.14059 2.14060 2.14060 2.14180 2.14863 2.15138 2.16554 2.17927 2.17927 2.17927
 2.17927 2.21804 2.21804 2.22919 2.22919 2.22919 2.22919 2.25388 2.25388 2.25389
 2.25389 2.26842 2.26843 2.26843 2.26843 2.29367 2.29367 2.29368 2.29368 2.30584
 2.32871 2.35647 2.35647 2.35647 2.35647 2.35800 2.35800 2.41672 2.41672 2.41674
 2.41674 2.42053 2.42053 2.42059 2.42060 2.42990 2.42990 2.42990 2.42990 2.45426
 2.50623 2.50623 2.50626 2.50626 2.50818 2.51555 2.51555 2.51555 2.51555 2.52587
 2.52606 2.54934 2.54934 2.54937 2.54937 2.57465 2.57465 2.57467 2.57467 2.63659
 2.63660 2.63660 2.63660 2.65307 2.65310 2.70069 2.70069 2.70079 2.70079 2.91836
 3.00758 3.00758 3.00761 3.00761 3.01041 3.01041 3.01041 3.01041 3.42011 3.42011
 3.42011 3.42011 3.46642 3.50029 3.50029 3.50030 3.50030 3.52314 3.52348 3.57880
 3.70944 3.70944 3.70944 3.70944 3.77190 3.77191 3.77191 3.77191 3.80049 3.80049
 3.80050 3.80050 3.84187 3.84189 3.89500 3.98501 3.98501 3.98502 3.98502 4.00057
 4.04911 4.04911 4.07153 4.07153 4.07153 4.07154 4.30873 4.30908 4.95064 5.33673
 5.85542 6.07224 6.53910 6.53910 6.53916 6.53916 6.66183 6.66187 6.66187 6.66188
 7.56556 7.56556 7.56557 7.56557
 == 2-th k-point (0.10205,0.10205,-0.30616) occupation: 112==
 -64.99221 -64.99221 -64.99220 -64.99220 -64.99220 -64.99220 -64.99220 -64.99220 -64.99219 -64.99219
[...]
 -4.62103 -4.62098 -3.03204 -3.03204 -3.03203 -3.03203 -3.03203 -3.03203 -3.03201 -3.03201
 -3.03200 -3.03200 -3.03200 -3.03200 -3.03200 -3.03200 -3.03200 -3.03200 -3.03192 -3.03184
 -3.03184 -3.03184 -3.03184 -3.03179 -3.03164 -3.03164 -3.03164 -3.03164 -3.03150 -3.03145
 -3.03145 -3.03145 -3.03145 -3.03139 -3.03133 -3.03133 -3.03131 -3.03131 -3.03131 -3.03130
 -3.03129 -3.03129 -3.03128 -3.03128 -3.03128 -3.03128 -3.03125 -3.03125 -3.03125 -3.03125
 -0.14615 -0.09391 -0.08640 -0.08640 -0.08640 -0.08640 -0.00695 -0.00695 -0.00695 -0.00695
 0.05473 0.05473 0.05473 0.05473 0.09201 0.14068 0.14068 0.14068 0.14068 0.16313
 0.16313 0.16313 0.16313 0.18590 0.18590 0.20156 0.22746 0.22746 0.22746 0.22746
 0.23162 0.23162 0.30421 0.33979 0.35188 0.36848 0.36848 0.36848 0.36848 0.37954
 0.37954 0.37954 0.37954 0.43055 0.43055 0.43055 0.43055 0.43475 0.43475 0.43475
 0.43475 0.43705 0.43818 0.43818 0.52688 0.52889 0.52889 0.52889 0.52889 0.54706
 0.54706 0.54706 0.54706 0.54764 0.54764 0.55596 0.55596 0.55596 0.55596 0.59173
 0.62806 0.62806 0.62806 0.62806 0.63603 0.64323 0.65180 0.67431 0.67431 0.67431
 0.67431 0.70970 0.70970 0.70971 0.70971 0.74028 0.74028 0.75706 0.75920 0.75920
 0.75920 0.75920 0.76293 0.76293 0.76293 0.76293 0.76648 0.79178 0.79178 0.83216
 0.83216 0.83216 0.83216 0.85447 0.86526 0.86526 0.86526 0.86526 0.89173 0.89539
 0.89539 0.89539 0.89539 0.89609 0.89609 0.89609 0.89609 0.90690 0.90690 0.92997
 0.92997 0.92997 0.92997 0.96745 0.96745 0.96745 0.96745 0.99478 0.99478 0.99478
 0.99478 1.00589 1.00857 1.02312 1.02312 1.04106 1.04106 1.04106 1.04106 1.06694
 1.09423 1.09423 1.09423 1.09423 1.11169 1.11720 1.11720 1.11720 1.11720 1.15239
 1.15240 1.15240 1.15240 1.16618 1.16618 1.16618 1.16618 1.16680 1.18935 1.18935
 1.18935 1.18935 1.23923 1.23923 1.23923 1.23923 1.23929 1.25175 1.25175 1.25176
 1.25176 1.25449 1.25451 1.25689 1.26316 1.26316 1.26316 1.26316 1.31294 1.32049
 1.32049 1.32276 1.34108 1.34108 1.34108 1.34108 1.37644 1.38001 1.38001 1.38002
 1.38002 1.39201 1.39201 1.40524 1.40524 1.40524 1.40524 1.42628 1.42628 1.42628
 1.42628 1.46488 1.46488 1.46488 1.46488 1.46892 1.46892 1.46892 1.46892 1.49411
 1.49792 1.49792 1.52365 1.52365 1.52726 1.52726 1.52727 1.52727 1.54665 1.54896
 1.57831 1.57831 1.57832 1.57832 1.58038 1.58038 1.58039 1.58039 1.59436 1.59632
 1.59632 1.59632 1.59632 1.63131 1.63131 1.63131 1.63131 1.63881 1.63881 1.63881
 1.63881 1.67365 1.67368 1.70185 1.75436 1.75437 1.75437 1.75437 1.75497 1.75498
 1.76675 1.76721 1.77426 1.78473 1.78473 1.78473 1.78473 1.78717 1.80079 1.80079
 1.80079 1.80079 1.82255 1.82255 1.82317 1.82317 1.82317 1.82317 1.84372 1.84372
 1.84373 1.84373 1.85763 1.88771 1.88771 1.88771 1.88771 1.88846 1.90034 1.90034
 1.90035 1.90035 1.93262 1.94195 1.94215 1.94884 1.94884 1.94884 1.94884 1.96615
 1.96615 1.99841 1.99841 1.99841 1.99841 2.00259 2.01341 2.01341 2.01343 2.01343
 2.02068 2.03453 2.03907 2.03907 2.03907 2.03907 2.05768 2.05769 2.07027 2.07027
 2.07028 2.07028 2.10963 2.10963 2.10963 2.10963 2.11543 2.11543 2.13868 2.14059
 2.14059 2.14060 2.14060 2.14180 2.14863 2.15138 2.16554 2.17927 2.17927 2.17927
 2.17927 2.21804 2.21804 2.22919 2.22919 2.22919 2.22919 2.25388 2.25388 2.25389
 2.25389 2.26842 2.26843 2.26843 2.26843 2.29367 2.29367 2.29368 2.29368 2.30584
 2.32871 2.35647 2.35647 2.35647 2.35647 2.35800 2.35800 2.41672 2.41672 2.41674
 2.41674 2.42053 2.42053 2.42059 2.42060 2.42990 2.42990 2.42990 2.42990 2.45426
 2.50623 2.50623 2.50626 2.50626 2.50818 2.51555 2.51555 2.51555 2.51555 2.52587
 2.52606 2.54934 2.54934 2.54937 2.54937 2.57465 2.57465 2.57467 2.57467 2.63659
 2.63660 2.63660 2.63660 2.65307 2.65310 2.70069 2.70069 2.70079 2.70079 2.91836
 3.00758 3.00758 3.00761 3.00761 3.01041 3.01041 3.01041 3.01041 3.42011 3.42011
 3.42011 3.42011 3.46642 3.50029 3.50029 3.50030 3.50030 3.52314 3.52348 3.57880
 3.70944 3.70944 3.70944 3.70944 3.77190 3.77191 3.77191 3.77191 3.80049 3.80049
 3.80050 3.80050 3.84187 3.84189 3.89500 3.98501 3.98501 3.98502 3.98502 4.00057
 4.04911 4.04911 4.07153 4.07153 4.07153 4.07154 4.30873 4.30908 4.95064 5.33673
 5.85542 6.07224 6.53910 6.53910 6.53916 6.53916 6.66183 6.66187 6.66187 6.66188
 7.56556 7.56556 7.56557 7.56557
 == 24-th k-point (-0.10205,-0.10205,0.30616) occupation: 112==
 -64.99221 -64.99221 -64.99220 -64.99220 -64.99220 -64.99220 -64.99220 -64.99220 -64.99219 -64.99219
 -64.99219 -64.99219 -64.99219 -64.99218 -64.99217 -64.99217 -4.62121 -4.62120 -4.62120 -4.62117
 -4.62117 -4.62114 -4.62114 -4.62114 -4.62107 -4.62107 -4.62107 -4.62104 -4.62104 -4.62101
 -4.62101 -4.62100 -3.03203 -3.03203 -3.03203 -3.03202 -3.03202 -3.03202 -3.03202 -3.03202
 -3.03201 -3.03201 -3.03201 -3.03200 -3.03200 -3.03200 -3.03199 -3.03199 -3.03190 -3.03186
 -3.03186 -3.03179 -3.03179 -3.03175 -3.03174 -3.03174 -3.03154 -3.03154 -3.03154 -3.03150
 -3.03150 -3.03144 -3.03144 -3.03141 -3.03133 -3.03131 -3.03131 -3.03131 -3.03130 -3.03130
 -3.03128 -3.03128 -3.03128 -3.03127 -3.03127 -3.03126 -3.03126 -3.03125 -3.03125 -3.03124
 -0.12903 -0.11615 -0.11615 -0.07969 -0.07969 -0.04369 -0.04332 -0.04332 0.02421 0.02421
 0.02700 0.06854 0.06854 0.11239 0.11276 0.11276 0.12743 0.12743 0.13933 0.14359
 0.14359 0.17333 0.17333 0.18648 0.19065 0.19065 0.19719 0.20221 0.20221 0.21090
 0.21090 0.25485 0.33575 0.34996 0.34996 0.38304 0.38304 0.38980 0.40223 0.40223
 0.40849 0.40946 0.40946 0.41593 0.41593 0.42021 0.42785 0.42785 0.43441 0.43441
 0.44637 0.44637 0.46614 0.46614 0.48665 0.49504 0.50535 0.50535 0.51101 0.51736
 0.51876 0.51876 0.54045 0.54061 0.54061 0.55054 0.55983 0.55983 0.56984 0.61694
 0.61694 0.61825 0.61825 0.62190 0.62190 0.62979 0.64685 0.64685 0.66434 0.66667
 0.66667 0.69657 0.69657 0.70827 0.72564 0.72564 0.75583 0.75583 0.76375 0.76375
 0.77612 0.77612 0.78017 0.78017 0.78788 0.79740 0.79740 0.80008 0.80008 0.81215
 0.84081 0.84192 0.84192 0.85893 0.85893 0.86377 0.87453 0.88145 0.88656 0.88656
 0.89357 0.89357 0.89532 0.90406 0.91229 0.91229 0.91298 0.91298 0.92211 0.92211
 0.93266 0.93266 0.94608 0.95755 0.95755 0.96230 0.96230 0.97582 0.97882 0.97882
 0.98788 1.02467 1.02467 1.03326 1.03326 1.03439 1.06365 1.06365 1.06375 1.06375
 1.06491 1.07220 1.07220 1.07457 1.07457 1.10054 1.10750 1.10750 1.11283 1.11317
 1.11317 1.11528 1.11528 1.12993 1.13958 1.14560 1.15220 1.15220 1.15929 1.15929
 1.18848 1.20288 1.21091 1.21091 1.21328 1.21328 1.23068 1.23068 1.26112 1.26112
 1.26849 1.26849 1.28968 1.28968 1.29533 1.30615 1.30615 1.31618 1.32241 1.32241
 1.32565 1.33529 1.33529 1.33689 1.33689 1.37701 1.38020 1.38020 1.38644 1.39407
 1.40067 1.40364 1.40364 1.41402 1.41928 1.41928 1.42800 1.42800 1.43491 1.43491
 1.44025 1.44329 1.44329 1.45025 1.45025 1.46033 1.47227 1.47227 1.50234 1.50719
 1.53042 1.53042 1.53564 1.53675 1.53675 1.54288 1.54288 1.54997 1.54997 1.55209
 1.55209 1.55361 1.55361 1.55830 1.55830 1.58393 1.58742 1.59060 1.59060 1.60411
 1.60411 1.60864 1.60864 1.61144 1.61144 1.63079 1.63714 1.64312 1.64312 1.64690
 1.65298 1.67430 1.67430 1.68528 1.68528 1.69845 1.69845 1.70806 1.70806 1.71554
 1.71554 1.73411 1.77773 1.78053 1.78053 1.78356 1.78356 1.79909 1.80131 1.80403
 1.80403 1.81431 1.81744 1.82290 1.82290 1.82377 1.82377 1.82625 1.83689 1.83689
 1.86104 1.86105 1.87316 1.87316 1.88974 1.89327 1.91293 1.91293 1.92028 1.92369
 1.92552 1.92552 1.92975 1.93169 1.93169 1.93847 1.93847 1.93955 1.93955 1.94392
 1.96854 1.96855 1.97014 1.98008 1.98008 1.98697 1.99378 1.99378 1.99489 1.99489
 1.99899 1.99899 2.03146 2.03146 2.03371 2.03371 2.05213 2.05213 2.05403 2.05403
 2.06557 2.06562 2.07624 2.07624 2.08174 2.08554 2.12346 2.12346 2.12976 2.15103
 2.15103 2.15963 2.15964 2.17478 2.17478 2.17947 2.19005 2.19005 2.19861 2.20921
 2.20921 2.20966 2.20966 2.21377 2.21377 2.22808 2.22808 2.23364 2.23364 2.23397
 2.25655 2.25655 2.26192 2.27716 2.27716 2.28856 2.31355 2.33139 2.33418 2.33425
 2.34420 2.34420 2.35442 2.35442 2.35612 2.35612 2.35623 2.35623 2.36767 2.36767
 2.37224 2.39421 2.39421 2.39997 2.40238 2.40695 2.40695 2.44002 2.44002 2.46471
 2.46472 2.46889 2.46889 2.46923 2.49332 2.49332 2.49489 2.49489 2.51854 2.51920
 2.51920 2.52964 2.54173 2.54173 2.56704 2.56712 2.57518 2.60231 2.60953 2.60953
 2.61305 2.61305 2.67615 2.67615 2.70762 2.70762 2.72833 2.78280 2.78914 2.78914
 2.92267 2.93636 2.93636 2.94807 2.94807 3.05946 3.07955 3.17304 3.17304 3.33677
 3.33681 3.36113 3.36113 3.46077 3.50338 3.50338 3.51101 3.51101 3.59951 3.61754
 3.65219 3.65219 3.65591 3.65591 3.70729 3.78169 3.78169 3.84910 3.84910 3.85107
 3.85107 3.88521 3.88521 3.91207 3.91207 3.92059 3.92887 3.93618 3.93618 3.93943
 3.93944 3.98241 3.99700 3.99701 4.04779 4.05833 4.11565 4.11565 5.72783 5.79499
 5.79501 6.39098 6.39098 6.75114 6.81113 6.81113 6.82733 6.82734 7.10028 7.10028
 7.33771 7.56060 7.81136 7.81147
 == 25-th k-point (0.00000,0.00000,0.20411) occupation: 112==
 -64.99221 -64.99221 -64.99221 -64.99221 -64.99220 -64.99219 -64.99219 -64.99219 -64.99219 -64.99219
 -64.99219 -64.99219 -64.99218 -64.99217 -64.99217 -64.99216 -4.62123 -4.62118 -4.62118 -4.62118
 -4.62118 -4.62117 -4.62111 -4.62111 -4.62111 -4.62110 -4.62104 -4.62103 -4.62103 -4.62103
 -4.62103 -4.62098 -3.03204 -3.03204 -3.03203 -3.03203 -3.03203 -3.03203 -3.03201 -3.03201
 -3.03200 -3.03200 -3.03200 -3.03200 -3.03200 -3.03200 -3.03200 -3.03200 -3.03192 -3.03184
 -3.03184 -3.03184 -3.03184 -3.03179 -3.03164 -3.03164 -3.03164 -3.03164 -3.03150 -3.03145
 -3.03145 -3.03145 -3.03145 -3.03139 -3.03133 -3.03133 -3.03131 -3.03131 -3.03131 -3.03130
 -3.03129 -3.03129 -3.03128 -3.03128 -3.03128 -3.03128 -3.03125 -3.03125 -3.03125 -3.03125
 -0.14615 -0.09391 -0.08640 -0.08640 -0.08640 -0.08640 -0.00695 -0.00695 -0.00695 -0.00695
 0.05473 0.05473 0.05473 0.05473 0.09201 0.14068 0.14068 0.14068 0.14068 0.16313
 0.16313 0.16313 0.16313 0.18590 0.18590 0.20156 0.22746 0.22746 0.22746 0.22746
 0.23162 0.23162 0.30421 0.33979 0.35188 0.36848 0.36848 0.36848 0.36848 0.37954
 0.37954 0.37954 0.37954 0.43055 0.43055 0.43055 0.43055 0.43475 0.43475 0.43475
 0.43475 0.43705 0.43818 0.43818 0.52688 0.52889 0.52889 0.52889 0.52889 0.54706
 0.54706 0.54706 0.54706 0.54764 0.54764 0.55596 0.55596 0.55596 0.55596 0.59173
 0.62806 0.62806 0.62806 0.62806 0.63603 0.64323 0.65180 0.67431 0.67431 0.67431
 0.67431 0.70970 0.70970 0.70971 0.70971 0.74028 0.74028 0.75706 0.75920 0.75920
 0.75920 0.75920 0.76293 0.76293 0.76293 0.76293 0.76648 0.79178 0.79178 0.83216
 0.83216 0.83216 0.83216 0.85447 0.86526 0.86526 0.86526 0.86526 0.89173 0.89539
 0.89539 0.89539 0.89539 0.89609 0.89609 0.89609 0.89609 0.90690 0.90690 0.92997
 0.92997 0.92997 0.92997 0.96745 0.96745 0.96745 0.96745 0.99478 0.99478 0.99478
 0.99478 1.00589 1.00857 1.02312 1.02312 1.04106 1.04106 1.04106 1.04106 1.06694
 1.09423 1.09423 1.09423 1.09423 1.11169 1.11720 1.11720 1.11720 1.11720 1.15239
 1.15240 1.15240 1.15240 1.16618 1.16618 1.16618 1.16618 1.16680 1.18935 1.18935
 1.18935 1.18935 1.23923 1.23923 1.23923 1.23923 1.23929 1.25175 1.25175 1.25176
 1.25176 1.25449 1.25451 1.25689 1.26316 1.26316 1.26316 1.26316 1.31294 1.32049
 1.32049 1.32276 1.34108 1.34108 1.34108 1.34108 1.37644 1.38001 1.38001 1.38002
 1.38002 1.39201 1.39201 1.40524 1.40524 1.40524 1.40524 1.42628 1.42628 1.42628
 1.42628 1.46488 1.46488 1.46488 1.46488 1.46892 1.46892 1.46892 1.46892 1.49411
 1.49792 1.49792 1.52365 1.52365 1.52726 1.52726 1.52727 1.52727 1.54665 1.54896
 1.57831 1.57831 1.57832 1.57832 1.58038 1.58038 1.58039 1.58039 1.59436 1.59632
 1.59632 1.59632 1.59632 1.63131 1.63131 1.63131 1.63131 1.63881 1.63881 1.63881
 1.63881 1.67365 1.67368 1.70185 1.75436 1.75437 1.75437 1.75437 1.75497 1.75498
 1.76675 1.76721 1.77426 1.78473 1.78473 1.78473 1.78473 1.78717 1.80079 1.80079
 1.80079 1.80079 1.82255 1.82255 1.82317 1.82317 1.82317 1.82317 1.84372 1.84372
 1.84373 1.84373 1.85763 1.88771 1.88771 1.88771 1.88771 1.88846 1.90034 1.90034
 1.90035 1.90035 1.93262 1.94195 1.94215 1.94884 1.94884 1.94884 1.94884 1.96615
 1.96615 1.99841 1.99841 1.99841 1.99841 2.00259 2.01341 2.01341 2.01343 2.01343
 2.02068 2.03453 2.03907 2.03907 2.03907 2.03907 2.05768 2.05769 2.07027 2.07027
 2.07028 2.07028 2.10963 2.10963 2.10963 2.10963 2.11543 2.11543 2.13868 2.14059
 2.14059 2.14060 2.14060 2.14180 2.14863 2.15138 2.16554 2.17927 2.17927 2.17927
 2.17927 2.21804 2.21804 2.22919 2.22919 2.22919 2.22919 2.25388 2.25388 2.25389
 2.25389 2.26842 2.26843 2.26843 2.26843 2.29367 2.29367 2.29368 2.29368 2.30584
 2.32871 2.35647 2.35647 2.35647 2.35647 2.35800 2.35800 2.41672 2.41672 2.41674
 2.41674 2.42053 2.42053 2.42059 2.42060 2.42990 2.42990 2.42990 2.42990 2.45426
 2.50623 2.50623 2.50626 2.50626 2.50818 2.51555 2.51555 2.51555 2.51555 2.52587
 2.52606 2.54934 2.54934 2.54937 2.54937 2.57465 2.57465 2.57467 2.57467 2.63659
 2.63660 2.63660 2.63660 2.65307 2.65310 2.70069 2.70069 2.70079 2.70079 2.91836
 3.00758 3.00758 3.00761 3.00761 3.01041 3.01041 3.01041 3.01041 3.42011 3.42011
 3.42011 3.42011 3.46642 3.50029 3.50029 3.50030 3.50030 3.52314 3.52348 3.57880
 3.70944 3.70944 3.70944 3.70944 3.77190 3.77191 3.77191 3.77191 3.80049 3.80049
 3.80050 3.80050 3.84187 3.84189 3.89500 3.98501 3.98501 3.98502 3.98502 4.00057
 4.04911 4.04911 4.07153 4.07153 4.07153 4.07154 4.30873 4.30908 4.95064 5.33673
 5.85542 6.07224 6.53910 6.53910 6.53916 6.53916 6.66183 6.66187 6.66187 6.66188
 7.56556 7.56556 7.56557 7.56557
 == 26-th k-point (0.10205,0.10205,0.10205) occupation: 112==
 -64.99222 -64.99221 -64.99221 -64.99221 -64.99220 -64.99220 -64.99220 -64.99219 -64.99218 -64.99218
 -64.99218 -64.99217 -64.99217 -64.99217 -64.99215 -64.99214 -4.62123 -4.62119 -4.62117 -4.62117
 -4.62117 -4.62114 -4.62114 -4.62114 -4.62107 -4.62107 -4.62107 -4.62104 -4.62104 -4.62104
 -4.62101 -4.62097 -3.03202 -3.03202 -3.03202 -3.03202 -3.03202 -3.03202 -3.03201 -3.03201
 -3.03201 -3.03201 -3.03201 -3.03201 -3.03200 -3.03200 -3.03198 -3.03198 -3.03194 -3.03190
 -3.03182 -3.03182 -3.03182 -3.03172 -3.03172 -3.03172 -3.03156 -3.03156 -3.03156 -3.03146
 -3.03146 -3.03146 -3.03139 -3.03137 -3.03134 -3.03134 -3.03132 -3.03132 -3.03129 -3.03129
 -3.03129 -3.03128 -3.03128 -3.03128 -3.03127 -3.03127 -3.03127 -3.03125 -3.03125 -3.03125
 -0.15067 -0.11327 -0.07217 -0.07217 -0.07217 -0.05103 -0.05103 -0.05103 0.03256 0.03256
 0.03256 0.03466 0.03466 0.03466 0.07938 0.14120 0.14120 0.14120 0.17321 0.17321
 0.17321 0.18078 0.18078 0.18078 0.18839 0.20965 0.20965 0.20965 0.23853 0.23853
 0.25931 0.25931 0.31705 0.31705 0.31705 0.34301 0.35332 0.35332 0.35332 0.36419
 0.37842 0.37842 0.37842 0.39564 0.39564 0.40777 0.40777 0.43024 0.43024 0.43024
 0.44988 0.44988 0.44988 0.47802 0.51631 0.51631 0.51631 0.54744 0.54744 0.55530
 0.55530 0.55530 0.55542 0.55542 0.55542 0.56910 0.58062 0.58062 0.61753 0.62291
 0.62908 0.62908 0.62908 0.67333 0.67333 0.67333 0.67517 0.67517 0.67517 0.68232
 0.68232 0.68232 0.68268 0.72356 0.72356 0.72356 0.72528 0.72528 0.72528 0.74408
 0.74408 0.74408 0.74895 0.74895 0.74895 0.75585 0.75585 0.75585 0.77934 0.78147
 0.78147 0.83170 0.83170 0.83341 0.83341 0.83341 0.87184 0.87184 0.87184 0.88427
 0.88427 0.88427 0.88470 0.88470 0.88470 0.92286 0.95548 0.95548 0.95548 0.96700
 0.96700 0.96812 0.98973 0.98973 0.98973 1.00413 1.00413 1.00413 1.01895 1.01895
 1.01895 1.02980 1.02980 1.02980 1.04729 1.04729 1.05269 1.05269 1.05269 1.06303
 1.06448 1.06448 1.06448 1.06701 1.06701 1.06701 1.08999 1.08999 1.08999 1.11472
 1.15443 1.15443 1.15443 1.15963 1.15963 1.15963 1.17429 1.17429 1.17429 1.18360
 1.18360 1.18360 1.21098 1.21098 1.21098 1.21630 1.21630 1.21802 1.21802 1.21802
 1.22278 1.22278 1.24618 1.28003 1.28003 1.30400 1.30400 1.31433 1.31433 1.31433
 1.33163 1.33163 1.33163 1.33307 1.33307 1.33307 1.36486 1.36486 1.36486 1.37154
 1.38521 1.40772 1.40954 1.40954 1.40954 1.42433 1.42433 1.42433 1.43461 1.43461
 1.43461 1.47623 1.47623 1.48118 1.48118 1.48118 1.48218 1.48218 1.48218 1.48622
 1.49392 1.52289 1.52289 1.53801 1.53801 1.53801 1.54719 1.54719 1.54724 1.54724
 1.54724 1.56118 1.56118 1.56118 1.58284 1.58284 1.58284 1.59541 1.59541 1.59987
 1.59987 1.61761 1.61761 1.61761 1.64557 1.64557 1.64557 1.67247 1.67247 1.67247
 1.70262 1.70262 1.70950 1.70950 1.70950 1.72497 1.73891 1.73891 1.73891 1.74313
 1.74313 1.74313 1.76663 1.76663 1.76663 1.79863 1.79863 1.80344 1.80344 1.80344
 1.81407 1.81407 1.81407 1.82218 1.82303 1.82303 1.82303 1.83222 1.83222 1.83222
 1.84721 1.84721 1.86266 1.86266 1.86266 1.89342 1.89342 1.89342 1.89916 1.90492
 1.91355 1.92797 1.92797 1.94124 1.94124 1.94124 1.96201 1.96201 1.96201 1.96219
 1.98483 1.98483 1.98483 1.99448 2.01094 2.01094 2.01094 2.01775 2.01787 2.01787
 2.02617 2.02617 2.02617 2.03679 2.03679 2.03679 2.04241 2.06021 2.06021 2.06021
 2.06212 2.06212 2.09101 2.09101 2.09101 2.12997 2.12997 2.12997 2.14210 2.15820
 2.15820 2.15820 2.17737 2.17737 2.17737 2.18516 2.18516 2.19367 2.19526 2.19526
 2.22069 2.22069 2.22069 2.23092 2.23092 2.23092 2.23333 2.23333 2.25441 2.25441
 2.25441 2.29865 2.29865 2.29865 2.31808 2.31808 2.31808 2.34084 2.34084 2.34084
 2.35186 2.35186 2.35753 2.35969 2.35969 2.35969 2.38224 2.38224 2.38224 2.38820
 2.38820 2.38820 2.40937 2.40937 2.40937 2.41155 2.42874 2.42874 2.44094 2.44094
 2.44094 2.44612 2.44612 2.44612 2.45709 2.45709 2.45709 2.52463 2.52463 2.52463
 2.52759 2.52759 2.52759 2.52837 2.52837 2.54886 2.55906 2.55906 2.55906 2.58591
 2.58591 2.58591 2.63301 2.63301 2.63301 2.73347 2.73347 2.73347 2.73440 2.73440
 3.08892 3.08892 3.08892 3.14679 3.14679 3.14679 3.25876 3.25876 3.25876 3.34773
 3.36005 3.42216 3.42216 3.42216 3.53821 3.53821 3.53821 3.60613 3.60613 3.60613
 3.68212 3.68212 3.68212 3.69097 3.69097 3.69359 3.69360 3.72849 3.76892 3.76892
 3.76892 3.89074 3.89074 3.89074 3.93175 4.00166 4.00166 4.00166 4.01776 4.01776
 4.01776 4.02481 4.02481 4.02481 4.04959 4.04959 4.04991 4.04991 4.09788 4.46964
 5.53430 5.53430 5.53430 5.82570 5.82570 5.82570 6.83951 7.61992 7.61992 7.61992
 7.84905 7.84905 7.84906 8.26744
 ---------------------------------------------------------------------------
 VBM is at 13-th k-point with 7.51918 eV
 CBM is at 13-th k-point with 8.27446 eV
 Band gap is 0.75528 eV


           Ground-State Mulliken Net Atomic Charges

      Atom                 Charge (a.u.)          Spin (a.u.)
   --------------------------------------------------------
      1 Si                (0.000007,0.000000)    (0.000000,0.000000)
      2 Si               (0.000012,-0.000000)    (0.000000,0.000000)
      3 Si               (0.000019,-0.000000)    (0.000000,0.000000)
      4 Si               (-0.000002,0.000000)    (0.000000,0.000000)
      5 Si                (0.000019,0.000000)    (0.000000,0.000000)
      6 Si              (-0.000002,-0.000000)    (0.000000,0.000000)
      7 Si               (0.000003,-0.000000)    (0.000000,0.000000)
      8 Si                (0.000010,0.000000)    (0.000000,0.000000)
      9 Si                (0.000003,0.000000)    (0.000000,0.000000)
     10 Si               (-0.000017,0.000000)    (0.000000,0.000000)
     11 Si              (-0.000014,-0.000000)    (0.000000,0.000000)
     12 Si              (-0.000003,-0.000000)    (0.000000,0.000000)
     13 Si              (-0.000014,-0.000000)    (0.000000,0.000000)
     14 Si               (-0.000003,0.000000)    (0.000000,0.000000)
     15 Si                (0.000002,0.000000)    (0.000000,0.000000)
     16 Si              (-0.000019,-0.000000)    (0.000000,0.000000)
   --------------------------------------------------------
  Sum of atomic charges =     (-0.000000,-0.000000)
  Sum of spin   charges =       (0.000000,0.000000)



 Total job time:  416.16 s.
 Mon Sep  8 04:00:40 2025


        *************************************************************
        *                                                           *
        *  Thank you very much for using QCPBC. Have a nice day.    *
        *                                                           *
        *************************************************************

