                  Welcome to Q-Chem
           with Periodic Boundary Condition
     A Quantum Leap Into The Future Of Chemistry

 Adam Rettig, Xintian Feng, Meng-Fu Chen, Hieu Dinh, Stephen Quiton,
 Anton Ni, Paul J. Robinson, Jinghong Zhang, Joonho Lee

Contributors to earlier versions of Q-Chem not listed above:
 Evgeny Epifanovsky, Leo Cunha, Jerome F. Gonthier, Kuan-Yu Liu
 Input file: /n/home02/hieudinh/rsdf_test_full_J/benchmark_pyscf/si/qcpbc/si_ccpvtz_222.in
 Scratch folder: /n/netscratch/joonholee_lab/Lab/hieudinh//nhome02hieudinhrsdf_test_full_Jbenchmark_pyscfsiqcpbcsi_ccpvtz_222.scratch20250908034850
 Auxillary files located at: /n/holylabs/LABS/joonholee_lab/Lab/qchem_base/qcaux
 Q-Chem begins on Mon Sep  8 03:48:51 2025

 -------------------------------------------------------------
 User input:
 -------------------------------------------------------------
 $lattice
 3
 0.000000 10.261200 10.261200
 10.261200 0.000000 10.261200
 10.261200 10.261200 0.000000
 $end
 
 $unitcell
 ABSOLUTE
 0 1
 Si 0.000000 0.000000 0.000000
 Si 2.565300 2.565300 2.565300
 Si 5.130600 5.130600 0.000000
 Si 7.695900 7.695900 2.565300
 Si 5.130600 0.000000 5.130600
 Si 7.695900 2.565300 7.695900
 Si 10.261200 5.130600 5.130600
 Si 12.826500 7.695900 7.695900
 Si 0.000000 5.130600 5.130600
 Si 2.565300 7.695900 7.695900
 Si 5.130600 10.261200 5.130600
 Si 7.695900 12.826500 7.695900
 Si 5.130600 5.130600 10.261200
 Si 7.695900 7.695900 12.826500
 Si 10.261200 10.261200 10.261200
 Si 12.826500 12.826500 12.826500
 $end
 $rem
 jobtype = sp
 method = pbe
 scf_convergence = 5
 scf_guess = autosad
 scf_algorithm = diis_gdm
 basis = gen
 aux_basis = gen
 input_bohr = true
 symmetry false
 
 mp_mesh = [2,2,2]
 
 integral_direct true
 bvk_cgto true
 
 thresh 14
 mem_total 1000000
 threads 32
 
 MAX_SCF_CYCLES 500
 madelung = false
 omega 0.4
 do_rij_bigmem true
 automate_g true
 print_level 10
 rsdf_print_level 1
 grid_type_xc 1 
 
 thresh_1e2c_sp 1e-14
 thresh_2e3c_bra_ket_sep 1e-10
 thresh_g 1e-12
 $end
 
 $basis
 Si     0
 S   13   1.00
       2.549000D+05           6.251010D-05
       3.819000D+04           4.855530D-04
       8.690000D+03           2.545160D-03
       2.462000D+03           1.058660D-02
       8.048000D+02           3.687870D-02
       2.913000D+02           1.074790D-01
       1.136000D+02           2.479360D-01
       4.675000D+01           3.909270D-01
       1.982000D+01           3.020260D-01
       7.708000D+00           5.592360D-02
       3.340000D+00          -4.024060D-03
       1.402000D+00           2.580300D-03
       2.070000D-01           6.079300D-04
 S   13   1.00
       2.549000D+05          -1.663700D-05
       3.819000D+04          -1.293100D-04
       8.690000D+03          -6.788280D-04
       2.462000D+03          -2.841170D-03
       8.048000D+02          -1.005510D-02
       2.913000D+02          -3.057740D-02
       1.136000D+02          -7.772560D-02
       4.675000D+01          -1.542360D-01
       1.982000D+01          -1.803680D-01
       7.708000D+00           7.982180D-02
       3.340000D+00           5.474410D-01
       1.402000D+00           4.801190D-01
       2.070000D-01          -1.069960D-02
 S   13   1.00
       2.549000D+05           4.262570D-06
       3.819000D+04           3.310620D-05
       8.690000D+03           1.740150D-04
       2.462000D+03           7.275740D-04
       8.048000D+02           2.583330D-03
       2.913000D+02           7.863540D-03
       1.136000D+02           2.021550D-02
       4.675000D+01           4.073200D-02
       1.982000D+01           4.993580D-02
       7.708000D+00          -2.493960D-02
       3.340000D+00          -1.903500D-01
       1.402000D+00          -3.183500D-01
       2.070000D-01           6.811800D-01
 S   1   1.00
       4.387000D-01           1.000000D+00
 S   1   1.00
       7.944000D-02           1.000000D+00
 P   7   1.00
       4.815000D+02           1.920450D-03
       1.139000D+02           1.535520D-02
       3.623000D+01           7.139910D-02
       1.334000D+01           2.130520D-01
       5.252000D+00           3.903540D-01
       2.120000D+00           3.937210D-01
       2.528000D-01           3.956300D-03
 P   7   1.00
       4.815000D+02          -4.052200D-04
       1.139000D+02          -3.358960D-03
       3.623000D+01          -1.528600D-02
       1.334000D+01          -4.892180D-02
       5.252000D+00          -8.550080D-02
       2.120000D+00          -1.121370D-01
       2.528000D-01           5.519190D-01
 P   1   1.00
       8.561000D-01           1.000000D+00
 P   1   1.00
       7.889000D-02           1.000000D+00
 D   1   1.00
       4.810000D-01           1.000000D+00
 D   1   1.00
       1.590000D-01           1.000000D+00
 F   1   1.00
       3.360000D-01           1.0000000
 ****
 $end
 
 $aux_basis
 Si     0
 S   1   1.00
    3966.7823006              1.0000000
 S   1   1.00
     913.65240130             1.0000000
 S   1   1.00
     309.47572532             1.0000000
 S   1   1.00
     121.48371896             1.0000000
 S   1   1.00
      51.949842541            1.0000000
 S   1   1.00
      22.531415259            1.0000000
 S   1   1.00
       8.6118544488           1.0000000
 S   1   1.00
       4.0353794583           1.0000000
 S   1   1.00
       1.5605354258           1.0000000
 S   1   1.00
       0.82658343937          1.0000000
 S   1   1.00
       0.48403471116          1.0000000
 S   1   1.00
       0.28757870174          1.0000000
 S   1   1.00
       0.13188187610          1.0000000
 P   1   1.00
     629.30680737             1.0000000
 P   1   1.00
     255.71500914             1.0000000
 P   1   1.00
     109.29630664             1.0000000
 P   1   1.00
      45.943769765            1.0000000
 P   1   1.00
      19.784226943            1.0000000
 P   1   1.00
       9.7746090299           1.0000000
 P   1   1.00
       4.6426781657           1.0000000
 P   1   1.00
       2.0449974109           1.0000000
 P   1   1.00
       0.82208144153          1.0000000
 P   1   1.00
       0.40978741460          1.0000000
 P   1   1.00
       0.18451465956          1.0000000
 D   1   1.00
     181.67344614             1.0000000
 D   1   1.00
      59.654414923            1.0000000
 D   1   1.00
      25.353983605            1.0000000
 D   1   1.00
      11.718973530            1.0000000
 D   1   1.00
       5.4455778078           1.0000000
 D   1   1.00
       2.4659440013           1.0000000
 D   1   1.00
       1.0365292729           1.0000000
 D   1   1.00
       0.41097001308          1.0000000
 D   1   1.00
       0.16950067844          1.0000000
 F   1   1.00
       1.9560745621690000000  1.0000000
 F   1   1.00
        .55887844633400000000 1.0000000
 F   1   1.00
        .23687844633400000000 1.0000000
 G   1   1.00
        .41387844633400000000 1.0000000
 ****
 $end
 -------------------------------------------------------------
 Running PBC job

 Requested Exchange Correlation Functionals: 
  DFT Exchange:  1.00000 pbe_x
  DFT Correlation:  1.00000 pbe_c
 using 32 threads for computing.
 ---------------------------------------------------------------
      Coordinates of Atoms in Central Unit Cell (Angstroms)
    I     Atom         X            Y            Z
 ---------------------------------------------------------------
    1      Si      0.000000     0.000000     0.000000
    2      Si      1.357498     1.357498     1.357498
    3      Si      2.714997     2.714997     0.000000
    4      Si      4.072495     4.072495     1.357498
    5      Si      2.714997     0.000000     2.714997
    6      Si      4.072495     1.357498     4.072495
    7      Si      5.429993     2.714997     2.714997
    8      Si      6.787491     4.072495     4.072495
    9      Si      0.000000     2.714997     2.714997
   10      Si      1.357498     4.072495     4.072495
   11      Si      2.714997     5.429993     2.714997
   12      Si      4.072495     6.787491     4.072495
   13      Si      2.714997     2.714997     5.429993
   14      Si      4.072495     4.072495     6.787491
   15      Si      5.429993     5.429993     5.429993
   16      Si      6.787491     6.787491     6.787491
 ---------------------------------------------------------------
 --------------------------------------------------
              Lattice Vectors (Angstroms)
              X            Y            Z
 --------------------------------------------------
   X       0.000000     5.429993     5.429993
   Y       5.429993     0.000000     5.429993
   Z       5.429993     5.429993     0.000000
 --------------------------------------------------
 --------------------------------------------------
       Reciprocal Lattice Vectors (Angstroms^-1)
              X            Y            Z
 --------------------------------------------------
   X      -0.578563     0.578563     0.578563
   Y       0.578563    -0.578563     0.578563
   Z       0.578563     0.578563    -0.578563
 --------------------------------------------------

 Single point calculation requested

 Hamiltonian contributions:
 List of terms in Hamiltonian: kpts_nn, kpts_kinetic, kpts_vnuc_df, kpts_xc, kpts_rij_bigmem

 K-Points calculation started.

 Basis set information about using solid harmonic (1) or Cartesian (0):
  si : D(1) D(1) F(1) 

 Basis set information about using solid harmonic (1) or Cartesian (0):
  si : D(1) D(1) D(1) D(1) D(1) D(1) D(1) D(1) D(1) F(1) F(1) F(1) G(1) 

 There are 544 basis functions in the central unit cell.
 Print atomic basis of atoms in the central unit cell:
 -------------------------------------------------------------
16 432 960 144

  0.00000000000000e+00  0.00000000000000e+00  0.00000000000000e+00
  2.56530000000000e+00  2.56530000000000e+00  2.56530000000000e+00
  5.13060000000000e+00  5.13060000000000e+00  0.00000000000000e+00
  7.69590000000000e+00  7.69590000000000e+00  2.56530000000000e+00
  5.13060000000000e+00  0.00000000000000e+00  5.13060000000000e+00
  7.69590000000000e+00  2.56530000000000e+00  7.69590000000000e+00
  1.02612000000000e+01  5.13060000000000e+00  5.13060000000000e+00
  1.28265000000000e+01  7.69590000000000e+00  7.69590000000000e+00
  0.00000000000000e+00  5.13060000000000e+00  5.13060000000000e+00
  2.56530000000000e+00  7.69590000000000e+00  7.69590000000000e+00
  5.13060000000000e+00  1.02612000000000e+01  5.13060000000000e+00
  7.69590000000000e+00  1.28265000000000e+01  7.69590000000000e+00
  5.13060000000000e+00  5.13060000000000e+00  1.02612000000000e+01
  7.69590000000000e+00  7.69590000000000e+00  1.28265000000000e+01
  1.02612000000000e+01  1.02612000000000e+01  1.02612000000000e+01
  1.28265000000000e+01  1.28265000000000e+01  1.28265000000000e+01

  2.54900000000000e+05
  3.81900000000000e+04
  8.69000000000000e+03
  2.46200000000000e+03
  8.04800000000000e+02
  2.91300000000000e+02
  1.13600000000000e+02
  4.67500000000000e+01
  1.98200000000000e+01
  7.70800000000000e+00
  3.34000000000000e+00
  1.40200000000000e+00
  2.07000000000000e-01
  4.38700000000000e-01
  7.94400000000000e-02
  4.81500000000000e+02
  1.13900000000000e+02
  3.62300000000000e+01
  1.33400000000000e+01
  5.25200000000000e+00
  2.12000000000000e+00
  2.52800000000000e-01
  8.56100000000000e-01
  7.88900000000000e-02
  4.81000000000000e-01
  1.59000000000000e-01
  3.36000000000000e-01
  2.54900000000000e+05
  3.81900000000000e+04
  8.69000000000000e+03
  2.46200000000000e+03
  8.04800000000000e+02
  2.91300000000000e+02
  1.13600000000000e+02
  4.67500000000000e+01
  1.98200000000000e+01
  7.70800000000000e+00
  3.34000000000000e+00
  1.40200000000000e+00
  2.07000000000000e-01
  4.38700000000000e-01
  7.94400000000000e-02
  4.81500000000000e+02
  1.13900000000000e+02
  3.62300000000000e+01
  1.33400000000000e+01
  5.25200000000000e+00
  2.12000000000000e+00
  2.52800000000000e-01
  8.56100000000000e-01
  7.88900000000000e-02
  4.81000000000000e-01
  1.59000000000000e-01
  3.36000000000000e-01
  2.54900000000000e+05
  3.81900000000000e+04
  8.69000000000000e+03
  2.46200000000000e+03
  8.04800000000000e+02
  2.91300000000000e+02
  1.13600000000000e+02
  4.67500000000000e+01
  1.98200000000000e+01
  7.70800000000000e+00
  3.34000000000000e+00
  1.40200000000000e+00
  2.07000000000000e-01
  4.38700000000000e-01
  7.94400000000000e-02
  4.81500000000000e+02
  1.13900000000000e+02
  3.62300000000000e+01
  1.33400000000000e+01
  5.25200000000000e+00
  2.12000000000000e+00
  2.52800000000000e-01
  8.56100000000000e-01
  7.88900000000000e-02
  4.81000000000000e-01
  1.59000000000000e-01
  3.36000000000000e-01
  2.54900000000000e+05
  3.81900000000000e+04
  8.69000000000000e+03
  2.46200000000000e+03
  8.04800000000000e+02
  2.91300000000000e+02
  1.13600000000000e+02
  4.67500000000000e+01
  1.98200000000000e+01
  7.70800000000000e+00
  3.34000000000000e+00
  1.40200000000000e+00
  2.07000000000000e-01
  4.38700000000000e-01
  7.94400000000000e-02
  4.81500000000000e+02
  1.13900000000000e+02
  3.62300000000000e+01
  1.33400000000000e+01
  5.25200000000000e+00
  2.12000000000000e+00
  2.52800000000000e-01
  8.56100000000000e-01
  7.88900000000000e-02
  4.81000000000000e-01
  1.59000000000000e-01
  3.36000000000000e-01
  2.54900000000000e+05
  3.81900000000000e+04
  8.69000000000000e+03
  2.46200000000000e+03
  8.04800000000000e+02
  2.91300000000000e+02
  1.13600000000000e+02
  4.67500000000000e+01
  1.98200000000000e+01
  7.70800000000000e+00
  3.34000000000000e+00
  1.40200000000000e+00
  2.07000000000000e-01
  4.38700000000000e-01
  7.94400000000000e-02
  4.81500000000000e+02
  1.13900000000000e+02
  3.62300000000000e+01
  1.33400000000000e+01
  5.25200000000000e+00
  2.12000000000000e+00
  2.52800000000000e-01
  8.56100000000000e-01
  7.88900000000000e-02
  4.81000000000000e-01
  1.59000000000000e-01
  3.36000000000000e-01
  2.54900000000000e+05
  3.81900000000000e+04
  8.69000000000000e+03
  2.46200000000000e+03
  8.04800000000000e+02
  2.91300000000000e+02
  1.13600000000000e+02
  4.67500000000000e+01
  1.98200000000000e+01
  7.70800000000000e+00
  3.34000000000000e+00
  1.40200000000000e+00
  2.07000000000000e-01
  4.38700000000000e-01
  7.94400000000000e-02
  4.81500000000000e+02
  1.13900000000000e+02
  3.62300000000000e+01
  1.33400000000000e+01
  5.25200000000000e+00
  2.12000000000000e+00
  2.52800000000000e-01
  8.56100000000000e-01
  7.88900000000000e-02
  4.81000000000000e-01
  1.59000000000000e-01
  3.36000000000000e-01
  2.54900000000000e+05
  3.81900000000000e+04
  8.69000000000000e+03
  2.46200000000000e+03
  8.04800000000000e+02
  2.91300000000000e+02
  1.13600000000000e+02
  4.67500000000000e+01
  1.98200000000000e+01
  7.70800000000000e+00
  3.34000000000000e+00
  1.40200000000000e+00
  2.07000000000000e-01
  4.38700000000000e-01
  7.94400000000000e-02
  4.81500000000000e+02
  1.13900000000000e+02
  3.62300000000000e+01
  1.33400000000000e+01
  5.25200000000000e+00
  2.12000000000000e+00
  2.52800000000000e-01
  8.56100000000000e-01
  7.88900000000000e-02
  4.81000000000000e-01
  1.59000000000000e-01
  3.36000000000000e-01
  2.54900000000000e+05
  3.81900000000000e+04
  8.69000000000000e+03
  2.46200000000000e+03
  8.04800000000000e+02
  2.91300000000000e+02
  1.13600000000000e+02
  4.67500000000000e+01
  1.98200000000000e+01
  7.70800000000000e+00
  3.34000000000000e+00
  1.40200000000000e+00
  2.07000000000000e-01
  4.38700000000000e-01
  7.94400000000000e-02
  4.81500000000000e+02
  1.13900000000000e+02
  3.62300000000000e+01
  1.33400000000000e+01
  5.25200000000000e+00
  2.12000000000000e+00
  2.52800000000000e-01
  8.56100000000000e-01
  7.88900000000000e-02
  4.81000000000000e-01
  1.59000000000000e-01
  3.36000000000000e-01
  2.54900000000000e+05
  3.81900000000000e+04
  8.69000000000000e+03
  2.46200000000000e+03
  8.04800000000000e+02
  2.91300000000000e+02
  1.13600000000000e+02
  4.67500000000000e+01
  1.98200000000000e+01
  7.70800000000000e+00
  3.34000000000000e+00
  1.40200000000000e+00
  2.07000000000000e-01
  4.38700000000000e-01
  7.94400000000000e-02
  4.81500000000000e+02
  1.13900000000000e+02
  3.62300000000000e+01
  1.33400000000000e+01
  5.25200000000000e+00
  2.12000000000000e+00
  2.52800000000000e-01
  8.56100000000000e-01
  7.88900000000000e-02
  4.81000000000000e-01
  1.59000000000000e-01
  3.36000000000000e-01
  2.54900000000000e+05
  3.81900000000000e+04
  8.69000000000000e+03
  2.46200000000000e+03
  8.04800000000000e+02
  2.91300000000000e+02
  1.13600000000000e+02
  4.67500000000000e+01
  1.98200000000000e+01
  7.70800000000000e+00
  3.34000000000000e+00
  1.40200000000000e+00
  2.07000000000000e-01
  4.38700000000000e-01
  7.94400000000000e-02
  4.81500000000000e+02
  1.13900000000000e+02
  3.62300000000000e+01
  1.33400000000000e+01
  5.25200000000000e+00
  2.12000000000000e+00
  2.52800000000000e-01
  8.56100000000000e-01
  7.88900000000000e-02
  4.81000000000000e-01
  1.59000000000000e-01
  3.36000000000000e-01
  2.54900000000000e+05
  3.81900000000000e+04
  8.69000000000000e+03
  2.46200000000000e+03
  8.04800000000000e+02
  2.91300000000000e+02
  1.13600000000000e+02
  4.67500000000000e+01
  1.98200000000000e+01
  7.70800000000000e+00
  3.34000000000000e+00
  1.40200000000000e+00
  2.07000000000000e-01
  4.38700000000000e-01
  7.94400000000000e-02
  4.81500000000000e+02
  1.13900000000000e+02
  3.62300000000000e+01
  1.33400000000000e+01
  5.25200000000000e+00
  2.12000000000000e+00
  2.52800000000000e-01
  8.56100000000000e-01
  7.88900000000000e-02
  4.81000000000000e-01
  1.59000000000000e-01
  3.36000000000000e-01
  2.54900000000000e+05
  3.81900000000000e+04
  8.69000000000000e+03
  2.46200000000000e+03
  8.04800000000000e+02
  2.91300000000000e+02
  1.13600000000000e+02
  4.67500000000000e+01
  1.98200000000000e+01
  7.70800000000000e+00
  3.34000000000000e+00
  1.40200000000000e+00
  2.07000000000000e-01
  4.38700000000000e-01
  7.94400000000000e-02
  4.81500000000000e+02
  1.13900000000000e+02
  3.62300000000000e+01
  1.33400000000000e+01
  5.25200000000000e+00
  2.12000000000000e+00
  2.52800000000000e-01
  8.56100000000000e-01
  7.88900000000000e-02
  4.81000000000000e-01
  1.59000000000000e-01
  3.36000000000000e-01
  2.54900000000000e+05
  3.81900000000000e+04
  8.69000000000000e+03
  2.46200000000000e+03
  8.04800000000000e+02
  2.91300000000000e+02
  1.13600000000000e+02
  4.67500000000000e+01
  1.98200000000000e+01
  7.70800000000000e+00
  3.34000000000000e+00
  1.40200000000000e+00
  2.07000000000000e-01
  4.38700000000000e-01
  7.94400000000000e-02
  4.81500000000000e+02
  1.13900000000000e+02
  3.62300000000000e+01
  1.33400000000000e+01
  5.25200000000000e+00
  2.12000000000000e+00
  2.52800000000000e-01
  8.56100000000000e-01
  7.88900000000000e-02
  4.81000000000000e-01
  1.59000000000000e-01
  3.36000000000000e-01
  2.54900000000000e+05
  3.81900000000000e+04
  8.69000000000000e+03
  2.46200000000000e+03
  8.04800000000000e+02
  2.91300000000000e+02
  1.13600000000000e+02
  4.67500000000000e+01
  1.98200000000000e+01
  7.70800000000000e+00
  3.34000000000000e+00
  1.40200000000000e+00
  2.07000000000000e-01
  4.38700000000000e-01
  7.94400000000000e-02
  4.81500000000000e+02
  1.13900000000000e+02
  3.62300000000000e+01
  1.33400000000000e+01
  5.25200000000000e+00
  2.12000000000000e+00
  2.52800000000000e-01
  8.56100000000000e-01
  7.88900000000000e-02
  4.81000000000000e-01
  1.59000000000000e-01
  3.36000000000000e-01
  2.54900000000000e+05
  3.81900000000000e+04
  8.69000000000000e+03
  2.46200000000000e+03
  8.04800000000000e+02
  2.91300000000000e+02
  1.13600000000000e+02
  4.67500000000000e+01
  1.98200000000000e+01
  7.70800000000000e+00
  3.34000000000000e+00
  1.40200000000000e+00
  2.07000000000000e-01
  4.38700000000000e-01
  7.94400000000000e-02
  4.81500000000000e+02
  1.13900000000000e+02
  3.62300000000000e+01
  1.33400000000000e+01
  5.25200000000000e+00
  2.12000000000000e+00
  2.52800000000000e-01
  8.56100000000000e-01
  7.88900000000000e-02
  4.81000000000000e-01
  1.59000000000000e-01
  3.36000000000000e-01
  2.54900000000000e+05
  3.81900000000000e+04
  8.69000000000000e+03
  2.46200000000000e+03
  8.04800000000000e+02
  2.91300000000000e+02
  1.13600000000000e+02
  4.67500000000000e+01
  1.98200000000000e+01
  7.70800000000000e+00
  3.34000000000000e+00
  1.40200000000000e+00
  2.07000000000000e-01
  4.38700000000000e-01
  7.94400000000000e-02
  4.81500000000000e+02
  1.13900000000000e+02
  3.62300000000000e+01
  1.33400000000000e+01
  5.25200000000000e+00
  2.12000000000000e+00
  2.52800000000000e-01
  8.56100000000000e-01
  7.88900000000000e-02
  4.81000000000000e-01
  1.59000000000000e-01
  3.36000000000000e-01

  5.05342882924414e-01
  9.45273469411120e-01
  1.63244480027292e+00
  2.63682388500924e+00
  3.97100251949347e+00
  5.40054468526540e+00
  6.14797258543505e+00
  4.98070088997371e+00
  2.02176489746253e+00
  1.84357149094381e-01
 -7.08488623570591e-03
  2.36913493026560e-03
  1.32950482512095e-04
 -1.38957418994420e-01
 -2.60090027852347e-01
 -4.49835706775664e-01
 -7.31126629696563e-01
 -1.11861777375438e+00
 -1.58739593447389e+00
 -1.99125636701477e+00
 -2.03025837503363e+00
 -1.24743111609232e+00
  2.71867405206707e-01
  9.95810075477156e-01
  4.55448471363036e-01
 -2.41754544584911e-03
  5.58641690839409e-02
  1.04485498965527e-01
  1.80940572893667e-01
  2.93783669027015e-01
  4.50951988226580e-01
  6.40557184508875e-01
  8.12648389129307e-01
  8.41310655339178e-01
  5.41906290515089e-01
 -1.33284671521752e-01
 -5.43309343865180e-01
 -4.73860280618372e-01
  2.41503867585103e-01
  3.84180942836044e-01
  1.06644759418552e-01
  6.70133452164188e+00
  8.83940558806038e+00
  9.81840820158908e+00
  8.40317351789580e+00
  4.80150582160193e+00
  1.55819330730478e+00
  1.09716888313239e-03
 -2.35644848731218e+00
 -3.22241300088705e+00
 -3.50308751124858e+00
 -3.21565115351729e+00
 -1.75266045923181e+00
 -7.39589051144409e-01
  2.55075294015732e-01
  1.17380433533106e+00
  5.95960578383022e-02
  4.57260134599596e-01
  6.58952976069849e-02
  1.26537084505476e-01
  5.05342882924414e-01
  9.45273469411120e-01
  1.63244480027292e+00
  2.63682388500924e+00
  3.97100251949347e+00
  5.40054468526540e+00
  6.14797258543505e+00
  4.98070088997371e+00
  2.02176489746253e+00
  1.84357149094381e-01
 -7.08488623570591e-03
  2.36913493026560e-03
  1.32950482512095e-04
 -1.38957418994420e-01
 -2.60090027852347e-01
 -4.49835706775664e-01
 -7.31126629696563e-01
 -1.11861777375438e+00
 -1.58739593447389e+00
 -1.99125636701477e+00
 -2.03025837503363e+00
 -1.24743111609232e+00
  2.71867405206707e-01
  9.95810075477156e-01
  4.55448471363036e-01
 -2.41754544584911e-03
  5.58641690839409e-02
  1.04485498965527e-01
  1.80940572893667e-01
  2.93783669027015e-01
  4.50951988226580e-01
  6.40557184508875e-01
  8.12648389129307e-01
  8.41310655339178e-01
  5.41906290515089e-01
 -1.33284671521752e-01
 -5.43309343865180e-01
 -4.73860280618372e-01
  2.41503867585103e-01
  3.84180942836044e-01
  1.06644759418552e-01
  6.70133452164188e+00
  8.83940558806038e+00
  9.81840820158908e+00
  8.40317351789580e+00
  4.80150582160193e+00
  1.55819330730478e+00
  1.09716888313239e-03
 -2.35644848731218e+00
 -3.22241300088705e+00
 -3.50308751124858e+00
 -3.21565115351729e+00
 -1.75266045923181e+00
 -7.39589051144409e-01
  2.55075294015732e-01
  1.17380433533106e+00
  5.95960578383022e-02
  4.57260134599596e-01
  6.58952976069849e-02
  1.26537084505476e-01
  5.05342882924414e-01
  9.45273469411120e-01
  1.63244480027292e+00
  2.63682388500924e+00
  3.97100251949347e+00
  5.40054468526540e+00
  6.14797258543505e+00
  4.98070088997371e+00
  2.02176489746253e+00
  1.84357149094381e-01
 -7.08488623570591e-03
  2.36913493026560e-03
  1.32950482512095e-04
 -1.38957418994420e-01
 -2.60090027852347e-01
 -4.49835706775664e-01
 -7.31126629696563e-01
 -1.11861777375438e+00
 -1.58739593447389e+00
 -1.99125636701477e+00
 -2.03025837503363e+00
 -1.24743111609232e+00
  2.71867405206707e-01
  9.95810075477156e-01
  4.55448471363036e-01
 -2.41754544584911e-03
  5.58641690839409e-02
  1.04485498965527e-01
  1.80940572893667e-01
  2.93783669027015e-01
  4.50951988226580e-01
  6.40557184508875e-01
  8.12648389129307e-01
  8.41310655339178e-01
  5.41906290515089e-01
 -1.33284671521752e-01
 -5.43309343865180e-01
 -4.73860280618372e-01
  2.41503867585103e-01
  3.84180942836044e-01
  1.06644759418552e-01
  6.70133452164188e+00
  8.83940558806038e+00
  9.81840820158908e+00
  8.40317351789580e+00
  4.80150582160193e+00
  1.55819330730478e+00
  1.09716888313239e-03
 -2.35644848731218e+00
 -3.22241300088705e+00
 -3.50308751124858e+00
 -3.21565115351729e+00
 -1.75266045923181e+00
 -7.39589051144409e-01
  2.55075294015732e-01
  1.17380433533106e+00
  5.95960578383022e-02
  4.57260134599596e-01
  6.58952976069849e-02
  1.26537084505476e-01
  5.05342882924414e-01
  9.45273469411120e-01
  1.63244480027292e+00
  2.63682388500924e+00
  3.97100251949347e+00
  5.40054468526540e+00
  6.14797258543505e+00
  4.98070088997371e+00
  2.02176489746253e+00
  1.84357149094381e-01
 -7.08488623570591e-03
  2.36913493026560e-03
  1.32950482512095e-04
 -1.38957418994420e-01
 -2.60090027852347e-01
 -4.49835706775664e-01
 -7.31126629696563e-01
 -1.11861777375438e+00
 -1.58739593447389e+00
 -1.99125636701477e+00
 -2.03025837503363e+00
 -1.24743111609232e+00
  2.71867405206707e-01
  9.95810075477156e-01
  4.55448471363036e-01
 -2.41754544584911e-03
  5.58641690839409e-02
  1.04485498965527e-01
  1.80940572893667e-01
  2.93783669027015e-01
  4.50951988226580e-01
  6.40557184508875e-01
  8.12648389129307e-01
  8.41310655339178e-01
  5.41906290515089e-01
 -1.33284671521752e-01
 -5.43309343865180e-01
 -4.73860280618372e-01
  2.41503867585103e-01
  3.84180942836044e-01
  1.06644759418552e-01
  6.70133452164188e+00
  8.83940558806038e+00
  9.81840820158908e+00
  8.40317351789580e+00
  4.80150582160193e+00
  1.55819330730478e+00
  1.09716888313239e-03
 -2.35644848731218e+00
 -3.22241300088705e+00
 -3.50308751124858e+00
 -3.21565115351729e+00
 -1.75266045923181e+00
 -7.39589051144409e-01
  2.55075294015732e-01
  1.17380433533106e+00
  5.95960578383022e-02
  4.57260134599596e-01
  6.58952976069849e-02
  1.26537084505476e-01
  5.05342882924414e-01
  9.45273469411120e-01
  1.63244480027292e+00
  2.63682388500924e+00
  3.97100251949347e+00
  5.40054468526540e+00
  6.14797258543505e+00
  4.98070088997371e+00
  2.02176489746253e+00
  1.84357149094381e-01
 -7.08488623570591e-03
  2.36913493026560e-03
  1.32950482512095e-04
 -1.38957418994420e-01
 -2.60090027852347e-01
 -4.49835706775664e-01
 -7.31126629696563e-01
 -1.11861777375438e+00
 -1.58739593447389e+00
 -1.99125636701477e+00
 -2.03025837503363e+00
 -1.24743111609232e+00
  2.71867405206707e-01
  9.95810075477156e-01
  4.55448471363036e-01
 -2.41754544584911e-03
  5.58641690839409e-02
  1.04485498965527e-01
  1.80940572893667e-01
  2.93783669027015e-01
  4.50951988226580e-01
  6.40557184508875e-01
  8.12648389129307e-01
  8.41310655339178e-01
  5.41906290515089e-01
 -1.33284671521752e-01
 -5.43309343865180e-01
 -4.73860280618372e-01
  2.41503867585103e-01
  3.84180942836044e-01
  1.06644759418552e-01
  6.70133452164188e+00
  8.83940558806038e+00
  9.81840820158908e+00
  8.40317351789580e+00
  4.80150582160193e+00
  1.55819330730478e+00
  1.09716888313239e-03
 -2.35644848731218e+00
 -3.22241300088705e+00
 -3.50308751124858e+00
 -3.21565115351729e+00
 -1.75266045923181e+00
 -7.39589051144409e-01
  2.55075294015732e-01
  1.17380433533106e+00
  5.95960578383022e-02
  4.57260134599596e-01
  6.58952976069849e-02
  1.26537084505476e-01
  5.05342882924414e-01
  9.45273469411120e-01
  1.63244480027292e+00
  2.63682388500924e+00
  3.97100251949347e+00
  5.40054468526540e+00
  6.14797258543505e+00
  4.98070088997371e+00
  2.02176489746253e+00
  1.84357149094381e-01
 -7.08488623570591e-03
  2.36913493026560e-03
  1.32950482512095e-04
 -1.38957418994420e-01
 -2.60090027852347e-01
 -4.49835706775664e-01
 -7.31126629696563e-01
 -1.11861777375438e+00
 -1.58739593447389e+00
 -1.99125636701477e+00
 -2.03025837503363e+00
 -1.24743111609232e+00
  2.71867405206707e-01
  9.95810075477156e-01
  4.55448471363036e-01
 -2.41754544584911e-03
  5.58641690839409e-02
  1.04485498965527e-01
  1.80940572893667e-01
  2.93783669027015e-01
  4.50951988226580e-01
  6.40557184508875e-01
  8.12648389129307e-01
  8.41310655339178e-01
  5.41906290515089e-01
 -1.33284671521752e-01
 -5.43309343865180e-01
 -4.73860280618372e-01
  2.41503867585103e-01
  3.84180942836044e-01
  1.06644759418552e-01
  6.70133452164188e+00
  8.83940558806038e+00
  9.81840820158908e+00
  8.40317351789580e+00
  4.80150582160193e+00
  1.55819330730478e+00
  1.09716888313239e-03
 -2.35644848731218e+00
 -3.22241300088705e+00
 -3.50308751124858e+00
 -3.21565115351729e+00
 -1.75266045923181e+00
 -7.39589051144409e-01
  2.55075294015732e-01
  1.17380433533106e+00
  5.95960578383022e-02
  4.57260134599596e-01
  6.58952976069849e-02
  1.26537084505476e-01
  5.05342882924414e-01
  9.45273469411120e-01
  1.63244480027292e+00
  2.63682388500924e+00
  3.97100251949347e+00
  5.40054468526540e+00
  6.14797258543505e+00
  4.98070088997371e+00
  2.02176489746253e+00
  1.84357149094381e-01
 -7.08488623570591e-03
  2.36913493026560e-03
  1.32950482512095e-04
 -1.38957418994420e-01
 -2.60090027852347e-01
 -4.49835706775664e-01
 -7.31126629696563e-01
 -1.11861777375438e+00
 -1.58739593447389e+00
 -1.99125636701477e+00
 -2.03025837503363e+00
 -1.24743111609232e+00
  2.71867405206707e-01
  9.95810075477156e-01
  4.55448471363036e-01
 -2.41754544584911e-03
  5.58641690839409e-02
  1.04485498965527e-01
  1.80940572893667e-01
  2.93783669027015e-01
  4.50951988226580e-01
  6.40557184508875e-01
  8.12648389129307e-01
  8.41310655339178e-01
  5.41906290515089e-01
 -1.33284671521752e-01
 -5.43309343865180e-01
 -4.73860280618372e-01
  2.41503867585103e-01
  3.84180942836044e-01
  1.06644759418552e-01
  6.70133452164188e+00
  8.83940558806038e+00
  9.81840820158908e+00
  8.40317351789580e+00
  4.80150582160193e+00
  1.55819330730478e+00
  1.09716888313239e-03
 -2.35644848731218e+00
 -3.22241300088705e+00
 -3.50308751124858e+00
 -3.21565115351729e+00
 -1.75266045923181e+00
 -7.39589051144409e-01
  2.55075294015732e-01
  1.17380433533106e+00
  5.95960578383022e-02
  4.57260134599596e-01
  6.58952976069849e-02
  1.26537084505476e-01
  5.05342882924414e-01
  9.45273469411120e-01
  1.63244480027292e+00
  2.63682388500924e+00
  3.97100251949347e+00
  5.40054468526540e+00
  6.14797258543505e+00
  4.98070088997371e+00
  2.02176489746253e+00
  1.84357149094381e-01
 -7.08488623570591e-03
  2.36913493026560e-03
  1.32950482512095e-04
 -1.38957418994420e-01
 -2.60090027852347e-01
 -4.49835706775664e-01
 -7.31126629696563e-01
 -1.11861777375438e+00
 -1.58739593447389e+00
 -1.99125636701477e+00
 -2.03025837503363e+00
 -1.24743111609232e+00
  2.71867405206707e-01
  9.95810075477156e-01
  4.55448471363036e-01
 -2.41754544584911e-03
  5.58641690839409e-02
  1.04485498965527e-01
  1.80940572893667e-01
  2.93783669027015e-01
  4.50951988226580e-01
  6.40557184508875e-01
  8.12648389129307e-01
  8.41310655339178e-01
  5.41906290515089e-01
 -1.33284671521752e-01
 -5.43309343865180e-01
 -4.73860280618372e-01
  2.41503867585103e-01
  3.84180942836044e-01
  1.06644759418552e-01
  6.70133452164188e+00
  8.83940558806038e+00
  9.81840820158908e+00
  8.40317351789580e+00
  4.80150582160193e+00
  1.55819330730478e+00
  1.09716888313239e-03
 -2.35644848731218e+00
 -3.22241300088705e+00
 -3.50308751124858e+00
 -3.21565115351729e+00
 -1.75266045923181e+00
 -7.39589051144409e-01
  2.55075294015732e-01
  1.17380433533106e+00
  5.95960578383022e-02
  4.57260134599596e-01
  6.58952976069849e-02
  1.26537084505476e-01
  5.05342882924414e-01
  9.45273469411120e-01
  1.63244480027292e+00
  2.63682388500924e+00
  3.97100251949347e+00
  5.40054468526540e+00
  6.14797258543505e+00
  4.98070088997371e+00
  2.02176489746253e+00
  1.84357149094381e-01
 -7.08488623570591e-03
  2.36913493026560e-03
  1.32950482512095e-04
 -1.38957418994420e-01
 -2.60090027852347e-01
 -4.49835706775664e-01
 -7.31126629696563e-01
 -1.11861777375438e+00
 -1.58739593447389e+00
 -1.99125636701477e+00
 -2.03025837503363e+00
 -1.24743111609232e+00
  2.71867405206707e-01
  9.95810075477156e-01
  4.55448471363036e-01
 -2.41754544584911e-03
  5.58641690839409e-02
  1.04485498965527e-01
  1.80940572893667e-01
  2.93783669027015e-01
  4.50951988226580e-01
  6.40557184508875e-01
  8.12648389129307e-01
  8.41310655339178e-01
  5.41906290515089e-01
 -1.33284671521752e-01
 -5.43309343865180e-01
 -4.73860280618372e-01
  2.41503867585103e-01
  3.84180942836044e-01
  1.06644759418552e-01
  6.70133452164188e+00
  8.83940558806038e+00
  9.81840820158908e+00
  8.40317351789580e+00
  4.80150582160193e+00
  1.55819330730478e+00
  1.09716888313239e-03
 -2.35644848731218e+00
 -3.22241300088705e+00
 -3.50308751124858e+00
 -3.21565115351729e+00
 -1.75266045923181e+00
 -7.39589051144409e-01
  2.55075294015732e-01
  1.17380433533106e+00
  5.95960578383022e-02
  4.57260134599596e-01
  6.58952976069849e-02
  1.26537084505476e-01
  5.05342882924414e-01
  9.45273469411120e-01
  1.63244480027292e+00
  2.63682388500924e+00
  3.97100251949347e+00
  5.40054468526540e+00
  6.14797258543505e+00
  4.98070088997371e+00
  2.02176489746253e+00
  1.84357149094381e-01
 -7.08488623570591e-03
  2.36913493026560e-03
  1.32950482512095e-04
 -1.38957418994420e-01
 -2.60090027852347e-01
 -4.49835706775664e-01
 -7.31126629696563e-01
 -1.11861777375438e+00
 -1.58739593447389e+00
 -1.99125636701477e+00
 -2.03025837503363e+00
 -1.24743111609232e+00
  2.71867405206707e-01
  9.95810075477156e-01
  4.55448471363036e-01
 -2.41754544584911e-03
  5.58641690839409e-02
  1.04485498965527e-01
  1.80940572893667e-01
  2.93783669027015e-01
  4.50951988226580e-01
  6.40557184508875e-01
  8.12648389129307e-01
  8.41310655339178e-01
  5.41906290515089e-01
 -1.33284671521752e-01
 -5.43309343865180e-01
 -4.73860280618372e-01
  2.41503867585103e-01
  3.84180942836044e-01
  1.06644759418552e-01
  6.70133452164188e+00
  8.83940558806038e+00
  9.81840820158908e+00
  8.40317351789580e+00
  4.80150582160193e+00
  1.55819330730478e+00
  1.09716888313239e-03
 -2.35644848731218e+00
 -3.22241300088705e+00
 -3.50308751124858e+00
 -3.21565115351729e+00
 -1.75266045923181e+00
 -7.39589051144409e-01
  2.55075294015732e-01
  1.17380433533106e+00
  5.95960578383022e-02
  4.57260134599596e-01
  6.58952976069849e-02
  1.26537084505476e-01
  5.05342882924414e-01
  9.45273469411120e-01
  1.63244480027292e+00
  2.63682388500924e+00
  3.97100251949347e+00
  5.40054468526540e+00
  6.14797258543505e+00
  4.98070088997371e+00
  2.02176489746253e+00
  1.84357149094381e-01
 -7.08488623570591e-03
  2.36913493026560e-03
  1.32950482512095e-04
 -1.38957418994420e-01
 -2.60090027852347e-01
 -4.49835706775664e-01
 -7.31126629696563e-01
 -1.11861777375438e+00
 -1.58739593447389e+00
 -1.99125636701477e+00
 -2.03025837503363e+00
 -1.24743111609232e+00
  2.71867405206707e-01
  9.95810075477156e-01
  4.55448471363036e-01
 -2.41754544584911e-03
  5.58641690839409e-02
  1.04485498965527e-01
  1.80940572893667e-01
  2.93783669027015e-01
  4.50951988226580e-01
  6.40557184508875e-01
  8.12648389129307e-01
  8.41310655339178e-01
  5.41906290515089e-01
 -1.33284671521752e-01
 -5.43309343865180e-01
 -4.73860280618372e-01
  2.41503867585103e-01
  3.84180942836044e-01
  1.06644759418552e-01
  6.70133452164188e+00
  8.83940558806038e+00
  9.81840820158908e+00
  8.40317351789580e+00
  4.80150582160193e+00
  1.55819330730478e+00
  1.09716888313239e-03
 -2.35644848731218e+00
 -3.22241300088705e+00
 -3.50308751124858e+00
 -3.21565115351729e+00
 -1.75266045923181e+00
 -7.39589051144409e-01
  2.55075294015732e-01
  1.17380433533106e+00
  5.95960578383022e-02
  4.57260134599596e-01
  6.58952976069849e-02
  1.26537084505476e-01
  5.05342882924414e-01
  9.45273469411120e-01
  1.63244480027292e+00
  2.63682388500924e+00
  3.97100251949347e+00
  5.40054468526540e+00
  6.14797258543505e+00
  4.98070088997371e+00
  2.02176489746253e+00
  1.84357149094381e-01
 -7.08488623570591e-03
  2.36913493026560e-03
  1.32950482512095e-04
 -1.38957418994420e-01
 -2.60090027852347e-01
 -4.49835706775664e-01
 -7.31126629696563e-01
 -1.11861777375438e+00
 -1.58739593447389e+00
 -1.99125636701477e+00
 -2.03025837503363e+00
 -1.24743111609232e+00
  2.71867405206707e-01
  9.95810075477156e-01
  4.55448471363036e-01
 -2.41754544584911e-03
  5.58641690839409e-02
  1.04485498965527e-01
  1.80940572893667e-01
  2.93783669027015e-01
  4.50951988226580e-01
  6.40557184508875e-01
  8.12648389129307e-01
  8.41310655339178e-01
  5.41906290515089e-01
 -1.33284671521752e-01
 -5.43309343865180e-01
 -4.73860280618372e-01
  2.41503867585103e-01
  3.84180942836044e-01
  1.06644759418552e-01
  6.70133452164188e+00
  8.83940558806038e+00
  9.81840820158908e+00
  8.40317351789580e+00
  4.80150582160193e+00
  1.55819330730478e+00
  1.09716888313239e-03
 -2.35644848731218e+00
 -3.22241300088705e+00
 -3.50308751124858e+00
 -3.21565115351729e+00
 -1.75266045923181e+00
 -7.39589051144409e-01
  2.55075294015732e-01
  1.17380433533106e+00
  5.95960578383022e-02
  4.57260134599596e-01
  6.58952976069849e-02
  1.26537084505476e-01
  5.05342882924414e-01
  9.45273469411120e-01
  1.63244480027292e+00
  2.63682388500924e+00
  3.97100251949347e+00
  5.40054468526540e+00
  6.14797258543505e+00
  4.98070088997371e+00
  2.02176489746253e+00
  1.84357149094381e-01
 -7.08488623570591e-03
  2.36913493026560e-03
  1.32950482512095e-04
 -1.38957418994420e-01
 -2.60090027852347e-01
 -4.49835706775664e-01
 -7.31126629696563e-01
 -1.11861777375438e+00
 -1.58739593447389e+00
 -1.99125636701477e+00
 -2.03025837503363e+00
 -1.24743111609232e+00
  2.71867405206707e-01
  9.95810075477156e-01
  4.55448471363036e-01
 -2.41754544584911e-03
  5.58641690839409e-02
  1.04485498965527e-01
  1.80940572893667e-01
  2.93783669027015e-01
  4.50951988226580e-01
  6.40557184508875e-01
  8.12648389129307e-01
  8.41310655339178e-01
  5.41906290515089e-01
 -1.33284671521752e-01
 -5.43309343865180e-01
 -4.73860280618372e-01
  2.41503867585103e-01
  3.84180942836044e-01
  1.06644759418552e-01
  6.70133452164188e+00
  8.83940558806038e+00
  9.81840820158908e+00
  8.40317351789580e+00
  4.80150582160193e+00
  1.55819330730478e+00
  1.09716888313239e-03
 -2.35644848731218e+00
 -3.22241300088705e+00
 -3.50308751124858e+00
 -3.21565115351729e+00
 -1.75266045923181e+00
 -7.39589051144409e-01
  2.55075294015732e-01
  1.17380433533106e+00
  5.95960578383022e-02
  4.57260134599596e-01
  6.58952976069849e-02
  1.26537084505476e-01
  5.05342882924414e-01
  9.45273469411120e-01
  1.63244480027292e+00
  2.63682388500924e+00
  3.97100251949347e+00
  5.40054468526540e+00
  6.14797258543505e+00
  4.98070088997371e+00
  2.02176489746253e+00
  1.84357149094381e-01
 -7.08488623570591e-03
  2.36913493026560e-03
  1.32950482512095e-04
 -1.38957418994420e-01
 -2.60090027852347e-01
 -4.49835706775664e-01
 -7.31126629696563e-01
 -1.11861777375438e+00
 -1.58739593447389e+00
 -1.99125636701477e+00
 -2.03025837503363e+00
 -1.24743111609232e+00
  2.71867405206707e-01
  9.95810075477156e-01
  4.55448471363036e-01
 -2.41754544584911e-03
  5.58641690839409e-02
  1.04485498965527e-01
  1.80940572893667e-01
  2.93783669027015e-01
  4.50951988226580e-01
  6.40557184508875e-01
  8.12648389129307e-01
  8.41310655339178e-01
  5.41906290515089e-01
 -1.33284671521752e-01
 -5.43309343865180e-01
 -4.73860280618372e-01
  2.41503867585103e-01
  3.84180942836044e-01
  1.06644759418552e-01
  6.70133452164188e+00
  8.83940558806038e+00
  9.81840820158908e+00
  8.40317351789580e+00
  4.80150582160193e+00
  1.55819330730478e+00
  1.09716888313239e-03
 -2.35644848731218e+00
 -3.22241300088705e+00
 -3.50308751124858e+00
 -3.21565115351729e+00
 -1.75266045923181e+00
 -7.39589051144409e-01
  2.55075294015732e-01
  1.17380433533106e+00
  5.95960578383022e-02
  4.57260134599596e-01
  6.58952976069849e-02
  1.26537084505476e-01
  5.05342882924414e-01
  9.45273469411120e-01
  1.63244480027292e+00
  2.63682388500924e+00
  3.97100251949347e+00
  5.40054468526540e+00
  6.14797258543505e+00
  4.98070088997371e+00
  2.02176489746253e+00
  1.84357149094381e-01
 -7.08488623570591e-03
  2.36913493026560e-03
  1.32950482512095e-04
 -1.38957418994420e-01
 -2.60090027852347e-01
 -4.49835706775664e-01
 -7.31126629696563e-01
 -1.11861777375438e+00
 -1.58739593447389e+00
 -1.99125636701477e+00
 -2.03025837503363e+00
 -1.24743111609232e+00
  2.71867405206707e-01
  9.95810075477156e-01
  4.55448471363036e-01
 -2.41754544584911e-03
  5.58641690839409e-02
  1.04485498965527e-01
  1.80940572893667e-01
  2.93783669027015e-01
  4.50951988226580e-01
  6.40557184508875e-01
  8.12648389129307e-01
  8.41310655339178e-01
  5.41906290515089e-01
 -1.33284671521752e-01
 -5.43309343865180e-01
 -4.73860280618372e-01
  2.41503867585103e-01
  3.84180942836044e-01
  1.06644759418552e-01
  6.70133452164188e+00
  8.83940558806038e+00
  9.81840820158908e+00
  8.40317351789580e+00
  4.80150582160193e+00
  1.55819330730478e+00
  1.09716888313239e-03
 -2.35644848731218e+00
 -3.22241300088705e+00
 -3.50308751124858e+00
 -3.21565115351729e+00
 -1.75266045923181e+00
 -7.39589051144409e-01
  2.55075294015732e-01
  1.17380433533106e+00
  5.95960578383022e-02
  4.57260134599596e-01
  6.58952976069849e-02
  1.26537084505476e-01
  5.05342882924414e-01
  9.45273469411120e-01
  1.63244480027292e+00
  2.63682388500924e+00
  3.97100251949347e+00
  5.40054468526540e+00
  6.14797258543505e+00
  4.98070088997371e+00
  2.02176489746253e+00
  1.84357149094381e-01
 -7.08488623570591e-03
  2.36913493026560e-03
  1.32950482512095e-04
 -1.38957418994420e-01
 -2.60090027852347e-01
 -4.49835706775664e-01
 -7.31126629696563e-01
 -1.11861777375438e+00
 -1.58739593447389e+00
 -1.99125636701477e+00
 -2.03025837503363e+00
 -1.24743111609232e+00
  2.71867405206707e-01
  9.95810075477156e-01
  4.55448471363036e-01
 -2.41754544584911e-03
  5.58641690839409e-02
  1.04485498965527e-01
  1.80940572893667e-01
  2.93783669027015e-01
  4.50951988226580e-01
  6.40557184508875e-01
  8.12648389129307e-01
  8.41310655339178e-01
  5.41906290515089e-01
 -1.33284671521752e-01
 -5.43309343865180e-01
 -4.73860280618372e-01
  2.41503867585103e-01
  3.84180942836044e-01
  1.06644759418552e-01
  6.70133452164188e+00
  8.83940558806038e+00
  9.81840820158908e+00
  8.40317351789580e+00
  4.80150582160193e+00
  1.55819330730478e+00
  1.09716888313239e-03
 -2.35644848731218e+00
 -3.22241300088705e+00
 -3.50308751124858e+00
 -3.21565115351729e+00
 -1.75266045923181e+00
 -7.39589051144409e-01
  2.55075294015732e-01
  1.17380433533106e+00
  5.95960578383022e-02
  4.57260134599596e-01
  6.58952976069849e-02
  1.26537084505476e-01

0 0 0 0 3 3 3
0 0 13 0 26 0 
13 0

0 3 3 13 1 1 1
39 0 
1 0

0 4 4 14 1 1 1
40 0 
1 0

0 5 5 15 2 6 6
41 1 48 1 
7 0

0 11 11 22 1 3 3
55 1 
1 0

0 14 14 23 1 3 3
56 1 
1 0

0 17 17 24 1 5 6
57 2 
1 1

0 22 22 25 1 5 6
58 2 
1 1

0 27 27 26 1 7 10
59 3 
1 1

1 34 34 27 3 3 3
60 0 73 0 86 0 
13 0

1 37 37 40 1 1 1
99 0 
1 0

1 38 38 41 1 1 1
100 0 
1 0

1 39 39 42 2 6 6
101 1 108 1 
7 0

1 45 45 49 1 3 3
115 1 
1 0

1 48 48 50 1 3 3
116 1 
1 0

1 51 51 51 1 5 6
117 2 
1 1

1 56 56 52 1 5 6
118 2 
1 1

1 61 61 53 1 7 10
119 3 
1 1

2 68 68 54 3 3 3
120 0 133 0 146 0 
13 0

2 71 71 67 1 1 1
159 0 
1 0

2 72 72 68 1 1 1
160 0 
1 0

2 73 73 69 2 6 6
161 1 168 1 
7 0

2 79 79 76 1 3 3
175 1 
1 0

2 82 82 77 1 3 3
176 1 
1 0

2 85 85 78 1 5 6
177 2 
1 1

2 90 90 79 1 5 6
178 2 
1 1

2 95 95 80 1 7 10
179 3 
1 1

3 102 102 81 3 3 3
180 0 193 0 206 0 
13 0

3 105 105 94 1 1 1
219 0 
1 0

3 106 106 95 1 1 1
220 0 
1 0

3 107 107 96 2 6 6
221 1 228 1 
7 0

3 113 113 103 1 3 3
235 1 
1 0

3 116 116 104 1 3 3
236 1 
1 0

3 119 119 105 1 5 6
237 2 
1 1

3 124 124 106 1 5 6
238 2 
1 1

3 129 129 107 1 7 10
239 3 
1 1

4 136 136 108 3 3 3
240 0 253 0 266 0 
13 0

4 139 139 121 1 1 1
279 0 
1 0

4 140 140 122 1 1 1
280 0 
1 0

4 141 141 123 2 6 6
281 1 288 1 
7 0

4 147 147 130 1 3 3
295 1 
1 0

4 150 150 131 1 3 3
296 1 
1 0

4 153 153 132 1 5 6
297 2 
1 1

4 158 158 133 1 5 6
298 2 
1 1

4 163 163 134 1 7 10
299 3 
1 1

5 170 170 135 3 3 3
300 0 313 0 326 0 
13 0

5 173 173 148 1 1 1
339 0 
1 0

5 174 174 149 1 1 1
340 0 
1 0

5 175 175 150 2 6 6
341 1 348 1 
7 0

5 181 181 157 1 3 3
355 1 
1 0

5 184 184 158 1 3 3
356 1 
1 0

5 187 187 159 1 5 6
357 2 
1 1

5 192 192 160 1 5 6
358 2 
1 1

5 197 197 161 1 7 10
359 3 
1 1

6 204 204 162 3 3 3
360 0 373 0 386 0 
13 0

6 207 207 175 1 1 1
399 0 
1 0

6 208 208 176 1 1 1
400 0 
1 0

6 209 209 177 2 6 6
401 1 408 1 
7 0

6 215 215 184 1 3 3
415 1 
1 0

6 218 218 185 1 3 3
416 1 
1 0

6 221 221 186 1 5 6
417 2 
1 1

6 226 226 187 1 5 6
418 2 
1 1

6 231 231 188 1 7 10
419 3 
1 1

7 238 238 189 3 3 3
420 0 433 0 446 0 
13 0

7 241 241 202 1 1 1
459 0 
1 0

7 242 242 203 1 1 1
460 0 
1 0

7 243 243 204 2 6 6
461 1 468 1 
7 0

7 249 249 211 1 3 3
475 1 
1 0

7 252 252 212 1 3 3
476 1 
1 0

7 255 255 213 1 5 6
477 2 
1 1

7 260 260 214 1 5 6
478 2 
1 1

7 265 265 215 1 7 10
479 3 
1 1

8 272 272 216 3 3 3
480 0 493 0 506 0 
13 0

8 275 275 229 1 1 1
519 0 
1 0

8 276 276 230 1 1 1
520 0 
1 0

8 277 277 231 2 6 6
521 1 528 1 
7 0

8 283 283 238 1 3 3
535 1 
1 0

8 286 286 239 1 3 3
536 1 
1 0

8 289 289 240 1 5 6
537 2 
1 1

8 294 294 241 1 5 6
538 2 
1 1

8 299 299 242 1 7 10
539 3 
1 1

9 306 306 243 3 3 3
540 0 553 0 566 0 
13 0

9 309 309 256 1 1 1
579 0 
1 0

9 310 310 257 1 1 1
580 0 
1 0

9 311 311 258 2 6 6
581 1 588 1 
7 0

9 317 317 265 1 3 3
595 1 
1 0

9 320 320 266 1 3 3
596 1 
1 0

9 323 323 267 1 5 6
597 2 
1 1

9 328 328 268 1 5 6
598 2 
1 1

9 333 333 269 1 7 10
599 3 
1 1

10 340 340 270 3 3 3
600 0 613 0 626 0 
13 0

10 343 343 283 1 1 1
639 0 
1 0

10 344 344 284 1 1 1
640 0 
1 0

10 345 345 285 2 6 6
641 1 648 1 
7 0

10 351 351 292 1 3 3
655 1 
1 0

10 354 354 293 1 3 3
656 1 
1 0

10 357 357 294 1 5 6
657 2 
1 1

10 362 362 295 1 5 6
658 2 
1 1

10 367 367 296 1 7 10
659 3 
1 1

11 374 374 297 3 3 3
660 0 673 0 686 0 
13 0

11 377 377 310 1 1 1
699 0 
1 0

11 378 378 311 1 1 1
700 0 
1 0

11 379 379 312 2 6 6
701 1 708 1 
7 0

11 385 385 319 1 3 3
715 1 
1 0

11 388 388 320 1 3 3
716 1 
1 0

11 391 391 321 1 5 6
717 2 
1 1

11 396 396 322 1 5 6
718 2 
1 1

11 401 401 323 1 7 10
719 3 
1 1

12 408 408 324 3 3 3
720 0 733 0 746 0 
13 0

12 411 411 337 1 1 1
759 0 
1 0

12 412 412 338 1 1 1
760 0 
1 0

12 413 413 339 2 6 6
761 1 768 1 
7 0

12 419 419 346 1 3 3
775 1 
1 0

12 422 422 347 1 3 3
776 1 
1 0

12 425 425 348 1 5 6
777 2 
1 1

12 430 430 349 1 5 6
778 2 
1 1

12 435 435 350 1 7 10
779 3 
1 1

13 442 442 351 3 3 3
780 0 793 0 806 0 
13 0

13 445 445 364 1 1 1
819 0 
1 0

13 446 446 365 1 1 1
820 0 
1 0

13 447 447 366 2 6 6
821 1 828 1 
7 0

13 453 453 373 1 3 3
835 1 
1 0

13 456 456 374 1 3 3
836 1 
1 0

13 459 459 375 1 5 6
837 2 
1 1

13 464 464 376 1 5 6
838 2 
1 1

13 469 469 377 1 7 10
839 3 
1 1

14 476 476 378 3 3 3
840 0 853 0 866 0 
13 0

14 479 479 391 1 1 1
879 0 
1 0

14 480 480 392 1 1 1
880 0 
1 0

14 481 481 393 2 6 6
881 1 888 1 
7 0

14 487 487 400 1 3 3
895 1 
1 0

14 490 490 401 1 3 3
896 1 
1 0

14 493 493 402 1 5 6
897 2 
1 1

14 498 498 403 1 5 6
898 2 
1 1

14 503 503 404 1 7 10
899 3 
1 1

15 510 510 405 3 3 3
900 0 913 0 926 0 
13 0

15 513 513 418 1 1 1
939 0 
1 0

15 514 514 419 1 1 1
940 0 
1 0

15 515 515 420 2 6 6
941 1 948 1 
7 0

15 521 521 427 1 3 3
955 1 
1 0

15 524 524 428 1 3 3
956 1 
1 0

15 527 527 429 1 5 6
957 2 
1 1

15 532 532 430 1 5 6
958 2 
1 1

15 537 537 431 1 7 10
959 3 
1 1

 -------------------------------------------------------------
 Allocate 2524424 B from available memory: 1048576000000 B
 There are 729 image cells after screening.
 There are 265 image cells for CGTO evaluation after screening.
 Real-Space grid for FFT initialized based on kinetic energy cutoff (eV) = 500.0
 Real-Space grid for FFT: (20,20,20)
 There are 68921 real-space grid points.
 There are 512 batches of real-space grid points. 
 Size of each grid batch is around 128
 Grid for AFT initialized based on kinetic energy cutoff (eV) = 500.0
 Real-Space grid for AFT: (20,20,20)
 There are 68921 real-space grid points.

 There are 43648 atom-centered grid points.

 Spacegroup symmetry group: Fd-3m
 Reducing spacegroup symmetry to symmorphic group: F -4 3 m
 Monkhorst-Pack mesh is [2,2,2]
 There are 8 k points.
kpoints in Bohr
0.0000000000 0.0000000000 0.0000000000
0.1530811530 0.1530811530 -0.1530811530
0.1530811530 -0.1530811530 0.1530811530
0.3061623059 0.0000000000 0.0000000000
-0.1530811530 0.1530811530 0.1530811530
0.0000000000 0.3061623059 0.0000000000
0.0000000000 0.0000000000 0.3061623059
0.1530811530 0.1530811530 0.1530811530
 There are 112 alpha and 112 beta electrons
 Start computing overlap matrix
 Allocate 37879808 B from available memory: 1048573475584 B
 Time for computing overlap matrix: 5.6380000000 s
 ====== Initialize compute kernels for all-electron RI-J (kpts) ====== 
 ========================================================== 
 Range-separated parameter omega        = 0.400000000000000022
 Threshold for 1e2c shellpair           = 0.000000000000010000
 Threshold for 2e2c SR integral         = 0.000000000000000001
 Threshold for 2e3c SR integral         = 0.000000000100000000
 Threshold for AFT G-space screening is = 0.000000000001000000
 The exponent cutoff for C/D classification (omega2 / 2) is  = 0.080000000000000016
 ========================================================== 
 === Post process the basis set for RI calculation (exp_cutoff = 0.080000000000000016 ) === 
nshells_b1 before uncontraction = 144
nshells_b1 after uncontraction = 144
nshells_baux before uncontraction = 592
nshells_baux after uncontraction = 592
===============================================
nbsf total   = 544
nbsf compact = 480
nbsf diffuse = 64
naux total   = 1936
naux compact = 1936
naux diffuse = 0
nshells_bnuc = 16

 Number of unique atoms is 1
 Unique atom #0 (si) has 7 shells.

Shell 0 to 6 belongs to atom si
Shell 7 to 13 belongs to atom si
Shell 14 to 20 belongs to atom si
Shell 21 to 27 belongs to atom si
Shell 28 to 34 belongs to atom si
Shell 35 to 41 belongs to atom si
Shell 42 to 48 belongs to atom si
Shell 49 to 55 belongs to atom si
Shell 56 to 62 belongs to atom si
Shell 63 to 69 belongs to atom si
Shell 70 to 76 belongs to atom si
Shell 77 to 83 belongs to atom si
Shell 84 to 90 belongs to atom si
Shell 91 to 97 belongs to atom si
Shell 98 to 104 belongs to atom si
Shell 105 to 111 belongs to atom si

 Number of unique atoms is 1
 Unique atom #0 (si) has 2 shells.

Shell 0 to 1 belongs to atom si
Shell 2 to 3 belongs to atom si
Shell 4 to 5 belongs to atom si
Shell 6 to 7 belongs to atom si
Shell 8 to 9 belongs to atom si
Shell 10 to 11 belongs to atom si
Shell 12 to 13 belongs to atom si
Shell 14 to 15 belongs to atom si
Shell 16 to 17 belongs to atom si
Shell 18 to 19 belongs to atom si
Shell 20 to 21 belongs to atom si
Shell 22 to 23 belongs to atom si
Shell 24 to 25 belongs to atom si
Shell 26 to 27 belongs to atom si
Shell 28 to 29 belongs to atom si
Shell 30 to 31 belongs to atom si

 Number of unique atom is 1
 Unique atom #0 (si) has 37 auxiliary shells.

Auxiliary Shell 0 to 36 belongs to atom si
Auxiliary Shell 37 to 73 belongs to atom si
Auxiliary Shell 74 to 110 belongs to atom si
Auxiliary Shell 111 to 147 belongs to atom si
Auxiliary Shell 148 to 184 belongs to atom si
Auxiliary Shell 185 to 221 belongs to atom si
Auxiliary Shell 222 to 258 belongs to atom si
Auxiliary Shell 259 to 295 belongs to atom si
Auxiliary Shell 296 to 332 belongs to atom si
Auxiliary Shell 333 to 369 belongs to atom si
Auxiliary Shell 370 to 406 belongs to atom si
Auxiliary Shell 407 to 443 belongs to atom si
Auxiliary Shell 444 to 480 belongs to atom si
Auxiliary Shell 481 to 517 belongs to atom si
Auxiliary Shell 518 to 554 belongs to atom si
Auxiliary Shell 555 to 591 belongs to atom si

================= Automatically determine grid size for reciprocal space summation =================
 Range-separated parameter = 0.40000000000000 and G-space screening threshold = 0.00000000000100
The number of grid points along each axis dimension is (9, 9, 9)
Total number of grid points = 6859

Use nonortho shellpair for diffuse density
======== Initializing relevant kernel for RIJ (DD type) ========
There are 528 shellpairs in the reference unit cell
There are 815 images and we expect to have 430320 in total
There are 19216 shellpairs in the lattice sum after screening
======== Initializing relevant kernel for RIJ (CD type) ========
There are 3584 shellpairs in the reference unit cell
There are 647 images and we expect to have 2318848 in total
There are 67552 shellpairs in the lattice sum after screening
****** AFT -> SR ******
Maximum bra distance cutoff is 22.000000000000
Maximum bra ket distance cutoff is 26.679112457438
Maximum bra ket screening distance is 24.281250000000
Number of auxiliary image is 213
There are 3584 shellpairs in the reference unit cell
There are 117 images and we expect to have 419328 in total
There are 67552 shellpairs in the lattice sum after screening
Available memory per thread for 2e3c calculation is 32.766737368000Gb
Finish initializing 2e3c SR with the lattice sum!
=================================================
======== Initializing relevant kernel for RIJ (CC type) ========
There are 6304 shellpairs in the reference unit cell
There are 455 images and we expect to have 2868320 in total
There are 35520 shellpairs in the lattice sum after screening
****** AFT -> SR ******
Maximum bra distance cutoff is 18.000000000000
Maximum bra ket distance cutoff is 31.276958582213
Maximum bra ket screening distance is 23.906250000000
Number of auxiliary image is 237
There are 6304 shellpairs in the reference unit cell
There are 99 images and we expect to have 624096 in total
There are 35520 shellpairs in the lattice sum after screening
Available memory per thread for 2e3c calculation is 32.766737368000Gb
Finish initializing 2e3c SR with the lattice sum!
=================================================
======== Initializing the SR component for Vnuc (CD type) ========
Maximum bra distance cutoff is 22.000000000000
Maximum bra ket distance cutoff is 20.024775525061
Maximum bra ket screening distance is 17.441677266996
Number of auxiliary image is 117
There are 3584 shellpairs in the reference unit cell
There are 117 images and we expect to have 419328 in total
There are 67552 shellpairs in the lattice sum after screening
Available memory per thread for 2e3c calculation is 32.766737368000Gb
Finish initializing 2e3c SR with the lattice sum!
=================================================
======== Initialize the SR component for Vnuc (CC type) ========
Maximum bra distance cutoff is 18.000000000000
Maximum bra ket distance cutoff is 24.890631274185
Maximum bra ket screening distance is 16.954216533142
Number of auxiliary image is 117
There are 6304 shellpairs in the reference unit cell
There are 99 images and we expect to have 624096 in total
There are 35520 shellpairs in the lattice sum after screening
Available memory per thread for 2e3c calculation is 32.766737368000Gb
Finish initializing 2e3c SR with the lattice sum!
=================================================
 Aufbau occupation scheme, occupation determined by eigenvalue
 == 0-th k-point nmo = 544 (0.00000,0.00000,0.00000) ==
 == 1-th k-point nmo = 544 (0.15308,0.15308,-0.15308) ==
 == 2-th k-point nmo = 544 (0.15308,-0.15308,0.15308) ==
 == 3-th k-point nmo = 544 (0.30616,0.00000,0.00000) ==
 == 4-th k-point nmo = 544 (-0.15308,0.15308,0.15308) ==
 == 5-th k-point nmo = 544 (0.00000,0.30616,0.00000) ==
 == 6-th k-point nmo = 544 (0.00000,0.00000,0.30616) ==
 == 7-th k-point nmo = 544 (0.15308,0.15308,0.15308) ==

 Generate autoSAD guess
backing up fragment data
Atom # 0: si, charge: 0, multiplicity: 3.000000
writing autosad to fragment context
Settings for isolated fragments: 
  frgm_gamma: TRUE
  frgm_center: FALSE

    Running SCF for isolated atom #0
    Fragment Input file: /n/netscratch/joonholee_lab/Lab/hieudinh//nhome02hieudinhrsdf_test_full_Jbenchmark_pyscfsiqcpbcsi_ccpvtz_222.scratch20250908034850/autosad_frgmt_0/frgmt_input.in
    Fragment Output file: /n/netscratch/joonholee_lab/Lab/hieudinh//nhome02hieudinhrsdf_test_full_Jbenchmark_pyscfsiqcpbcsi_ccpvtz_222.scratch20250908034850/autosad_frgmt_0/frgmt_job.out
    Fragment job begins at Mon Sep  8 03:49:01 2025

 Integrated density by DFT XC:
   Numerical integral  =    13.999999324692
   Relative error      =     0.0000048236 %
Final energy components:
 DFT Correlation            Energy =  -0.48419291769762
 DFT Exchange               Energy = -20.15457771672861
 Kinetic (alpha)            Energy = 145.16532816247471
 Kinetic (beta)             Energy = 143.17442881803646
 Nuclear Attraction (alpha) Energy = -351.25548668350996
 Nuclear Attraction (beta)  Energy = -337.63206697064970
 Nuclear Repulsion          Energy =   0.00000000000000
 SEOQF                      Energy =   0.00000000065999
 Total Coulomb              Energy = 131.95998001584411
----------------------------------------------
    SCF Energy: -289.2265872916
   Total fragment job time:  0.38 s.
restoring fragment data

 ------------------------------------------------------------------------
 Allocate 113673344 B from available memory: 1048535595776 B
 Time for generating SCF guess: 0.41 s

 Allocate 903320 B from available memory: 1048421922432 B
 Selected algorithms for each term:
  kpts_kinetic -> @0x152540f2c680
  kpts_nn -> @0x152540f2c800
  kpts_rij_bigmem -> @0x152540f2c3e0
  kpts_vnuc_df -> @0x152540f2c380
  kpts_xc -> @0x152540f2c2c0
 Time for computing kinetic matrix is 6.37 s
Start calculating Vnuc DD type!
Start calculating Vnuc CD type!
Start calculating Vnuc CC type!
 Time for computing nuclear attraction matrix is 8.28 s
Compute (P|Q) and use solve on the fly!
Maximum distance between P and Q is 32.62546518430815
Number of images for (P|Qn) is 285
 Time for computing 2e2c SR integral is 0.56 s
Maximum dynamic memory per thread for 2e3c SR integrals: 0.117 GiB
Batch size for basis function pair is 30720 out of 30720
 === bvk cell = 0 has 100.000 % of the basis function pairs === 
 === bvk cell = 1 has 100.000 % of the basis function pairs === 
 === bvk cell = 2 has 100.000 % of the basis function pairs === 
 === bvk cell = 3 has 100.000 % of the basis function pairs === 
 === bvk cell = 4 has 100.000 % of the basis function pairs === 
 === bvk cell = 5 has 100.000 % of the basis function pairs === 
 === bvk cell = 6 has 100.000 % of the basis function pairs === 
 === bvk cell = 7 has 99.375 % of the basis function pairs === 
Static memory requirement for 2e3c SR integrals: 3.542 GB
There are 1 munu batches for computing 2e3c SR integrals with latsum
There are 32 Q batches for computing 2e3c SR integrals with latsum
 Time for computing 2e3c SR integral (CD) is 13.69 s
Maximum dynamic memory per thread for 2e3c SR integrals: 0.293 GiB
Batch size for basis function pair is 116120 out of 116120
 === bvk cell = 0 has 90.272 % of the basis function pairs === 
 === bvk cell = 1 has 75.811 % of the basis function pairs === 
 === bvk cell = 2 has 75.811 % of the basis function pairs === 
 === bvk cell = 3 has 58.636 % of the basis function pairs === 
 === bvk cell = 4 has 75.811 % of the basis function pairs === 
 === bvk cell = 5 has 58.636 % of the basis function pairs === 
 === bvk cell = 6 has 58.636 % of the basis function pairs === 
 === bvk cell = 7 has 36.390 % of the basis function pairs === 
Static memory requirement for 2e3c SR integrals: 8.877 GB
There are 1 munu batches for computing 2e3c SR integrals with latsum
There are 32 Q batches for computing 2e3c SR integrals with latsum
 Time for computing 2e3c SR integral (CC) is 18.24 s
 Time for RI-J this SCF iteration is 34.67 s
 Time for RI-J this SCF iteration is 2.14 s
 ----------------------------------------------
 Guess energy: -4630.1566489153
 ----------------------------------------------
 Guess energy components:
 DFT Correlation    Energy =  -8.74605760328776
 DFT Exchange       Energy = -324.68600746388682
 Kinetic            Energy = 4620.42786905520552
 Nuclear Attraction Energy = -9491.14244256992424
 Nuclear Repulsion  Energy = -823.14927427733528
 Total Coulomb      Energy = 1397.13926394393161
 ----------------------------------------------
  Cycle       Energy         DIIS error
 ----------------------------------------------
 Time for RI-J this SCF iteration is 2.07 s
    1   -4629.7857866226      9.18e-04  
 Energy components after cycle 1:
 DFT Correlation    Energy =  -8.77886782200314
 DFT Exchange       Energy = -324.02002024962695
 Kinetic            Energy = 4613.86153720976290
 Nuclear Attraction Energy = -9477.01568798436892
 Nuclear Repulsion  Energy = -823.14927427733528
 Total Coulomb      Energy = 1389.31652650094861
    2   -4629.7857866226      2.18e-03  
 Energy components after cycle 2:
 DFT Correlation    Energy =  -8.77886782200314
 DFT Exchange       Energy = -324.02002024962695
 Kinetic            Energy = 4613.86153720976290
 Nuclear Attraction Energy = -9477.01568798436892
 Nuclear Repulsion  Energy = -823.14927427733528
 Total Coulomb      Energy = 1389.31652650094861
 ----------------------------------------------
  Cycle       Energy        RMS Gradient
 ----------------------------------------------
 Time for RI-J this SCF iteration is 2.10 s
    1   -4630.0699478533      4.34e-01   Descent step
 Energy components after cycle 1:
 DFT Correlation    Energy =  -8.77743465890126
 DFT Exchange       Energy = -324.03214321972592
 Kinetic            Energy = 4614.20419042730373
 Nuclear Attraction Energy = -9477.76092542885090
 Nuclear Repulsion  Energy = -823.14927427733528
 Total Coulomb      Energy = 1389.44563930424761
 Time for RI-J this SCF iteration is 2.15 s
    2   -4630.2150425220      2.19e-01   Descent step
 Energy components after cycle 2:
 DFT Correlation    Energy =  -8.77587503573421
 DFT Exchange       Energy = -324.06814874941608
 Kinetic            Energy = 4614.70935245183591
 Nuclear Attraction Energy = -9478.75082962990018
 Nuclear Repulsion  Energy = -823.14927427733528
 Total Coulomb      Energy = 1389.81973271851348
 Time for RI-J this SCF iteration is 2.09 s
    3   -4630.2485988911      8.33e-02   Descent step
 Energy components after cycle 3:
 DFT Correlation    Energy =  -8.77331329201495
 DFT Exchange       Energy = -324.15231927837300
 Kinetic            Energy = 4615.65563312885479
 Nuclear Attraction Energy = -9480.52746910072892
 Nuclear Repulsion  Energy = -823.14927427733528
 Total Coulomb      Energy = 1390.69814392853777
 Time for RI-J this SCF iteration is 2.03 s
    4   -4630.2557415051      3.71e-02   Normal BFGS step
 Energy components after cycle 4:
 DFT Correlation    Energy =  -8.76798305537400
 DFT Exchange       Energy = -324.30813607754550
 Kinetic            Energy = 4617.27979156187757
 Nuclear Attraction Energy = -9483.65283895894936
 Nuclear Repulsion  Energy = -823.14927427733528
 Total Coulomb      Energy = 1392.34269930227288
 Time for RI-J this SCF iteration is 2.10 s
    5   -4630.2563189152      7.54e-03   Normal BFGS step
 Energy components after cycle 5:
 DFT Correlation    Energy =  -8.76943751080446
 DFT Exchange       Energy = -324.23462797002605
 Kinetic            Energy = 4616.40359509652444
 Nuclear Attraction Energy = -9482.11875806305761
 Nuclear Repulsion  Energy = -823.14927427733528
 Total Coulomb      Energy = 1391.61218380951709
 Time for RI-J this SCF iteration is 2.00 s
    6   -4630.2563349189      3.96e-03   Normal BFGS step
 Energy components after cycle 6:
 DFT Correlation    Energy =  -8.76957886629310
 DFT Exchange       Energy = -324.24448348909840
 Kinetic            Energy = 4616.55516535284369
 Nuclear Attraction Energy = -9482.34258223379038
 Nuclear Repulsion  Energy = -823.14927427733528
 Total Coulomb      Energy = 1391.69441859472727
 Time for RI-J this SCF iteration is 2.00 s
    7   -4630.2563523961      2.90e-03   Normal BFGS step
 Energy components after cycle 7:
 DFT Correlation    Energy =  -8.76947196798130
 DFT Exchange       Energy = -324.25051883344844
 Kinetic            Energy = 4616.62858060512553
 Nuclear Attraction Energy = -9482.46976329986865
 Nuclear Repulsion  Energy = -823.14927427733528
 Total Coulomb      Energy = 1391.75409537739893
 Time for RI-J this SCF iteration is 2.07 s
    8   -4630.2563572144      1.20e-03   Normal BFGS step
 Energy components after cycle 8:
 DFT Correlation    Energy =  -8.76940302761561
 DFT Exchange       Energy = -324.24600216475119
 Kinetic            Energy = 4616.55879104642190
 Nuclear Attraction Energy = -9482.36722416566954
 Nuclear Repulsion  Energy = -823.14927427733528
 Total Coulomb      Energy = 1391.71675537451983
 Time for RI-J this SCF iteration is 2.00 s
    9   -4630.2563588338      8.49e-04   Normal BFGS step
 Energy components after cycle 9:
 DFT Correlation    Energy =  -8.76944334085051
 DFT Exchange       Energy = -324.24523797822451
 Kinetic            Energy = 4616.55215029421106
 Nuclear Attraction Energy = -9482.35239059884407
 Nuclear Repulsion  Energy = -823.14927427733528
 Total Coulomb      Energy = 1391.70783706725842
 Time for RI-J this SCF iteration is 2.03 s
   10   -4630.2563590225      4.21e-04   Normal BFGS step
 Energy components after cycle 10:
 DFT Correlation    Energy =  -8.76946142092168
 DFT Exchange       Energy = -324.24648975580999
 Kinetic            Energy = 4616.57136821155564
 Nuclear Attraction Energy = -9482.38069982609522
 Nuclear Repulsion  Energy = -823.14927427733528
 Total Coulomb      Energy = 1391.71819804611914
 Time for RI-J this SCF iteration is 2.03 s
   11   -4630.2563592245      1.70e-04   Normal BFGS step
 Energy components after cycle 11:
 DFT Correlation    Energy =  -8.76944916530302
 DFT Exchange       Energy = -324.24667970663251
 Kinetic            Energy = 4616.57279714314427
 Nuclear Attraction Energy = -9482.38428136386574
 Nuclear Repulsion  Energy = -823.14927427733528
 Total Coulomb      Energy = 1391.72052814553399
 Time for RI-J this SCF iteration is 2.11 s
   12   -4630.2563592369      1.50e-04   Normal BFGS step
 Energy components after cycle 12:
 DFT Correlation    Energy =  -8.76943845184613
 DFT Exchange       Energy = -324.24607061243904
 Kinetic            Energy = 4616.56325777548045
 Nuclear Attraction Energy = -9482.37042086913425
 Nuclear Repulsion  Energy = -823.14927427733528
 Total Coulomb      Energy = 1391.71558719839436
 Time for RI-J this SCF iteration is 2.03 s
   13   -4630.2563593574      1.13e-04   Normal BFGS step
 Energy components after cycle 13:
 DFT Correlation    Energy =  -8.76944589391318
 DFT Exchange       Energy = -324.24606210452447
 Kinetic            Energy = 4616.56387666959199
 Nuclear Attraction Energy = -9482.37058677238747
 Nuclear Repulsion  Energy = -823.14927427733528
 Total Coulomb      Energy = 1391.71513302114886
 Time for RI-J this SCF iteration is 2.04 s
   14   -4630.2563593650      2.61e-05   Normal BFGS step
 Energy components after cycle 14:
 DFT Correlation    Energy =  -8.76944824870229
 DFT Exchange       Energy = -324.24633255074787
 Kinetic            Energy = 4616.56787257418455
 Nuclear Attraction Energy = -9482.37662230831666
 Nuclear Repulsion  Energy = -823.14927427733528
 Total Coulomb      Energy = 1391.71744544592707
 Time for RI-J this SCF iteration is 2.07 s
   15   -4630.2563593685      1.45e-05   Normal BFGS step
 Energy components after cycle 15:
 DFT Correlation    Energy =  -8.76944631769625
 DFT Exchange       Energy = -324.24623113046948
 Kinetic            Energy = 4616.56627040552758
 Nuclear Attraction Energy = -9482.37430983094418
 Nuclear Repulsion  Energy = -823.14927427733528
 Total Coulomb      Energy = 1391.71663178237873
 Time for RI-J this SCF iteration is 2.03 s
   16   -4630.2563593686      2.21e-06   Normal BFGS step
 Energy components after cycle 16:
 DFT Correlation    Energy =  -8.76944649603144
 DFT Exchange       Energy = -324.24621982857167
 Kinetic            Energy = 4616.56613079415820
 Nuclear Attraction Energy = -9482.37407056827033
 Nuclear Repulsion  Energy = -823.14927427733528
 Total Coulomb      Energy = 1391.71652100740585
   16   -4630.2563593686      2.21e-06  Convergence criterion met
 ----------------------------------------------
 Final energy components:
 DFT Correlation    Energy =  -8.76944649603144
 DFT Exchange       Energy = -324.24621982857167
 Kinetic            Energy = 4616.56613079415820
 Nuclear Attraction Energy = -9482.37407056827033
 Nuclear Repulsion  Energy = -823.14927427733528
 Total Coulomb      Energy = 1391.71652100740585
 ----------------------------------------------
 Final energy is -4630.2563593686

 SCF time:   CPU 8796.95s  wall 291.00s 
 Total wall time for computing Kinetic: 0.08 s (19)
 Total wall time for computing RIJ-BIGMEM: 71.76 s (19)
 Total wall time for computing RSDF Vnuc: 0.21 s (19)
 Total wall time for computing DFT XC: 160.22 s (19)
 ---------------------------------------------------------------------------
                        Orbital Energies (a.u.)
 ---------------------------------------------------------------------------
 == 0-th k-point (0.00000,0.00000,0.00000) occupation: 112==
 -64.98962 -64.98962 -64.98962 -64.98962 -64.98958 -64.98958 -64.98958 -64.98958 -64.98958 -64.98958
 -64.98956 -64.98954 -64.98954 -64.98954 -64.98954 -64.98952 -4.61909 -4.61903 -4.61903 -4.61903
 -4.61903 -4.61896 -4.61896 -4.61896 -4.61896 -4.61896 -4.61896 -4.61889 -4.61889 -4.61889
 -4.61889 -4.61882 -3.02983 -3.02983 -3.02983 -3.02983 -3.02983 -3.02983 -3.02982 -3.02982
 -3.02982 -3.02982 -3.02982 -3.02982 -3.02982 -3.02982 -3.02978 -3.02978 -3.02978 -3.02968
 -3.02968 -3.02968 -3.02968 -3.02946 -3.02946 -3.02946 -3.02946 -3.02946 -3.02946 -3.02921
 -3.02921 -3.02921 -3.02921 -3.02917 -3.02917 -3.02917 -3.02913 -3.02913 -3.02913 -3.02913
 -3.02913 -3.02913 -3.02913 -3.02913 -3.02911 -3.02911 -3.02911 -3.02911 -3.02911 -3.02911
 -0.16291 -0.07684 -0.07684 -0.07684 -0.07684 -0.01031 -0.01031 -0.01031 -0.01031 -0.01031
 -0.01031 0.01988 0.01988 0.01988 0.01988 0.17068 0.17068 0.17068 0.17068 0.17068
 0.17068 0.23217 0.23217 0.23217 0.23217 0.23217 0.23217 0.23217 0.23217 0.27760
 0.27760 0.27760 0.30485 0.30485 0.30485 0.30485 0.30485 0.30485 0.33598 0.33598
 0.33598 0.33598 0.37201 0.37201 0.37201 0.40275 0.40275 0.40275 0.40275 0.40275
 0.40275 0.40275 0.40275 0.40311 0.56789 0.56789 0.56789 0.56789 0.57230 0.57230
 0.58579 0.65115 0.65115 0.65115 0.65115 0.65115 0.65115 0.68148 0.68148 0.68148
 0.68148 0.68148 0.68148 0.68148 0.68148 0.69812 0.69812 0.69812 0.69812 0.69812
 0.69812 0.70138 0.70138 0.70138 0.70138 0.70511 0.70511 0.70511 0.70511 0.70511
 0.70511 0.70511 0.70511 0.70711 0.70711 0.70711 0.75263 0.75263 0.75263 0.75263
 0.75263 0.75263 0.76036 0.76036 0.76036 0.76036 0.76036 0.76036 0.76730 0.76730
 0.76730 0.76730 0.92089 0.99991 0.99991 0.99991 0.99991 0.99991 0.99991 1.01988
 1.01988 1.01988 1.01988 1.03500 1.03500 1.03500 1.03500 1.04481 1.04481 1.04481
 1.04482 1.04482 1.04482 1.06926 1.06926 1.06926 1.06926 1.06926 1.06926 1.11075
 1.11075 1.11075 1.11075 1.11075 1.11075 1.11075 1.11075 1.11819 1.11819 1.11819
 1.11819 1.11819 1.11819 1.16033 1.16033 1.16033 1.16033 1.16033 1.16034 1.16034
 1.16034 1.18970 1.18970 1.18970 1.22295 1.22295 1.24312 1.24312 1.24312 1.25517
 1.25517 1.25517 1.25518 1.27389 1.27389 1.27389 1.27389 1.27389 1.27389 1.29885
 1.29885 1.29885 1.29885 1.29885 1.29885 1.29885 1.29885 1.36259 1.36259 1.36259
 1.36259 1.36259 1.36260 1.36260 1.36260 1.37652 1.37652 1.37652 1.42239 1.42239
 1.42239 1.42239 1.42247 1.42247 1.42247 1.42248 1.42248 1.42248 1.54817 1.54817
 1.54817 1.54817 1.54817 1.54817 1.54817 1.54817 1.55612 1.55612 1.55612 1.55612
 1.55612 1.55612 1.55612 1.55612 1.63615 1.63615 1.63615 1.63615 1.63615 1.63615
 1.63658 1.63658 1.63658 1.63889 1.63889 1.63889 1.63889 1.64365 1.64365 1.64365
 1.64365 1.75653 1.75653 1.75653 1.75653 1.75653 1.75653 1.76972 1.76972 1.76972
 1.76972 1.76972 1.76972 1.79768 1.79768 1.85045 1.85045 1.85045 1.85045 1.85045
 1.85045 1.86291 1.86291 1.86291 1.86291 1.86446 1.86446 1.86447 1.89851 1.89852
 1.89852 1.89852 1.89852 1.89852 1.93343 1.93343 1.93343 1.93343 1.93400 1.95711
 1.95711 1.95711 1.96312 1.96312 1.96312 1.96312 1.96312 1.96312 1.96312 1.96312
 1.96819 1.96819 2.01581 2.01581 2.01581 2.01581 2.01581 2.01582 2.01582 2.01582
 2.01617 2.01617 2.01617 2.01617 2.07269 2.07269 2.07269 2.08916 2.08916 2.08916
 2.08916 2.11877 2.11877 2.11877 2.11877 2.11877 2.11877 2.13576 2.13576 2.13576
 2.15648 2.15648 2.15648 2.15648 2.15648 2.15648 2.17206 2.17206 2.17207 2.17317
 2.17317 2.17317 2.25668 2.25668 2.25668 2.25668 2.25668 2.25668 2.26918 2.34539
 2.34539 2.34539 2.34540 2.34540 2.34551 2.34551 2.34551 2.34551 2.34551 2.34551
 2.34553 2.34553 2.34553 2.42882 2.42882 2.42882 2.42882 2.42882 2.42888 2.42888
 2.42888 2.43797 2.43797 2.43797 2.43797 2.43797 2.43797 2.43797 2.43797 2.46066
 2.46066 2.46066 2.46066 2.49485 2.49485 2.49485 2.49485 2.49485 2.49485 2.49485
 2.49485 2.50460 2.50460 2.50460 2.50463 2.65593 2.65593 2.65594 2.65792 2.65792
 2.65792 2.66473 2.66473 2.66473 2.66474 2.66474 2.66474 2.74289 2.83735 2.83735
 2.83735 2.83735 2.83735 2.83735 2.86832 2.86841 2.86842 3.42954 3.42954 3.42954
 3.42954 3.42954 3.42954 3.42954 3.42954 3.46966 3.46966 3.46966 3.47156 3.47157
 3.47157 3.47157 3.58243 3.58243 3.58243 3.58243 3.67591 3.67591 3.67591 3.67591
 3.83701 3.83701 3.83701 3.83703 3.83703 3.83703 4.10281 4.10281 4.10281 4.10281
 4.10281 4.10284 4.10284 4.10284 4.11951 4.11955 4.11955 4.13373 4.13373 4.13374
 4.13441 4.13441 4.13441 4.46819 5.45743 5.45743 5.45743 5.45744 5.45744 5.45744
 7.72986 7.72988 7.72988 7.72988
 == 1-th k-point (0.15308,0.15308,-0.15308) occupation: 112==
 -64.98962 -64.98962 -64.98962 -64.98962 -64.98962 -64.98962 -64.98961 -64.98961 -64.98958 -64.98958
 -64.98958 -64.98958 -64.98958 -64.98958 -64.98955 -64.98955 -4.61907 -4.61907 -4.61902 -4.61902
 -4.61901 -4.61901 -4.61901 -4.61901 -4.61891 -4.61891 -4.61891 -4.61891 -4.61891 -4.61891
 -4.61885 -4.61885 -3.02984 -3.02984 -3.02984 -3.02984 -3.02984 -3.02984 -3.02984 -3.02984
 -3.02984 -3.02984 -3.02984 -3.02984 -3.02982 -3.02982 -3.02982 -3.02982 -3.02974 -3.02974
 -3.02959 -3.02959 -3.02959 -3.02959 -3.02959 -3.02959 -3.02933 -3.02933 -3.02933 -3.02933
 -3.02933 -3.02933 -3.02920 -3.02920 -3.02915 -3.02915 -3.02915 -3.02915 -3.02910 -3.02910
 -3.02910 -3.02910 -3.02910 -3.02910 -3.02908 -3.02908 -3.02908 -3.02908 -3.02908 -3.02908
 -0.13349 -0.13349 -0.06277 -0.06277 -0.06277 -0.06277 -0.06277 -0.06277 0.04221 0.04221
 0.04221 0.04221 0.04221 0.04221 0.13239 0.13239 0.14601 0.14601 0.14601 0.14601
 0.14601 0.14601 0.19477 0.19477 0.19477 0.19477 0.19477 0.19477 0.24879 0.24879
 0.24879 0.24879 0.33474 0.33474 0.33474 0.33474 0.33474 0.33474 0.35361 0.35361
 0.40786 0.40786 0.40786 0.40786 0.44402 0.44402 0.44402 0.44402 0.44402 0.44402
 0.49130 0.49130 0.49130 0.49130 0.49130 0.49130 0.49913 0.49913 0.49913 0.49913
 0.49913 0.49913 0.53286 0.53286 0.55193 0.55193 0.55193 0.55193 0.62271 0.62271
 0.65797 0.65797 0.65797 0.65797 0.65797 0.65797 0.67743 0.67743 0.67743 0.67743
 0.67743 0.67743 0.71703 0.71703 0.73896 0.73896 0.73896 0.73896 0.73896 0.73896
 0.75489 0.75489 0.75489 0.75489 0.75489 0.75489 0.76763 0.76763 0.76763 0.76763
 0.76763 0.76763 0.83879 0.83879 0.83879 0.83879 0.90947 0.90947 0.90947 0.90947
 0.90947 0.90947 0.96155 0.96155 0.96155 0.96155 0.96155 0.96155 0.96949 0.96949
 0.96949 0.96949 0.97344 0.97344 0.98144 0.98144 0.98144 0.98144 0.98144 0.98144
 1.02631 1.02631 1.02631 1.02631 1.02631 1.02631 1.02737 1.02737 1.02737 1.02737
 1.02737 1.02737 1.04501 1.04501 1.04502 1.04502 1.04502 1.04502 1.04851 1.04851
 1.16571 1.16571 1.16571 1.16571 1.16571 1.16571 1.19041 1.19041 1.19041 1.19041
 1.19041 1.19041 1.22308 1.22308 1.22308 1.22308 1.24922 1.24922 1.24922 1.24922
 1.24922 1.24922 1.26161 1.26161 1.26161 1.26161 1.26161 1.26161 1.29639 1.29639
 1.29639 1.29639 1.35835 1.35835 1.39621 1.39621 1.39621 1.39621 1.39621 1.39621
 1.39649 1.39649 1.43910 1.43910 1.43910 1.43910 1.43910 1.43910 1.44686 1.44686
 1.46629 1.46629 1.46629 1.46629 1.46629 1.46629 1.47873 1.47873 1.47873 1.47873
 1.47873 1.47873 1.52612 1.52612 1.52612 1.52612 1.52612 1.52612 1.55268 1.55268
 1.55268 1.55268 1.58958 1.58958 1.58959 1.58959 1.61914 1.61914 1.61914 1.61914
 1.62538 1.62538 1.62540 1.62540 1.62540 1.62540 1.68920 1.68920 1.68920 1.68920
 1.68920 1.68920 1.69978 1.69978 1.69979 1.69979 1.69979 1.69979 1.72851 1.72851
 1.72851 1.72851 1.72851 1.72851 1.77831 1.77831 1.78368 1.78368 1.78368 1.78368
 1.80660 1.80660 1.80660 1.80660 1.80660 1.80660 1.81756 1.81756 1.81756 1.81756
 1.81756 1.81756 1.88046 1.88046 1.88046 1.88046 1.88046 1.88046 1.90267 1.90267
 1.94971 1.94971 1.94971 1.94971 1.94971 1.94971 1.96569 1.96569 1.98162 1.98162
 1.98162 1.98162 1.98667 1.98667 2.00601 2.00601 2.00601 2.00601 2.00601 2.00601
 2.01943 2.01943 2.01943 2.01943 2.01943 2.01943 2.06866 2.06866 2.10213 2.10213
 2.10213 2.10213 2.10213 2.10213 2.10849 2.10849 2.10850 2.10850 2.10850 2.10850
 2.12103 2.12103 2.12103 2.12103 2.18320 2.18320 2.18320 2.18320 2.18320 2.18320
 2.25916 2.25916 2.25916 2.25916 2.25916 2.25916 2.27322 2.27322 2.27324 2.27324
 2.29402 2.29402 2.30352 2.30352 2.30353 2.30353 2.30353 2.30353 2.33332 2.33332
 2.33332 2.33332 2.36506 2.36506 2.36506 2.36506 2.36506 2.36506 2.39851 2.39851
 2.39851 2.39851 2.39851 2.39851 2.40266 2.40266 2.40266 2.40266 2.40266 2.40266
 2.42426 2.42426 2.42426 2.42426 2.42426 2.42426 2.49885 2.49885 2.52834 2.52834
 2.52837 2.52837 2.52837 2.52837 2.57663 2.57663 2.57663 2.57663 2.57664 2.57664
 2.61467 2.61467 2.61472 2.61472 2.69229 2.69229 2.69229 2.69229 2.69230 2.69230
 3.17745 3.17745 3.17745 3.17745 3.17746 3.17746 3.32451 3.32451 3.32457 3.32457
 3.32457 3.32457 3.33352 3.33352 3.55826 3.55826 3.55826 3.55826 3.55826 3.55827
 3.73744 3.73744 3.73744 3.73744 3.73745 3.73745 3.82510 3.82510 3.82681 3.82681
 3.82688 3.82688 3.93036 3.93036 3.93036 3.93036 3.93037 3.93037 3.98064 3.98064
 3.98065 3.98065 3.98065 3.98065 4.03300 4.03300 4.03301 4.03301 4.35268 4.35268
 5.72126 5.72126 5.72126 5.72126 5.72126 5.72126 7.65548 7.65548 7.84904 7.84904
 7.84904 7.84904 7.84906 7.84906
 == 2-th k-point (0.15308,-0.15308,0.15308) occupation: 112==
 -64.98962 -64.98962 -64.98962 -64.98962 -64.98962 -64.98962 -64.98961 -64.98961 -64.98958 -64.98958
 -64.98958 -64.98958 -64.98958 -64.98958 -64.98955 -64.98955 -4.61907 -4.61907 -4.61902 -4.61902
 -4.61902 -4.61901 -4.61901 -4.61901 -4.61891 -4.61891 -4.61891 -4.61891 -4.61891 -4.61891
 -4.61885 -4.61885 -3.02984 -3.02984 -3.02984 -3.02984 -3.02984 -3.02984 -3.02984 -3.02984
 -3.02984 -3.02984 -3.02984 -3.02984 -3.02982 -3.02982 -3.02982 -3.02982 -3.02974 -3.02974
 -3.02959 -3.02959 -3.02959 -3.02959 -3.02959 -3.02959 -3.02933 -3.02933 -3.02933 -3.02933
 -3.02933 -3.02933 -3.02920 -3.02920 -3.02915 -3.02915 -3.02915 -3.02915 -3.02910 -3.02910
 -3.02910 -3.02910 -3.02910 -3.02910 -3.02908 -3.02908 -3.02908 -3.02908 -3.02908 -3.02908
 -0.13349 -0.13349 -0.06277 -0.06277 -0.06277 -0.06277 -0.06277 -0.06277 0.04221 0.04221
 0.04221 0.04221 0.04221 0.04221 0.13239 0.13239 0.14601 0.14601 0.14601 0.14601
 0.14601 0.14601 0.19477 0.19477 0.19477 0.19477 0.19477 0.19477 0.24879 0.24879
 0.24879 0.24879 0.33474 0.33474 0.33474 0.33474 0.33474 0.33474 0.35361 0.35361
 0.40786 0.40786 0.40786 0.40786 0.44402 0.44402 0.44402 0.44402 0.44402 0.44402
 0.49130 0.49130 0.49130 0.49130 0.49130 0.49130 0.49913 0.49913 0.49913 0.49913
 0.49913 0.49913 0.53286 0.53286 0.55193 0.55193 0.55193 0.55193 0.62271 0.62271
 0.65797 0.65797 0.65797 0.65797 0.65797 0.65797 0.67743 0.67743 0.67743 0.67743
[...]
 -4.61885 -4.61885 -3.02984 -3.02984 -3.02984 -3.02984 -3.02984 -3.02984 -3.02984 -3.02984
 -3.02984 -3.02984 -3.02984 -3.02984 -3.02982 -3.02982 -3.02982 -3.02982 -3.02974 -3.02974
 -3.02959 -3.02959 -3.02959 -3.02959 -3.02959 -3.02959 -3.02933 -3.02933 -3.02933 -3.02933
 -3.02933 -3.02933 -3.02920 -3.02920 -3.02915 -3.02915 -3.02915 -3.02915 -3.02910 -3.02910
 -3.02910 -3.02910 -3.02910 -3.02910 -3.02908 -3.02908 -3.02908 -3.02908 -3.02908 -3.02908
 -0.13349 -0.13349 -0.06277 -0.06277 -0.06277 -0.06277 -0.06277 -0.06277 0.04221 0.04221
 0.04221 0.04221 0.04221 0.04221 0.13239 0.13239 0.14601 0.14601 0.14601 0.14601
 0.14601 0.14601 0.19477 0.19477 0.19477 0.19477 0.19477 0.19477 0.24879 0.24879
 0.24879 0.24879 0.33474 0.33474 0.33474 0.33474 0.33474 0.33474 0.35361 0.35361
 0.40786 0.40786 0.40786 0.40786 0.44402 0.44402 0.44402 0.44402 0.44402 0.44402
 0.49130 0.49130 0.49130 0.49130 0.49130 0.49130 0.49913 0.49913 0.49913 0.49913
 0.49913 0.49913 0.53286 0.53286 0.55193 0.55193 0.55193 0.55193 0.62271 0.62271
 0.65797 0.65797 0.65797 0.65797 0.65797 0.65797 0.67743 0.67743 0.67743 0.67743
 0.67743 0.67743 0.71703 0.71703 0.73896 0.73896 0.73896 0.73896 0.73896 0.73896
 0.75489 0.75489 0.75489 0.75489 0.75489 0.75489 0.76763 0.76763 0.76763 0.76763
 0.76763 0.76763 0.83879 0.83879 0.83879 0.83879 0.90947 0.90947 0.90947 0.90947
 0.90947 0.90947 0.96155 0.96155 0.96155 0.96155 0.96155 0.96155 0.96949 0.96949
 0.96949 0.96949 0.97344 0.97344 0.98144 0.98144 0.98144 0.98144 0.98144 0.98144
 1.02631 1.02631 1.02631 1.02631 1.02631 1.02631 1.02737 1.02737 1.02737 1.02737
 1.02737 1.02737 1.04501 1.04501 1.04502 1.04502 1.04502 1.04502 1.04851 1.04851
 1.16571 1.16571 1.16571 1.16571 1.16571 1.16571 1.19041 1.19041 1.19041 1.19041
 1.19041 1.19041 1.22308 1.22308 1.22308 1.22308 1.24922 1.24922 1.24922 1.24922
 1.24922 1.24922 1.26161 1.26161 1.26161 1.26161 1.26161 1.26161 1.29639 1.29639
 1.29639 1.29639 1.35835 1.35835 1.39621 1.39621 1.39621 1.39621 1.39621 1.39621
 1.39649 1.39649 1.43910 1.43910 1.43910 1.43910 1.43910 1.43910 1.44686 1.44686
 1.46629 1.46629 1.46629 1.46629 1.46629 1.46629 1.47873 1.47873 1.47873 1.47873
 1.47873 1.47873 1.52612 1.52612 1.52612 1.52612 1.52612 1.52612 1.55268 1.55268
 1.55268 1.55268 1.58958 1.58958 1.58959 1.58959 1.61914 1.61914 1.61914 1.61914
 1.62538 1.62538 1.62540 1.62540 1.62540 1.62540 1.68920 1.68920 1.68920 1.68920
 1.68920 1.68920 1.69978 1.69978 1.69979 1.69979 1.69979 1.69979 1.72851 1.72851
 1.72851 1.72851 1.72851 1.72851 1.77831 1.77831 1.78368 1.78368 1.78368 1.78368
 1.80660 1.80660 1.80660 1.80660 1.80660 1.80660 1.81756 1.81756 1.81756 1.81756
 1.81756 1.81756 1.88046 1.88046 1.88046 1.88046 1.88046 1.88046 1.90267 1.90267
 1.94971 1.94971 1.94971 1.94971 1.94971 1.94971 1.96569 1.96569 1.98162 1.98162
 1.98162 1.98162 1.98667 1.98667 2.00601 2.00601 2.00601 2.00601 2.00601 2.00601
 2.01943 2.01943 2.01943 2.01943 2.01943 2.01943 2.06866 2.06866 2.10213 2.10213
 2.10213 2.10213 2.10213 2.10213 2.10849 2.10849 2.10850 2.10850 2.10850 2.10850
 2.12103 2.12103 2.12103 2.12103 2.18320 2.18320 2.18320 2.18320 2.18320 2.18320
 2.25916 2.25916 2.25916 2.25916 2.25916 2.25917 2.27322 2.27322 2.27324 2.27324
 2.29402 2.29402 2.30352 2.30352 2.30353 2.30353 2.30353 2.30353 2.33332 2.33332
 2.33332 2.33332 2.36506 2.36506 2.36506 2.36506 2.36506 2.36506 2.39851 2.39851
 2.39851 2.39851 2.39851 2.39851 2.40266 2.40266 2.40266 2.40266 2.40266 2.40266
 2.42426 2.42426 2.42426 2.42426 2.42426 2.42426 2.49885 2.49885 2.52834 2.52834
 2.52837 2.52837 2.52837 2.52837 2.57663 2.57663 2.57663 2.57663 2.57664 2.57664
 2.61467 2.61467 2.61472 2.61472 2.69229 2.69229 2.69229 2.69229 2.69230 2.69230
 3.17745 3.17745 3.17745 3.17745 3.17746 3.17746 3.32451 3.32451 3.32457 3.32457
 3.32457 3.32457 3.33352 3.33352 3.55826 3.55826 3.55826 3.55826 3.55827 3.55827
 3.73744 3.73744 3.73744 3.73744 3.73745 3.73745 3.82510 3.82510 3.82681 3.82681
 3.82688 3.82688 3.93036 3.93036 3.93036 3.93036 3.93037 3.93037 3.98064 3.98064
 3.98065 3.98065 3.98065 3.98065 4.03300 4.03300 4.03301 4.03301 4.35268 4.35268
 5.72126 5.72126 5.72126 5.72126 5.72126 5.72126 7.65548 7.65548 7.84904 7.84904
 7.84904 7.84904 7.84906 7.84906
 == 5-th k-point (0.00000,0.30616,0.00000) occupation: 112==
 -64.98961 -64.98961 -64.98961 -64.98961 -64.98960 -64.98960 -64.98960 -64.98960 -64.98960 -64.98960
 -64.98960 -64.98960 -64.98958 -64.98958 -64.98958 -64.98958 -4.61907 -4.61907 -4.61904 -4.61904
 -4.61904 -4.61904 -4.61897 -4.61897 -4.61896 -4.61896 -4.61889 -4.61889 -4.61889 -4.61889
 -4.61886 -4.61886 -3.02985 -3.02985 -3.02985 -3.02985 -3.02985 -3.02985 -3.02985 -3.02985
 -3.02982 -3.02982 -3.02982 -3.02982 -3.02982 -3.02982 -3.02982 -3.02982 -3.02968 -3.02968
 -3.02965 -3.02965 -3.02965 -3.02965 -3.02946 -3.02946 -3.02946 -3.02946 -3.02928 -3.02928
 -3.02928 -3.02928 -3.02926 -3.02926 -3.02913 -3.02913 -3.02913 -3.02913 -3.02913 -3.02913
 -3.02913 -3.02913 -3.02909 -3.02909 -3.02909 -3.02909 -3.02907 -3.02907 -3.02907 -3.02907
 -0.12312 -0.12312 -0.08764 -0.08764 -0.08764 -0.08764 -0.00414 -0.00414 -0.00414 -0.00414
 0.07557 0.07557 0.07557 0.07557 0.13390 0.13390 0.13390 0.13390 0.13778 0.13778
 0.13778 0.13778 0.14833 0.14833 0.20663 0.20663 0.20663 0.20663 0.22746 0.22746
 0.22746 0.22746 0.31962 0.31962 0.36918 0.36918 0.36918 0.36918 0.39517 0.39517
 0.43775 0.43775 0.43775 0.43775 0.45521 0.45521 0.45521 0.45521 0.46328 0.46328
 0.46328 0.46328 0.47021 0.47021 0.47021 0.47021 0.49213 0.49213 0.49213 0.49213
 0.50443 0.50443 0.50443 0.50443 0.52478 0.52478 0.52478 0.52478 0.57947 0.57947
 0.61738 0.61738 0.63716 0.63716 0.63716 0.63716 0.67542 0.67542 0.67542 0.67542
 0.69827 0.69827 0.74868 0.74868 0.74868 0.74868 0.76709 0.76709 0.76709 0.76709
 0.77508 0.77508 0.77508 0.77509 0.77732 0.77732 0.77732 0.77732 0.78212 0.78212
 0.78212 0.78212 0.80224 0.80224 0.89540 0.89540 0.89540 0.89540 0.91530 0.91530
 0.91530 0.91530 0.93279 0.93279 0.93279 0.93279 0.93449 0.93449 0.93449 0.93449
 0.94193 0.94193 0.94193 0.94193 0.97617 0.97617 0.98027 0.98027 0.98027 0.98027
 0.98639 0.98639 0.98639 0.98639 0.99445 0.99445 0.99445 0.99445 1.03737 1.03737
 1.03737 1.03737 1.05348 1.05348 1.09237 1.09237 1.09237 1.09237 1.10248 1.10248
 1.17715 1.17715 1.17715 1.17715 1.18667 1.18667 1.18667 1.18667 1.19787 1.19787
 1.19787 1.19787 1.24468 1.24468 1.24468 1.24468 1.25558 1.25558 1.25558 1.25558
 1.31013 1.31013 1.31719 1.31719 1.31719 1.31719 1.32066 1.32066 1.32784 1.32784
 1.32785 1.32785 1.33532 1.33532 1.33532 1.33532 1.38572 1.38572 1.38572 1.38572
 1.39280 1.39280 1.39280 1.39280 1.39822 1.39822 1.39823 1.39823 1.40299 1.40299
 1.40299 1.40299 1.41810 1.41810 1.41810 1.41810 1.45989 1.45989 1.46208 1.46208
 1.46743 1.46743 1.46744 1.46744 1.50354 1.50354 1.50354 1.50354 1.59222 1.59222
 1.59222 1.59222 1.61516 1.61516 1.61519 1.61519 1.62467 1.62467 1.62467 1.62467
 1.62849 1.62849 1.62849 1.62849 1.63828 1.63828 1.63829 1.63829 1.64207 1.64207
 1.71474 1.71474 1.71474 1.71474 1.74129 1.74129 1.74130 1.74130 1.74475 1.74475
 1.74475 1.74475 1.75951 1.75951 1.75952 1.75952 1.75952 1.75952 1.76887 1.76887
 1.76888 1.76888 1.77348 1.77348 1.77349 1.77349 1.78139 1.78139 1.85179 1.85179
 1.85180 1.85180 1.88238 1.88238 1.90605 1.90605 1.90605 1.90605 1.92107 1.92107
 1.92108 1.92108 1.94581 1.94581 1.94581 1.94581 1.97332 1.97332 1.97332 1.97332
 1.98177 1.98177 1.98188 1.98188 1.98259 1.98259 2.01813 2.01813 2.01814 2.01814
 2.05071 2.05071 2.05072 2.05072 2.05236 2.05236 2.05237 2.05237 2.06636 2.06636
 2.10814 2.10814 2.11635 2.11635 2.11635 2.11635 2.12435 2.12435 2.12435 2.12435
 2.15180 2.15180 2.15181 2.15181 2.15260 2.15260 2.15587 2.15587 2.15593 2.15593
 2.17102 2.17102 2.17103 2.17103 2.19018 2.19018 2.19019 2.19019 2.22769 2.22769
 2.27249 2.27249 2.27250 2.27250 2.29612 2.29612 2.29613 2.29613 2.30478 2.30478
 2.30479 2.30479 2.35471 2.35471 2.35471 2.35471 2.36402 2.36402 2.36418 2.36418
 2.40605 2.40605 2.40605 2.40605 2.44630 2.44630 2.44633 2.44633 2.46142 2.46142
 2.49794 2.49794 2.49794 2.49794 2.50324 2.50324 2.50326 2.50326 2.56337 2.56337
 2.56354 2.56354 2.58540 2.58540 2.58540 2.58540 2.60108 2.60108 2.60120 2.60120
 2.68798 2.68798 2.68807 2.68807 2.69562 2.69562 2.69564 2.69564 2.72458 2.72458
 2.89143 2.89143 2.89143 2.89143 3.02759 3.02759 3.02761 3.02761 3.41966 3.41966
 3.41966 3.41966 3.48110 3.48110 3.49284 3.49284 3.49284 3.49284 3.71737 3.71737
 3.71738 3.71738 3.72346 3.72346 3.72371 3.72371 3.73033 3.73033 3.73035 3.73035
 3.87302 3.87302 3.87303 3.87303 3.94736 3.94736 3.94737 3.94737 3.97711 3.97711
 4.04398 4.04398 4.04399 4.04399 4.28177 4.28177 4.28198 4.28198 5.26735 5.26735
 6.01518 6.01518 6.48645 6.48645 6.48647 6.48647 6.78041 6.78041 6.78050 6.78050
 7.55334 7.55334 7.55338 7.55338
 == 6-th k-point (0.00000,0.00000,0.30616) occupation: 112==
 -64.98961 -64.98961 -64.98961 -64.98961 -64.98960 -64.98960 -64.98960 -64.98960 -64.98960 -64.98960
 -64.98960 -64.98960 -64.98959 -64.98958 -64.98958 -64.98958 -4.61907 -4.61907 -4.61904 -4.61904
 -4.61904 -4.61904 -4.61897 -4.61897 -4.61896 -4.61896 -4.61889 -4.61889 -4.61889 -4.61889
 -4.61886 -4.61886 -3.02985 -3.02985 -3.02985 -3.02985 -3.02985 -3.02985 -3.02985 -3.02985
 -3.02982 -3.02982 -3.02982 -3.02982 -3.02982 -3.02982 -3.02982 -3.02982 -3.02968 -3.02968
 -3.02965 -3.02965 -3.02965 -3.02965 -3.02946 -3.02946 -3.02946 -3.02946 -3.02928 -3.02928
 -3.02928 -3.02928 -3.02927 -3.02926 -3.02913 -3.02913 -3.02913 -3.02913 -3.02913 -3.02913
 -3.02913 -3.02912 -3.02909 -3.02909 -3.02909 -3.02909 -3.02907 -3.02907 -3.02907 -3.02907
 -0.12312 -0.12312 -0.08764 -0.08764 -0.08764 -0.08764 -0.00414 -0.00414 -0.00414 -0.00414
 0.07557 0.07557 0.07557 0.07557 0.13390 0.13390 0.13390 0.13390 0.13778 0.13778
 0.13778 0.13778 0.14833 0.14833 0.20663 0.20663 0.20663 0.20663 0.22746 0.22746
 0.22746 0.22746 0.31962 0.31962 0.36918 0.36918 0.36918 0.36918 0.39517 0.39517
 0.43775 0.43775 0.43775 0.43775 0.45521 0.45521 0.45521 0.45521 0.46328 0.46328
 0.46328 0.46328 0.47021 0.47021 0.47021 0.47021 0.49213 0.49213 0.49213 0.49213
 0.50443 0.50443 0.50443 0.50443 0.52478 0.52478 0.52478 0.52478 0.57947 0.57947
 0.61738 0.61738 0.63716 0.63716 0.63716 0.63716 0.67542 0.67542 0.67542 0.67542
 0.69827 0.69827 0.74868 0.74868 0.74868 0.74868 0.76709 0.76709 0.76709 0.76709
 0.77508 0.77508 0.77509 0.77509 0.77732 0.77732 0.77732 0.77732 0.78212 0.78212
 0.78212 0.78212 0.80224 0.80224 0.89540 0.89540 0.89540 0.89540 0.91530 0.91530
 0.91530 0.91530 0.93279 0.93279 0.93279 0.93279 0.93449 0.93449 0.93449 0.93449
 0.94193 0.94193 0.94193 0.94193 0.97617 0.97617 0.98027 0.98027 0.98027 0.98027
 0.98639 0.98639 0.98639 0.98639 0.99445 0.99445 0.99445 0.99445 1.03737 1.03737
 1.03737 1.03737 1.05348 1.05348 1.09237 1.09237 1.09237 1.09237 1.10248 1.10248
 1.17715 1.17715 1.17715 1.17715 1.18667 1.18667 1.18667 1.18667 1.19787 1.19787
 1.19787 1.19787 1.24468 1.24468 1.24468 1.24468 1.25558 1.25558 1.25558 1.25558
 1.31013 1.31013 1.31719 1.31719 1.31719 1.31719 1.32066 1.32066 1.32784 1.32784
 1.32785 1.32785 1.33532 1.33532 1.33532 1.33532 1.38572 1.38572 1.38572 1.38572
 1.39280 1.39280 1.39280 1.39280 1.39822 1.39822 1.39823 1.39823 1.40299 1.40299
 1.40299 1.40299 1.41810 1.41810 1.41810 1.41810 1.45989 1.45989 1.46208 1.46208
 1.46743 1.46743 1.46744 1.46744 1.50354 1.50354 1.50354 1.50354 1.59222 1.59222
 1.59222 1.59222 1.61516 1.61516 1.61519 1.61519 1.62467 1.62467 1.62467 1.62467
 1.62849 1.62849 1.62849 1.62849 1.63828 1.63828 1.63829 1.63829 1.64207 1.64207
 1.71474 1.71474 1.71474 1.71474 1.74129 1.74129 1.74130 1.74130 1.74475 1.74475
 1.74475 1.74475 1.75951 1.75951 1.75952 1.75952 1.75952 1.75952 1.76887 1.76887
 1.76888 1.76888 1.77348 1.77348 1.77349 1.77349 1.78139 1.78139 1.85179 1.85179
 1.85180 1.85180 1.88238 1.88238 1.90605 1.90605 1.90605 1.90605 1.92107 1.92107
 1.92108 1.92108 1.94581 1.94581 1.94581 1.94581 1.97332 1.97332 1.97332 1.97332
 1.98177 1.98177 1.98188 1.98188 1.98259 1.98259 2.01813 2.01813 2.01814 2.01814
 2.05071 2.05071 2.05072 2.05072 2.05236 2.05236 2.05237 2.05237 2.06636 2.06636
 2.10814 2.10814 2.11635 2.11635 2.11635 2.11635 2.12435 2.12435 2.12435 2.12435
 2.15180 2.15180 2.15181 2.15181 2.15260 2.15260 2.15587 2.15587 2.15593 2.15593
 2.17102 2.17102 2.17103 2.17103 2.19018 2.19018 2.19019 2.19019 2.22769 2.22769
 2.27249 2.27249 2.27250 2.27250 2.29612 2.29612 2.29613 2.29613 2.30478 2.30478
 2.30479 2.30479 2.35471 2.35471 2.35471 2.35471 2.36402 2.36402 2.36418 2.36418
 2.40605 2.40605 2.40605 2.40605 2.44630 2.44630 2.44633 2.44633 2.46142 2.46142
 2.49794 2.49794 2.49794 2.49794 2.50324 2.50324 2.50326 2.50326 2.56337 2.56337
 2.56354 2.56354 2.58540 2.58540 2.58540 2.58540 2.60108 2.60108 2.60120 2.60120
 2.68798 2.68798 2.68807 2.68807 2.69562 2.69562 2.69564 2.69564 2.72458 2.72458
 2.89143 2.89143 2.89143 2.89143 3.02759 3.02759 3.02761 3.02761 3.41966 3.41966
 3.41966 3.41966 3.48110 3.48110 3.49284 3.49284 3.49284 3.49284 3.71737 3.71737
 3.71738 3.71738 3.72346 3.72346 3.72371 3.72371 3.73033 3.73033 3.73035 3.73035
 3.87302 3.87302 3.87303 3.87303 3.94736 3.94736 3.94737 3.94737 3.97711 3.97711
 4.04398 4.04398 4.04399 4.04399 4.28177 4.28177 4.28198 4.28198 5.26735 5.26735
 6.01518 6.01518 6.48645 6.48645 6.48647 6.48647 6.78041 6.78041 6.78050 6.78050
 7.55334 7.55334 7.55338 7.55338
 == 7-th k-point (0.15308,0.15308,0.15308) occupation: 112==
 -64.98962 -64.98962 -64.98962 -64.98962 -64.98962 -64.98962 -64.98961 -64.98961 -64.98958 -64.98958
 -64.98958 -64.98958 -64.98958 -64.98958 -64.98955 -64.98955 -4.61907 -4.61907 -4.61902 -4.61902
 -4.61902 -4.61901 -4.61901 -4.61901 -4.61891 -4.61891 -4.61891 -4.61891 -4.61891 -4.61891
 -4.61885 -4.61885 -3.02984 -3.02984 -3.02984 -3.02984 -3.02984 -3.02984 -3.02984 -3.02984
 -3.02984 -3.02984 -3.02984 -3.02984 -3.02982 -3.02982 -3.02982 -3.02982 -3.02974 -3.02974
 -3.02959 -3.02959 -3.02959 -3.02959 -3.02959 -3.02959 -3.02933 -3.02933 -3.02933 -3.02933
 -3.02933 -3.02933 -3.02920 -3.02920 -3.02915 -3.02915 -3.02915 -3.02915 -3.02910 -3.02910
 -3.02910 -3.02910 -3.02910 -3.02910 -3.02908 -3.02908 -3.02908 -3.02908 -3.02908 -3.02908
 -0.13349 -0.13349 -0.06277 -0.06277 -0.06277 -0.06277 -0.06277 -0.06277 0.04221 0.04221
 0.04221 0.04221 0.04221 0.04221 0.13239 0.13239 0.14601 0.14601 0.14601 0.14601
 0.14601 0.14601 0.19477 0.19477 0.19477 0.19477 0.19477 0.19477 0.24879 0.24879
 0.24879 0.24879 0.33474 0.33474 0.33474 0.33474 0.33474 0.33474 0.35361 0.35361
 0.40786 0.40786 0.40786 0.40786 0.44402 0.44402 0.44402 0.44402 0.44402 0.44402
 0.49130 0.49130 0.49130 0.49130 0.49130 0.49130 0.49913 0.49913 0.49913 0.49913
 0.49913 0.49913 0.53286 0.53286 0.55193 0.55193 0.55193 0.55193 0.62271 0.62271
 0.65797 0.65797 0.65797 0.65797 0.65797 0.65797 0.67743 0.67743 0.67743 0.67743
 0.67743 0.67743 0.71703 0.71703 0.73896 0.73896 0.73896 0.73896 0.73896 0.73896
 0.75489 0.75489 0.75489 0.75489 0.75489 0.75489 0.76763 0.76763 0.76763 0.76763
 0.76763 0.76763 0.83879 0.83879 0.83879 0.83879 0.90947 0.90947 0.90947 0.90947
 0.90947 0.90947 0.96155 0.96155 0.96155 0.96155 0.96155 0.96155 0.96949 0.96949
 0.96949 0.96949 0.97344 0.97344 0.98144 0.98144 0.98144 0.98144 0.98144 0.98144
 1.02631 1.02631 1.02631 1.02631 1.02631 1.02631 1.02737 1.02737 1.02737 1.02737
 1.02737 1.02737 1.04502 1.04502 1.04502 1.04502 1.04502 1.04502 1.04851 1.04851
 1.16571 1.16571 1.16571 1.16571 1.16571 1.16571 1.19041 1.19041 1.19041 1.19041
 1.19041 1.19041 1.22308 1.22308 1.22308 1.22308 1.24922 1.24922 1.24922 1.24922
 1.24922 1.24922 1.26161 1.26161 1.26161 1.26161 1.26161 1.26161 1.29639 1.29639
 1.29639 1.29639 1.35835 1.35835 1.39621 1.39621 1.39621 1.39621 1.39621 1.39621
 1.39649 1.39649 1.43910 1.43910 1.43910 1.43910 1.43910 1.43910 1.44686 1.44686
 1.46629 1.46629 1.46629 1.46629 1.46629 1.46629 1.47873 1.47873 1.47873 1.47873
 1.47873 1.47873 1.52612 1.52612 1.52612 1.52612 1.52612 1.52612 1.55268 1.55268
 1.55268 1.55268 1.58959 1.58959 1.58959 1.58959 1.61914 1.61914 1.61914 1.61914
 1.62538 1.62538 1.62538 1.62538 1.62538 1.62538 1.68920 1.68920 1.68920 1.68920
 1.68920 1.68920 1.69978 1.69978 1.69978 1.69978 1.69978 1.69978 1.72851 1.72851
 1.72851 1.72851 1.72851 1.72851 1.77831 1.77831 1.78368 1.78368 1.78368 1.78368
 1.80659 1.80659 1.80659 1.80659 1.80659 1.80659 1.81756 1.81756 1.81756 1.81756
 1.81756 1.81756 1.88046 1.88046 1.88046 1.88046 1.88046 1.88046 1.90267 1.90267
 1.94970 1.94970 1.94970 1.94970 1.94970 1.94970 1.96569 1.96569 1.98162 1.98162
 1.98162 1.98162 1.98667 1.98667 2.00602 2.00602 2.00602 2.00602 2.00602 2.00602
 2.01943 2.01943 2.01943 2.01943 2.01943 2.01943 2.06866 2.06866 2.10213 2.10213
 2.10213 2.10213 2.10213 2.10213 2.10849 2.10849 2.10849 2.10849 2.10849 2.10849
 2.12103 2.12103 2.12103 2.12103 2.18320 2.18320 2.18320 2.18320 2.18320 2.18320
 2.25916 2.25916 2.25916 2.25916 2.25916 2.25916 2.27324 2.27324 2.27324 2.27324
 2.29403 2.29403 2.30352 2.30352 2.30352 2.30352 2.30352 2.30352 2.33332 2.33332
 2.33332 2.33332 2.36506 2.36506 2.36506 2.36506 2.36506 2.36506 2.39851 2.39851
 2.39851 2.39851 2.39851 2.39851 2.40266 2.40266 2.40266 2.40266 2.40266 2.40266
 2.42426 2.42426 2.42426 2.42426 2.42426 2.42426 2.49885 2.49885 2.52834 2.52834
 2.52834 2.52834 2.52834 2.52834 2.57659 2.57659 2.57659 2.57659 2.57659 2.57659
 2.61472 2.61472 2.61472 2.61472 2.69224 2.69224 2.69224 2.69225 2.69225 2.69225
 3.17743 3.17743 3.17743 3.17743 3.17743 3.17743 3.32450 3.32450 3.32450 3.32450
 3.32450 3.32450 3.33352 3.33352 3.55826 3.55826 3.55826 3.55826 3.55826 3.55826
 3.73744 3.73744 3.73744 3.73744 3.73744 3.73744 3.82510 3.82510 3.82688 3.82688
 3.82688 3.82688 3.93037 3.93037 3.93037 3.93037 3.93037 3.93037 3.98064 3.98064
 3.98064 3.98064 3.98064 3.98064 4.03301 4.03301 4.03301 4.03301 4.35268 4.35268
 5.72127 5.72127 5.72127 5.72127 5.72127 5.72127 7.65548 7.65548 7.84896 7.84896
 7.84896 7.84896 7.84896 7.84896
 ---------------------------------------------------------------------------
 VBM is at 0-th k-point with 7.55375 eV
 CBM is at 0-th k-point with 8.29540 eV
 Band gap is 0.74165 eV


           Ground-State Mulliken Net Atomic Charges

      Atom                 Charge (a.u.)          Spin (a.u.)
   --------------------------------------------------------
      1 Si              (-0.000001,-0.000000)    (0.000000,0.000000)
      2 Si                (0.000004,0.000000)    (0.000000,0.000000)
      3 Si              (-0.000001,-0.000000)    (0.000000,0.000000)
      4 Si                (0.000002,0.000000)    (0.000000,0.000000)
      5 Si              (-0.000003,-0.000000)    (0.000000,0.000000)
      6 Si                (0.000000,0.000000)    (0.000000,0.000000)
      7 Si               (-0.000002,0.000000)    (0.000000,0.000000)
      8 Si               (-0.000001,0.000000)    (0.000000,0.000000)
      9 Si              (-0.000002,-0.000000)    (0.000000,0.000000)
     10 Si                (0.000000,0.000000)    (0.000000,0.000000)
     11 Si               (-0.000002,0.000000)    (0.000000,0.000000)
     12 Si               (-0.000000,0.000000)    (0.000000,0.000000)
     13 Si               (0.000001,-0.000000)    (0.000000,0.000000)
     14 Si                (0.000001,0.000000)    (0.000000,0.000000)
     15 Si                (0.000002,0.000000)    (0.000000,0.000000)
     16 Si                (0.000001,0.000000)    (0.000000,0.000000)
   --------------------------------------------------------
  Sum of atomic charges =     (-0.000000,-0.000000)
  Sum of spin   charges =       (0.000000,0.000000)



 Total job time:  291.91 s.
 Mon Sep  8 03:53:43 2025


        *************************************************************
        *                                                           *
        *  Thank you very much for using QCPBC. Have a nice day.    *
        *                                                           *
        *************************************************************

