This is a multi-thread run using 32 threads
/n/home02/hieudinh/qchem_root/qchem-adapt/exe/qcprog.exe .benzene_qchem_ccpvtz_pbe_d3bj.in.4192904.qcin.1 /n/netscratch/joonholee_lab/Lab/hieudinh/qchem4192904/

                  Welcome to Q-Chem
     A Quantum Leap Into The Future Of Chemistry


 Q-Chem 6.1 (devel), Q-Chem, Inc., Pleasanton, CA (2022)

 E. Epifanovsky,  A. T. B. Gilbert,  Xintian Feng,  Joonho Lee,  Yuezhi Mao,  
 N. Mardirossian,  P. Pokhilko,  A. White,  M. Wormit,  M. P. Coons,  
 A. L. Dempwolff,  Zhengting Gan,  D. Hait,  P. R. Horn,  L. D. Jacobson,  
 I. Kaliman,  J. Kussmann,  A. W. Lange,  Ka Un Lao,  D. S. Levine,  Jie Liu,  
 S. C. McKenzie,  A. F. Morrison,  K. D. Nanda,  F. Plasser,  D. R. Rehn,  
 M. L. Vidal,  Zhi-Qiang You,  Ying Zhu,  B. Alam,  B. Albrecht,  
 A. Aldossary,  E. Alguire,  J. H. Andersen,  V. Athavale,  D. Barton,  
 K. Begam,  A. Behn,  N. Bellonzi,  Y. A. Bernard,  E. J. Berquist,  
 H. Burton,  A. Carreras,  K. Carter-Fenk,  Mathew Chow,  Romit Chakraborty,  
 Chandrima Chakravarty,  Junhan Chen,  A. D. Chien,  K. D. Closser,  
 V. Cofer-Shabica,  L. Cunha,  S. Dasgupta,  Jia Deng,  M. de Wergifosse,  
 M. Diedenhofen,  Hainam Do,  S. Ehlert,  Po-Tung Fang,  S. Fatehi,  
 Qingguo Feng,  T. Friedhoff,  Thomas Froitzheim,  B. Ganoe,  J. Gayvert,  
 Qinghui Ge,  G. Gidofalvi,  M. Gimferrer,  M. Goldey,  Montgomery Gray,  
 J. Gomes,  C. Gonzalez-Espinoza,  S. Gulania,  A. Gunina,  J. A. Gyamfi,  
 M. W. D. Hanson-Heine,  P. H. P. Harbach,  A. W. Hauser,  M. F. Herbst,  
 M. Hernandez Vera,  M. Hodecker,  Z. C. Holden,  S. Houck,  Xunkun Huang,  
 Kerwin Hui,  B. C. Huynh,  K. Ikeda,  M. Ivanov,  Hyunjun Ji,  Zuxin Jin,  
 Hanjie Jiang,  Subrata Jana,  B. Kaduk,  S. Kaehler,  R. Kang,  
 K. Khistyaev,  Jaehoon Kim,  Yongbin Kim,  P. Klunzinger,  Z. Koczor-Benda,  
 Joong Hoon Koh,  D. Kosenkov,  Saikiran Kotaru,  L. Koulias,  T. Kowalczyk,  
 C. M. Krauter,  K. Kue,  A. Kunitsa,  T. Kus,  A. Landau,  K. V. Lawler,  
 D. Lefrancois,  S. Lehtola,  Rain Li,  Shaozhi Li,  Yi-Pei Li,  
 Jiashu Liang,  M. Liebenthal,  Hung-Hsuan Lin,  You-Sheng Lin,  Fenglai Liu,  
 Kuan-Yu Liu,  Xiao Liu,  M. Loipersberger,  A. Luenser,  C. Malbon,  
 A. Manjanath,  P. Manohar,  E. Mansoor,  S. F. Manzer,  Shan-Ping Mao,  
 A. V. Marenich,  T. Markovich,  S. Mason,  F. Matz,  S. A. Maurer,  
 P. F. McLaughlin,  M. F. S. J. Menger,  J.-M. Mewes,  S. A. Mewes,  
 P. Morgante,  Mohammad Mostafanejad,  J. W. Mullinax,  K. J. Oosterbaan,  
 G. Paran,  V. Parravicini,  Alexander C. Paul,  Suranjan K. Paul,  
 F. Pavosevic,  Zheng Pei,  S. Prager,  E. I. Proynov,  E. Ramos,  B. Rana,  
 A. E. Rask,  A. Rettig,  R. M. Richard,  F. Rob,  E. Rossomme,  T. Scheele,  
 M. Scheurer,  M. Schneider,  P. E. Schneider,  Tim K. Schramm,  N. Sergueev,  
 S. M. Sharada,  M. Sharma,  Hengyuan Shen,  W. Skomorowski,  D. W. Small,  
 C. J. Stein,  Alistair J. Sterling,  Yingli Su,  Yu-Chuan Su,  
 E. J. Sundstrom,  J. Talbot,  Zhen Tao,  J. Thirman,  Hung-Yi Tsai,  
 T. Tsuchimochi,  N. M. Tubman,  C. Utku,  S. P. Veccham,  O. Vydrov,  
 J. Wenzel,  Jonathan Wong,  J. Witte,  A. Yamada,  Chou-Hsun Yang,  Kun Yao,  
 S. Yeganeh,  S. R. Yost,  A. Zech,  F. Zeller,  Igor Ying Zhang,  
 Xing Zhang,  Yu Zhang,  D. Zuev,  A. Aspuru-Guzik,  A. T. Bell,  
 N. A. Besley,  K. B. Bravaya,  B. R. Brooks,  D. Casanova,  Jeng-Da Chai,  
 Hsing-Ta Chen,  S. Coriani,  C. J. Cramer,  A. E. DePrince, III,  
 R. A. DiStasio Jr.,  A. Dreuw,  B. D. Dunietz,  T. R. Furlani,  
 W. A. Goddard III,  S. Grimme,  S. Hammes-Schiffer,  T. Head-Gordon,  
 W. J. Hehre,  Chao-Ping Hsu,  T.-C. Jagau,  Yousung Jung,  A. Klamt,  
 Jing Kong,  D. S. Lambrecht,  Xiangyuan Li,  WanZhen Liang,  N. J. Mayhall,  
 C. W. McCurdy,  J. B. Neaton,  T. Neudecker,  C. Ochsenfeld,  
 J. A. Parkhill,  R. Peverati,  V. A. Rassolov,  Haisheng Ren,  Yihan Shao,  
 L. V. Slipchenko,  R. P. Steele,  J. E. Subotnik,  A. J. W. Thom,  
 A. Tkatchenko,  D. G. Truhlar,  T. Van Voorhis,  Fan Wang,  
 T. A. Wesolowski,  K. B. Whaley,  H. L. Woodcock III,  P. M. Zimmerman,  
 S. Faraji,  P. M. W. Gill,  M. Head-Gordon,  J. M. Herbert,  A. I. Krylov

 Contributors to earlier versions of Q-Chem not listed above: 
 R. D. Adamson,  B. Austin,  R. Baer,  J. Baker,  G. J. O. Beran,  
 K. Brandhorst,  S. T. Brown,  E. F. C. Byrd,  Arup K. Chakraborty,  
 G. K. L. Chan,  Chun-Min Chang,  Yunqing Chen,  C.-L. Cheng,  
 Siu Hung Chien,  D. M. Chipman,  D. L. Crittenden,  H. Dachsel,  
 R. J. Doerksen,  A. D. Dutoi,  R. G. Edgar,  J. Fosso-Tande,  
 L. Fusti-Molnar,  D. Ghosh,  A. Ghysels,  A. Golubeva-Zadorozhnaya,  
 J. Gonthier,  M. S. Gordon,  S. R. Gwaltney,  G. Hawkins,  J. E. Herr,  
 A. Heyden,  S. Hirata,  E. G. Hohenstein,  G. Kedziora,  F. J. Keil,  
 C. Kelley,  Jihan Kim,  R. A. King,  R. Z. Khaliullin,  P. P. Korambath,  
 W. Kurlancheek,  A. Laurent,  A. M. Lee,  M. S. Lee,  S. V. Levchenko,  
 Ching Yeh Lin,  D. Liotard,  E. Livshits,  R. C. Lochan,  I. Lotan,  
 L. A. Martinez-Martinez,  P. E. Maslen,  N. Nair,  D. P. O'Neill,  
 D. Neuhauser,  E. Neuscamman,  C. M. Oana,  R. Olivares-Amaya,  R. Olson,  
 T. M. Perrine,  B. Peters,  P. A. Pieniazek,  A. Prociuk,  Y. M. Rhee,  
 J. Ritchie,  M. A. Rohrdanz,  E. Rosta,  N. J. Russ,  H. F. Schaefer III,  
 M. W. Schmidt,  N. E. Schultz,  S. Sharma,  N. Shenvi,  C. D. Sherrill,  
 A. C. Simmonett,  A. Sodt,  T. Stein,  D. Stuck,  K. S. Thanthiriwatte,  
 V. Vanovschi,  L. Vogt,  Tao Wang,  A. Warshel,  M. A. Watson,  
 C. F. Williams,  Q. Wu,  X. Xu,  Jun Yang,  W. Zhang,  Yan Zhao

   Please cite Q-Chem as follows:
  "Software for the frontiers of quantum chemistry:
   An overview of developments in the Q-Chem 5 package"
   J. Chem. Phys. 155, 084801 (2021)
   https://doi.org/10.1063/5.0055522 (open access)

 Q-Chem 6.1.1 for Intel X86 EM64T Linux

 Parts of Q-Chem use Armadillo 9.900.5 (Nocturnal Misbehaviour).
 http://arma.sourceforge.net/

 Q-Chem begins on Thu Aug 14 17:50:46 2025  

 Host: holy7c06206.rc.fas.harvard.edu
0

     Scratch files written to /n/netscratch/joonholee_lab/Lab/hieudinh/qchem4192904//
 Processing $rem in /n/home02/hieudinh/qchem_root/qchem-adapt/config/preferences:
 Processing $rem in /n/home02/hieudinh/.qchemrc:

 Checking the input file for inconsistencies... 	...done.

--------------------------------------------------------------
User input:
--------------------------------------------------------------
$molecule
0 1
@H 27.15623700 28.78700600 30.61688400
@H 27.15623700 26.63799400 35.32688400
@H 23.75123700 28.78700600 30.61311600
@H 23.75123700 26.63799400 35.32311600
@H 20.51376300 22.94299400 35.32311600
@H 20.51376300 25.09200600 30.61311600
@H 23.91876300 22.94299400 35.32688400
@H 23.91876300 25.09200600 30.61688400
@H 21.95612100 27.74353800 28.99570200
@H 21.95612100 27.68146200 33.70570200
@H 25.36112100 27.74353800 32.23429800
@H 25.36112100 27.68146200 36.94429800
@H 25.71387900 23.98646200 36.94429800
@H 25.71387900 24.04853800 32.23429800
@H 22.30887900 23.98646200 33.70570200
@H 22.30887900 24.04853800 28.99570200
@H 25.63284000 23.18316900 29.84350200
@H 25.63284000 24.85183100 34.55350200
@H 22.22784000 23.18316900 31.38649800
@H 22.22784000 24.85183100 36.09649800
@H 22.03716000 28.54683100 36.09649800
@H 22.03716000 26.87816900 31.38649800
@H 25.44216000 28.54683100 34.55350200
@H 25.44216000 26.87816900 29.84350200
H 27.15623700 28.78700600 40.03688400
@H 27.15623700 26.63799400 44.74688400
@H 23.75123700 28.78700600 40.03311600
@H 23.75123700 26.63799400 44.74311600
@H 20.51376300 22.94299400 44.74311600
@H 20.51376300 25.09200600 40.03311600
@H 23.91876300 22.94299400 44.74688400
@H 23.91876300 25.09200600 40.03688400
@H 21.95612100 27.74353800 38.41570200
@H 21.95612100 27.68146200 43.12570200
@H 25.36112100 27.74353800 41.65429800
@H 25.36112100 27.68146200 46.36429800
@H 25.71387900 23.98646200 46.36429800
@H 25.71387900 24.04853800 41.65429800
@H 22.30887900 23.98646200 43.12570200
@H 22.30887900 24.04853800 38.41570200
@H 25.63284000 23.18316900 39.26350200
@H 25.63284000 24.85183100 43.97350200
@H 22.22784000 23.18316900 40.80649800
@H 22.22784000 24.85183100 45.51649800
@H 22.03716000 28.54683100 45.51649800
@H 22.03716000 26.87816900 40.80649800
@H 25.44216000 28.54683100 43.97350200
@H 25.44216000 26.87816900 39.26350200
@H 27.15623700 36.17700600 30.61688400
@H 27.15623700 34.02799400 35.32688400
@H 23.75123700 36.17700600 30.61311600
@H 23.75123700 34.02799400 35.32311600
@H 20.51376300 30.33299400 35.32311600
@H 20.51376300 32.48200600 30.61311600
@H 23.91876300 30.33299400 35.32688400
@H 23.91876300 32.48200600 30.61688400
@H 21.95612100 35.13353800 28.99570200
@H 21.95612100 35.07146200 33.70570200
@H 25.36112100 35.13353800 32.23429800
@H 25.36112100 35.07146200 36.94429800
H 25.71387900 31.37646200 36.94429800
@H 25.71387900 31.43853800 32.23429800
@H 22.30887900 31.37646200 33.70570200
@H 22.30887900 31.43853800 28.99570200
@H 25.63284000 30.57316900 29.84350200
@H 25.63284000 32.24183100 34.55350200
@H 22.22784000 30.57316900 31.38649800
@H 22.22784000 32.24183100 36.09649800
@H 22.03716000 35.93683100 36.09649800
@H 22.03716000 34.26816900 31.38649800
@H 25.44216000 35.93683100 34.55350200
@H 25.44216000 34.26816900 29.84350200
@H 27.15623700 36.17700600 40.03688400
@H 27.15623700 34.02799400 44.74688400
@H 23.75123700 36.17700600 40.03311600
@H 23.75123700 34.02799400 44.74311600
@H 20.51376300 30.33299400 44.74311600
@H 20.51376300 32.48200600 40.03311600
@H 23.91876300 30.33299400 44.74688400
@H 23.91876300 32.48200600 40.03688400
@H 21.95612100 35.13353800 38.41570200
@H 21.95612100 35.07146200 43.12570200
@H 25.36112100 35.13353800 41.65429800
@H 25.36112100 35.07146200 46.36429800
@H 25.71387900 31.37646200 46.36429800
@H 25.71387900 31.43853800 41.65429800
@H 22.30887900 31.37646200 43.12570200
@H 22.30887900 31.43853800 38.41570200
H 25.63284000 30.57316900 39.26350200
@H 25.63284000 32.24183100 43.97350200
@H 22.22784000 30.57316900 40.80649800
@H 22.22784000 32.24183100 45.51649800
@H 22.03716000 35.93683100 45.51649800
@H 22.03716000 34.26816900 40.80649800
@H 25.44216000 35.93683100 43.97350200
@H 25.44216000 34.26816900 39.26350200
@H 33.96623700 28.78700600 30.61688400
@H 33.96623700 26.63799400 35.32688400
@H 30.56123700 28.78700600 30.61311600
@H 30.56123700 26.63799400 35.32311600
@H 27.32376300 22.94299400 35.32311600
@H 27.32376300 25.09200600 30.61311600
@H 30.72876300 22.94299400 35.32688400
@H 30.72876300 25.09200600 30.61688400
@H 28.76612100 27.74353800 28.99570200
@H 28.76612100 27.68146200 33.70570200
@H 32.17112100 27.74353800 32.23429800
@H 32.17112100 27.68146200 36.94429800
@H 32.52387900 23.98646200 36.94429800
@H 32.52387900 24.04853800 32.23429800
@H 29.11887900 23.98646200 33.70570200
@H 29.11887900 24.04853800 28.99570200
@H 32.44284000 23.18316900 29.84350200
@H 32.44284000 24.85183100 34.55350200
@H 29.03784000 23.18316900 31.38649800
@H 29.03784000 24.85183100 36.09649800
H 28.84716000 28.54683100 36.09649800
@H 28.84716000 26.87816900 31.38649800
@H 32.25216000 28.54683100 34.55350200
@H 32.25216000 26.87816900 29.84350200
@H 33.96623700 28.78700600 40.03688400
@H 33.96623700 26.63799400 44.74688400
@H 30.56123700 28.78700600 40.03311600
@H 30.56123700 26.63799400 44.74311600
@H 27.32376300 22.94299400 44.74311600
@H 27.32376300 25.09200600 40.03311600
@H 30.72876300 22.94299400 44.74688400
@H 30.72876300 25.09200600 40.03688400
H 28.76612100 27.74353800 38.41570200
@H 28.76612100 27.68146200 43.12570200
@H 32.17112100 27.74353800 41.65429800
@H 32.17112100 27.68146200 46.36429800
@H 32.52387900 23.98646200 46.36429800
@H 32.52387900 24.04853800 41.65429800
@H 29.11887900 23.98646200 43.12570200
@H 29.11887900 24.04853800 38.41570200
@H 32.44284000 23.18316900 39.26350200
@H 32.44284000 24.85183100 43.97350200
@H 29.03784000 23.18316900 40.80649800
@H 29.03784000 24.85183100 45.51649800
@H 28.84716000 28.54683100 45.51649800
@H 28.84716000 26.87816900 40.80649800
@H 32.25216000 28.54683100 43.97350200
@H 32.25216000 26.87816900 39.26350200
@H 33.96623700 36.17700600 30.61688400
@H 33.96623700 34.02799400 35.32688400
@H 30.56123700 36.17700600 30.61311600
@H 30.56123700 34.02799400 35.32311600
H 27.32376300 30.33299400 35.32311600
@H 27.32376300 32.48200600 30.61311600
@H 30.72876300 30.33299400 35.32688400
@H 30.72876300 32.48200600 30.61688400
@H 28.76612100 35.13353800 28.99570200
@H 28.76612100 35.07146200 33.70570200
@H 32.17112100 35.13353800 32.23429800
@H 32.17112100 35.07146200 36.94429800
@H 32.52387900 31.37646200 36.94429800
@H 32.52387900 31.43853800 32.23429800
@H 29.11887900 31.37646200 33.70570200
@H 29.11887900 31.43853800 28.99570200
@H 32.44284000 30.57316900 29.84350200
@H 32.44284000 32.24183100 34.55350200
@H 29.03784000 30.57316900 31.38649800
@H 29.03784000 32.24183100 36.09649800
@H 28.84716000 35.93683100 36.09649800
@H 28.84716000 34.26816900 31.38649800
@H 32.25216000 35.93683100 34.55350200
@H 32.25216000 34.26816900 29.84350200
@H 33.96623700 36.17700600 40.03688400
@H 33.96623700 34.02799400 44.74688400
@H 30.56123700 36.17700600 40.03311600
@H 30.56123700 34.02799400 44.74311600
@H 27.32376300 30.33299400 44.74311600
@H 27.32376300 32.48200600 40.03311600
@H 30.72876300 30.33299400 44.74688400
@H 30.72876300 32.48200600 40.03688400
@H 28.76612100 35.13353800 38.41570200
@H 28.76612100 35.07146200 43.12570200
@H 32.17112100 35.13353800 41.65429800
@H 32.17112100 35.07146200 46.36429800
@H 32.52387900 31.37646200 46.36429800
@H 32.52387900 31.43853800 41.65429800
@H 29.11887900 31.37646200 43.12570200
@H 29.11887900 31.43853800 38.41570200
@H 32.44284000 30.57316900 39.26350200
@H 32.44284000 32.24183100 43.97350200
@H 29.03784000 30.57316900 40.80649800
@H 29.03784000 32.24183100 45.51649800
@H 28.84716000 35.93683100 45.51649800
@H 28.84716000 34.26816900 40.80649800
@H 32.25216000 35.93683100 43.97350200
@H 32.25216000 34.26816900 39.26350200
@C 27.19301100 29.11142700 29.57220600
@C 27.19301100 26.31357300 34.28220600
@C 23.78801100 29.11142700 31.65779400
@C 23.78801100 26.31357300 36.36779400
@C 20.47698900 22.61857300 36.36779400
@C 20.47698900 25.41642700 31.65779400
@C 23.88198900 22.61857300 34.28220600
@C 23.88198900 25.41642700 29.57220600
@C 21.28806000 28.54239700 28.68107400
@C 21.28806000 26.88260300 33.39107400
@C 24.69306000 28.54239700 32.54892600
@C 24.69306000 26.88260300 37.25892600
@C 26.38194000 23.18760300 37.25892600
@C 26.38194000 24.84739700 32.54892600
@C 22.97694000 23.18760300 33.39107400
@C 22.97694000 24.84739700 28.68107400
@C 26.33767500 22.73903000 29.16243600
@C 26.33767500 25.29597000 33.87243600
@C 22.93267500 22.73903000 32.06756400
@C 22.93267500 25.29597000 36.77756400
@C 21.33232500 28.99097000 36.77756400
@C 21.33232500 26.43403000 32.06756400
@C 24.73732500 28.99097000 33.87243600
@C 24.73732500 26.43403000 29.16243600
C 27.19301100 29.11142700 38.99220600
@C 27.19301100 26.31357300 43.70220600
@C 23.78801100 29.11142700 41.07779400
@C 23.78801100 26.31357300 45.78779400
@C 20.47698900 22.61857300 45.78779400
@C 20.47698900 25.41642700 41.07779400
@C 23.88198900 22.61857300 43.70220600
@C 23.88198900 25.41642700 38.99220600
@C 21.28806000 28.54239700 38.10107400
@C 21.28806000 26.88260300 42.81107400
@C 24.69306000 28.54239700 41.96892600
@C 24.69306000 26.88260300 46.67892600
@C 26.38194000 23.18760300 46.67892600
@C 26.38194000 24.84739700 41.96892600
@C 22.97694000 23.18760300 42.81107400
@C 22.97694000 24.84739700 38.10107400
@C 26.33767500 22.73903000 38.58243600
@C 26.33767500 25.29597000 43.29243600
@C 22.93267500 22.73903000 41.48756400
@C 22.93267500 25.29597000 46.19756400
@C 21.33232500 28.99097000 46.19756400
@C 21.33232500 26.43403000 41.48756400
@C 24.73732500 28.99097000 43.29243600
@C 24.73732500 26.43403000 38.58243600
@C 27.19301100 36.50142700 29.57220600
@C 27.19301100 33.70357300 34.28220600
@C 23.78801100 36.50142700 31.65779400
@C 23.78801100 33.70357300 36.36779400
@C 20.47698900 30.00857300 36.36779400
@C 20.47698900 32.80642700 31.65779400
@C 23.88198900 30.00857300 34.28220600
@C 23.88198900 32.80642700 29.57220600
@C 21.28806000 35.93239700 28.68107400
@C 21.28806000 34.27260300 33.39107400
@C 24.69306000 35.93239700 32.54892600
@C 24.69306000 34.27260300 37.25892600
C 26.38194000 30.57760300 37.25892600
@C 26.38194000 32.23739700 32.54892600
@C 22.97694000 30.57760300 33.39107400
@C 22.97694000 32.23739700 28.68107400
@C 26.33767500 30.12903000 29.16243600
@C 26.33767500 32.68597000 33.87243600
@C 22.93267500 30.12903000 32.06756400
@C 22.93267500 32.68597000 36.77756400
@C 21.33232500 36.38097000 36.77756400
@C 21.33232500 33.82403000 32.06756400
@C 24.73732500 36.38097000 33.87243600
@C 24.73732500 33.82403000 29.16243600
@C 27.19301100 36.50142700 38.99220600
@C 27.19301100 33.70357300 43.70220600
@C 23.78801100 36.50142700 41.07779400
@C 23.78801100 33.70357300 45.78779400
@C 20.47698900 30.00857300 45.78779400
@C 20.47698900 32.80642700 41.07779400
@C 23.88198900 30.00857300 43.70220600
@C 23.88198900 32.80642700 38.99220600
@C 21.28806000 35.93239700 38.10107400
@C 21.28806000 34.27260300 42.81107400
@C 24.69306000 35.93239700 41.96892600
@C 24.69306000 34.27260300 46.67892600
@C 26.38194000 30.57760300 46.67892600
@C 26.38194000 32.23739700 41.96892600
@C 22.97694000 30.57760300 42.81107400
@C 22.97694000 32.23739700 38.10107400
C 26.33767500 30.12903000 38.58243600
@C 26.33767500 32.68597000 43.29243600
@C 22.93267500 30.12903000 41.48756400
@C 22.93267500 32.68597000 46.19756400
@C 21.33232500 36.38097000 46.19756400
@C 21.33232500 33.82403000 41.48756400
@C 24.73732500 36.38097000 43.29243600
@C 24.73732500 33.82403000 38.58243600
@C 34.00301100 29.11142700 29.57220600
@C 34.00301100 26.31357300 34.28220600
@C 30.59801100 29.11142700 31.65779400
@C 30.59801100 26.31357300 36.36779400
@C 27.28698900 22.61857300 36.36779400
@C 27.28698900 25.41642700 31.65779400
@C 30.69198900 22.61857300 34.28220600
@C 30.69198900 25.41642700 29.57220600
@C 28.09806000 28.54239700 28.68107400
@C 28.09806000 26.88260300 33.39107400
@C 31.50306000 28.54239700 32.54892600
@C 31.50306000 26.88260300 37.25892600
@C 33.19194000 23.18760300 37.25892600
@C 33.19194000 24.84739700 32.54892600
@C 29.78694000 23.18760300 33.39107400
@C 29.78694000 24.84739700 28.68107400
@C 33.14767500 22.73903000 29.16243600
@C 33.14767500 25.29597000 33.87243600
@C 29.74267500 22.73903000 32.06756400
@C 29.74267500 25.29597000 36.77756400
C 28.14232500 28.99097000 36.77756400
@C 28.14232500 26.43403000 32.06756400
@C 31.54732500 28.99097000 33.87243600
@C 31.54732500 26.43403000 29.16243600
@C 34.00301100 29.11142700 38.99220600
@C 34.00301100 26.31357300 43.70220600
@C 30.59801100 29.11142700 41.07779400
@C 30.59801100 26.31357300 45.78779400
@C 27.28698900 22.61857300 45.78779400
@C 27.28698900 25.41642700 41.07779400
@C 30.69198900 22.61857300 43.70220600
@C 30.69198900 25.41642700 38.99220600
C 28.09806000 28.54239700 38.10107400
@C 28.09806000 26.88260300 42.81107400
@C 31.50306000 28.54239700 41.96892600
@C 31.50306000 26.88260300 46.67892600
@C 33.19194000 23.18760300 46.67892600
@C 33.19194000 24.84739700 41.96892600
@C 29.78694000 23.18760300 42.81107400
@C 29.78694000 24.84739700 38.10107400
@C 33.14767500 22.73903000 38.58243600
@C 33.14767500 25.29597000 43.29243600
@C 29.74267500 22.73903000 41.48756400
@C 29.74267500 25.29597000 46.19756400
@C 28.14232500 28.99097000 46.19756400
@C 28.14232500 26.43403000 41.48756400
@C 31.54732500 28.99097000 43.29243600
@C 31.54732500 26.43403000 38.58243600
@C 34.00301100 36.50142700 29.57220600
@C 34.00301100 33.70357300 34.28220600
@C 30.59801100 36.50142700 31.65779400
@C 30.59801100 33.70357300 36.36779400
C 27.28698900 30.00857300 36.36779400
@C 27.28698900 32.80642700 31.65779400
@C 30.69198900 30.00857300 34.28220600
@C 30.69198900 32.80642700 29.57220600
@C 28.09806000 35.93239700 28.68107400
@C 28.09806000 34.27260300 33.39107400
@C 31.50306000 35.93239700 32.54892600
@C 31.50306000 34.27260300 37.25892600
@C 33.19194000 30.57760300 37.25892600
@C 33.19194000 32.23739700 32.54892600
@C 29.78694000 30.57760300 33.39107400
@C 29.78694000 32.23739700 28.68107400
@C 33.14767500 30.12903000 29.16243600
@C 33.14767500 32.68597000 33.87243600
@C 29.74267500 30.12903000 32.06756400
@C 29.74267500 32.68597000 36.77756400
@C 28.14232500 36.38097000 36.77756400
@C 28.14232500 33.82403000 32.06756400
@C 31.54732500 36.38097000 33.87243600
@C 31.54732500 33.82403000 29.16243600
@C 34.00301100 36.50142700 38.99220600
@C 34.00301100 33.70357300 43.70220600
@C 30.59801100 36.50142700 41.07779400
@C 30.59801100 33.70357300 45.78779400
@C 27.28698900 30.00857300 45.78779400
@C 27.28698900 32.80642700 41.07779400
@C 30.69198900 30.00857300 43.70220600
@C 30.69198900 32.80642700 38.99220600
@C 28.09806000 35.93239700 38.10107400
@C 28.09806000 34.27260300 42.81107400
@C 31.50306000 35.93239700 41.96892600
@C 31.50306000 34.27260300 46.67892600
@C 33.19194000 30.57760300 46.67892600
@C 33.19194000 32.23739700 41.96892600
@C 29.78694000 30.57760300 42.81107400
@C 29.78694000 32.23739700 38.10107400
@C 33.14767500 30.12903000 38.58243600
@C 33.14767500 32.68597000 43.29243600
@C 29.74267500 30.12903000 41.48756400
@C 29.74267500 32.68597000 46.19756400
@C 28.14232500 36.38097000 46.19756400
@C 28.14232500 33.82403000 41.48756400
@C 31.54732500 36.38097000 43.29243600
@C 31.54732500 33.82403000 38.58243600
$end

$rem
jobtype sp
method pbe
dft_d D3_BJ
thresh 14

basis cc-pvtz
AUX_BASIS_J cc-pvtz-jk
input_bohr false

max_scf_cycles 250
mem_total 100000
mem_static 50000
scf_algorithm gdm

!scf_guess            hcore
!scf_print            10
!GUI                  2
!USE_LIBQINTS         true

scf_convergence      5
xc_grid              1 !000099000590
$end
--------------------------------------------------------------
 Adding empirical dispersion correction 
 ----------------------------------------------------------------
 Doing -D3(BJ) with
 s6  =   1.00000
 s8  =   0.78750
 a1  =   0.42890
 a2  =   4.44070
 ----------------------------------------------------------------
 -D3 energy without 3body term =     -0.0109647435 hartrees
 ----------------------------------------------------------------
             Standard Nuclear Orientation (Angstroms)
    I     Atom           X                Y                Z
 ----------------------------------------------------------------
    1      GH     27.1562370000    28.7870060000    30.6168840000
    2      GH     27.1562370000    26.6379940000    35.3268840000
    3      GH     23.7512370000    28.7870060000    30.6131160000
    4      GH     23.7512370000    26.6379940000    35.3231160000
    5      GH     20.5137630000    22.9429940000    35.3231160000
    6      GH     20.5137630000    25.0920060000    30.6131160000
    7      GH     23.9187630000    22.9429940000    35.3268840000
    8      GH     23.9187630000    25.0920060000    30.6168840000
    9      GH     21.9561210000    27.7435380000    28.9957020000
   10      GH     21.9561210000    27.6814620000    33.7057020000
   11      GH     25.3611210000    27.7435380000    32.2342980000
   12      GH     25.3611210000    27.6814620000    36.9442980000
   13      GH     25.7138790000    23.9864620000    36.9442980000
   14      GH     25.7138790000    24.0485380000    32.2342980000
   15      GH     22.3088790000    23.9864620000    33.7057020000
   16      GH     22.3088790000    24.0485380000    28.9957020000
   17      GH     25.6328400000    23.1831690000    29.8435020000
   18      GH     25.6328400000    24.8518310000    34.5535020000
   19      GH     22.2278400000    23.1831690000    31.3864980000
   20      GH     22.2278400000    24.8518310000    36.0964980000
   21      GH     22.0371600000    28.5468310000    36.0964980000
   22      GH     22.0371600000    26.8781690000    31.3864980000
   23      GH     25.4421600000    28.5468310000    34.5535020000
   24      GH     25.4421600000    26.8781690000    29.8435020000
   25      H      27.1562370000    28.7870060000    40.0368840000
   26      GH     27.1562370000    26.6379940000    44.7468840000
   27      GH     23.7512370000    28.7870060000    40.0331160000
   28      GH     23.7512370000    26.6379940000    44.7431160000
   29      GH     20.5137630000    22.9429940000    44.7431160000
   30      GH     20.5137630000    25.0920060000    40.0331160000
   31      GH     23.9187630000    22.9429940000    44.7468840000
   32      GH     23.9187630000    25.0920060000    40.0368840000
   33      GH     21.9561210000    27.7435380000    38.4157020000
   34      GH     21.9561210000    27.6814620000    43.1257020000
   35      GH     25.3611210000    27.7435380000    41.6542980000
   36      GH     25.3611210000    27.6814620000    46.3642980000
   37      GH     25.7138790000    23.9864620000    46.3642980000
   38      GH     25.7138790000    24.0485380000    41.6542980000
   39      GH     22.3088790000    23.9864620000    43.1257020000
   40      GH     22.3088790000    24.0485380000    38.4157020000
   41      GH     25.6328400000    23.1831690000    39.2635020000
   42      GH     25.6328400000    24.8518310000    43.9735020000
   43      GH     22.2278400000    23.1831690000    40.8064980000
   44      GH     22.2278400000    24.8518310000    45.5164980000
   45      GH     22.0371600000    28.5468310000    45.5164980000
   46      GH     22.0371600000    26.8781690000    40.8064980000
   47      GH     25.4421600000    28.5468310000    43.9735020000
   48      GH     25.4421600000    26.8781690000    39.2635020000
   49      GH     27.1562370000    36.1770060000    30.6168840000
   50      GH     27.1562370000    34.0279940000    35.3268840000
   51      GH     23.7512370000    36.1770060000    30.6131160000
   52      GH     23.7512370000    34.0279940000    35.3231160000
   53      GH     20.5137630000    30.3329940000    35.3231160000
   54      GH     20.5137630000    32.4820060000    30.6131160000
   55      GH     23.9187630000    30.3329940000    35.3268840000
   56      GH     23.9187630000    32.4820060000    30.6168840000
   57      GH     21.9561210000    35.1335380000    28.9957020000
   58      GH     21.9561210000    35.0714620000    33.7057020000
   59      GH     25.3611210000    35.1335380000    32.2342980000
   60      GH     25.3611210000    35.0714620000    36.9442980000
   61      H      25.7138790000    31.3764620000    36.9442980000
   62      GH     25.7138790000    31.4385380000    32.2342980000
   63      GH     22.3088790000    31.3764620000    33.7057020000
   64      GH     22.3088790000    31.4385380000    28.9957020000
   65      GH     25.6328400000    30.5731690000    29.8435020000
   66      GH     25.6328400000    32.2418310000    34.5535020000
   67      GH     22.2278400000    30.5731690000    31.3864980000
   68      GH     22.2278400000    32.2418310000    36.0964980000
   69      GH     22.0371600000    35.9368310000    36.0964980000
   70      GH     22.0371600000    34.2681690000    31.3864980000
   71      GH     25.4421600000    35.9368310000    34.5535020000
   72      GH     25.4421600000    34.2681690000    29.8435020000
   73      GH     27.1562370000    36.1770060000    40.0368840000
   74      GH     27.1562370000    34.0279940000    44.7468840000
   75      GH     23.7512370000    36.1770060000    40.0331160000
   76      GH     23.7512370000    34.0279940000    44.7431160000
   77      GH     20.5137630000    30.3329940000    44.7431160000
   78      GH     20.5137630000    32.4820060000    40.0331160000
   79      GH     23.9187630000    30.3329940000    44.7468840000
   80      GH     23.9187630000    32.4820060000    40.0368840000
   81      GH     21.9561210000    35.1335380000    38.4157020000
   82      GH     21.9561210000    35.0714620000    43.1257020000
   83      GH     25.3611210000    35.1335380000    41.6542980000
   84      GH     25.3611210000    35.0714620000    46.3642980000
   85      GH     25.7138790000    31.3764620000    46.3642980000
   86      GH     25.7138790000    31.4385380000    41.6542980000
   87      GH     22.3088790000    31.3764620000    43.1257020000
   88      GH     22.3088790000    31.4385380000    38.4157020000
   89      H      25.6328400000    30.5731690000    39.2635020000
   90      GH     25.6328400000    32.2418310000    43.9735020000
   91      GH     22.2278400000    30.5731690000    40.8064980000
   92      GH     22.2278400000    32.2418310000    45.5164980000
   93      GH     22.0371600000    35.9368310000    45.5164980000
   94      GH     22.0371600000    34.2681690000    40.8064980000
   95      GH     25.4421600000    35.9368310000    43.9735020000
   96      GH     25.4421600000    34.2681690000    39.2635020000
   97      GH     33.9662370000    28.7870060000    30.6168840000
   98      GH     33.9662370000    26.6379940000    35.3268840000
   99      GH     30.5612370000    28.7870060000    30.6131160000
  100      GH     30.5612370000    26.6379940000    35.3231160000
  101      GH     27.3237630000    22.9429940000    35.3231160000
  102      GH     27.3237630000    25.0920060000    30.6131160000
  103      GH     30.7287630000    22.9429940000    35.3268840000
  104      GH     30.7287630000    25.0920060000    30.6168840000
  105      GH     28.7661210000    27.7435380000    28.9957020000
  106      GH     28.7661210000    27.6814620000    33.7057020000
  107      GH     32.1711210000    27.7435380000    32.2342980000
  108      GH     32.1711210000    27.6814620000    36.9442980000
  109      GH     32.5238790000    23.9864620000    36.9442980000
  110      GH     32.5238790000    24.0485380000    32.2342980000
  111      GH     29.1188790000    23.9864620000    33.7057020000
  112      GH     29.1188790000    24.0485380000    28.9957020000
  113      GH     32.4428400000    23.1831690000    29.8435020000
  114      GH     32.4428400000    24.8518310000    34.5535020000
  115      GH     29.0378400000    23.1831690000    31.3864980000
  116      GH     29.0378400000    24.8518310000    36.0964980000
  117      H      28.8471600000    28.5468310000    36.0964980000
  118      GH     28.8471600000    26.8781690000    31.3864980000
  119      GH     32.2521600000    28.5468310000    34.5535020000
  120      GH     32.2521600000    26.8781690000    29.8435020000
  121      GH     33.9662370000    28.7870060000    40.0368840000
  122      GH     33.9662370000    26.6379940000    44.7468840000
  123      GH     30.5612370000    28.7870060000    40.0331160000
  124      GH     30.5612370000    26.6379940000    44.7431160000
  125      GH     27.3237630000    22.9429940000    44.7431160000
  126      GH     27.3237630000    25.0920060000    40.0331160000
  127      GH     30.7287630000    22.9429940000    44.7468840000
  128      GH     30.7287630000    25.0920060000    40.0368840000
  129      H      28.7661210000    27.7435380000    38.4157020000
  130      GH     28.7661210000    27.6814620000    43.1257020000
  131      GH     32.1711210000    27.7435380000    41.6542980000
  132      GH     32.1711210000    27.6814620000    46.3642980000
  133      GH     32.5238790000    23.9864620000    46.3642980000
  134      GH     32.5238790000    24.0485380000    41.6542980000
  135      GH     29.1188790000    23.9864620000    43.1257020000
  136      GH     29.1188790000    24.0485380000    38.4157020000
  137      GH     32.4428400000    23.1831690000    39.2635020000
  138      GH     32.4428400000    24.8518310000    43.9735020000
  139      GH     29.0378400000    23.1831690000    40.8064980000
  140      GH     29.0378400000    24.8518310000    45.5164980000
  141      GH     28.8471600000    28.5468310000    45.5164980000
  142      GH     28.8471600000    26.8781690000    40.8064980000
  143      GH     32.2521600000    28.5468310000    43.9735020000
  144      GH     32.2521600000    26.8781690000    39.2635020000
  145      GH     33.9662370000    36.1770060000    30.6168840000
  146      GH     33.9662370000    34.0279940000    35.3268840000
  147      GH     30.5612370000    36.1770060000    30.6131160000
  148      GH     30.5612370000    34.0279940000    35.3231160000
  149      H      27.3237630000    30.3329940000    35.3231160000
  150      GH     27.3237630000    32.4820060000    30.6131160000
  151      GH     30.7287630000    30.3329940000    35.3268840000
  152      GH     30.7287630000    32.4820060000    30.6168840000
  153      GH     28.7661210000    35.1335380000    28.9957020000
  154      GH     28.7661210000    35.0714620000    33.7057020000
  155      GH     32.1711210000    35.1335380000    32.2342980000
  156      GH     32.1711210000    35.0714620000    36.9442980000
  157      GH     32.5238790000    31.3764620000    36.9442980000
  158      GH     32.5238790000    31.4385380000    32.2342980000
  159      GH     29.1188790000    31.3764620000    33.7057020000
  160      GH     29.1188790000    31.4385380000    28.9957020000
  161      GH     32.4428400000    30.5731690000    29.8435020000
  162      GH     32.4428400000    32.2418310000    34.5535020000
  163      GH     29.0378400000    30.5731690000    31.3864980000
  164      GH     29.0378400000    32.2418310000    36.0964980000
  165      GH     28.8471600000    35.9368310000    36.0964980000
  166      GH     28.8471600000    34.2681690000    31.3864980000
  167      GH     32.2521600000    35.9368310000    34.5535020000
  168      GH     32.2521600000    34.2681690000    29.8435020000
  169      GH     33.9662370000    36.1770060000    40.0368840000
  170      GH     33.9662370000    34.0279940000    44.7468840000
  171      GH     30.5612370000    36.1770060000    40.0331160000
  172      GH     30.5612370000    34.0279940000    44.7431160000
  173      GH     27.3237630000    30.3329940000    44.7431160000
  174      GH     27.3237630000    32.4820060000    40.0331160000
  175      GH     30.7287630000    30.3329940000    44.7468840000
  176      GH     30.7287630000    32.4820060000    40.0368840000
  177      GH     28.7661210000    35.1335380000    38.4157020000
  178      GH     28.7661210000    35.0714620000    43.1257020000
  179      GH     32.1711210000    35.1335380000    41.6542980000
  180      GH     32.1711210000    35.0714620000    46.3642980000
  181      GH     32.5238790000    31.3764620000    46.3642980000
  182      GH     32.5238790000    31.4385380000    41.6542980000
  183      GH     29.1188790000    31.3764620000    43.1257020000
  184      GH     29.1188790000    31.4385380000    38.4157020000
  185      GH     32.4428400000    30.5731690000    39.2635020000
  186      GH     32.4428400000    32.2418310000    43.9735020000
  187      GH     29.0378400000    30.5731690000    40.8064980000
  188      GH     29.0378400000    32.2418310000    45.5164980000
  189      GH     28.8471600000    35.9368310000    45.5164980000
  190      GH     28.8471600000    34.2681690000    40.8064980000
  191      GH     32.2521600000    35.9368310000    43.9735020000
  192      GH     32.2521600000    34.2681690000    39.2635020000
  193      GH     27.1930110000    29.1114270000    29.5722060000
  194      GH     27.1930110000    26.3135730000    34.2822060000
  195      GH     23.7880110000    29.1114270000    31.6577940000
  196      GH     23.7880110000    26.3135730000    36.3677940000
  197      GH     20.4769890000    22.6185730000    36.3677940000
  198      GH     20.4769890000    25.4164270000    31.6577940000
  199      GH     23.8819890000    22.6185730000    34.2822060000
  200      GH     23.8819890000    25.4164270000    29.5722060000
  201      GH     21.2880600000    28.5423970000    28.6810740000
  202      GH     21.2880600000    26.8826030000    33.3910740000
  203      GH     24.6930600000    28.5423970000    32.5489260000
  204      GH     24.6930600000    26.8826030000    37.2589260000
  205      GH     26.3819400000    23.1876030000    37.2589260000
  206      GH     26.3819400000    24.8473970000    32.5489260000
  207      GH     22.9769400000    23.1876030000    33.3910740000
  208      GH     22.9769400000    24.8473970000    28.6810740000
  209      GH     26.3376750000    22.7390300000    29.1624360000
  210      GH     26.3376750000    25.2959700000    33.8724360000
  211      GH     22.9326750000    22.7390300000    32.0675640000
  212      GH     22.9326750000    25.2959700000    36.7775640000
  213      GH     21.3323250000    28.9909700000    36.7775640000
  214      GH     21.3323250000    26.4340300000    32.0675640000
  215      GH     24.7373250000    28.9909700000    33.8724360000
  216      GH     24.7373250000    26.4340300000    29.1624360000
  217      C      27.1930110000    29.1114270000    38.9922060000
  218      GH     27.1930110000    26.3135730000    43.7022060000
  219      GH     23.7880110000    29.1114270000    41.0777940000
  220      GH     23.7880110000    26.3135730000    45.7877940000
  221      GH     20.4769890000    22.6185730000    45.7877940000
  222      GH     20.4769890000    25.4164270000    41.0777940000
  223      GH     23.8819890000    22.6185730000    43.7022060000
  224      GH     23.8819890000    25.4164270000    38.9922060000
  225      GH     21.2880600000    28.5423970000    38.1010740000
  226      GH     21.2880600000    26.8826030000    42.8110740000
  227      GH     24.6930600000    28.5423970000    41.9689260000
  228      GH     24.6930600000    26.8826030000    46.6789260000
  229      GH     26.3819400000    23.1876030000    46.6789260000
  230      GH     26.3819400000    24.8473970000    41.9689260000
  231      GH     22.9769400000    23.1876030000    42.8110740000
  232      GH     22.9769400000    24.8473970000    38.1010740000
  233      GH     26.3376750000    22.7390300000    38.5824360000
  234      GH     26.3376750000    25.2959700000    43.2924360000
  235      GH     22.9326750000    22.7390300000    41.4875640000
  236      GH     22.9326750000    25.2959700000    46.1975640000
  237      GH     21.3323250000    28.9909700000    46.1975640000
  238      GH     21.3323250000    26.4340300000    41.4875640000
  239      GH     24.7373250000    28.9909700000    43.2924360000
  240      GH     24.7373250000    26.4340300000    38.5824360000
  241      GH     27.1930110000    36.5014270000    29.5722060000
  242      GH     27.1930110000    33.7035730000    34.2822060000
  243      GH     23.7880110000    36.5014270000    31.6577940000
  244      GH     23.7880110000    33.7035730000    36.3677940000
  245      GH     20.4769890000    30.0085730000    36.3677940000
  246      GH     20.4769890000    32.8064270000    31.6577940000
  247      GH     23.8819890000    30.0085730000    34.2822060000
  248      GH     23.8819890000    32.8064270000    29.5722060000
  249      GH     21.2880600000    35.9323970000    28.6810740000
  250      GH     21.2880600000    34.2726030000    33.3910740000
  251      GH     24.6930600000    35.9323970000    32.5489260000
  252      GH     24.6930600000    34.2726030000    37.2589260000
  253      C      26.3819400000    30.5776030000    37.2589260000
  254      GH     26.3819400000    32.2373970000    32.5489260000
  255      GH     22.9769400000    30.5776030000    33.3910740000
  256      GH     22.9769400000    32.2373970000    28.6810740000
  257      GH     26.3376750000    30.1290300000    29.1624360000
  258      GH     26.3376750000    32.6859700000    33.8724360000
  259      GH     22.9326750000    30.1290300000    32.0675640000
  260      GH     22.9326750000    32.6859700000    36.7775640000
  261      GH     21.3323250000    36.3809700000    36.7775640000
  262      GH     21.3323250000    33.8240300000    32.0675640000
  263      GH     24.7373250000    36.3809700000    33.8724360000
  264      GH     24.7373250000    33.8240300000    29.1624360000
  265      GH     27.1930110000    36.5014270000    38.9922060000
  266      GH     27.1930110000    33.7035730000    43.7022060000
  267      GH     23.7880110000    36.5014270000    41.0777940000
  268      GH     23.7880110000    33.7035730000    45.7877940000
  269      GH     20.4769890000    30.0085730000    45.7877940000
  270      GH     20.4769890000    32.8064270000    41.0777940000
  271      GH     23.8819890000    30.0085730000    43.7022060000
  272      GH     23.8819890000    32.8064270000    38.9922060000
  273      GH     21.2880600000    35.9323970000    38.1010740000
  274      GH     21.2880600000    34.2726030000    42.8110740000
  275      GH     24.6930600000    35.9323970000    41.9689260000
  276      GH     24.6930600000    34.2726030000    46.6789260000
  277      GH     26.3819400000    30.5776030000    46.6789260000
  278      GH     26.3819400000    32.2373970000    41.9689260000
  279      GH     22.9769400000    30.5776030000    42.8110740000
  280      GH     22.9769400000    32.2373970000    38.1010740000
  281      C      26.3376750000    30.1290300000    38.5824360000
  282      GH     26.3376750000    32.6859700000    43.2924360000
  283      GH     22.9326750000    30.1290300000    41.4875640000
  284      GH     22.9326750000    32.6859700000    46.1975640000
  285      GH     21.3323250000    36.3809700000    46.1975640000
  286      GH     21.3323250000    33.8240300000    41.4875640000
  287      GH     24.7373250000    36.3809700000    43.2924360000
  288      GH     24.7373250000    33.8240300000    38.5824360000
  289      GH     34.0030110000    29.1114270000    29.5722060000
  290      GH     34.0030110000    26.3135730000    34.2822060000
  291      GH     30.5980110000    29.1114270000    31.6577940000
  292      GH     30.5980110000    26.3135730000    36.3677940000
  293      GH     27.2869890000    22.6185730000    36.3677940000
  294      GH     27.2869890000    25.4164270000    31.6577940000
  295      GH     30.6919890000    22.6185730000    34.2822060000
  296      GH     30.6919890000    25.4164270000    29.5722060000
  297      GH     28.0980600000    28.5423970000    28.6810740000
  298      GH     28.0980600000    26.8826030000    33.3910740000
  299      GH     31.5030600000    28.5423970000    32.5489260000
  300      GH     31.5030600000    26.8826030000    37.2589260000
  301      GH     33.1919400000    23.1876030000    37.2589260000
  302      GH     33.1919400000    24.8473970000    32.5489260000
  303      GH     29.7869400000    23.1876030000    33.3910740000
  304      GH     29.7869400000    24.8473970000    28.6810740000
  305      GH     33.1476750000    22.7390300000    29.1624360000
  306      GH     33.1476750000    25.2959700000    33.8724360000
  307      GH     29.7426750000    22.7390300000    32.0675640000
  308      GH     29.7426750000    25.2959700000    36.7775640000
  309      C      28.1423250000    28.9909700000    36.7775640000
  310      GH     28.1423250000    26.4340300000    32.0675640000
  311      GH     31.5473250000    28.9909700000    33.8724360000
  312      GH     31.5473250000    26.4340300000    29.1624360000
  313      GH     34.0030110000    29.1114270000    38.9922060000
  314      GH     34.0030110000    26.3135730000    43.7022060000
  315      GH     30.5980110000    29.1114270000    41.0777940000
  316      GH     30.5980110000    26.3135730000    45.7877940000
  317      GH     27.2869890000    22.6185730000    45.7877940000
  318      GH     27.2869890000    25.4164270000    41.0777940000
  319      GH     30.6919890000    22.6185730000    43.7022060000
  320      GH     30.6919890000    25.4164270000    38.9922060000
  321      C      28.0980600000    28.5423970000    38.1010740000
  322      GH     28.0980600000    26.8826030000    42.8110740000
  323      GH     31.5030600000    28.5423970000    41.9689260000
  324      GH     31.5030600000    26.8826030000    46.6789260000
  325      GH     33.1919400000    23.1876030000    46.6789260000
  326      GH     33.1919400000    24.8473970000    41.9689260000
  327      GH     29.7869400000    23.1876030000    42.8110740000
  328      GH     29.7869400000    24.8473970000    38.1010740000
  329      GH     33.1476750000    22.7390300000    38.5824360000
  330      GH     33.1476750000    25.2959700000    43.2924360000
  331      GH     29.7426750000    22.7390300000    41.4875640000
  332      GH     29.7426750000    25.2959700000    46.1975640000
  333      GH     28.1423250000    28.9909700000    46.1975640000
  334      GH     28.1423250000    26.4340300000    41.4875640000
  335      GH     31.5473250000    28.9909700000    43.2924360000
  336      GH     31.5473250000    26.4340300000    38.5824360000
  337      GH     34.0030110000    36.5014270000    29.5722060000
  338      GH     34.0030110000    33.7035730000    34.2822060000
  339      GH     30.5980110000    36.5014270000    31.6577940000
  340      GH     30.5980110000    33.7035730000    36.3677940000
  341      C      27.2869890000    30.0085730000    36.3677940000
  342      GH     27.2869890000    32.8064270000    31.6577940000
  343      GH     30.6919890000    30.0085730000    34.2822060000
  344      GH     30.6919890000    32.8064270000    29.5722060000
  345      GH     28.0980600000    35.9323970000    28.6810740000
  346      GH     28.0980600000    34.2726030000    33.3910740000
  347      GH     31.5030600000    35.9323970000    32.5489260000
  348      GH     31.5030600000    34.2726030000    37.2589260000
  349      GH     33.1919400000    30.5776030000    37.2589260000
  350      GH     33.1919400000    32.2373970000    32.5489260000
  351      GH     29.7869400000    30.5776030000    33.3910740000
  352      GH     29.7869400000    32.2373970000    28.6810740000
  353      GH     33.1476750000    30.1290300000    29.1624360000
  354      GH     33.1476750000    32.6859700000    33.8724360000
  355      GH     29.7426750000    30.1290300000    32.0675640000
  356      GH     29.7426750000    32.6859700000    36.7775640000
  357      GH     28.1423250000    36.3809700000    36.7775640000
  358      GH     28.1423250000    33.8240300000    32.0675640000
  359      GH     31.5473250000    36.3809700000    33.8724360000
  360      GH     31.5473250000    33.8240300000    29.1624360000
  361      GH     34.0030110000    36.5014270000    38.9922060000
  362      GH     34.0030110000    33.7035730000    43.7022060000
  363      GH     30.5980110000    36.5014270000    41.0777940000
  364      GH     30.5980110000    33.7035730000    45.7877940000
  365      GH     27.2869890000    30.0085730000    45.7877940000
  366      GH     27.2869890000    32.8064270000    41.0777940000
  367      GH     30.6919890000    30.0085730000    43.7022060000
  368      GH     30.6919890000    32.8064270000    38.9922060000
  369      GH     28.0980600000    35.9323970000    38.1010740000
  370      GH     28.0980600000    34.2726030000    42.8110740000
  371      GH     31.5030600000    35.9323970000    41.9689260000
  372      GH     31.5030600000    34.2726030000    46.6789260000
  373      GH     33.1919400000    30.5776030000    46.6789260000
  374      GH     33.1919400000    32.2373970000    41.9689260000
  375      GH     29.7869400000    30.5776030000    42.8110740000
  376      GH     29.7869400000    32.2373970000    38.1010740000
  377      GH     33.1476750000    30.1290300000    38.5824360000
  378      GH     33.1476750000    32.6859700000    43.2924360000
  379      GH     29.7426750000    30.1290300000    41.4875640000
  380      GH     29.7426750000    32.6859700000    46.1975640000
  381      GH     28.1423250000    36.3809700000    46.1975640000
  382      GH     28.1423250000    33.8240300000    41.4875640000
  383      GH     31.5473250000    36.3809700000    43.2924360000
  384      GH     31.5473250000    33.8240300000    38.5824360000
 ----------------------------------------------------------------
 Nuclear Repulsion Energy =         203.57104171 hartrees
 There are       21 alpha and       21 beta electrons
 Requested basis set is cc-pVTZ
 There are 3072 shells and 8448 basis functions

 Q-Chem warning in module libmdc/get_mega.C, line 166:

 Allowed MEM_STATIC has been capped at MEM_STATIC=8191.
 Reduce the value of MEM_STATIC to silence this warning.


 Total QAlloc Memory Limit 100000 MB
 Mega-Array Size      8007 MB
 MEM_STATIC part      8191 MB

 A cutoff of  1.0D-14 yielded1013483 shell pairs
 There are   6140291 function pairs (   7527708 Cartesian)
 Requested basis set is cc-pVTZ-JK
 There are 6720 shells and 20928 basis functions
 Smallest overlap matrix eigenvalue = 1.05E-05

 Scale SEOQF with 1.000000e-03/1.000000e-03/1.000000e-03

 Standard Electronic Orientation quadrupole field applied
 Nucleus-field energy     =    -0.0000000266 hartrees
 Guess from superposition of atomic densities
 Warning:  Energy on first SCF cycle will be non-variational
 SAD guess density has 42.000000 electrons

 -----------------------------------------------------------------------
  General SCF calculation program by
  Eric Jon Sundstrom, Paul Horn, Yuezhi Mao, Dmitri Zuev, Alec White,
  David Stuck, Shaama M.S., Shane Yost, Joonho Lee, David Small,
  Daniel Levine, Susi Lehtola, Hugh Burton, Evgeny Epifanovsky,
  Bang C. Huynh
 -----------------------------------------------------------------------
 Exchange:  PBE      Correlation:  PBE
 Using SG-1 standard quadrature grid
 Dispersion:   Grimme D3
 -------------------------------------------------------
 OpenMP BLAS3 based DFT computing Module                
 Release: version 1.0, May 2013, Q-Chem Inc. Pittsburgh 
 -------------------------------------------------------
 A restricted SCF calculation will be
 performed using Roothaan-Hall, GDM
 SCF converges when RMS gradient is below 1.0e-05
 ---------------------------------------
  Cycle       Energy         DIIS error
 ---------------------------------------
    1    -233.0268717557      9.73e-04  Roothaan Step
 ---------------------------------------
  Cycle       Energy        RMS Gradient
 ---------------------------------------
    1    -231.8383000477      7.82e-02   Descent step
    2    -232.0031456783      3.60e-02   Normal BFGS step
    3    -232.0243959836      5.47e-03   Normal BFGS step
    4    -232.0265862886      3.26e-03   Normal BFGS step
    5    -232.0268338589      3.94e-03   Normal BFGS step
    6    -232.0268231381      4.41e-03  Line search: overstep
    7    -232.0268602123      4.90e-04   Normal BFGS step
    8    -232.0268651110      1.21e-04   Normal BFGS step
    9    -232.0268653831      1.01e-05   Normal BFGS step
   10    -232.0268653831      1.86e-05   Normal BFGS step
   11    -232.0268653837      3.20e-06  Convergence criterion met
 ---------------------------------------
 SCF time:   CPU 750057.26s  wall 24705.00s 
 SCF   energy in the final basis set =     -232.0268653837
 Total energy in the final basis set =     -232.0268653837

 --------------------------------------------------------------

                    Orbital Energies (a.u.)
 --------------------------------------------------------------

 Alpha MOs
 -- Occupied --
 -9.8926  -9.8926  -9.8923  -9.8922  -9.8910  -9.8909  -0.7805  -0.6783
 -0.6769  -0.5452  -0.5441  -0.4739  -0.4108  -0.4006  -0.3762  -0.3739
 -0.3338  -0.3053  -0.2982  -0.2332  -0.2325
 -- Virtual --
 -0.0451  -0.0431  -0.0180   0.0003   0.0012   0.0129   0.0200   0.0205
  0.0248   0.0281   0.0328   0.0360   0.0362   0.0388   0.0420   0.0434
  0.0479   0.0490   0.0497   0.0513   0.0521   0.0540   0.0547   0.0602
  0.0606   0.0633   0.0650   0.0667   0.0667   0.0682   0.0683   0.0723
  0.0745   0.0763   0.0774   0.0785   0.0790   0.0801   0.0822   0.0835
  0.0859   0.0865   0.0875   0.0885   0.0892   0.0908   0.0934   0.0949
  0.0956   0.0965   0.0980   0.0987   0.0996   0.0997   0.1017   0.1021
  0.1045   0.1055   0.1079   0.1081   0.1107   0.1108   0.1119   0.1137
  0.1138   0.1145   0.1150   0.1157   0.1168   0.1183   0.1203   0.1215
  0.1227   0.1236   0.1249   0.1272   0.1274   0.1288   0.1294   0.1316
  0.1318   0.1333   0.1339   0.1347   0.1352   0.1370   0.1378   0.1392
  0.1393   0.1416   0.1425   0.1432   0.1439   0.1441   0.1455   0.1461
  0.1486   0.1495   0.1500   0.1512   0.1522   0.1533   0.1543   0.1543
  0.1554   0.1564   0.1570   0.1583   0.1594   0.1600   0.1606   0.1621
  0.1625   0.1637   0.1641   0.1654   0.1660   0.1666   0.1673   0.1676
  0.1702   0.1717   0.1724   0.1730   0.1737   0.1740   0.1764   0.1766
  0.1776   0.1781   0.1803   0.1812   0.1831   0.1834   0.1845   0.1854
  0.1856   0.1873   0.1875   0.1882   0.1893   0.1894   0.1907   0.1909
  0.1912   0.1925   0.1925   0.1929   0.1943   0.1946   0.1955   0.1959
  0.1980   0.1990   0.1998   0.2005   0.2008   0.2020   0.2032   0.2032
  0.2044   0.2050   0.2061   0.2072   0.2088   0.2101   0.2103   0.2108
  0.2120   0.2125   0.2131   0.2134   0.2139   0.2157   0.2160   0.2169
  0.2177   0.2191   0.2201   0.2207   0.2207   0.2227   0.2244   0.2244
  0.2259   0.2270   0.2272   0.2278   0.2294   0.2304   0.2309   0.2313
  0.2319   0.2330   0.2330   0.2335   0.2339   0.2346   0.2360   0.2362
  0.2372   0.2376   0.2383   0.2391   0.2393   0.2394   0.2415   0.2417
  0.2429   0.2437   0.2450   0.2464   0.2475   0.2476   0.2477   0.2481
  0.2490   0.2508   0.2517   0.2529   0.2531   0.2532   0.2545   0.2548
  0.2559   0.2565   0.2570   0.2582   0.2585   0.2590   0.2595   0.2612
  0.2625   0.2631   0.2633   0.2646   0.2646   0.2654   0.2657   0.2672
  0.2682   0.2698   0.2701   0.2704   0.2705   0.2710   0.2711   0.2717
  0.2718   0.2730   0.2745   0.2747   0.2753   0.2762   0.2770   0.2781
  0.2782   0.2794   0.2799   0.2808   0.2812   0.2813   0.2816   0.2829
  0.2840   0.2843   0.2848   0.2854   0.2861   0.2865   0.2869   0.2875
  0.2881   0.2884   0.2900   0.2902   0.2906   0.2917   0.2930   0.2942
  0.2948   0.2953   0.2954   0.2963   0.2980   0.2981   0.2990   0.2996
  0.3007   0.3008   0.3017   0.3027   0.3030   0.3037   0.3055   0.3058
  0.3067   0.3077   0.3078   0.3086   0.3087   0.3095   0.3100   0.3118
  0.3125   0.3126   0.3133   0.3137   0.3150   0.3153   0.3153   0.3164
  0.3171   0.3179   0.3187   0.3200   0.3203   0.3207   0.3210   0.3216
  0.3225   0.3238   0.3245   0.3247   0.3253   0.3263   0.3271   0.3285
  0.3293   0.3297   0.3301   0.3305   0.3318   0.3319   0.3336   0.3336
  0.3348   0.3353   0.3353   0.3365   0.3366   0.3375   0.3379   0.3385
  0.3389   0.3400   0.3408   0.3409   0.3419   0.3419   0.3422   0.3439
  0.3446   0.3451   0.3454   0.3462   0.3474   0.3480   0.3487   0.3489
  0.3503   0.3512   0.3521   0.3522   0.3533   0.3534   0.3544   0.3549
  0.3551   0.3556   0.3557   0.3574   0.3577   0.3592   0.3596   0.3597
  0.3607   0.3610   0.3616   0.3626   0.3632   0.3638   0.3645   0.3647
  0.3647   0.3664   0.3669   0.3678   0.3685   0.3696   0.3696   0.3709
  0.3718   0.3721   0.3724   0.3734   0.3754   0.3767   0.3769   0.3779
  0.3790   0.3791   0.3793   0.3799   0.3804   0.3804   0.3806   0.3814
  0.3825   0.3839   0.3844   0.3857   0.3857   0.3860   0.3872   0.3875
  0.3881   0.3885   0.3899   0.3905   0.3906   0.3916   0.3919   0.3927
  0.3933   0.3935   0.3939   0.3943   0.3951   0.3962   0.3963   0.3965
  0.3969   0.3975   0.3988   0.3994   0.3997   0.4010   0.4015   0.4027
  0.4030   0.4031   0.4046   0.4057   0.4063   0.4065   0.4081   0.4084
  0.4085   0.4098   0.4102   0.4110   0.4111   0.4115   0.4127   0.4131
  0.4141   0.4143   0.4148   0.4152   0.4158   0.4167   0.4174   0.4187
  0.4196   0.4203   0.4210   0.4211   0.4231   0.4237   0.4237   0.4241
  0.4242   0.4257   0.4266   0.4267   0.4275   0.4277   0.4284   0.4289
  0.4299   0.4303   0.4310   0.4313   0.4323   0.4332   0.4335   0.4336
  0.4347   0.4349   0.4361   0.4374   0.4384   0.4385   0.4386   0.4392
  0.4400   0.4415   0.4419   0.4426   0.4431   0.4440   0.4444   0.4449
  0.4461   0.4461   0.4470   0.4479   0.4487   0.4488   0.4495   0.4495
  0.4501   0.4514   0.4518   0.4518   0.4522   0.4530   0.4538   0.4556
  0.4559   0.4564   0.4568   0.4579   0.4584   0.4598   0.4604   0.4605
  0.4614   0.4615   0.4625   0.4629   0.4638   0.4648   0.4654   0.4664
  0.4667   0.4668   0.4687   0.4694   0.4697   0.4703   0.4705   0.4706
  0.4731   0.4732   0.4740   0.4741   0.4746   0.4759   0.4768   0.4769
  0.4779   0.4780   0.4800   0.4801   0.4813   0.4818   0.4820   0.4822
  0.4829   0.4838   0.4847   0.4851   0.4862   0.4869   0.4875   0.4878
  0.4880   0.4891   0.4892   0.4904   0.4917   0.4921   0.4930   0.4937
  0.4943   0.4958   0.4968   0.4973   0.4973   0.4986   0.4992   0.5001
  0.5010   0.5013   0.5022   0.5027   0.5030   0.5035   0.5041   0.5042
  0.5052   0.5063   0.5070   0.5070   0.5078   0.5086   0.5099   0.5105
  0.5105   0.5113   0.5120   0.5124   0.5133   0.5146   0.5147   0.5153
  0.5167   0.5172   0.5174   0.5188   0.5192   0.5200   0.5201   0.5212
  0.5215   0.5221   0.5231   0.5233   0.5246   0.5250   0.5251   0.5269
  0.5271   0.5275   0.5290   0.5295   0.5302   0.5302   0.5317   0.5318
  0.5320   0.5346   0.5350   0.5354   0.5354   0.5363   0.5369   0.5381
  0.5388   0.5392   0.5401   0.5406   0.5418   0.5432   0.5440   0.5442
  0.5451   0.5453   0.5460   0.5468   0.5482   0.5490   0.5495   0.5496
  0.5504   0.5510   0.5518   0.5527   0.5538   0.5540   0.5540   0.5557
  0.5573   0.5574   0.5585   0.5594   0.5597   0.5599   0.5614   0.5616
  0.5619   0.5630   0.5649   0.5652   0.5655   0.5656   0.5670   0.5672
  0.5674   0.5680   0.5693   0.5699   0.5701   0.5709   0.5720   0.5742
  0.5745   0.5753   0.5759   0.5765   0.5767   0.5774   0.5782   0.5789
  0.5795   0.5806   0.5813   0.5819   0.5820   0.5833   0.5837   0.5839
  0.5842   0.5854   0.5862   0.5865   0.5874   0.5880   0.5886   0.5888
  0.5901   0.5909   0.5910   0.5924   0.5934   0.5940   0.5954   0.5955
  0.5960   0.5963   0.5970   0.5976   0.5978   0.5992   0.6004   0.6007
  0.6016   0.6017   0.6029   0.6033   0.6036   0.6045   0.6047   0.6056
  0.6057   0.6070   0.6086   0.6087   0.6101   0.6111   0.6113   0.6123
  0.6139   0.6140   0.6143   0.6152   0.6156   0.6169   0.6169   0.6180
  0.6183   0.6186   0.6189   0.6199   0.6202   0.6208   0.6224   0.6241
  0.6242   0.6250   0.6262   0.6269   0.6272   0.6279   0.6297   0.6298
  0.6301   0.6301   0.6313   0.6313   0.6321   0.6329   0.6338   0.6346
  0.6350   0.6359   0.6361   0.6362   0.6380   0.6391   0.6404   0.6412
  0.6416   0.6437   0.6437   0.6441   0.6450   0.6456   0.6474   0.6478
  0.6484   0.6495   0.6497   0.6501   0.6503   0.6521   0.6527   0.6541
  0.6546   0.6562   0.6566   0.6577   0.6578   0.6585   0.6587   0.6598
  0.6609   0.6620   0.6629   0.6633   0.6638   0.6644   0.6662   0.6668
  0.6674   0.6675   0.6677   0.6686   0.6700   0.6703   0.6710   0.6720
  0.6724   0.6735   0.6736   0.6746   0.6757   0.6770   0.6776   0.6776
  0.6776   0.6790   0.6804   0.6809   0.6817   0.6832   0.6836   0.6850
  0.6860   0.6865   0.6883   0.6885   0.6893   0.6903   0.6913   0.6914
  0.6921   0.6928   0.6933   0.6942   0.6949   0.6953   0.6962   0.6968
  0.6987   0.6991   0.6994   0.7004   0.7026   0.7030   0.7041   0.7050
  0.7069   0.7069   0.7079   0.7086   0.7100   0.7112   0.7112   0.7122
  0.7134   0.7151   0.7160   0.7173   0.7187   0.7198   0.7199   0.7201
  0.7214   0.7235   0.7253   0.7270   0.7281   0.7286   0.7301   0.7306
  0.7310   0.7354   0.7354   0.7361   0.7401   0.7403   0.7424   0.7436
  0.7446   0.7469   0.7479   0.7490   0.7517   0.7520   0.7530   0.7540
  0.7551   0.7570   0.7592   0.7595   0.7623   0.7636   0.7639   0.7662
  0.7675   0.7676   0.7714   0.7735   0.7740   0.7745   0.7755   0.7766
  0.7775   0.7799   0.7810   0.7812   0.7823   0.7839   0.7864   0.7872
  0.7896   0.7914   0.7914   0.7926   0.7930   0.7933   0.7951   0.7954
  0.7978   0.7987   0.8001   0.8011   0.8022   0.8032   0.8033   0.8053
  0.8063   0.8074   0.8085   0.8101   0.8113   0.8115   0.8132   0.8137
  0.8138   0.8158   0.8171   0.8182   0.8193   0.8204   0.8209   0.8214
  0.8241   0.8242   0.8255   0.8262   0.8275   0.8291   0.8293   0.8309
  0.8331   0.8351   0.8367   0.8377   0.8379   0.8398   0.8406   0.8423
  0.8465   0.8466   0.8473   0.8500   0.8505   0.8508   0.8521   0.8550
  0.8550   0.8559   0.8565   0.8573   0.8579   0.8593   0.8598   0.8603
  0.8623   0.8635   0.8639   0.8656   0.8666   0.8668   0.8672   0.8682
  0.8693   0.8706   0.8712   0.8721   0.8725   0.8750   0.8757   0.8762
  0.8769   0.8789   0.8790   0.8800   0.8812   0.8822   0.8822   0.8832
  0.8837   0.8849   0.8851   0.8868   0.8872   0.8878   0.8890   0.8891
  0.8904   0.8908   0.8918   0.8936   0.8939   0.8955   0.8957   0.8969
  0.8979   0.8981   0.8998   0.9006   0.9016   0.9019   0.9036   0.9041
  0.9049   0.9060   0.9065   0.9071   0.9074   0.9080   0.9085   0.9099
  0.9104   0.9106   0.9110   0.9134   0.9145   0.9145   0.9153   0.9164
  0.9167   0.9177   0.9189   0.9196   0.9207   0.9219   0.9222   0.9226
  0.9237   0.9240   0.9248   0.9251   0.9257   0.9260   0.9272   0.9276
  0.9288   0.9291   0.9293   0.9296   0.9309   0.9329   0.9337   0.9338
  0.9339   0.9348   0.9361   0.9366   0.9369   0.9380   0.9395   0.9395
  0.9403   0.9409   0.9418   0.9422   0.9429   0.9434   0.9436   0.9453
  0.9459   0.9463   0.9468   0.9473   0.9480   0.9482   0.9493   0.9494
  0.9500   0.9508   0.9525   0.9531   0.9534   0.9541   0.9547   0.9547
  0.9561   0.9562   0.9568   0.9587   0.9588   0.9590   0.9605   0.9606
  0.9612   0.9616   0.9633   0.9641   0.9644   0.9646   0.9655   0.9658
  0.9670   0.9681   0.9684   0.9687   0.9693   0.9712   0.9713   0.9714
  0.9724   0.9725   0.9730   0.9733   0.9737   0.9763   0.9764   0.9773
  0.9782   0.9789   0.9790   0.9800   0.9806   0.9809   0.9811   0.9823
  0.9825   0.9830   0.9837   0.9843   0.9852   0.9853   0.9861   0.9863
  0.9882   0.9884   0.9888   0.9895   0.9895   0.9903   0.9907   0.9914
  0.9920   0.9930   0.9931   0.9939   0.9951   0.9952   0.9955   0.9958
  0.9970   0.9979   0.9991   0.9993   1.0001   1.0008   1.0012   1.0019
  1.0020   1.0030   1.0030   1.0034   1.0046   1.0056   1.0064   1.0066
  1.0071   1.0073   1.0084   1.0085   1.0092   1.0094   1.0098   1.0110
  1.0112   1.0118   1.0127   1.0137   1.0142   1.0143   1.0155   1.0157
  1.0164   1.0166   1.0167   1.0174   1.0175   1.0188   1.0195   1.0201
  1.0207   1.0208   1.0212   1.0215   1.0229   1.0229   1.0233   1.0238
  1.0245   1.0246   1.0255   1.0265   1.0273   1.0282   1.0284   1.0291
  1.0294   1.0305   1.0309   1.0319   1.0326   1.0330   1.0333   1.0338
  1.0348   1.0348   1.0349   1.0353   1.0356   1.0364   1.0368   1.0372
  1.0382   1.0388   1.0394   1.0396   1.0399   1.0403   1.0406   1.0414
  1.0423   1.0424   1.0428   1.0429   1.0439   1.0444   1.0448   1.0456
  1.0471   1.0477   1.0479   1.0484   1.0488   1.0492   1.0501   1.0503
  1.0510   1.0515   1.0522   1.0523   1.0528   1.0531   1.0535   1.0543
  1.0546   1.0551   1.0551   1.0560   1.0563   1.0572   1.0573   1.0581
  1.0589   1.0590   1.0595   1.0597   1.0606   1.0610   1.0614   1.0618
  1.0621   1.0626   1.0628   1.0635   1.0644   1.0647   1.0651   1.0665
  1.0667   1.0669   1.0670   1.0671   1.0674   1.0684   1.0687   1.0696
  1.0697   1.0707   1.0709   1.0716   1.0719   1.0726   1.0728   1.0736
  1.0741   1.0744   1.0750   1.0752   1.0760   1.0763   1.0772   1.0772
  1.0773   1.0775   1.0786   1.0789   1.0794   1.0798   1.0802   1.0806
  1.0812   1.0814   1.0816   1.0824   1.0830   1.0833   1.0837   1.0841
  1.0848   1.0854   1.0857   1.0860   1.0865   1.0871   1.0871   1.0880
  1.0883   1.0885   1.0889   1.0894   1.0898   1.0909   1.0909   1.0912
  1.0923   1.0929   1.0929   1.0933   1.0940   1.0943   1.0948   1.0955
  1.0964   1.0966   1.0970   1.0980   1.0983   1.0989   1.0990   1.0992
  1.0999   1.1001   1.1009   1.1009   1.1020   1.1024   1.1028   1.1037
  1.1042   1.1052   1.1052   1.1054   1.1056   1.1060   1.1061   1.1072
  1.1075   1.1080   1.1091   1.1093   1.1097   1.1100   1.1105   1.1107
  1.1113   1.1121   1.1123   1.1124   1.1128   1.1129   1.1141   1.1143
  1.1144   1.1154   1.1159   1.1166   1.1167   1.1172   1.1178   1.1179
  1.1192   1.1195   1.1198   1.1202   1.1205   1.1206   1.1221   1.1225
  1.1231   1.1231   1.1235   1.1241   1.1244   1.1251   1.1251   1.1260
  1.1261   1.1266   1.1270   1.1276   1.1286   1.1287   1.1291   1.1295
  1.1297   1.1301   1.1319   1.1320   1.1327   1.1330   1.1338   1.1342
  1.1344   1.1354   1.1360   1.1364   1.1370   1.1375   1.1378   1.1380
  1.1384   1.1392   1.1393   1.1397   1.1403   1.1408   1.1409   1.1414
  1.1423   1.1426   1.1426   1.1433   1.1435   1.1444   1.1450   1.1455
  1.1458   1.1466   1.1468   1.1472   1.1477   1.1483   1.1491   1.1499
  1.1501   1.1503   1.1508   1.1515   1.1515   1.1523   1.1527   1.1531
  1.1537   1.1545   1.1546   1.1553   1.1554   1.1556   1.1557   1.1575
  1.1576   1.1580   1.1587   1.1591   1.1596   1.1603   1.1605   1.1608
  1.1612   1.1617   1.1619   1.1622   1.1627   1.1628   1.1644   1.1649
  1.1653   1.1654   1.1662   1.1663   1.1667   1.1675   1.1687   1.1688
  1.1689   1.1694   1.1703   1.1706   1.1714   1.1719   1.1721   1.1730
  1.1730   1.1743   1.1749   1.1753   1.1753   1.1765   1.1770   1.1776
  1.1779   1.1780   1.1784   1.1787   1.1789   1.1796   1.1797   1.1801
  1.1806   1.1811   1.1811   1.1828   1.1835   1.1839   1.1841   1.1843
  1.1845   1.1852   1.1857   1.1864   1.1865   1.1868   1.1871   1.1878
  1.1878   1.1884   1.1889   1.1890   1.1894   1.1911   1.1912   1.1919
  1.1930   1.1930   1.1931   1.1941   1.1941   1.1953   1.1957   1.1960
  1.1961   1.1970   1.1973   1.1983   1.1986   1.1998   1.2000   1.2003
  1.2009   1.2021   1.2022   1.2028   1.2032   1.2034   1.2035   1.2040
  1.2042   1.2046   1.2055   1.2059   1.2060   1.2063   1.2074   1.2081
  1.2083   1.2090   1.2096   1.2098   1.2100   1.2106   1.2110   1.2122
  1.2123   1.2129   1.2132   1.2135   1.2149   1.2149   1.2154   1.2160
  1.2164   1.2166   1.2172   1.2175   1.2178   1.2189   1.2195   1.2196
  1.2201   1.2208   1.2212   1.2217   1.2220   1.2233   1.2233   1.2239
  1.2242   1.2245   1.2249   1.2252   1.2260   1.2262   1.2268   1.2270
  1.2281   1.2283   1.2285   1.2288   1.2291   1.2302   1.2303   1.2311
  1.2311   1.2319   1.2321   1.2325   1.2335   1.2341   1.2346   1.2350
  1.2354   1.2355   1.2367   1.2372   1.2375   1.2379   1.2382   1.2392
  1.2394   1.2399   1.2403   1.2403   1.2417   1.2418   1.2421   1.2424
  1.2425   1.2435   1.2439   1.2445   1.2450   1.2458   1.2463   1.2469
  1.2469   1.2476   1.2478   1.2478   1.2489   1.2492   1.2496   1.2499
  1.2505   1.2508   1.2516   1.2522   1.2534   1.2538   1.2540   1.2541
  1.2546   1.2549   1.2552   1.2556   1.2565   1.2566   1.2572   1.2572
  1.2583   1.2584   1.2587   1.2597   1.2602   1.2607   1.2619   1.2627
  1.2630   1.2635   1.2635   1.2639   1.2642   1.2650   1.2653   1.2661
  1.2665   1.2672   1.2686   1.2690   1.2694   1.2697   1.2706   1.2714
  1.2719   1.2725   1.2731   1.2737   1.2741   1.2743   1.2746   1.2754
  1.2755   1.2766   1.2767   1.2774   1.2776   1.2779   1.2783   1.2794
  1.2796   1.2797   1.2812   1.2814   1.2822   1.2832   1.2835   1.2840
  1.2844   1.2850   1.2857   1.2859   1.2861   1.2874   1.2874   1.2883
  1.2889   1.2894   1.2899   1.2901   1.2907   1.2910   1.2919   1.2923
  1.2930   1.2936   1.2938   1.2940   1.2941   1.2949   1.2955   1.2958
  1.2972   1.2972   1.2976   1.2979   1.2986   1.2986   1.2990   1.2997
  1.3007   1.3014   1.3018   1.3021   1.3022   1.3026   1.3028   1.3035
  1.3041   1.3048   1.3050   1.3065   1.3069   1.3072   1.3076   1.3082
  1.3087   1.3088   1.3093   1.3104   1.3105   1.3112   1.3114   1.3118
  1.3129   1.3136   1.3143   1.3148   1.3150   1.3161   1.3163   1.3172
  1.3177   1.3177   1.3184   1.3187   1.3187   1.3191   1.3196   1.3207
  1.3209   1.3215   1.3222   1.3229   1.3230   1.3233   1.3238   1.3246
  1.3257   1.3258   1.3268   1.3269   1.3269   1.3272   1.3277   1.3284
  1.3296   1.3303   1.3309   1.3314   1.3316   1.3320   1.3326   1.3331
  1.3335   1.3336   1.3347   1.3350   1.3363   1.3364   1.3369   1.3373
  1.3383   1.3389   1.3392   1.3393   1.3398   1.3405   1.3416   1.3428
  1.3432   1.3434   1.3439   1.3440   1.3447   1.3459   1.3461   1.3462
  1.3476   1.3478   1.3484   1.3486   1.3494   1.3506   1.3506   1.3510
  1.3514   1.3516   1.3518   1.3524   1.3525   1.3533   1.3535   1.3544
  1.3547   1.3552   1.3555   1.3559   1.3564   1.3574   1.3575   1.3580
  1.3580   1.3586   1.3592   1.3603   1.3613   1.3616   1.3617   1.3621
  1.3629   1.3629   1.3643   1.3653   1.3655   1.3657   1.3662   1.3664
  1.3669   1.3674   1.3680   1.3691   1.3700   1.3702   1.3705   1.3709
  1.3710   1.3714   1.3716   1.3727   1.3730   1.3734   1.3739   1.3740
  1.3748   1.3754   1.3755   1.3759   1.3762   1.3766   1.3769   1.3776
  1.3792   1.3802   1.3806   1.3810   1.3811   1.3812   1.3824   1.3826
  1.3827   1.3839   1.3840   1.3844   1.3853   1.3859   1.3867   1.3867
  1.3873   1.3878   1.3881   1.3891   1.3892   1.3897   1.3904   1.3911
  1.3915   1.3919   1.3921   1.3925   1.3926   1.3940   1.3941   1.3947
  1.3956   1.3959   1.3965   1.3970   1.3979   1.3981   1.3989   1.3994
  1.4001   1.4004   1.4016   1.4019   1.4026   1.4031   1.4036   1.4048
  1.4049   1.4051   1.4060   1.4063   1.4065   1.4071   1.4080   1.4083
  1.4095   1.4100   1.4107   1.4118   1.4120   1.4125   1.4127   1.4133
  1.4141   1.4141   1.4151   1.4154   1.4156   1.4167   1.4170   1.4170
  1.4176   1.4176   1.4185   1.4193   1.4196   1.4201   1.4207   1.4216
  1.4221   1.4224   1.4228   1.4230   1.4238   1.4255   1.4259   1.4272
  1.4274   1.4279   1.4281   1.4289   1.4290   1.4298   1.4301   1.4302
  1.4315   1.4321   1.4325   1.4333   1.4337   1.4342   1.4344   1.4351
  1.4356   1.4365   1.4366   1.4377   1.4384   1.4388   1.4390   1.4405
  1.4408   1.4418   1.4419   1.4422   1.4424   1.4429   1.4440   1.4441
  1.4446   1.4452   1.4458   1.4468   1.4472   1.4475   1.4477   1.4488
  1.4490   1.4496   1.4500   1.4501   1.4507   1.4516   1.4525   1.4534
  1.4537   1.4544   1.4547   1.4557   1.4560   1.4564   1.4565   1.4577
  1.4590   1.4590   1.4596   1.4597   1.4599   1.4605   1.4614   1.4616
  1.4624   1.4631   1.4631   1.4640   1.4645   1.4654   1.4661   1.4662
  1.4665   1.4677   1.4678   1.4682   1.4697   1.4701   1.4711   1.4716
  1.4720   1.4720   1.4727   1.4729   1.4735   1.4740   1.4748   1.4759
  1.4760   1.4762   1.4766   1.4768   1.4781   1.4784   1.4791   1.4798
  1.4798   1.4802   1.4808   1.4816   1.4826   1.4832   1.4834   1.4839
  1.4840   1.4853   1.4854   1.4865   1.4866   1.4869   1.4880   1.4883
  1.4884   1.4887   1.4896   1.4901   1.4904   1.4916   1.4918   1.4922
  1.4923   1.4930   1.4937   1.4937   1.4945   1.4947   1.4951   1.4956
  1.4963   1.4966   1.4972   1.4972   1.4986   1.4992   1.4995   1.4997
  1.5014   1.5016   1.5020   1.5029   1.5034   1.5035   1.5041   1.5047
  1.5057   1.5058   1.5059   1.5064   1.5067   1.5075   1.5078   1.5089
  1.5096   1.5098   1.5111   1.5112   1.5118   1.5120   1.5134   1.5135
  1.5145   1.5155   1.5161   1.5168   1.5171   1.5175   1.5183   1.5184
  1.5192   1.5195   1.5207   1.5212   1.5218   1.5224   1.5233   1.5234
  1.5241   1.5243   1.5249   1.5256   1.5262   1.5277   1.5284   1.5286
  1.5295   1.5302   1.5304   1.5310   1.5312   1.5319   1.5322   1.5332
  1.5335   1.5340   1.5346   1.5351   1.5358   1.5362   1.5364   1.5371
  1.5383   1.5385   1.5390   1.5396   1.5403   1.5411   1.5415   1.5423
  1.5431   1.5431   1.5433   1.5438   1.5441   1.5447   1.5459   1.5463
  1.5467   1.5477   1.5478   1.5483   1.5490   1.5507   1.5508   1.5509
  1.5517   1.5520   1.5531   1.5532   1.5538   1.5538   1.5557   1.5557
  1.5560   1.5562   1.5574   1.5584   1.5596   1.5599   1.5605   1.5608
  1.5611   1.5617   1.5619   1.5627   1.5635   1.5638   1.5650   1.5653
  1.5658   1.5664   1.5672   1.5677   1.5686   1.5690   1.5698   1.5700
  1.5703   1.5710   1.5716   1.5729   1.5733   1.5734   1.5737   1.5747
  1.5756   1.5763   1.5772   1.5778   1.5783   1.5784   1.5785   1.5791
  1.5800   1.5806   1.5810   1.5812   1.5821   1.5823   1.5827   1.5843
  1.5844   1.5847   1.5851   1.5867   1.5869   1.5873   1.5874   1.5889
  1.5891   1.5897   1.5903   1.5906   1.5913   1.5919   1.5928   1.5934
  1.5938   1.5947   1.5947   1.5952   1.5954   1.5966   1.5968   1.5987
  1.5988   1.5996   1.5997   1.6001   1.6007   1.6030   1.6035   1.6037
  1.6043   1.6049   1.6049   1.6053   1.6059   1.6063   1.6063   1.6081
  1.6088   1.6091   1.6095   1.6099   1.6106   1.6107   1.6120   1.6128
  1.6132   1.6138   1.6139   1.6146   1.6154   1.6159   1.6159   1.6182
  1.6189   1.6196   1.6198   1.6201   1.6204   1.6217   1.6222   1.6224
  1.6227   1.6231   1.6236   1.6242   1.6246   1.6246   1.6251   1.6270
  1.6273   1.6283   1.6287   1.6292   1.6301   1.6304   1.6305   1.6317
  1.6327   1.6331   1.6337   1.6341   1.6349   1.6356   1.6359   1.6372
  1.6377   1.6384   1.6388   1.6391   1.6408   1.6409   1.6418   1.6424
  1.6431   1.6433   1.6439   1.6453   1.6460   1.6460   1.6467   1.6472
  1.6474   1.6481   1.6484   1.6493   1.6494   1.6500   1.6509   1.6521
  1.6525   1.6528   1.6536   1.6539   1.6545   1.6557   1.6563   1.6565
  1.6571   1.6575   1.6580   1.6583   1.6590   1.6593   1.6594   1.6602
  1.6607   1.6612   1.6615   1.6631   1.6642   1.6643   1.6644   1.6653
  1.6660   1.6674   1.6677   1.6681   1.6686   1.6690   1.6697   1.6699
  1.6705   1.6707   1.6710   1.6722   1.6730   1.6739   1.6741   1.6754
  1.6756   1.6758   1.6765   1.6769   1.6771   1.6782   1.6788   1.6795
  1.6798   1.6811   1.6821   1.6826   1.6833   1.6836   1.6839   1.6842
  1.6858   1.6861   1.6868   1.6873   1.6874   1.6880   1.6883   1.6887
  1.6895   1.6903   1.6911   1.6918   1.6934   1.6935   1.6938   1.6941
  1.6953   1.6954   1.6965   1.6980   1.6982   1.6990   1.6995   1.7010
  1.7011   1.7019   1.7023   1.7034   1.7035   1.7047   1.7052   1.7056
  1.7057   1.7069   1.7075   1.7085   1.7092   1.7100   1.7110   1.7115
  1.7117   1.7124   1.7128   1.7137   1.7143   1.7145   1.7148   1.7155
  1.7160   1.7167   1.7171   1.7177   1.7185   1.7190   1.7191   1.7200
  1.7202   1.7207   1.7215   1.7223   1.7225   1.7233   1.7236   1.7251
  1.7260   1.7264   1.7273   1.7277   1.7280   1.7285   1.7292   1.7305
  1.7313   1.7321   1.7325   1.7337   1.7342   1.7347   1.7349   1.7356
  1.7360   1.7371   1.7376   1.7377   1.7386   1.7392   1.7398   1.7408
  1.7410   1.7421   1.7422   1.7430   1.7437   1.7443   1.7454   1.7455
  1.7469   1.7472   1.7479   1.7488   1.7493   1.7499   1.7499   1.7505
  1.7507   1.7522   1.7523   1.7531   1.7538   1.7539   1.7547   1.7564
  1.7568   1.7572   1.7572   1.7585   1.7593   1.7612   1.7613   1.7619
  1.7628   1.7634   1.7645   1.7647   1.7653   1.7654   1.7659   1.7676
  1.7679   1.7679   1.7691   1.7707   1.7717   1.7727   1.7732   1.7739
  1.7741   1.7744   1.7752   1.7759   1.7764   1.7771   1.7782   1.7787
  1.7790   1.7805   1.7814   1.7827   1.7830   1.7831   1.7834   1.7844
  1.7856   1.7872   1.7872   1.7884   1.7888   1.7889   1.7892   1.7902
  1.7912   1.7926   1.7937   1.7942   1.7943   1.7948   1.7961   1.7969
  1.7973   1.7980   1.7994   1.7995   1.7998   1.8011   1.8028   1.8045
  1.8045   1.8049   1.8057   1.8064   1.8072   1.8078   1.8099   1.8099
  1.8102   1.8109   1.8117   1.8122   1.8126   1.8136   1.8139   1.8152
  1.8177   1.8182   1.8199   1.8200   1.8209   1.8211   1.8224   1.8228
  1.8247   1.8252   1.8254   1.8268   1.8271   1.8275   1.8286   1.8287
  1.8304   1.8308   1.8315   1.8329   1.8330   1.8341   1.8349   1.8358
  1.8365   1.8369   1.8379   1.8388   1.8399   1.8407   1.8408   1.8418
  1.8431   1.8436   1.8439   1.8453   1.8458   1.8459   1.8464   1.8482
  1.8487   1.8495   1.8510   1.8519   1.8527   1.8528   1.8539   1.8542
  1.8548   1.8560   1.8565   1.8569   1.8582   1.8584   1.8595   1.8599
  1.8609   1.8611   1.8621   1.8630   1.8639   1.8650   1.8656   1.8668
  1.8674   1.8681   1.8692   1.8695   1.8696   1.8699   1.8714   1.8714
  1.8721   1.8731   1.8749   1.8753   1.8756   1.8771   1.8774   1.8785
  1.8795   1.8800   1.8802   1.8809   1.8820   1.8822   1.8833   1.8855
  1.8861   1.8862   1.8871   1.8876   1.8886   1.8893   1.8900   1.8909
  1.8919   1.8924   1.8930   1.8939   1.8940   1.8947   1.8955   1.8959
  1.8963   1.8971   1.8986   1.8993   1.8997   1.9005   1.9013   1.9027
  1.9028   1.9043   1.9047   1.9050   1.9063   1.9065   1.9079   1.9091
  1.9095   1.9102   1.9113   1.9116   1.9121   1.9139   1.9144   1.9155
  1.9157   1.9168   1.9183   1.9185   1.9194   1.9196   1.9223   1.9226
  1.9229   1.9233   1.9240   1.9247   1.9260   1.9277   1.9287   1.9301
  1.9314   1.9319   1.9323   1.9328   1.9351   1.9356   1.9365   1.9366
  1.9367   1.9372   1.9393   1.9398   1.9407   1.9420   1.9423   1.9431
  1.9464   1.9476   1.9483   1.9488   1.9491   1.9503   1.9514   1.9524
  1.9532   1.9545   1.9556   1.9565   1.9572   1.9574   1.9594   1.9604
  1.9615   1.9620   1.9623   1.9642   1.9651   1.9653   1.9666   1.9666
  1.9690   1.9697   1.9716   1.9723   1.9735   1.9746   1.9746   1.9768
  1.9770   1.9786   1.9791   1.9800   1.9823   1.9837   1.9851   1.9856
  1.9866   1.9878   1.9880   1.9897   1.9920   1.9922   1.9936   1.9945
  1.9952   1.9957   1.9959   1.9965   1.9972   1.9974   1.9992   1.9998
  2.0010   2.0028   2.0051   2.0055   2.0058   2.0068   2.0068   2.0098
  2.0099   2.0111   2.0120   2.0129   2.0141   2.0148   2.0152   2.0167
  2.0180   2.0190   2.0197   2.0218   2.0233   2.0235   2.0251   2.0258
  2.0284   2.0286   2.0310   2.0318   2.0330   2.0349   2.0373   2.0387
  2.0391   2.0411   2.0428   2.0452   2.0456   2.0476   2.0500   2.0500
  2.0519   2.0527   2.0529   2.0560   2.0580   2.0590   2.0631   2.0633
  2.0644   2.0669   2.0685   2.0687   2.0711   2.0724   2.0765   2.0765
  2.0773   2.0784   2.0801   2.0815   2.0857   2.0863   2.0876   2.0889
  2.0912   2.0913   2.0925   2.0947   2.0947   2.0964   2.0965   2.0978
  2.0985   2.1012   2.1012   2.1016   2.1024   2.1059   2.1060   2.1067
  2.1091   2.1096   2.1126   2.1131   2.1141   2.1177   2.1205   2.1208
  2.1212   2.1223   2.1243   2.1272   2.1279   2.1283   2.1291   2.1319
  2.1336   2.1345   2.1373   2.1406   2.1428   2.1429   2.1431   2.1467
  2.1493   2.1521   2.1526   2.1538   2.1554   2.1573   2.1597   2.1624
  2.1643   2.1700   2.1707   2.1712   2.1722   2.1730   2.1739   2.1760
  2.1772   2.1788   2.1796   2.1810   2.1820   2.1842   2.1852   2.1859
  2.1878   2.1896   2.1910   2.1966   2.1969   2.1985   2.1987   2.2017
  2.2027   2.2032   2.2042   2.2067   2.2075   2.2094   2.2100   2.2133
  2.2146   2.2149   2.2202   2.2211   2.2245   2.2275   2.2310   2.2317
  2.2336   2.2353   2.2404   2.2438   2.2514   2.2532   2.2558   2.2595
  2.2669   2.2678   2.2687   2.2726   2.2729   2.2770   2.2786   2.2799
  2.2806   2.2821   2.2830   2.2832   2.2865   2.2866   2.2883   2.2884
  2.2892   2.2919   2.2929   2.2940   2.2961   2.2992   2.3005   2.3006
  2.3050   2.3056   2.3075   2.3080   2.3083   2.3095   2.3107   2.3128
  2.3137   2.3153   2.3164   2.3168   2.3178   2.3205   2.3211   2.3216
  2.3219   2.3234   2.3257   2.3270   2.3273   2.3274   2.3283   2.3291
  2.3296   2.3304   2.3315   2.3338   2.3343   2.3346   2.3366   2.3368
  2.3379   2.3388   2.3391   2.3397   2.3412   2.3422   2.3425   2.3436
  2.3442   2.3450   2.3488   2.3493   2.3494   2.3500   2.3507   2.3525
  2.3548   2.3551   2.3560   2.3560   2.3568   2.3569   2.3594   2.3606
  2.3608   2.3608   2.3635   2.3643   2.3647   2.3669   2.3672   2.3685
  2.3697   2.3704   2.3718   2.3726   2.3734   2.3737   2.3745   2.3764
  2.3765   2.3776   2.3782   2.3783   2.3799   2.3800   2.3821   2.3824
  2.3832   2.3833   2.3871   2.3872   2.3887   2.3893   2.3905   2.3924
  2.3933   2.3943   2.3969   2.3989   2.3989   2.4002   2.4005   2.4028
  2.4028   2.4045   2.4054   2.4057   2.4073   2.4077   2.4093   2.4094
  2.4111   2.4132   2.4134   2.4150   2.4167   2.4169   2.4183   2.4189
  2.4190   2.4217   2.4228   2.4231   2.4239   2.4245   2.4259   2.4269
  2.4294   2.4314   2.4328   2.4328   2.4349   2.4357   2.4369   2.4391
[...]
  8.9405   8.9406   8.9502   8.9517   8.9584   8.9629   8.9650   8.9670
  8.9679   8.9745   8.9798   8.9858   8.9872   9.0011   9.0098   9.0325
  9.0450   9.2732   9.2734   9.2794   9.2794   9.2922   9.2922   9.3323
  9.3330   9.3395   9.3398   9.3506   9.3511   9.3549   9.3550   9.3690
  9.3692   9.3727   9.3738   9.3775   9.3779   9.3807   9.3817   9.3851
  9.3860   9.3938   9.3961   9.3985   9.3995   9.3997   9.4007   9.4055
  9.4093   9.4129   9.4162   9.4246   9.4249   9.6104   9.6104   9.6152
  9.6153   9.6260   9.6268   9.6281   9.6288   9.6386   9.6388   9.6395
  9.6403   9.6422   9.6427   9.6470   9.6484   9.6533   9.6534   9.6623
  9.6633   9.6798   9.6800   9.6873   9.6874   9.6929   9.6930   9.6996
  9.6997   9.7217   9.7217   9.7434   9.7543   9.7574   9.7651   9.7667
  9.7720   9.7776   9.7818   9.7843   9.7850   9.7876   9.7904   9.7960
  9.7982   9.8084   9.8121   9.8162   9.8166   9.8214   9.8226   9.8235
  9.8254   9.8271   9.8330   9.8367   9.8426   9.8564   9.8566   9.8589
  9.8598   9.8678   9.8737   9.8758   9.8794   9.8843   9.8854   9.9287
  9.9529   9.9554   9.9729   9.9738   9.9799   9.9848   9.9849   9.9935
  9.9963  10.0009  10.0022  10.0087  10.0090  10.0175  10.0183  10.0249
 10.0290  10.0346  10.0347  10.0404  10.0450  10.0577  10.0709  10.4624
 10.6036  10.6041  10.6160  10.6211  10.6212  10.6252  10.6266  10.6277
 10.6293  10.6324  10.6344  10.6396  12.7932  12.8245  13.3819  13.6354
 15.9194  34.1433  34.1434  34.3244  34.3245  34.3474  34.3480  34.5269
 34.5271  34.7015  34.7017  34.7622  34.7646  34.9317  34.9339  34.9780
 34.9784  35.1500  35.1581  35.5531  35.5564  35.6164  35.6207  35.7544
 35.7552  35.7776  35.7943  35.8096  35.8185  35.9329  35.9405  35.9840
 35.9919  36.0068  36.0355  36.0602  36.0693  36.1036  36.1236  36.2037
 36.2069  36.3760  36.3857  36.4584  36.4588  36.5456  36.5476  36.8810
 36.9561  37.1601  37.1810  37.1858  37.2189  37.2606  37.3567  37.4641
 37.5710  37.6280  37.7149  38.0127  38.1105  40.5234  40.5280  40.5594
 40.5692  40.5785  40.5826  40.6073  40.6095  40.6269  40.6286  40.7327
 40.7392  40.7972  40.8135  40.8418  40.8641  40.9176  40.9182  40.9246
 40.9269  40.9316  40.9453  40.9738  40.9972  41.0305  41.0349  41.0705
 41.0741  41.1772  41.1816  42.0782  42.0806  42.0865  42.0886  42.1664
 42.1677  43.2328  43.2670  43.2853  43.3181  43.3269  43.3338  43.3489
 43.3729  43.3998  43.4105  43.4440  43.4448  43.4748  43.5407  43.5448
 43.5567  43.6284  43.6807  43.6883  43.6983  43.7029  43.7422  43.7468
 43.7759  44.2689  44.2723  44.2983  44.3001  44.3514  44.3517  44.3805
 44.3816  44.4063  44.4103  44.4521  44.4522  44.4718  44.4738  44.4908
 44.4927  44.5415  44.5452  44.5796  44.5869  44.6487  44.6488  44.6923
 44.6942  44.7430  44.7456  44.7749  44.7777  44.8690  44.8909  44.9310
 44.9425  44.9685  44.9896  44.9998  45.0163  45.0280  45.0480  45.0836
 45.1137  45.1511  45.1647  45.3409  45.3513  45.4314  45.4545  45.4824
 45.4855  45.5314  45.5577  45.5837  45.6104  45.7200  45.7644  50.2485
 50.2530  50.2787  50.2790  50.2943  50.3129  50.3201  50.3493  50.4160
 50.4658  50.4906  50.5513
 --------------------------------------------------------------

          Ground-State Mulliken Net Atomic Charges

     Atom                 Charge (a.u.)
  ----------------------------------------
      1 GH                   -0.000019
      2 GH                   -0.005450
      3 GH                    0.000002
      4 GH                   -0.000092
      5 GH                    0.000000
      6 GH                   -0.000000
      7 GH                    0.000001
      8 GH                    0.000000
      9 GH                   -0.000000
     10 GH                    0.000005
     11 GH                   -0.000042
     12 GH                    0.006082
     13 GH                   -0.000071
     14 GH                    0.000001
     15 GH                    0.000000
     16 GH                    0.000000
     17 GH                    0.000000
     18 GH                    0.000044
     19 GH                   -0.000000
     20 GH                   -0.000002
     21 GH                   -0.000074
     22 GH                   -0.000000
     23 GH                   -0.005019
     24 GH                   -0.000000
     25 H                     0.112818
     26 GH                    0.000003
     27 GH                   -0.003248
     28 GH                   -0.000000
     29 GH                    0.000000
     30 GH                   -0.000000
     31 GH                    0.000000
     32 GH                    0.000082
     33 GH                    0.000007
     34 GH                   -0.000003
     35 GH                    0.000497
     36 GH                    0.000000
     37 GH                    0.000000
     38 GH                    0.000008
     39 GH                    0.000000
     40 GH                   -0.000002
     41 GH                   -0.000006
     42 GH                   -0.000002
     43 GH                    0.000000
     44 GH                    0.000000
     45 GH                    0.000000
     46 GH                    0.000024
     47 GH                   -0.000016
     48 GH                   -0.008908
     49 GH                    0.000000
     50 GH                   -0.001378
     51 GH                    0.000000
     52 GH                   -0.000035
     53 GH                    0.000000
     54 GH                   -0.000000
     55 GH                   -0.004173
     56 GH                   -0.000000
     57 GH                    0.000000
     58 GH                   -0.000000
     59 GH                   -0.000000
     60 GH                    0.000025
     61 H                     0.124152
     62 GH                   -0.000040
     63 GH                    0.000013
     64 GH                    0.000000
     65 GH                   -0.000000
     66 GH                   -0.001514
     67 GH                    0.000000
     68 GH                   -0.000019
     69 GH                    0.000001
     70 GH                    0.000000
     71 GH                    0.000000
     72 GH                   -0.000000
     73 GH                   -0.000001
     74 GH                    0.000000
     75 GH                   -0.000002
     76 GH                    0.000000
     77 GH                   -0.000000
     78 GH                   -0.000001
     79 GH                   -0.000001
     80 GH                   -0.000672
     81 GH                   -0.000003
     82 GH                    0.000000
     83 GH                   -0.000003
     84 GH                   -0.000000
     85 GH                   -0.000000
     86 GH                   -0.000626
     87 GH                    0.000002
     88 GH                   -0.000004
     89 H                     0.126182
     90 GH                    0.000003
     91 GH                   -0.000005
     92 GH                   -0.000000
     93 GH                   -0.000000
     94 GH                   -0.000002
     95 GH                    0.000000
     96 GH                   -0.000011
     97 GH                   -0.000000
     98 GH                   -0.000001
     99 GH                   -0.000001
    100 GH                   -0.000672
    101 GH                   -0.000001
    102 GH                    0.000000
    103 GH                   -0.000002
    104 GH                    0.000000
    105 GH                   -0.000000
    106 GH                   -0.000626
    107 GH                    0.000002
    108 GH                   -0.000004
    109 GH                   -0.000003
    110 GH                    0.000000
    111 GH                   -0.000003
    112 GH                   -0.000000
    113 GH                   -0.000000
    114 GH                   -0.000002
    115 GH                    0.000000
    116 GH                   -0.000011
    117 H                     0.126182
    118 GH                    0.000003
    119 GH                   -0.000005
    120 GH                   -0.000000
    121 GH                    0.000000
    122 GH                   -0.000000
    123 GH                   -0.004173
    124 GH                   -0.000000
    125 GH                    0.000000
    126 GH                   -0.001378
    127 GH                    0.000000
    128 GH                   -0.000035
    129 H                     0.124152
    130 GH                   -0.000040
    131 GH                    0.000013
    132 GH                    0.000000
    133 GH                    0.000000
    134 GH                   -0.000000
    135 GH                   -0.000000
    136 GH                    0.000025
    137 GH                    0.000001
    138 GH                    0.000000
    139 GH                    0.000000
    140 GH                   -0.000000
    141 GH                   -0.000000
    142 GH                   -0.001514
    143 GH                    0.000000
    144 GH                   -0.000019
    145 GH                    0.000000
    146 GH                   -0.000000
    147 GH                    0.000000
    148 GH                    0.000082
    149 H                     0.112818
    150 GH                    0.000003
    151 GH                   -0.003248
    152 GH                   -0.000000
    153 GH                    0.000000
    154 GH                    0.000008
    155 GH                    0.000000
    156 GH                   -0.000002
    157 GH                    0.000007
    158 GH                   -0.000003
    159 GH                    0.000497
    160 GH                    0.000000
    161 GH                    0.000000
    162 GH                    0.000024
    163 GH                   -0.000016
    164 GH                   -0.008908
    165 GH                   -0.000006
    166 GH                   -0.000002
    167 GH                    0.000000
    168 GH                    0.000000
    169 GH                    0.000000
    170 GH                   -0.000000
    171 GH                    0.000001
    172 GH                    0.000000
    173 GH                   -0.000019
    174 GH                   -0.005450
    175 GH                    0.000002
    176 GH                   -0.000092
    177 GH                   -0.000071
    178 GH                    0.000001
    179 GH                    0.000000
    180 GH                    0.000000
    181 GH                   -0.000000
    182 GH                    0.000005
    183 GH                   -0.000042
    184 GH                    0.006082
    185 GH                   -0.000074
    186 GH                   -0.000000
    187 GH                   -0.005019
    188 GH                   -0.000000
    189 GH                    0.000000
    190 GH                    0.000044
    191 GH                   -0.000000
    192 GH                   -0.000002
    193 GH                    0.000005
    194 GH                    0.002969
    195 GH                    0.000054
    196 GH                    0.000592
    197 GH                    0.000000
    198 GH                    0.000000
    199 GH                   -0.000001
    200 GH                    0.000000
    201 GH                    0.000000
    202 GH                   -0.000001
    203 GH                   -0.000368
    204 GH                   -0.001202
    205 GH                   -0.000019
    206 GH                    0.000035
    207 GH                    0.000000
    208 GH                    0.000000
    209 GH                   -0.000000
    210 GH                   -0.000153
    211 GH                    0.000000
    212 GH                   -0.000014
    213 GH                   -0.000044
    214 GH                    0.000000
    215 GH                    0.001722
    216 GH                    0.000000
    217 C                    -0.151994
    218 GH                    0.000118
    219 GH                    0.001564
    220 GH                    0.000000
    221 GH                    0.000000
    222 GH                   -0.000001
    223 GH                   -0.000000
    224 GH                    0.000358
    225 GH                    0.000033
    226 GH                    0.000001
    227 GH                   -0.000604
    228 GH                   -0.000000
    229 GH                    0.000000
    230 GH                    0.000159
    231 GH                   -0.000000
    232 GH                   -0.000079
    233 GH                    0.000039
    234 GH                   -0.000062
    235 GH                   -0.000000
    236 GH                    0.000000
    237 GH                   -0.000000
    238 GH                   -0.000008
    239 GH                   -0.000014
    240 GH                    0.000976
    241 GH                    0.000000
    242 GH                    0.001220
    243 GH                   -0.000000
    244 GH                    0.000121
    245 GH                   -0.000011
    246 GH                   -0.000000
    247 GH                    0.000984
    248 GH                    0.000000
    249 GH                    0.000000
    250 GH                    0.000000
    251 GH                   -0.000000
    252 GH                    0.000038
    253 C                    -0.074573
    254 GH                   -0.001234
    255 GH                   -0.000055
    256 GH                   -0.000000
    257 GH                    0.000000
    258 GH                    0.000709
    259 GH                   -0.000021
    260 GH                    0.000390
    261 GH                   -0.000000
    262 GH                   -0.000000
    263 GH                    0.000000
    264 GH                   -0.000000
    265 GH                    0.000016
    266 GH                   -0.000021
    267 GH                    0.000001
    268 GH                   -0.000000
    269 GH                    0.000000
    270 GH                    0.000000
    271 GH                   -0.000052
    272 GH                   -0.001293
    273 GH                    0.000001
    274 GH                   -0.000000
    275 GH                    0.000000
    276 GH                   -0.000000
    277 GH                    0.000000
    278 GH                   -0.001210
    279 GH                    0.000066
    280 GH                   -0.000567
    281 C                    -0.116671
    282 GH                   -0.000073
    283 GH                   -0.000723
    284 GH                    0.000000
    285 GH                    0.000000
    286 GH                    0.000000
    287 GH                   -0.000000
    288 GH                    0.000387
    289 GH                    0.000000
    290 GH                    0.000000
    291 GH                   -0.000052
    292 GH                   -0.001293
    293 GH                    0.000016
    294 GH                   -0.000021
    295 GH                    0.000001
    296 GH                   -0.000000
    297 GH                    0.000000
    298 GH                   -0.001210
    299 GH                    0.000066
    300 GH                   -0.000567
    301 GH                    0.000001
    302 GH                   -0.000000
    303 GH                    0.000000
    304 GH                   -0.000000
    305 GH                    0.000000
    306 GH                    0.000000
    307 GH                   -0.000000
    308 GH                    0.000387
    309 C                    -0.116671
    310 GH                   -0.000073
    311 GH                   -0.000723
    312 GH                    0.000000
    313 GH                   -0.000011
    314 GH                   -0.000000
    315 GH                    0.000984
    316 GH                    0.000000
    317 GH                    0.000000
    318 GH                    0.001220
    319 GH                   -0.000000
    320 GH                    0.000121
    321 C                    -0.074573
    322 GH                   -0.001234
    323 GH                   -0.000055
    324 GH                   -0.000000
    325 GH                    0.000000
    326 GH                    0.000000
    327 GH                   -0.000000
    328 GH                    0.000038
    329 GH                   -0.000000
    330 GH                   -0.000000
    331 GH                    0.000000
    332 GH                   -0.000000
    333 GH                    0.000000
    334 GH                    0.000709
    335 GH                   -0.000021
    336 GH                    0.000390
    337 GH                    0.000000
    338 GH                   -0.000001
    339 GH                   -0.000000
    340 GH                    0.000358
    341 C                    -0.151994
    342 GH                    0.000118
    343 GH                    0.001564
    344 GH                    0.000000
    345 GH                    0.000000
    346 GH                    0.000159
    347 GH                   -0.000000
    348 GH                   -0.000079
    349 GH                    0.000033
    350 GH                    0.000001
    351 GH                   -0.000604
    352 GH                   -0.000000
    353 GH                   -0.000000
    354 GH                   -0.000008
    355 GH                   -0.000014
    356 GH                    0.000976
    357 GH                    0.000039
    358 GH                   -0.000062
    359 GH                   -0.000000
    360 GH                    0.000000
    361 GH                    0.000000
    362 GH                    0.000000
    363 GH                   -0.000001
    364 GH                    0.000000
    365 GH                    0.000005
    366 GH                    0.002969
    367 GH                    0.000054
    368 GH                    0.000592
    369 GH                   -0.000019
    370 GH                    0.000035
    371 GH                    0.000000
    372 GH                    0.000000
    373 GH                    0.000000
    374 GH                   -0.000001
    375 GH                   -0.000368
    376 GH                   -0.001202
    377 GH                   -0.000044
    378 GH                    0.000000
    379 GH                    0.001722
    380 GH                    0.000000
    381 GH                   -0.000000
    382 GH                   -0.000153
    383 GH                    0.000000
    384 GH                   -0.000014
  ----------------------------------------
  Sum of atomic charges =     0.000000

 -----------------------------------------------------------------
                    Cartesian Multipole Moments
 -----------------------------------------------------------------
    Charge (ESU x 10^10)
                -0.0000
    Dipole Moment (Debye)
         X      -0.0000      Y      -0.0000      Z       0.0000
       Tot       0.0000
    Quadrupole Moments (Debye-Ang)
        XX     -35.6791     XY      -3.5525     YY     -35.7462
        XZ      -1.3536     YZ      -1.1148     ZZ     -32.9041
    Octopole Moments (Debye-Ang^2)
       XXX   -2915.6975    XXY   -1248.2147    XYY   -1183.7511
       YYY   -3169.9762    XXZ   -1418.1320    XYZ    -204.2364
       YYZ   -1412.8239    XZZ    -998.3127    YZZ   -1056.6544
       ZZZ   -3719.4771
    Hexadecapole Moments (Debye-Ang^3)
      XXXX -159032.7937   XXXY  -94043.2203   XXYY  -69195.4817
      XYYY  -95609.8710   YYYY -187595.4025   XXXZ -112856.9776
      XXYZ  -50029.6613   XYYZ  -47571.9053   YYYZ -122346.9634
      XXZZ  -80705.3371   XYZZ  -36827.0962   YYZZ  -84546.6175
      XZZZ -107068.2975   YZZZ -114679.9502   ZZZZ -280567.0660
 -----------------------------------------------------------------
 Total job time:  24920.71s(wall), 750974.16s(cpu) 
 Fri Aug 15 00:46:07 2025

        *************************************************************
        *                                                           *
        *  Thank you very much for using Q-Chem.  Have a nice day.  *
        *                                                           *
        *************************************************************


