This is a multi-thread run using 32 threads
/n/home02/hieudinh/qchem_root/qchem-adapt/exe/qcprog.exe .benzene_qchem_ccpvqz_pbe_d3bj.in.4194214.qcin.1 /n/netscratch/joonholee_lab/Lab/hieudinh/qchem4194214/

                  Welcome to Q-Chem
     A Quantum Leap Into The Future Of Chemistry


 Q-Chem 6.1 (devel), Q-Chem, Inc., Pleasanton, CA (2022)

 E. Epifanovsky,  A. T. B. Gilbert,  Xintian Feng,  Joonho Lee,  Yuezhi Mao,  
 N. Mardirossian,  P. Pokhilko,  A. White,  M. Wormit,  M. P. Coons,  
 A. L. Dempwolff,  Zhengting Gan,  D. Hait,  P. R. Horn,  L. D. Jacobson,  
 I. Kaliman,  J. Kussmann,  A. W. Lange,  Ka Un Lao,  D. S. Levine,  Jie Liu,  
 S. C. McKenzie,  A. F. Morrison,  K. D. Nanda,  F. Plasser,  D. R. Rehn,  
 M. L. Vidal,  Zhi-Qiang You,  Ying Zhu,  B. Alam,  B. Albrecht,  
 A. Aldossary,  E. Alguire,  J. H. Andersen,  V. Athavale,  D. Barton,  
 K. Begam,  A. Behn,  N. Bellonzi,  Y. A. Bernard,  E. J. Berquist,  
 H. Burton,  A. Carreras,  K. Carter-Fenk,  Mathew Chow,  Romit Chakraborty,  
 Chandrima Chakravarty,  Junhan Chen,  A. D. Chien,  K. D. Closser,  
 V. Cofer-Shabica,  L. Cunha,  S. Dasgupta,  Jia Deng,  M. de Wergifosse,  
 M. Diedenhofen,  Hainam Do,  S. Ehlert,  Po-Tung Fang,  S. Fatehi,  
 Qingguo Feng,  T. Friedhoff,  Thomas Froitzheim,  B. Ganoe,  J. Gayvert,  
 Qinghui Ge,  G. Gidofalvi,  M. Gimferrer,  M. Goldey,  Montgomery Gray,  
 J. Gomes,  C. Gonzalez-Espinoza,  S. Gulania,  A. Gunina,  J. A. Gyamfi,  
 M. W. D. Hanson-Heine,  P. H. P. Harbach,  A. W. Hauser,  M. F. Herbst,  
 M. Hernandez Vera,  M. Hodecker,  Z. C. Holden,  S. Houck,  Xunkun Huang,  
 Kerwin Hui,  B. C. Huynh,  K. Ikeda,  M. Ivanov,  Hyunjun Ji,  Zuxin Jin,  
 Hanjie Jiang,  Subrata Jana,  B. Kaduk,  S. Kaehler,  R. Kang,  
 K. Khistyaev,  Jaehoon Kim,  Yongbin Kim,  P. Klunzinger,  Z. Koczor-Benda,  
 Joong Hoon Koh,  D. Kosenkov,  Saikiran Kotaru,  L. Koulias,  T. Kowalczyk,  
 C. M. Krauter,  K. Kue,  A. Kunitsa,  T. Kus,  A. Landau,  K. V. Lawler,  
 D. Lefrancois,  S. Lehtola,  Rain Li,  Shaozhi Li,  Yi-Pei Li,  
 Jiashu Liang,  M. Liebenthal,  Hung-Hsuan Lin,  You-Sheng Lin,  Fenglai Liu,  
 Kuan-Yu Liu,  Xiao Liu,  M. Loipersberger,  A. Luenser,  C. Malbon,  
 A. Manjanath,  P. Manohar,  E. Mansoor,  S. F. Manzer,  Shan-Ping Mao,  
 A. V. Marenich,  T. Markovich,  S. Mason,  F. Matz,  S. A. Maurer,  
 P. F. McLaughlin,  M. F. S. J. Menger,  J.-M. Mewes,  S. A. Mewes,  
 P. Morgante,  Mohammad Mostafanejad,  J. W. Mullinax,  K. J. Oosterbaan,  
 G. Paran,  V. Parravicini,  Alexander C. Paul,  Suranjan K. Paul,  
 F. Pavosevic,  Zheng Pei,  S. Prager,  E. I. Proynov,  E. Ramos,  B. Rana,  
 A. E. Rask,  A. Rettig,  R. M. Richard,  F. Rob,  E. Rossomme,  T. Scheele,  
 M. Scheurer,  M. Schneider,  P. E. Schneider,  Tim K. Schramm,  N. Sergueev,  
 S. M. Sharada,  M. Sharma,  Hengyuan Shen,  W. Skomorowski,  D. W. Small,  
 C. J. Stein,  Alistair J. Sterling,  Yingli Su,  Yu-Chuan Su,  
 E. J. Sundstrom,  J. Talbot,  Zhen Tao,  J. Thirman,  Hung-Yi Tsai,  
 T. Tsuchimochi,  N. M. Tubman,  C. Utku,  S. P. Veccham,  O. Vydrov,  
 J. Wenzel,  Jonathan Wong,  J. Witte,  A. Yamada,  Chou-Hsun Yang,  Kun Yao,  
 S. Yeganeh,  S. R. Yost,  A. Zech,  F. Zeller,  Igor Ying Zhang,  
 Xing Zhang,  Yu Zhang,  D. Zuev,  A. Aspuru-Guzik,  A. T. Bell,  
 N. A. Besley,  K. B. Bravaya,  B. R. Brooks,  D. Casanova,  Jeng-Da Chai,  
 Hsing-Ta Chen,  S. Coriani,  C. J. Cramer,  A. E. DePrince, III,  
 R. A. DiStasio Jr.,  A. Dreuw,  B. D. Dunietz,  T. R. Furlani,  
 W. A. Goddard III,  S. Grimme,  S. Hammes-Schiffer,  T. Head-Gordon,  
 W. J. Hehre,  Chao-Ping Hsu,  T.-C. Jagau,  Yousung Jung,  A. Klamt,  
 Jing Kong,  D. S. Lambrecht,  Xiangyuan Li,  WanZhen Liang,  N. J. Mayhall,  
 C. W. McCurdy,  J. B. Neaton,  T. Neudecker,  C. Ochsenfeld,  
 J. A. Parkhill,  R. Peverati,  V. A. Rassolov,  Haisheng Ren,  Yihan Shao,  
 L. V. Slipchenko,  R. P. Steele,  J. E. Subotnik,  A. J. W. Thom,  
 A. Tkatchenko,  D. G. Truhlar,  T. Van Voorhis,  Fan Wang,  
 T. A. Wesolowski,  K. B. Whaley,  H. L. Woodcock III,  P. M. Zimmerman,  
 S. Faraji,  P. M. W. Gill,  M. Head-Gordon,  J. M. Herbert,  A. I. Krylov

 Contributors to earlier versions of Q-Chem not listed above: 
 R. D. Adamson,  B. Austin,  R. Baer,  J. Baker,  G. J. O. Beran,  
 K. Brandhorst,  S. T. Brown,  E. F. C. Byrd,  Arup K. Chakraborty,  
 G. K. L. Chan,  Chun-Min Chang,  Yunqing Chen,  C.-L. Cheng,  
 Siu Hung Chien,  D. M. Chipman,  D. L. Crittenden,  H. Dachsel,  
 R. J. Doerksen,  A. D. Dutoi,  R. G. Edgar,  J. Fosso-Tande,  
 L. Fusti-Molnar,  D. Ghosh,  A. Ghysels,  A. Golubeva-Zadorozhnaya,  
 J. Gonthier,  M. S. Gordon,  S. R. Gwaltney,  G. Hawkins,  J. E. Herr,  
 A. Heyden,  S. Hirata,  E. G. Hohenstein,  G. Kedziora,  F. J. Keil,  
 C. Kelley,  Jihan Kim,  R. A. King,  R. Z. Khaliullin,  P. P. Korambath,  
 W. Kurlancheek,  A. Laurent,  A. M. Lee,  M. S. Lee,  S. V. Levchenko,  
 Ching Yeh Lin,  D. Liotard,  E. Livshits,  R. C. Lochan,  I. Lotan,  
 L. A. Martinez-Martinez,  P. E. Maslen,  N. Nair,  D. P. O'Neill,  
 D. Neuhauser,  E. Neuscamman,  C. M. Oana,  R. Olivares-Amaya,  R. Olson,  
 T. M. Perrine,  B. Peters,  P. A. Pieniazek,  A. Prociuk,  Y. M. Rhee,  
 J. Ritchie,  M. A. Rohrdanz,  E. Rosta,  N. J. Russ,  H. F. Schaefer III,  
 M. W. Schmidt,  N. E. Schultz,  S. Sharma,  N. Shenvi,  C. D. Sherrill,  
 A. C. Simmonett,  A. Sodt,  T. Stein,  D. Stuck,  K. S. Thanthiriwatte,  
 V. Vanovschi,  L. Vogt,  Tao Wang,  A. Warshel,  M. A. Watson,  
 C. F. Williams,  Q. Wu,  X. Xu,  Jun Yang,  W. Zhang,  Yan Zhao

   Please cite Q-Chem as follows:
  "Software for the frontiers of quantum chemistry:
   An overview of developments in the Q-Chem 5 package"
   J. Chem. Phys. 155, 084801 (2021)
   https://doi.org/10.1063/5.0055522 (open access)

 Q-Chem 6.1.1 for Intel X86 EM64T Linux

 Parts of Q-Chem use Armadillo 9.900.5 (Nocturnal Misbehaviour).
 http://arma.sourceforge.net/

 Q-Chem begins on Thu Aug 14 17:49:18 2025  

 Host: holy7c06505.rc.fas.harvard.edu
0

     Scratch files written to /n/netscratch/joonholee_lab/Lab/hieudinh/qchem4194214//
 Processing $rem in /n/home02/hieudinh/qchem_root/qchem-adapt/config/preferences:
 Processing $rem in /n/home02/hieudinh/.qchemrc:

 Checking the input file for inconsistencies... 	...done.

--------------------------------------------------------------
User input:
--------------------------------------------------------------
$molecule
0 1
@H 27.15623700 28.78700600 30.61688400
@H 27.15623700 26.63799400 35.32688400
@H 23.75123700 28.78700600 30.61311600
@H 23.75123700 26.63799400 35.32311600
@H 20.51376300 22.94299400 35.32311600
@H 20.51376300 25.09200600 30.61311600
@H 23.91876300 22.94299400 35.32688400
@H 23.91876300 25.09200600 30.61688400
@H 21.95612100 27.74353800 28.99570200
@H 21.95612100 27.68146200 33.70570200
@H 25.36112100 27.74353800 32.23429800
@H 25.36112100 27.68146200 36.94429800
@H 25.71387900 23.98646200 36.94429800
@H 25.71387900 24.04853800 32.23429800
@H 22.30887900 23.98646200 33.70570200
@H 22.30887900 24.04853800 28.99570200
@H 25.63284000 23.18316900 29.84350200
@H 25.63284000 24.85183100 34.55350200
@H 22.22784000 23.18316900 31.38649800
@H 22.22784000 24.85183100 36.09649800
@H 22.03716000 28.54683100 36.09649800
@H 22.03716000 26.87816900 31.38649800
@H 25.44216000 28.54683100 34.55350200
@H 25.44216000 26.87816900 29.84350200
H 27.15623700 28.78700600 40.03688400
@H 27.15623700 26.63799400 44.74688400
@H 23.75123700 28.78700600 40.03311600
@H 23.75123700 26.63799400 44.74311600
@H 20.51376300 22.94299400 44.74311600
@H 20.51376300 25.09200600 40.03311600
@H 23.91876300 22.94299400 44.74688400
@H 23.91876300 25.09200600 40.03688400
@H 21.95612100 27.74353800 38.41570200
@H 21.95612100 27.68146200 43.12570200
@H 25.36112100 27.74353800 41.65429800
@H 25.36112100 27.68146200 46.36429800
@H 25.71387900 23.98646200 46.36429800
@H 25.71387900 24.04853800 41.65429800
@H 22.30887900 23.98646200 43.12570200
@H 22.30887900 24.04853800 38.41570200
@H 25.63284000 23.18316900 39.26350200
@H 25.63284000 24.85183100 43.97350200
@H 22.22784000 23.18316900 40.80649800
@H 22.22784000 24.85183100 45.51649800
@H 22.03716000 28.54683100 45.51649800
@H 22.03716000 26.87816900 40.80649800
@H 25.44216000 28.54683100 43.97350200
@H 25.44216000 26.87816900 39.26350200
@H 27.15623700 36.17700600 30.61688400
@H 27.15623700 34.02799400 35.32688400
@H 23.75123700 36.17700600 30.61311600
@H 23.75123700 34.02799400 35.32311600
@H 20.51376300 30.33299400 35.32311600
@H 20.51376300 32.48200600 30.61311600
@H 23.91876300 30.33299400 35.32688400
@H 23.91876300 32.48200600 30.61688400
@H 21.95612100 35.13353800 28.99570200
@H 21.95612100 35.07146200 33.70570200
@H 25.36112100 35.13353800 32.23429800
@H 25.36112100 35.07146200 36.94429800
H 25.71387900 31.37646200 36.94429800
@H 25.71387900 31.43853800 32.23429800
@H 22.30887900 31.37646200 33.70570200
@H 22.30887900 31.43853800 28.99570200
@H 25.63284000 30.57316900 29.84350200
@H 25.63284000 32.24183100 34.55350200
@H 22.22784000 30.57316900 31.38649800
@H 22.22784000 32.24183100 36.09649800
@H 22.03716000 35.93683100 36.09649800
@H 22.03716000 34.26816900 31.38649800
@H 25.44216000 35.93683100 34.55350200
@H 25.44216000 34.26816900 29.84350200
@H 27.15623700 36.17700600 40.03688400
@H 27.15623700 34.02799400 44.74688400
@H 23.75123700 36.17700600 40.03311600
@H 23.75123700 34.02799400 44.74311600
@H 20.51376300 30.33299400 44.74311600
@H 20.51376300 32.48200600 40.03311600
@H 23.91876300 30.33299400 44.74688400
@H 23.91876300 32.48200600 40.03688400
@H 21.95612100 35.13353800 38.41570200
@H 21.95612100 35.07146200 43.12570200
@H 25.36112100 35.13353800 41.65429800
@H 25.36112100 35.07146200 46.36429800
@H 25.71387900 31.37646200 46.36429800
@H 25.71387900 31.43853800 41.65429800
@H 22.30887900 31.37646200 43.12570200
@H 22.30887900 31.43853800 38.41570200
H 25.63284000 30.57316900 39.26350200
@H 25.63284000 32.24183100 43.97350200
@H 22.22784000 30.57316900 40.80649800
@H 22.22784000 32.24183100 45.51649800
@H 22.03716000 35.93683100 45.51649800
@H 22.03716000 34.26816900 40.80649800
@H 25.44216000 35.93683100 43.97350200
@H 25.44216000 34.26816900 39.26350200
@H 33.96623700 28.78700600 30.61688400
@H 33.96623700 26.63799400 35.32688400
@H 30.56123700 28.78700600 30.61311600
@H 30.56123700 26.63799400 35.32311600
@H 27.32376300 22.94299400 35.32311600
@H 27.32376300 25.09200600 30.61311600
@H 30.72876300 22.94299400 35.32688400
@H 30.72876300 25.09200600 30.61688400
@H 28.76612100 27.74353800 28.99570200
@H 28.76612100 27.68146200 33.70570200
@H 32.17112100 27.74353800 32.23429800
@H 32.17112100 27.68146200 36.94429800
@H 32.52387900 23.98646200 36.94429800
@H 32.52387900 24.04853800 32.23429800
@H 29.11887900 23.98646200 33.70570200
@H 29.11887900 24.04853800 28.99570200
@H 32.44284000 23.18316900 29.84350200
@H 32.44284000 24.85183100 34.55350200
@H 29.03784000 23.18316900 31.38649800
@H 29.03784000 24.85183100 36.09649800
H 28.84716000 28.54683100 36.09649800
@H 28.84716000 26.87816900 31.38649800
@H 32.25216000 28.54683100 34.55350200
@H 32.25216000 26.87816900 29.84350200
@H 33.96623700 28.78700600 40.03688400
@H 33.96623700 26.63799400 44.74688400
@H 30.56123700 28.78700600 40.03311600
@H 30.56123700 26.63799400 44.74311600
@H 27.32376300 22.94299400 44.74311600
@H 27.32376300 25.09200600 40.03311600
@H 30.72876300 22.94299400 44.74688400
@H 30.72876300 25.09200600 40.03688400
H 28.76612100 27.74353800 38.41570200
@H 28.76612100 27.68146200 43.12570200
@H 32.17112100 27.74353800 41.65429800
@H 32.17112100 27.68146200 46.36429800
@H 32.52387900 23.98646200 46.36429800
@H 32.52387900 24.04853800 41.65429800
@H 29.11887900 23.98646200 43.12570200
@H 29.11887900 24.04853800 38.41570200
@H 32.44284000 23.18316900 39.26350200
@H 32.44284000 24.85183100 43.97350200
@H 29.03784000 23.18316900 40.80649800
@H 29.03784000 24.85183100 45.51649800
@H 28.84716000 28.54683100 45.51649800
@H 28.84716000 26.87816900 40.80649800
@H 32.25216000 28.54683100 43.97350200
@H 32.25216000 26.87816900 39.26350200
@H 33.96623700 36.17700600 30.61688400
@H 33.96623700 34.02799400 35.32688400
@H 30.56123700 36.17700600 30.61311600
@H 30.56123700 34.02799400 35.32311600
H 27.32376300 30.33299400 35.32311600
@H 27.32376300 32.48200600 30.61311600
@H 30.72876300 30.33299400 35.32688400
@H 30.72876300 32.48200600 30.61688400
@H 28.76612100 35.13353800 28.99570200
@H 28.76612100 35.07146200 33.70570200
@H 32.17112100 35.13353800 32.23429800
@H 32.17112100 35.07146200 36.94429800
@H 32.52387900 31.37646200 36.94429800
@H 32.52387900 31.43853800 32.23429800
@H 29.11887900 31.37646200 33.70570200
@H 29.11887900 31.43853800 28.99570200
@H 32.44284000 30.57316900 29.84350200
@H 32.44284000 32.24183100 34.55350200
@H 29.03784000 30.57316900 31.38649800
@H 29.03784000 32.24183100 36.09649800
@H 28.84716000 35.93683100 36.09649800
@H 28.84716000 34.26816900 31.38649800
@H 32.25216000 35.93683100 34.55350200
@H 32.25216000 34.26816900 29.84350200
@H 33.96623700 36.17700600 40.03688400
@H 33.96623700 34.02799400 44.74688400
@H 30.56123700 36.17700600 40.03311600
@H 30.56123700 34.02799400 44.74311600
@H 27.32376300 30.33299400 44.74311600
@H 27.32376300 32.48200600 40.03311600
@H 30.72876300 30.33299400 44.74688400
@H 30.72876300 32.48200600 40.03688400
@H 28.76612100 35.13353800 38.41570200
@H 28.76612100 35.07146200 43.12570200
@H 32.17112100 35.13353800 41.65429800
@H 32.17112100 35.07146200 46.36429800
@H 32.52387900 31.37646200 46.36429800
@H 32.52387900 31.43853800 41.65429800
@H 29.11887900 31.37646200 43.12570200
@H 29.11887900 31.43853800 38.41570200
@H 32.44284000 30.57316900 39.26350200
@H 32.44284000 32.24183100 43.97350200
@H 29.03784000 30.57316900 40.80649800
@H 29.03784000 32.24183100 45.51649800
@H 28.84716000 35.93683100 45.51649800
@H 28.84716000 34.26816900 40.80649800
@H 32.25216000 35.93683100 43.97350200
@H 32.25216000 34.26816900 39.26350200
@C 27.19301100 29.11142700 29.57220600
@C 27.19301100 26.31357300 34.28220600
@C 23.78801100 29.11142700 31.65779400
@C 23.78801100 26.31357300 36.36779400
@C 20.47698900 22.61857300 36.36779400
@C 20.47698900 25.41642700 31.65779400
@C 23.88198900 22.61857300 34.28220600
@C 23.88198900 25.41642700 29.57220600
@C 21.28806000 28.54239700 28.68107400
@C 21.28806000 26.88260300 33.39107400
@C 24.69306000 28.54239700 32.54892600
@C 24.69306000 26.88260300 37.25892600
@C 26.38194000 23.18760300 37.25892600
@C 26.38194000 24.84739700 32.54892600
@C 22.97694000 23.18760300 33.39107400
@C 22.97694000 24.84739700 28.68107400
@C 26.33767500 22.73903000 29.16243600
@C 26.33767500 25.29597000 33.87243600
@C 22.93267500 22.73903000 32.06756400
@C 22.93267500 25.29597000 36.77756400
@C 21.33232500 28.99097000 36.77756400
@C 21.33232500 26.43403000 32.06756400
@C 24.73732500 28.99097000 33.87243600
@C 24.73732500 26.43403000 29.16243600
C 27.19301100 29.11142700 38.99220600
@C 27.19301100 26.31357300 43.70220600
@C 23.78801100 29.11142700 41.07779400
@C 23.78801100 26.31357300 45.78779400
@C 20.47698900 22.61857300 45.78779400
@C 20.47698900 25.41642700 41.07779400
@C 23.88198900 22.61857300 43.70220600
@C 23.88198900 25.41642700 38.99220600
@C 21.28806000 28.54239700 38.10107400
@C 21.28806000 26.88260300 42.81107400
@C 24.69306000 28.54239700 41.96892600
@C 24.69306000 26.88260300 46.67892600
@C 26.38194000 23.18760300 46.67892600
@C 26.38194000 24.84739700 41.96892600
@C 22.97694000 23.18760300 42.81107400
@C 22.97694000 24.84739700 38.10107400
@C 26.33767500 22.73903000 38.58243600
@C 26.33767500 25.29597000 43.29243600
@C 22.93267500 22.73903000 41.48756400
@C 22.93267500 25.29597000 46.19756400
@C 21.33232500 28.99097000 46.19756400
@C 21.33232500 26.43403000 41.48756400
@C 24.73732500 28.99097000 43.29243600
@C 24.73732500 26.43403000 38.58243600
@C 27.19301100 36.50142700 29.57220600
@C 27.19301100 33.70357300 34.28220600
@C 23.78801100 36.50142700 31.65779400
@C 23.78801100 33.70357300 36.36779400
@C 20.47698900 30.00857300 36.36779400
@C 20.47698900 32.80642700 31.65779400
@C 23.88198900 30.00857300 34.28220600
@C 23.88198900 32.80642700 29.57220600
@C 21.28806000 35.93239700 28.68107400
@C 21.28806000 34.27260300 33.39107400
@C 24.69306000 35.93239700 32.54892600
@C 24.69306000 34.27260300 37.25892600
C 26.38194000 30.57760300 37.25892600
@C 26.38194000 32.23739700 32.54892600
@C 22.97694000 30.57760300 33.39107400
@C 22.97694000 32.23739700 28.68107400
@C 26.33767500 30.12903000 29.16243600
@C 26.33767500 32.68597000 33.87243600
@C 22.93267500 30.12903000 32.06756400
@C 22.93267500 32.68597000 36.77756400
@C 21.33232500 36.38097000 36.77756400
@C 21.33232500 33.82403000 32.06756400
@C 24.73732500 36.38097000 33.87243600
@C 24.73732500 33.82403000 29.16243600
@C 27.19301100 36.50142700 38.99220600
@C 27.19301100 33.70357300 43.70220600
@C 23.78801100 36.50142700 41.07779400
@C 23.78801100 33.70357300 45.78779400
@C 20.47698900 30.00857300 45.78779400
@C 20.47698900 32.80642700 41.07779400
@C 23.88198900 30.00857300 43.70220600
@C 23.88198900 32.80642700 38.99220600
@C 21.28806000 35.93239700 38.10107400
@C 21.28806000 34.27260300 42.81107400
@C 24.69306000 35.93239700 41.96892600
@C 24.69306000 34.27260300 46.67892600
@C 26.38194000 30.57760300 46.67892600
@C 26.38194000 32.23739700 41.96892600
@C 22.97694000 30.57760300 42.81107400
@C 22.97694000 32.23739700 38.10107400
C 26.33767500 30.12903000 38.58243600
@C 26.33767500 32.68597000 43.29243600
@C 22.93267500 30.12903000 41.48756400
@C 22.93267500 32.68597000 46.19756400
@C 21.33232500 36.38097000 46.19756400
@C 21.33232500 33.82403000 41.48756400
@C 24.73732500 36.38097000 43.29243600
@C 24.73732500 33.82403000 38.58243600
@C 34.00301100 29.11142700 29.57220600
@C 34.00301100 26.31357300 34.28220600
@C 30.59801100 29.11142700 31.65779400
@C 30.59801100 26.31357300 36.36779400
@C 27.28698900 22.61857300 36.36779400
@C 27.28698900 25.41642700 31.65779400
@C 30.69198900 22.61857300 34.28220600
@C 30.69198900 25.41642700 29.57220600
@C 28.09806000 28.54239700 28.68107400
@C 28.09806000 26.88260300 33.39107400
@C 31.50306000 28.54239700 32.54892600
@C 31.50306000 26.88260300 37.25892600
@C 33.19194000 23.18760300 37.25892600
@C 33.19194000 24.84739700 32.54892600
@C 29.78694000 23.18760300 33.39107400
@C 29.78694000 24.84739700 28.68107400
@C 33.14767500 22.73903000 29.16243600
@C 33.14767500 25.29597000 33.87243600
@C 29.74267500 22.73903000 32.06756400
@C 29.74267500 25.29597000 36.77756400
C 28.14232500 28.99097000 36.77756400
@C 28.14232500 26.43403000 32.06756400
@C 31.54732500 28.99097000 33.87243600
@C 31.54732500 26.43403000 29.16243600
@C 34.00301100 29.11142700 38.99220600
@C 34.00301100 26.31357300 43.70220600
@C 30.59801100 29.11142700 41.07779400
@C 30.59801100 26.31357300 45.78779400
@C 27.28698900 22.61857300 45.78779400
@C 27.28698900 25.41642700 41.07779400
@C 30.69198900 22.61857300 43.70220600
@C 30.69198900 25.41642700 38.99220600
C 28.09806000 28.54239700 38.10107400
@C 28.09806000 26.88260300 42.81107400
@C 31.50306000 28.54239700 41.96892600
@C 31.50306000 26.88260300 46.67892600
@C 33.19194000 23.18760300 46.67892600
@C 33.19194000 24.84739700 41.96892600
@C 29.78694000 23.18760300 42.81107400
@C 29.78694000 24.84739700 38.10107400
@C 33.14767500 22.73903000 38.58243600
@C 33.14767500 25.29597000 43.29243600
@C 29.74267500 22.73903000 41.48756400
@C 29.74267500 25.29597000 46.19756400
@C 28.14232500 28.99097000 46.19756400
@C 28.14232500 26.43403000 41.48756400
@C 31.54732500 28.99097000 43.29243600
@C 31.54732500 26.43403000 38.58243600
@C 34.00301100 36.50142700 29.57220600
@C 34.00301100 33.70357300 34.28220600
@C 30.59801100 36.50142700 31.65779400
@C 30.59801100 33.70357300 36.36779400
C 27.28698900 30.00857300 36.36779400
@C 27.28698900 32.80642700 31.65779400
@C 30.69198900 30.00857300 34.28220600
@C 30.69198900 32.80642700 29.57220600
@C 28.09806000 35.93239700 28.68107400
@C 28.09806000 34.27260300 33.39107400
@C 31.50306000 35.93239700 32.54892600
@C 31.50306000 34.27260300 37.25892600
@C 33.19194000 30.57760300 37.25892600
@C 33.19194000 32.23739700 32.54892600
@C 29.78694000 30.57760300 33.39107400
@C 29.78694000 32.23739700 28.68107400
@C 33.14767500 30.12903000 29.16243600
@C 33.14767500 32.68597000 33.87243600
@C 29.74267500 30.12903000 32.06756400
@C 29.74267500 32.68597000 36.77756400
@C 28.14232500 36.38097000 36.77756400
@C 28.14232500 33.82403000 32.06756400
@C 31.54732500 36.38097000 33.87243600
@C 31.54732500 33.82403000 29.16243600
@C 34.00301100 36.50142700 38.99220600
@C 34.00301100 33.70357300 43.70220600
@C 30.59801100 36.50142700 41.07779400
@C 30.59801100 33.70357300 45.78779400
@C 27.28698900 30.00857300 45.78779400
@C 27.28698900 32.80642700 41.07779400
@C 30.69198900 30.00857300 43.70220600
@C 30.69198900 32.80642700 38.99220600
@C 28.09806000 35.93239700 38.10107400
@C 28.09806000 34.27260300 42.81107400
@C 31.50306000 35.93239700 41.96892600
@C 31.50306000 34.27260300 46.67892600
@C 33.19194000 30.57760300 46.67892600
@C 33.19194000 32.23739700 41.96892600
@C 29.78694000 30.57760300 42.81107400
@C 29.78694000 32.23739700 38.10107400
@C 33.14767500 30.12903000 38.58243600
@C 33.14767500 32.68597000 43.29243600
@C 29.74267500 30.12903000 41.48756400
@C 29.74267500 32.68597000 46.19756400
@C 28.14232500 36.38097000 46.19756400
@C 28.14232500 33.82403000 41.48756400
@C 31.54732500 36.38097000 43.29243600
@C 31.54732500 33.82403000 38.58243600
$end

$rem
jobtype sp
method pbe
dft_d D3_BJ
thresh 14

basis cc-pvqz
AUX_BASIS_J cc-pvqz-jk
input_bohr false

max_scf_cycles 250
mem_total 200000
mem_static 50000
scf_algorithm gdm

!scf_guess            hcore
!scf_print            10
!GUI                  2
!USE_LIBQINTS         true

scf_convergence      5
xc_grid              1 !000099000590
$end
--------------------------------------------------------------
 Adding empirical dispersion correction 
 ----------------------------------------------------------------
 Doing -D3(BJ) with
 s6  =   1.00000
 s8  =   0.78750
 a1  =   0.42890
 a2  =   4.44070
 ----------------------------------------------------------------
 -D3 energy without 3body term =     -0.0109647435 hartrees
 ----------------------------------------------------------------
             Standard Nuclear Orientation (Angstroms)
    I     Atom           X                Y                Z
 ----------------------------------------------------------------
    1      GH     27.1562370000    28.7870060000    30.6168840000
    2      GH     27.1562370000    26.6379940000    35.3268840000
    3      GH     23.7512370000    28.7870060000    30.6131160000
    4      GH     23.7512370000    26.6379940000    35.3231160000
    5      GH     20.5137630000    22.9429940000    35.3231160000
    6      GH     20.5137630000    25.0920060000    30.6131160000
    7      GH     23.9187630000    22.9429940000    35.3268840000
    8      GH     23.9187630000    25.0920060000    30.6168840000
    9      GH     21.9561210000    27.7435380000    28.9957020000
   10      GH     21.9561210000    27.6814620000    33.7057020000
   11      GH     25.3611210000    27.7435380000    32.2342980000
   12      GH     25.3611210000    27.6814620000    36.9442980000
   13      GH     25.7138790000    23.9864620000    36.9442980000
   14      GH     25.7138790000    24.0485380000    32.2342980000
   15      GH     22.3088790000    23.9864620000    33.7057020000
   16      GH     22.3088790000    24.0485380000    28.9957020000
   17      GH     25.6328400000    23.1831690000    29.8435020000
   18      GH     25.6328400000    24.8518310000    34.5535020000
   19      GH     22.2278400000    23.1831690000    31.3864980000
   20      GH     22.2278400000    24.8518310000    36.0964980000
   21      GH     22.0371600000    28.5468310000    36.0964980000
   22      GH     22.0371600000    26.8781690000    31.3864980000
   23      GH     25.4421600000    28.5468310000    34.5535020000
   24      GH     25.4421600000    26.8781690000    29.8435020000
   25      H      27.1562370000    28.7870060000    40.0368840000
   26      GH     27.1562370000    26.6379940000    44.7468840000
   27      GH     23.7512370000    28.7870060000    40.0331160000
   28      GH     23.7512370000    26.6379940000    44.7431160000
   29      GH     20.5137630000    22.9429940000    44.7431160000
   30      GH     20.5137630000    25.0920060000    40.0331160000
   31      GH     23.9187630000    22.9429940000    44.7468840000
   32      GH     23.9187630000    25.0920060000    40.0368840000
   33      GH     21.9561210000    27.7435380000    38.4157020000
   34      GH     21.9561210000    27.6814620000    43.1257020000
   35      GH     25.3611210000    27.7435380000    41.6542980000
   36      GH     25.3611210000    27.6814620000    46.3642980000
   37      GH     25.7138790000    23.9864620000    46.3642980000
   38      GH     25.7138790000    24.0485380000    41.6542980000
   39      GH     22.3088790000    23.9864620000    43.1257020000
   40      GH     22.3088790000    24.0485380000    38.4157020000
   41      GH     25.6328400000    23.1831690000    39.2635020000
   42      GH     25.6328400000    24.8518310000    43.9735020000
   43      GH     22.2278400000    23.1831690000    40.8064980000
   44      GH     22.2278400000    24.8518310000    45.5164980000
   45      GH     22.0371600000    28.5468310000    45.5164980000
   46      GH     22.0371600000    26.8781690000    40.8064980000
   47      GH     25.4421600000    28.5468310000    43.9735020000
   48      GH     25.4421600000    26.8781690000    39.2635020000
   49      GH     27.1562370000    36.1770060000    30.6168840000
   50      GH     27.1562370000    34.0279940000    35.3268840000
   51      GH     23.7512370000    36.1770060000    30.6131160000
   52      GH     23.7512370000    34.0279940000    35.3231160000
   53      GH     20.5137630000    30.3329940000    35.3231160000
   54      GH     20.5137630000    32.4820060000    30.6131160000
   55      GH     23.9187630000    30.3329940000    35.3268840000
   56      GH     23.9187630000    32.4820060000    30.6168840000
   57      GH     21.9561210000    35.1335380000    28.9957020000
   58      GH     21.9561210000    35.0714620000    33.7057020000
   59      GH     25.3611210000    35.1335380000    32.2342980000
   60      GH     25.3611210000    35.0714620000    36.9442980000
   61      H      25.7138790000    31.3764620000    36.9442980000
   62      GH     25.7138790000    31.4385380000    32.2342980000
   63      GH     22.3088790000    31.3764620000    33.7057020000
   64      GH     22.3088790000    31.4385380000    28.9957020000
   65      GH     25.6328400000    30.5731690000    29.8435020000
   66      GH     25.6328400000    32.2418310000    34.5535020000
   67      GH     22.2278400000    30.5731690000    31.3864980000
   68      GH     22.2278400000    32.2418310000    36.0964980000
   69      GH     22.0371600000    35.9368310000    36.0964980000
   70      GH     22.0371600000    34.2681690000    31.3864980000
   71      GH     25.4421600000    35.9368310000    34.5535020000
   72      GH     25.4421600000    34.2681690000    29.8435020000
   73      GH     27.1562370000    36.1770060000    40.0368840000
   74      GH     27.1562370000    34.0279940000    44.7468840000
   75      GH     23.7512370000    36.1770060000    40.0331160000
   76      GH     23.7512370000    34.0279940000    44.7431160000
   77      GH     20.5137630000    30.3329940000    44.7431160000
   78      GH     20.5137630000    32.4820060000    40.0331160000
   79      GH     23.9187630000    30.3329940000    44.7468840000
   80      GH     23.9187630000    32.4820060000    40.0368840000
   81      GH     21.9561210000    35.1335380000    38.4157020000
   82      GH     21.9561210000    35.0714620000    43.1257020000
   83      GH     25.3611210000    35.1335380000    41.6542980000
   84      GH     25.3611210000    35.0714620000    46.3642980000
   85      GH     25.7138790000    31.3764620000    46.3642980000
   86      GH     25.7138790000    31.4385380000    41.6542980000
   87      GH     22.3088790000    31.3764620000    43.1257020000
   88      GH     22.3088790000    31.4385380000    38.4157020000
   89      H      25.6328400000    30.5731690000    39.2635020000
   90      GH     25.6328400000    32.2418310000    43.9735020000
   91      GH     22.2278400000    30.5731690000    40.8064980000
   92      GH     22.2278400000    32.2418310000    45.5164980000
   93      GH     22.0371600000    35.9368310000    45.5164980000
   94      GH     22.0371600000    34.2681690000    40.8064980000
   95      GH     25.4421600000    35.9368310000    43.9735020000
   96      GH     25.4421600000    34.2681690000    39.2635020000
   97      GH     33.9662370000    28.7870060000    30.6168840000
   98      GH     33.9662370000    26.6379940000    35.3268840000
   99      GH     30.5612370000    28.7870060000    30.6131160000
  100      GH     30.5612370000    26.6379940000    35.3231160000
  101      GH     27.3237630000    22.9429940000    35.3231160000
  102      GH     27.3237630000    25.0920060000    30.6131160000
  103      GH     30.7287630000    22.9429940000    35.3268840000
  104      GH     30.7287630000    25.0920060000    30.6168840000
  105      GH     28.7661210000    27.7435380000    28.9957020000
  106      GH     28.7661210000    27.6814620000    33.7057020000
  107      GH     32.1711210000    27.7435380000    32.2342980000
  108      GH     32.1711210000    27.6814620000    36.9442980000
  109      GH     32.5238790000    23.9864620000    36.9442980000
  110      GH     32.5238790000    24.0485380000    32.2342980000
  111      GH     29.1188790000    23.9864620000    33.7057020000
  112      GH     29.1188790000    24.0485380000    28.9957020000
  113      GH     32.4428400000    23.1831690000    29.8435020000
  114      GH     32.4428400000    24.8518310000    34.5535020000
  115      GH     29.0378400000    23.1831690000    31.3864980000
  116      GH     29.0378400000    24.8518310000    36.0964980000
  117      H      28.8471600000    28.5468310000    36.0964980000
  118      GH     28.8471600000    26.8781690000    31.3864980000
  119      GH     32.2521600000    28.5468310000    34.5535020000
  120      GH     32.2521600000    26.8781690000    29.8435020000
  121      GH     33.9662370000    28.7870060000    40.0368840000
  122      GH     33.9662370000    26.6379940000    44.7468840000
  123      GH     30.5612370000    28.7870060000    40.0331160000
  124      GH     30.5612370000    26.6379940000    44.7431160000
  125      GH     27.3237630000    22.9429940000    44.7431160000
  126      GH     27.3237630000    25.0920060000    40.0331160000
  127      GH     30.7287630000    22.9429940000    44.7468840000
  128      GH     30.7287630000    25.0920060000    40.0368840000
  129      H      28.7661210000    27.7435380000    38.4157020000
  130      GH     28.7661210000    27.6814620000    43.1257020000
  131      GH     32.1711210000    27.7435380000    41.6542980000
  132      GH     32.1711210000    27.6814620000    46.3642980000
  133      GH     32.5238790000    23.9864620000    46.3642980000
  134      GH     32.5238790000    24.0485380000    41.6542980000
  135      GH     29.1188790000    23.9864620000    43.1257020000
  136      GH     29.1188790000    24.0485380000    38.4157020000
  137      GH     32.4428400000    23.1831690000    39.2635020000
  138      GH     32.4428400000    24.8518310000    43.9735020000
  139      GH     29.0378400000    23.1831690000    40.8064980000
  140      GH     29.0378400000    24.8518310000    45.5164980000
  141      GH     28.8471600000    28.5468310000    45.5164980000
  142      GH     28.8471600000    26.8781690000    40.8064980000
  143      GH     32.2521600000    28.5468310000    43.9735020000
  144      GH     32.2521600000    26.8781690000    39.2635020000
  145      GH     33.9662370000    36.1770060000    30.6168840000
  146      GH     33.9662370000    34.0279940000    35.3268840000
  147      GH     30.5612370000    36.1770060000    30.6131160000
  148      GH     30.5612370000    34.0279940000    35.3231160000
  149      H      27.3237630000    30.3329940000    35.3231160000
  150      GH     27.3237630000    32.4820060000    30.6131160000
  151      GH     30.7287630000    30.3329940000    35.3268840000
  152      GH     30.7287630000    32.4820060000    30.6168840000
  153      GH     28.7661210000    35.1335380000    28.9957020000
  154      GH     28.7661210000    35.0714620000    33.7057020000
  155      GH     32.1711210000    35.1335380000    32.2342980000
  156      GH     32.1711210000    35.0714620000    36.9442980000
  157      GH     32.5238790000    31.3764620000    36.9442980000
  158      GH     32.5238790000    31.4385380000    32.2342980000
  159      GH     29.1188790000    31.3764620000    33.7057020000
  160      GH     29.1188790000    31.4385380000    28.9957020000
  161      GH     32.4428400000    30.5731690000    29.8435020000
  162      GH     32.4428400000    32.2418310000    34.5535020000
  163      GH     29.0378400000    30.5731690000    31.3864980000
  164      GH     29.0378400000    32.2418310000    36.0964980000
  165      GH     28.8471600000    35.9368310000    36.0964980000
  166      GH     28.8471600000    34.2681690000    31.3864980000
  167      GH     32.2521600000    35.9368310000    34.5535020000
  168      GH     32.2521600000    34.2681690000    29.8435020000
  169      GH     33.9662370000    36.1770060000    40.0368840000
  170      GH     33.9662370000    34.0279940000    44.7468840000
  171      GH     30.5612370000    36.1770060000    40.0331160000
  172      GH     30.5612370000    34.0279940000    44.7431160000
  173      GH     27.3237630000    30.3329940000    44.7431160000
  174      GH     27.3237630000    32.4820060000    40.0331160000
  175      GH     30.7287630000    30.3329940000    44.7468840000
  176      GH     30.7287630000    32.4820060000    40.0368840000
  177      GH     28.7661210000    35.1335380000    38.4157020000
  178      GH     28.7661210000    35.0714620000    43.1257020000
  179      GH     32.1711210000    35.1335380000    41.6542980000
  180      GH     32.1711210000    35.0714620000    46.3642980000
  181      GH     32.5238790000    31.3764620000    46.3642980000
  182      GH     32.5238790000    31.4385380000    41.6542980000
  183      GH     29.1188790000    31.3764620000    43.1257020000
  184      GH     29.1188790000    31.4385380000    38.4157020000
  185      GH     32.4428400000    30.5731690000    39.2635020000
  186      GH     32.4428400000    32.2418310000    43.9735020000
  187      GH     29.0378400000    30.5731690000    40.8064980000
  188      GH     29.0378400000    32.2418310000    45.5164980000
  189      GH     28.8471600000    35.9368310000    45.5164980000
  190      GH     28.8471600000    34.2681690000    40.8064980000
  191      GH     32.2521600000    35.9368310000    43.9735020000
  192      GH     32.2521600000    34.2681690000    39.2635020000
  193      GH     27.1930110000    29.1114270000    29.5722060000
  194      GH     27.1930110000    26.3135730000    34.2822060000
  195      GH     23.7880110000    29.1114270000    31.6577940000
  196      GH     23.7880110000    26.3135730000    36.3677940000
  197      GH     20.4769890000    22.6185730000    36.3677940000
  198      GH     20.4769890000    25.4164270000    31.6577940000
  199      GH     23.8819890000    22.6185730000    34.2822060000
  200      GH     23.8819890000    25.4164270000    29.5722060000
  201      GH     21.2880600000    28.5423970000    28.6810740000
  202      GH     21.2880600000    26.8826030000    33.3910740000
  203      GH     24.6930600000    28.5423970000    32.5489260000
  204      GH     24.6930600000    26.8826030000    37.2589260000
  205      GH     26.3819400000    23.1876030000    37.2589260000
  206      GH     26.3819400000    24.8473970000    32.5489260000
  207      GH     22.9769400000    23.1876030000    33.3910740000
  208      GH     22.9769400000    24.8473970000    28.6810740000
  209      GH     26.3376750000    22.7390300000    29.1624360000
  210      GH     26.3376750000    25.2959700000    33.8724360000
  211      GH     22.9326750000    22.7390300000    32.0675640000
  212      GH     22.9326750000    25.2959700000    36.7775640000
  213      GH     21.3323250000    28.9909700000    36.7775640000
  214      GH     21.3323250000    26.4340300000    32.0675640000
  215      GH     24.7373250000    28.9909700000    33.8724360000
  216      GH     24.7373250000    26.4340300000    29.1624360000
  217      C      27.1930110000    29.1114270000    38.9922060000
  218      GH     27.1930110000    26.3135730000    43.7022060000
  219      GH     23.7880110000    29.1114270000    41.0777940000
  220      GH     23.7880110000    26.3135730000    45.7877940000
  221      GH     20.4769890000    22.6185730000    45.7877940000
  222      GH     20.4769890000    25.4164270000    41.0777940000
  223      GH     23.8819890000    22.6185730000    43.7022060000
  224      GH     23.8819890000    25.4164270000    38.9922060000
  225      GH     21.2880600000    28.5423970000    38.1010740000
  226      GH     21.2880600000    26.8826030000    42.8110740000
  227      GH     24.6930600000    28.5423970000    41.9689260000
  228      GH     24.6930600000    26.8826030000    46.6789260000
  229      GH     26.3819400000    23.1876030000    46.6789260000
  230      GH     26.3819400000    24.8473970000    41.9689260000
  231      GH     22.9769400000    23.1876030000    42.8110740000
  232      GH     22.9769400000    24.8473970000    38.1010740000
  233      GH     26.3376750000    22.7390300000    38.5824360000
  234      GH     26.3376750000    25.2959700000    43.2924360000
  235      GH     22.9326750000    22.7390300000    41.4875640000
  236      GH     22.9326750000    25.2959700000    46.1975640000
  237      GH     21.3323250000    28.9909700000    46.1975640000
  238      GH     21.3323250000    26.4340300000    41.4875640000
  239      GH     24.7373250000    28.9909700000    43.2924360000
  240      GH     24.7373250000    26.4340300000    38.5824360000
  241      GH     27.1930110000    36.5014270000    29.5722060000
  242      GH     27.1930110000    33.7035730000    34.2822060000
  243      GH     23.7880110000    36.5014270000    31.6577940000
  244      GH     23.7880110000    33.7035730000    36.3677940000
  245      GH     20.4769890000    30.0085730000    36.3677940000
  246      GH     20.4769890000    32.8064270000    31.6577940000
  247      GH     23.8819890000    30.0085730000    34.2822060000
  248      GH     23.8819890000    32.8064270000    29.5722060000
  249      GH     21.2880600000    35.9323970000    28.6810740000
  250      GH     21.2880600000    34.2726030000    33.3910740000
  251      GH     24.6930600000    35.9323970000    32.5489260000
  252      GH     24.6930600000    34.2726030000    37.2589260000
  253      C      26.3819400000    30.5776030000    37.2589260000
  254      GH     26.3819400000    32.2373970000    32.5489260000
  255      GH     22.9769400000    30.5776030000    33.3910740000
  256      GH     22.9769400000    32.2373970000    28.6810740000
  257      GH     26.3376750000    30.1290300000    29.1624360000
  258      GH     26.3376750000    32.6859700000    33.8724360000
  259      GH     22.9326750000    30.1290300000    32.0675640000
  260      GH     22.9326750000    32.6859700000    36.7775640000
  261      GH     21.3323250000    36.3809700000    36.7775640000
  262      GH     21.3323250000    33.8240300000    32.0675640000
  263      GH     24.7373250000    36.3809700000    33.8724360000
  264      GH     24.7373250000    33.8240300000    29.1624360000
  265      GH     27.1930110000    36.5014270000    38.9922060000
  266      GH     27.1930110000    33.7035730000    43.7022060000
  267      GH     23.7880110000    36.5014270000    41.0777940000
  268      GH     23.7880110000    33.7035730000    45.7877940000
  269      GH     20.4769890000    30.0085730000    45.7877940000
  270      GH     20.4769890000    32.8064270000    41.0777940000
  271      GH     23.8819890000    30.0085730000    43.7022060000
  272      GH     23.8819890000    32.8064270000    38.9922060000
  273      GH     21.2880600000    35.9323970000    38.1010740000
  274      GH     21.2880600000    34.2726030000    42.8110740000
  275      GH     24.6930600000    35.9323970000    41.9689260000
  276      GH     24.6930600000    34.2726030000    46.6789260000
  277      GH     26.3819400000    30.5776030000    46.6789260000
  278      GH     26.3819400000    32.2373970000    41.9689260000
  279      GH     22.9769400000    30.5776030000    42.8110740000
  280      GH     22.9769400000    32.2373970000    38.1010740000
  281      C      26.3376750000    30.1290300000    38.5824360000
  282      GH     26.3376750000    32.6859700000    43.2924360000
  283      GH     22.9326750000    30.1290300000    41.4875640000
  284      GH     22.9326750000    32.6859700000    46.1975640000
  285      GH     21.3323250000    36.3809700000    46.1975640000
  286      GH     21.3323250000    33.8240300000    41.4875640000
  287      GH     24.7373250000    36.3809700000    43.2924360000
  288      GH     24.7373250000    33.8240300000    38.5824360000
  289      GH     34.0030110000    29.1114270000    29.5722060000
  290      GH     34.0030110000    26.3135730000    34.2822060000
  291      GH     30.5980110000    29.1114270000    31.6577940000
  292      GH     30.5980110000    26.3135730000    36.3677940000
  293      GH     27.2869890000    22.6185730000    36.3677940000
  294      GH     27.2869890000    25.4164270000    31.6577940000
  295      GH     30.6919890000    22.6185730000    34.2822060000
  296      GH     30.6919890000    25.4164270000    29.5722060000
  297      GH     28.0980600000    28.5423970000    28.6810740000
  298      GH     28.0980600000    26.8826030000    33.3910740000
  299      GH     31.5030600000    28.5423970000    32.5489260000
  300      GH     31.5030600000    26.8826030000    37.2589260000
  301      GH     33.1919400000    23.1876030000    37.2589260000
  302      GH     33.1919400000    24.8473970000    32.5489260000
  303      GH     29.7869400000    23.1876030000    33.3910740000
  304      GH     29.7869400000    24.8473970000    28.6810740000
  305      GH     33.1476750000    22.7390300000    29.1624360000
  306      GH     33.1476750000    25.2959700000    33.8724360000
  307      GH     29.7426750000    22.7390300000    32.0675640000
  308      GH     29.7426750000    25.2959700000    36.7775640000
  309      C      28.1423250000    28.9909700000    36.7775640000
  310      GH     28.1423250000    26.4340300000    32.0675640000
  311      GH     31.5473250000    28.9909700000    33.8724360000
  312      GH     31.5473250000    26.4340300000    29.1624360000
  313      GH     34.0030110000    29.1114270000    38.9922060000
  314      GH     34.0030110000    26.3135730000    43.7022060000
  315      GH     30.5980110000    29.1114270000    41.0777940000
  316      GH     30.5980110000    26.3135730000    45.7877940000
  317      GH     27.2869890000    22.6185730000    45.7877940000
  318      GH     27.2869890000    25.4164270000    41.0777940000
  319      GH     30.6919890000    22.6185730000    43.7022060000
  320      GH     30.6919890000    25.4164270000    38.9922060000
  321      C      28.0980600000    28.5423970000    38.1010740000
  322      GH     28.0980600000    26.8826030000    42.8110740000
  323      GH     31.5030600000    28.5423970000    41.9689260000
  324      GH     31.5030600000    26.8826030000    46.6789260000
  325      GH     33.1919400000    23.1876030000    46.6789260000
  326      GH     33.1919400000    24.8473970000    41.9689260000
  327      GH     29.7869400000    23.1876030000    42.8110740000
  328      GH     29.7869400000    24.8473970000    38.1010740000
  329      GH     33.1476750000    22.7390300000    38.5824360000
  330      GH     33.1476750000    25.2959700000    43.2924360000
  331      GH     29.7426750000    22.7390300000    41.4875640000
  332      GH     29.7426750000    25.2959700000    46.1975640000
  333      GH     28.1423250000    28.9909700000    46.1975640000
  334      GH     28.1423250000    26.4340300000    41.4875640000
  335      GH     31.5473250000    28.9909700000    43.2924360000
  336      GH     31.5473250000    26.4340300000    38.5824360000
  337      GH     34.0030110000    36.5014270000    29.5722060000
  338      GH     34.0030110000    33.7035730000    34.2822060000
  339      GH     30.5980110000    36.5014270000    31.6577940000
  340      GH     30.5980110000    33.7035730000    36.3677940000
  341      C      27.2869890000    30.0085730000    36.3677940000
  342      GH     27.2869890000    32.8064270000    31.6577940000
  343      GH     30.6919890000    30.0085730000    34.2822060000
  344      GH     30.6919890000    32.8064270000    29.5722060000
  345      GH     28.0980600000    35.9323970000    28.6810740000
  346      GH     28.0980600000    34.2726030000    33.3910740000
  347      GH     31.5030600000    35.9323970000    32.5489260000
  348      GH     31.5030600000    34.2726030000    37.2589260000
  349      GH     33.1919400000    30.5776030000    37.2589260000
  350      GH     33.1919400000    32.2373970000    32.5489260000
  351      GH     29.7869400000    30.5776030000    33.3910740000
  352      GH     29.7869400000    32.2373970000    28.6810740000
  353      GH     33.1476750000    30.1290300000    29.1624360000
  354      GH     33.1476750000    32.6859700000    33.8724360000
  355      GH     29.7426750000    30.1290300000    32.0675640000
  356      GH     29.7426750000    32.6859700000    36.7775640000
  357      GH     28.1423250000    36.3809700000    36.7775640000
  358      GH     28.1423250000    33.8240300000    32.0675640000
  359      GH     31.5473250000    36.3809700000    33.8724360000
  360      GH     31.5473250000    33.8240300000    29.1624360000
  361      GH     34.0030110000    36.5014270000    38.9922060000
  362      GH     34.0030110000    33.7035730000    43.7022060000
  363      GH     30.5980110000    36.5014270000    41.0777940000
  364      GH     30.5980110000    33.7035730000    45.7877940000
  365      GH     27.2869890000    30.0085730000    45.7877940000
  366      GH     27.2869890000    32.8064270000    41.0777940000
  367      GH     30.6919890000    30.0085730000    43.7022060000
  368      GH     30.6919890000    32.8064270000    38.9922060000
  369      GH     28.0980600000    35.9323970000    38.1010740000
  370      GH     28.0980600000    34.2726030000    42.8110740000
  371      GH     31.5030600000    35.9323970000    41.9689260000
  372      GH     31.5030600000    34.2726030000    46.6789260000
  373      GH     33.1919400000    30.5776030000    46.6789260000
  374      GH     33.1919400000    32.2373970000    41.9689260000
  375      GH     29.7869400000    30.5776030000    42.8110740000
  376      GH     29.7869400000    32.2373970000    38.1010740000
  377      GH     33.1476750000    30.1290300000    38.5824360000
  378      GH     33.1476750000    32.6859700000    43.2924360000
  379      GH     29.7426750000    30.1290300000    41.4875640000
  380      GH     29.7426750000    32.6859700000    46.1975640000
  381      GH     28.1423250000    36.3809700000    46.1975640000
  382      GH     28.1423250000    33.8240300000    41.4875640000
  383      GH     31.5473250000    36.3809700000    43.2924360000
  384      GH     31.5473250000    33.8240300000    38.5824360000
 ----------------------------------------------------------------
 Nuclear Repulsion Energy =         203.57104171 hartrees
 There are       21 alpha and       21 beta electrons
 Requested basis set is cc-pVQZ
 There are 4800 shells and 16320 basis functions

 Q-Chem warning in module libmdc/get_mega.C, line 166:

 Allowed MEM_STATIC has been capped at MEM_STATIC=8191.
 Reduce the value of MEM_STATIC to silence this warning.


 Total QAlloc Memory Limit 200000 MB
 Mega-Array Size      8007 MB
 MEM_STATIC part      8191 MB

 A cutoff of  1.0D-14 yielded2149679 shell pairs
 There are  18576271 function pairs (  26080851 Cartesian)
 Requested basis set is cc-pVQZ-JK
 There are 7872 shells and 30144 basis functions
 Smallest overlap matrix eigenvalue = 3.35E-07
 Linear dependence detected in AO basis
 Tighter screening thresholds may be required for diffuse basis sets
 Use S2THRESH > 14 and THRESH = 14 in case of SCF convergence issues
 Number of orthogonalized atomic orbitals = 16307
 Maximum deviation from orthogonality = 1.276E-10

 Scale SEOQF with 1.000000e-03/1.000000e-03/1.000000e-03

 Standard Electronic Orientation quadrupole field applied
 Nucleus-field energy     =    -0.0000000266 hartrees
 Guess from superposition of atomic densities
 Warning:  Energy on first SCF cycle will be non-variational
 SAD guess density has 42.000000 electrons

 -----------------------------------------------------------------------
  General SCF calculation program by
  Eric Jon Sundstrom, Paul Horn, Yuezhi Mao, Dmitri Zuev, Alec White,
  David Stuck, Shaama M.S., Shane Yost, Joonho Lee, David Small,
  Daniel Levine, Susi Lehtola, Hugh Burton, Evgeny Epifanovsky,
  Bang C. Huynh
 -----------------------------------------------------------------------
 Exchange:  PBE      Correlation:  PBE
 Using SG-1 standard quadrature grid
 Dispersion:   Grimme D3
 -------------------------------------------------------
 OpenMP BLAS3 based DFT computing Module                
 Release: version 1.0, May 2013, Q-Chem Inc. Pittsburgh 
 -------------------------------------------------------
 A restricted SCF calculation will be
 performed using Roothaan-Hall, GDM
 SCF converges when RMS gradient is below 1.0e-05
 ---------------------------------------
  Cycle       Energy         DIIS error
 ---------------------------------------
    1    -233.0308723657      5.10e-04  Roothaan Step
 ---------------------------------------
  Cycle       Energy        RMS Gradient
 ---------------------------------------
    1    -231.8493872124      7.70e-02   Descent step
    2    -232.0200488812      3.42e-02   Normal BFGS step
    3    -232.0409181868      5.50e-03   Normal BFGS step
    4    -232.0432343313      3.25e-03   Normal BFGS step
    5    -232.0434808626      3.95e-03   Normal BFGS step
    6    -232.0434714883      4.36e-03  Line search: overstep
    7    -232.0435084037      4.99e-04   Normal BFGS step
    8    -232.0435136261      1.30e-04   Normal BFGS step
    9    -232.0435139629      1.28e-05   Normal BFGS step
   10    -232.0435139627      2.35e-05   Normal BFGS step
   11    -232.0435139637      2.84e-06  Convergence criterion met
 ---------------------------------------
 SCF time:   CPU 3348238.51s  wall 108109.00s 
 SCF   energy in the final basis set =     -232.0435139637
 Total energy in the final basis set =     -232.0435139637

 --------------------------------------------------------------

                    Orbital Energies (a.u.)
 --------------------------------------------------------------

 Alpha MOs
 -- Occupied --
 -9.8894  -9.8894  -9.8890  -9.8889  -9.8877  -9.8877  -0.7802  -0.6781
 -0.6766  -0.5451  -0.5440  -0.4741  -0.4109  -0.4007  -0.3764  -0.3740
 -0.3340  -0.3055  -0.2984  -0.2335  -0.2328
 -- Virtual --
 -0.0456  -0.0436  -0.0190  -0.0008  -0.0002   0.0105   0.0181   0.0185
  0.0224   0.0248   0.0278   0.0308   0.0312   0.0340   0.0366   0.0387
  0.0426   0.0435   0.0441   0.0454   0.0460   0.0477   0.0480   0.0527
  0.0534   0.0562   0.0578   0.0579   0.0593   0.0603   0.0604   0.0656
  0.0659   0.0684   0.0696   0.0696   0.0704   0.0704   0.0738   0.0748
  0.0765   0.0769   0.0781   0.0793   0.0798   0.0809   0.0829   0.0837
  0.0856   0.0863   0.0881   0.0882   0.0887   0.0906   0.0908   0.0927
  0.0933   0.0947   0.0950   0.0970   0.0973   0.0992   0.1003   0.1005
  0.1013   0.1017   0.1025   0.1035   0.1049   0.1062   0.1077   0.1082
  0.1092   0.1095   0.1117   0.1132   0.1134   0.1144   0.1157   0.1167
  0.1177   0.1191   0.1202   0.1203   0.1213   0.1219   0.1231   0.1232
  0.1251   0.1253   0.1271   0.1276   0.1280   0.1283   0.1288   0.1302
  0.1317   0.1325   0.1339   0.1350   0.1355   0.1370   0.1371   0.1381
  0.1387   0.1395   0.1396   0.1413   0.1419   0.1432   0.1435   0.1450
  0.1453   0.1460   0.1465   0.1467   0.1475   0.1488   0.1498   0.1509
  0.1510   0.1537   0.1545   0.1547   0.1548   0.1562   0.1566   0.1577
  0.1584   0.1591   0.1608   0.1610   0.1628   0.1637   0.1647   0.1656
  0.1665   0.1670   0.1675   0.1681   0.1685   0.1689   0.1695   0.1699
  0.1699   0.1711   0.1721   0.1735   0.1738   0.1745   0.1745   0.1748
  0.1769   0.1773   0.1776   0.1782   0.1793   0.1793   0.1799   0.1806
  0.1833   0.1835   0.1841   0.1853   0.1864   0.1868   0.1874   0.1890
  0.1900   0.1908   0.1909   0.1925   0.1927   0.1930   0.1934   0.1938
  0.1954   0.1956   0.1965   0.1969   0.1981   0.1983   0.1986   0.2002
  0.2013   0.2024   0.2030   0.2035   0.2035   0.2044   0.2046   0.2050
  0.2059   0.2071   0.2074   0.2078   0.2086   0.2089   0.2094   0.2100
  0.2109   0.2117   0.2124   0.2124   0.2132   0.2135   0.2154   0.2164
  0.2172   0.2174   0.2190   0.2193   0.2202   0.2203   0.2215   0.2230
  0.2230   0.2240   0.2247   0.2250   0.2262   0.2265   0.2274   0.2277
  0.2287   0.2287   0.2299   0.2311   0.2312   0.2318   0.2321   0.2330
  0.2340   0.2347   0.2350   0.2352   0.2359   0.2366   0.2373   0.2392
  0.2395   0.2400   0.2408   0.2415   0.2416   0.2418   0.2424   0.2430
  0.2435   0.2437   0.2452   0.2460   0.2461   0.2464   0.2473   0.2480
  0.2490   0.2496   0.2500   0.2503   0.2509   0.2517   0.2521   0.2527
  0.2530   0.2534   0.2539   0.2550   0.2563   0.2574   0.2574   0.2584
  0.2587   0.2588   0.2595   0.2598   0.2609   0.2621   0.2623   0.2630
  0.2639   0.2648   0.2657   0.2659   0.2662   0.2676   0.2684   0.2689
  0.2693   0.2700   0.2702   0.2720   0.2721   0.2722   0.2726   0.2741
  0.2746   0.2755   0.2759   0.2773   0.2775   0.2779   0.2783   0.2788
  0.2796   0.2802   0.2812   0.2825   0.2831   0.2836   0.2838   0.2847
  0.2849   0.2859   0.2868   0.2869   0.2873   0.2882   0.2887   0.2889
  0.2897   0.2900   0.2906   0.2916   0.2922   0.2924   0.2926   0.2934
  0.2950   0.2954   0.2960   0.2971   0.2973   0.2983   0.2989   0.2992
  0.2995   0.3001   0.3007   0.3027   0.3029   0.3033   0.3035   0.3038
  0.3051   0.3052   0.3055   0.3058   0.3066   0.3081   0.3092   0.3094
  0.3098   0.3100   0.3110   0.3113   0.3117   0.3125   0.3127   0.3142
  0.3151   0.3155   0.3158   0.3164   0.3169   0.3172   0.3174   0.3189
  0.3199   0.3199   0.3203   0.3209   0.3213   0.3219   0.3223   0.3225
  0.3225   0.3245   0.3255   0.3262   0.3264   0.3267   0.3277   0.3283
  0.3290   0.3292   0.3298   0.3301   0.3317   0.3320   0.3326   0.3337
  0.3337   0.3343   0.3357   0.3358   0.3361   0.3372   0.3373   0.3383
  0.3387   0.3394   0.3398   0.3404   0.3406   0.3419   0.3422   0.3427
  0.3432   0.3444   0.3447   0.3462   0.3465   0.3467   0.3478   0.3486
  0.3491   0.3494   0.3508   0.3511   0.3512   0.3522   0.3525   0.3526
  0.3529   0.3534   0.3543   0.3546   0.3553   0.3564   0.3565   0.3571
  0.3578   0.3585   0.3595   0.3595   0.3610   0.3615   0.3618   0.3626
  0.3628   0.3634   0.3640   0.3641   0.3650   0.3656   0.3663   0.3671
  0.3678   0.3681   0.3686   0.3693   0.3694   0.3701   0.3703   0.3707
  0.3714   0.3715   0.3725   0.3736   0.3744   0.3746   0.3757   0.3763
  0.3768   0.3772   0.3774   0.3794   0.3795   0.3797   0.3798   0.3802
  0.3812   0.3816   0.3829   0.3834   0.3836   0.3848   0.3851   0.3858
  0.3859   0.3871   0.3874   0.3877   0.3883   0.3892   0.3902   0.3903
  0.3909   0.3910   0.3914   0.3922   0.3928   0.3936   0.3936   0.3947
  0.3948   0.3956   0.3964   0.3981   0.3985   0.3995   0.3998   0.4000
  0.4002   0.4008   0.4015   0.4025   0.4031   0.4039   0.4044   0.4045
  0.4054   0.4059   0.4061   0.4068   0.4071   0.4076   0.4076   0.4080
  0.4089   0.4100   0.4105   0.4114   0.4123   0.4126   0.4135   0.4139
  0.4143   0.4147   0.4153   0.4160   0.4161   0.4164   0.4175   0.4179
  0.4185   0.4190   0.4194   0.4212   0.4214   0.4221   0.4224   0.4229
  0.4232   0.4236   0.4250   0.4255   0.4265   0.4272   0.4273   0.4284
  0.4286   0.4300   0.4300   0.4306   0.4313   0.4319   0.4320   0.4328
  0.4330   0.4335   0.4340   0.4343   0.4365   0.4370   0.4375   0.4376
  0.4383   0.4391   0.4398   0.4404   0.4409   0.4422   0.4429   0.4430
  0.4439   0.4443   0.4450   0.4455   0.4461   0.4465   0.4469   0.4477
  0.4485   0.4494   0.4501   0.4503   0.4505   0.4512   0.4517   0.4527
  0.4534   0.4537   0.4544   0.4546   0.4555   0.4558   0.4560   0.4568
  0.4575   0.4583   0.4586   0.4604   0.4606   0.4615   0.4618   0.4622
  0.4631   0.4632   0.4636   0.4641   0.4647   0.4652   0.4655   0.4660
  0.4662   0.4683   0.4684   0.4687   0.4688   0.4696   0.4699   0.4709
  0.4711   0.4716   0.4717   0.4729   0.4731   0.4742   0.4749   0.4754
  0.4760   0.4765   0.4768   0.4780   0.4784   0.4796   0.4797   0.4798
  0.4801   0.4810   0.4815   0.4819   0.4827   0.4829   0.4841   0.4845
  0.4847   0.4851   0.4862   0.4862   0.4867   0.4869   0.4876   0.4882
  0.4888   0.4888   0.4908   0.4917   0.4918   0.4932   0.4936   0.4939
  0.4946   0.4951   0.4951   0.4956   0.4961   0.4968   0.4977   0.4978
  0.4995   0.4999   0.4999   0.5002   0.5016   0.5019   0.5029   0.5031
  0.5038   0.5041   0.5063   0.5066   0.5066   0.5071   0.5075   0.5082
  0.5085   0.5090   0.5096   0.5101   0.5106   0.5121   0.5125   0.5127
  0.5135   0.5142   0.5149   0.5154   0.5157   0.5163   0.5166   0.5176
  0.5184   0.5192   0.5193   0.5201   0.5205   0.5212   0.5223   0.5225
  0.5228   0.5238   0.5239   0.5248   0.5252   0.5258   0.5262   0.5267
  0.5270   0.5277   0.5280   0.5291   0.5301   0.5305   0.5308   0.5314
  0.5315   0.5327   0.5328   0.5338   0.5346   0.5348   0.5355   0.5364
  0.5371   0.5381   0.5381   0.5384   0.5390   0.5399   0.5404   0.5420
  0.5423   0.5428   0.5435   0.5438   0.5442   0.5451   0.5451   0.5456
  0.5456   0.5466   0.5468   0.5479   0.5485   0.5493   0.5496   0.5506
  0.5510   0.5520   0.5525   0.5526   0.5541   0.5553   0.5556   0.5563
  0.5568   0.5571   0.5586   0.5593   0.5598   0.5599   0.5602   0.5604
  0.5614   0.5617   0.5623   0.5634   0.5637   0.5645   0.5651   0.5665
  0.5669   0.5673   0.5684   0.5686   0.5688   0.5694   0.5710   0.5717
  0.5719   0.5726   0.5731   0.5736   0.5749   0.5752   0.5761   0.5764
  0.5770   0.5770   0.5783   0.5799   0.5806   0.5811   0.5814   0.5815
  0.5828   0.5830   0.5838   0.5845   0.5858   0.5860   0.5868   0.5873
  0.5882   0.5884   0.5891   0.5896   0.5899   0.5903   0.5912   0.5920
  0.5930   0.5934   0.5938   0.5945   0.5948   0.5957   0.5959   0.5964
  0.5970   0.5980   0.5984   0.5993   0.5998   0.6001   0.6016   0.6016
  0.6033   0.6038   0.6051   0.6053   0.6057   0.6058   0.6065   0.6076
  0.6084   0.6089   0.6101   0.6102   0.6112   0.6113   0.6126   0.6127
  0.6137   0.6147   0.6148   0.6153   0.6158   0.6175   0.6178   0.6185
  0.6185   0.6197   0.6198   0.6201   0.6204   0.6214   0.6218   0.6225
  0.6228   0.6232   0.6245   0.6248   0.6262   0.6275   0.6276   0.6283
  0.6292   0.6294   0.6295   0.6300   0.6316   0.6322   0.6325   0.6326
  0.6341   0.6347   0.6349   0.6352   0.6363   0.6370   0.6379   0.6380
  0.6386   0.6387   0.6399   0.6405   0.6410   0.6416   0.6419   0.6444
  0.6445   0.6450   0.6457   0.6458   0.6463   0.6467   0.6479   0.6489
  0.6495   0.6499   0.6508   0.6515   0.6518   0.6521   0.6543   0.6545
  0.6546   0.6548   0.6555   0.6559   0.6574   0.6578   0.6588   0.6589
  0.6590   0.6603   0.6615   0.6616   0.6623   0.6628   0.6642   0.6652
  0.6653   0.6661   0.6670   0.6676   0.6678   0.6679   0.6692   0.6694
  0.6700   0.6709   0.6709   0.6716   0.6729   0.6734   0.6738   0.6746
  0.6753   0.6764   0.6764   0.6768   0.6784   0.6786   0.6790   0.6809
  0.6811   0.6814   0.6830   0.6836   0.6840   0.6843   0.6845   0.6853
  0.6855   0.6865   0.6873   0.6880   0.6883   0.6894   0.6904   0.6905
  0.6908   0.6908   0.6915   0.6917   0.6923   0.6933   0.6934   0.6937
  0.6939   0.6944   0.6948   0.6960   0.6970   0.6971   0.6980   0.6985
  0.6999   0.7001   0.7009   0.7018   0.7018   0.7025   0.7028   0.7028
  0.7036   0.7042   0.7043   0.7064   0.7065   0.7069   0.7069   0.7079
  0.7086   0.7094   0.7098   0.7104   0.7107   0.7110   0.7114   0.7118
  0.7123   0.7124   0.7144   0.7144   0.7151   0.7161   0.7167   0.7168
  0.7175   0.7179   0.7182   0.7187   0.7196   0.7202   0.7205   0.7206
  0.7214   0.7221   0.7222   0.7230   0.7240   0.7249   0.7251   0.7253
  0.7260   0.7265   0.7272   0.7274   0.7279   0.7287   0.7293   0.7297
  0.7297   0.7298   0.7307   0.7312   0.7318   0.7321   0.7333   0.7335
  0.7337   0.7340   0.7345   0.7356   0.7363   0.7366   0.7369   0.7370
  0.7381   0.7383   0.7385   0.7400   0.7404   0.7407   0.7417   0.7420
  0.7426   0.7428   0.7432   0.7437   0.7451   0.7455   0.7460   0.7464
  0.7465   0.7476   0.7477   0.7481   0.7489   0.7490   0.7497   0.7504
  0.7504   0.7512   0.7516   0.7520   0.7522   0.7525   0.7534   0.7542
  0.7542   0.7555   0.7557   0.7560   0.7562   0.7564   0.7574   0.7590
  0.7593   0.7597   0.7601   0.7606   0.7607   0.7607   0.7615   0.7615
  0.7624   0.7628   0.7630   0.7638   0.7640   0.7649   0.7653   0.7660
  0.7664   0.7676   0.7681   0.7684   0.7686   0.7689   0.7694   0.7697
  0.7697   0.7707   0.7707   0.7718   0.7719   0.7721   0.7733   0.7734
  0.7737   0.7745   0.7749   0.7753   0.7761   0.7761   0.7762   0.7767
  0.7771   0.7779   0.7785   0.7793   0.7796   0.7796   0.7805   0.7810
  0.7813   0.7819   0.7820   0.7827   0.7832   0.7834   0.7845   0.7852
  0.7857   0.7860   0.7862   0.7869   0.7874   0.7878   0.7883   0.7892
  0.7895   0.7899   0.7901   0.7904   0.7906   0.7914   0.7922   0.7931
  0.7932   0.7940   0.7942   0.7950   0.7951   0.7953   0.7961   0.7967
  0.7969   0.7973   0.7981   0.7987   0.7991   0.7998   0.8001   0.8005
  0.8017   0.8019   0.8023   0.8024   0.8033   0.8040   0.8041   0.8044
  0.8048   0.8056   0.8062   0.8063   0.8065   0.8071   0.8074   0.8081
  0.8085   0.8087   0.8098   0.8098   0.8101   0.8107   0.8109   0.8115
  0.8119   0.8122   0.8129   0.8132   0.8134   0.8138   0.8144   0.8153
  0.8157   0.8160   0.8162   0.8170   0.8172   0.8177   0.8180   0.8189
  0.8190   0.8199   0.8201   0.8210   0.8214   0.8216   0.8231   0.8233
  0.8235   0.8237   0.8242   0.8247   0.8249   0.8259   0.8260   0.8265
  0.8268   0.8275   0.8276   0.8280   0.8282   0.8290   0.8298   0.8299
  0.8312   0.8314   0.8321   0.8325   0.8328   0.8331   0.8337   0.8342
  0.8345   0.8345   0.8345   0.8356   0.8357   0.8364   0.8368   0.8370
  0.8378   0.8383   0.8387   0.8388   0.8394   0.8403   0.8408   0.8411
  0.8418   0.8422   0.8425   0.8432   0.8435   0.8436   0.8440   0.8448
  0.8451   0.8454   0.8459   0.8464   0.8468   0.8471   0.8476   0.8485
  0.8486   0.8491   0.8496   0.8501   0.8504   0.8507   0.8512   0.8515
  0.8516   0.8525   0.8526   0.8533   0.8540   0.8549   0.8559   0.8560
  0.8561   0.8564   0.8564   0.8575   0.8576   0.8577   0.8583   0.8586
  0.8587   0.8590   0.8600   0.8609   0.8611   0.8613   0.8617   0.8621
  0.8630   0.8632   0.8636   0.8644   0.8649   0.8652   0.8656   0.8658
  0.8662   0.8671   0.8678   0.8680   0.8685   0.8690   0.8690   0.8699
  0.8700   0.8708   0.8708   0.8715   0.8719   0.8720   0.8728   0.8730
  0.8735   0.8738   0.8745   0.8748   0.8754   0.8756   0.8760   0.8761
  0.8762   0.8769   0.8784   0.8788   0.8790   0.8798   0.8798   0.8806
  0.8809   0.8812   0.8818   0.8823   0.8823   0.8826   0.8830   0.8832
  0.8841   0.8846   0.8847   0.8851   0.8860   0.8862   0.8864   0.8868
  0.8871   0.8878   0.8882   0.8883   0.8893   0.8897   0.8901   0.8906
  0.8910   0.8913   0.8916   0.8917   0.8931   0.8933   0.8938   0.8939
  0.8945   0.8948   0.8953   0.8958   0.8959   0.8966   0.8969   0.8971
  0.8974   0.8977   0.8983   0.8987   0.8993   0.9002   0.9005   0.9018
  0.9019   0.9022   0.9025   0.9030   0.9035   0.9042   0.9042   0.9049
  0.9053   0.9058   0.9060   0.9065   0.9070   0.9074   0.9077   0.9083
  0.9091   0.9093   0.9094   0.9098   0.9101   0.9108   0.9113   0.9116
  0.9117   0.9128   0.9133   0.9137   0.9137   0.9142   0.9145   0.9149
  0.9154   0.9155   0.9159   0.9166   0.9171   0.9178   0.9180   0.9183
  0.9194   0.9196   0.9197   0.9198   0.9204   0.9208   0.9213   0.9219
  0.9226   0.9230   0.9234   0.9242   0.9243   0.9247   0.9256   0.9258
  0.9265   0.9267   0.9269   0.9275   0.9283   0.9284   0.9294   0.9295
  0.9303   0.9304   0.9305   0.9310   0.9317   0.9319   0.9328   0.9328
  0.9329   0.9335   0.9338   0.9345   0.9346   0.9351   0.9360   0.9361
  0.9367   0.9371   0.9375   0.9380   0.9384   0.9385   0.9398   0.9401
  0.9403   0.9405   0.9410   0.9421   0.9422   0.9424   0.9427   0.9438
  0.9440   0.9446   0.9448   0.9457   0.9458   0.9464   0.9465   0.9468
  0.9476   0.9478   0.9484   0.9489   0.9492   0.9493   0.9505   0.9516
  0.9518   0.9527   0.9532   0.9532   0.9537   0.9543   0.9546   0.9550
  0.9552   0.9557   0.9557   0.9561   0.9568   0.9574   0.9576   0.9580
  0.9585   0.9588   0.9591   0.9591   0.9598   0.9598   0.9608   0.9609
  0.9611   0.9612   0.9623   0.9623   0.9634   0.9634   0.9646   0.9651
  0.9655   0.9662   0.9662   0.9665   0.9670   0.9673   0.9676   0.9682
  0.9688   0.9692   0.9695   0.9697   0.9705   0.9707   0.9714   0.9716
  0.9722   0.9728   0.9730   0.9736   0.9740   0.9745   0.9753   0.9754
  0.9757   0.9770   0.9771   0.9771   0.9778   0.9782   0.9787   0.9794
  0.9799   0.9800   0.9806   0.9807   0.9808   0.9823   0.9830   0.9830
  0.9834   0.9838   0.9838   0.9847   0.9849   0.9852   0.9858   0.9864
  0.9867   0.9870   0.9877   0.9878   0.9880   0.9884   0.9887   0.9897
  0.9903   0.9912   0.9916   0.9921   0.9924   0.9928   0.9931   0.9933
  0.9935   0.9936   0.9946   0.9951   0.9955   0.9959   0.9960   0.9964
  0.9974   0.9975   0.9982   0.9982   0.9996   1.0000   1.0001   1.0006
  1.0009   1.0014   1.0023   1.0023   1.0031   1.0032   1.0037   1.0044
  1.0044   1.0044   1.0051   1.0056   1.0061   1.0062   1.0067   1.0075
  1.0075   1.0078   1.0082   1.0084   1.0091   1.0096   1.0096   1.0097
  1.0107   1.0112   1.0117   1.0119   1.0128   1.0133   1.0139   1.0143
  1.0146   1.0149   1.0154   1.0157   1.0159   1.0172   1.0175   1.0182
  1.0183   1.0189   1.0195   1.0203   1.0205   1.0211   1.0215   1.0220
  1.0221   1.0229   1.0233   1.0237   1.0237   1.0243   1.0252   1.0256
  1.0260   1.0262   1.0266   1.0276   1.0283   1.0284   1.0286   1.0290
  1.0292   1.0297   1.0303   1.0303   1.0304   1.0310   1.0316   1.0327
  1.0331   1.0338   1.0338   1.0344   1.0349   1.0351   1.0354   1.0356
  1.0363   1.0370   1.0373   1.0381   1.0387   1.0395   1.0398   1.0399
  1.0405   1.0406   1.0408   1.0417   1.0424   1.0424   1.0429   1.0430
  1.0434   1.0438   1.0442   1.0444   1.0451   1.0454   1.0460   1.0472
  1.0473   1.0475   1.0482   1.0487   1.0488   1.0493   1.0494   1.0497
  1.0510   1.0512   1.0514   1.0515   1.0522   1.0524   1.0527   1.0536
  1.0544   1.0547   1.0559   1.0561   1.0562   1.0566   1.0571   1.0572
  1.0579   1.0583   1.0594   1.0601   1.0603   1.0609   1.0613   1.0615
  1.0624   1.0626   1.0628   1.0634   1.0637   1.0639   1.0642   1.0644
  1.0651   1.0663   1.0668   1.0670   1.0673   1.0676   1.0681   1.0686
  1.0694   1.0697   1.0698   1.0705   1.0707   1.0715   1.0715   1.0722
  1.0730   1.0736   1.0738   1.0740   1.0746   1.0751   1.0755   1.0757
  1.0763   1.0769   1.0774   1.0779   1.0782   1.0783   1.0783   1.0790
  1.0792   1.0800   1.0810   1.0812   1.0818   1.0818   1.0833   1.0838
  1.0838   1.0844   1.0850   1.0858   1.0860   1.0867   1.0867   1.0872
  1.0873   1.0880   1.0891   1.0891   1.0894   1.0897   1.0903   1.0909
  1.0911   1.0915   1.0922   1.0928   1.0934   1.0936   1.0937   1.0946
  1.0951   1.0953   1.0960   1.0966   1.0973   1.0975   1.0983   1.0985
  1.0987   1.0994   1.0996   1.1000   1.1004   1.1005   1.1010   1.1016
  1.1019   1.1023   1.1028   1.1039   1.1040   1.1049   1.1049   1.1057
  1.1060   1.1062   1.1070   1.1081   1.1085   1.1086   1.1087   1.1099
  1.1103   1.1108   1.1113   1.1114   1.1117   1.1118   1.1122   1.1127
  1.1131   1.1136   1.1136   1.1146   1.1149   1.1151   1.1155   1.1160
  1.1167   1.1175   1.1181   1.1185   1.1192   1.1192   1.1197   1.1199
  1.1212   1.1215   1.1216   1.1219   1.1228   1.1229   1.1238   1.1248
  1.1248   1.1257   1.1259   1.1270   1.1270   1.1276   1.1278   1.1281
  1.1282   1.1293   1.1293   1.1299   1.1301   1.1313   1.1317   1.1321
  1.1326   1.1329   1.1331   1.1335   1.1344   1.1351   1.1358   1.1366
  1.1366   1.1367   1.1379   1.1382   1.1387   1.1393   1.1395   1.1402
  1.1405   1.1409   1.1414   1.1417   1.1423   1.1425   1.1431   1.1434
  1.1449   1.1456   1.1464   1.1465   1.1472   1.1476   1.1478   1.1482
  1.1488   1.1492   1.1499   1.1504   1.1508   1.1513   1.1516   1.1522
  1.1533   1.1537   1.1539   1.1543   1.1546   1.1547   1.1553   1.1554
  1.1556   1.1568   1.1572   1.1573   1.1579   1.1588   1.1590   1.1593
  1.1603   1.1606   1.1612   1.1616   1.1617   1.1623   1.1628   1.1629
  1.1635   1.1638   1.1642   1.1651   1.1663   1.1665   1.1672   1.1673
  1.1675   1.1680   1.1690   1.1691   1.1692   1.1697   1.1706   1.1711
  1.1716   1.1719   1.1721   1.1725   1.1730   1.1735   1.1739   1.1747
  1.1752   1.1759   1.1759   1.1768   1.1772   1.1774   1.1779   1.1786
  1.1789   1.1797   1.1803   1.1804   1.1811   1.1818   1.1822   1.1827
  1.1830   1.1831   1.1836   1.1839   1.1845   1.1849   1.1854   1.1859
  1.1860   1.1867   1.1870   1.1874   1.1880   1.1883   1.1892   1.1895
  1.1901   1.1904   1.1913   1.1914   1.1915   1.1923   1.1926   1.1932
  1.1940   1.1941   1.1948   1.1951   1.1959   1.1967   1.1972   1.1977
  1.1984   1.1984   1.1991   1.1993   1.2006   1.2014   1.2022   1.2023
  1.2028   1.2031   1.2032   1.2035   1.2036   1.2039   1.2048   1.2048
  1.2048   1.2063   1.2068   1.2071   1.2077   1.2083   1.2089   1.2092
  1.2093   1.2099   1.2108   1.2116   1.2122   1.2124   1.2125   1.2132
  1.2137   1.2143   1.2147   1.2151   1.2153   1.2169   1.2171   1.2174
  1.2177   1.2177   1.2184   1.2190   1.2192   1.2197   1.2199   1.2209
  1.2209   1.2218   1.2219   1.2220   1.2233   1.2234   1.2242   1.2245
  1.2256   1.2257   1.2259   1.2263   1.2264   1.2272   1.2280   1.2281
  1.2285   1.2300   1.2302   1.2304   1.2309   1.2312   1.2314   1.2317
  1.2321   1.2332   1.2335   1.2345   1.2348   1.2352   1.2358   1.2360
  1.2371   1.2372   1.2380   1.2383   1.2388   1.2390   1.2395   1.2400
  1.2404   1.2406   1.2411   1.2419   1.2425   1.2427   1.2428   1.2432
  1.2435   1.2446   1.2446   1.2451   1.2455   1.2469   1.2476   1.2480
  1.2487   1.2494   1.2495   1.2498   1.2499   1.2513   1.2513   1.2519
  1.2521   1.2525   1.2527   1.2531   1.2541   1.2546   1.2556   1.2559
  1.2566   1.2570   1.2582   1.2585   1.2586   1.2593   1.2595   1.2602
  1.2607   1.2613   1.2614   1.2627   1.2627   1.2627   1.2633   1.2646
  1.2647   1.2651   1.2656   1.2658   1.2669   1.2669   1.2672   1.2675
  1.2681   1.2693   1.2695   1.2698   1.2704   1.2705   1.2712   1.2719
  1.2719   1.2726   1.2734   1.2741   1.2741   1.2748   1.2753   1.2755
  1.2763   1.2764   1.2776   1.2783   1.2788   1.2790   1.2790   1.2797
  1.2803   1.2806   1.2811   1.2817   1.2826   1.2832   1.2837   1.2844
  1.2848   1.2853   1.2854   1.2859   1.2864   1.2866   1.2875   1.2886
  1.2886   1.2891   1.2899   1.2903   1.2909   1.2913   1.2920   1.2923
  1.2927   1.2931   1.2937   1.2945   1.2945   1.2950   1.2961   1.2962
  1.2966   1.2967   1.2969   1.2978   1.2982   1.2989   1.2993   1.3001
  1.3003   1.3006   1.3011   1.3018   1.3020   1.3022   1.3034   1.3042
  1.3046   1.3047   1.3056   1.3065   1.3067   1.3067   1.3079   1.3079
  1.3085   1.3086   1.3090   1.3096   1.3105   1.3109   1.3112   1.3117
  1.3123   1.3132   1.3135   1.3138   1.3146   1.3157   1.3159   1.3167
  1.3168   1.3172   1.3176   1.3179   1.3184   1.3188   1.3196   1.3199
  1.3209   1.3219   1.3224   1.3226   1.3232   1.3234   1.3242   1.3245
  1.3249   1.3255   1.3260   1.3263   1.3276   1.3276   1.3283   1.3285
  1.3293   1.3295   1.3303   1.3303   1.3311   1.3315   1.3318   1.3323
  1.3331   1.3333   1.3340   1.3340   1.3345   1.3350   1.3359   1.3368
  1.3371   1.3377   1.3382   1.3389   1.3390   1.3393   1.3393   1.3399
  1.3414   1.3421   1.3423   1.3431   1.3432   1.3433   1.3434   1.3443
  1.3449   1.3452   1.3453   1.3464   1.3469   1.3471   1.3471   1.3482
  1.3485   1.3492   1.3494   1.3503   1.3512   1.3512   1.3515   1.3524
  1.3532   1.3536   1.3542   1.3544   1.3549   1.3558   1.3559   1.3564
  1.3573   1.3574   1.3574   1.3579   1.3588   1.3599   1.3603   1.3611
  1.3615   1.3623   1.3632   1.3632   1.3639   1.3640   1.3643   1.3653
  1.3654   1.3661   1.3669   1.3671   1.3677   1.3679   1.3681   1.3683
  1.3695   1.3702   1.3705   1.3709   1.3714   1.3716   1.3722   1.3726
  1.3731   1.3739   1.3739   1.3752   1.3760   1.3761   1.3766   1.3773
  1.3775   1.3778   1.3781   1.3792   1.3798   1.3800   1.3802   1.3808
  1.3822   1.3828   1.3832   1.3842   1.3843   1.3845   1.3848   1.3854
  1.3856   1.3864   1.3867   1.3869   1.3870   1.3874   1.3892   1.3895
  1.3897   1.3905   1.3909   1.3914   1.3914   1.3923   1.3931   1.3941
  1.3945   1.3946   1.3948   1.3951   1.3955   1.3965   1.3969   1.3976
  1.3978   1.3982   1.3986   1.3988   1.4004   1.4006   1.4008   1.4017
  1.4022   1.4029   1.4034   1.4035   1.4039   1.4042   1.4049   1.4059
  1.4063   1.4068   1.4073   1.4074   1.4090   1.4091   1.4095   1.4107
  1.4108   1.4117   1.4120   1.4122   1.4133   1.4135   1.4143   1.4151
  1.4156   1.4158   1.4172   1.4178   1.4180   1.4186   1.4194   1.4199
  1.4200   1.4205   1.4211   1.4214   1.4215   1.4217   1.4224   1.4228
  1.4229   1.4238   1.4242   1.4251   1.4259   1.4271   1.4276   1.4281
  1.4286   1.4293   1.4300   1.4308   1.4313   1.4314   1.4321   1.4323
  1.4329   1.4340   1.4340   1.4347   1.4349   1.4352   1.4365   1.4368
  1.4368   1.4375   1.4376   1.4388   1.4390   1.4396   1.4401   1.4406
  1.4411   1.4411   1.4419   1.4422   1.4430   1.4440   1.4441   1.4452
  1.4456   1.4460   1.4462   1.4472   1.4476   1.4477   1.4485   1.4486
  1.4489   1.4502   1.4503   1.4508   1.4508   1.4516   1.4524   1.4528
  1.4532   1.4539   1.4545   1.4558   1.4560   1.4574   1.4577   1.4585
  1.4586   1.4588   1.4590   1.4607   1.4611   1.4618   1.4619   1.4628
  1.4636   1.4637   1.4639   1.4649   1.4651   1.4660   1.4670   1.4671
  1.4671   1.4680   1.4684   1.4692   1.4702   1.4708   1.4709   1.4712
  1.4719   1.4722   1.4722   1.4730   1.4735   1.4741   1.4751   1.4755
  1.4762   1.4768   1.4769   1.4780   1.4789   1.4792   1.4795   1.4797
  1.4800   1.4804   1.4810   1.4814   1.4816   1.4820   1.4822   1.4832
  1.4841   1.4846   1.4852   1.4857   1.4868   1.4875   1.4878   1.4886
  1.4894   1.4898   1.4904   1.4910   1.4914   1.4918   1.4924   1.4925
  1.4932   1.4943   1.4946   1.4948   1.4954   1.4965   1.4970   1.4971
  1.4975   1.4977   1.4989   1.4996   1.4998   1.5005   1.5011   1.5015
  1.5026   1.5036   1.5036   1.5044   1.5044   1.5055   1.5056   1.5059
  1.5063   1.5070   1.5073   1.5076   1.5083   1.5087   1.5094   1.5100
  1.5108   1.5109   1.5132   1.5132   1.5138   1.5144   1.5152   1.5153
  1.5154   1.5155   1.5166   1.5180   1.5185   1.5189   1.5192   1.5198
  1.5204   1.5207   1.5210   1.5219   1.5228   1.5232   1.5234   1.5240
  1.5241   1.5250   1.5256   1.5258   1.5259   1.5275   1.5277   1.5277
  1.5289   1.5300   1.5301   1.5308   1.5313   1.5320   1.5335   1.5337
  1.5342   1.5345   1.5347   1.5355   1.5361   1.5368   1.5374   1.5377
  1.5385   1.5396   1.5400   1.5403   1.5406   1.5420   1.5423   1.5423
  1.5426   1.5430   1.5444   1.5445   1.5456   1.5458   1.5464   1.5466
  1.5479   1.5483   1.5487   1.5498   1.5506   1.5507   1.5515   1.5518
  1.5525   1.5534   1.5535   1.5541   1.5544   1.5553   1.5553   1.5562
  1.5571   1.5573   1.5577   1.5584   1.5587   1.5600   1.5608   1.5610
  1.5614   1.5622   1.5626   1.5630   1.5637   1.5645   1.5653   1.5659
  1.5659   1.5667   1.5672   1.5674   1.5680   1.5684   1.5698   1.5709
  1.5710   1.5722   1.5727   1.5728   1.5735   1.5739   1.5740   1.5749
  1.5759   1.5762   1.5775   1.5784   1.5785   1.5787   1.5789   1.5794
  1.5803   1.5811   1.5817   1.5823   1.5830   1.5842   1.5846   1.5852
  1.5855   1.5864   1.5868   1.5873   1.5874   1.5880   1.5896   1.5898
  1.5903   1.5909   1.5911   1.5911   1.5936   1.5940   1.5953   1.5953
  1.5956   1.5960   1.5964   1.5967   1.5979   1.5981   1.5988   1.5993
  1.5999   1.6008   1.6008   1.6020   1.6023   1.6023   1.6047   1.6049
  1.6053   1.6058   1.6062   1.6071   1.6080   1.6088   1.6091   1.6102
  1.6104   1.6115   1.6119   1.6133   1.6134   1.6138   1.6138   1.6143
  1.6150   1.6155   1.6165   1.6173   1.6174   1.6179   1.6187   1.6190
  1.6193   1.6202   1.6219   1.6225   1.6228   1.6233   1.6235   1.6237
  1.6250   1.6252   1.6260   1.6262   1.6280   1.6285   1.6297   1.6302
  1.6303   1.6306   1.6321   1.6326   1.6329   1.6343   1.6349   1.6355
  1.6358   1.6365   1.6366   1.6378   1.6385   1.6385   1.6394   1.6403
  1.6409   1.6418   1.6421   1.6427   1.6432   1.6436   1.6443   1.6448
  1.6463   1.6464   1.6472   1.6480   1.6491   1.6491   1.6507   1.6510
  1.6518   1.6521   1.6534   1.6538   1.6542   1.6543   1.6545   1.6564
  1.6565   1.6568   1.6576   1.6586   1.6595   1.6601   1.6605   1.6613
  1.6626   1.6631   1.6633   1.6645   1.6650   1.6650   1.6661   1.6664
  1.6668   1.6691   1.6692   1.6705   1.6717   1.6719   1.6723   1.6725
  1.6728   1.6733   1.6744   1.6751   1.6754   1.6756   1.6765   1.6766
  1.6769   1.6773   1.6785   1.6799   1.6804   1.6808   1.6820   1.6824
  1.6825   1.6830   1.6843   1.6844   1.6845   1.6852   1.6859   1.6861
  1.6867   1.6884   1.6885   1.6898   1.6900   1.6904   1.6911   1.6913
  1.6926   1.6932   1.6948   1.6959   1.6965   1.6974   1.6977   1.6985
  1.6994   1.6997   1.7003   1.7011   1.7022   1.7033   1.7042   1.7050
  1.7052   1.7064   1.7069   1.7081   1.7085   1.7086   1.7090   1.7104
  1.7107   1.7107   1.7118   1.7125   1.7136   1.7138   1.7143   1.7154
  1.7167   1.7174   1.7174   1.7175   1.7179   1.7208   1.7210   1.7217
  1.7226   1.7227   1.7236   1.7240   1.7246   1.7257   1.7259   1.7267
  1.7268   1.7280   1.7286   1.7298   1.7304   1.7312   1.7322   1.7326
  1.7334   1.7351   1.7353   1.7357   1.7360   1.7369   1.7378   1.7386
  1.7390   1.7398   1.7420   1.7422   1.7432   1.7438   1.7440   1.7447
  1.7461   1.7469   1.7469   1.7475   1.7485   1.7485   1.7497   1.7505
  1.7512   1.7515   1.7526   1.7529   1.7545   1.7554   1.7556   1.7563
  1.7571   1.7580   1.7580   1.7590   1.7597   1.7605   1.7616   1.7630
  1.7634   1.7635   1.7648   1.7653   1.7664   1.7670   1.7690   1.7695
  1.7697   1.7704   1.7713   1.7713   1.7719   1.7723   1.7747   1.7749
  1.7753   1.7755   1.7760   1.7779   1.7790   1.7797   1.7804   1.7807
  1.7818   1.7827   1.7838   1.7841   1.7853   1.7857   1.7866   1.7877
  1.7879   1.7885   1.7892   1.7897   1.7910   1.7930   1.7933   1.7937
  1.7949   1.7962   1.7970   1.7973   1.7979   1.7983   1.7986   1.7996
  1.8011   1.8022   1.8027   1.8034   1.8038   1.8049   1.8053   1.8057
  1.8058   1.8074   1.8081   1.8101   1.8105   1.8122   1.8131   1.8133
  1.8134   1.8137   1.8139   1.8144   1.8151   1.8171   1.8181   1.8193
  1.8199   1.8207   1.8211   1.8223   1.8234   1.8236   1.8237   1.8242
  1.8246   1.8258   1.8274   1.8276   1.8283   1.8285   1.8301   1.8318
  1.8327   1.8335   1.8338   1.8347   1.8352   1.8358   1.8370   1.8377
[...]
 16.6208  16.6211  16.6267  16.6268  16.6281  16.6284  16.6511  16.6523
 16.6545  16.6548  16.6634  16.6656  16.6669  16.6675  16.6728  16.6734
 16.6886  16.6889  16.6958  16.6960  16.7067  16.7077  16.7111  16.7115
 16.7165  16.7183  16.7224  16.7238  16.7371  16.7376  16.7393  16.7404
 16.7484  16.7490  16.7556  16.7558  16.7640  16.7641  16.7712  16.7714
 16.8062  16.8069  16.8326  16.8326  16.8398  16.8401  16.8571  16.8618
 16.8699  16.8759  16.8763  16.8865  16.8885  16.8903  16.8933  16.8947
 16.9008  16.9046  16.9204  16.9208  17.0862  17.0883  17.0900  17.0902
 17.0915  17.0931  17.1054  17.1060  17.1067  17.1088  17.1117  17.1126
 17.1160  17.1164  17.1171  17.1184  17.1208  17.1295  17.1312  17.1320
 17.1337  17.1351  17.1367  17.1401  17.1421  17.1442  17.1453  17.1462
 17.1464  17.1479  17.1504  17.1531  17.1549  17.1558  17.1598  17.1600
 17.1670  17.1677  17.1694  17.1695  17.1706  17.1709  17.1751  17.1767
 17.1785  17.1786  17.1831  17.1839  17.1904  17.1915  17.1933  17.1949
 17.1971  17.1991  17.2009  17.2019  17.2052  17.2073  17.2103  17.2127
 17.2197  17.2215  17.2237  17.2252  17.2451  17.2451  17.2544  17.2726
 17.2769  17.2794  17.2830  17.2886  17.2915  17.2981  17.3054  17.3078
 17.3125  17.3243  17.9000  17.9003  17.9129  17.9149  17.9171  17.9177
 17.9213  17.9216  17.9292  17.9313  17.9355  17.9397  23.4543  23.6746
 23.7555  24.7550  24.8673  24.9344  63.6142  63.6142  63.6287  63.6288
 63.6796  63.6796  63.7231  63.7235  63.8024  63.8025  63.9743  63.9745
 65.0941  65.0941  65.1609  65.1611  65.1725  65.1725  65.4107  65.4112
 65.4149  65.4156  65.4274  65.4274  65.4351  65.4351  65.4393  65.4398
 65.4453  65.4456  65.4544  65.4550  65.4587  65.4596  65.4721  65.4725
 65.4800  65.4802  65.4857  65.4865  65.4884  65.4906  65.4950  65.4953
 65.5160  65.5161  65.5265  65.5267  65.5376  65.5388  65.5667  65.5675
 65.5721  65.5729  65.5839  65.5842  65.5999  65.6008  65.6243  65.6249
 65.6281  65.6282  65.6324  65.6330  65.6381  65.6399  65.6596  65.6601
 65.6733  65.6734  65.6874  65.6897  65.6959  65.6960  65.7140  65.7150
 65.7171  65.7178  65.7355  65.7359  65.7706  65.7709  65.7803  65.7808
 66.2215  66.2305  66.2468  66.2500  66.2766  66.2877  66.2892  66.2926
 66.2979  66.3069  66.3328  66.3347  66.4566  66.4600  66.4698  66.4724
 66.4796  66.4830  66.4892  66.4983  66.5005  66.5042  66.5090  66.5274
 66.5646  66.5667  66.5853  66.5891  66.5972  66.6015  66.6045  66.6074
 66.6102  66.6122  66.6127  66.6210  66.9470  66.9485  66.9567  66.9576
 66.9821  66.9848  66.9978  66.9997  67.0412  67.0424  67.0479  67.0567
 67.0616  67.0640  67.0745  67.0754  67.0774  67.0780  67.0880  67.0988
 67.1327  67.1339  67.1850  67.1851  67.2270  67.2280  67.2468  67.2469
 67.3509  67.3540  67.8062  67.8125  67.8157  67.8311  67.8338  67.8342
 67.8528  67.8579  67.8618  67.8766  67.8769  67.8863  67.9086  67.9204
 67.9491  67.9644  67.9657  67.9787  68.0118  68.0195  68.0231  68.0454
 68.0633  68.0712  68.0844  68.0908  68.1208  68.1296  68.1394  68.1652
 68.1989  68.2039  68.2308  68.2613  68.2746  68.2791
 --------------------------------------------------------------

          Ground-State Mulliken Net Atomic Charges

     Atom                 Charge (a.u.)
  ----------------------------------------
      1 GH                    0.000004
      2 GH                   -0.014772
      3 GH                    0.000006
      4 GH                   -0.000059
      5 GH                    0.000000
      6 GH                    0.000000
      7 GH                    0.000000
      8 GH                   -0.000000
      9 GH                    0.000000
     10 GH                   -0.000006
     11 GH                    0.000179
     12 GH                   -0.005036
     13 GH                    0.000134
     14 GH                    0.000007
     15 GH                   -0.000000
     16 GH                    0.000000
     17 GH                   -0.000000
     18 GH                   -0.000101
     19 GH                   -0.000000
     20 GH                    0.000009
     21 GH                    0.000028
     22 GH                   -0.000000
     23 GH                   -0.032934
     24 GH                   -0.000004
     25 H                     0.076068
     26 GH                   -0.000011
     27 GH                    0.001456
     28 GH                   -0.000003
     29 GH                    0.000000
     30 GH                   -0.000000
     31 GH                    0.000000
     32 GH                    0.000215
     33 GH                    0.000045
     34 GH                   -0.000005
     35 GH                    0.004215
     36 GH                   -0.000000
     37 GH                    0.000000
     38 GH                   -0.000023
     39 GH                    0.000000
     40 GH                    0.000012
     41 GH                   -0.000009
     42 GH                   -0.000009
     43 GH                   -0.000001
     44 GH                   -0.000000
     45 GH                   -0.000000
     46 GH                    0.000033
     47 GH                    0.000025
     48 GH                   -0.046911
     49 GH                   -0.000000
     50 GH                    0.000847
     51 GH                    0.000000
     52 GH                    0.000271
     53 GH                    0.000001
     54 GH                   -0.000000
     55 GH                   -0.001860
     56 GH                   -0.000002
     57 GH                   -0.000000
     58 GH                   -0.000000
     59 GH                    0.000000
     60 GH                   -0.000020
     61 H                     0.129949
     62 GH                    0.000011
     63 GH                    0.000005
     64 GH                    0.000000
     65 GH                    0.000004
     66 GH                   -0.003982
     67 GH                    0.000001
     68 GH                   -0.000220
     69 GH                    0.000005
     70 GH                    0.000000
     71 GH                   -0.000006
     72 GH                   -0.000000
     73 GH                   -0.000005
     74 GH                    0.000002
     75 GH                   -0.000003
     76 GH                    0.000000
     77 GH                   -0.000000
     78 GH                   -0.000004
     79 GH                    0.000001
     80 GH                    0.000211
     81 GH                    0.000003
     82 GH                    0.000000
     83 GH                   -0.000030
     84 GH                   -0.000000
     85 GH                   -0.000000
     86 GH                    0.001478
     87 GH                   -0.000010
     88 GH                    0.000061
     89 H                     0.132962
     90 GH                   -0.000007
     91 GH                   -0.000105
     92 GH                   -0.000000
     93 GH                   -0.000000
     94 GH                    0.000003
     95 GH                    0.000000
     96 GH                   -0.000292
     97 GH                   -0.000000
     98 GH                   -0.000004
     99 GH                    0.000001
    100 GH                    0.000211
    101 GH                   -0.000005
    102 GH                    0.000002
    103 GH                   -0.000003
    104 GH                    0.000000
    105 GH                   -0.000000
    106 GH                    0.001478
    107 GH                   -0.000010
    108 GH                    0.000061
    109 GH                    0.000003
    110 GH                    0.000000
    111 GH                   -0.000030
    112 GH                   -0.000000
    113 GH                   -0.000000
    114 GH                    0.000003
    115 GH                    0.000000
    116 GH                   -0.000292
    117 H                     0.132962
    118 GH                   -0.000007
    119 GH                   -0.000105
    120 GH                   -0.000000
    121 GH                    0.000001
    122 GH                   -0.000000
    123 GH                   -0.001860
    124 GH                   -0.000002
    125 GH                   -0.000000
    126 GH                    0.000847
    127 GH                    0.000000
    128 GH                    0.000271
    129 H                     0.129949
    130 GH                    0.000011
    131 GH                    0.000005
    132 GH                    0.000000
    133 GH                   -0.000000
    134 GH                   -0.000000
    135 GH                    0.000000
    136 GH                   -0.000020
    137 GH                    0.000005
    138 GH                    0.000000
    139 GH                   -0.000006
    140 GH                   -0.000000
    141 GH                    0.000004
    142 GH                   -0.003982
    143 GH                    0.000001
    144 GH                   -0.000220
    145 GH                    0.000000
    146 GH                   -0.000000
    147 GH                    0.000000
    148 GH                    0.000215
    149 H                     0.076068
    150 GH                   -0.000011
    151 GH                    0.001456
    152 GH                   -0.000003
    153 GH                    0.000000
    154 GH                   -0.000023
    155 GH                    0.000000
    156 GH                    0.000012
    157 GH                    0.000045
    158 GH                   -0.000005
    159 GH                    0.004215
    160 GH                   -0.000000
    161 GH                   -0.000000
    162 GH                    0.000033
    163 GH                    0.000025
    164 GH                   -0.046911
    165 GH                   -0.000009
    166 GH                   -0.000009
    167 GH                   -0.000001
    168 GH                   -0.000000
    169 GH                    0.000000
    170 GH                    0.000000
    171 GH                    0.000000
    172 GH                   -0.000000
    173 GH                    0.000004
    174 GH                   -0.014772
    175 GH                    0.000006
    176 GH                   -0.000059
    177 GH                    0.000134
    178 GH                    0.000007
    179 GH                   -0.000000
    180 GH                    0.000000
    181 GH                    0.000000
    182 GH                   -0.000006
    183 GH                    0.000179
    184 GH                   -0.005036
    185 GH                    0.000028
    186 GH                   -0.000000
    187 GH                   -0.032934
    188 GH                   -0.000004
    189 GH                   -0.000000
    190 GH                   -0.000101
    191 GH                   -0.000000
    192 GH                    0.000009
    193 GH                   -0.000002
    194 GH                    0.003685
    195 GH                    0.000061
    196 GH                   -0.003150
    197 GH                    0.000000
    198 GH                    0.000000
    199 GH                   -0.000001
    200 GH                   -0.000000
    201 GH                    0.000000
    202 GH                   -0.000000
    203 GH                   -0.002583
    204 GH                    0.007522
    205 GH                   -0.000099
    206 GH                   -0.000033
    207 GH                   -0.000001
    208 GH                    0.000000
    209 GH                    0.000000
    210 GH                   -0.003493
    211 GH                    0.000000
    212 GH                    0.000103
    213 GH                    0.000055
    214 GH                   -0.000000
    215 GH                    0.012151
    216 GH                    0.000001
    217 C                    -0.050107
    218 GH                   -0.000004
    219 GH                   -0.002321
    220 GH                    0.000001
    221 GH                    0.000000
    222 GH                   -0.000000
    223 GH                   -0.000000
    224 GH                   -0.003643
    225 GH                   -0.000018
    226 GH                    0.000000
    227 GH                   -0.002246
    228 GH                    0.000000
    229 GH                    0.000000
    230 GH                    0.000441
    231 GH                   -0.000000
    232 GH                    0.000163
    233 GH                    0.000013
    234 GH                   -0.000031
    235 GH                   -0.000000
    236 GH                    0.000000
    237 GH                    0.000000
    238 GH                   -0.000012
    239 GH                   -0.000463
    240 GH                    0.021670
    241 GH                    0.000000
    242 GH                    0.004936
    243 GH                    0.000000
    244 GH                    0.007082
    245 GH                   -0.000047
    246 GH                    0.000000
    247 GH                    0.005221
    248 GH                    0.000001
    249 GH                    0.000000
    250 GH                    0.000001
    251 GH                   -0.000001
    252 GH                   -0.002869
    253 C                    -0.033794
    254 GH                   -0.000032
    255 GH                   -0.000145
    256 GH                    0.000000
    257 GH                   -0.000001
    258 GH                   -0.003328
    259 GH                   -0.000021
    260 GH                   -0.001011
    261 GH                   -0.000001
    262 GH                   -0.000000
    263 GH                    0.000003
    264 GH                    0.000000
    265 GH                   -0.000021
    266 GH                    0.000034
    267 GH                    0.000001
    268 GH                   -0.000000
    269 GH                   -0.000000
    270 GH                   -0.000000
    271 GH                    0.000056
    272 GH                    0.002464
    273 GH                    0.000000
    274 GH                    0.000001
    275 GH                    0.000008
    276 GH                   -0.000000
    277 GH                   -0.000000
    278 GH                    0.005718
    279 GH                   -0.000428
    280 GH                   -0.002499
    281 C                    -0.198291
    282 GH                   -0.000212
    283 GH                    0.000165
    284 GH                    0.000000
    285 GH                    0.000000
    286 GH                   -0.000005
    287 GH                   -0.000001
    288 GH                   -0.002467
    289 GH                   -0.000000
    290 GH                   -0.000000
    291 GH                    0.000056
    292 GH                    0.002464
    293 GH                   -0.000021
    294 GH                    0.000034
    295 GH                    0.000001
    296 GH                   -0.000000
    297 GH                   -0.000000
    298 GH                    0.005718
    299 GH                   -0.000428
    300 GH                   -0.002499
    301 GH                    0.000000
    302 GH                    0.000001
    303 GH                    0.000008
    304 GH                   -0.000000
    305 GH                    0.000000
    306 GH                   -0.000005
    307 GH                   -0.000001
    308 GH                   -0.002467
    309 C                    -0.198291
    310 GH                   -0.000212
    311 GH                    0.000165
    312 GH                    0.000000
    313 GH                   -0.000047
    314 GH                    0.000000
    315 GH                    0.005221
    316 GH                    0.000001
    317 GH                    0.000000
    318 GH                    0.004936
    319 GH                    0.000000
    320 GH                    0.007082
    321 C                    -0.033794
    322 GH                   -0.000032
    323 GH                   -0.000145
    324 GH                    0.000000
    325 GH                    0.000000
    326 GH                    0.000001
    327 GH                   -0.000001
    328 GH                   -0.002869
    329 GH                   -0.000001
    330 GH                   -0.000000
    331 GH                    0.000003
    332 GH                    0.000000
    333 GH                   -0.000001
    334 GH                   -0.003328
    335 GH                   -0.000021
    336 GH                   -0.001011
    337 GH                    0.000000
    338 GH                   -0.000000
    339 GH                   -0.000000
    340 GH                   -0.003643
    341 C                    -0.050107
    342 GH                   -0.000004
    343 GH                   -0.002321
    344 GH                    0.000001
    345 GH                    0.000000
    346 GH                    0.000441
    347 GH                   -0.000000
    348 GH                    0.000163
    349 GH                   -0.000018
    350 GH                    0.000000
    351 GH                   -0.002246
    352 GH                    0.000000
    353 GH                    0.000000
    354 GH                   -0.000012
    355 GH                   -0.000463
    356 GH                    0.021670
    357 GH                    0.000013
    358 GH                   -0.000031
    359 GH                   -0.000000
    360 GH                    0.000000
    361 GH                    0.000000
    362 GH                    0.000000
    363 GH                   -0.000001
    364 GH                   -0.000000
    365 GH                   -0.000002
    366 GH                    0.003685
    367 GH                    0.000061
    368 GH                   -0.003150
    369 GH                   -0.000099
    370 GH                   -0.000033
    371 GH                   -0.000001
    372 GH                    0.000000
    373 GH                    0.000000
    374 GH                   -0.000000
    375 GH                   -0.002583
    376 GH                    0.007522
    377 GH                    0.000055
    378 GH                   -0.000000
    379 GH                    0.012151
    380 GH                    0.000001
    381 GH                    0.000000
    382 GH                   -0.003493
    383 GH                    0.000000
    384 GH                    0.000103
  ----------------------------------------
  Sum of atomic charges =     0.000000

 -----------------------------------------------------------------
                    Cartesian Multipole Moments
 -----------------------------------------------------------------
    Charge (ESU x 10^10)
                -0.0000
    Dipole Moment (Debye)
         X      -0.0000      Y      -0.0000      Z       0.0000
       Tot       0.0000
    Quadrupole Moments (Debye-Ang)
        XX     -35.6759     XY      -3.5356     YY     -35.7507
        XZ      -1.3457     YZ      -1.1130     ZZ     -32.9000
    Octopole Moments (Debye-Ang^2)
       XXX   -2915.4325    XXY   -1247.1965    XYY   -1182.8722
       YYY   -3170.3739    XXZ   -1417.5805    XYZ    -203.3173
       YYZ   -1412.8883    XZZ    -997.6086    YZZ   -1056.4014
       ZZZ   -3719.0198
    Hexadecapole Moments (Debye-Ang^3)
      XXXX -159018.4238   XXXY  -93997.6817   XXYY  -69141.3971
      XYYY  -95576.3023   YYYY -187619.0477   XXXZ -112829.4404
      XXYZ  -49977.2849   XYYZ  -47529.0372   YYYZ -122357.3251
      XXZZ  -80665.3402   XYZZ  -36778.6243   YYZZ  -84541.5400
      XZZZ -107022.2878   YZZZ -114658.9191   ZZZZ -280532.5333
 -----------------------------------------------------------------
 Total job time:  110105.52s(wall), 3354032.88s(cpu) 
 Sat Aug 16 00:24:23 2025

        *************************************************************
        *                                                           *
        *  Thank you very much for using Q-Chem.  Have a nice day.  *
        *                                                           *
        *************************************************************


