This is a multi-thread run using 32 threads
/n/home02/hieudinh/qchem_root/qchem-adapt/exe/qcprog.exe .benzene_qchem_ccpvdz_pbe_d3bj.in.1207747.qcin.1 /n/netscratch/joonholee_lab/Lab/hieudinh/qchem1207747/

                  Welcome to Q-Chem
     A Quantum Leap Into The Future Of Chemistry


 Q-Chem 6.1 (devel), Q-Chem, Inc., Pleasanton, CA (2022)

 E. Epifanovsky,  A. T. B. Gilbert,  Xintian Feng,  Joonho Lee,  Yuezhi Mao,  
 N. Mardirossian,  P. Pokhilko,  A. White,  M. Wormit,  M. P. Coons,  
 A. L. Dempwolff,  Zhengting Gan,  D. Hait,  P. R. Horn,  L. D. Jacobson,  
 I. Kaliman,  J. Kussmann,  A. W. Lange,  Ka Un Lao,  D. S. Levine,  Jie Liu,  
 S. C. McKenzie,  A. F. Morrison,  K. D. Nanda,  F. Plasser,  D. R. Rehn,  
 M. L. Vidal,  Zhi-Qiang You,  Ying Zhu,  B. Alam,  B. Albrecht,  
 A. Aldossary,  E. Alguire,  J. H. Andersen,  V. Athavale,  D. Barton,  
 K. Begam,  A. Behn,  N. Bellonzi,  Y. A. Bernard,  E. J. Berquist,  
 H. Burton,  A. Carreras,  K. Carter-Fenk,  Mathew Chow,  Romit Chakraborty,  
 Chandrima Chakravarty,  Junhan Chen,  A. D. Chien,  K. D. Closser,  
 V. Cofer-Shabica,  L. Cunha,  S. Dasgupta,  Jia Deng,  M. de Wergifosse,  
 M. Diedenhofen,  Hainam Do,  S. Ehlert,  Po-Tung Fang,  S. Fatehi,  
 Qingguo Feng,  T. Friedhoff,  Thomas Froitzheim,  B. Ganoe,  J. Gayvert,  
 Qinghui Ge,  G. Gidofalvi,  M. Gimferrer,  M. Goldey,  Montgomery Gray,  
 J. Gomes,  C. Gonzalez-Espinoza,  S. Gulania,  A. Gunina,  J. A. Gyamfi,  
 M. W. D. Hanson-Heine,  P. H. P. Harbach,  A. W. Hauser,  M. F. Herbst,  
 M. Hernandez Vera,  M. Hodecker,  Z. C. Holden,  S. Houck,  Xunkun Huang,  
 Kerwin Hui,  B. C. Huynh,  K. Ikeda,  M. Ivanov,  Hyunjun Ji,  Zuxin Jin,  
 Hanjie Jiang,  Subrata Jana,  B. Kaduk,  S. Kaehler,  R. Kang,  
 K. Khistyaev,  Jaehoon Kim,  Yongbin Kim,  P. Klunzinger,  Z. Koczor-Benda,  
 Joong Hoon Koh,  D. Kosenkov,  Saikiran Kotaru,  L. Koulias,  T. Kowalczyk,  
 C. M. Krauter,  K. Kue,  A. Kunitsa,  T. Kus,  A. Landau,  K. V. Lawler,  
 D. Lefrancois,  S. Lehtola,  Rain Li,  Shaozhi Li,  Yi-Pei Li,  
 Jiashu Liang,  M. Liebenthal,  Hung-Hsuan Lin,  You-Sheng Lin,  Fenglai Liu,  
 Kuan-Yu Liu,  Xiao Liu,  M. Loipersberger,  A. Luenser,  C. Malbon,  
 A. Manjanath,  P. Manohar,  E. Mansoor,  S. F. Manzer,  Shan-Ping Mao,  
 A. V. Marenich,  T. Markovich,  S. Mason,  F. Matz,  S. A. Maurer,  
 P. F. McLaughlin,  M. F. S. J. Menger,  J.-M. Mewes,  S. A. Mewes,  
 P. Morgante,  Mohammad Mostafanejad,  J. W. Mullinax,  K. J. Oosterbaan,  
 G. Paran,  V. Parravicini,  Alexander C. Paul,  Suranjan K. Paul,  
 F. Pavosevic,  Zheng Pei,  S. Prager,  E. I. Proynov,  E. Ramos,  B. Rana,  
 A. E. Rask,  A. Rettig,  R. M. Richard,  F. Rob,  E. Rossomme,  T. Scheele,  
 M. Scheurer,  M. Schneider,  P. E. Schneider,  Tim K. Schramm,  N. Sergueev,  
 S. M. Sharada,  M. Sharma,  Hengyuan Shen,  W. Skomorowski,  D. W. Small,  
 C. J. Stein,  Alistair J. Sterling,  Yingli Su,  Yu-Chuan Su,  
 E. J. Sundstrom,  J. Talbot,  Zhen Tao,  J. Thirman,  Hung-Yi Tsai,  
 T. Tsuchimochi,  N. M. Tubman,  C. Utku,  S. P. Veccham,  O. Vydrov,  
 J. Wenzel,  Jonathan Wong,  J. Witte,  A. Yamada,  Chou-Hsun Yang,  Kun Yao,  
 S. Yeganeh,  S. R. Yost,  A. Zech,  F. Zeller,  Igor Ying Zhang,  
 Xing Zhang,  Yu Zhang,  D. Zuev,  A. Aspuru-Guzik,  A. T. Bell,  
 N. A. Besley,  K. B. Bravaya,  B. R. Brooks,  D. Casanova,  Jeng-Da Chai,  
 Hsing-Ta Chen,  S. Coriani,  C. J. Cramer,  A. E. DePrince, III,  
 R. A. DiStasio Jr.,  A. Dreuw,  B. D. Dunietz,  T. R. Furlani,  
 W. A. Goddard III,  S. Grimme,  S. Hammes-Schiffer,  T. Head-Gordon,  
 W. J. Hehre,  Chao-Ping Hsu,  T.-C. Jagau,  Yousung Jung,  A. Klamt,  
 Jing Kong,  D. S. Lambrecht,  Xiangyuan Li,  WanZhen Liang,  N. J. Mayhall,  
 C. W. McCurdy,  J. B. Neaton,  T. Neudecker,  C. Ochsenfeld,  
 J. A. Parkhill,  R. Peverati,  V. A. Rassolov,  Haisheng Ren,  Yihan Shao,  
 L. V. Slipchenko,  R. P. Steele,  J. E. Subotnik,  A. J. W. Thom,  
 A. Tkatchenko,  D. G. Truhlar,  T. Van Voorhis,  Fan Wang,  
 T. A. Wesolowski,  K. B. Whaley,  H. L. Woodcock III,  P. M. Zimmerman,  
 S. Faraji,  P. M. W. Gill,  M. Head-Gordon,  J. M. Herbert,  A. I. Krylov

 Contributors to earlier versions of Q-Chem not listed above: 
 R. D. Adamson,  B. Austin,  R. Baer,  J. Baker,  G. J. O. Beran,  
 K. Brandhorst,  S. T. Brown,  E. F. C. Byrd,  Arup K. Chakraborty,  
 G. K. L. Chan,  Chun-Min Chang,  Yunqing Chen,  C.-L. Cheng,  
 Siu Hung Chien,  D. M. Chipman,  D. L. Crittenden,  H. Dachsel,  
 R. J. Doerksen,  A. D. Dutoi,  R. G. Edgar,  J. Fosso-Tande,  
 L. Fusti-Molnar,  D. Ghosh,  A. Ghysels,  A. Golubeva-Zadorozhnaya,  
 J. Gonthier,  M. S. Gordon,  S. R. Gwaltney,  G. Hawkins,  J. E. Herr,  
 A. Heyden,  S. Hirata,  E. G. Hohenstein,  G. Kedziora,  F. J. Keil,  
 C. Kelley,  Jihan Kim,  R. A. King,  R. Z. Khaliullin,  P. P. Korambath,  
 W. Kurlancheek,  A. Laurent,  A. M. Lee,  M. S. Lee,  S. V. Levchenko,  
 Ching Yeh Lin,  D. Liotard,  E. Livshits,  R. C. Lochan,  I. Lotan,  
 L. A. Martinez-Martinez,  P. E. Maslen,  N. Nair,  D. P. O'Neill,  
 D. Neuhauser,  E. Neuscamman,  C. M. Oana,  R. Olivares-Amaya,  R. Olson,  
 T. M. Perrine,  B. Peters,  P. A. Pieniazek,  A. Prociuk,  Y. M. Rhee,  
 J. Ritchie,  M. A. Rohrdanz,  E. Rosta,  N. J. Russ,  H. F. Schaefer III,  
 M. W. Schmidt,  N. E. Schultz,  S. Sharma,  N. Shenvi,  C. D. Sherrill,  
 A. C. Simmonett,  A. Sodt,  T. Stein,  D. Stuck,  K. S. Thanthiriwatte,  
 V. Vanovschi,  L. Vogt,  Tao Wang,  A. Warshel,  M. A. Watson,  
 C. F. Williams,  Q. Wu,  X. Xu,  Jun Yang,  W. Zhang,  Yan Zhao

   Please cite Q-Chem as follows:
  "Software for the frontiers of quantum chemistry:
   An overview of developments in the Q-Chem 5 package"
   J. Chem. Phys. 155, 084801 (2021)
   https://doi.org/10.1063/5.0055522 (open access)

 Q-Chem 6.1.1 for Intel X86 EM64T Linux

 Parts of Q-Chem use Armadillo 9.900.5 (Nocturnal Misbehaviour).
 http://arma.sourceforge.net/

 Q-Chem begins on Thu Aug 14 17:47:23 2025  

 Host: holy7c04406.rc.fas.harvard.edu
0

     Scratch files written to /n/netscratch/joonholee_lab/Lab/hieudinh/qchem1207747//
 Processing $rem in /n/home02/hieudinh/qchem_root/qchem-adapt/config/preferences:
 Processing $rem in /n/home02/hieudinh/.qchemrc:

 Checking the input file for inconsistencies... 	...done.

--------------------------------------------------------------
User input:
--------------------------------------------------------------
$molecule
0 1
@H 27.15623700 28.78700600 30.61688400
@H 27.15623700 26.63799400 35.32688400
@H 23.75123700 28.78700600 30.61311600
@H 23.75123700 26.63799400 35.32311600
@H 20.51376300 22.94299400 35.32311600
@H 20.51376300 25.09200600 30.61311600
@H 23.91876300 22.94299400 35.32688400
@H 23.91876300 25.09200600 30.61688400
@H 21.95612100 27.74353800 28.99570200
@H 21.95612100 27.68146200 33.70570200
@H 25.36112100 27.74353800 32.23429800
@H 25.36112100 27.68146200 36.94429800
@H 25.71387900 23.98646200 36.94429800
@H 25.71387900 24.04853800 32.23429800
@H 22.30887900 23.98646200 33.70570200
@H 22.30887900 24.04853800 28.99570200
@H 25.63284000 23.18316900 29.84350200
@H 25.63284000 24.85183100 34.55350200
@H 22.22784000 23.18316900 31.38649800
@H 22.22784000 24.85183100 36.09649800
@H 22.03716000 28.54683100 36.09649800
@H 22.03716000 26.87816900 31.38649800
@H 25.44216000 28.54683100 34.55350200
@H 25.44216000 26.87816900 29.84350200
H 27.15623700 28.78700600 40.03688400
@H 27.15623700 26.63799400 44.74688400
@H 23.75123700 28.78700600 40.03311600
@H 23.75123700 26.63799400 44.74311600
@H 20.51376300 22.94299400 44.74311600
@H 20.51376300 25.09200600 40.03311600
@H 23.91876300 22.94299400 44.74688400
@H 23.91876300 25.09200600 40.03688400
@H 21.95612100 27.74353800 38.41570200
@H 21.95612100 27.68146200 43.12570200
@H 25.36112100 27.74353800 41.65429800
@H 25.36112100 27.68146200 46.36429800
@H 25.71387900 23.98646200 46.36429800
@H 25.71387900 24.04853800 41.65429800
@H 22.30887900 23.98646200 43.12570200
@H 22.30887900 24.04853800 38.41570200
@H 25.63284000 23.18316900 39.26350200
@H 25.63284000 24.85183100 43.97350200
@H 22.22784000 23.18316900 40.80649800
@H 22.22784000 24.85183100 45.51649800
@H 22.03716000 28.54683100 45.51649800
@H 22.03716000 26.87816900 40.80649800
@H 25.44216000 28.54683100 43.97350200
@H 25.44216000 26.87816900 39.26350200
@H 27.15623700 36.17700600 30.61688400
@H 27.15623700 34.02799400 35.32688400
@H 23.75123700 36.17700600 30.61311600
@H 23.75123700 34.02799400 35.32311600
@H 20.51376300 30.33299400 35.32311600
@H 20.51376300 32.48200600 30.61311600
@H 23.91876300 30.33299400 35.32688400
@H 23.91876300 32.48200600 30.61688400
@H 21.95612100 35.13353800 28.99570200
@H 21.95612100 35.07146200 33.70570200
@H 25.36112100 35.13353800 32.23429800
@H 25.36112100 35.07146200 36.94429800
H 25.71387900 31.37646200 36.94429800
@H 25.71387900 31.43853800 32.23429800
@H 22.30887900 31.37646200 33.70570200
@H 22.30887900 31.43853800 28.99570200
@H 25.63284000 30.57316900 29.84350200
@H 25.63284000 32.24183100 34.55350200
@H 22.22784000 30.57316900 31.38649800
@H 22.22784000 32.24183100 36.09649800
@H 22.03716000 35.93683100 36.09649800
@H 22.03716000 34.26816900 31.38649800
@H 25.44216000 35.93683100 34.55350200
@H 25.44216000 34.26816900 29.84350200
@H 27.15623700 36.17700600 40.03688400
@H 27.15623700 34.02799400 44.74688400
@H 23.75123700 36.17700600 40.03311600
@H 23.75123700 34.02799400 44.74311600
@H 20.51376300 30.33299400 44.74311600
@H 20.51376300 32.48200600 40.03311600
@H 23.91876300 30.33299400 44.74688400
@H 23.91876300 32.48200600 40.03688400
@H 21.95612100 35.13353800 38.41570200
@H 21.95612100 35.07146200 43.12570200
@H 25.36112100 35.13353800 41.65429800
@H 25.36112100 35.07146200 46.36429800
@H 25.71387900 31.37646200 46.36429800
@H 25.71387900 31.43853800 41.65429800
@H 22.30887900 31.37646200 43.12570200
@H 22.30887900 31.43853800 38.41570200
H 25.63284000 30.57316900 39.26350200
@H 25.63284000 32.24183100 43.97350200
@H 22.22784000 30.57316900 40.80649800
@H 22.22784000 32.24183100 45.51649800
@H 22.03716000 35.93683100 45.51649800
@H 22.03716000 34.26816900 40.80649800
@H 25.44216000 35.93683100 43.97350200
@H 25.44216000 34.26816900 39.26350200
@H 33.96623700 28.78700600 30.61688400
@H 33.96623700 26.63799400 35.32688400
@H 30.56123700 28.78700600 30.61311600
@H 30.56123700 26.63799400 35.32311600
@H 27.32376300 22.94299400 35.32311600
@H 27.32376300 25.09200600 30.61311600
@H 30.72876300 22.94299400 35.32688400
@H 30.72876300 25.09200600 30.61688400
@H 28.76612100 27.74353800 28.99570200
@H 28.76612100 27.68146200 33.70570200
@H 32.17112100 27.74353800 32.23429800
@H 32.17112100 27.68146200 36.94429800
@H 32.52387900 23.98646200 36.94429800
@H 32.52387900 24.04853800 32.23429800
@H 29.11887900 23.98646200 33.70570200
@H 29.11887900 24.04853800 28.99570200
@H 32.44284000 23.18316900 29.84350200
@H 32.44284000 24.85183100 34.55350200
@H 29.03784000 23.18316900 31.38649800
@H 29.03784000 24.85183100 36.09649800
H 28.84716000 28.54683100 36.09649800
@H 28.84716000 26.87816900 31.38649800
@H 32.25216000 28.54683100 34.55350200
@H 32.25216000 26.87816900 29.84350200
@H 33.96623700 28.78700600 40.03688400
@H 33.96623700 26.63799400 44.74688400
@H 30.56123700 28.78700600 40.03311600
@H 30.56123700 26.63799400 44.74311600
@H 27.32376300 22.94299400 44.74311600
@H 27.32376300 25.09200600 40.03311600
@H 30.72876300 22.94299400 44.74688400
@H 30.72876300 25.09200600 40.03688400
H 28.76612100 27.74353800 38.41570200
@H 28.76612100 27.68146200 43.12570200
@H 32.17112100 27.74353800 41.65429800
@H 32.17112100 27.68146200 46.36429800
@H 32.52387900 23.98646200 46.36429800
@H 32.52387900 24.04853800 41.65429800
@H 29.11887900 23.98646200 43.12570200
@H 29.11887900 24.04853800 38.41570200
@H 32.44284000 23.18316900 39.26350200
@H 32.44284000 24.85183100 43.97350200
@H 29.03784000 23.18316900 40.80649800
@H 29.03784000 24.85183100 45.51649800
@H 28.84716000 28.54683100 45.51649800
@H 28.84716000 26.87816900 40.80649800
@H 32.25216000 28.54683100 43.97350200
@H 32.25216000 26.87816900 39.26350200
@H 33.96623700 36.17700600 30.61688400
@H 33.96623700 34.02799400 35.32688400
@H 30.56123700 36.17700600 30.61311600
@H 30.56123700 34.02799400 35.32311600
H 27.32376300 30.33299400 35.32311600
@H 27.32376300 32.48200600 30.61311600
@H 30.72876300 30.33299400 35.32688400
@H 30.72876300 32.48200600 30.61688400
@H 28.76612100 35.13353800 28.99570200
@H 28.76612100 35.07146200 33.70570200
@H 32.17112100 35.13353800 32.23429800
@H 32.17112100 35.07146200 36.94429800
@H 32.52387900 31.37646200 36.94429800
@H 32.52387900 31.43853800 32.23429800
@H 29.11887900 31.37646200 33.70570200
@H 29.11887900 31.43853800 28.99570200
@H 32.44284000 30.57316900 29.84350200
@H 32.44284000 32.24183100 34.55350200
@H 29.03784000 30.57316900 31.38649800
@H 29.03784000 32.24183100 36.09649800
@H 28.84716000 35.93683100 36.09649800
@H 28.84716000 34.26816900 31.38649800
@H 32.25216000 35.93683100 34.55350200
@H 32.25216000 34.26816900 29.84350200
@H 33.96623700 36.17700600 40.03688400
@H 33.96623700 34.02799400 44.74688400
@H 30.56123700 36.17700600 40.03311600
@H 30.56123700 34.02799400 44.74311600
@H 27.32376300 30.33299400 44.74311600
@H 27.32376300 32.48200600 40.03311600
@H 30.72876300 30.33299400 44.74688400
@H 30.72876300 32.48200600 40.03688400
@H 28.76612100 35.13353800 38.41570200
@H 28.76612100 35.07146200 43.12570200
@H 32.17112100 35.13353800 41.65429800
@H 32.17112100 35.07146200 46.36429800
@H 32.52387900 31.37646200 46.36429800
@H 32.52387900 31.43853800 41.65429800
@H 29.11887900 31.37646200 43.12570200
@H 29.11887900 31.43853800 38.41570200
@H 32.44284000 30.57316900 39.26350200
@H 32.44284000 32.24183100 43.97350200
@H 29.03784000 30.57316900 40.80649800
@H 29.03784000 32.24183100 45.51649800
@H 28.84716000 35.93683100 45.51649800
@H 28.84716000 34.26816900 40.80649800
@H 32.25216000 35.93683100 43.97350200
@H 32.25216000 34.26816900 39.26350200
@C 27.19301100 29.11142700 29.57220600
@C 27.19301100 26.31357300 34.28220600
@C 23.78801100 29.11142700 31.65779400
@C 23.78801100 26.31357300 36.36779400
@C 20.47698900 22.61857300 36.36779400
@C 20.47698900 25.41642700 31.65779400
@C 23.88198900 22.61857300 34.28220600
@C 23.88198900 25.41642700 29.57220600
@C 21.28806000 28.54239700 28.68107400
@C 21.28806000 26.88260300 33.39107400
@C 24.69306000 28.54239700 32.54892600
@C 24.69306000 26.88260300 37.25892600
@C 26.38194000 23.18760300 37.25892600
@C 26.38194000 24.84739700 32.54892600
@C 22.97694000 23.18760300 33.39107400
@C 22.97694000 24.84739700 28.68107400
@C 26.33767500 22.73903000 29.16243600
@C 26.33767500 25.29597000 33.87243600
@C 22.93267500 22.73903000 32.06756400
@C 22.93267500 25.29597000 36.77756400
@C 21.33232500 28.99097000 36.77756400
@C 21.33232500 26.43403000 32.06756400
@C 24.73732500 28.99097000 33.87243600
@C 24.73732500 26.43403000 29.16243600
C 27.19301100 29.11142700 38.99220600
@C 27.19301100 26.31357300 43.70220600
@C 23.78801100 29.11142700 41.07779400
@C 23.78801100 26.31357300 45.78779400
@C 20.47698900 22.61857300 45.78779400
@C 20.47698900 25.41642700 41.07779400
@C 23.88198900 22.61857300 43.70220600
@C 23.88198900 25.41642700 38.99220600
@C 21.28806000 28.54239700 38.10107400
@C 21.28806000 26.88260300 42.81107400
@C 24.69306000 28.54239700 41.96892600
@C 24.69306000 26.88260300 46.67892600
@C 26.38194000 23.18760300 46.67892600
@C 26.38194000 24.84739700 41.96892600
@C 22.97694000 23.18760300 42.81107400
@C 22.97694000 24.84739700 38.10107400
@C 26.33767500 22.73903000 38.58243600
@C 26.33767500 25.29597000 43.29243600
@C 22.93267500 22.73903000 41.48756400
@C 22.93267500 25.29597000 46.19756400
@C 21.33232500 28.99097000 46.19756400
@C 21.33232500 26.43403000 41.48756400
@C 24.73732500 28.99097000 43.29243600
@C 24.73732500 26.43403000 38.58243600
@C 27.19301100 36.50142700 29.57220600
@C 27.19301100 33.70357300 34.28220600
@C 23.78801100 36.50142700 31.65779400
@C 23.78801100 33.70357300 36.36779400
@C 20.47698900 30.00857300 36.36779400
@C 20.47698900 32.80642700 31.65779400
@C 23.88198900 30.00857300 34.28220600
@C 23.88198900 32.80642700 29.57220600
@C 21.28806000 35.93239700 28.68107400
@C 21.28806000 34.27260300 33.39107400
@C 24.69306000 35.93239700 32.54892600
@C 24.69306000 34.27260300 37.25892600
C 26.38194000 30.57760300 37.25892600
@C 26.38194000 32.23739700 32.54892600
@C 22.97694000 30.57760300 33.39107400
@C 22.97694000 32.23739700 28.68107400
@C 26.33767500 30.12903000 29.16243600
@C 26.33767500 32.68597000 33.87243600
@C 22.93267500 30.12903000 32.06756400
@C 22.93267500 32.68597000 36.77756400
@C 21.33232500 36.38097000 36.77756400
@C 21.33232500 33.82403000 32.06756400
@C 24.73732500 36.38097000 33.87243600
@C 24.73732500 33.82403000 29.16243600
@C 27.19301100 36.50142700 38.99220600
@C 27.19301100 33.70357300 43.70220600
@C 23.78801100 36.50142700 41.07779400
@C 23.78801100 33.70357300 45.78779400
@C 20.47698900 30.00857300 45.78779400
@C 20.47698900 32.80642700 41.07779400
@C 23.88198900 30.00857300 43.70220600
@C 23.88198900 32.80642700 38.99220600
@C 21.28806000 35.93239700 38.10107400
@C 21.28806000 34.27260300 42.81107400
@C 24.69306000 35.93239700 41.96892600
@C 24.69306000 34.27260300 46.67892600
@C 26.38194000 30.57760300 46.67892600
@C 26.38194000 32.23739700 41.96892600
@C 22.97694000 30.57760300 42.81107400
@C 22.97694000 32.23739700 38.10107400
C 26.33767500 30.12903000 38.58243600
@C 26.33767500 32.68597000 43.29243600
@C 22.93267500 30.12903000 41.48756400
@C 22.93267500 32.68597000 46.19756400
@C 21.33232500 36.38097000 46.19756400
@C 21.33232500 33.82403000 41.48756400
@C 24.73732500 36.38097000 43.29243600
@C 24.73732500 33.82403000 38.58243600
@C 34.00301100 29.11142700 29.57220600
@C 34.00301100 26.31357300 34.28220600
@C 30.59801100 29.11142700 31.65779400
@C 30.59801100 26.31357300 36.36779400
@C 27.28698900 22.61857300 36.36779400
@C 27.28698900 25.41642700 31.65779400
@C 30.69198900 22.61857300 34.28220600
@C 30.69198900 25.41642700 29.57220600
@C 28.09806000 28.54239700 28.68107400
@C 28.09806000 26.88260300 33.39107400
@C 31.50306000 28.54239700 32.54892600
@C 31.50306000 26.88260300 37.25892600
@C 33.19194000 23.18760300 37.25892600
@C 33.19194000 24.84739700 32.54892600
@C 29.78694000 23.18760300 33.39107400
@C 29.78694000 24.84739700 28.68107400
@C 33.14767500 22.73903000 29.16243600
@C 33.14767500 25.29597000 33.87243600
@C 29.74267500 22.73903000 32.06756400
@C 29.74267500 25.29597000 36.77756400
C 28.14232500 28.99097000 36.77756400
@C 28.14232500 26.43403000 32.06756400
@C 31.54732500 28.99097000 33.87243600
@C 31.54732500 26.43403000 29.16243600
@C 34.00301100 29.11142700 38.99220600
@C 34.00301100 26.31357300 43.70220600
@C 30.59801100 29.11142700 41.07779400
@C 30.59801100 26.31357300 45.78779400
@C 27.28698900 22.61857300 45.78779400
@C 27.28698900 25.41642700 41.07779400
@C 30.69198900 22.61857300 43.70220600
@C 30.69198900 25.41642700 38.99220600
C 28.09806000 28.54239700 38.10107400
@C 28.09806000 26.88260300 42.81107400
@C 31.50306000 28.54239700 41.96892600
@C 31.50306000 26.88260300 46.67892600
@C 33.19194000 23.18760300 46.67892600
@C 33.19194000 24.84739700 41.96892600
@C 29.78694000 23.18760300 42.81107400
@C 29.78694000 24.84739700 38.10107400
@C 33.14767500 22.73903000 38.58243600
@C 33.14767500 25.29597000 43.29243600
@C 29.74267500 22.73903000 41.48756400
@C 29.74267500 25.29597000 46.19756400
@C 28.14232500 28.99097000 46.19756400
@C 28.14232500 26.43403000 41.48756400
@C 31.54732500 28.99097000 43.29243600
@C 31.54732500 26.43403000 38.58243600
@C 34.00301100 36.50142700 29.57220600
@C 34.00301100 33.70357300 34.28220600
@C 30.59801100 36.50142700 31.65779400
@C 30.59801100 33.70357300 36.36779400
C 27.28698900 30.00857300 36.36779400
@C 27.28698900 32.80642700 31.65779400
@C 30.69198900 30.00857300 34.28220600
@C 30.69198900 32.80642700 29.57220600
@C 28.09806000 35.93239700 28.68107400
@C 28.09806000 34.27260300 33.39107400
@C 31.50306000 35.93239700 32.54892600
@C 31.50306000 34.27260300 37.25892600
@C 33.19194000 30.57760300 37.25892600
@C 33.19194000 32.23739700 32.54892600
@C 29.78694000 30.57760300 33.39107400
@C 29.78694000 32.23739700 28.68107400
@C 33.14767500 30.12903000 29.16243600
@C 33.14767500 32.68597000 33.87243600
@C 29.74267500 30.12903000 32.06756400
@C 29.74267500 32.68597000 36.77756400
@C 28.14232500 36.38097000 36.77756400
@C 28.14232500 33.82403000 32.06756400
@C 31.54732500 36.38097000 33.87243600
@C 31.54732500 33.82403000 29.16243600
@C 34.00301100 36.50142700 38.99220600
@C 34.00301100 33.70357300 43.70220600
@C 30.59801100 36.50142700 41.07779400
@C 30.59801100 33.70357300 45.78779400
@C 27.28698900 30.00857300 45.78779400
@C 27.28698900 32.80642700 41.07779400
@C 30.69198900 30.00857300 43.70220600
@C 30.69198900 32.80642700 38.99220600
@C 28.09806000 35.93239700 38.10107400
@C 28.09806000 34.27260300 42.81107400
@C 31.50306000 35.93239700 41.96892600
@C 31.50306000 34.27260300 46.67892600
@C 33.19194000 30.57760300 46.67892600
@C 33.19194000 32.23739700 41.96892600
@C 29.78694000 30.57760300 42.81107400
@C 29.78694000 32.23739700 38.10107400
@C 33.14767500 30.12903000 38.58243600
@C 33.14767500 32.68597000 43.29243600
@C 29.74267500 30.12903000 41.48756400
@C 29.74267500 32.68597000 46.19756400
@C 28.14232500 36.38097000 46.19756400
@C 28.14232500 33.82403000 41.48756400
@C 31.54732500 36.38097000 43.29243600
@C 31.54732500 33.82403000 38.58243600
$end

$rem
jobtype sp
method pbe
dft_d D3_BJ
thresh 14

basis cc-pvdz
AUX_BASIS_J cc-pvtz-jk
input_bohr false

max_scf_cycles 250
mem_total 100000
mem_static 50000
scf_algorithm gdm

!scf_guess            hcore
!scf_print            10
!GUI                  2
!USE_LIBQINTS         true

scf_convergence      5
xc_grid              1 !000099000590
$end
--------------------------------------------------------------
 Adding empirical dispersion correction 
 ----------------------------------------------------------------
 Doing -D3(BJ) with
 s6  =   1.00000
 s8  =   0.78750
 a1  =   0.42890
 a2  =   4.44070
 ----------------------------------------------------------------
 -D3 energy without 3body term =     -0.0109647435 hartrees
 ----------------------------------------------------------------
             Standard Nuclear Orientation (Angstroms)
    I     Atom           X                Y                Z
 ----------------------------------------------------------------
    1      GH     27.1562370000    28.7870060000    30.6168840000
    2      GH     27.1562370000    26.6379940000    35.3268840000
    3      GH     23.7512370000    28.7870060000    30.6131160000
    4      GH     23.7512370000    26.6379940000    35.3231160000
    5      GH     20.5137630000    22.9429940000    35.3231160000
    6      GH     20.5137630000    25.0920060000    30.6131160000
    7      GH     23.9187630000    22.9429940000    35.3268840000
    8      GH     23.9187630000    25.0920060000    30.6168840000
    9      GH     21.9561210000    27.7435380000    28.9957020000
   10      GH     21.9561210000    27.6814620000    33.7057020000
   11      GH     25.3611210000    27.7435380000    32.2342980000
   12      GH     25.3611210000    27.6814620000    36.9442980000
   13      GH     25.7138790000    23.9864620000    36.9442980000
   14      GH     25.7138790000    24.0485380000    32.2342980000
   15      GH     22.3088790000    23.9864620000    33.7057020000
   16      GH     22.3088790000    24.0485380000    28.9957020000
   17      GH     25.6328400000    23.1831690000    29.8435020000
   18      GH     25.6328400000    24.8518310000    34.5535020000
   19      GH     22.2278400000    23.1831690000    31.3864980000
   20      GH     22.2278400000    24.8518310000    36.0964980000
   21      GH     22.0371600000    28.5468310000    36.0964980000
   22      GH     22.0371600000    26.8781690000    31.3864980000
   23      GH     25.4421600000    28.5468310000    34.5535020000
   24      GH     25.4421600000    26.8781690000    29.8435020000
   25      H      27.1562370000    28.7870060000    40.0368840000
   26      GH     27.1562370000    26.6379940000    44.7468840000
   27      GH     23.7512370000    28.7870060000    40.0331160000
   28      GH     23.7512370000    26.6379940000    44.7431160000
   29      GH     20.5137630000    22.9429940000    44.7431160000
   30      GH     20.5137630000    25.0920060000    40.0331160000
   31      GH     23.9187630000    22.9429940000    44.7468840000
   32      GH     23.9187630000    25.0920060000    40.0368840000
   33      GH     21.9561210000    27.7435380000    38.4157020000
   34      GH     21.9561210000    27.6814620000    43.1257020000
   35      GH     25.3611210000    27.7435380000    41.6542980000
   36      GH     25.3611210000    27.6814620000    46.3642980000
   37      GH     25.7138790000    23.9864620000    46.3642980000
   38      GH     25.7138790000    24.0485380000    41.6542980000
   39      GH     22.3088790000    23.9864620000    43.1257020000
   40      GH     22.3088790000    24.0485380000    38.4157020000
   41      GH     25.6328400000    23.1831690000    39.2635020000
   42      GH     25.6328400000    24.8518310000    43.9735020000
   43      GH     22.2278400000    23.1831690000    40.8064980000
   44      GH     22.2278400000    24.8518310000    45.5164980000
   45      GH     22.0371600000    28.5468310000    45.5164980000
   46      GH     22.0371600000    26.8781690000    40.8064980000
   47      GH     25.4421600000    28.5468310000    43.9735020000
   48      GH     25.4421600000    26.8781690000    39.2635020000
   49      GH     27.1562370000    36.1770060000    30.6168840000
   50      GH     27.1562370000    34.0279940000    35.3268840000
   51      GH     23.7512370000    36.1770060000    30.6131160000
   52      GH     23.7512370000    34.0279940000    35.3231160000
   53      GH     20.5137630000    30.3329940000    35.3231160000
   54      GH     20.5137630000    32.4820060000    30.6131160000
   55      GH     23.9187630000    30.3329940000    35.3268840000
   56      GH     23.9187630000    32.4820060000    30.6168840000
   57      GH     21.9561210000    35.1335380000    28.9957020000
   58      GH     21.9561210000    35.0714620000    33.7057020000
   59      GH     25.3611210000    35.1335380000    32.2342980000
   60      GH     25.3611210000    35.0714620000    36.9442980000
   61      H      25.7138790000    31.3764620000    36.9442980000
   62      GH     25.7138790000    31.4385380000    32.2342980000
   63      GH     22.3088790000    31.3764620000    33.7057020000
   64      GH     22.3088790000    31.4385380000    28.9957020000
   65      GH     25.6328400000    30.5731690000    29.8435020000
   66      GH     25.6328400000    32.2418310000    34.5535020000
   67      GH     22.2278400000    30.5731690000    31.3864980000
   68      GH     22.2278400000    32.2418310000    36.0964980000
   69      GH     22.0371600000    35.9368310000    36.0964980000
   70      GH     22.0371600000    34.2681690000    31.3864980000
   71      GH     25.4421600000    35.9368310000    34.5535020000
   72      GH     25.4421600000    34.2681690000    29.8435020000
   73      GH     27.1562370000    36.1770060000    40.0368840000
   74      GH     27.1562370000    34.0279940000    44.7468840000
   75      GH     23.7512370000    36.1770060000    40.0331160000
   76      GH     23.7512370000    34.0279940000    44.7431160000
   77      GH     20.5137630000    30.3329940000    44.7431160000
   78      GH     20.5137630000    32.4820060000    40.0331160000
   79      GH     23.9187630000    30.3329940000    44.7468840000
   80      GH     23.9187630000    32.4820060000    40.0368840000
   81      GH     21.9561210000    35.1335380000    38.4157020000
   82      GH     21.9561210000    35.0714620000    43.1257020000
   83      GH     25.3611210000    35.1335380000    41.6542980000
   84      GH     25.3611210000    35.0714620000    46.3642980000
   85      GH     25.7138790000    31.3764620000    46.3642980000
   86      GH     25.7138790000    31.4385380000    41.6542980000
   87      GH     22.3088790000    31.3764620000    43.1257020000
   88      GH     22.3088790000    31.4385380000    38.4157020000
   89      H      25.6328400000    30.5731690000    39.2635020000
   90      GH     25.6328400000    32.2418310000    43.9735020000
   91      GH     22.2278400000    30.5731690000    40.8064980000
   92      GH     22.2278400000    32.2418310000    45.5164980000
   93      GH     22.0371600000    35.9368310000    45.5164980000
   94      GH     22.0371600000    34.2681690000    40.8064980000
   95      GH     25.4421600000    35.9368310000    43.9735020000
   96      GH     25.4421600000    34.2681690000    39.2635020000
   97      GH     33.9662370000    28.7870060000    30.6168840000
   98      GH     33.9662370000    26.6379940000    35.3268840000
   99      GH     30.5612370000    28.7870060000    30.6131160000
  100      GH     30.5612370000    26.6379940000    35.3231160000
  101      GH     27.3237630000    22.9429940000    35.3231160000
  102      GH     27.3237630000    25.0920060000    30.6131160000
  103      GH     30.7287630000    22.9429940000    35.3268840000
  104      GH     30.7287630000    25.0920060000    30.6168840000
  105      GH     28.7661210000    27.7435380000    28.9957020000
  106      GH     28.7661210000    27.6814620000    33.7057020000
  107      GH     32.1711210000    27.7435380000    32.2342980000
  108      GH     32.1711210000    27.6814620000    36.9442980000
  109      GH     32.5238790000    23.9864620000    36.9442980000
  110      GH     32.5238790000    24.0485380000    32.2342980000
  111      GH     29.1188790000    23.9864620000    33.7057020000
  112      GH     29.1188790000    24.0485380000    28.9957020000
  113      GH     32.4428400000    23.1831690000    29.8435020000
  114      GH     32.4428400000    24.8518310000    34.5535020000
  115      GH     29.0378400000    23.1831690000    31.3864980000
  116      GH     29.0378400000    24.8518310000    36.0964980000
  117      H      28.8471600000    28.5468310000    36.0964980000
  118      GH     28.8471600000    26.8781690000    31.3864980000
  119      GH     32.2521600000    28.5468310000    34.5535020000
  120      GH     32.2521600000    26.8781690000    29.8435020000
  121      GH     33.9662370000    28.7870060000    40.0368840000
  122      GH     33.9662370000    26.6379940000    44.7468840000
  123      GH     30.5612370000    28.7870060000    40.0331160000
  124      GH     30.5612370000    26.6379940000    44.7431160000
  125      GH     27.3237630000    22.9429940000    44.7431160000
  126      GH     27.3237630000    25.0920060000    40.0331160000
  127      GH     30.7287630000    22.9429940000    44.7468840000
  128      GH     30.7287630000    25.0920060000    40.0368840000
  129      H      28.7661210000    27.7435380000    38.4157020000
  130      GH     28.7661210000    27.6814620000    43.1257020000
  131      GH     32.1711210000    27.7435380000    41.6542980000
  132      GH     32.1711210000    27.6814620000    46.3642980000
  133      GH     32.5238790000    23.9864620000    46.3642980000
  134      GH     32.5238790000    24.0485380000    41.6542980000
  135      GH     29.1188790000    23.9864620000    43.1257020000
  136      GH     29.1188790000    24.0485380000    38.4157020000
  137      GH     32.4428400000    23.1831690000    39.2635020000
  138      GH     32.4428400000    24.8518310000    43.9735020000
  139      GH     29.0378400000    23.1831690000    40.8064980000
  140      GH     29.0378400000    24.8518310000    45.5164980000
  141      GH     28.8471600000    28.5468310000    45.5164980000
  142      GH     28.8471600000    26.8781690000    40.8064980000
  143      GH     32.2521600000    28.5468310000    43.9735020000
  144      GH     32.2521600000    26.8781690000    39.2635020000
  145      GH     33.9662370000    36.1770060000    30.6168840000
  146      GH     33.9662370000    34.0279940000    35.3268840000
  147      GH     30.5612370000    36.1770060000    30.6131160000
  148      GH     30.5612370000    34.0279940000    35.3231160000
  149      H      27.3237630000    30.3329940000    35.3231160000
  150      GH     27.3237630000    32.4820060000    30.6131160000
  151      GH     30.7287630000    30.3329940000    35.3268840000
  152      GH     30.7287630000    32.4820060000    30.6168840000
  153      GH     28.7661210000    35.1335380000    28.9957020000
  154      GH     28.7661210000    35.0714620000    33.7057020000
  155      GH     32.1711210000    35.1335380000    32.2342980000
  156      GH     32.1711210000    35.0714620000    36.9442980000
  157      GH     32.5238790000    31.3764620000    36.9442980000
  158      GH     32.5238790000    31.4385380000    32.2342980000
  159      GH     29.1188790000    31.3764620000    33.7057020000
  160      GH     29.1188790000    31.4385380000    28.9957020000
  161      GH     32.4428400000    30.5731690000    29.8435020000
  162      GH     32.4428400000    32.2418310000    34.5535020000
  163      GH     29.0378400000    30.5731690000    31.3864980000
  164      GH     29.0378400000    32.2418310000    36.0964980000
  165      GH     28.8471600000    35.9368310000    36.0964980000
  166      GH     28.8471600000    34.2681690000    31.3864980000
  167      GH     32.2521600000    35.9368310000    34.5535020000
  168      GH     32.2521600000    34.2681690000    29.8435020000
  169      GH     33.9662370000    36.1770060000    40.0368840000
  170      GH     33.9662370000    34.0279940000    44.7468840000
  171      GH     30.5612370000    36.1770060000    40.0331160000
  172      GH     30.5612370000    34.0279940000    44.7431160000
  173      GH     27.3237630000    30.3329940000    44.7431160000
  174      GH     27.3237630000    32.4820060000    40.0331160000
  175      GH     30.7287630000    30.3329940000    44.7468840000
  176      GH     30.7287630000    32.4820060000    40.0368840000
  177      GH     28.7661210000    35.1335380000    38.4157020000
  178      GH     28.7661210000    35.0714620000    43.1257020000
  179      GH     32.1711210000    35.1335380000    41.6542980000
  180      GH     32.1711210000    35.0714620000    46.3642980000
  181      GH     32.5238790000    31.3764620000    46.3642980000
  182      GH     32.5238790000    31.4385380000    41.6542980000
  183      GH     29.1188790000    31.3764620000    43.1257020000
  184      GH     29.1188790000    31.4385380000    38.4157020000
  185      GH     32.4428400000    30.5731690000    39.2635020000
  186      GH     32.4428400000    32.2418310000    43.9735020000
  187      GH     29.0378400000    30.5731690000    40.8064980000
  188      GH     29.0378400000    32.2418310000    45.5164980000
  189      GH     28.8471600000    35.9368310000    45.5164980000
  190      GH     28.8471600000    34.2681690000    40.8064980000
  191      GH     32.2521600000    35.9368310000    43.9735020000
  192      GH     32.2521600000    34.2681690000    39.2635020000
  193      GH     27.1930110000    29.1114270000    29.5722060000
  194      GH     27.1930110000    26.3135730000    34.2822060000
  195      GH     23.7880110000    29.1114270000    31.6577940000
  196      GH     23.7880110000    26.3135730000    36.3677940000
  197      GH     20.4769890000    22.6185730000    36.3677940000
  198      GH     20.4769890000    25.4164270000    31.6577940000
  199      GH     23.8819890000    22.6185730000    34.2822060000
  200      GH     23.8819890000    25.4164270000    29.5722060000
  201      GH     21.2880600000    28.5423970000    28.6810740000
  202      GH     21.2880600000    26.8826030000    33.3910740000
  203      GH     24.6930600000    28.5423970000    32.5489260000
  204      GH     24.6930600000    26.8826030000    37.2589260000
  205      GH     26.3819400000    23.1876030000    37.2589260000
  206      GH     26.3819400000    24.8473970000    32.5489260000
  207      GH     22.9769400000    23.1876030000    33.3910740000
  208      GH     22.9769400000    24.8473970000    28.6810740000
  209      GH     26.3376750000    22.7390300000    29.1624360000
  210      GH     26.3376750000    25.2959700000    33.8724360000
  211      GH     22.9326750000    22.7390300000    32.0675640000
  212      GH     22.9326750000    25.2959700000    36.7775640000
  213      GH     21.3323250000    28.9909700000    36.7775640000
  214      GH     21.3323250000    26.4340300000    32.0675640000
  215      GH     24.7373250000    28.9909700000    33.8724360000
  216      GH     24.7373250000    26.4340300000    29.1624360000
  217      C      27.1930110000    29.1114270000    38.9922060000
  218      GH     27.1930110000    26.3135730000    43.7022060000
  219      GH     23.7880110000    29.1114270000    41.0777940000
  220      GH     23.7880110000    26.3135730000    45.7877940000
  221      GH     20.4769890000    22.6185730000    45.7877940000
  222      GH     20.4769890000    25.4164270000    41.0777940000
  223      GH     23.8819890000    22.6185730000    43.7022060000
  224      GH     23.8819890000    25.4164270000    38.9922060000
  225      GH     21.2880600000    28.5423970000    38.1010740000
  226      GH     21.2880600000    26.8826030000    42.8110740000
  227      GH     24.6930600000    28.5423970000    41.9689260000
  228      GH     24.6930600000    26.8826030000    46.6789260000
  229      GH     26.3819400000    23.1876030000    46.6789260000
  230      GH     26.3819400000    24.8473970000    41.9689260000
  231      GH     22.9769400000    23.1876030000    42.8110740000
  232      GH     22.9769400000    24.8473970000    38.1010740000
  233      GH     26.3376750000    22.7390300000    38.5824360000
  234      GH     26.3376750000    25.2959700000    43.2924360000
  235      GH     22.9326750000    22.7390300000    41.4875640000
  236      GH     22.9326750000    25.2959700000    46.1975640000
  237      GH     21.3323250000    28.9909700000    46.1975640000
  238      GH     21.3323250000    26.4340300000    41.4875640000
  239      GH     24.7373250000    28.9909700000    43.2924360000
  240      GH     24.7373250000    26.4340300000    38.5824360000
  241      GH     27.1930110000    36.5014270000    29.5722060000
  242      GH     27.1930110000    33.7035730000    34.2822060000
  243      GH     23.7880110000    36.5014270000    31.6577940000
  244      GH     23.7880110000    33.7035730000    36.3677940000
  245      GH     20.4769890000    30.0085730000    36.3677940000
  246      GH     20.4769890000    32.8064270000    31.6577940000
  247      GH     23.8819890000    30.0085730000    34.2822060000
  248      GH     23.8819890000    32.8064270000    29.5722060000
  249      GH     21.2880600000    35.9323970000    28.6810740000
  250      GH     21.2880600000    34.2726030000    33.3910740000
  251      GH     24.6930600000    35.9323970000    32.5489260000
  252      GH     24.6930600000    34.2726030000    37.2589260000
  253      C      26.3819400000    30.5776030000    37.2589260000
  254      GH     26.3819400000    32.2373970000    32.5489260000
  255      GH     22.9769400000    30.5776030000    33.3910740000
  256      GH     22.9769400000    32.2373970000    28.6810740000
  257      GH     26.3376750000    30.1290300000    29.1624360000
  258      GH     26.3376750000    32.6859700000    33.8724360000
  259      GH     22.9326750000    30.1290300000    32.0675640000
  260      GH     22.9326750000    32.6859700000    36.7775640000
  261      GH     21.3323250000    36.3809700000    36.7775640000
  262      GH     21.3323250000    33.8240300000    32.0675640000
  263      GH     24.7373250000    36.3809700000    33.8724360000
  264      GH     24.7373250000    33.8240300000    29.1624360000
  265      GH     27.1930110000    36.5014270000    38.9922060000
  266      GH     27.1930110000    33.7035730000    43.7022060000
  267      GH     23.7880110000    36.5014270000    41.0777940000
  268      GH     23.7880110000    33.7035730000    45.7877940000
  269      GH     20.4769890000    30.0085730000    45.7877940000
  270      GH     20.4769890000    32.8064270000    41.0777940000
  271      GH     23.8819890000    30.0085730000    43.7022060000
  272      GH     23.8819890000    32.8064270000    38.9922060000
  273      GH     21.2880600000    35.9323970000    38.1010740000
  274      GH     21.2880600000    34.2726030000    42.8110740000
  275      GH     24.6930600000    35.9323970000    41.9689260000
  276      GH     24.6930600000    34.2726030000    46.6789260000
  277      GH     26.3819400000    30.5776030000    46.6789260000
  278      GH     26.3819400000    32.2373970000    41.9689260000
  279      GH     22.9769400000    30.5776030000    42.8110740000
  280      GH     22.9769400000    32.2373970000    38.1010740000
  281      C      26.3376750000    30.1290300000    38.5824360000
  282      GH     26.3376750000    32.6859700000    43.2924360000
  283      GH     22.9326750000    30.1290300000    41.4875640000
  284      GH     22.9326750000    32.6859700000    46.1975640000
  285      GH     21.3323250000    36.3809700000    46.1975640000
  286      GH     21.3323250000    33.8240300000    41.4875640000
  287      GH     24.7373250000    36.3809700000    43.2924360000
  288      GH     24.7373250000    33.8240300000    38.5824360000
  289      GH     34.0030110000    29.1114270000    29.5722060000
  290      GH     34.0030110000    26.3135730000    34.2822060000
  291      GH     30.5980110000    29.1114270000    31.6577940000
  292      GH     30.5980110000    26.3135730000    36.3677940000
  293      GH     27.2869890000    22.6185730000    36.3677940000
  294      GH     27.2869890000    25.4164270000    31.6577940000
  295      GH     30.6919890000    22.6185730000    34.2822060000
  296      GH     30.6919890000    25.4164270000    29.5722060000
  297      GH     28.0980600000    28.5423970000    28.6810740000
  298      GH     28.0980600000    26.8826030000    33.3910740000
  299      GH     31.5030600000    28.5423970000    32.5489260000
  300      GH     31.5030600000    26.8826030000    37.2589260000
  301      GH     33.1919400000    23.1876030000    37.2589260000
  302      GH     33.1919400000    24.8473970000    32.5489260000
  303      GH     29.7869400000    23.1876030000    33.3910740000
  304      GH     29.7869400000    24.8473970000    28.6810740000
  305      GH     33.1476750000    22.7390300000    29.1624360000
  306      GH     33.1476750000    25.2959700000    33.8724360000
  307      GH     29.7426750000    22.7390300000    32.0675640000
  308      GH     29.7426750000    25.2959700000    36.7775640000
  309      C      28.1423250000    28.9909700000    36.7775640000
  310      GH     28.1423250000    26.4340300000    32.0675640000
  311      GH     31.5473250000    28.9909700000    33.8724360000
  312      GH     31.5473250000    26.4340300000    29.1624360000
  313      GH     34.0030110000    29.1114270000    38.9922060000
  314      GH     34.0030110000    26.3135730000    43.7022060000
  315      GH     30.5980110000    29.1114270000    41.0777940000
  316      GH     30.5980110000    26.3135730000    45.7877940000
  317      GH     27.2869890000    22.6185730000    45.7877940000
  318      GH     27.2869890000    25.4164270000    41.0777940000
  319      GH     30.6919890000    22.6185730000    43.7022060000
  320      GH     30.6919890000    25.4164270000    38.9922060000
  321      C      28.0980600000    28.5423970000    38.1010740000
  322      GH     28.0980600000    26.8826030000    42.8110740000
  323      GH     31.5030600000    28.5423970000    41.9689260000
  324      GH     31.5030600000    26.8826030000    46.6789260000
  325      GH     33.1919400000    23.1876030000    46.6789260000
  326      GH     33.1919400000    24.8473970000    41.9689260000
  327      GH     29.7869400000    23.1876030000    42.8110740000
  328      GH     29.7869400000    24.8473970000    38.1010740000
  329      GH     33.1476750000    22.7390300000    38.5824360000
  330      GH     33.1476750000    25.2959700000    43.2924360000
  331      GH     29.7426750000    22.7390300000    41.4875640000
  332      GH     29.7426750000    25.2959700000    46.1975640000
  333      GH     28.1423250000    28.9909700000    46.1975640000
  334      GH     28.1423250000    26.4340300000    41.4875640000
  335      GH     31.5473250000    28.9909700000    43.2924360000
  336      GH     31.5473250000    26.4340300000    38.5824360000
  337      GH     34.0030110000    36.5014270000    29.5722060000
  338      GH     34.0030110000    33.7035730000    34.2822060000
  339      GH     30.5980110000    36.5014270000    31.6577940000
  340      GH     30.5980110000    33.7035730000    36.3677940000
  341      C      27.2869890000    30.0085730000    36.3677940000
  342      GH     27.2869890000    32.8064270000    31.6577940000
  343      GH     30.6919890000    30.0085730000    34.2822060000
  344      GH     30.6919890000    32.8064270000    29.5722060000
  345      GH     28.0980600000    35.9323970000    28.6810740000
  346      GH     28.0980600000    34.2726030000    33.3910740000
  347      GH     31.5030600000    35.9323970000    32.5489260000
  348      GH     31.5030600000    34.2726030000    37.2589260000
  349      GH     33.1919400000    30.5776030000    37.2589260000
  350      GH     33.1919400000    32.2373970000    32.5489260000
  351      GH     29.7869400000    30.5776030000    33.3910740000
  352      GH     29.7869400000    32.2373970000    28.6810740000
  353      GH     33.1476750000    30.1290300000    29.1624360000
  354      GH     33.1476750000    32.6859700000    33.8724360000
  355      GH     29.7426750000    30.1290300000    32.0675640000
  356      GH     29.7426750000    32.6859700000    36.7775640000
  357      GH     28.1423250000    36.3809700000    36.7775640000
  358      GH     28.1423250000    33.8240300000    32.0675640000
  359      GH     31.5473250000    36.3809700000    33.8724360000
  360      GH     31.5473250000    33.8240300000    29.1624360000
  361      GH     34.0030110000    36.5014270000    38.9922060000
  362      GH     34.0030110000    33.7035730000    43.7022060000
  363      GH     30.5980110000    36.5014270000    41.0777940000
  364      GH     30.5980110000    33.7035730000    45.7877940000
  365      GH     27.2869890000    30.0085730000    45.7877940000
  366      GH     27.2869890000    32.8064270000    41.0777940000
  367      GH     30.6919890000    30.0085730000    43.7022060000
  368      GH     30.6919890000    32.8064270000    38.9922060000
  369      GH     28.0980600000    35.9323970000    38.1010740000
  370      GH     28.0980600000    34.2726030000    42.8110740000
  371      GH     31.5030600000    35.9323970000    41.9689260000
  372      GH     31.5030600000    34.2726030000    46.6789260000
  373      GH     33.1919400000    30.5776030000    46.6789260000
  374      GH     33.1919400000    32.2373970000    41.9689260000
  375      GH     29.7869400000    30.5776030000    42.8110740000
  376      GH     29.7869400000    32.2373970000    38.1010740000
  377      GH     33.1476750000    30.1290300000    38.5824360000
  378      GH     33.1476750000    32.6859700000    43.2924360000
  379      GH     29.7426750000    30.1290300000    41.4875640000
  380      GH     29.7426750000    32.6859700000    46.1975640000
  381      GH     28.1423250000    36.3809700000    46.1975640000
  382      GH     28.1423250000    33.8240300000    41.4875640000
  383      GH     31.5473250000    36.3809700000    43.2924360000
  384      GH     31.5473250000    33.8240300000    38.5824360000
 ----------------------------------------------------------------
 Nuclear Repulsion Energy =         203.57104171 hartrees
 There are       21 alpha and       21 beta electrons
 Requested basis set is cc-pVDZ
 There are 1728 shells and 3648 basis functions

 Q-Chem warning in module libmdc/get_mega.C, line 166:

 Allowed MEM_STATIC has been capped at MEM_STATIC=8191.
 Reduce the value of MEM_STATIC to silence this warning.


 Total QAlloc Memory Limit 100000 MB
 Mega-Array Size      8007 MB
 MEM_STATIC part      8191 MB

 A cutoff of  1.0D-14 yielded 373453 shell pairs
 There are   1465377 function pairs (   1589958 Cartesian)
 Requested basis set is cc-pVTZ-JK
 There are 6720 shells and 20928 basis functions
 Smallest overlap matrix eigenvalue = 2.33E-04

 Scale SEOQF with 1.000000e-03/1.000000e-03/1.000000e-03

 Standard Electronic Orientation quadrupole field applied
 Nucleus-field energy     =    -0.0000000266 hartrees
 Guess from superposition of atomic densities
 Warning:  Energy on first SCF cycle will be non-variational
 SAD guess density has 42.000000 electrons

 -----------------------------------------------------------------------
  General SCF calculation program by
  Eric Jon Sundstrom, Paul Horn, Yuezhi Mao, Dmitri Zuev, Alec White,
  David Stuck, Shaama M.S., Shane Yost, Joonho Lee, David Small,
  Daniel Levine, Susi Lehtola, Hugh Burton, Evgeny Epifanovsky,
  Bang C. Huynh
 -----------------------------------------------------------------------
 Exchange:  PBE      Correlation:  PBE
 Using SG-1 standard quadrature grid
 Dispersion:   Grimme D3
 -------------------------------------------------------
 OpenMP BLAS3 based DFT computing Module                
 Release: version 1.0, May 2013, Q-Chem Inc. Pittsburgh 
 -------------------------------------------------------
 A restricted SCF calculation will be
 performed using Roothaan-Hall, GDM
 SCF converges when RMS gradient is below 1.0e-05
 ---------------------------------------
  Cycle       Energy         DIIS error
 ---------------------------------------
    1    -232.9938407347      2.21e-03  Roothaan Step
 ---------------------------------------
  Cycle       Energy        RMS Gradient
 ---------------------------------------
    1    -231.8029125025      7.86e-02   Descent step
    2    -231.9402113297      4.40e-02   Normal BFGS step
    3    -231.9640001762      5.69e-03   Normal BFGS step
    4    -231.9653156617      4.13e-03   Normal BFGS step
    5    -231.9655172907      4.49e-03   Normal BFGS step
    6    -231.9655090666      4.17e-03  Line search: overstep
    7    -231.9655469866      6.58e-04   Normal BFGS step
    8    -231.9655512092      8.39e-05   Normal BFGS step
    9    -231.9655513248      1.82e-06  Convergence criterion met
 ---------------------------------------
 SCF time:   CPU 205300.04s  wall 6658.00s 
 SCF   energy in the final basis set =     -231.9655513248
 Total energy in the final basis set =     -231.9655513248

 --------------------------------------------------------------

                    Orbital Energies (a.u.)
 --------------------------------------------------------------

 Alpha MOs
 -- Occupied --
 -9.9027  -9.9027  -9.9024  -9.9024  -9.9012  -9.9012  -0.7810  -0.6789
 -0.6774  -0.5450  -0.5439  -0.4721  -0.4103  -0.3991  -0.3752  -0.3729
 -0.3317  -0.3039  -0.2968  -0.2312  -0.2304
 -- Virtual --
 -0.0419  -0.0395  -0.0138   0.0050   0.0061   0.0206   0.0253   0.0271
  0.0321   0.0358   0.0420   0.0437   0.0468   0.0472   0.0517   0.0528
  0.0571   0.0576   0.0606   0.0610   0.0626   0.0638   0.0657   0.0717
  0.0739   0.0745   0.0761   0.0778   0.0797   0.0801   0.0808   0.0817
  0.0862   0.0889   0.0901   0.0918   0.0926   0.0938   0.0943   0.0971
  0.0984   0.1008   0.1014   0.1022   0.1039   0.1046   0.1083   0.1097
  0.1099   0.1123   0.1133   0.1152   0.1168   0.1177   0.1206   0.1209
  0.1219   0.1229   0.1245   0.1275   0.1283   0.1292   0.1304   0.1317
  0.1322   0.1335   0.1339   0.1339   0.1377   0.1388   0.1412   0.1419
  0.1439   0.1451   0.1464   0.1481   0.1482   0.1498   0.1523   0.1530
  0.1549   0.1550   0.1551   0.1559   0.1584   0.1593   0.1595   0.1623
  0.1627   0.1640   0.1647   0.1659   0.1669   0.1687   0.1692   0.1702
  0.1704   0.1725   0.1738   0.1755   0.1766   0.1780   0.1785   0.1789
  0.1796   0.1800   0.1825   0.1843   0.1847   0.1855   0.1869   0.1870
  0.1883   0.1885   0.1905   0.1911   0.1926   0.1928   0.1957   0.1957
  0.1979   0.1984   0.1985   0.2005   0.2008   0.2011   0.2023   0.2040
  0.2067   0.2072   0.2091   0.2091   0.2093   0.2104   0.2120   0.2130
  0.2149   0.2153   0.2163   0.2168   0.2180   0.2186   0.2197   0.2203
  0.2209   0.2221   0.2233   0.2246   0.2251   0.2273   0.2277   0.2286
  0.2292   0.2299   0.2313   0.2317   0.2329   0.2359   0.2359   0.2366
  0.2374   0.2380   0.2395   0.2412   0.2412   0.2417   0.2429   0.2430
  0.2438   0.2447   0.2477   0.2480   0.2482   0.2494   0.2512   0.2513
  0.2528   0.2537   0.2547   0.2552   0.2582   0.2596   0.2604   0.2619
  0.2621   0.2635   0.2669   0.2674   0.2680   0.2684   0.2706   0.2709
  0.2720   0.2731   0.2746   0.2756   0.2757   0.2764   0.2778   0.2781
  0.2789   0.2797   0.2811   0.2835   0.2844   0.2863   0.2868   0.2888
  0.2891   0.2902   0.2904   0.2911   0.2918   0.2935   0.2943   0.2963
  0.2966   0.2979   0.2983   0.2987   0.2994   0.3004   0.3018   0.3032
  0.3039   0.3043   0.3053   0.3054   0.3074   0.3084   0.3085   0.3092
  0.3093   0.3113   0.3117   0.3135   0.3141   0.3157   0.3157   0.3178
  0.3188   0.3192   0.3192   0.3203   0.3215   0.3220   0.3231   0.3236
  0.3242   0.3247   0.3263   0.3275   0.3280   0.3284   0.3286   0.3294
  0.3310   0.3318   0.3326   0.3337   0.3347   0.3349   0.3362   0.3363
  0.3367   0.3390   0.3390   0.3391   0.3412   0.3415   0.3423   0.3425
  0.3430   0.3436   0.3447   0.3462   0.3472   0.3478   0.3482   0.3489
  0.3494   0.3496   0.3521   0.3528   0.3540   0.3542   0.3549   0.3570
  0.3572   0.3574   0.3583   0.3584   0.3605   0.3606   0.3607   0.3622
  0.3627   0.3640   0.3647   0.3653   0.3659   0.3668   0.3676   0.3682
  0.3687   0.3703   0.3708   0.3717   0.3718   0.3724   0.3728   0.3734
  0.3759   0.3765   0.3771   0.3772   0.3780   0.3788   0.3800   0.3802
  0.3809   0.3815   0.3832   0.3839   0.3840   0.3845   0.3855   0.3860
  0.3879   0.3886   0.3899   0.3905   0.3910   0.3914   0.3920   0.3926
  0.3934   0.3937   0.3940   0.3945   0.3954   0.3960   0.3973   0.3979
  0.3991   0.4001   0.4003   0.4014   0.4021   0.4022   0.4025   0.4038
  0.4046   0.4051   0.4063   0.4069   0.4073   0.4092   0.4095   0.4103
  0.4109   0.4111   0.4125   0.4143   0.4146   0.4151   0.4159   0.4174
  0.4175   0.4188   0.4191   0.4198   0.4218   0.4219   0.4229   0.4231
  0.4247   0.4250   0.4256   0.4260   0.4271   0.4289   0.4295   0.4300
  0.4303   0.4312   0.4317   0.4325   0.4334   0.4343   0.4357   0.4368
  0.4377   0.4380   0.4383   0.4383   0.4392   0.4397   0.4411   0.4422
  0.4425   0.4434   0.4435   0.4454   0.4457   0.4471   0.4477   0.4484
  0.4493   0.4496   0.4508   0.4508   0.4520   0.4521   0.4538   0.4539
  0.4548   0.4550   0.4563   0.4569   0.4572   0.4575   0.4580   0.4584
  0.4593   0.4615   0.4623   0.4625   0.4631   0.4652   0.4653   0.4657
  0.4669   0.4675   0.4681   0.4697   0.4697   0.4703   0.4707   0.4711
  0.4719   0.4727   0.4739   0.4762   0.4763   0.4771   0.4783   0.4790
  0.4791   0.4800   0.4810   0.4816   0.4823   0.4825   0.4842   0.4853
  0.4857   0.4860   0.4869   0.4874   0.4883   0.4889   0.4908   0.4910
  0.4911   0.4923   0.4927   0.4929   0.4942   0.4945   0.4965   0.4967
  0.4975   0.4978   0.4985   0.4991   0.4992   0.5005   0.5006   0.5015
  0.5024   0.5032   0.5040   0.5046   0.5053   0.5063   0.5066   0.5074
  0.5083   0.5083   0.5098   0.5106   0.5114   0.5114   0.5124   0.5139
  0.5143   0.5154   0.5156   0.5166   0.5169   0.5171   0.5181   0.5191
  0.5195   0.5197   0.5210   0.5220   0.5238   0.5238   0.5250   0.5252
  0.5254   0.5266   0.5268   0.5272   0.5283   0.5287   0.5308   0.5316
  0.5324   0.5325   0.5332   0.5340   0.5352   0.5357   0.5379   0.5382
  0.5398   0.5400   0.5401   0.5409   0.5415   0.5428   0.5442   0.5452
  0.5453   0.5460   0.5475   0.5483   0.5486   0.5503   0.5505   0.5511
  0.5519   0.5527   0.5531   0.5533   0.5545   0.5547   0.5547   0.5561
  0.5561   0.5581   0.5594   0.5603   0.5612   0.5613   0.5614   0.5621
  0.5629   0.5642   0.5648   0.5672   0.5681   0.5685   0.5690   0.5693
  0.5706   0.5711   0.5719   0.5724   0.5734   0.5743   0.5751   0.5754
  0.5775   0.5793   0.5796   0.5802   0.5804   0.5809   0.5812   0.5829
  0.5834   0.5845   0.5848   0.5856   0.5859   0.5868   0.5876   0.5894
  0.5894   0.5903   0.5914   0.5933   0.5935   0.5941   0.5954   0.5954
  0.5969   0.5980   0.5990   0.5992   0.6002   0.6006   0.6015   0.6018
  0.6041   0.6043   0.6046   0.6052   0.6063   0.6072   0.6094   0.6106
  0.6114   0.6120   0.6130   0.6138   0.6144   0.6146   0.6151   0.6169
  0.6186   0.6189   0.6204   0.6223   0.6224   0.6232   0.6238   0.6251
  0.6268   0.6271   0.6277   0.6292   0.6300   0.6320   0.6330   0.6343
  0.6346   0.6357   0.6376   0.6381   0.6391   0.6397   0.6406   0.6421
  0.6421   0.6446   0.6453   0.6471   0.6493   0.6494   0.6501   0.6510
  0.6520   0.6527   0.6543   0.6546   0.6550   0.6561   0.6592   0.6598
  0.6613   0.6640   0.6643   0.6656   0.6663   0.6675   0.6690   0.6696
  0.6719   0.6741   0.6749   0.6754   0.6756   0.6773   0.6790   0.6798
  0.6817   0.6830   0.6835   0.6842   0.6858   0.6858   0.6867   0.6868
  0.6882   0.6901   0.6911   0.6924   0.6930   0.6930   0.6940   0.6941
  0.6946   0.6953   0.6977   0.6979   0.6992   0.7005   0.7020   0.7020
  0.7036   0.7045   0.7045   0.7050   0.7059   0.7062   0.7081   0.7084
  0.7095   0.7099   0.7100   0.7112   0.7125   0.7133   0.7145   0.7147
  0.7153   0.7161   0.7167   0.7186   0.7188   0.7197   0.7201   0.7203
  0.7216   0.7237   0.7242   0.7264   0.7269   0.7272   0.7272   0.7278
  0.7284   0.7290   0.7302   0.7305   0.7308   0.7327   0.7342   0.7345
  0.7348   0.7365   0.7371   0.7381   0.7389   0.7398   0.7411   0.7414
  0.7421   0.7432   0.7432   0.7440   0.7446   0.7449   0.7461   0.7464
  0.7471   0.7478   0.7480   0.7490   0.7505   0.7520   0.7528   0.7531
  0.7537   0.7548   0.7561   0.7567   0.7581   0.7586   0.7594   0.7606
  0.7616   0.7626   0.7639   0.7645   0.7646   0.7654   0.7663   0.7687
  0.7691   0.7698   0.7704   0.7710   0.7719   0.7736   0.7737   0.7742
  0.7742   0.7749   0.7751   0.7759   0.7776   0.7776   0.7780   0.7789
  0.7789   0.7810   0.7811   0.7820   0.7832   0.7843   0.7843   0.7858
  0.7870   0.7870   0.7892   0.7901   0.7916   0.7921   0.7927   0.7932
  0.7950   0.7952   0.7952   0.7983   0.7993   0.7995   0.8004   0.8029
  0.8030   0.8036   0.8038   0.8052   0.8061   0.8064   0.8073   0.8085
  0.8089   0.8110   0.8117   0.8121   0.8126   0.8140   0.8145   0.8147
  0.8166   0.8178   0.8185   0.8194   0.8209   0.8224   0.8231   0.8246
  0.8247   0.8283   0.8290   0.8290   0.8298   0.8308   0.8318   0.8326
  0.8334   0.8343   0.8369   0.8371   0.8373   0.8381   0.8393   0.8398
  0.8417   0.8432   0.8449   0.8459   0.8466   0.8468   0.8484   0.8484
  0.8507   0.8525   0.8530   0.8534   0.8559   0.8566   0.8578   0.8584
  0.8614   0.8619   0.8665   0.8670   0.8683   0.8699   0.8727   0.8728
  0.8749   0.8791   0.8819   0.8852   0.8872   0.8896   0.8904   0.8947
  0.8995   0.9005   0.9047   0.9066   0.9097   0.9109   0.9162   0.9172
  0.9200   0.9218   0.9233   0.9236   0.9302   0.9305   0.9339   0.9362
  0.9392   0.9397   0.9434   0.9437   0.9480   0.9517   0.9553   0.9560
  0.9588   0.9591   0.9636   0.9654   0.9676   0.9707   0.9713   0.9735
  0.9774   0.9804   0.9813   0.9839   0.9855   0.9874   0.9874   0.9893
  0.9911   0.9919   0.9937   0.9960   0.9980   0.9990   1.0010   1.0019
  1.0033   1.0063   1.0117   1.0124   1.0139   1.0141   1.0185   1.0202
  1.0228   1.0256   1.0324   1.0357   1.0430   1.0483   1.0525   1.0617
  1.0647   1.0692   1.1141   1.1213   1.1384   1.1615   1.1685   1.1730
  1.1793   1.1838   1.1875   1.1901   1.1907   1.1980   1.2024   1.2172
  1.2203   1.2293   1.2333   1.2724   1.2839   1.3741   1.3776   1.3798
  1.3820   1.3840   1.3873   1.3878   1.3898   1.3900   1.3910   1.3917
  1.3940   1.3946   1.3952   1.3973   1.3978   1.3978   1.3983   1.4007
  1.4013   1.4018   1.4038   1.4045   1.4059   1.4061   1.4068   1.4080
  1.4091   1.4104   1.4123   1.4131   1.4162   1.4191   1.4201   1.4205
  1.4229   1.4262   1.4271   1.4279   1.4300   1.4302   1.4318   1.4319
  1.4337   1.4350   1.4353   1.4355   1.4390   1.4390   1.4398   1.4402
  1.4410   1.4424   1.4439   1.4456   1.4465   1.4520   1.4524   1.4540
  1.4541   1.4602   1.4652   1.4749   1.4775   1.4857   1.4930   1.4945
  1.4962   1.4971   1.4996   1.4998   1.5025   1.5054   1.5079   1.5088
  1.5146   1.5149   1.5155   1.5198   1.5222   1.5227   1.5237   1.5254
  1.5302   1.5305   1.5313   1.5339   1.5364   1.5367   1.5370   1.5428
  1.5443   1.5445   1.5466   1.5477   1.5507   1.5507   1.5512   1.5529
  1.5533   1.5548   1.5554   1.5572   1.5585   1.5592   1.5603   1.5606
  1.5612   1.5624   1.5626   1.5636   1.5640   1.5664   1.5671   1.5672
  1.5680   1.5690   1.5695   1.5710   1.5732   1.5758   1.5762   1.5780
  1.5796   1.5811   1.5821   1.5823   1.5865   1.5873   1.5889   1.5892
  1.5918   1.5926   1.5942   1.5944   1.5950   1.5963   1.5983   1.5988
  1.5993   1.6002   1.6009   1.6039   1.6046   1.6053   1.6055   1.6077
  1.6091   1.6091   1.6094   1.6101   1.6116   1.6130   1.6137   1.6144
  1.6156   1.6167   1.6169   1.6180   1.6189   1.6213   1.6219   1.6227
  1.6228   1.6243   1.6247   1.6253   1.6262   1.6263   1.6278   1.6279
  1.6308   1.6314   1.6316   1.6323   1.6338   1.6339   1.6347   1.6350
  1.6375   1.6390   1.6399   1.6407   1.6414   1.6415   1.6424   1.6426
  1.6437   1.6439   1.6445   1.6455   1.6459   1.6469   1.6490   1.6509
  1.6515   1.6525   1.6526   1.6532   1.6537   1.6552   1.6561   1.6564
  1.6584   1.6587   1.6596   1.6616   1.6624   1.6644   1.6650   1.6654
  1.6678   1.6682   1.6687   1.6692   1.6706   1.6726   1.6728   1.6734
  1.6755   1.6767   1.6768   1.6773   1.6794   1.6802   1.6803   1.6810
  1.6812   1.6819   1.6833   1.6846   1.6849   1.6857   1.6879   1.6881
  1.6890   1.6903   1.6909   1.6914   1.6930   1.6942   1.6947   1.6955
  1.6960   1.6979   1.6991   1.6993   1.6995   1.6999   1.7018   1.7019
  1.7028   1.7039   1.7051   1.7057   1.7060   1.7075   1.7081   1.7090
  1.7093   1.7100   1.7107   1.7113   1.7116   1.7131   1.7149   1.7157
  1.7160   1.7167   1.7181   1.7191   1.7194   1.7206   1.7209   1.7221
  1.7229   1.7231   1.7237   1.7255   1.7260   1.7269   1.7284   1.7289
  1.7297   1.7300   1.7303   1.7306   1.7319   1.7321   1.7325   1.7326
  1.7338   1.7343   1.7354   1.7357   1.7360   1.7376   1.7376   1.7379
  1.7386   1.7388   1.7395   1.7400   1.7412   1.7414   1.7427   1.7427
  1.7439   1.7443   1.7449   1.7467   1.7468   1.7470   1.7483   1.7487
  1.7502   1.7508   1.7514   1.7523   1.7523   1.7527   1.7530   1.7539
  1.7549   1.7559   1.7560   1.7573   1.7576   1.7576   1.7588   1.7603
  1.7614   1.7624   1.7627   1.7633   1.7638   1.7646   1.7647   1.7652
  1.7660   1.7673   1.7673   1.7689   1.7690   1.7701   1.7708   1.7713
  1.7724   1.7732   1.7738   1.7743   1.7752   1.7756   1.7769   1.7776
  1.7782   1.7788   1.7791   1.7798   1.7801   1.7806   1.7814   1.7814
  1.7818   1.7829   1.7830   1.7830   1.7835   1.7841   1.7849   1.7849
  1.7853   1.7856   1.7857   1.7861   1.7865   1.7872   1.7875   1.7882
  1.7893   1.7897   1.7897   1.7905   1.7910   1.7916   1.7918   1.7923
  1.7935   1.7939   1.7942   1.7944   1.7946   1.7954   1.7958   1.7961
  1.7967   1.7972   1.7981   1.7981   1.7993   1.7996   1.8000   1.8008
  1.8017   1.8026   1.8029   1.8032   1.8035   1.8046   1.8048   1.8050
  1.8053   1.8058   1.8068   1.8069   1.8076   1.8083   1.8087   1.8088
  1.8101   1.8103   1.8108   1.8114   1.8121   1.8122   1.8132   1.8136
  1.8148   1.8148   1.8154   1.8156   1.8161   1.8164   1.8169   1.8171
  1.8175   1.8177   1.8184   1.8185   1.8189   1.8202   1.8206   1.8206
  1.8210   1.8211   1.8214   1.8222   1.8222   1.8227   1.8233   1.8235
  1.8241   1.8241   1.8246   1.8246   1.8256   1.8261   1.8265   1.8266
  1.8266   1.8274   1.8287   1.8292   1.8296   1.8302   1.8305   1.8307
  1.8312   1.8313   1.8319   1.8321   1.8327   1.8330   1.8331   1.8340
  1.8341   1.8347   1.8352   1.8363   1.8364   1.8372   1.8375   1.8378
  1.8384   1.8394   1.8403   1.8404   1.8406   1.8412   1.8413   1.8418
  1.8431   1.8435   1.8444   1.8448   1.8451   1.8456   1.8458   1.8461
  1.8473   1.8478   1.8481   1.8486   1.8490   1.8496   1.8506   1.8508
  1.8512   1.8515   1.8525   1.8530   1.8531   1.8532   1.8546   1.8549
  1.8551   1.8561   1.8569   1.8577   1.8579   1.8586   1.8593   1.8599
  1.8600   1.8603   1.8612   1.8630   1.8632   1.8650   1.8650   1.8656
  1.8657   1.8667   1.8671   1.8673   1.8687   1.8691   1.8695   1.8698
  1.8714   1.8716   1.8722   1.8724   1.8727   1.8732   1.8736   1.8742
  1.8750   1.8761   1.8765   1.8776   1.8784   1.8795   1.8795   1.8801
  1.8807   1.8811   1.8821   1.8825   1.8830   1.8831   1.8832   1.8849
  1.8858   1.8860   1.8867   1.8870   1.8883   1.8885   1.8902   1.8907
  1.8914   1.8917   1.8920   1.8930   1.8933   1.8939   1.8945   1.8958
  1.8958   1.8966   1.8969   1.8979   1.8981   1.8988   1.9005   1.9007
  1.9016   1.9020   1.9030   1.9034   1.9041   1.9046   1.9050   1.9052
  1.9061   1.9066   1.9073   1.9087   1.9090   1.9094   1.9101   1.9105
  1.9109   1.9114   1.9117   1.9123   1.9141   1.9142   1.9154   1.9157
  1.9166   1.9177   1.9177   1.9187   1.9189   1.9207   1.9207   1.9216
  1.9223   1.9232   1.9233   1.9236   1.9245   1.9246   1.9252   1.9256
  1.9260   1.9261   1.9272   1.9273   1.9278   1.9291   1.9292   1.9300
  1.9310   1.9311   1.9319   1.9326   1.9339   1.9342   1.9363   1.9367
  1.9374   1.9387   1.9391   1.9400   1.9416   1.9418   1.9423   1.9425
  1.9431   1.9437   1.9452   1.9457   1.9458   1.9471   1.9476   1.9484
  1.9485   1.9511   1.9521   1.9528   1.9536   1.9537   1.9541   1.9559
  1.9568   1.9573   1.9575   1.9579   1.9590   1.9599   1.9607   1.9620
  1.9629   1.9633   1.9641   1.9647   1.9651   1.9660   1.9673   1.9683
  1.9690   1.9694   1.9697   1.9704   1.9712   1.9716   1.9726   1.9736
  1.9742   1.9749   1.9758   1.9762   1.9780   1.9784   1.9802   1.9807
  1.9811   1.9812   1.9826   1.9831   1.9839   1.9842   1.9850   1.9857
  1.9864   1.9883   1.9891   1.9891   1.9906   1.9912   1.9915   1.9915
  1.9932   1.9940   1.9945   1.9962   1.9965   1.9968   1.9979   1.9981
  1.9989   1.9991   1.9995   2.0009   2.0013   2.0020   2.0040   2.0054
  2.0062   2.0070   2.0080   2.0087   2.0089   2.0089   2.0110   2.0112
  2.0125   2.0135   2.0142   2.0148   2.0151   2.0157   2.0163   2.0163
  2.0184   2.0188   2.0202   2.0211   2.0217   2.0218   2.0223   2.0236
  2.0243   2.0245   2.0254   2.0262   2.0266   2.0274   2.0287   2.0291
  2.0299   2.0315   2.0328   2.0349   2.0349   2.0356   2.0363   2.0391
  2.0395   2.0403   2.0423   2.0425   2.0439   2.0439   2.0440   2.0481
  2.0487   2.0500   2.0504   2.0507   2.0513   2.0529   2.0539   2.0566
  2.0578   2.0590   2.0601   2.0610   2.0623   2.0633   2.0633   2.0642
  2.0647   2.0673   2.0676   2.0686   2.0694   2.0697   2.0708   2.0721
  2.0740   2.0756   2.0762   2.0775   2.0780   2.0793   2.0802   2.0810
  2.0818   2.0840   2.0842   2.0857   2.0869   2.0874   2.0885   2.0885
  2.0894   2.0899   2.0910   2.0910   2.0921   2.0935   2.0945   2.0960
  2.0973   2.0976   2.0982   2.1001   2.1018   2.1020   2.1023   2.1034
  2.1038   2.1040   2.1044   2.1054   2.1069   2.1084   2.1090   2.1099
  2.1102   2.1121   2.1129   2.1136   2.1138   2.1150   2.1163   2.1174
  2.1179   2.1191   2.1196   2.1197   2.1221   2.1227   2.1240   2.1241
  2.1246   2.1249   2.1268   2.1274   2.1289   2.1298   2.1303   2.1305
  2.1321   2.1335   2.1344   2.1346   2.1364   2.1368   2.1369   2.1389
  2.1411   2.1413   2.1419   2.1422   2.1435   2.1440   2.1462   2.1472
  2.1488   2.1497   2.1513   2.1515   2.1523   2.1538   2.1538   2.1549
  2.1550   2.1565   2.1565   2.1587   2.1595   2.1598   2.1599   2.1617
  2.1618   2.1629   2.1642   2.1651   2.1658   2.1659   2.1666   2.1671
  2.1684   2.1689   2.1705   2.1717   2.1725   2.1736   2.1748   2.1753
  2.1765   2.1774   2.1776   2.1787   2.1791   2.1808   2.1812   2.1822
  2.1827   2.1827   2.1845   2.1846   2.1857   2.1862   2.1876   2.1876
  2.1884   2.1885   2.1900   2.1911   2.1917   2.1921   2.1926   2.1928
  2.1944   2.1946   2.1957   2.1959   2.1962   2.1967   2.1976   2.1984
  2.1992   2.2001   2.2005   2.2005   2.2010   2.2014   2.2029   2.2047
  2.2055   2.2061   2.2064   2.2074   2.2080   2.2080   2.2087   2.2095
  2.2105   2.2116   2.2119   2.2131   2.2133   2.2141   2.2151   2.2165
  2.2165   2.2171   2.2179   2.2183   2.2188   2.2195   2.2199   2.2205
  2.2219   2.2222   2.2224   2.2236   2.2236   2.2243   2.2259   2.2268
  2.2268   2.2276   2.2278   2.2286   2.2287   2.2303   2.2309   2.2321
  2.2323   2.2327   2.2342   2.2347   2.2364   2.2364   2.2366   2.2371
  2.2376   2.2387   2.2394   2.2402   2.2405   2.2406   2.2416   2.2429
  2.2430   2.2432   2.2443   2.2444   2.2451   2.2463   2.2474   2.2476
  2.2486   2.2487   2.2491   2.2493   2.2494   2.2518   2.2529   2.2530
  2.2531   2.2538   2.2548   2.2551   2.2551   2.2560   2.2572   2.2574
  2.2582   2.2593   2.2598   2.2604   2.2606   2.2616   2.2621   2.2622
  2.2629   2.2633   2.2636   2.2648   2.2648   2.2655   2.2660   2.2668
  2.2679   2.2685   2.2691   2.2697   2.2707   2.2707   2.2712   2.2719
  2.2734   2.2740   2.2746   2.2751   2.2756   2.2764   2.2765   2.2772
  2.2779   2.2788   2.2789   2.2798   2.2806   2.2813   2.2823   2.2825
  2.2825   2.2831   2.2839   2.2852   2.2860   2.2865   2.2876   2.2877
  2.2885   2.2887   2.2894   2.2895   2.2897   2.2907   2.2913   2.2927
  2.2928   2.2930   2.2938   2.2942   2.2949   2.2954   2.2963   2.2965
  2.2971   2.2979   2.2980   2.2984   2.2996   2.2998   2.3003   2.3011
  2.3018   2.3019   2.3028   2.3028   2.3034   2.3039   2.3041   2.3053
  2.3058   2.3058   2.3077   2.3081   2.3091   2.3102   2.3105   2.3107
  2.3118   2.3118   2.3128   2.3132   2.3148   2.3148   2.3153   2.3156
  2.3164   2.3172   2.3173   2.3177   2.3192   2.3194   2.3201   2.3202
  2.3210   2.3219   2.3221   2.3222   2.3225   2.3239   2.3244   2.3244
  2.3257   2.3261   2.3261   2.3265   2.3284   2.3286   2.3288   2.3297
  2.3301   2.3312   2.3316   2.3325   2.3332   2.3334   2.3346   2.3347
  2.3355   2.3363   2.3367   2.3380   2.3381   2.3388   2.3390   2.3391
  2.3403   2.3407   2.3412   2.3412   2.3424   2.3434   2.3439   2.3451
  2.3454   2.3459   2.3460   2.3467   2.3485   2.3495   2.3503   2.3506
  2.3517   2.3521   2.3522   2.3524   2.3528   2.3543   2.3547   2.3556
  2.3566   2.3574   2.3574   2.3583   2.3587   2.3590   2.3594   2.3597
  2.3611   2.3612   2.3620   2.3621   2.3629   2.3635   2.3658   2.3661
  2.3669   2.3675   2.3682   2.3686   2.3686   2.3693   2.3701   2.3712
  2.3715   2.3722   2.3724   2.3729   2.3731   2.3731   2.3741   2.3743
  2.3755   2.3755   2.3758   2.3769   2.3771   2.3774   2.3777   2.3797
  2.3798   2.3805   2.3810   2.3818   2.3819   2.3827   2.3830   2.3840
  2.3844   2.3849   2.3854   2.3856   2.3857   2.3872   2.3875   2.3882
  2.3885   2.3891   2.3900   2.3905   2.3908   2.3917   2.3925   2.3938
  2.3944   2.3946   2.3949   2.3955   2.3959   2.3969   2.3974   2.3975
  2.3981   2.3985   2.4004   2.4010   2.4019   2.4019   2.4022   2.4024
  2.4039   2.4043   2.4048   2.4056   2.4058   2.4069   2.4069   2.4073
  2.4089   2.4090   2.4100   2.4102   2.4104   2.4111   2.4111   2.4126
  2.4129   2.4136   2.4140   2.4150   2.4150   2.4161   2.4162   2.4166
  2.4171   2.4181   2.4182   2.4194   2.4195   2.4216   2.4219   2.4224
  2.4229   2.4234   2.4248   2.4250   2.4259   2.4260   2.4275   2.4295
  2.4298   2.4299   2.4307   2.4312   2.4327   2.4350   2.4359   2.4370
  2.4372   2.4377   2.4384   2.4388   2.4397   2.4400   2.4408   2.4421
  2.4440   2.4448   2.4453   2.4457   2.4464   2.4470   2.4481   2.4486
  2.4501   2.4506   2.4524   2.4534   2.4537   2.4538   2.4548   2.4556
  2.4569   2.4572   2.4585   2.4586   2.4602   2.4605   2.4610   2.4612
  2.4622   2.4639   2.4640   2.4653   2.4659   2.4664   2.4666   2.4677
  2.4696   2.4701   2.4701   2.4707   2.4719   2.4725   2.4743   2.4749
  2.4751   2.4761   2.4763   2.4772   2.4785   2.4788   2.4803   2.4809
  2.4811   2.4826   2.4844   2.4844   2.4857   2.4862   2.4872   2.4878
  2.4888   2.4901   2.4908   2.4908   2.4936   2.4940   2.4951   2.4969
  2.4971   2.4981   2.4984   2.4993   2.5005   2.5016   2.5021   2.5027
  2.5049   2.5055   2.5066   2.5066   2.5077   2.5094   2.5106   2.5109
  2.5135   2.5150   2.5161   2.5175   2.5192   2.5210   2.5223   2.5234
  2.5252   2.5275   2.5279   2.5297   2.5302   2.5306   2.5319   2.5326
  2.5333   2.5347   2.5350   2.5358   2.5376   2.5379   2.5398   2.5400
  2.5416   2.5440   2.5447   2.5471   2.5485   2.5505   2.5506   2.5530
  2.5537   2.5565   2.5586   2.5597   2.5601   2.5614   2.5623   2.5654
  2.5657   2.5688   2.5691   2.5701   2.5710   2.5727   2.5736   2.5767
  2.5785   2.5793   2.5797   2.5813   2.5832   2.5840   2.5843   2.5845
  2.5863   2.5872   2.5883   2.5892   2.5922   2.5923   2.5946   2.5949
  2.5951   2.5956   2.5974   2.5989   2.6000   2.6001   2.6013   2.6046
  2.6058   2.6063   2.6069   2.6079   2.6106   2.6106   2.6116   2.6119
  2.6132   2.6147   2.6170   2.6182   2.6186   2.6201   2.6217   2.6220
  2.6231   2.6246   2.6255   2.6264   2.6275   2.6287   2.6303   2.6317
  2.6330   2.6337   2.6342   2.6350   2.6367   2.6372   2.6392   2.6401
  2.6425   2.6437   2.6441   2.6470   2.6493   2.6508   2.6516   2.6540
  2.6545   2.6565   2.6629   2.6635   2.6654   2.6656   2.6701   2.6703
  2.6704   2.6769   2.6771   2.6802   2.6830   2.6842   2.6854   2.6854
  2.6919   2.6926   2.6935   2.6947   2.6978   2.6999   2.7019   2.7022
  2.7035   2.7042   2.7056   2.7075   2.7091   2.7098   2.7099   2.7136
  2.7149   2.7158   2.7180   2.7182   2.7189   2.7201   2.7209   2.7213
  2.7230   2.7242   2.7259   2.7267   2.7294   2.7295   2.7319   2.7322
  2.7324   2.7330   2.7346   2.7348   2.7354   2.7369   2.7379   2.7397
  2.7409   2.7409   2.7428   2.7434   2.7447   2.7455   2.7456   2.7466
  2.7488   2.7495   2.7500   2.7531   2.7541   2.7545   2.7545   2.7561
  2.7578   2.7588   2.7595   2.7599   2.7606   2.7612   2.7620   2.7623
  2.7632   2.7645   2.7647   2.7657   2.7666   2.7670   2.7676   2.7680
  2.7689   2.7693   2.7704   2.7712   2.7730   2.7738   2.7741   2.7752
  2.7765   2.7766   2.7770   2.7793   2.7800   2.7806   2.7809   2.7819
  2.7824   2.7825   2.7836   2.7840   2.7849   2.7856   2.7859   2.7876
  2.7877   2.7881   2.7897   2.7917   2.7925   2.7937   2.7939   2.7957
  2.7959   2.7969   2.7977   2.7984   2.7987   2.7992   2.8004   2.8011
  2.8011   2.8020   2.8051   2.8066   2.8077   2.8078   2.8098   2.8101
  2.8131   2.8133   2.8147   2.8158   2.8161   2.8183   2.8187   2.8202
  2.8220   2.8225   2.8234   2.8247   2.8248   2.8262   2.8271   2.8326
  2.8346   2.8359   2.8368   2.8382   2.8385   2.8401   2.8449   2.8494
  2.8494   2.8503   2.8522   2.8529   2.8533   2.8566   2.8567   2.8597
  2.8599   2.8608   2.8627   2.8633   2.8661   2.8675   2.8689   2.8692
  2.8705   2.8705   2.8718   2.8733   2.8738   2.8750   2.8798   2.8812
  2.8824   2.8842   2.8852   2.8866   2.8875   2.8883   2.8900   2.8905
  2.8949   2.8965   2.8975   2.8978   2.8998   2.9010   2.9012   2.9034
  2.9056   2.9073   2.9091   2.9096   2.9099   2.9115   2.9119   2.9136
  2.9144   2.9160   2.9167   2.9188   2.9188   2.9203   2.9206   2.9219
  2.9239   2.9246   2.9253   2.9268   2.9285   2.9314   2.9317   2.9328
  2.9341   2.9342   2.9367   2.9378   2.9388   2.9393   2.9406   2.9426
  2.9433   2.9477   2.9478   2.9486   2.9492   2.9502   2.9505   2.9524
  2.9537   2.9553   2.9578   2.9582   2.9626   2.9627   2.9652   2.9654
  2.9681   2.9705   2.9711   2.9727   2.9729   2.9733   2.9741   2.9756
  2.9783   2.9786   2.9790   2.9794   2.9799   2.9804   2.9835   2.9841
  2.9844   2.9848   2.9864   2.9871   2.9884   2.9900   2.9918   2.9926
  2.9932   2.9936   2.9955   2.9963   2.9984   2.9993   3.0003   3.0011
  3.0015   3.0017   3.0049   3.0068   3.0070   3.0083   3.0100   3.0102
  3.0108   3.0120   3.0142   3.0148   3.0163   3.0167   3.0200   3.0200
  3.0217   3.0232   3.0272   3.0274   3.0278   3.0294   3.0302   3.0313
  3.0332   3.0344   3.0354   3.0356   3.0373   3.0380   3.0422   3.0430
  3.0438   3.0452   3.0475   3.0498   3.0502   3.0529   3.0547   3.0548
  3.0575   3.0576   3.0602   3.0607   3.0644   3.0660   3.0698   3.0704
  3.0719   3.0744   3.0746   3.0766   3.0810   3.0830   3.0860   3.0862
  3.0883   3.0899   3.0902   3.0912   3.0919   3.0930   3.0943   3.0947
  3.0957   3.0959   3.0987   3.0990   3.0990   3.1008   3.1020   3.1024
  3.1035   3.1053   3.1059   3.1065   3.1081   3.1084   3.1093   3.1093
  3.1113   3.1134   3.1146   3.1154   3.1174   3.1195   3.1236   3.1240
  3.1257   3.1260   3.1287   3.1305   3.1309   3.1323   3.1365   3.1369
  3.1388   3.1398   3.1407   3.1413   3.1426   3.1440   3.1444   3.1461
  3.1473   3.1483   3.1490   3.1499   3.1510   3.1515   3.1527   3.1534
  3.1541   3.1547   3.1555   3.1564   3.1568   3.1568   3.1585   3.1593
  3.1598   3.1606   3.1613   3.1621   3.1624   3.1627   3.1634   3.1639
  3.1645   3.1658   3.1660   3.1667   3.1670   3.1673   3.1681   3.1682
  3.1701   3.1702   3.1715   3.1720   3.1726   3.1743   3.1748   3.1768
  3.1775   3.1780   3.1788   3.1817   3.1837   3.1841   3.1863   3.1874
  3.1876   3.1890   3.1911   3.1948   3.1983   3.2001   3.2029   3.2034
  3.2050   3.2064   3.2071   3.2105   3.2178   3.2183   3.2215   3.2227
  3.2281   3.2311   3.2423   3.2475   3.2547   3.2550   3.2581   3.2583
  3.2605   3.2613   3.2633   3.2645   3.2674   3.2687   3.2788   3.2800
  3.2885   3.2885   3.2904   3.2929   3.3016   3.3026   3.3047   3.3078
  3.3091   3.3112   3.3138   3.3139   3.3157   3.3175   3.3219   3.3224
  3.3603   3.3607   3.3619   3.3622   3.3649   3.3655   3.3700   3.3701
  3.3739   3.3744   3.3775   3.3777   3.3815   3.3819   3.3834   3.3834
  3.3869   3.3874   3.3923   3.3927   3.3970   3.3977   3.4004   3.4026
  3.4066   3.4070   3.4089   3.4121   3.4150   3.4166   3.4194   3.4202
  3.4225   3.4232   3.4243   3.4252   3.4274   3.4292   3.4349   3.4358
  3.4438   3.4441   3.5464   3.5481   3.5499   3.5545   3.5551   3.5560
  3.5590   3.5627   3.5658   3.5692   3.5756   3.5783   3.5846   3.5953
  3.5971   3.6037   3.6045   3.6104   3.6113   3.6139   3.6161   3.6185
  3.6210   3.6245   3.6246   3.6277   3.6281   3.6297   3.6311   3.6318
  3.6344   3.6358   3.6367   3.6376   3.6423   3.6436   3.6459   3.6462
  3.6471   3.6475   3.6483   3.6500   3.6508   3.6533   3.6557   3.6561
  3.6562   3.6562   3.6571   3.6592   3.6592   3.6598   3.6620   3.6635
  3.6642   3.6652   3.6666   3.6683   3.6710   3.6717   3.6727   3.6738
  3.6743   3.6783   3.6798   3.6811   3.6822   3.6849   3.6856   3.6864
  3.6866   3.6880   3.6901   3.6927   3.6946   3.6962   3.6974   3.6979
  3.6981   3.6988   3.6992   3.7016   3.7026   3.7033   3.7045   3.7087
  3.7107   3.7129   3.7152   3.7262   3.7270   3.9400   3.9401   3.9418
  3.9419   3.9484   3.9488   3.9505   3.9507   3.9538   3.9541   3.9558
  3.9559   3.9562   3.9564   3.9580   3.9587   3.9620   3.9623   3.9693
  3.9693   3.9745   3.9750   3.9757   3.9759   3.9813   3.9818   3.9819
  3.9822   3.9834   3.9836   4.1244   4.1272   4.1375   4.1376   4.1401
  4.1402   4.1453   4.1457   4.1470   4.1492   4.1531   4.1597   4.1653
  4.1657   4.1694   4.1703   4.1788   4.1793   4.2644   4.2649   4.2666
  4.2671   4.2721   4.2722   4.2729   4.2730   4.2797   4.2799   4.2813
  4.2815   4.2877   4.2885   4.2919   4.2928   4.2954   4.2959   4.2997
  4.3002   4.3002   4.3005   4.3033   4.3037   4.3227   4.3262   4.3308
  4.3344   4.3361   4.3393   4.3421   4.3436   4.3470   4.3483   4.3536
[...]
  4.6695   4.6723   4.6723   4.6741   4.6742   4.6744   4.6744   4.6758
  4.6760   4.6829   4.6830   4.6948   4.6948   4.6993   4.6993   4.7015
  4.7015   4.7148   4.7148   4.7695   4.7695   4.7758   4.7758   5.1909
  5.1909   5.2116   5.2116   5.2185   5.2185   5.2602   5.2602   5.2608
  5.2608   5.2610   5.2611   5.2624   5.2624   5.2651   5.2653   5.2655
  5.2656   5.2660   5.2664   5.2673   5.2677   5.2679   5.2679   5.2700
  5.2702   5.3020   5.3020   5.3028   5.3028   5.3032   5.3034   5.3045
  5.3046   5.3054   5.3054   5.3158   5.3158   5.3163   5.3163   5.3185
  5.3186   5.3212   5.3214   5.3233   5.3233   5.3313   5.3314   5.3330
  5.3331   5.3340   5.3341   5.3353   5.3354   5.3377   5.3378   5.3419
  5.3420   5.3468   5.3469   5.3491   5.3495   5.3506   5.3506   5.3510
  5.3513   5.3522   5.3525   5.3538   5.3540   5.3563   5.3566   5.3577
  5.3581   5.3603   5.3603   5.3604   5.3606   5.3743   5.3746   5.3780
  5.3785   5.3801   5.3807   5.3814   5.3824   5.3832   5.3838   5.3851
  5.3867   5.3890   5.3892   5.3942   5.3943   5.3952   5.3952   5.3967
  5.3968   5.3988   5.3999   5.4021   5.4022   5.4031   5.4045   5.4088
  5.4092   5.4126   5.4126   5.4133   5.4140   5.4155   5.4156   5.4190
  5.4195   5.5821   5.5821   5.5927   5.5927   5.5945   5.5945   5.5956
  5.5956   5.5966   5.5966   5.5981   5.5982   5.6644   5.6646   5.6721
  5.6722   5.6732   5.6738   5.6741   5.6752   5.6776   5.6791   5.6818
  5.6827  17.9652  17.9652  17.9736  17.9736  17.9768  17.9772  17.9793
 17.9796  17.9805  17.9813  17.9845  17.9847  18.0043  18.0043  18.0045
 18.0045  18.0046  18.0046  18.0050  18.0050  18.0056  18.0057  18.0067
 18.0068  18.0078  18.0079  18.0082  18.0086  18.0087  18.0088  18.0090
 18.0092  18.0092  18.0093  18.0100  18.0100  18.0109  18.0110  18.0118
 18.0119  18.0124  18.0125  18.0196  18.0196  18.0230  18.0230  18.0268
 18.0268  18.0961  18.0964  18.0988  18.0989  18.1051  18.1054  18.1063
 18.1066  18.1072  18.1072  18.1082  18.1083  18.1108  18.1110  18.1131
 18.1132  18.1152  18.1158  18.1170  18.1171  18.1180  18.1187  18.1192
 18.1192  18.1201  18.1201  18.1216  18.1216  18.1248  18.1248  18.1277
 18.1278  18.1288  18.1288  18.1317  18.1318  18.2219  18.2219  18.2224
 18.2224  18.2231  18.2232  18.2247  18.2247  18.2258  18.2258  18.2274
 18.2274  18.2277  18.2277  18.2280  18.2281  18.2282  18.2283  18.2287
 18.2288  18.2289  18.2289  18.2293  18.2293  18.2296  18.2297  18.2298
 18.2298  18.2304  18.2305  18.4429  18.4429  18.4475  18.4475  18.4514
 18.4514  18.5426  18.5428  18.5483  18.5486  18.5511  18.5527  18.5571
 18.5587  18.5590  18.5599  18.5606  18.5611  18.5635  18.5646  18.5665
 18.5669  18.5671  18.5677  18.5702  18.5702  18.5723  18.5724  18.5751
 18.5767  18.6120  18.6120  18.6127  18.6127  18.6137  18.6140  18.6143
 18.6147  18.6156  18.6157  18.6167  18.6167  18.6179  18.6179  18.6184
 18.6185  18.6204  18.6209  18.6217  18.6218  18.6222  18.6228  18.6230
 18.6230  18.6236  18.6238  18.6239  18.6243  18.6262  18.6265  19.2331
 19.2332  19.2364  19.2399  19.2488  19.2507  19.2557  19.2594  19.2637
 19.2667  19.2857  19.2912
 --------------------------------------------------------------

          Ground-State Mulliken Net Atomic Charges

     Atom                 Charge (a.u.)
  ----------------------------------------
      1 GH                   -0.000011
      2 GH                   -0.008125
      3 GH                    0.000001
      4 GH                   -0.000063
      5 GH                    0.000000
      6 GH                    0.000000
      7 GH                    0.000000
      8 GH                    0.000000
      9 GH                   -0.000000
     10 GH                   -0.000001
     11 GH                    0.000016
     12 GH                    0.006878
     13 GH                   -0.000023
     14 GH                    0.000000
     15 GH                    0.000000
     16 GH                    0.000000
     17 GH                    0.000000
     18 GH                    0.000007
     19 GH                   -0.000000
     20 GH                   -0.000001
     21 GH                   -0.000044
     22 GH                    0.000000
     23 GH                   -0.006719
     24 GH                   -0.000000
     25 H                    -0.005198
     26 GH                   -0.000001
     27 GH                   -0.005537
     28 GH                    0.000000
     29 GH                    0.000000
     30 GH                   -0.000000
     31 GH                    0.000000
     32 GH                    0.000065
     33 GH                    0.000036
     34 GH                   -0.000002
     35 GH                    0.000038
     36 GH                    0.000000
     37 GH                    0.000000
     38 GH                    0.000000
     39 GH                   -0.000000
     40 GH                   -0.000001
     41 GH                    0.000002
     42 GH                    0.000000
     43 GH                    0.000000
     44 GH                    0.000000
     45 GH                    0.000000
     46 GH                    0.000019
     47 GH                   -0.000018
     48 GH                   -0.009807
     49 GH                    0.000000
     50 GH                   -0.001010
     51 GH                    0.000000
     52 GH                   -0.000032
     53 GH                    0.000001
     54 GH                    0.000000
     55 GH                   -0.008323
     56 GH                   -0.000000
     57 GH                    0.000000
     58 GH                   -0.000000
     59 GH                   -0.000000
     60 GH                    0.000037
     61 H                    -0.006364
     62 GH                   -0.000009
     63 GH                    0.000032
     64 GH                    0.000000
     65 GH                    0.000001
     66 GH                   -0.002196
     67 GH                    0.000000
     68 GH                    0.000056
     69 GH                    0.000001
     70 GH                    0.000000
     71 GH                    0.000003
     72 GH                   -0.000000
     73 GH                    0.000001
     74 GH                    0.000000
     75 GH                   -0.000001
     76 GH                    0.000000
     77 GH                   -0.000000
     78 GH                   -0.000000
     79 GH                    0.000000
     80 GH                   -0.000247
     81 GH                   -0.000001
     82 GH                    0.000000
     83 GH                   -0.000002
     84 GH                    0.000000
     85 GH                   -0.000000
     86 GH                   -0.001517
     87 GH                   -0.000001
     88 GH                   -0.000265
     89 H                    -0.005278
     90 GH                   -0.000000
     91 GH                    0.000086
     92 GH                    0.000000
     93 GH                    0.000000
     94 GH                   -0.000000
     95 GH                    0.000000
     96 GH                   -0.000128
     97 GH                   -0.000000
     98 GH                   -0.000000
     99 GH                    0.000000
    100 GH                   -0.000247
    101 GH                    0.000001
    102 GH                    0.000000
    103 GH                   -0.000001
    104 GH                    0.000000
    105 GH                   -0.000000
    106 GH                   -0.001517
    107 GH                   -0.000001
    108 GH                   -0.000265
    109 GH                   -0.000001
    110 GH                    0.000000
    111 GH                   -0.000002
    112 GH                    0.000000
    113 GH                    0.000000
    114 GH                   -0.000000
    115 GH                    0.000000
    116 GH                   -0.000128
    117 H                    -0.005278
    118 GH                   -0.000000
    119 GH                    0.000086
    120 GH                    0.000000
    121 GH                    0.000001
    122 GH                    0.000000
    123 GH                   -0.008323
    124 GH                   -0.000000
    125 GH                    0.000000
    126 GH                   -0.001010
    127 GH                    0.000000
    128 GH                   -0.000032
    129 H                    -0.006364
    130 GH                   -0.000009
    131 GH                    0.000032
    132 GH                    0.000000
    133 GH                    0.000000
    134 GH                   -0.000000
    135 GH                   -0.000000
    136 GH                    0.000037
    137 GH                    0.000001
    138 GH                    0.000000
    139 GH                    0.000003
    140 GH                   -0.000000
    141 GH                    0.000001
    142 GH                   -0.002196
    143 GH                    0.000000
    144 GH                    0.000056
    145 GH                    0.000000
    146 GH                   -0.000000
    147 GH                    0.000000
    148 GH                    0.000065
    149 H                    -0.005198
    150 GH                   -0.000001
    151 GH                   -0.005537
    152 GH                    0.000000
    153 GH                    0.000000
    154 GH                    0.000000
    155 GH                   -0.000000
    156 GH                   -0.000001
    157 GH                    0.000036
    158 GH                   -0.000002
    159 GH                    0.000038
    160 GH                    0.000000
    161 GH                    0.000000
    162 GH                    0.000019
    163 GH                   -0.000018
    164 GH                   -0.009807
    165 GH                    0.000002
    166 GH                    0.000000
    167 GH                    0.000000
    168 GH                    0.000000
    169 GH                    0.000000
    170 GH                    0.000000
    171 GH                    0.000000
    172 GH                    0.000000
    173 GH                   -0.000011
    174 GH                   -0.008125
    175 GH                    0.000001
    176 GH                   -0.000063
    177 GH                   -0.000023
    178 GH                    0.000000
    179 GH                    0.000000
    180 GH                    0.000000
    181 GH                   -0.000000
    182 GH                   -0.000001
    183 GH                    0.000016
    184 GH                    0.006878
    185 GH                   -0.000044
    186 GH                    0.000000
    187 GH                   -0.006719
    188 GH                   -0.000000
    189 GH                    0.000000
    190 GH                    0.000007
    191 GH                   -0.000000
    192 GH                   -0.000001
    193 GH                    0.000002
    194 GH                    0.001299
    195 GH                    0.000013
    196 GH                    0.000392
    197 GH                    0.000000
    198 GH                    0.000000
    199 GH                    0.000000
    200 GH                    0.000000
    201 GH                    0.000000
    202 GH                    0.000001
    203 GH                   -0.000170
    204 GH                   -0.002159
    205 GH                   -0.000009
    206 GH                    0.000012
    207 GH                   -0.000000
    208 GH                   -0.000000
    209 GH                    0.000000
    210 GH                   -0.000098
    211 GH                   -0.000000
    212 GH                    0.000003
    213 GH                   -0.000005
    214 GH                   -0.000000
    215 GH                    0.001063
    216 GH                    0.000000
    217 C                     0.016436
    218 GH                   -0.000022
    219 GH                    0.001347
    220 GH                    0.000000
    221 GH                   -0.000000
    222 GH                   -0.000000
    223 GH                    0.000000
    224 GH                    0.000169
    225 GH                    0.000021
    226 GH                    0.000000
    227 GH                   -0.000476
    228 GH                   -0.000000
    229 GH                    0.000000
    230 GH                   -0.000049
    231 GH                   -0.000000
    232 GH                   -0.000012
    233 GH                    0.000013
    234 GH                    0.000003
    235 GH                    0.000000
    236 GH                   -0.000000
    237 GH                    0.000000
    238 GH                   -0.000004
    239 GH                   -0.000119
    240 GH                    0.000785
    241 GH                    0.000000
    242 GH                    0.000640
    243 GH                    0.000000
    244 GH                   -0.000355
    245 GH                   -0.000012
    246 GH                    0.000000
    247 GH                    0.002045
    248 GH                    0.000000
    249 GH                    0.000000
    250 GH                    0.000000
    251 GH                   -0.000000
    252 GH                    0.000290
    253 C                     0.010236
    254 GH                   -0.000145
    255 GH                   -0.000042
    256 GH                   -0.000000
    257 GH                    0.000000
    258 GH                   -0.000054
    259 GH                   -0.000016
    260 GH                    0.000645
    261 GH                   -0.000000
    262 GH                   -0.000000
    263 GH                   -0.000000
    264 GH                    0.000000
    265 GH                    0.000003
    266 GH                    0.000004
    267 GH                    0.000000
    268 GH                    0.000000
    269 GH                    0.000000
    270 GH                   -0.000000
    271 GH                    0.000022
    272 GH                   -0.000535
    273 GH                    0.000000
    274 GH                   -0.000000
    275 GH                    0.000001
    276 GH                   -0.000000
    277 GH                   -0.000000
    278 GH                    0.000142
    279 GH                   -0.000040
    280 GH                   -0.000917
    281 C                     0.023851
    282 GH                   -0.000098
    283 GH                    0.000173
    284 GH                    0.000000
    285 GH                    0.000000
    286 GH                   -0.000000
    287 GH                   -0.000000
    288 GH                   -0.000626
    289 GH                    0.000000
    290 GH                   -0.000000
    291 GH                    0.000022
    292 GH                   -0.000535
    293 GH                    0.000003
    294 GH                    0.000004
    295 GH                    0.000000
    296 GH                    0.000000
    297 GH                   -0.000000
    298 GH                    0.000142
    299 GH                   -0.000040
    300 GH                   -0.000917
    301 GH                    0.000000
    302 GH                   -0.000000
    303 GH                    0.000001
    304 GH                   -0.000000
    305 GH                    0.000000
    306 GH                   -0.000000
    307 GH                   -0.000000
    308 GH                   -0.000626
    309 C                     0.023851
    310 GH                   -0.000098
    311 GH                    0.000173
    312 GH                    0.000000
    313 GH                   -0.000012
    314 GH                    0.000000
    315 GH                    0.002045
    316 GH                    0.000000
    317 GH                    0.000000
    318 GH                    0.000640
    319 GH                    0.000000
    320 GH                   -0.000355
    321 C                     0.010236
    322 GH                   -0.000145
    323 GH                   -0.000042
    324 GH                   -0.000000
    325 GH                    0.000000
    326 GH                    0.000000
    327 GH                   -0.000000
    328 GH                    0.000290
    329 GH                   -0.000000
    330 GH                   -0.000000
    331 GH                   -0.000000
    332 GH                    0.000000
    333 GH                    0.000000
    334 GH                   -0.000054
    335 GH                   -0.000016
    336 GH                    0.000645
    337 GH                   -0.000000
    338 GH                   -0.000000
    339 GH                    0.000000
    340 GH                    0.000169
    341 C                     0.016436
    342 GH                   -0.000022
    343 GH                    0.001347
    344 GH                    0.000000
    345 GH                    0.000000
    346 GH                   -0.000049
    347 GH                   -0.000000
    348 GH                   -0.000012
    349 GH                    0.000021
    350 GH                    0.000000
    351 GH                   -0.000476
    352 GH                   -0.000000
    353 GH                    0.000000
    354 GH                   -0.000004
    355 GH                   -0.000119
    356 GH                    0.000785
    357 GH                    0.000013
    358 GH                    0.000003
    359 GH                    0.000000
    360 GH                   -0.000000
    361 GH                    0.000000
    362 GH                    0.000000
    363 GH                    0.000000
    364 GH                    0.000000
    365 GH                    0.000002
    366 GH                    0.001299
    367 GH                    0.000013
    368 GH                    0.000392
    369 GH                   -0.000009
    370 GH                    0.000012
    371 GH                   -0.000000
    372 GH                   -0.000000
    373 GH                    0.000000
    374 GH                    0.000001
    375 GH                   -0.000170
    376 GH                   -0.002159
    377 GH                   -0.000005
    378 GH                   -0.000000
    379 GH                    0.001063
    380 GH                    0.000000
    381 GH                    0.000000
    382 GH                   -0.000098
    383 GH                   -0.000000
    384 GH                    0.000003
  ----------------------------------------
  Sum of atomic charges =     0.000000

 -----------------------------------------------------------------
                    Cartesian Multipole Moments
 -----------------------------------------------------------------
    Charge (ESU x 10^10)
                 0.0000
    Dipole Moment (Debye)
         X      -0.0000      Y      -0.0000      Z       0.0000
       Tot       0.0000
    Quadrupole Moments (Debye-Ang)
        XX     -35.6053     XY      -3.5329     YY     -35.6418
        XZ      -1.3763     YZ      -1.1205     ZZ     -32.9097
    Octopole Moments (Debye-Ang^2)
       XXX   -2909.6683    XXY   -1244.9655    XYY   -1179.7462
       YYY   -3160.7122    XXZ   -1416.5901    XYZ    -204.3246
       YYZ   -1409.2248    XZZ   -1000.1781    YZZ   -1057.2500
       ZZZ   -3720.1116
    Hexadecapole Moments (Debye-Ang^3)
      XXXX -158703.1162   XXXY  -93820.9703   XXYY  -68990.9406
      XYYY  -95305.8877   YYYY -187046.0514   XXXZ -112680.4447
      XXYZ  -49948.1548   XYYZ  -47450.2335   YYYZ -122012.7985
      XXZZ  -80698.2584   XYZZ  -36865.7896   YYZZ  -84428.7446
      XZZZ -107182.0219   YZZZ -114722.6769   ZZZZ -280615.3493
 -----------------------------------------------------------------
 Total job time:  6713.46s(wall), 205447.90s(cpu) 
 Thu Aug 14 19:39:17 2025

        *************************************************************
        *                                                           *
        *  Thank you very much for using Q-Chem.  Have a nice day.  *
        *                                                           *
        *************************************************************


