                  Welcome to Q-Chem
           with Periodic Boundary Condition
     A Quantum Leap Into The Future Of Chemistry

 Adam Rettig, Xintian Feng, Meng-Fu Chen, Hieu Dinh, Stephen Quiton,
 Anton Ni, Paul J. Robinson, Jinghong Zhang, Joonho Lee

Contributors to earlier versions of Q-Chem not listed above:
 Evgeny Epifanovsky, Leo Cunha, Jerome F. Gonthier, Kuan-Yu Liu
 Input file: /n/home02/hieudinh/rsdf_test_full_J/benchmark_pyscf/benzene/qcpbc/benzene_crystal_ccpvdz_333.in
 Scratch folder: /n/netscratch/joonholee_lab/Lab/hieudinh//nhome02hieudinhrsdf_test_full_Jbenchmark_pyscfbenzeneqcpbcbenzene_crystal_ccpvdz_333.scratch20250912160044
 Auxillary files located at: /n/home02/hieudinh/qcpbc/qcaux
 Q-Chem begins on Fri Sep 12 16:00:45 2025

 -------------------------------------------------------------
 User input:
 -------------------------------------------------------------
 $lattice
 3
 6.8100000000 	0.0000000000 	0.0000000000
 0.0000000000 	7.3900000000 	0.0000000000
 0.0000000000 	0.0000000000 	9.4200000000
 $end
 
 $unitcell
 ABSOLUTE
 0 1
  C 	6.7630110000 	6.9414270000 	1.3122060000
  C 	6.7630110000 	4.1435730000 	6.0222060000
  C 	3.3580110000 	6.9414270000 	3.3977940000
  C 	3.3580110000 	4.1435730000 	8.1077940000
  C 	0.0469890000 	0.4485730000 	8.1077940000
  C 	0.0469890000 	3.2464270000 	3.3977940000
  C 	3.4519890000 	0.4485730000 	6.0222060000
  C 	3.4519890000 	3.2464270000 	1.3122060000
  C 	0.8580600000 	6.3723970000 	0.4210740000
  C 	0.8580600000 	4.7126030000 	5.1310740000
  C 	4.2630600000 	6.3723970000 	4.2889260000
  C 	4.2630600000 	4.7126030000 	8.9989260000
  C 	5.9519400000 	1.0176030000 	8.9989260000
  C 	5.9519400000 	2.6773970000 	4.2889260000
  C 	2.5469400000 	1.0176030000 	5.1310740000
  C 	2.5469400000 	2.6773970000 	0.4210740000
  C 	5.9076750000 	0.5690300000 	0.9024360000
  C 	5.9076750000 	3.1259700000 	5.6124360000
  C 	2.5026750000 	0.5690300000 	3.8075640000
  C 	2.5026750000 	3.1259700000 	8.5175640000
  C 	0.9023250000 	6.8209700000 	8.5175640000
  C 	0.9023250000 	4.2640300000 	3.8075640000
  C 	4.3073250000 	6.8209700000 	5.6124360000
  C 	4.3073250000 	4.2640300000 	0.9024360000
  H 	6.7262370000 	6.6170060000 	2.3568840000
  H 	6.7262370000 	4.4679940000 	7.0668840000
  H 	3.3212370000 	6.6170060000 	2.3531160000
  H 	3.3212370000 	4.4679940000 	7.0631160000
  H 	0.0837630000 	0.7729940000 	7.0631160000
  H 	0.0837630000 	2.9220060000 	2.3531160000
  H 	3.4887630000 	0.7729940000 	7.0668840000
  H 	3.4887630000 	2.9220060000 	2.3568840000
  H 	1.5261210000 	5.5735380000 	0.7357020000
  H 	1.5261210000 	5.5114620000 	5.4457020000
  H 	4.9311210000 	5.5735380000 	3.9742980000
  H 	4.9311210000 	5.5114620000 	8.6842980000
  H 	5.2838790000 	1.8164620000 	8.6842980000
  H 	5.2838790000 	1.8785380000 	3.9742980000
  H 	1.8788790000 	1.8164620000 	5.4457020000
  H 	1.8788790000 	1.8785380000 	0.7357020000
  H 	5.2028400000 	1.0131690000 	1.5835020000
  H 	5.2028400000 	2.6818310000 	6.2935020000
  H 	1.7978400000 	1.0131690000 	3.1264980000
  H 	1.7978400000 	2.6818310000 	7.8364980000
  H 	1.6071600000 	6.3768310000 	7.8364980000
  H 	1.6071600000 	4.7081690000 	3.1264980000
  H 	5.0121600000 	6.3768310000 	6.2935020000
  H 	5.0121600000 	4.7081690000 	1.5835020000
 $end
 
 $rem
 jobtype = sp
 method = pbe
 scf_convergence = 5
 scf_guess = autosad
 scf_algorithm = diis_gdm
 basis = gen
 aux_basis = gen
 input_bohr = false
 symmetry = false
 latsum_factor 1.0
 rsdf_print_level 1
 is_basis_uctr true
 do_nonortho true
 
 mp_mesh = [3,3,3]
 
 integral_direct true
 bvk_cgto true
 
 thresh 14
 mem_total 300000
 threads 32
 
 MAX_SCF_CYCLES 3
 madelung = false
 omega 0.5
 do_rij_bigmem true
 automate_g true
 print_level 10
 grid_type_xc 1
 
 thresh_1e2c_sp 1e-14
 thresh_2e3c_bra_ket_sep 1e-10
 thresh_g 1e-12
 $end
 
 $basis
 H     0
 S   4   1.00
       1.301000D+01           1.968500D-02
       1.962000D+00           1.379770D-01
       4.446000D-01           4.781480D-01
       1.220000D-01           5.012400D-01
 S   4   1.00
       1.301000D+01           0.000000
       1.962000D+00           0.000000
       4.446000D-01           0.000000
       1.220000D-01           1.000000D+00
 P   1   1.00
       7.270000D-01           1.0000000
 ****
 C     0
 S   9   1.00
       6.665000D+03           6.920000D-04
       1.000000D+03           5.329000D-03
       2.280000D+02           2.707700D-02
       6.471000D+01           1.017180D-01
       2.106000D+01           2.747400D-01
       7.495000D+00           4.485640D-01
       2.797000D+00           2.850740D-01
       5.215000D-01           1.520400D-02
       1.596000D-01          -3.191000D-03
 S   9   1.00
       6.665000D+03          -1.460000D-04
       1.000000D+03          -1.154000D-03
       2.280000D+02          -5.725000D-03
       6.471000D+01          -2.331200D-02
       2.106000D+01          -6.395500D-02
       7.495000D+00          -1.499810D-01
       2.797000D+00          -1.272620D-01
       5.215000D-01           5.445290D-01
       1.596000D-01           5.804960D-01
 S   9   1.00
       6.665000D+03           0.000000
       1.000000D+03           0.000000
       2.280000D+02           0.000000
       6.471000D+01           0.000000
       2.106000D+01           0.000000
       7.495000D+00           0.000000
       2.797000D+00           0.000000
       5.215000D-01           0.000000
       1.596000D-01           1.000000D+00
 P   4   1.00
       9.439000D+00           3.810900D-02
       2.002000D+00           2.094800D-01
       5.456000D-01           5.085570D-01
       1.517000D-01           4.688420D-01
 P   4   1.00
       9.439000D+00           0.000000
       2.002000D+00           0.000000
       5.456000D-01           0.000000
       1.517000D-01           1.000000D+00
 D   1   1.00
       5.500000D-01           1.0000000
 ****
 $end
 
 ! cc-pvtz-jkfit
 $aux_basis
 H     0
 S   1   1.00
       9.5302493327           1.0000000
 S   1   1.00
       1.9174506246           1.0000000
 S   1   1.00
       0.68424049142          1.0000000
 S   1   1.00
       0.28413255710          1.0000000
 P   1   1.00
       2.9133232035           1.0000000
 P   1   1.00
       1.2621205398           1.0000000
 P   1   1.00
       0.50199775874          1.0000000
 D   1   1.00
       2.3135329149           1.0000000
 D   1   1.00
       0.71290724024          1.0000000
 F   1   1.00
       1.6565726132           1.0000000
 ****
 C     0
 S   1   1.00
    1113.9867719              1.0000000
 S   1   1.00
     369.16234180             1.0000000
 S   1   1.00
     121.79275232             1.0000000
 S   1   1.00
      48.127114540            1.0000000
 S   1   1.00
      20.365074004            1.0000000
 S   1   1.00
       8.0883596856           1.0000000
 S   1   1.00
       2.5068656570           1.0000000
 S   1   1.00
       1.2438537380           1.0000000
 S   1   1.00
       0.48449899601          1.0000000
 S   1   1.00
       0.19185160296          1.0000000
 P   1   1.00
     102.99176249             1.0000000
 P   1   1.00
      28.132594009            1.0000000
 P   1   1.00
       9.8364318173           1.0000000
 P   1   1.00
       3.3490544980           1.0000000
 P   1   1.00
       1.4947618613           1.0000000
 P   1   1.00
       0.57690108899          1.0000000
 P   1   1.00
       0.20320063291          1.0000000
 D   1   1.00
      10.594068356            1.0000000
 D   1   1.00
       3.5997195366           1.0000000
 D   1   1.00
       1.3355691094           1.0000000
 D   1   1.00
       0.51949764954          1.0000000
 D   1   1.00
       0.19954125200          1.0000000
 F   1   1.00
       1.19486633836900000000 1.0000000
 F   1   1.00
        .41586633836900000000 1.0000000
 G   1   1.00
        .85886633836900000000 1.0000000
 ****
 $end
 
 -------------------------------------------------------------
 Running PBC job

 Requested Exchange Correlation Functionals: 
  DFT Exchange:  1.00000 pbe_x
  DFT Correlation:  1.00000 pbe_c
 using 32 threads for computing.
 ---------------------------------------------------------------
      Coordinates of Atoms in Central Unit Cell (Angstroms)
    I     Atom         X            Y            Z
 ---------------------------------------------------------------
    1       C      6.763011     6.941427     1.312206
    2       C      6.763011     4.143573     6.022206
    3       C      3.358011     6.941427     3.397794
    4       C      3.358011     4.143573     8.107794
    5       C      0.046989     0.448573     8.107794
    6       C      0.046989     3.246427     3.397794
    7       C      3.451989     0.448573     6.022206
    8       C      3.451989     3.246427     1.312206
    9       C      0.858060     6.372397     0.421074
   10       C      0.858060     4.712603     5.131074
   11       C      4.263060     6.372397     4.288926
   12       C      4.263060     4.712603     8.998926
   13       C      5.951940     1.017603     8.998926
   14       C      5.951940     2.677397     4.288926
   15       C      2.546940     1.017603     5.131074
   16       C      2.546940     2.677397     0.421074
   17       C      5.907675     0.569030     0.902436
   18       C      5.907675     3.125970     5.612436
   19       C      2.502675     0.569030     3.807564
   20       C      2.502675     3.125970     8.517564
   21       C      0.902325     6.820970     8.517564
   22       C      0.902325     4.264030     3.807564
   23       C      4.307325     6.820970     5.612436
   24       C      4.307325     4.264030     0.902436
   25       H      6.726237     6.617006     2.356884
   26       H      6.726237     4.467994     7.066884
   27       H      3.321237     6.617006     2.353116
   28       H      3.321237     4.467994     7.063116
   29       H      0.083763     0.772994     7.063116
   30       H      0.083763     2.922006     2.353116
   31       H      3.488763     0.772994     7.066884
   32       H      3.488763     2.922006     2.356884
   33       H      1.526121     5.573538     0.735702
   34       H      1.526121     5.511462     5.445702
   35       H      4.931121     5.573538     3.974298
   36       H      4.931121     5.511462     8.684298
   37       H      5.283879     1.816462     8.684298
   38       H      5.283879     1.878538     3.974298
   39       H      1.878879     1.816462     5.445702
   40       H      1.878879     1.878538     0.735702
   41       H      5.202840     1.013169     1.583502
   42       H      5.202840     2.681831     6.293502
   43       H      1.797840     1.013169     3.126498
   44       H      1.797840     2.681831     7.836498
   45       H      1.607160     6.376831     7.836498
   46       H      1.607160     4.708169     3.126498
   47       H      5.012160     6.376831     6.293502
   48       H      5.012160     4.708169     1.583502
 ---------------------------------------------------------------
 --------------------------------------------------
              Lattice Vectors (Angstroms)
              X            Y            Z
 --------------------------------------------------
   X       6.810000     0.000000     0.000000
   Y       0.000000     7.390000     0.000000
   Z       0.000000     0.000000     9.420000
 --------------------------------------------------
 --------------------------------------------------
       Reciprocal Lattice Vectors (Angstroms^-1)
              X            Y            Z
 --------------------------------------------------
   X       0.922641     0.000000     0.000000
   Y       0.000000     0.850228     0.000000
   Z       0.000000     0.000000     0.667005
 --------------------------------------------------

 Single point calculation requested

 Hamiltonian contributions:
 List of terms in Hamiltonian: kpts_nn, kpts_kinetic, kpts_vnuc_df, kpts_xc, kpts_rij_bigmem

 K-Points calculation started.

 Basis set information about using solid harmonic (1) or Cartesian (0):
  h : 
  c : D(1) 

 Basis set information about using solid harmonic (1) or Cartesian (0):
  h : D(1) D(1) F(1) 
  c : D(1) D(1) D(1) D(1) D(1) F(1) F(1) G(1) 

 There are 456 basis functions in the central unit cell.
 Print atomic basis of atoms in the central unit cell:
 -------------------------------------------------------------
48 456 1080 120

  1.27802385678315e+01  1.31173959440827e+01  2.47970995909068e+00
  1.27802385678315e+01  7.83021814739398e+00  1.13803200060781e+01
  6.34572111348071e+00  1.31173959440827e+01  6.42090008789669e+00
  6.34572111348071e+00  7.83021814739398e+00  1.53215101348841e+01
  8.87963408700403e-02  8.47680116901756e-01  1.53215101348841e+01
  8.87963408700403e-02  6.13485791359047e+00  6.42090008789669e+00
  6.52331379522079e+00  8.47680116901756e-01  1.13803200060781e+01
  6.52331379522079e+00  6.13485791359047e+00  2.47970995909068e+00
  1.62149839849639e+00  1.20420850873869e+01  7.95714538200672e-01
  1.62149839849639e+00  8.90552900408978e+00  9.69632458518805e+00
  8.05601585284714e+00  1.20420850873869e+01  8.10489550878671e+00
  8.05601585284714e+00  8.90552900408978e+00  1.70055055557741e+01
  1.12475365102051e+01  1.92299097359756e+00  1.70055055557741e+01
  1.12475365102051e+01  5.05954705689466e+00  8.10489550878671e+00
  4.81301905585436e+00  1.92299097359756e+00  9.69632458518805e+00
  4.81301905585436e+00  5.05954705689466e+00  7.95714538200672e-01
  1.11638877832985e+01  1.07531085669580e+00  1.70535688500278e+00
  1.11638877832985e+01  5.90722717379642e+00  1.06059669319902e+01
  4.72937032894780e+00  1.07531085669580e+00  7.19525316198460e+00
  4.72937032894780e+00  5.90722717379642e+00  1.60958632089720e+01
  1.70514712540295e+00  1.28897652042886e+01  1.60958632089720e+01
  1.70514712540295e+00  8.05784888718802e+00  7.19525316198460e+00
  8.13966457975370e+00  1.28897652042886e+01  1.06059669319902e+01
  8.13966457975370e+00  8.05784888718802e+00  1.70535688500278e+00
  1.27107457793245e+01  1.25043291050055e+01  4.45386526751248e+00
  1.27107457793245e+01  8.44328498647119e+00  1.33544753144999e+01
  6.27622832497372e+00  1.25043291050055e+01  4.44674477947489e+00
  6.27622832497372e+00  8.44328498647119e+00  1.33473548264623e+01
  1.58289129377028e-01  1.46074695597897e+00  1.33473548264623e+01
  1.58289129377028e-01  5.52179107451325e+00  4.44674477947489e+00
  6.59280658372778e+00  1.46074695597897e+00  1.33544753144999e+01
  6.59280658372778e+00  5.52179107451325e+00  4.45386526751248e+00
  2.88395072304001e+00  1.05324603651945e+01  1.39027528933943e+00
  2.88395072304001e+00  1.04151537262822e+01  1.02908853363268e+01
  9.31846817739075e+00  1.05324603651945e+01  7.51033475764795e+00
  9.31846817739075e+00  1.04151537262822e+01  1.64109448046353e+01
  9.98508418566149e+00  3.43261569578998e+00  1.64109448046353e+01
  9.98508418566149e+00  3.54992233470225e+00  7.51033475764795e+00
  3.55056673131074e+00  3.43261569578998e+00  1.02908853363268e+01
  3.55056673131074e+00  3.54992233470225e+00  1.39027528933943e+00
  9.83194267024794e+00  1.91461192796097e+00  2.99238509779716e+00
  9.83194267024794e+00  5.06792610253125e+00  1.18929951447845e+01
  3.39742521589719e+00  1.91461192796097e+00  5.90822494919022e+00
  3.39742521589719e+00  5.06792610253125e+00  1.48088349961776e+01
  3.03709223845355e+00  1.20504641330235e+01  1.48088349961776e+01
  3.03709223845355e+00  8.89714995845319e+00  5.90822494919022e+00
  9.47160969280430e+00  1.20504641330235e+01  1.18929951447845e+01
  9.47160969280430e+00  8.89714995845319e+00  2.99238509779716e+00

  6.66500000000000e+03
  1.00000000000000e+03
  2.28000000000000e+02
  6.47100000000000e+01
  2.10600000000000e+01
  7.49500000000000e+00
  2.79700000000000e+00
  5.21500000000000e-01
  1.59600000000000e-01
  9.43900000000000e+00
  2.00200000000000e+00
  5.45600000000000e-01
  1.51700000000000e-01
  5.50000000000000e-01
  6.66500000000000e+03
  1.00000000000000e+03
  2.28000000000000e+02
  6.47100000000000e+01
  2.10600000000000e+01
  7.49500000000000e+00
  2.79700000000000e+00
  5.21500000000000e-01
  1.59600000000000e-01
  9.43900000000000e+00
  2.00200000000000e+00
  5.45600000000000e-01
  1.51700000000000e-01
  5.50000000000000e-01
  6.66500000000000e+03
  1.00000000000000e+03
  2.28000000000000e+02
  6.47100000000000e+01
  2.10600000000000e+01
  7.49500000000000e+00
  2.79700000000000e+00
  5.21500000000000e-01
  1.59600000000000e-01
  9.43900000000000e+00
  2.00200000000000e+00
  5.45600000000000e-01
  1.51700000000000e-01
  5.50000000000000e-01
  6.66500000000000e+03
  1.00000000000000e+03
  2.28000000000000e+02
  6.47100000000000e+01
  2.10600000000000e+01
  7.49500000000000e+00
  2.79700000000000e+00
  5.21500000000000e-01
  1.59600000000000e-01
  9.43900000000000e+00
  2.00200000000000e+00
  5.45600000000000e-01
  1.51700000000000e-01
  5.50000000000000e-01
  6.66500000000000e+03
  1.00000000000000e+03
  2.28000000000000e+02
  6.47100000000000e+01
  2.10600000000000e+01
  7.49500000000000e+00
  2.79700000000000e+00
  5.21500000000000e-01
  1.59600000000000e-01
  9.43900000000000e+00
  2.00200000000000e+00
  5.45600000000000e-01
  1.51700000000000e-01
  5.50000000000000e-01
  6.66500000000000e+03
  1.00000000000000e+03
  2.28000000000000e+02
  6.47100000000000e+01
  2.10600000000000e+01
  7.49500000000000e+00
  2.79700000000000e+00
  5.21500000000000e-01
  1.59600000000000e-01
  9.43900000000000e+00
  2.00200000000000e+00
  5.45600000000000e-01
  1.51700000000000e-01
  5.50000000000000e-01
  6.66500000000000e+03
  1.00000000000000e+03
  2.28000000000000e+02
  6.47100000000000e+01
  2.10600000000000e+01
  7.49500000000000e+00
  2.79700000000000e+00
  5.21500000000000e-01
  1.59600000000000e-01
  9.43900000000000e+00
  2.00200000000000e+00
  5.45600000000000e-01
  1.51700000000000e-01
  5.50000000000000e-01
  6.66500000000000e+03
  1.00000000000000e+03
  2.28000000000000e+02
  6.47100000000000e+01
  2.10600000000000e+01
  7.49500000000000e+00
  2.79700000000000e+00
  5.21500000000000e-01
  1.59600000000000e-01
  9.43900000000000e+00
  2.00200000000000e+00
  5.45600000000000e-01
  1.51700000000000e-01
  5.50000000000000e-01
  6.66500000000000e+03
  1.00000000000000e+03
  2.28000000000000e+02
  6.47100000000000e+01
  2.10600000000000e+01
  7.49500000000000e+00
  2.79700000000000e+00
  5.21500000000000e-01
  1.59600000000000e-01
  9.43900000000000e+00
  2.00200000000000e+00
  5.45600000000000e-01
  1.51700000000000e-01
  5.50000000000000e-01
  6.66500000000000e+03
  1.00000000000000e+03
  2.28000000000000e+02
  6.47100000000000e+01
  2.10600000000000e+01
  7.49500000000000e+00
  2.79700000000000e+00
  5.21500000000000e-01
  1.59600000000000e-01
  9.43900000000000e+00
  2.00200000000000e+00
  5.45600000000000e-01
  1.51700000000000e-01
  5.50000000000000e-01
  6.66500000000000e+03
  1.00000000000000e+03
  2.28000000000000e+02
  6.47100000000000e+01
  2.10600000000000e+01
  7.49500000000000e+00
  2.79700000000000e+00
  5.21500000000000e-01
  1.59600000000000e-01
  9.43900000000000e+00
  2.00200000000000e+00
  5.45600000000000e-01
  1.51700000000000e-01
  5.50000000000000e-01
  6.66500000000000e+03
  1.00000000000000e+03
  2.28000000000000e+02
  6.47100000000000e+01
  2.10600000000000e+01
  7.49500000000000e+00
  2.79700000000000e+00
  5.21500000000000e-01
  1.59600000000000e-01
  9.43900000000000e+00
  2.00200000000000e+00
  5.45600000000000e-01
  1.51700000000000e-01
  5.50000000000000e-01
  6.66500000000000e+03
  1.00000000000000e+03
  2.28000000000000e+02
  6.47100000000000e+01
  2.10600000000000e+01
  7.49500000000000e+00
  2.79700000000000e+00
  5.21500000000000e-01
  1.59600000000000e-01
  9.43900000000000e+00
  2.00200000000000e+00
  5.45600000000000e-01
  1.51700000000000e-01
  5.50000000000000e-01
  6.66500000000000e+03
  1.00000000000000e+03
  2.28000000000000e+02
  6.47100000000000e+01
  2.10600000000000e+01
  7.49500000000000e+00
  2.79700000000000e+00
  5.21500000000000e-01
  1.59600000000000e-01
  9.43900000000000e+00
  2.00200000000000e+00
  5.45600000000000e-01
  1.51700000000000e-01
  5.50000000000000e-01
  6.66500000000000e+03
  1.00000000000000e+03
  2.28000000000000e+02
  6.47100000000000e+01
  2.10600000000000e+01
  7.49500000000000e+00
  2.79700000000000e+00
  5.21500000000000e-01
  1.59600000000000e-01
  9.43900000000000e+00
  2.00200000000000e+00
  5.45600000000000e-01
  1.51700000000000e-01
  5.50000000000000e-01
  6.66500000000000e+03
  1.00000000000000e+03
  2.28000000000000e+02
  6.47100000000000e+01
  2.10600000000000e+01
  7.49500000000000e+00
  2.79700000000000e+00
  5.21500000000000e-01
  1.59600000000000e-01
  9.43900000000000e+00
  2.00200000000000e+00
  5.45600000000000e-01
  1.51700000000000e-01
  5.50000000000000e-01
  6.66500000000000e+03
  1.00000000000000e+03
  2.28000000000000e+02
  6.47100000000000e+01
  2.10600000000000e+01
  7.49500000000000e+00
  2.79700000000000e+00
  5.21500000000000e-01
  1.59600000000000e-01
  9.43900000000000e+00
  2.00200000000000e+00
  5.45600000000000e-01
  1.51700000000000e-01
  5.50000000000000e-01
  6.66500000000000e+03
  1.00000000000000e+03
  2.28000000000000e+02
  6.47100000000000e+01
  2.10600000000000e+01
  7.49500000000000e+00
  2.79700000000000e+00
  5.21500000000000e-01
  1.59600000000000e-01
  9.43900000000000e+00
  2.00200000000000e+00
  5.45600000000000e-01
  1.51700000000000e-01
  5.50000000000000e-01
  6.66500000000000e+03
  1.00000000000000e+03
  2.28000000000000e+02
  6.47100000000000e+01
  2.10600000000000e+01
  7.49500000000000e+00
  2.79700000000000e+00
  5.21500000000000e-01
  1.59600000000000e-01
  9.43900000000000e+00
  2.00200000000000e+00
  5.45600000000000e-01
  1.51700000000000e-01
  5.50000000000000e-01
  6.66500000000000e+03
  1.00000000000000e+03
  2.28000000000000e+02
  6.47100000000000e+01
  2.10600000000000e+01
  7.49500000000000e+00
  2.79700000000000e+00
  5.21500000000000e-01
  1.59600000000000e-01
  9.43900000000000e+00
  2.00200000000000e+00
  5.45600000000000e-01
  1.51700000000000e-01
  5.50000000000000e-01
  6.66500000000000e+03
  1.00000000000000e+03
  2.28000000000000e+02
  6.47100000000000e+01
  2.10600000000000e+01
  7.49500000000000e+00
  2.79700000000000e+00
  5.21500000000000e-01
  1.59600000000000e-01
  9.43900000000000e+00
  2.00200000000000e+00
  5.45600000000000e-01
  1.51700000000000e-01
  5.50000000000000e-01
  6.66500000000000e+03
  1.00000000000000e+03
  2.28000000000000e+02
  6.47100000000000e+01
  2.10600000000000e+01
  7.49500000000000e+00
  2.79700000000000e+00
  5.21500000000000e-01
  1.59600000000000e-01
  9.43900000000000e+00
  2.00200000000000e+00
  5.45600000000000e-01
  1.51700000000000e-01
  5.50000000000000e-01
  6.66500000000000e+03
  1.00000000000000e+03
  2.28000000000000e+02
  6.47100000000000e+01
  2.10600000000000e+01
  7.49500000000000e+00
  2.79700000000000e+00
  5.21500000000000e-01
  1.59600000000000e-01
  9.43900000000000e+00
  2.00200000000000e+00
  5.45600000000000e-01
  1.51700000000000e-01
  5.50000000000000e-01
  6.66500000000000e+03
  1.00000000000000e+03
  2.28000000000000e+02
  6.47100000000000e+01
  2.10600000000000e+01
  7.49500000000000e+00
  2.79700000000000e+00
  5.21500000000000e-01
  1.59600000000000e-01
  9.43900000000000e+00
  2.00200000000000e+00
  5.45600000000000e-01
  1.51700000000000e-01
  5.50000000000000e-01
  1.30100000000000e+01
  1.96200000000000e+00
  4.44600000000000e-01
  1.22000000000000e-01
  7.27000000000000e-01
  1.30100000000000e+01
  1.96200000000000e+00
  4.44600000000000e-01
  1.22000000000000e-01
  7.27000000000000e-01
  1.30100000000000e+01
  1.96200000000000e+00
  4.44600000000000e-01
  1.22000000000000e-01
  7.27000000000000e-01
  1.30100000000000e+01
  1.96200000000000e+00
  4.44600000000000e-01
  1.22000000000000e-01
  7.27000000000000e-01
  1.30100000000000e+01
  1.96200000000000e+00
  4.44600000000000e-01
  1.22000000000000e-01
  7.27000000000000e-01
  1.30100000000000e+01
  1.96200000000000e+00
  4.44600000000000e-01
  1.22000000000000e-01
  7.27000000000000e-01
  1.30100000000000e+01
  1.96200000000000e+00
  4.44600000000000e-01
  1.22000000000000e-01
  7.27000000000000e-01
  1.30100000000000e+01
  1.96200000000000e+00
  4.44600000000000e-01
  1.22000000000000e-01
  7.27000000000000e-01
  1.30100000000000e+01
  1.96200000000000e+00
  4.44600000000000e-01
  1.22000000000000e-01
  7.27000000000000e-01
  1.30100000000000e+01
  1.96200000000000e+00
  4.44600000000000e-01
  1.22000000000000e-01
  7.27000000000000e-01
  1.30100000000000e+01
  1.96200000000000e+00
  4.44600000000000e-01
  1.22000000000000e-01
  7.27000000000000e-01
  1.30100000000000e+01
  1.96200000000000e+00
  4.44600000000000e-01
  1.22000000000000e-01
  7.27000000000000e-01
  1.30100000000000e+01
  1.96200000000000e+00
  4.44600000000000e-01
  1.22000000000000e-01
  7.27000000000000e-01
  1.30100000000000e+01
  1.96200000000000e+00
  4.44600000000000e-01
  1.22000000000000e-01
  7.27000000000000e-01
  1.30100000000000e+01
  1.96200000000000e+00
  4.44600000000000e-01
  1.22000000000000e-01
  7.27000000000000e-01
  1.30100000000000e+01
  1.96200000000000e+00
  4.44600000000000e-01
  1.22000000000000e-01
  7.27000000000000e-01
  1.30100000000000e+01
  1.96200000000000e+00
  4.44600000000000e-01
  1.22000000000000e-01
  7.27000000000000e-01
  1.30100000000000e+01
  1.96200000000000e+00
  4.44600000000000e-01
  1.22000000000000e-01
  7.27000000000000e-01
  1.30100000000000e+01
  1.96200000000000e+00
  4.44600000000000e-01
  1.22000000000000e-01
  7.27000000000000e-01
  1.30100000000000e+01
  1.96200000000000e+00
  4.44600000000000e-01
  1.22000000000000e-01
  7.27000000000000e-01
  1.30100000000000e+01
  1.96200000000000e+00
  4.44600000000000e-01
  1.22000000000000e-01
  7.27000000000000e-01
  1.30100000000000e+01
  1.96200000000000e+00
  4.44600000000000e-01
  1.22000000000000e-01
  7.27000000000000e-01
  1.30100000000000e+01
  1.96200000000000e+00
  4.44600000000000e-01
  1.22000000000000e-01
  7.27000000000000e-01
  1.30100000000000e+01
  1.96200000000000e+00
  4.44600000000000e-01
  1.22000000000000e-01
  7.27000000000000e-01

  3.63803115996335e-01
  6.75392019985144e-01
  1.13230098456389e+00
  1.65400404378672e+00
  1.92497845800833e+00
  1.44814933271197e+00
  4.39427431056185e-01
  6.64980331679676e-03
 -5.74264109106499e-04
 -7.67561626326749e-02
 -1.46256808411412e-01
 -2.39407035824857e-01
 -3.79069085533774e-01
 -4.48103732793825e-01
 -4.84200525122430e-01
 -1.96168096161407e-01
  2.38161760404015e-01
  1.04468216411947e-01
  0.00000000000000e+00
  0.00000000000000e+00
  0.00000000000000e+00
  0.00000000000000e+00
  0.00000000000000e+00
  0.00000000000000e+00
  0.00000000000000e+00
  0.00000000000000e+00
  1.79963635330801e-01
  8.98721984913738e-01
  7.11071032781435e-01
  3.39917026383906e-01
  6.32701430216626e-02
  0.00000000000000e+00
  0.00000000000000e+00
  0.00000000000000e+00
  1.34949743639293e-01
  5.78154836189229e-01
  3.63803115996335e-01
  6.75392019985144e-01
  1.13230098456389e+00
  1.65400404378672e+00
  1.92497845800833e+00
  1.44814933271197e+00
  4.39427431056185e-01
  6.64980331679676e-03
 -5.74264109106499e-04
 -7.67561626326749e-02
 -1.46256808411412e-01
 -2.39407035824857e-01
 -3.79069085533774e-01
 -4.48103732793825e-01
 -4.84200525122430e-01
 -1.96168096161407e-01
  2.38161760404015e-01
  1.04468216411947e-01
  0.00000000000000e+00
  0.00000000000000e+00
  0.00000000000000e+00
  0.00000000000000e+00
  0.00000000000000e+00
  0.00000000000000e+00
  0.00000000000000e+00
  0.00000000000000e+00
  1.79963635330801e-01
  8.98721984913738e-01
  7.11071032781435e-01
  3.39917026383906e-01
  6.32701430216626e-02
  0.00000000000000e+00
  0.00000000000000e+00
  0.00000000000000e+00
  1.34949743639293e-01
  5.78154836189229e-01
  3.63803115996335e-01
  6.75392019985144e-01
  1.13230098456389e+00
  1.65400404378672e+00
  1.92497845800833e+00
  1.44814933271197e+00
  4.39427431056185e-01
  6.64980331679676e-03
 -5.74264109106499e-04
 -7.67561626326749e-02
 -1.46256808411412e-01
 -2.39407035824857e-01
 -3.79069085533774e-01
 -4.48103732793825e-01
 -4.84200525122430e-01
 -1.96168096161407e-01
  2.38161760404015e-01
  1.04468216411947e-01
  0.00000000000000e+00
  0.00000000000000e+00
  0.00000000000000e+00
  0.00000000000000e+00
  0.00000000000000e+00
  0.00000000000000e+00
  0.00000000000000e+00
  0.00000000000000e+00
  1.79963635330801e-01
  8.98721984913738e-01
  7.11071032781435e-01
  3.39917026383906e-01
  6.32701430216626e-02
  0.00000000000000e+00
  0.00000000000000e+00
  0.00000000000000e+00
  1.34949743639293e-01
  5.78154836189229e-01
  3.63803115996335e-01
  6.75392019985144e-01
  1.13230098456389e+00
  1.65400404378672e+00
  1.92497845800833e+00
  1.44814933271197e+00
  4.39427431056185e-01
  6.64980331679676e-03
 -5.74264109106499e-04
 -7.67561626326749e-02
 -1.46256808411412e-01
 -2.39407035824857e-01
 -3.79069085533774e-01
 -4.48103732793825e-01
 -4.84200525122430e-01
 -1.96168096161407e-01
  2.38161760404015e-01
  1.04468216411947e-01
  0.00000000000000e+00
  0.00000000000000e+00
  0.00000000000000e+00
  0.00000000000000e+00
  0.00000000000000e+00
  0.00000000000000e+00
  0.00000000000000e+00
  0.00000000000000e+00
  1.79963635330801e-01
  8.98721984913738e-01
  7.11071032781435e-01
  3.39917026383906e-01
  6.32701430216626e-02
  0.00000000000000e+00
  0.00000000000000e+00
  0.00000000000000e+00
  1.34949743639293e-01
  5.78154836189229e-01
  3.63803115996335e-01
  6.75392019985144e-01
  1.13230098456389e+00
  1.65400404378672e+00
  1.92497845800833e+00
  1.44814933271197e+00
  4.39427431056185e-01
  6.64980331679676e-03
 -5.74264109106499e-04
 -7.67561626326749e-02
 -1.46256808411412e-01
 -2.39407035824857e-01
 -3.79069085533774e-01
 -4.48103732793825e-01
 -4.84200525122430e-01
 -1.96168096161407e-01
  2.38161760404015e-01
  1.04468216411947e-01
  0.00000000000000e+00
  0.00000000000000e+00
  0.00000000000000e+00
  0.00000000000000e+00
  0.00000000000000e+00
  0.00000000000000e+00
  0.00000000000000e+00
  0.00000000000000e+00
  1.79963635330801e-01
  8.98721984913738e-01
  7.11071032781435e-01
  3.39917026383906e-01
  6.32701430216626e-02
  0.00000000000000e+00
  0.00000000000000e+00
  0.00000000000000e+00
  1.34949743639293e-01
  5.78154836189229e-01
  3.63803115996335e-01
  6.75392019985144e-01
  1.13230098456389e+00
  1.65400404378672e+00
  1.92497845800833e+00
  1.44814933271197e+00
  4.39427431056185e-01
  6.64980331679676e-03
 -5.74264109106499e-04
 -7.67561626326749e-02
 -1.46256808411412e-01
 -2.39407035824857e-01
 -3.79069085533774e-01
 -4.48103732793825e-01
 -4.84200525122430e-01
 -1.96168096161407e-01
  2.38161760404015e-01
  1.04468216411947e-01
  0.00000000000000e+00
  0.00000000000000e+00
  0.00000000000000e+00
  0.00000000000000e+00
  0.00000000000000e+00
  0.00000000000000e+00
  0.00000000000000e+00
  0.00000000000000e+00
  1.79963635330801e-01
  8.98721984913738e-01
  7.11071032781435e-01
  3.39917026383906e-01
  6.32701430216626e-02
  0.00000000000000e+00
  0.00000000000000e+00
  0.00000000000000e+00
  1.34949743639293e-01
  5.78154836189229e-01
  3.63803115996335e-01
  6.75392019985144e-01
  1.13230098456389e+00
  1.65400404378672e+00
  1.92497845800833e+00
  1.44814933271197e+00
  4.39427431056185e-01
  6.64980331679676e-03
 -5.74264109106499e-04
 -7.67561626326749e-02
 -1.46256808411412e-01
 -2.39407035824857e-01
 -3.79069085533774e-01
 -4.48103732793825e-01
 -4.84200525122430e-01
 -1.96168096161407e-01
  2.38161760404015e-01
  1.04468216411947e-01
  0.00000000000000e+00
  0.00000000000000e+00
  0.00000000000000e+00
  0.00000000000000e+00
  0.00000000000000e+00
  0.00000000000000e+00
  0.00000000000000e+00
  0.00000000000000e+00
  1.79963635330801e-01
  8.98721984913738e-01
  7.11071032781435e-01
  3.39917026383906e-01
  6.32701430216626e-02
  0.00000000000000e+00
  0.00000000000000e+00
  0.00000000000000e+00
  1.34949743639293e-01
  5.78154836189229e-01
  3.63803115996335e-01
  6.75392019985144e-01
  1.13230098456389e+00
  1.65400404378672e+00
  1.92497845800833e+00
  1.44814933271197e+00
  4.39427431056185e-01
  6.64980331679676e-03
 -5.74264109106499e-04
 -7.67561626326749e-02
 -1.46256808411412e-01
 -2.39407035824857e-01
 -3.79069085533774e-01
 -4.48103732793825e-01
 -4.84200525122430e-01
 -1.96168096161407e-01
  2.38161760404015e-01
  1.04468216411947e-01
  0.00000000000000e+00
  0.00000000000000e+00
  0.00000000000000e+00
  0.00000000000000e+00
  0.00000000000000e+00
  0.00000000000000e+00
  0.00000000000000e+00
  0.00000000000000e+00
  1.79963635330801e-01
  8.98721984913738e-01
  7.11071032781435e-01
  3.39917026383906e-01
  6.32701430216626e-02
  0.00000000000000e+00
  0.00000000000000e+00
  0.00000000000000e+00
  1.34949743639293e-01
  5.78154836189229e-01
  3.63803115996335e-01
  6.75392019985144e-01
  1.13230098456389e+00
  1.65400404378672e+00
  1.92497845800833e+00
  1.44814933271197e+00
  4.39427431056185e-01
  6.64980331679676e-03
 -5.74264109106499e-04
 -7.67561626326749e-02
 -1.46256808411412e-01
 -2.39407035824857e-01
 -3.79069085533774e-01
 -4.48103732793825e-01
 -4.84200525122430e-01
 -1.96168096161407e-01
  2.38161760404015e-01
  1.04468216411947e-01
  0.00000000000000e+00
  0.00000000000000e+00
  0.00000000000000e+00
  0.00000000000000e+00
  0.00000000000000e+00
  0.00000000000000e+00
  0.00000000000000e+00
  0.00000000000000e+00
  1.79963635330801e-01
  8.98721984913738e-01
  7.11071032781435e-01
  3.39917026383906e-01
  6.32701430216626e-02
  0.00000000000000e+00
  0.00000000000000e+00
  0.00000000000000e+00
  1.34949743639293e-01
  5.78154836189229e-01
  3.63803115996335e-01
  6.75392019985144e-01
  1.13230098456389e+00
  1.65400404378672e+00
  1.92497845800833e+00
  1.44814933271197e+00
  4.39427431056185e-01
  6.64980331679676e-03
 -5.74264109106499e-04
 -7.67561626326749e-02
 -1.46256808411412e-01
 -2.39407035824857e-01
 -3.79069085533774e-01
 -4.48103732793825e-01
 -4.84200525122430e-01
 -1.96168096161407e-01
  2.38161760404015e-01
  1.04468216411947e-01
  0.00000000000000e+00
  0.00000000000000e+00
  0.00000000000000e+00
  0.00000000000000e+00
  0.00000000000000e+00
  0.00000000000000e+00
  0.00000000000000e+00
  0.00000000000000e+00
  1.79963635330801e-01
  8.98721984913738e-01
  7.11071032781435e-01
  3.39917026383906e-01
  6.32701430216626e-02
  0.00000000000000e+00
  0.00000000000000e+00
  0.00000000000000e+00
  1.34949743639293e-01
  5.78154836189229e-01
  3.63803115996335e-01
  6.75392019985144e-01
  1.13230098456389e+00
  1.65400404378672e+00
  1.92497845800833e+00
  1.44814933271197e+00
  4.39427431056185e-01
  6.64980331679676e-03
 -5.74264109106499e-04
 -7.67561626326749e-02
 -1.46256808411412e-01
 -2.39407035824857e-01
 -3.79069085533774e-01
 -4.48103732793825e-01
 -4.84200525122430e-01
 -1.96168096161407e-01
  2.38161760404015e-01
  1.04468216411947e-01
  0.00000000000000e+00
  0.00000000000000e+00
  0.00000000000000e+00
  0.00000000000000e+00
  0.00000000000000e+00
  0.00000000000000e+00
  0.00000000000000e+00
  0.00000000000000e+00
  1.79963635330801e-01
  8.98721984913738e-01
  7.11071032781435e-01
  3.39917026383906e-01
  6.32701430216626e-02
  0.00000000000000e+00
  0.00000000000000e+00
  0.00000000000000e+00
  1.34949743639293e-01
  5.78154836189229e-01
  3.63803115996335e-01
  6.75392019985144e-01
  1.13230098456389e+00
  1.65400404378672e+00
  1.92497845800833e+00
  1.44814933271197e+00
  4.39427431056185e-01
  6.64980331679676e-03
 -5.74264109106499e-04
 -7.67561626326749e-02
 -1.46256808411412e-01
 -2.39407035824857e-01
 -3.79069085533774e-01
 -4.48103732793825e-01
 -4.84200525122430e-01
 -1.96168096161407e-01
  2.38161760404015e-01
  1.04468216411947e-01
  0.00000000000000e+00
  0.00000000000000e+00
  0.00000000000000e+00
  0.00000000000000e+00
  0.00000000000000e+00
  0.00000000000000e+00
  0.00000000000000e+00
  0.00000000000000e+00
  1.79963635330801e-01
  8.98721984913738e-01
  7.11071032781435e-01
  3.39917026383906e-01
  6.32701430216626e-02
  0.00000000000000e+00
  0.00000000000000e+00
  0.00000000000000e+00
  1.34949743639293e-01
  5.78154836189229e-01
  3.63803115996335e-01
  6.75392019985144e-01
  1.13230098456389e+00
  1.65400404378672e+00
  1.92497845800833e+00
  1.44814933271197e+00
  4.39427431056185e-01
  6.64980331679676e-03
 -5.74264109106499e-04
 -7.67561626326749e-02
 -1.46256808411412e-01
 -2.39407035824857e-01
 -3.79069085533774e-01
 -4.48103732793825e-01
 -4.84200525122430e-01
 -1.96168096161407e-01
  2.38161760404015e-01
  1.04468216411947e-01
  0.00000000000000e+00
  0.00000000000000e+00
  0.00000000000000e+00
  0.00000000000000e+00
  0.00000000000000e+00
  0.00000000000000e+00
  0.00000000000000e+00
  0.00000000000000e+00
  1.79963635330801e-01
  8.98721984913738e-01
  7.11071032781435e-01
  3.39917026383906e-01
  6.32701430216626e-02
  0.00000000000000e+00
  0.00000000000000e+00
  0.00000000000000e+00
  1.34949743639293e-01
  5.78154836189229e-01
  3.63803115996335e-01
  6.75392019985144e-01
  1.13230098456389e+00
  1.65400404378672e+00
  1.92497845800833e+00
  1.44814933271197e+00
  4.39427431056185e-01
  6.64980331679676e-03
 -5.74264109106499e-04
 -7.67561626326749e-02
 -1.46256808411412e-01
 -2.39407035824857e-01
 -3.79069085533774e-01
 -4.48103732793825e-01
 -4.84200525122430e-01
 -1.96168096161407e-01
  2.38161760404015e-01
  1.04468216411947e-01
  0.00000000000000e+00
  0.00000000000000e+00
  0.00000000000000e+00
  0.00000000000000e+00
  0.00000000000000e+00
  0.00000000000000e+00
  0.00000000000000e+00
  0.00000000000000e+00
  1.79963635330801e-01
  8.98721984913738e-01
  7.11071032781435e-01
  3.39917026383906e-01
  6.32701430216626e-02
  0.00000000000000e+00
  0.00000000000000e+00
  0.00000000000000e+00
  1.34949743639293e-01
  5.78154836189229e-01
  3.63803115996335e-01
  6.75392019985144e-01
  1.13230098456389e+00
  1.65400404378672e+00
  1.92497845800833e+00
  1.44814933271197e+00
  4.39427431056185e-01
  6.64980331679676e-03
 -5.74264109106499e-04
 -7.67561626326749e-02
 -1.46256808411412e-01
 -2.39407035824857e-01
 -3.79069085533774e-01
 -4.48103732793825e-01
 -4.84200525122430e-01
 -1.96168096161407e-01
  2.38161760404015e-01
  1.04468216411947e-01
  0.00000000000000e+00
  0.00000000000000e+00
  0.00000000000000e+00
  0.00000000000000e+00
  0.00000000000000e+00
  0.00000000000000e+00
  0.00000000000000e+00
  0.00000000000000e+00
  1.79963635330801e-01
  8.98721984913738e-01
  7.11071032781435e-01
  3.39917026383906e-01
  6.32701430216626e-02
  0.00000000000000e+00
  0.00000000000000e+00
  0.00000000000000e+00
  1.34949743639293e-01
  5.78154836189229e-01
  3.63803115996335e-01
  6.75392019985144e-01
  1.13230098456389e+00
  1.65400404378672e+00
  1.92497845800833e+00
  1.44814933271197e+00
  4.39427431056185e-01
  6.64980331679676e-03
 -5.74264109106499e-04
 -7.67561626326749e-02
 -1.46256808411412e-01
 -2.39407035824857e-01
 -3.79069085533774e-01
 -4.48103732793825e-01
 -4.84200525122430e-01
 -1.96168096161407e-01
  2.38161760404015e-01
  1.04468216411947e-01
  0.00000000000000e+00
  0.00000000000000e+00
  0.00000000000000e+00
  0.00000000000000e+00
  0.00000000000000e+00
  0.00000000000000e+00
  0.00000000000000e+00
  0.00000000000000e+00
  1.79963635330801e-01
  8.98721984913738e-01
  7.11071032781435e-01
  3.39917026383906e-01
  6.32701430216626e-02
  0.00000000000000e+00
  0.00000000000000e+00
  0.00000000000000e+00
  1.34949743639293e-01
  5.78154836189229e-01
  3.63803115996335e-01
  6.75392019985144e-01
  1.13230098456389e+00
  1.65400404378672e+00
  1.92497845800833e+00
  1.44814933271197e+00
  4.39427431056185e-01
  6.64980331679676e-03
 -5.74264109106499e-04
 -7.67561626326749e-02
 -1.46256808411412e-01
 -2.39407035824857e-01
 -3.79069085533774e-01
 -4.48103732793825e-01
 -4.84200525122430e-01
 -1.96168096161407e-01
  2.38161760404015e-01
  1.04468216411947e-01
  0.00000000000000e+00
  0.00000000000000e+00
  0.00000000000000e+00
  0.00000000000000e+00
  0.00000000000000e+00
  0.00000000000000e+00
  0.00000000000000e+00
  0.00000000000000e+00
  1.79963635330801e-01
  8.98721984913738e-01
  7.11071032781435e-01
  3.39917026383906e-01
  6.32701430216626e-02
  0.00000000000000e+00
  0.00000000000000e+00
  0.00000000000000e+00
  1.34949743639293e-01
  5.78154836189229e-01
  3.63803115996335e-01
  6.75392019985144e-01
  1.13230098456389e+00
  1.65400404378672e+00
  1.92497845800833e+00
  1.44814933271197e+00
  4.39427431056185e-01
  6.64980331679676e-03
 -5.74264109106499e-04
 -7.67561626326749e-02
 -1.46256808411412e-01
 -2.39407035824857e-01
 -3.79069085533774e-01
 -4.48103732793825e-01
 -4.84200525122430e-01
 -1.96168096161407e-01
  2.38161760404015e-01
  1.04468216411947e-01
  0.00000000000000e+00
  0.00000000000000e+00
  0.00000000000000e+00
  0.00000000000000e+00
  0.00000000000000e+00
  0.00000000000000e+00
  0.00000000000000e+00
  0.00000000000000e+00
  1.79963635330801e-01
  8.98721984913738e-01
  7.11071032781435e-01
  3.39917026383906e-01
  6.32701430216626e-02
  0.00000000000000e+00
  0.00000000000000e+00
  0.00000000000000e+00
  1.34949743639293e-01
  5.78154836189229e-01
  3.63803115996335e-01
  6.75392019985144e-01
  1.13230098456389e+00
  1.65400404378672e+00
  1.92497845800833e+00
  1.44814933271197e+00
  4.39427431056185e-01
  6.64980331679676e-03
 -5.74264109106499e-04
 -7.67561626326749e-02
 -1.46256808411412e-01
 -2.39407035824857e-01
 -3.79069085533774e-01
 -4.48103732793825e-01
 -4.84200525122430e-01
 -1.96168096161407e-01
  2.38161760404015e-01
  1.04468216411947e-01
  0.00000000000000e+00
  0.00000000000000e+00
  0.00000000000000e+00
  0.00000000000000e+00
  0.00000000000000e+00
  0.00000000000000e+00
  0.00000000000000e+00
  0.00000000000000e+00
  1.79963635330801e-01
  8.98721984913738e-01
  7.11071032781435e-01
  3.39917026383906e-01
  6.32701430216626e-02
  0.00000000000000e+00
  0.00000000000000e+00
  0.00000000000000e+00
  1.34949743639293e-01
  5.78154836189229e-01
  3.63803115996335e-01
  6.75392019985144e-01
  1.13230098456389e+00
  1.65400404378672e+00
  1.92497845800833e+00
  1.44814933271197e+00
  4.39427431056185e-01
  6.64980331679676e-03
 -5.74264109106499e-04
 -7.67561626326749e-02
 -1.46256808411412e-01
 -2.39407035824857e-01
 -3.79069085533774e-01
 -4.48103732793825e-01
 -4.84200525122430e-01
 -1.96168096161407e-01
  2.38161760404015e-01
  1.04468216411947e-01
  0.00000000000000e+00
  0.00000000000000e+00
  0.00000000000000e+00
  0.00000000000000e+00
  0.00000000000000e+00
  0.00000000000000e+00
  0.00000000000000e+00
  0.00000000000000e+00
  1.79963635330801e-01
  8.98721984913738e-01
  7.11071032781435e-01
  3.39917026383906e-01
  6.32701430216626e-02
  0.00000000000000e+00
  0.00000000000000e+00
  0.00000000000000e+00
  1.34949743639293e-01
  5.78154836189229e-01
  3.63803115996335e-01
  6.75392019985144e-01
  1.13230098456389e+00
  1.65400404378672e+00
  1.92497845800833e+00
  1.44814933271197e+00
  4.39427431056185e-01
  6.64980331679676e-03
 -5.74264109106499e-04
 -7.67561626326749e-02
 -1.46256808411412e-01
 -2.39407035824857e-01
 -3.79069085533774e-01
 -4.48103732793825e-01
 -4.84200525122430e-01
 -1.96168096161407e-01
  2.38161760404015e-01
  1.04468216411947e-01
  0.00000000000000e+00
  0.00000000000000e+00
  0.00000000000000e+00
  0.00000000000000e+00
  0.00000000000000e+00
  0.00000000000000e+00
  0.00000000000000e+00
  0.00000000000000e+00
  1.79963635330801e-01
  8.98721984913738e-01
  7.11071032781435e-01
  3.39917026383906e-01
  6.32701430216626e-02
  0.00000000000000e+00
  0.00000000000000e+00
  0.00000000000000e+00
  1.34949743639293e-01
  5.78154836189229e-01
  3.63803115996335e-01
  6.75392019985144e-01
  1.13230098456389e+00
  1.65400404378672e+00
  1.92497845800833e+00
  1.44814933271197e+00
  4.39427431056185e-01
  6.64980331679676e-03
 -5.74264109106499e-04
 -7.67561626326749e-02
 -1.46256808411412e-01
 -2.39407035824857e-01
 -3.79069085533774e-01
 -4.48103732793825e-01
 -4.84200525122430e-01
 -1.96168096161407e-01
  2.38161760404015e-01
  1.04468216411947e-01
  0.00000000000000e+00
  0.00000000000000e+00
  0.00000000000000e+00
  0.00000000000000e+00
  0.00000000000000e+00
  0.00000000000000e+00
  0.00000000000000e+00
  0.00000000000000e+00
  1.79963635330801e-01
  8.98721984913738e-01
  7.11071032781435e-01
  3.39917026383906e-01
  6.32701430216626e-02
  0.00000000000000e+00
  0.00000000000000e+00
  0.00000000000000e+00
  1.34949743639293e-01
  5.78154836189229e-01
  3.63803115996335e-01
  6.75392019985144e-01
  1.13230098456389e+00
  1.65400404378672e+00
  1.92497845800833e+00
  1.44814933271197e+00
  4.39427431056185e-01
  6.64980331679676e-03
 -5.74264109106499e-04
 -7.67561626326749e-02
 -1.46256808411412e-01
 -2.39407035824857e-01
 -3.79069085533774e-01
 -4.48103732793825e-01
 -4.84200525122430e-01
 -1.96168096161407e-01
  2.38161760404015e-01
  1.04468216411947e-01
  0.00000000000000e+00
  0.00000000000000e+00
  0.00000000000000e+00
  0.00000000000000e+00
  0.00000000000000e+00
  0.00000000000000e+00
  0.00000000000000e+00
  0.00000000000000e+00
  1.79963635330801e-01
  8.98721984913738e-01
  7.11071032781435e-01
  3.39917026383906e-01
  6.32701430216626e-02
  0.00000000000000e+00
  0.00000000000000e+00
  0.00000000000000e+00
  1.34949743639293e-01
  5.78154836189229e-01
  3.63803115996335e-01
  6.75392019985144e-01
  1.13230098456389e+00
  1.65400404378672e+00
  1.92497845800833e+00
  1.44814933271197e+00
  4.39427431056185e-01
  6.64980331679676e-03
 -5.74264109106499e-04
 -7.67561626326749e-02
 -1.46256808411412e-01
 -2.39407035824857e-01
 -3.79069085533774e-01
 -4.48103732793825e-01
 -4.84200525122430e-01
 -1.96168096161407e-01
  2.38161760404015e-01
  1.04468216411947e-01
  0.00000000000000e+00
  0.00000000000000e+00
  0.00000000000000e+00
  0.00000000000000e+00
  0.00000000000000e+00
  0.00000000000000e+00
  0.00000000000000e+00
  0.00000000000000e+00
  1.79963635330801e-01
  8.98721984913738e-01
  7.11071032781435e-01
  3.39917026383906e-01
  6.32701430216626e-02
  0.00000000000000e+00
  0.00000000000000e+00
  0.00000000000000e+00
  1.34949743639293e-01
  5.78154836189229e-01
  9.61066109833227e-02
  1.63019974791044e-01
  1.85545022683362e-01
  7.37437919835051e-02
  0.00000000000000e+00
  0.00000000000000e+00
  0.00000000000000e+00
  1.47122794428574e-01
  9.56881375059566e-01
  9.61066109833227e-02
  1.63019974791044e-01
  1.85545022683362e-01
  7.37437919835051e-02
  0.00000000000000e+00
  0.00000000000000e+00
  0.00000000000000e+00
  1.47122794428574e-01
  9.56881375059566e-01
  9.61066109833227e-02
  1.63019974791044e-01
  1.85545022683362e-01
  7.37437919835051e-02
  0.00000000000000e+00
  0.00000000000000e+00
  0.00000000000000e+00
  1.47122794428574e-01
  9.56881375059566e-01
  9.61066109833227e-02
  1.63019974791044e-01
  1.85545022683362e-01
  7.37437919835051e-02
  0.00000000000000e+00
  0.00000000000000e+00
  0.00000000000000e+00
  1.47122794428574e-01
  9.56881375059566e-01
  9.61066109833227e-02
  1.63019974791044e-01
  1.85545022683362e-01
  7.37437919835051e-02
  0.00000000000000e+00
  0.00000000000000e+00
  0.00000000000000e+00
  1.47122794428574e-01
  9.56881375059566e-01
  9.61066109833227e-02
  1.63019974791044e-01
  1.85545022683362e-01
  7.37437919835051e-02
  0.00000000000000e+00
  0.00000000000000e+00
  0.00000000000000e+00
  1.47122794428574e-01
  9.56881375059566e-01
  9.61066109833227e-02
  1.63019974791044e-01
  1.85545022683362e-01
  7.37437919835051e-02
  0.00000000000000e+00
  0.00000000000000e+00
  0.00000000000000e+00
  1.47122794428574e-01
  9.56881375059566e-01
  9.61066109833227e-02
  1.63019974791044e-01
  1.85545022683362e-01
  7.37437919835051e-02
  0.00000000000000e+00
  0.00000000000000e+00
  0.00000000000000e+00
  1.47122794428574e-01
  9.56881375059566e-01
  9.61066109833227e-02
  1.63019974791044e-01
  1.85545022683362e-01
  7.37437919835051e-02
  0.00000000000000e+00
  0.00000000000000e+00
  0.00000000000000e+00
  1.47122794428574e-01
  9.56881375059566e-01
  9.61066109833227e-02
  1.63019974791044e-01
  1.85545022683362e-01
  7.37437919835051e-02
  0.00000000000000e+00
  0.00000000000000e+00
  0.00000000000000e+00
  1.47122794428574e-01
  9.56881375059566e-01
  9.61066109833227e-02
  1.63019974791044e-01
  1.85545022683362e-01
  7.37437919835051e-02
  0.00000000000000e+00
  0.00000000000000e+00
  0.00000000000000e+00
  1.47122794428574e-01
  9.56881375059566e-01
  9.61066109833227e-02
  1.63019974791044e-01
  1.85545022683362e-01
  7.37437919835051e-02
  0.00000000000000e+00
  0.00000000000000e+00
  0.00000000000000e+00
  1.47122794428574e-01
  9.56881375059566e-01
  9.61066109833227e-02
  1.63019974791044e-01
  1.85545022683362e-01
  7.37437919835051e-02
  0.00000000000000e+00
  0.00000000000000e+00
  0.00000000000000e+00
  1.47122794428574e-01
  9.56881375059566e-01
  9.61066109833227e-02
  1.63019974791044e-01
  1.85545022683362e-01
  7.37437919835051e-02
  0.00000000000000e+00
  0.00000000000000e+00
  0.00000000000000e+00
  1.47122794428574e-01
  9.56881375059566e-01
  9.61066109833227e-02
  1.63019974791044e-01
  1.85545022683362e-01
  7.37437919835051e-02
  0.00000000000000e+00
  0.00000000000000e+00
  0.00000000000000e+00
  1.47122794428574e-01
  9.56881375059566e-01
  9.61066109833227e-02
  1.63019974791044e-01
  1.85545022683362e-01
  7.37437919835051e-02
  0.00000000000000e+00
  0.00000000000000e+00
  0.00000000000000e+00
  1.47122794428574e-01
  9.56881375059566e-01
  9.61066109833227e-02
  1.63019974791044e-01
  1.85545022683362e-01
  7.37437919835051e-02
  0.00000000000000e+00
  0.00000000000000e+00
  0.00000000000000e+00
  1.47122794428574e-01
  9.56881375059566e-01
  9.61066109833227e-02
  1.63019974791044e-01
  1.85545022683362e-01
  7.37437919835051e-02
  0.00000000000000e+00
  0.00000000000000e+00
  0.00000000000000e+00
  1.47122794428574e-01
  9.56881375059566e-01
  9.61066109833227e-02
  1.63019974791044e-01
  1.85545022683362e-01
  7.37437919835051e-02
  0.00000000000000e+00
  0.00000000000000e+00
  0.00000000000000e+00
  1.47122794428574e-01
  9.56881375059566e-01
  9.61066109833227e-02
  1.63019974791044e-01
  1.85545022683362e-01
  7.37437919835051e-02
  0.00000000000000e+00
  0.00000000000000e+00
  0.00000000000000e+00
  1.47122794428574e-01
  9.56881375059566e-01
  9.61066109833227e-02
  1.63019974791044e-01
  1.85545022683362e-01
  7.37437919835051e-02
  0.00000000000000e+00
  0.00000000000000e+00
  0.00000000000000e+00
  1.47122794428574e-01
  9.56881375059566e-01
  9.61066109833227e-02
  1.63019974791044e-01
  1.85545022683362e-01
  7.37437919835051e-02
  0.00000000000000e+00
  0.00000000000000e+00
  0.00000000000000e+00
  1.47122794428574e-01
  9.56881375059566e-01
  9.61066109833227e-02
  1.63019974791044e-01
  1.85545022683362e-01
  7.37437919835051e-02
  0.00000000000000e+00
  0.00000000000000e+00
  0.00000000000000e+00
  1.47122794428574e-01
  9.56881375059566e-01
  9.61066109833227e-02
  1.63019974791044e-01
  1.85545022683362e-01
  7.37437919835051e-02
  0.00000000000000e+00
  0.00000000000000e+00
  0.00000000000000e+00
  1.47122794428574e-01
  9.56881375059566e-01

0 0 0 0 3 3 3
0 0 9 0 18 0 
9 0

0 3 3 9 2 6 6
27 1 31 1 
4 0

0 9 9 13 1 5 6
35 2 
1 1

1 14 14 14 3 3 3
36 0 45 0 54 0 
9 0

1 17 17 23 2 6 6
63 1 67 1 
4 0

1 23 23 27 1 5 6
71 2 
1 1

2 28 28 28 3 3 3
72 0 81 0 90 0 
9 0

2 31 31 37 2 6 6
99 1 103 1 
4 0

2 37 37 41 1 5 6
107 2 
1 1

3 42 42 42 3 3 3
108 0 117 0 126 0 
9 0

3 45 45 51 2 6 6
135 1 139 1 
4 0

3 51 51 55 1 5 6
143 2 
1 1

4 56 56 56 3 3 3
144 0 153 0 162 0 
9 0

4 59 59 65 2 6 6
171 1 175 1 
4 0

4 65 65 69 1 5 6
179 2 
1 1

5 70 70 70 3 3 3
180 0 189 0 198 0 
9 0

5 73 73 79 2 6 6
207 1 211 1 
4 0

5 79 79 83 1 5 6
215 2 
1 1

6 84 84 84 3 3 3
216 0 225 0 234 0 
9 0

6 87 87 93 2 6 6
243 1 247 1 
4 0

6 93 93 97 1 5 6
251 2 
1 1

7 98 98 98 3 3 3
252 0 261 0 270 0 
9 0

7 101 101 107 2 6 6
279 1 283 1 
4 0

7 107 107 111 1 5 6
287 2 
1 1

8 112 112 112 3 3 3
288 0 297 0 306 0 
9 0

8 115 115 121 2 6 6
315 1 319 1 
4 0

8 121 121 125 1 5 6
323 2 
1 1

9 126 126 126 3 3 3
324 0 333 0 342 0 
9 0

9 129 129 135 2 6 6
351 1 355 1 
4 0

9 135 135 139 1 5 6
359 2 
1 1

10 140 140 140 3 3 3
360 0 369 0 378 0 
9 0

10 143 143 149 2 6 6
387 1 391 1 
4 0

10 149 149 153 1 5 6
395 2 
1 1

11 154 154 154 3 3 3
396 0 405 0 414 0 
9 0

11 157 157 163 2 6 6
423 1 427 1 
4 0

11 163 163 167 1 5 6
431 2 
1 1

12 168 168 168 3 3 3
432 0 441 0 450 0 
9 0

12 171 171 177 2 6 6
459 1 463 1 
4 0

12 177 177 181 1 5 6
467 2 
1 1

13 182 182 182 3 3 3
468 0 477 0 486 0 
9 0

13 185 185 191 2 6 6
495 1 499 1 
4 0

13 191 191 195 1 5 6
503 2 
1 1

14 196 196 196 3 3 3
504 0 513 0 522 0 
9 0

14 199 199 205 2 6 6
531 1 535 1 
4 0

14 205 205 209 1 5 6
539 2 
1 1

15 210 210 210 3 3 3
540 0 549 0 558 0 
9 0

15 213 213 219 2 6 6
567 1 571 1 
4 0

15 219 219 223 1 5 6
575 2 
1 1

16 224 224 224 3 3 3
576 0 585 0 594 0 
9 0

16 227 227 233 2 6 6
603 1 607 1 
4 0

16 233 233 237 1 5 6
611 2 
1 1

17 238 238 238 3 3 3
612 0 621 0 630 0 
9 0

17 241 241 247 2 6 6
639 1 643 1 
4 0

17 247 247 251 1 5 6
647 2 
1 1

18 252 252 252 3 3 3
648 0 657 0 666 0 
9 0

18 255 255 261 2 6 6
675 1 679 1 
4 0

18 261 261 265 1 5 6
683 2 
1 1

19 266 266 266 3 3 3
684 0 693 0 702 0 
9 0

19 269 269 275 2 6 6
711 1 715 1 
4 0

19 275 275 279 1 5 6
719 2 
1 1

20 280 280 280 3 3 3
720 0 729 0 738 0 
9 0

20 283 283 289 2 6 6
747 1 751 1 
4 0

20 289 289 293 1 5 6
755 2 
1 1

21 294 294 294 3 3 3
756 0 765 0 774 0 
9 0

21 297 297 303 2 6 6
783 1 787 1 
4 0

21 303 303 307 1 5 6
791 2 
1 1

22 308 308 308 3 3 3
792 0 801 0 810 0 
9 0

22 311 311 317 2 6 6
819 1 823 1 
4 0

22 317 317 321 1 5 6
827 2 
1 1

23 322 322 322 3 3 3
828 0 837 0 846 0 
9 0

23 325 325 331 2 6 6
855 1 859 1 
4 0

23 331 331 335 1 5 6
863 2 
1 1

24 336 336 336 2 2 2
864 0 868 0 
4 0

24 338 338 340 1 3 3
872 1 
1 0

25 341 341 341 2 2 2
873 0 877 0 
4 0

25 343 343 345 1 3 3
881 1 
1 0

26 346 346 346 2 2 2
882 0 886 0 
4 0

26 348 348 350 1 3 3
890 1 
1 0

27 351 351 351 2 2 2
891 0 895 0 
4 0

27 353 353 355 1 3 3
899 1 
1 0

28 356 356 356 2 2 2
900 0 904 0 
4 0

28 358 358 360 1 3 3
908 1 
1 0

29 361 361 361 2 2 2
909 0 913 0 
4 0

29 363 363 365 1 3 3
917 1 
1 0

30 366 366 366 2 2 2
918 0 922 0 
4 0

30 368 368 370 1 3 3
926 1 
1 0

31 371 371 371 2 2 2
927 0 931 0 
4 0

31 373 373 375 1 3 3
935 1 
1 0

32 376 376 376 2 2 2
936 0 940 0 
4 0

32 378 378 380 1 3 3
944 1 
1 0

33 381 381 381 2 2 2
945 0 949 0 
4 0

33 383 383 385 1 3 3
953 1 
1 0

34 386 386 386 2 2 2
954 0 958 0 
4 0

34 388 388 390 1 3 3
962 1 
1 0

35 391 391 391 2 2 2
963 0 967 0 
4 0

35 393 393 395 1 3 3
971 1 
1 0

36 396 396 396 2 2 2
972 0 976 0 
4 0

36 398 398 400 1 3 3
980 1 
1 0

37 401 401 401 2 2 2
981 0 985 0 
4 0

37 403 403 405 1 3 3
989 1 
1 0

38 406 406 406 2 2 2
990 0 994 0 
4 0

38 408 408 410 1 3 3
998 1 
1 0

39 411 411 411 2 2 2
999 0 1003 0 
4 0

39 413 413 415 1 3 3
1007 1 
1 0

40 416 416 416 2 2 2
1008 0 1012 0 
4 0

40 418 418 420 1 3 3
1016 1 
1 0

41 421 421 421 2 2 2
1017 0 1021 0 
4 0

41 423 423 425 1 3 3
1025 1 
1 0

42 426 426 426 2 2 2
1026 0 1030 0 
4 0

42 428 428 430 1 3 3
1034 1 
1 0

43 431 431 431 2 2 2
1035 0 1039 0 
4 0

43 433 433 435 1 3 3
1043 1 
1 0

44 436 436 436 2 2 2
1044 0 1048 0 
4 0

44 438 438 440 1 3 3
1052 1 
1 0

45 441 441 441 2 2 2
1053 0 1057 0 
4 0

45 443 443 445 1 3 3
1061 1 
1 0

46 446 446 446 2 2 2
1062 0 1066 0 
4 0

46 448 448 450 1 3 3
1070 1 
1 0

47 451 451 451 2 2 2
1071 0 1075 0 
4 0

47 453 453 455 1 3 3
1079 1 
1 0

 -------------------------------------------------------------
 Allocate 2759992 B from available memory: 314572800000 B
 There are 343 image cells after screening.
 There are 165 image cells for CGTO evaluation after screening.
 Real-Space grid for FFT initialized based on kinetic energy cutoff (eV) = 500.0
 Real-Space grid for FFT: (18,20,25)
 There are 77367 real-space grid points.
 There are 512 batches of real-space grid points. 
 Size of each grid batch is around 128
 Grid for AFT initialized based on kinetic energy cutoff (eV) = 500.0
 Real-Space grid for AFT: (18,20,25)
 There are 77367 real-space grid points.

 There are 138288 atom-centered grid points.

 Spacegroup symmetry group: Pbca
 Reducing spacegroup symmetry to symmorphic group: P -1
 Monkhorst-Pack mesh is [3,3,3]
 There are 27 k points.
kpoints in Bohr
-0.1627468662 -0.1499737698 -0.1176545816
-0.1627468662 -0.1499737698 0.0000000000
-0.1627468662 -0.1499737698 0.1176545816
-0.1627468662 0.0000000000 -0.1176545816
-0.1627468662 0.0000000000 0.0000000000
-0.1627468662 0.0000000000 0.1176545816
-0.1627468662 0.1499737698 -0.1176545816
-0.1627468662 0.1499737698 0.0000000000
-0.1627468662 0.1499737698 0.1176545816
0.0000000000 -0.1499737698 -0.1176545816
0.0000000000 -0.1499737698 0.0000000000
0.0000000000 -0.1499737698 0.1176545816
0.0000000000 0.0000000000 -0.1176545816
0.0000000000 0.0000000000 0.0000000000
0.0000000000 0.0000000000 0.1176545816
0.0000000000 0.1499737698 -0.1176545816
0.0000000000 0.1499737698 0.0000000000
0.0000000000 0.1499737698 0.1176545816
0.1627468662 -0.1499737698 -0.1176545816
0.1627468662 -0.1499737698 0.0000000000
0.1627468662 -0.1499737698 0.1176545816
0.1627468662 0.0000000000 -0.1176545816
0.1627468662 0.0000000000 0.0000000000
0.1627468662 0.0000000000 0.1176545816
0.1627468662 0.1499737698 -0.1176545816
0.1627468662 0.1499737698 0.0000000000
0.1627468662 0.1499737698 0.1176545816
 There are 84 alpha and 84 beta electrons
 Start computing overlap matrix
 Allocate 89828352 B from available memory: 314570040032 B
 Time for computing overlap matrix: 1.7140000000 s
 ====== Initialize compute kernels for all-electron RI-J (kpts) ====== 
 ==== The unitcell is non-orthorombic! => Use AFT non-orthorombic code ==== 
 ========================================================== 
 Range-separated parameter omega        = 0.500000000000000000
 Threshold for 1e2c shellpair           = 0.000000000000010000
 Threshold for 2e2c SR integral         = 0.000000000000000001
 Threshold for 2e3c SR integral         = 0.000000000100000000
 Threshold for AFT G-space screening is = 0.000000000001000000
 The exponent cutoff for C/D classification (omega2 / 2) is  = 0.125000000000000000
 ========================================================== 
 === Process the basis set for RI calculation (exp_cutoff = 0.125000000000000000 ) === 
nshells_b1 before uncontraction = 120
nshells_b1 after uncontraction = 144
nshells_baux before uncontraction = 840
nshells_baux after uncontraction = 840
===============================================
nbsf total   = 504
nbsf compact = 456
nbsf diffuse = 48
naux total   = 2616
naux compact = 2616
naux diffuse = 0
nshells_bnuc = 48

 Number of unique atoms is 2
 Unique atom #0 (h) has 2 shells.
 Unique atom #1 (c) has 3 shells.

Shell 0 to 2 belongs to atom c
Shell 3 to 5 belongs to atom c
Shell 6 to 8 belongs to atom c
Shell 9 to 11 belongs to atom c
Shell 12 to 14 belongs to atom c
Shell 15 to 17 belongs to atom c
Shell 18 to 20 belongs to atom c
Shell 21 to 23 belongs to atom c
Shell 24 to 26 belongs to atom c
Shell 27 to 29 belongs to atom c
Shell 30 to 32 belongs to atom c
Shell 33 to 35 belongs to atom c
Shell 36 to 38 belongs to atom c
Shell 39 to 41 belongs to atom c
Shell 42 to 44 belongs to atom c
Shell 45 to 47 belongs to atom c
Shell 48 to 50 belongs to atom c
Shell 51 to 53 belongs to atom c
Shell 54 to 56 belongs to atom c
Shell 57 to 59 belongs to atom c
Shell 60 to 62 belongs to atom c
Shell 63 to 65 belongs to atom c
Shell 66 to 68 belongs to atom c
Shell 69 to 71 belongs to atom c
Shell 72 to 73 belongs to atom h
Shell 74 to 75 belongs to atom h
Shell 76 to 77 belongs to atom h
Shell 78 to 79 belongs to atom h
Shell 80 to 81 belongs to atom h
Shell 82 to 83 belongs to atom h
Shell 84 to 85 belongs to atom h
Shell 86 to 87 belongs to atom h
Shell 88 to 89 belongs to atom h
Shell 90 to 91 belongs to atom h
Shell 92 to 93 belongs to atom h
Shell 94 to 95 belongs to atom h
Shell 96 to 97 belongs to atom h
Shell 98 to 99 belongs to atom h
Shell 100 to 101 belongs to atom h
Shell 102 to 103 belongs to atom h
Shell 104 to 105 belongs to atom h
Shell 106 to 107 belongs to atom h
Shell 108 to 109 belongs to atom h
Shell 110 to 111 belongs to atom h
Shell 112 to 113 belongs to atom h
Shell 114 to 115 belongs to atom h
Shell 116 to 117 belongs to atom h
Shell 118 to 119 belongs to atom h

 Number of unique atoms is 2
 Unique atom #0 (h) has 1 shells.
 Unique atom #1 (c) has 0 shells.

Shell 0 to 0 belongs to atom h
Shell 1 to 1 belongs to atom h
Shell 2 to 2 belongs to atom h
Shell 3 to 3 belongs to atom h
Shell 4 to 4 belongs to atom h
Shell 5 to 5 belongs to atom h
Shell 6 to 6 belongs to atom h
Shell 7 to 7 belongs to atom h
Shell 8 to 8 belongs to atom h
Shell 9 to 9 belongs to atom h
Shell 10 to 10 belongs to atom h
Shell 11 to 11 belongs to atom h
Shell 12 to 12 belongs to atom h
Shell 13 to 13 belongs to atom h
Shell 14 to 14 belongs to atom h
Shell 15 to 15 belongs to atom h
Shell 16 to 16 belongs to atom h
Shell 17 to 17 belongs to atom h
Shell 18 to 18 belongs to atom h
Shell 19 to 19 belongs to atom h
Shell 20 to 20 belongs to atom h
Shell 21 to 21 belongs to atom h
Shell 22 to 22 belongs to atom h
Shell 23 to 23 belongs to atom h

 Number of unique atom is 2
 Unique atom #0 (h) has 10 auxiliary shells.
 Unique atom #1 (c) has 25 auxiliary shells.

Auxiliary Shell 0 to 24 belongs to atom c
Auxiliary Shell 25 to 49 belongs to atom c
Auxiliary Shell 50 to 74 belongs to atom c
Auxiliary Shell 75 to 99 belongs to atom c
Auxiliary Shell 100 to 124 belongs to atom c
Auxiliary Shell 125 to 149 belongs to atom c
Auxiliary Shell 150 to 174 belongs to atom c
Auxiliary Shell 175 to 199 belongs to atom c
Auxiliary Shell 200 to 224 belongs to atom c
Auxiliary Shell 225 to 249 belongs to atom c
Auxiliary Shell 250 to 274 belongs to atom c
Auxiliary Shell 275 to 299 belongs to atom c
Auxiliary Shell 300 to 324 belongs to atom c
Auxiliary Shell 325 to 349 belongs to atom c
Auxiliary Shell 350 to 374 belongs to atom c
Auxiliary Shell 375 to 399 belongs to atom c
Auxiliary Shell 400 to 424 belongs to atom c
Auxiliary Shell 425 to 449 belongs to atom c
Auxiliary Shell 450 to 474 belongs to atom c
Auxiliary Shell 475 to 499 belongs to atom c
Auxiliary Shell 500 to 524 belongs to atom c
Auxiliary Shell 525 to 549 belongs to atom c
Auxiliary Shell 550 to 574 belongs to atom c
Auxiliary Shell 575 to 599 belongs to atom c
Auxiliary Shell 600 to 609 belongs to atom h
Auxiliary Shell 610 to 619 belongs to atom h
Auxiliary Shell 620 to 629 belongs to atom h
Auxiliary Shell 630 to 639 belongs to atom h
Auxiliary Shell 640 to 649 belongs to atom h
Auxiliary Shell 650 to 659 belongs to atom h
Auxiliary Shell 660 to 669 belongs to atom h
Auxiliary Shell 670 to 679 belongs to atom h
Auxiliary Shell 680 to 689 belongs to atom h
Auxiliary Shell 690 to 699 belongs to atom h
Auxiliary Shell 700 to 709 belongs to atom h
Auxiliary Shell 710 to 719 belongs to atom h
Auxiliary Shell 720 to 729 belongs to atom h
Auxiliary Shell 730 to 739 belongs to atom h
Auxiliary Shell 740 to 749 belongs to atom h
Auxiliary Shell 750 to 759 belongs to atom h
Auxiliary Shell 760 to 769 belongs to atom h
Auxiliary Shell 770 to 779 belongs to atom h
Auxiliary Shell 780 to 789 belongs to atom h
Auxiliary Shell 790 to 799 belongs to atom h
Auxiliary Shell 800 to 809 belongs to atom h
Auxiliary Shell 810 to 819 belongs to atom h
Auxiliary Shell 820 to 829 belongs to atom h
Auxiliary Shell 830 to 839 belongs to atom h

================= Automatically determine grid size for reciprocal space summation =================
 Range-separated parameter = 0.50000000000000 and G-space screening threshold = 0.00000000000100
The number of grid points along each axis dimension is (12, 13, 16)
Total number of grid points = 22275

======== Initializing relevant kernel for RIJ (DD type) ========
There are 300 shellpairs in the reference unit cell
There are 411 images and we expect to have 123300 in total
There are 3832 shellpairs in the lattice sum after screening
======== Initializing relevant kernel for RIJ (CD type) ========
There are 2880 shellpairs in the reference unit cell
There are 411 images and we expect to have 1183680 in total
There are 24336 shellpairs in the lattice sum after screening
****** AFT -> SR ******
Maximum bra distance cutoff is 20.000000000000
Maximum bra ket distance cutoff is 23.082435147972
Maximum bra ket screening distance is 20.500000000000
Number of auxiliary image is 117
There are 2880 shellpairs in the reference unit cell
There are 93 images and we expect to have 267840 in total
There are 24336 shellpairs in the lattice sum after screening
Available memory per thread for 2e3c calculation is 9.827506615000Gb
Finish initializing 2e3c SR with the lattice sum!
=================================================
======== Initializing relevant kernel for RIJ (CC type) ========
There are 7060 shellpairs in the reference unit cell
There are 387 images and we expect to have 2732220 in total
There are 32124 shellpairs in the lattice sum after screening
****** AFT -> SR ******
Maximum bra distance cutoff is 19.000000000000
Maximum bra ket distance cutoff is 30.341056309758
Maximum bra ket screening distance is 20.781250000000
Number of auxiliary image is 173
There are 7060 shellpairs in the reference unit cell
There are 93 images and we expect to have 656580 in total
There are 32124 shellpairs in the lattice sum after screening
Available memory per thread for 2e3c calculation is 9.827506615000Gb
Finish initializing 2e3c SR with the lattice sum!
=================================================
======== Initializing the SR component for Vnuc (CD type) ========
Maximum bra distance cutoff is 20.000000000000
Maximum bra ket distance cutoff is 16.991771926566
Maximum bra ket screening distance is 14.148273112709
Number of auxiliary image is 93
There are 2880 shellpairs in the reference unit cell
There are 93 images and we expect to have 267840 in total
There are 24336 shellpairs in the lattice sum after screening
Available memory per thread for 2e3c calculation is 9.827506615000Gb
Finish initializing 2e3c SR with the lattice sum!
=================================================
======== Initialize the SR component for Vnuc (CC type) ========
Maximum bra distance cutoff is 19.000000000000
Maximum bra ket distance cutoff is 24.463593540105
Maximum bra ket screening distance is 14.324482225836
Number of auxiliary image is 117
There are 7060 shellpairs in the reference unit cell
There are 93 images and we expect to have 656580 in total
There are 32124 shellpairs in the lattice sum after screening
Available memory per thread for 2e3c calculation is 9.827506615000Gb
Finish initializing 2e3c SR with the lattice sum!
=================================================
 Aufbau occupation scheme, occupation determined by eigenvalue
 == 0-th k-point nmo = 456 (-0.16275,-0.14997,-0.11765) ==
 == 1-th k-point nmo = 456 (-0.16275,-0.14997,0.00000) ==
 == 2-th k-point nmo = 456 (-0.16275,-0.14997,0.11765) ==
 == 3-th k-point nmo = 456 (-0.16275,0.00000,-0.11765) ==
 == 4-th k-point nmo = 456 (-0.16275,0.00000,0.00000) ==
 == 5-th k-point nmo = 456 (-0.16275,0.00000,0.11765) ==
 == 6-th k-point nmo = 456 (-0.16275,0.14997,-0.11765) ==
 == 7-th k-point nmo = 456 (-0.16275,0.14997,0.00000) ==
 == 8-th k-point nmo = 456 (-0.16275,0.14997,0.11765) ==
 == 9-th k-point nmo = 456 (0.00000,-0.14997,-0.11765) ==
 == 10-th k-point nmo = 456 (0.00000,-0.14997,0.00000) ==
 == 11-th k-point nmo = 456 (0.00000,-0.14997,0.11765) ==
 == 12-th k-point nmo = 456 (0.00000,0.00000,-0.11765) ==
 == 13-th k-point nmo = 456 (0.00000,0.00000,0.00000) ==
 == 14-th k-point nmo = 456 (0.00000,0.00000,0.11765) ==
 == 15-th k-point nmo = 456 (0.00000,0.14997,-0.11765) ==
 == 16-th k-point nmo = 456 (0.00000,0.14997,0.00000) ==
 == 17-th k-point nmo = 456 (0.00000,0.14997,0.11765) ==
 == 18-th k-point nmo = 456 (0.16275,-0.14997,-0.11765) ==
 == 19-th k-point nmo = 456 (0.16275,-0.14997,0.00000) ==
 == 20-th k-point nmo = 456 (0.16275,-0.14997,0.11765) ==
 == 21-th k-point nmo = 456 (0.16275,0.00000,-0.11765) ==
 == 22-th k-point nmo = 456 (0.16275,0.00000,0.00000) ==
 == 23-th k-point nmo = 456 (0.16275,0.00000,0.11765) ==
 == 24-th k-point nmo = 456 (0.16275,0.14997,-0.11765) ==
 == 25-th k-point nmo = 456 (0.16275,0.14997,0.00000) ==
 == 26-th k-point nmo = 456 (0.16275,0.14997,0.11765) ==

 Generate autoSAD guess
backing up fragment data
Atom # 0: c, charge: 0, multiplicity: 3.000000
Atom # 1: h, charge: 0, multiplicity: 2.000000
writing autosad to fragment context
Settings for isolated fragments: 
  frgm_gamma: TRUE
  frgm_center: FALSE

    Running SCF for isolated atom #0
    Fragment Input file: /n/netscratch/joonholee_lab/Lab/hieudinh//nhome02hieudinhrsdf_test_full_Jbenchmark_pyscfbenzeneqcpbcbenzene_crystal_ccpvdz_333.scratch20250912160044/autosad_frgmt_0/frgmt_input.in
    Fragment Output file: /n/netscratch/joonholee_lab/Lab/hieudinh//nhome02hieudinhrsdf_test_full_Jbenchmark_pyscfbenzeneqcpbcbenzene_crystal_ccpvdz_333.scratch20250912160044/autosad_frgmt_0/frgmt_job.out
    Fragment job begins at Fri Sep 12 16:00:52 2025

 Integrated density by DFT XC:
   Numerical integral  =     6.000000000746
   Relative error      =     0.0000000124 %
Final energy components:
 DFT Correlation            Energy =  -0.14559494833987
 DFT Exchange               Energy =  -5.02589618902885
 Kinetic (alpha)            Energy =  20.10993496626137
 Kinetic (beta)             Energy =  17.53059876963698
 Nuclear Attraction (alpha) Energy = -48.81819257529159
 Nuclear Attraction (beta)  Energy = -39.28429195419321
 Nuclear Repulsion          Energy =   0.00000000000000
 SEOQF                      Energy =  -0.00000000041816
 Total Coulomb              Energy =  17.84490471134346
----------------------------------------------
    SCF Energy: -37.7885372200
   Total fragment job time:  0.34 s.
    Running SCF for isolated atom #1
    Fragment Input file: /n/netscratch/joonholee_lab/Lab/hieudinh//nhome02hieudinhrsdf_test_full_Jbenchmark_pyscfbenzeneqcpbcbenzene_crystal_ccpvdz_333.scratch20250912160044/autosad_frgmt_1/frgmt_input.in
    Fragment Output file: /n/netscratch/joonholee_lab/Lab/hieudinh//nhome02hieudinhrsdf_test_full_Jbenchmark_pyscfbenzeneqcpbcbenzene_crystal_ccpvdz_333.scratch20250912160044/autosad_frgmt_1/frgmt_job.out
    Fragment job begins at Fri Sep 12 16:00:53 2025

 Integrated density by DFT XC:
   Numerical integral  =     0.999999999853
   Relative error      =     0.0000000147 %
Final energy components:
 DFT Correlation            Energy =  -0.00600550223861
 DFT Exchange               Energy =  -0.30392201797186
 Kinetic (alpha)            Energy =   0.49286105286956
 Kinetic (beta)             Energy =   0.00000000000000
 Nuclear Attraction (alpha) Energy =  -0.99211713093072
 Nuclear Attraction (beta)  Energy =   0.00000000000000
 Nuclear Repulsion          Energy =   0.00000000000000
 SEOQF                      Energy =   0.00000000000000
 Total Coulomb              Energy =   0.31055607447687
----------------------------------------------
    SCF Energy: -0.4986275238
   Total fragment job time:  0.39 s.
restoring fragment data

 ------------------------------------------------------------------------
 Allocate 269556336 B from available memory: 314480211680 B
 Time for generating SCF guess: 0.82 s

 Allocate 931576 B from available memory: 314210655360 B
 Selected algorithms for each term:
  kpts_kinetic -> @0x149d56fd7680
  kpts_nn -> @0x149d56fd7800
  kpts_rij_bigmem -> @0x149d56fd73e0
  kpts_vnuc_df -> @0x149d56fd7380
  kpts_xc -> @0x149d56fd72c0
 Time for computing kinetic matrix is 2.30 s
Start calculating Vnuc DD type!
Start calculating Vnuc CD type!
Start calculating Vnuc CC type!
 Time for computing nuclear attraction matrix is 4.82 s
Compute (P|Q) and solve linear equation on the fly!
Maximum distance between P and Q is 28.50858473946434
Number of images for (P|Qn) is 161
 Time for computing 2e2c SR integral without init time is 1.45 s
 Time for computing 2e2c SR integral is 1.50 s
Maximum dynamic memory per thread for 2e3c SR integrals: 0.092 GiB
Batch size for basis function pair is 21888 out of 21888
 === bvk cell = 0 has 99.178 % of the basis function pairs === 
 === bvk cell = 1 has 44.527 % of the basis function pairs === 
 === bvk cell = 2 has 44.527 % of the basis function pairs === 
 === bvk cell = 3 has 67.270 % of the basis function pairs === 
 === bvk cell = 4 has 20.029 % of the basis function pairs === 
 === bvk cell = 5 has 21.857 % of the basis function pairs === 
 === bvk cell = 6 has 67.270 % of the basis function pairs === 
 === bvk cell = 7 has 21.857 % of the basis function pairs === 
 === bvk cell = 8 has 20.029 % of the basis function pairs === 
 === bvk cell = 9 has 76.526 % of the basis function pairs === 
 === bvk cell = 10 has 24.260 % of the basis function pairs === 
 === bvk cell = 11 has 24.415 % of the basis function pairs === 
 === bvk cell = 12 has 36.851 % of the basis function pairs === 
 === bvk cell = 13 has 10.079 % of the basis function pairs === 
 === bvk cell = 14 has 10.526 % of the basis function pairs === 
 === bvk cell = 15 has 36.486 % of the basis function pairs === 
 === bvk cell = 16 has 9.841 % of the basis function pairs === 
 === bvk cell = 17 has 7.767 % of the basis function pairs === 
 === bvk cell = 18 has 76.526 % of the basis function pairs === 
 === bvk cell = 19 has 24.415 % of the basis function pairs === 
 === bvk cell = 20 has 24.260 % of the basis function pairs === 
 === bvk cell = 21 has 36.486 % of the basis function pairs === 
 === bvk cell = 22 has 7.767 % of the basis function pairs === 
 === bvk cell = 23 has 9.841 % of the basis function pairs === 
 === bvk cell = 24 has 36.851 % of the basis function pairs === 
 === bvk cell = 25 has 10.526 % of the basis function pairs === 
 === bvk cell = 26 has 10.079 % of the basis function pairs === 
Static memory requirement for 2e3c SR integrals: 3.754 GB
There are 1 munu batches for computing 2e3c SR integrals with latsum
There are 42 Q batches for computing 2e3c SR integrals with latsum
 Time for computing 2e3c SR integral (CD) is 8.18 s
Maximum dynamic memory per thread for 2e3c SR integrals: 0.250 GiB
Batch size for basis function pair is 102848 out of 102848
 === bvk cell = 0 has 85.306 % of the basis function pairs === 
 === bvk cell = 1 has 27.799 % of the basis function pairs === 
 === bvk cell = 2 has 28.149 % of the basis function pairs === 
 === bvk cell = 3 has 40.039 % of the basis function pairs === 
 === bvk cell = 4 has 9.470 % of the basis function pairs === 
 === bvk cell = 5 has 11.315 % of the basis function pairs === 
 === bvk cell = 6 has 40.984 % of the basis function pairs === 
 === bvk cell = 7 has 11.612 % of the basis function pairs === 
 === bvk cell = 8 has 9.626 % of the basis function pairs === 
 === bvk cell = 9 has 45.217 % of the basis function pairs === 
 === bvk cell = 10 has 11.837 % of the basis function pairs === 
 === bvk cell = 11 has 11.777 % of the basis function pairs === 
 === bvk cell = 12 has 18.534 % of the basis function pairs === 
 === bvk cell = 13 has 3.101 % of the basis function pairs === 
 === bvk cell = 14 has 4.781 % of the basis function pairs === 
 === bvk cell = 15 has 18.273 % of the basis function pairs === 
 === bvk cell = 16 has 4.465 % of the basis function pairs === 
 === bvk cell = 17 has 3.673 % of the basis function pairs === 
 === bvk cell = 18 has 45.831 % of the basis function pairs === 
 === bvk cell = 19 has 11.740 % of the basis function pairs === 
 === bvk cell = 20 has 12.180 % of the basis function pairs === 
 === bvk cell = 21 has 18.120 % of the basis function pairs === 
 === bvk cell = 22 has 3.833 % of the basis function pairs === 
 === bvk cell = 23 has 4.323 % of the basis function pairs === 
 === bvk cell = 24 has 19.400 % of the basis function pairs === 
 === bvk cell = 25 has 5.159 % of the basis function pairs === 
 === bvk cell = 26 has 3.192 % of the basis function pairs === 
Static memory requirement for 2e3c SR integrals: 10.218 GB
There are 1 munu batches for computing 2e3c SR integrals with latsum
There are 42 Q batches for computing 2e3c SR integrals with latsum
 Time for computing 2e3c SR integral (CC) is 20.45 s
 Time for RI-J this SCF iteration is 32.13 s
 Time for RI-J this SCF iteration is 2.02 s
 ----------------------------------------------
 Guess energy: -927.2640397296
 ----------------------------------------------
 Guess energy components:
 DFT Correlation    Energy =  -5.61579253717493
 DFT Exchange       Energy = -134.42774231093347
 Kinetic            Energy = 933.95163531481751
 Nuclear Attraction Energy = -1957.15441767190714
 Nuclear Repulsion  Energy = -128.08132826085716
 Total Coulomb      Energy = 364.06360573648419
 ----------------------------------------------
  Cycle       Energy         DIIS error
 ----------------------------------------------
 Time for RI-J this SCF iteration is 2.01 s
    1    -926.9678971079      2.95e-03  
 Energy components after cycle 1:
 DFT Correlation    Energy =  -5.53334076417206
 DFT Exchange       Energy = -130.47965434907900
 Kinetic            Energy = 910.83274948766416
 Nuclear Attraction Energy = -1897.77768899259650
 Nuclear Repulsion  Energy = -128.08132826085716
 Total Coulomb      Energy = 324.07136577112612
    2    -926.9678971079      3.78e-03  
 Energy components after cycle 2:
 DFT Correlation    Energy =  -5.53334076417206
 DFT Exchange       Energy = -130.47965434907900
 Kinetic            Energy = 910.83274948766416
 Nuclear Attraction Energy = -1897.77768899259650
 Nuclear Repulsion  Energy = -128.08132826085716
 Total Coulomb      Energy = 324.07136577112612
 ----------------------------------------------
  Cycle       Energy        RMS Gradient
 ----------------------------------------------
 Time for RI-J this SCF iteration is 1.98 s
    1    -927.1404549521      1.86e-01   Descent step
 Energy components after cycle 1:
 DFT Correlation    Energy =  -5.53772831328319
 DFT Exchange       Energy = -130.66778650720619
 Kinetic            Energy = 911.96306480915393
 Nuclear Attraction Energy = -1901.09470693337857
 Nuclear Repulsion  Energy = -128.08132826085716
 Total Coulomb      Energy = 326.27803025348931
 Time for RI-J this SCF iteration is 1.92 s
    2    -927.2928054375      1.66e-01   Descent step
 Energy components after cycle 2:
 DFT Correlation    Energy =  -5.54222728550095
 DFT Exchange       Energy = -130.85817963293678
 Kinetic            Energy = 913.10614756097550
 Nuclear Attraction Energy = -1904.41279883111656
 Nuclear Repulsion  Energy = -128.08132826085716
 Total Coulomb      Energy = 328.49558101190013
 Time for RI-J this SCF iteration is 1.94 s
    3    -927.4252737057      1.46e-01   Descent step
 Energy components after cycle 3:
 DFT Correlation    Energy =  -5.54684156176936
 DFT Exchange       Energy = -131.05099673781677
 Kinetic            Energy = 914.26267095250785
 Nuclear Attraction Energy = -1907.73347236835707
 Nuclear Repulsion  Energy = -128.08132826085716
 Total Coulomb      Energy = 330.72469427058456
    3    -927.4252737057      1.46e-01
 ----------------------------------------------
 Final energy components:
 DFT Correlation    Energy =  -5.54684156176936
 DFT Exchange       Energy = -131.05099673781677
 Kinetic            Energy = 914.26267095250785
 Nuclear Attraction Energy = -1907.73347236835707
 Nuclear Repulsion  Energy = -128.08132826085716
 Total Coulomb      Energy = 330.72469427058456
 ----------------------------------------------
 Final energy is -927.4252737057

 SCF time:   CPU 6581.48s  wall 217.00s 
 Total wall time for computing Kinetic: 0.07 s (6)
 Total wall time for computing RIJ-BIGMEM: 42.01 s (6)
 Total wall time for computing RSDF Vnuc: 0.18 s (6)
 Total wall time for computing DFT XC: 137.17 s (6)
 ---------------------------------------------------------------------------
                        Orbital Energies (a.u.)
 ---------------------------------------------------------------------------
[...]
 2.57516 2.58407 2.59321 2.59483 2.60995 2.61444 2.61561 2.62462 2.64200 2.66222
 2.67861 2.68276 2.68466 2.69321 2.69537 2.70909 2.72752 2.73670 2.75524 2.76562
 2.77144 2.77704 2.78874 2.79254 2.79737 2.83391 2.85776 2.89082 2.89831 2.90050
 2.92495 2.92758 2.93135 2.94373 3.03749 3.04144 3.05307 3.05722 3.06473 3.07036
 3.08961 3.09865 3.72179 3.73479 3.74336 3.77232
 == 23-th k-point (0.16275,0.00000,0.11765) occupation: 84==
 -9.88235 -9.88119 -9.86476 -9.85529 -9.85526 -9.85493 -9.85408 -9.85376 -9.85375 -9.85353
 -9.85038 -9.84820 -9.84818 -9.84788 -9.84731 -9.84432 -9.84382 -9.83390 -9.81435 -9.81324
 -9.81225 -9.80912 -9.80636 -9.80530 -0.68456 -0.68159 -0.66622 -0.66588 -0.56409 -0.56169
 -0.56026 -0.55936 -0.55752 -0.55276 -0.54030 -0.53403 -0.40925 -0.40866 -0.40581 -0.40510
 -0.39973 -0.39766 -0.39431 -0.39335 -0.31828 -0.31406 -0.30663 -0.30536 -0.28674 -0.28438
 -0.27247 -0.27202 -0.23874 -0.23245 -0.22924 -0.22765 -0.22617 -0.22596 -0.21904 -0.21589
 -0.21390 -0.21097 -0.20625 -0.20169 -0.20013 -0.19552 -0.18804 -0.18694 -0.15076 -0.14886
 -0.14294 -0.14121 -0.13935 -0.13628 -0.13017 -0.12732 -0.10156 -0.09792 -0.09645 -0.09452
 -0.09335 -0.08823 -0.07775 -0.07178 0.09669 0.09839 0.10391 0.10447 0.10646 0.10933
 0.11781 0.12283 0.21158 0.23423 0.24421 0.24557 0.25013 0.25349 0.25614 0.26092
 0.26223 0.27017 0.27579 0.28368 0.29991 0.30448 0.31446 0.32350 0.32368 0.33280
 0.34349 0.34755 0.35082 0.35853 0.37249 0.37904 0.38279 0.38763 0.38820 0.39072
 0.39911 0.40160 0.40443 0.40745 0.41279 0.41541 0.41767 0.42317 0.43114 0.43301
 0.43835 0.43924 0.46037 0.46588 0.46904 0.47191 0.50855 0.52026 0.52620 0.54622
 0.54754 0.54873 0.56078 0.56510 0.57344 0.57509 0.58536 0.59918 0.60411 0.60545
 0.61705 0.61973 0.62885 0.62972 0.63138 0.63643 0.64296 0.64559 0.66016 0.66466
 0.66764 0.67052 0.67961 0.68390 0.68595 0.69063 0.69384 0.69869 0.70485 0.70773
 0.71515 0.71965 0.73025 0.73865 0.74628 0.74760 0.75483 0.75970 0.77335 0.77953
 0.78865 0.79410 0.79621 0.79809 0.79985 0.81134 0.81348 0.81924 0.83923 0.84074
 0.84592 0.84745 0.85573 0.85937 0.86701 0.87238 0.87663 0.88136 0.88502 0.89120
 0.89350 0.89661 0.90514 0.90661 0.92505 0.94673 0.94824 0.95799 0.97375 0.97701
 0.98850 0.98955 1.00076 1.00169 1.00355 1.01076 1.02019 1.02227 1.04134 1.04360
 1.05491 1.06068 1.06532 1.07489 1.08581 1.09116 1.09183 1.09864 1.10171 1.11042
 1.11655 1.11902 1.13206 1.13410 1.13902 1.14230 1.14394 1.14663 1.15273 1.15593
 1.15811 1.16120 1.16598 1.16847 1.17516 1.17651 1.18414 1.19232 1.20907 1.21122
 1.22196 1.23325 1.24070 1.24168 1.24619 1.26143 1.28241 1.28468 1.28686 1.28908
 1.29385 1.30275 1.31018 1.32573 1.32756 1.33506 1.34576 1.35495 1.36085 1.36352
 1.36600 1.37460 1.38318 1.39605 1.40424 1.40965 1.41269 1.42178 1.42487 1.44326
 1.45602 1.47569 1.48310 1.50192 1.53082 1.53930 1.54421 1.54590 1.59724 1.59894
 1.60473 1.60923 1.61293 1.61727 1.62398 1.62745 1.65141 1.65763 1.66651 1.66889
 1.67955 1.68908 1.70013 1.70714 1.71356 1.71821 1.72727 1.73125 1.73662 1.74140
 1.74545 1.75019 1.75415 1.75579 1.76266 1.77083 1.77890 1.78675 1.78764 1.79335
 1.79423 1.79547 1.79963 1.80590 1.81462 1.82066 1.82257 1.82594 1.83174 1.83496
 1.84030 1.84943 1.85201 1.85346 1.86242 1.86654 1.86958 1.87449 1.87662 1.88965
 1.89360 1.89427 1.89787 1.90422 1.90714 1.91236 1.91495 1.91708 1.92315 1.93379
 1.93570 1.93906 1.94971 1.95054 1.95882 1.96427 1.96600 1.97620 1.98502 1.98859
 1.99252 1.99583 2.00408 2.00696 2.01509 2.01993 2.02281 2.03302 2.03788 2.04248
 2.06147 2.07147 2.07754 2.08523 2.09374 2.09972 2.10228 2.10666 2.11136 2.12327
 2.12965 2.13511 2.14258 2.16468 2.17448 2.17743 2.17937 2.21002 2.21777 2.22279
 2.23722 2.24300 2.27437 2.27548 2.28334 2.28510 2.29385 2.31010 2.31207 2.31820
 2.35564 2.37995 2.39587 2.39779 2.41031 2.42772 2.43962 2.44251 2.55395 2.56024
 2.57884 2.58851 2.59280 2.60156 2.60856 2.61011 2.61811 2.63165 2.64498 2.65296
 2.66919 2.67194 2.68093 2.68708 2.70764 2.71423 2.72155 2.74160 2.74901 2.75873
 2.77363 2.78166 2.79216 2.79543 2.80143 2.82534 2.87060 2.88900 2.89357 2.90172
 2.91646 2.92058 2.92863 2.93099 3.03757 3.04078 3.05325 3.06449 3.06897 3.07567
 3.09408 3.10511 3.72582 3.73324 3.73951 3.75631
 == 24-th k-point (0.16275,0.14997,-0.11765) occupation: 84==
 -9.88236 -9.88119 -9.86476 -9.85529 -9.85526 -9.85493 -9.85408 -9.85376 -9.85375 -9.85353
 -9.85038 -9.84820 -9.84818 -9.84788 -9.84731 -9.84432 -9.84381 -9.83390 -9.81435 -9.81324
 -9.81225 -9.80912 -9.80636 -9.80530 -0.68453 -0.68156 -0.66623 -0.66589 -0.56406 -0.56202
 -0.56061 -0.55875 -0.55761 -0.55273 -0.54028 -0.53401 -0.40914 -0.40873 -0.40577 -0.40502
 -0.39969 -0.39787 -0.39434 -0.39329 -0.31714 -0.31340 -0.30741 -0.30481 -0.28675 -0.28437
 -0.27255 -0.27208 -0.24296 -0.23431 -0.23077 -0.22918 -0.22767 -0.22542 -0.21916 -0.21835
 -0.21234 -0.20894 -0.20458 -0.19959 -0.19550 -0.19249 -0.18870 -0.18600 -0.15014 -0.14951
 -0.14464 -0.14280 -0.13839 -0.13649 -0.13099 -0.12804 -0.10036 -0.09852 -0.09538 -0.09477
 -0.09298 -0.08881 -0.07777 -0.07192 0.09678 0.09689 0.10141 0.10348 0.10724 0.10998
 0.11898 0.12293 0.21759 0.23258 0.23966 0.24169 0.24511 0.25089 0.25638 0.26038
 0.26224 0.26747 0.27319 0.27504 0.30354 0.31664 0.31949 0.32364 0.33185 0.33640
 0.34687 0.34806 0.35585 0.36031 0.36375 0.36855 0.37274 0.37717 0.38358 0.38530
 0.39823 0.40696 0.40799 0.41023 0.42225 0.42445 0.42714 0.42837 0.43335 0.43682
 0.44082 0.44844 0.45190 0.45459 0.46157 0.46871 0.51586 0.51858 0.52818 0.54064
 0.54920 0.55302 0.55325 0.56206 0.56523 0.57255 0.57702 0.58290 0.59150 0.60510
 0.61118 0.61330 0.62155 0.62475 0.62989 0.63177 0.64308 0.65009 0.65784 0.65888
 0.66416 0.66940 0.67176 0.67554 0.68835 0.69389 0.69779 0.70699 0.70929 0.71433
 0.71866 0.72482 0.73362 0.73526 0.74639 0.75389 0.75554 0.75927 0.76903 0.77647
 0.78426 0.79175 0.79844 0.80078 0.81452 0.81744 0.82269 0.82384 0.83704 0.84027
 0.84644 0.84774 0.85421 0.85513 0.86092 0.86968 0.87145 0.87858 0.88389 0.88591
 0.90772 0.91190 0.91741 0.92220 0.94067 0.94419 0.95082 0.96034 0.97101 0.97642
 0.98851 0.99310 0.99865 1.00197 1.01001 1.01536 1.02100 1.02666 1.03318 1.03573
 1.06184 1.06468 1.07224 1.07646 1.08352 1.08997 1.09570 1.09725 1.10460 1.10520
 1.11190 1.11367 1.11733 1.12096 1.12402 1.12929 1.13838 1.14357 1.15613 1.15695
 1.16044 1.16502 1.16794 1.17213 1.17788 1.17861 1.18522 1.18806 1.20083 1.20526
 1.20829 1.21497 1.23218 1.23645 1.25309 1.25770 1.27525 1.28097 1.29245 1.30294
 1.30859 1.31307 1.31767 1.32241 1.32898 1.33310 1.33835 1.34555 1.35374 1.36903
 1.37160 1.38451 1.39527 1.40001 1.41348 1.42230 1.42615 1.43182 1.43545 1.45063
 1.46190 1.47358 1.47588 1.48710 1.52735 1.53195 1.53544 1.54493 1.59262 1.59648
 1.59970 1.60326 1.60767 1.61451 1.62041 1.62727 1.66190 1.66576 1.67771 1.68046
 1.69073 1.69695 1.70980 1.71887 1.72513 1.72664 1.73174 1.73861 1.74196 1.74476
 1.75793 1.76044 1.76134 1.76449 1.77603 1.77917 1.78192 1.78652 1.78733 1.79247
 1.79471 1.80004 1.80429 1.80600 1.80909 1.81251 1.81812 1.82256 1.82466 1.82720
 1.83276 1.83471 1.84220 1.84263 1.84523 1.85462 1.86194 1.86397 1.87333 1.87486
 1.88183 1.89031 1.89332 1.90099 1.90971 1.91077 1.91474 1.92417 1.92645 1.93145
 1.93462 1.93736 1.94555 1.95240 1.95696 1.96157 1.96264 1.96735 1.97467 1.98342
 1.99108 1.99756 2.00499 2.00974 2.01591 2.02205 2.02861 2.03638 2.03828 2.04595
 2.05691 2.05973 2.07661 2.08293 2.08908 2.09566 2.10805 2.11862 2.11960 2.12549
 2.12856 2.14287 2.14510 2.15738 2.16311 2.17140 2.18506 2.21095 2.21199 2.22154
 2.22837 2.24169 2.27202 2.27829 2.28306 2.28545 2.28953 2.30326 2.31771 2.33055
 2.35896 2.36403 2.37412 2.38121 2.40186 2.40959 2.42385 2.45419 2.55815 2.56467
 2.57248 2.58355 2.60078 2.61280 2.61343 2.62110 2.63339 2.63923 2.64962 2.66174
 2.67336 2.67761 2.69386 2.69597 2.70164 2.71410 2.72772 2.74125 2.75344 2.75779
 2.76471 2.76774 2.79277 2.79670 2.81072 2.81935 2.88377 2.89564 2.89935 2.90933
 2.91238 2.91709 2.92574 2.93053 3.03502 3.03937 3.04585 3.04995 3.07645 3.08230
 3.09253 3.10427 3.72463 3.73517 3.73719 3.75033
 == 25-th k-point (0.16275,0.14997,0.00000) occupation: 84==
 -9.88236 -9.88119 -9.86476 -9.85529 -9.85526 -9.85493 -9.85408 -9.85376 -9.85375 -9.85353
 -9.85038 -9.84820 -9.84818 -9.84788 -9.84731 -9.84432 -9.84381 -9.83390 -9.81435 -9.81324
 -9.81225 -9.80912 -9.80636 -9.80530 -0.68455 -0.68154 -0.66632 -0.66580 -0.56402 -0.56165
 -0.56073 -0.55900 -0.55762 -0.55271 -0.54038 -0.53400 -0.40877 -0.40778 -0.40665 -0.40549
 -0.39937 -0.39723 -0.39475 -0.39356 -0.31935 -0.31279 -0.30834 -0.30317 -0.28666 -0.28428
 -0.27266 -0.27183 -0.24119 -0.23348 -0.22936 -0.22833 -0.22729 -0.22473 -0.22017 -0.21756
 -0.21394 -0.20961 -0.20778 -0.20044 -0.19529 -0.19266 -0.18931 -0.18680 -0.14965 -0.14797
 -0.14318 -0.14140 -0.14012 -0.13610 -0.13286 -0.12749 -0.10022 -0.09764 -0.09567 -0.09502
 -0.09309 -0.08889 -0.07817 -0.07161 0.09766 0.09927 0.10158 0.10356 0.10554 0.10980
 0.11756 0.12245 0.21076 0.23689 0.23951 0.24152 0.24355 0.25311 0.25399 0.26076
 0.26459 0.26924 0.27510 0.28736 0.29966 0.30508 0.31330 0.31593 0.33570 0.33815
 0.34362 0.35335 0.36015 0.36375 0.36523 0.37510 0.38368 0.38555 0.39009 0.39600
 0.39870 0.40258 0.40862 0.40903 0.41140 0.41495 0.42012 0.42840 0.43241 0.43393
 0.44220 0.44275 0.45359 0.45869 0.46999 0.47105 0.49414 0.51158 0.52245 0.53712
 0.55777 0.55879 0.56291 0.56871 0.57657 0.57946 0.58127 0.58786 0.58980 0.60426
 0.61661 0.61863 0.62023 0.62297 0.62419 0.63956 0.64240 0.64484 0.65205 0.65883
 0.65996 0.66803 0.67358 0.67903 0.68196 0.68356 0.68615 0.68952 0.70669 0.71146
 0.71630 0.72486 0.72534 0.73448 0.74380 0.74645 0.75839 0.77605 0.77891 0.78020
 0.78835 0.79145 0.80881 0.81032 0.81561 0.81956 0.82076 0.82941 0.83137 0.83461
 0.83583 0.84483 0.84535 0.85083 0.86337 0.86818 0.87811 0.88395 0.88459 0.90057
 0.90261 0.91085 0.91915 0.92116 0.92656 0.93458 0.94636 0.95922 0.95989 0.98569
 0.98797 0.99415 0.99979 1.00867 1.00997 1.01595 1.02131 1.03423 1.04363 1.04470
 1.05656 1.06205 1.07109 1.07798 1.08853 1.08891 1.09663 1.09721 1.10079 1.11096
 1.11404 1.11734 1.11991 1.12147 1.12746 1.12802 1.13502 1.14299 1.14390 1.14913
 1.15407 1.16312 1.16509 1.17742 1.18113 1.18511 1.18851 1.18942 1.19093 1.19959
 1.20525 1.20973 1.22574 1.24638 1.25089 1.25807 1.27883 1.27927 1.28468 1.30715
 1.30934 1.31548 1.32046 1.32778 1.33325 1.33457 1.33706 1.34207 1.35768 1.36085
 1.37708 1.38115 1.38761 1.39947 1.40289 1.41193 1.44424 1.45200 1.45379 1.46102
 1.46398 1.47884 1.48987 1.49565 1.50023 1.52049 1.53194 1.53767 1.59337 1.59535
 1.60087 1.60593 1.60930 1.61474 1.64096 1.64253 1.65330 1.66477 1.67354 1.68131
 1.68971 1.70341 1.70645 1.71318 1.72336 1.73019 1.73209 1.73293 1.74027 1.74177
 1.74429 1.75035 1.75894 1.76589 1.77584 1.77690 1.77962 1.79147 1.79215 1.79433
 1.79679 1.79716 1.80264 1.80477 1.80893 1.80924 1.81557 1.81661 1.82271 1.82705
 1.82803 1.83659 1.83848 1.84826 1.84929 1.85206 1.86138 1.87464 1.87573 1.88104
 1.88181 1.88427 1.89453 1.90373 1.90753 1.91616 1.91736 1.91792 1.92960 1.93557
 1.93919 1.94085 1.94156 1.94322 1.95650 1.96667 1.96880 1.97082 1.98105 1.98269
 1.99009 1.99939 2.00784 2.01063 2.01189 2.01712 2.02861 2.03583 2.03665 2.04497
 2.06274 2.07244 2.07588 2.08872 2.09541 2.09707 2.09996 2.10370 2.10654 2.12176
 2.12285 2.12972 2.14787 2.15472 2.16201 2.17795 2.20318 2.21071 2.23135 2.23884
 2.24259 2.25817 2.26557 2.27607 2.28072 2.28808 2.28918 2.30490 2.31184 2.32292
 2.35615 2.35982 2.36150 2.36934 2.40466 2.41936 2.43895 2.47616 2.56231 2.56428
 2.56844 2.58531 2.59635 2.60064 2.61439 2.61828 2.62351 2.65378 2.65644 2.66901
 2.67650 2.68981 2.69103 2.70089 2.70762 2.70935 2.73349 2.75948 2.76126 2.76376
 2.76409 2.77363 2.77637 2.78739 2.79092 2.81514 2.86475 2.89352 2.90173 2.91644
 2.92290 2.92551 2.93363 2.94039 3.03656 3.03880 3.05400 3.05658 3.06320 3.07247
 3.08794 3.08883 3.72216 3.73616 3.74316 3.76286
 == 26-th k-point (0.16275,0.14997,0.11765) occupation: 84==
 -9.88236 -9.88119 -9.86476 -9.85529 -9.85526 -9.85493 -9.85408 -9.85376 -9.85375 -9.85353
 -9.85038 -9.84820 -9.84818 -9.84788 -9.84731 -9.84432 -9.84381 -9.83390 -9.81435 -9.81324
 -9.81225 -9.80912 -9.80636 -9.80530 -0.68454 -0.68156 -0.66624 -0.66588 -0.56415 -0.56168
 -0.56074 -0.55895 -0.55759 -0.55265 -0.54029 -0.53401 -0.40928 -0.40857 -0.40582 -0.40496
 -0.39985 -0.39778 -0.39432 -0.39329 -0.31716 -0.31342 -0.30729 -0.30490 -0.28671 -0.28441
 -0.27253 -0.27209 -0.24198 -0.23696 -0.22915 -0.22864 -0.22775 -0.22591 -0.21982 -0.21748
 -0.21221 -0.20906 -0.20475 -0.19915 -0.19537 -0.19290 -0.18822 -0.18666 -0.15089 -0.14872
 -0.14441 -0.14285 -0.13869 -0.13634 -0.13092 -0.12810 -0.10036 -0.09757 -0.09624 -0.09536
 -0.09252 -0.08869 -0.07795 -0.07182 0.09592 0.09809 0.10075 0.10418 0.10702 0.10984
 0.11863 0.12326 0.21761 0.23310 0.23967 0.24121 0.24510 0.25051 0.25607 0.26023
 0.26293 0.26796 0.27254 0.27525 0.30362 0.31691 0.31890 0.32374 0.33197 0.33685
 0.34643 0.34794 0.35510 0.36155 0.36372 0.36815 0.37307 0.37760 0.38299 0.38514
 0.39836 0.40732 0.40799 0.40998 0.42260 0.42363 0.42701 0.42860 0.43333 0.43667
 0.44182 0.44791 0.45176 0.45465 0.46196 0.46831 0.51551 0.51924 0.52798 0.54090
 0.54884 0.55222 0.55300 0.56258 0.56565 0.57284 0.57736 0.58290 0.59142 0.60493
 0.61038 0.61345 0.62042 0.62542 0.63008 0.63205 0.64327 0.64982 0.65849 0.65957
 0.66349 0.66884 0.67187 0.67640 0.68894 0.69374 0.69724 0.70650 0.70948 0.71440
 0.71829 0.72514 0.73362 0.73453 0.74641 0.75392 0.75623 0.75953 0.76866 0.77617
 0.78525 0.79016 0.79862 0.80055 0.81465 0.81848 0.82160 0.82474 0.83735 0.83957
 0.84622 0.84749 0.85288 0.85719 0.86122 0.86899 0.87170 0.87823 0.88378 0.88609
 0.90729 0.91209 0.91802 0.92229 0.94033 0.94377 0.95110 0.96113 0.97096 0.97629
 0.98846 0.99230 1.00036 1.00118 1.00972 1.01542 1.02177 1.02660 1.03307 1.03594
 1.06190 1.06454 1.07202 1.07629 1.08342 1.08963 1.09526 1.09815 1.10466 1.10656
 1.10992 1.11247 1.11737 1.12097 1.12357 1.13028 1.13844 1.14363 1.15602 1.15802
 1.16051 1.16495 1.16814 1.17129 1.17762 1.17889 1.18518 1.18847 1.20058 1.20530
 1.20862 1.21494 1.23207 1.23688 1.25290 1.25747 1.27552 1.28133 1.29292 1.30118
 1.30879 1.31291 1.31862 1.32196 1.32886 1.33364 1.33779 1.34567 1.35416 1.36969
 1.37145 1.38323 1.39585 1.40142 1.41324 1.42143 1.42508 1.43165 1.43595 1.45051
 1.46205 1.47357 1.47581 1.48705 1.52703 1.53207 1.53610 1.54484 1.59232 1.59718
 1.60036 1.60244 1.60782 1.61450 1.62038 1.62717 1.66141 1.66605 1.67741 1.68062
 1.69201 1.69612 1.71029 1.71779 1.72582 1.72624 1.73228 1.73885 1.74161 1.74458
 1.75774 1.76022 1.76177 1.76452 1.77606 1.77832 1.78208 1.78648 1.78714 1.79288
 1.79475 1.80011 1.80408 1.80558 1.80887 1.81238 1.81932 1.82222 1.82497 1.82751
 1.83257 1.83571 1.84191 1.84272 1.84520 1.85341 1.86175 1.86482 1.87347 1.87474
 1.88171 1.88993 1.89303 1.90085 1.90945 1.91090 1.91461 1.92438 1.92578 1.93124
 1.93531 1.93716 1.94526 1.95238 1.95703 1.96172 1.96317 1.96787 1.97476 1.98295
 1.99200 1.99695 2.00452 2.01028 2.01627 2.02244 2.02866 2.03593 2.03807 2.04632
 2.05622 2.06010 2.07626 2.08365 2.08925 2.09523 2.10836 2.11842 2.11979 2.12421
 2.12951 2.14257 2.14424 2.15723 2.16370 2.17175 2.18476 2.21050 2.21353 2.22139
 2.22848 2.24091 2.27384 2.27681 2.28272 2.28539 2.28976 2.30194 2.31747 2.33147
 2.35898 2.36464 2.37449 2.38165 2.40171 2.40951 2.42345 2.45404 2.55737 2.56574
 2.57303 2.58301 2.60072 2.61326 2.61362 2.62028 2.63278 2.63931 2.64929 2.66230
 2.67242 2.67806 2.69398 2.69636 2.70234 2.71283 2.72827 2.74194 2.75239 2.75832
 2.76456 2.76794 2.79247 2.79652 2.81057 2.82020 2.88350 2.89651 2.89871 2.90844
 2.91285 2.91764 2.92528 2.93064 3.03594 3.04003 3.04432 3.04963 3.07663 3.08204
 3.09277 3.10430 3.72470 3.73541 3.73705 3.75016
 ---------------------------------------------------------------------------
 VBM is at 13-th k-point with -1.90149 eV
 CBM is at 0-th k-point with 2.61008 eV
 Band gap is 4.51157 eV


           Ground-State Mulliken Net Atomic Charges

      Atom                 Charge (a.u.)          Spin (a.u.)
   --------------------------------------------------------
      1  C               (0.151791,-0.000000)    (0.000000,0.000000)
      2  C               (0.136509,-0.000000)    (0.000000,0.000000)
      3  C               (0.064540,-0.000000)    (0.000000,0.000000)
      4  C                (0.143496,0.000000)    (0.000000,0.000000)
      5  C               (0.092525,-0.000000)    (0.000000,0.000000)
      6  C               (0.137640,-0.000000)    (0.000000,0.000000)
      7  C                (0.061703,0.000000)    (0.000000,0.000000)
      8  C                (0.134896,0.000000)    (0.000000,0.000000)
      9  C                (0.169364,0.000000)    (0.000000,0.000000)
     10  C               (0.148940,-0.000000)    (0.000000,0.000000)
     11  C                (0.264712,0.000000)    (0.000000,0.000000)
     12  C               (0.129647,-0.000000)    (0.000000,0.000000)
     13  C                (0.209950,0.000000)    (0.000000,0.000000)
     14  C                (0.149708,0.000000)    (0.000000,0.000000)
     15  C               (0.262956,-0.000000)    (0.000000,0.000000)
     16  C                (0.151470,0.000000)    (0.000000,0.000000)
     17  C               (0.129948,-0.000000)    (0.000000,0.000000)
     18  C               (0.173276,-0.000000)    (0.000000,0.000000)
     19  C                (0.094435,0.000000)    (0.000000,0.000000)
     20  C               (0.173467,-0.000000)    (0.000000,0.000000)
     21  C                (0.096308,0.000000)    (0.000000,0.000000)
     22  C                (0.172629,0.000000)    (0.000000,0.000000)
     23  C               (0.095684,-0.000000)    (0.000000,0.000000)
     24  C               (0.176004,-0.000000)    (0.000000,0.000000)
     25  H              (-0.155199,-0.000000)    (0.000000,0.000000)
     26  H              (-0.158810,-0.000000)    (0.000000,0.000000)
     27  H              (-0.145592,-0.000000)    (0.000000,0.000000)
     28  H               (-0.156617,0.000000)    (0.000000,0.000000)
     29  H              (-0.147077,-0.000000)    (0.000000,0.000000)
     30  H              (-0.158011,-0.000000)    (0.000000,0.000000)
     31  H               (-0.145291,0.000000)    (0.000000,0.000000)
     32  H               (-0.155879,0.000000)    (0.000000,0.000000)
     33  H               (-0.119526,0.000000)    (0.000000,0.000000)
     34  H              (-0.134638,-0.000000)    (0.000000,0.000000)
     35  H              (-0.128498,-0.000000)    (0.000000,0.000000)
     36  H              (-0.132158,-0.000000)    (0.000000,0.000000)
     37  H               (-0.125121,0.000000)    (0.000000,0.000000)
     38  H               (-0.133618,0.000000)    (0.000000,0.000000)
     39  H               (-0.128850,0.000000)    (0.000000,0.000000)
     40  H               (-0.134089,0.000000)    (0.000000,0.000000)
     41  H              (-0.160066,-0.000000)    (0.000000,0.000000)
     42  H              (-0.161396,-0.000000)    (0.000000,0.000000)
     43  H               (-0.151825,0.000000)    (0.000000,0.000000)
     44  H               (-0.161644,0.000000)    (0.000000,0.000000)
     45  H               (-0.152085,0.000000)    (0.000000,0.000000)
     46  H               (-0.161626,0.000000)    (0.000000,0.000000)
     47  H              (-0.154598,-0.000000)    (0.000000,0.000000)
     48  H              (-0.159386,-0.000000)    (0.000000,0.000000)
   --------------------------------------------------------
  Sum of atomic charges =      (0.000000,-0.000000)
  Sum of spin   charges =       (0.000000,0.000000)



 Total job time:  218.13 s.
 Fri Sep 12 16:04:23 2025


        *************************************************************
        *                                                           *
        *  Thank you very much for using QCPBC. Have a nice day.    *
        *                                                           *
        *************************************************************

