                  Welcome to Q-Chem
           with Periodic Boundary Condition
     A Quantum Leap Into The Future Of Chemistry

 Adam Rettig, Xintian Feng, Meng-Fu Chen, Hieu Dinh, Stephen Quiton,
 Anton Ni, Paul J. Robinson, Jinghong Zhang, Joonho Lee

Contributors to earlier versions of Q-Chem not listed above:
 Evgeny Epifanovsky, Leo Cunha, Jerome F. Gonthier, Kuan-Yu Liu
 Input file: /n/home02/hieudinh/rsdf_test_full_J/benchmark_pyscf/benzene/qcpbc/benzene_crystal_ccpvdz_101010.in
 Scratch folder: /n/netscratch/joonholee_lab/Lab/hieudinh//nhome02hieudinhrsdf_test_full_Jbenchmark_pyscfbenzeneqcpbcbenzene_crystal_ccpvdz_101010.scratch20250912172014
 Auxillary files located at: /n/home02/hieudinh/qcpbc/qcaux
 Q-Chem begins on Fri Sep 12 17:20:15 2025

 -------------------------------------------------------------
 User input:
 -------------------------------------------------------------
 $lattice
 3
 6.8100000000 	0.0000000000 	0.0000000000
 0.0000000000 	7.3900000000 	0.0000000000
 0.0000000000 	0.0000000000 	9.4200000000
 $end
 
 $unitcell
 ABSOLUTE
 0 1
  C 	6.7630110000 	6.9414270000 	1.3122060000
  C 	6.7630110000 	4.1435730000 	6.0222060000
  C 	3.3580110000 	6.9414270000 	3.3977940000
  C 	3.3580110000 	4.1435730000 	8.1077940000
  C 	0.0469890000 	0.4485730000 	8.1077940000
  C 	0.0469890000 	3.2464270000 	3.3977940000
  C 	3.4519890000 	0.4485730000 	6.0222060000
  C 	3.4519890000 	3.2464270000 	1.3122060000
  C 	0.8580600000 	6.3723970000 	0.4210740000
  C 	0.8580600000 	4.7126030000 	5.1310740000
  C 	4.2630600000 	6.3723970000 	4.2889260000
  C 	4.2630600000 	4.7126030000 	8.9989260000
  C 	5.9519400000 	1.0176030000 	8.9989260000
  C 	5.9519400000 	2.6773970000 	4.2889260000
  C 	2.5469400000 	1.0176030000 	5.1310740000
  C 	2.5469400000 	2.6773970000 	0.4210740000
  C 	5.9076750000 	0.5690300000 	0.9024360000
  C 	5.9076750000 	3.1259700000 	5.6124360000
  C 	2.5026750000 	0.5690300000 	3.8075640000
  C 	2.5026750000 	3.1259700000 	8.5175640000
  C 	0.9023250000 	6.8209700000 	8.5175640000
  C 	0.9023250000 	4.2640300000 	3.8075640000
  C 	4.3073250000 	6.8209700000 	5.6124360000
  C 	4.3073250000 	4.2640300000 	0.9024360000
  H 	6.7262370000 	6.6170060000 	2.3568840000
  H 	6.7262370000 	4.4679940000 	7.0668840000
  H 	3.3212370000 	6.6170060000 	2.3531160000
  H 	3.3212370000 	4.4679940000 	7.0631160000
  H 	0.0837630000 	0.7729940000 	7.0631160000
  H 	0.0837630000 	2.9220060000 	2.3531160000
  H 	3.4887630000 	0.7729940000 	7.0668840000
  H 	3.4887630000 	2.9220060000 	2.3568840000
  H 	1.5261210000 	5.5735380000 	0.7357020000
  H 	1.5261210000 	5.5114620000 	5.4457020000
  H 	4.9311210000 	5.5735380000 	3.9742980000
  H 	4.9311210000 	5.5114620000 	8.6842980000
  H 	5.2838790000 	1.8164620000 	8.6842980000
  H 	5.2838790000 	1.8785380000 	3.9742980000
  H 	1.8788790000 	1.8164620000 	5.4457020000
  H 	1.8788790000 	1.8785380000 	0.7357020000
  H 	5.2028400000 	1.0131690000 	1.5835020000
  H 	5.2028400000 	2.6818310000 	6.2935020000
  H 	1.7978400000 	1.0131690000 	3.1264980000
  H 	1.7978400000 	2.6818310000 	7.8364980000
  H 	1.6071600000 	6.3768310000 	7.8364980000
  H 	1.6071600000 	4.7081690000 	3.1264980000
  H 	5.0121600000 	6.3768310000 	6.2935020000
  H 	5.0121600000 	4.7081690000 	1.5835020000
 $end
 
 $rem
 jobtype = sp
 method = pbe
 scf_convergence = 5
 scf_guess = autosad
 scf_algorithm = diis_gdm
 basis = gen
 aux_basis = gen
 input_bohr = false
 symmetry = false
 latsum_factor 1.0
 rsdf_print_level 1
 is_basis_uctr true
 do_nonortho true
 
 mp_mesh = [10,10,10]
 
 integral_direct true
 bvk_cgto true
 
 thresh 14
 mem_total 300000
 threads 32
 
 MAX_SCF_CYCLES 3
 madelung = false
 omega 0.5
 do_rij_bigmem true
 automate_g true
 print_level 10
 grid_type_xc 1
 
 thresh_1e2c_sp 1e-14
 thresh_2e3c_bra_ket_sep 1e-10
 thresh_g 1e-12
 $end
 
 $basis
 H     0
 S   4   1.00
       1.301000D+01           1.968500D-02
       1.962000D+00           1.379770D-01
       4.446000D-01           4.781480D-01
       1.220000D-01           5.012400D-01
 S   4   1.00
       1.301000D+01           0.000000
       1.962000D+00           0.000000
       4.446000D-01           0.000000
       1.220000D-01           1.000000D+00
 P   1   1.00
       7.270000D-01           1.0000000
 ****
 C     0
 S   9   1.00
       6.665000D+03           6.920000D-04
       1.000000D+03           5.329000D-03
       2.280000D+02           2.707700D-02
       6.471000D+01           1.017180D-01
       2.106000D+01           2.747400D-01
       7.495000D+00           4.485640D-01
       2.797000D+00           2.850740D-01
       5.215000D-01           1.520400D-02
       1.596000D-01          -3.191000D-03
 S   9   1.00
       6.665000D+03          -1.460000D-04
       1.000000D+03          -1.154000D-03
       2.280000D+02          -5.725000D-03
       6.471000D+01          -2.331200D-02
       2.106000D+01          -6.395500D-02
       7.495000D+00          -1.499810D-01
       2.797000D+00          -1.272620D-01
       5.215000D-01           5.445290D-01
       1.596000D-01           5.804960D-01
 S   9   1.00
       6.665000D+03           0.000000
       1.000000D+03           0.000000
       2.280000D+02           0.000000
       6.471000D+01           0.000000
       2.106000D+01           0.000000
       7.495000D+00           0.000000
       2.797000D+00           0.000000
       5.215000D-01           0.000000
       1.596000D-01           1.000000D+00
 P   4   1.00
       9.439000D+00           3.810900D-02
       2.002000D+00           2.094800D-01
       5.456000D-01           5.085570D-01
       1.517000D-01           4.688420D-01
 P   4   1.00
       9.439000D+00           0.000000
       2.002000D+00           0.000000
       5.456000D-01           0.000000
       1.517000D-01           1.000000D+00
 D   1   1.00
       5.500000D-01           1.0000000
 ****
 $end
 
 ! cc-pvtz-jkfit
 $aux_basis
 H     0
 S   1   1.00
       9.5302493327           1.0000000
 S   1   1.00
       1.9174506246           1.0000000
 S   1   1.00
       0.68424049142          1.0000000
 S   1   1.00
       0.28413255710          1.0000000
 P   1   1.00
       2.9133232035           1.0000000
 P   1   1.00
       1.2621205398           1.0000000
 P   1   1.00
       0.50199775874          1.0000000
 D   1   1.00
       2.3135329149           1.0000000
 D   1   1.00
       0.71290724024          1.0000000
 F   1   1.00
       1.6565726132           1.0000000
 ****
 C     0
 S   1   1.00
    1113.9867719              1.0000000
 S   1   1.00
     369.16234180             1.0000000
 S   1   1.00
     121.79275232             1.0000000
 S   1   1.00
      48.127114540            1.0000000
 S   1   1.00
      20.365074004            1.0000000
 S   1   1.00
       8.0883596856           1.0000000
 S   1   1.00
       2.5068656570           1.0000000
 S   1   1.00
       1.2438537380           1.0000000
 S   1   1.00
       0.48449899601          1.0000000
 S   1   1.00
       0.19185160296          1.0000000
 P   1   1.00
     102.99176249             1.0000000
 P   1   1.00
      28.132594009            1.0000000
 P   1   1.00
       9.8364318173           1.0000000
 P   1   1.00
       3.3490544980           1.0000000
 P   1   1.00
       1.4947618613           1.0000000
 P   1   1.00
       0.57690108899          1.0000000
 P   1   1.00
       0.20320063291          1.0000000
 D   1   1.00
      10.594068356            1.0000000
 D   1   1.00
       3.5997195366           1.0000000
 D   1   1.00
       1.3355691094           1.0000000
 D   1   1.00
       0.51949764954          1.0000000
 D   1   1.00
       0.19954125200          1.0000000
 F   1   1.00
       1.19486633836900000000 1.0000000
 F   1   1.00
        .41586633836900000000 1.0000000
 G   1   1.00
        .85886633836900000000 1.0000000
 ****
 $end
 
 -------------------------------------------------------------
 Running PBC job

 Requested Exchange Correlation Functionals: 
  DFT Exchange:  1.00000 pbe_x
  DFT Correlation:  1.00000 pbe_c
 using 32 threads for computing.
 ---------------------------------------------------------------
      Coordinates of Atoms in Central Unit Cell (Angstroms)
    I     Atom         X            Y            Z
 ---------------------------------------------------------------
    1       C      6.763011     6.941427     1.312206
    2       C      6.763011     4.143573     6.022206
    3       C      3.358011     6.941427     3.397794
    4       C      3.358011     4.143573     8.107794
    5       C      0.046989     0.448573     8.107794
    6       C      0.046989     3.246427     3.397794
    7       C      3.451989     0.448573     6.022206
    8       C      3.451989     3.246427     1.312206
    9       C      0.858060     6.372397     0.421074
   10       C      0.858060     4.712603     5.131074
   11       C      4.263060     6.372397     4.288926
   12       C      4.263060     4.712603     8.998926
   13       C      5.951940     1.017603     8.998926
   14       C      5.951940     2.677397     4.288926
   15       C      2.546940     1.017603     5.131074
   16       C      2.546940     2.677397     0.421074
   17       C      5.907675     0.569030     0.902436
   18       C      5.907675     3.125970     5.612436
   19       C      2.502675     0.569030     3.807564
   20       C      2.502675     3.125970     8.517564
   21       C      0.902325     6.820970     8.517564
   22       C      0.902325     4.264030     3.807564
   23       C      4.307325     6.820970     5.612436
   24       C      4.307325     4.264030     0.902436
   25       H      6.726237     6.617006     2.356884
   26       H      6.726237     4.467994     7.066884
   27       H      3.321237     6.617006     2.353116
   28       H      3.321237     4.467994     7.063116
   29       H      0.083763     0.772994     7.063116
   30       H      0.083763     2.922006     2.353116
   31       H      3.488763     0.772994     7.066884
   32       H      3.488763     2.922006     2.356884
   33       H      1.526121     5.573538     0.735702
   34       H      1.526121     5.511462     5.445702
   35       H      4.931121     5.573538     3.974298
   36       H      4.931121     5.511462     8.684298
   37       H      5.283879     1.816462     8.684298
   38       H      5.283879     1.878538     3.974298
   39       H      1.878879     1.816462     5.445702
   40       H      1.878879     1.878538     0.735702
   41       H      5.202840     1.013169     1.583502
   42       H      5.202840     2.681831     6.293502
   43       H      1.797840     1.013169     3.126498
   44       H      1.797840     2.681831     7.836498
   45       H      1.607160     6.376831     7.836498
   46       H      1.607160     4.708169     3.126498
   47       H      5.012160     6.376831     6.293502
   48       H      5.012160     4.708169     1.583502
 ---------------------------------------------------------------
 --------------------------------------------------
              Lattice Vectors (Angstroms)
              X            Y            Z
 --------------------------------------------------
   X       6.810000     0.000000     0.000000
   Y       0.000000     7.390000     0.000000
   Z       0.000000     0.000000     9.420000
 --------------------------------------------------
 --------------------------------------------------
       Reciprocal Lattice Vectors (Angstroms^-1)
              X            Y            Z
 --------------------------------------------------
   X       0.922641     0.000000     0.000000
   Y       0.000000     0.850228     0.000000
   Z       0.000000     0.000000     0.667005
 --------------------------------------------------

 Single point calculation requested

 Hamiltonian contributions:
 List of terms in Hamiltonian: kpts_nn, kpts_kinetic, kpts_vnuc_df, kpts_xc, kpts_rij_bigmem

 K-Points calculation started.

 Basis set information about using solid harmonic (1) or Cartesian (0):
  h : 
  c : D(1) 

 Basis set information about using solid harmonic (1) or Cartesian (0):
  h : D(1) D(1) F(1) 
  c : D(1) D(1) D(1) D(1) D(1) F(1) F(1) G(1) 

 There are 456 basis functions in the central unit cell.
 Print atomic basis of atoms in the central unit cell:
 -------------------------------------------------------------
48 456 1080 120

  1.27802385678315e+01  1.31173959440827e+01  2.47970995909068e+00
  1.27802385678315e+01  7.83021814739398e+00  1.13803200060781e+01
  6.34572111348071e+00  1.31173959440827e+01  6.42090008789669e+00
  6.34572111348071e+00  7.83021814739398e+00  1.53215101348841e+01
  8.87963408700403e-02  8.47680116901756e-01  1.53215101348841e+01
  8.87963408700403e-02  6.13485791359047e+00  6.42090008789669e+00
  6.52331379522079e+00  8.47680116901756e-01  1.13803200060781e+01
  6.52331379522079e+00  6.13485791359047e+00  2.47970995909068e+00
  1.62149839849639e+00  1.20420850873869e+01  7.95714538200672e-01
  1.62149839849639e+00  8.90552900408978e+00  9.69632458518805e+00
  8.05601585284714e+00  1.20420850873869e+01  8.10489550878671e+00
  8.05601585284714e+00  8.90552900408978e+00  1.70055055557741e+01
  1.12475365102051e+01  1.92299097359756e+00  1.70055055557741e+01
  1.12475365102051e+01  5.05954705689466e+00  8.10489550878671e+00
  4.81301905585436e+00  1.92299097359756e+00  9.69632458518805e+00
  4.81301905585436e+00  5.05954705689466e+00  7.95714538200672e-01
  1.11638877832985e+01  1.07531085669580e+00  1.70535688500278e+00
  1.11638877832985e+01  5.90722717379642e+00  1.06059669319902e+01
  4.72937032894780e+00  1.07531085669580e+00  7.19525316198460e+00
  4.72937032894780e+00  5.90722717379642e+00  1.60958632089720e+01
  1.70514712540295e+00  1.28897652042886e+01  1.60958632089720e+01
  1.70514712540295e+00  8.05784888718802e+00  7.19525316198460e+00
  8.13966457975370e+00  1.28897652042886e+01  1.06059669319902e+01
  8.13966457975370e+00  8.05784888718802e+00  1.70535688500278e+00
  1.27107457793245e+01  1.25043291050055e+01  4.45386526751248e+00
  1.27107457793245e+01  8.44328498647119e+00  1.33544753144999e+01
  6.27622832497372e+00  1.25043291050055e+01  4.44674477947489e+00
  6.27622832497372e+00  8.44328498647119e+00  1.33473548264623e+01
  1.58289129377028e-01  1.46074695597897e+00  1.33473548264623e+01
  1.58289129377028e-01  5.52179107451325e+00  4.44674477947489e+00
  6.59280658372778e+00  1.46074695597897e+00  1.33544753144999e+01
  6.59280658372778e+00  5.52179107451325e+00  4.45386526751248e+00
  2.88395072304001e+00  1.05324603651945e+01  1.39027528933943e+00
  2.88395072304001e+00  1.04151537262822e+01  1.02908853363268e+01
  9.31846817739075e+00  1.05324603651945e+01  7.51033475764795e+00
  9.31846817739075e+00  1.04151537262822e+01  1.64109448046353e+01
  9.98508418566149e+00  3.43261569578998e+00  1.64109448046353e+01
  9.98508418566149e+00  3.54992233470225e+00  7.51033475764795e+00
  3.55056673131074e+00  3.43261569578998e+00  1.02908853363268e+01
  3.55056673131074e+00  3.54992233470225e+00  1.39027528933943e+00
  9.83194267024794e+00  1.91461192796097e+00  2.99238509779716e+00
  9.83194267024794e+00  5.06792610253125e+00  1.18929951447845e+01
  3.39742521589719e+00  1.91461192796097e+00  5.90822494919022e+00
  3.39742521589719e+00  5.06792610253125e+00  1.48088349961776e+01
  3.03709223845355e+00  1.20504641330235e+01  1.48088349961776e+01
  3.03709223845355e+00  8.89714995845319e+00  5.90822494919022e+00
  9.47160969280430e+00  1.20504641330235e+01  1.18929951447845e+01
  9.47160969280430e+00  8.89714995845319e+00  2.99238509779716e+00

  6.66500000000000e+03
  1.00000000000000e+03
  2.28000000000000e+02
  6.47100000000000e+01
  2.10600000000000e+01
  7.49500000000000e+00
  2.79700000000000e+00
  5.21500000000000e-01
  1.59600000000000e-01
  9.43900000000000e+00
  2.00200000000000e+00
  5.45600000000000e-01
  1.51700000000000e-01
  5.50000000000000e-01
  6.66500000000000e+03
  1.00000000000000e+03
  2.28000000000000e+02
  6.47100000000000e+01
  2.10600000000000e+01
  7.49500000000000e+00
  2.79700000000000e+00
  5.21500000000000e-01
  1.59600000000000e-01
  9.43900000000000e+00
  2.00200000000000e+00
  5.45600000000000e-01
  1.51700000000000e-01
  5.50000000000000e-01
  6.66500000000000e+03
  1.00000000000000e+03
  2.28000000000000e+02
  6.47100000000000e+01
  2.10600000000000e+01
  7.49500000000000e+00
  2.79700000000000e+00
  5.21500000000000e-01
  1.59600000000000e-01
  9.43900000000000e+00
  2.00200000000000e+00
  5.45600000000000e-01
  1.51700000000000e-01
  5.50000000000000e-01
  6.66500000000000e+03
  1.00000000000000e+03
  2.28000000000000e+02
  6.47100000000000e+01
  2.10600000000000e+01
  7.49500000000000e+00
  2.79700000000000e+00
  5.21500000000000e-01
  1.59600000000000e-01
  9.43900000000000e+00
  2.00200000000000e+00
  5.45600000000000e-01
  1.51700000000000e-01
  5.50000000000000e-01
  6.66500000000000e+03
  1.00000000000000e+03
  2.28000000000000e+02
  6.47100000000000e+01
  2.10600000000000e+01
  7.49500000000000e+00
  2.79700000000000e+00
  5.21500000000000e-01
  1.59600000000000e-01
  9.43900000000000e+00
  2.00200000000000e+00
  5.45600000000000e-01
  1.51700000000000e-01
  5.50000000000000e-01
  6.66500000000000e+03
  1.00000000000000e+03
  2.28000000000000e+02
  6.47100000000000e+01
  2.10600000000000e+01
  7.49500000000000e+00
  2.79700000000000e+00
  5.21500000000000e-01
  1.59600000000000e-01
  9.43900000000000e+00
  2.00200000000000e+00
  5.45600000000000e-01
  1.51700000000000e-01
  5.50000000000000e-01
  6.66500000000000e+03
  1.00000000000000e+03
  2.28000000000000e+02
  6.47100000000000e+01
  2.10600000000000e+01
  7.49500000000000e+00
  2.79700000000000e+00
  5.21500000000000e-01
  1.59600000000000e-01
  9.43900000000000e+00
  2.00200000000000e+00
  5.45600000000000e-01
  1.51700000000000e-01
  5.50000000000000e-01
  6.66500000000000e+03
  1.00000000000000e+03
  2.28000000000000e+02
  6.47100000000000e+01
  2.10600000000000e+01
  7.49500000000000e+00
  2.79700000000000e+00
  5.21500000000000e-01
  1.59600000000000e-01
  9.43900000000000e+00
  2.00200000000000e+00
  5.45600000000000e-01
  1.51700000000000e-01
  5.50000000000000e-01
  6.66500000000000e+03
  1.00000000000000e+03
  2.28000000000000e+02
  6.47100000000000e+01
  2.10600000000000e+01
  7.49500000000000e+00
  2.79700000000000e+00
  5.21500000000000e-01
  1.59600000000000e-01
  9.43900000000000e+00
  2.00200000000000e+00
  5.45600000000000e-01
  1.51700000000000e-01
  5.50000000000000e-01
  6.66500000000000e+03
  1.00000000000000e+03
  2.28000000000000e+02
  6.47100000000000e+01
  2.10600000000000e+01
  7.49500000000000e+00
  2.79700000000000e+00
  5.21500000000000e-01
  1.59600000000000e-01
  9.43900000000000e+00
  2.00200000000000e+00
  5.45600000000000e-01
  1.51700000000000e-01
  5.50000000000000e-01
  6.66500000000000e+03
  1.00000000000000e+03
  2.28000000000000e+02
  6.47100000000000e+01
  2.10600000000000e+01
  7.49500000000000e+00
  2.79700000000000e+00
  5.21500000000000e-01
  1.59600000000000e-01
  9.43900000000000e+00
  2.00200000000000e+00
  5.45600000000000e-01
  1.51700000000000e-01
  5.50000000000000e-01
  6.66500000000000e+03
  1.00000000000000e+03
  2.28000000000000e+02
  6.47100000000000e+01
  2.10600000000000e+01
  7.49500000000000e+00
  2.79700000000000e+00
  5.21500000000000e-01
  1.59600000000000e-01
  9.43900000000000e+00
  2.00200000000000e+00
  5.45600000000000e-01
  1.51700000000000e-01
  5.50000000000000e-01
  6.66500000000000e+03
  1.00000000000000e+03
  2.28000000000000e+02
  6.47100000000000e+01
  2.10600000000000e+01
  7.49500000000000e+00
  2.79700000000000e+00
  5.21500000000000e-01
  1.59600000000000e-01
  9.43900000000000e+00
  2.00200000000000e+00
  5.45600000000000e-01
  1.51700000000000e-01
  5.50000000000000e-01
  6.66500000000000e+03
  1.00000000000000e+03
  2.28000000000000e+02
  6.47100000000000e+01
  2.10600000000000e+01
  7.49500000000000e+00
  2.79700000000000e+00
  5.21500000000000e-01
  1.59600000000000e-01
  9.43900000000000e+00
  2.00200000000000e+00
  5.45600000000000e-01
  1.51700000000000e-01
  5.50000000000000e-01
  6.66500000000000e+03
  1.00000000000000e+03
  2.28000000000000e+02
  6.47100000000000e+01
  2.10600000000000e+01
  7.49500000000000e+00
  2.79700000000000e+00
  5.21500000000000e-01
  1.59600000000000e-01
  9.43900000000000e+00
  2.00200000000000e+00
  5.45600000000000e-01
  1.51700000000000e-01
  5.50000000000000e-01
  6.66500000000000e+03
  1.00000000000000e+03
  2.28000000000000e+02
  6.47100000000000e+01
  2.10600000000000e+01
  7.49500000000000e+00
  2.79700000000000e+00
  5.21500000000000e-01
  1.59600000000000e-01
  9.43900000000000e+00
  2.00200000000000e+00
  5.45600000000000e-01
  1.51700000000000e-01
  5.50000000000000e-01
  6.66500000000000e+03
  1.00000000000000e+03
  2.28000000000000e+02
  6.47100000000000e+01
  2.10600000000000e+01
  7.49500000000000e+00
  2.79700000000000e+00
  5.21500000000000e-01
  1.59600000000000e-01
  9.43900000000000e+00
  2.00200000000000e+00
  5.45600000000000e-01
  1.51700000000000e-01
  5.50000000000000e-01
  6.66500000000000e+03
  1.00000000000000e+03
  2.28000000000000e+02
  6.47100000000000e+01
  2.10600000000000e+01
  7.49500000000000e+00
  2.79700000000000e+00
  5.21500000000000e-01
  1.59600000000000e-01
  9.43900000000000e+00
  2.00200000000000e+00
  5.45600000000000e-01
  1.51700000000000e-01
  5.50000000000000e-01
  6.66500000000000e+03
  1.00000000000000e+03
  2.28000000000000e+02
  6.47100000000000e+01
  2.10600000000000e+01
  7.49500000000000e+00
  2.79700000000000e+00
  5.21500000000000e-01
  1.59600000000000e-01
  9.43900000000000e+00
  2.00200000000000e+00
  5.45600000000000e-01
  1.51700000000000e-01
  5.50000000000000e-01
  6.66500000000000e+03
  1.00000000000000e+03
  2.28000000000000e+02
  6.47100000000000e+01
  2.10600000000000e+01
  7.49500000000000e+00
  2.79700000000000e+00
  5.21500000000000e-01
  1.59600000000000e-01
  9.43900000000000e+00
  2.00200000000000e+00
  5.45600000000000e-01
  1.51700000000000e-01
  5.50000000000000e-01
  6.66500000000000e+03
  1.00000000000000e+03
  2.28000000000000e+02
  6.47100000000000e+01
  2.10600000000000e+01
  7.49500000000000e+00
  2.79700000000000e+00
  5.21500000000000e-01
  1.59600000000000e-01
  9.43900000000000e+00
  2.00200000000000e+00
  5.45600000000000e-01
  1.51700000000000e-01
  5.50000000000000e-01
  6.66500000000000e+03
  1.00000000000000e+03
  2.28000000000000e+02
  6.47100000000000e+01
  2.10600000000000e+01
  7.49500000000000e+00
  2.79700000000000e+00
  5.21500000000000e-01
  1.59600000000000e-01
  9.43900000000000e+00
  2.00200000000000e+00
  5.45600000000000e-01
  1.51700000000000e-01
  5.50000000000000e-01
  6.66500000000000e+03
  1.00000000000000e+03
  2.28000000000000e+02
  6.47100000000000e+01
  2.10600000000000e+01
  7.49500000000000e+00
  2.79700000000000e+00
  5.21500000000000e-01
  1.59600000000000e-01
  9.43900000000000e+00
  2.00200000000000e+00
  5.45600000000000e-01
  1.51700000000000e-01
  5.50000000000000e-01
  6.66500000000000e+03
  1.00000000000000e+03
  2.28000000000000e+02
  6.47100000000000e+01
  2.10600000000000e+01
  7.49500000000000e+00
  2.79700000000000e+00
  5.21500000000000e-01
  1.59600000000000e-01
  9.43900000000000e+00
  2.00200000000000e+00
  5.45600000000000e-01
  1.51700000000000e-01
  5.50000000000000e-01
  1.30100000000000e+01
  1.96200000000000e+00
  4.44600000000000e-01
  1.22000000000000e-01
  7.27000000000000e-01
  1.30100000000000e+01
  1.96200000000000e+00
  4.44600000000000e-01
  1.22000000000000e-01
  7.27000000000000e-01
  1.30100000000000e+01
  1.96200000000000e+00
  4.44600000000000e-01
  1.22000000000000e-01
  7.27000000000000e-01
  1.30100000000000e+01
  1.96200000000000e+00
  4.44600000000000e-01
  1.22000000000000e-01
  7.27000000000000e-01
  1.30100000000000e+01
  1.96200000000000e+00
  4.44600000000000e-01
  1.22000000000000e-01
  7.27000000000000e-01
  1.30100000000000e+01
  1.96200000000000e+00
  4.44600000000000e-01
  1.22000000000000e-01
  7.27000000000000e-01
  1.30100000000000e+01
  1.96200000000000e+00
  4.44600000000000e-01
  1.22000000000000e-01
  7.27000000000000e-01
  1.30100000000000e+01
  1.96200000000000e+00
  4.44600000000000e-01
  1.22000000000000e-01
  7.27000000000000e-01
  1.30100000000000e+01
  1.96200000000000e+00
  4.44600000000000e-01
  1.22000000000000e-01
  7.27000000000000e-01
  1.30100000000000e+01
  1.96200000000000e+00
  4.44600000000000e-01
  1.22000000000000e-01
  7.27000000000000e-01
  1.30100000000000e+01
  1.96200000000000e+00
  4.44600000000000e-01
  1.22000000000000e-01
  7.27000000000000e-01
  1.30100000000000e+01
  1.96200000000000e+00
  4.44600000000000e-01
  1.22000000000000e-01
  7.27000000000000e-01
  1.30100000000000e+01
  1.96200000000000e+00
  4.44600000000000e-01
  1.22000000000000e-01
  7.27000000000000e-01
  1.30100000000000e+01
  1.96200000000000e+00
  4.44600000000000e-01
  1.22000000000000e-01
  7.27000000000000e-01
  1.30100000000000e+01
  1.96200000000000e+00
  4.44600000000000e-01
  1.22000000000000e-01
  7.27000000000000e-01
  1.30100000000000e+01
  1.96200000000000e+00
  4.44600000000000e-01
  1.22000000000000e-01
  7.27000000000000e-01
  1.30100000000000e+01
  1.96200000000000e+00
  4.44600000000000e-01
  1.22000000000000e-01
  7.27000000000000e-01
  1.30100000000000e+01
  1.96200000000000e+00
  4.44600000000000e-01
  1.22000000000000e-01
  7.27000000000000e-01
  1.30100000000000e+01
  1.96200000000000e+00
  4.44600000000000e-01
  1.22000000000000e-01
  7.27000000000000e-01
  1.30100000000000e+01
  1.96200000000000e+00
  4.44600000000000e-01
  1.22000000000000e-01
  7.27000000000000e-01
  1.30100000000000e+01
  1.96200000000000e+00
  4.44600000000000e-01
  1.22000000000000e-01
  7.27000000000000e-01
  1.30100000000000e+01
  1.96200000000000e+00
  4.44600000000000e-01
  1.22000000000000e-01
  7.27000000000000e-01
  1.30100000000000e+01
  1.96200000000000e+00
  4.44600000000000e-01
  1.22000000000000e-01
  7.27000000000000e-01
  1.30100000000000e+01
  1.96200000000000e+00
  4.44600000000000e-01
  1.22000000000000e-01
  7.27000000000000e-01

  3.63803115996335e-01
  6.75392019985144e-01
  1.13230098456389e+00
  1.65400404378672e+00
  1.92497845800833e+00
  1.44814933271197e+00
  4.39427431056185e-01
  6.64980331679676e-03
 -5.74264109106499e-04
 -7.67561626326749e-02
 -1.46256808411412e-01
 -2.39407035824857e-01
 -3.79069085533774e-01
 -4.48103732793825e-01
 -4.84200525122430e-01
 -1.96168096161407e-01
  2.38161760404015e-01
  1.04468216411947e-01
  0.00000000000000e+00
  0.00000000000000e+00
  0.00000000000000e+00
  0.00000000000000e+00
  0.00000000000000e+00
  0.00000000000000e+00
  0.00000000000000e+00
  0.00000000000000e+00
  1.79963635330801e-01
  8.98721984913738e-01
  7.11071032781435e-01
  3.39917026383906e-01
  6.32701430216626e-02
  0.00000000000000e+00
  0.00000000000000e+00
  0.00000000000000e+00
  1.34949743639293e-01
  5.78154836189229e-01
  3.63803115996335e-01
  6.75392019985144e-01
  1.13230098456389e+00
  1.65400404378672e+00
  1.92497845800833e+00
  1.44814933271197e+00
  4.39427431056185e-01
  6.64980331679676e-03
 -5.74264109106499e-04
 -7.67561626326749e-02
 -1.46256808411412e-01
 -2.39407035824857e-01
 -3.79069085533774e-01
 -4.48103732793825e-01
 -4.84200525122430e-01
 -1.96168096161407e-01
  2.38161760404015e-01
  1.04468216411947e-01
  0.00000000000000e+00
  0.00000000000000e+00
  0.00000000000000e+00
  0.00000000000000e+00
  0.00000000000000e+00
  0.00000000000000e+00
  0.00000000000000e+00
  0.00000000000000e+00
  1.79963635330801e-01
  8.98721984913738e-01
  7.11071032781435e-01
  3.39917026383906e-01
  6.32701430216626e-02
  0.00000000000000e+00
  0.00000000000000e+00
  0.00000000000000e+00
  1.34949743639293e-01
  5.78154836189229e-01
  3.63803115996335e-01
  6.75392019985144e-01
  1.13230098456389e+00
  1.65400404378672e+00
  1.92497845800833e+00
  1.44814933271197e+00
  4.39427431056185e-01
  6.64980331679676e-03
 -5.74264109106499e-04
 -7.67561626326749e-02
 -1.46256808411412e-01
 -2.39407035824857e-01
 -3.79069085533774e-01
 -4.48103732793825e-01
 -4.84200525122430e-01
 -1.96168096161407e-01
  2.38161760404015e-01
  1.04468216411947e-01
  0.00000000000000e+00
  0.00000000000000e+00
  0.00000000000000e+00
  0.00000000000000e+00
  0.00000000000000e+00
  0.00000000000000e+00
  0.00000000000000e+00
  0.00000000000000e+00
  1.79963635330801e-01
  8.98721984913738e-01
  7.11071032781435e-01
  3.39917026383906e-01
  6.32701430216626e-02
  0.00000000000000e+00
  0.00000000000000e+00
  0.00000000000000e+00
  1.34949743639293e-01
  5.78154836189229e-01
  3.63803115996335e-01
  6.75392019985144e-01
  1.13230098456389e+00
  1.65400404378672e+00
  1.92497845800833e+00
  1.44814933271197e+00
  4.39427431056185e-01
  6.64980331679676e-03
 -5.74264109106499e-04
 -7.67561626326749e-02
 -1.46256808411412e-01
 -2.39407035824857e-01
 -3.79069085533774e-01
 -4.48103732793825e-01
 -4.84200525122430e-01
 -1.96168096161407e-01
  2.38161760404015e-01
  1.04468216411947e-01
  0.00000000000000e+00
  0.00000000000000e+00
  0.00000000000000e+00
  0.00000000000000e+00
  0.00000000000000e+00
  0.00000000000000e+00
  0.00000000000000e+00
  0.00000000000000e+00
  1.79963635330801e-01
  8.98721984913738e-01
  7.11071032781435e-01
  3.39917026383906e-01
  6.32701430216626e-02
  0.00000000000000e+00
  0.00000000000000e+00
  0.00000000000000e+00
  1.34949743639293e-01
  5.78154836189229e-01
  3.63803115996335e-01
  6.75392019985144e-01
  1.13230098456389e+00
  1.65400404378672e+00
  1.92497845800833e+00
  1.44814933271197e+00
  4.39427431056185e-01
  6.64980331679676e-03
 -5.74264109106499e-04
 -7.67561626326749e-02
 -1.46256808411412e-01
 -2.39407035824857e-01
 -3.79069085533774e-01
 -4.48103732793825e-01
 -4.84200525122430e-01
 -1.96168096161407e-01
  2.38161760404015e-01
  1.04468216411947e-01
  0.00000000000000e+00
  0.00000000000000e+00
  0.00000000000000e+00
  0.00000000000000e+00
  0.00000000000000e+00
  0.00000000000000e+00
  0.00000000000000e+00
  0.00000000000000e+00
  1.79963635330801e-01
  8.98721984913738e-01
  7.11071032781435e-01
  3.39917026383906e-01
  6.32701430216626e-02
  0.00000000000000e+00
  0.00000000000000e+00
  0.00000000000000e+00
  1.34949743639293e-01
  5.78154836189229e-01
  3.63803115996335e-01
  6.75392019985144e-01
  1.13230098456389e+00
  1.65400404378672e+00
  1.92497845800833e+00
  1.44814933271197e+00
  4.39427431056185e-01
  6.64980331679676e-03
 -5.74264109106499e-04
 -7.67561626326749e-02
 -1.46256808411412e-01
 -2.39407035824857e-01
 -3.79069085533774e-01
 -4.48103732793825e-01
 -4.84200525122430e-01
 -1.96168096161407e-01
  2.38161760404015e-01
  1.04468216411947e-01
  0.00000000000000e+00
  0.00000000000000e+00
  0.00000000000000e+00
  0.00000000000000e+00
  0.00000000000000e+00
  0.00000000000000e+00
  0.00000000000000e+00
  0.00000000000000e+00
  1.79963635330801e-01
  8.98721984913738e-01
  7.11071032781435e-01
  3.39917026383906e-01
  6.32701430216626e-02
  0.00000000000000e+00
  0.00000000000000e+00
  0.00000000000000e+00
  1.34949743639293e-01
  5.78154836189229e-01
  3.63803115996335e-01
  6.75392019985144e-01
  1.13230098456389e+00
  1.65400404378672e+00
  1.92497845800833e+00
  1.44814933271197e+00
  4.39427431056185e-01
  6.64980331679676e-03
 -5.74264109106499e-04
 -7.67561626326749e-02
 -1.46256808411412e-01
 -2.39407035824857e-01
 -3.79069085533774e-01
 -4.48103732793825e-01
 -4.84200525122430e-01
 -1.96168096161407e-01
  2.38161760404015e-01
  1.04468216411947e-01
  0.00000000000000e+00
  0.00000000000000e+00
  0.00000000000000e+00
  0.00000000000000e+00
  0.00000000000000e+00
  0.00000000000000e+00
  0.00000000000000e+00
  0.00000000000000e+00
  1.79963635330801e-01
  8.98721984913738e-01
  7.11071032781435e-01
  3.39917026383906e-01
  6.32701430216626e-02
  0.00000000000000e+00
  0.00000000000000e+00
  0.00000000000000e+00
  1.34949743639293e-01
  5.78154836189229e-01
  3.63803115996335e-01
  6.75392019985144e-01
  1.13230098456389e+00
  1.65400404378672e+00
  1.92497845800833e+00
  1.44814933271197e+00
  4.39427431056185e-01
  6.64980331679676e-03
 -5.74264109106499e-04
 -7.67561626326749e-02
 -1.46256808411412e-01
 -2.39407035824857e-01
 -3.79069085533774e-01
 -4.48103732793825e-01
 -4.84200525122430e-01
 -1.96168096161407e-01
  2.38161760404015e-01
  1.04468216411947e-01
  0.00000000000000e+00
  0.00000000000000e+00
  0.00000000000000e+00
  0.00000000000000e+00
  0.00000000000000e+00
  0.00000000000000e+00
  0.00000000000000e+00
  0.00000000000000e+00
  1.79963635330801e-01
  8.98721984913738e-01
  7.11071032781435e-01
  3.39917026383906e-01
  6.32701430216626e-02
  0.00000000000000e+00
  0.00000000000000e+00
  0.00000000000000e+00
  1.34949743639293e-01
  5.78154836189229e-01
  3.63803115996335e-01
  6.75392019985144e-01
  1.13230098456389e+00
  1.65400404378672e+00
  1.92497845800833e+00
  1.44814933271197e+00
  4.39427431056185e-01
  6.64980331679676e-03
 -5.74264109106499e-04
 -7.67561626326749e-02
 -1.46256808411412e-01
 -2.39407035824857e-01
 -3.79069085533774e-01
 -4.48103732793825e-01
 -4.84200525122430e-01
 -1.96168096161407e-01
  2.38161760404015e-01
  1.04468216411947e-01
  0.00000000000000e+00
  0.00000000000000e+00
  0.00000000000000e+00
  0.00000000000000e+00
  0.00000000000000e+00
  0.00000000000000e+00
  0.00000000000000e+00
  0.00000000000000e+00
  1.79963635330801e-01
  8.98721984913738e-01
  7.11071032781435e-01
  3.39917026383906e-01
  6.32701430216626e-02
  0.00000000000000e+00
  0.00000000000000e+00
  0.00000000000000e+00
  1.34949743639293e-01
  5.78154836189229e-01
  3.63803115996335e-01
  6.75392019985144e-01
  1.13230098456389e+00
  1.65400404378672e+00
  1.92497845800833e+00
  1.44814933271197e+00
  4.39427431056185e-01
  6.64980331679676e-03
 -5.74264109106499e-04
 -7.67561626326749e-02
 -1.46256808411412e-01
 -2.39407035824857e-01
 -3.79069085533774e-01
 -4.48103732793825e-01
 -4.84200525122430e-01
 -1.96168096161407e-01
  2.38161760404015e-01
  1.04468216411947e-01
  0.00000000000000e+00
  0.00000000000000e+00
  0.00000000000000e+00
  0.00000000000000e+00
  0.00000000000000e+00
  0.00000000000000e+00
  0.00000000000000e+00
  0.00000000000000e+00
  1.79963635330801e-01
  8.98721984913738e-01
  7.11071032781435e-01
  3.39917026383906e-01
  6.32701430216626e-02
  0.00000000000000e+00
  0.00000000000000e+00
  0.00000000000000e+00
  1.34949743639293e-01
  5.78154836189229e-01
  3.63803115996335e-01
  6.75392019985144e-01
  1.13230098456389e+00
  1.65400404378672e+00
  1.92497845800833e+00
  1.44814933271197e+00
  4.39427431056185e-01
  6.64980331679676e-03
 -5.74264109106499e-04
 -7.67561626326749e-02
 -1.46256808411412e-01
 -2.39407035824857e-01
 -3.79069085533774e-01
 -4.48103732793825e-01
 -4.84200525122430e-01
 -1.96168096161407e-01
  2.38161760404015e-01
  1.04468216411947e-01
  0.00000000000000e+00
  0.00000000000000e+00
  0.00000000000000e+00
  0.00000000000000e+00
  0.00000000000000e+00
  0.00000000000000e+00
  0.00000000000000e+00
  0.00000000000000e+00
  1.79963635330801e-01
  8.98721984913738e-01
  7.11071032781435e-01
  3.39917026383906e-01
  6.32701430216626e-02
  0.00000000000000e+00
  0.00000000000000e+00
  0.00000000000000e+00
  1.34949743639293e-01
  5.78154836189229e-01
  3.63803115996335e-01
  6.75392019985144e-01
  1.13230098456389e+00
  1.65400404378672e+00
  1.92497845800833e+00
  1.44814933271197e+00
  4.39427431056185e-01
  6.64980331679676e-03
 -5.74264109106499e-04
 -7.67561626326749e-02
 -1.46256808411412e-01
 -2.39407035824857e-01
 -3.79069085533774e-01
 -4.48103732793825e-01
 -4.84200525122430e-01
 -1.96168096161407e-01
  2.38161760404015e-01
  1.04468216411947e-01
  0.00000000000000e+00
  0.00000000000000e+00
  0.00000000000000e+00
  0.00000000000000e+00
  0.00000000000000e+00
  0.00000000000000e+00
  0.00000000000000e+00
  0.00000000000000e+00
  1.79963635330801e-01
  8.98721984913738e-01
  7.11071032781435e-01
  3.39917026383906e-01
  6.32701430216626e-02
  0.00000000000000e+00
  0.00000000000000e+00
  0.00000000000000e+00
  1.34949743639293e-01
  5.78154836189229e-01
  3.63803115996335e-01
  6.75392019985144e-01
  1.13230098456389e+00
  1.65400404378672e+00
  1.92497845800833e+00
  1.44814933271197e+00
  4.39427431056185e-01
  6.64980331679676e-03
 -5.74264109106499e-04
 -7.67561626326749e-02
 -1.46256808411412e-01
 -2.39407035824857e-01
 -3.79069085533774e-01
 -4.48103732793825e-01
 -4.84200525122430e-01
 -1.96168096161407e-01
  2.38161760404015e-01
  1.04468216411947e-01
  0.00000000000000e+00
  0.00000000000000e+00
  0.00000000000000e+00
  0.00000000000000e+00
  0.00000000000000e+00
  0.00000000000000e+00
  0.00000000000000e+00
  0.00000000000000e+00
  1.79963635330801e-01
  8.98721984913738e-01
  7.11071032781435e-01
  3.39917026383906e-01
  6.32701430216626e-02
  0.00000000000000e+00
  0.00000000000000e+00
  0.00000000000000e+00
  1.34949743639293e-01
  5.78154836189229e-01
  3.63803115996335e-01
  6.75392019985144e-01
  1.13230098456389e+00
  1.65400404378672e+00
  1.92497845800833e+00
  1.44814933271197e+00
  4.39427431056185e-01
  6.64980331679676e-03
 -5.74264109106499e-04
 -7.67561626326749e-02
 -1.46256808411412e-01
 -2.39407035824857e-01
 -3.79069085533774e-01
 -4.48103732793825e-01
 -4.84200525122430e-01
 -1.96168096161407e-01
  2.38161760404015e-01
  1.04468216411947e-01
  0.00000000000000e+00
  0.00000000000000e+00
  0.00000000000000e+00
  0.00000000000000e+00
  0.00000000000000e+00
  0.00000000000000e+00
  0.00000000000000e+00
  0.00000000000000e+00
  1.79963635330801e-01
  8.98721984913738e-01
  7.11071032781435e-01
  3.39917026383906e-01
  6.32701430216626e-02
  0.00000000000000e+00
  0.00000000000000e+00
  0.00000000000000e+00
  1.34949743639293e-01
  5.78154836189229e-01
  3.63803115996335e-01
  6.75392019985144e-01
  1.13230098456389e+00
  1.65400404378672e+00
  1.92497845800833e+00
  1.44814933271197e+00
  4.39427431056185e-01
  6.64980331679676e-03
 -5.74264109106499e-04
 -7.67561626326749e-02
 -1.46256808411412e-01
 -2.39407035824857e-01
 -3.79069085533774e-01
 -4.48103732793825e-01
 -4.84200525122430e-01
 -1.96168096161407e-01
  2.38161760404015e-01
  1.04468216411947e-01
  0.00000000000000e+00
  0.00000000000000e+00
  0.00000000000000e+00
  0.00000000000000e+00
  0.00000000000000e+00
  0.00000000000000e+00
  0.00000000000000e+00
  0.00000000000000e+00
  1.79963635330801e-01
  8.98721984913738e-01
  7.11071032781435e-01
  3.39917026383906e-01
  6.32701430216626e-02
  0.00000000000000e+00
  0.00000000000000e+00
  0.00000000000000e+00
  1.34949743639293e-01
  5.78154836189229e-01
  3.63803115996335e-01
  6.75392019985144e-01
  1.13230098456389e+00
  1.65400404378672e+00
  1.92497845800833e+00
  1.44814933271197e+00
  4.39427431056185e-01
  6.64980331679676e-03
 -5.74264109106499e-04
 -7.67561626326749e-02
 -1.46256808411412e-01
 -2.39407035824857e-01
 -3.79069085533774e-01
 -4.48103732793825e-01
 -4.84200525122430e-01
 -1.96168096161407e-01
  2.38161760404015e-01
  1.04468216411947e-01
  0.00000000000000e+00
  0.00000000000000e+00
  0.00000000000000e+00
  0.00000000000000e+00
  0.00000000000000e+00
  0.00000000000000e+00
  0.00000000000000e+00
  0.00000000000000e+00
  1.79963635330801e-01
  8.98721984913738e-01
  7.11071032781435e-01
  3.39917026383906e-01
  6.32701430216626e-02
  0.00000000000000e+00
  0.00000000000000e+00
  0.00000000000000e+00
  1.34949743639293e-01
  5.78154836189229e-01
  3.63803115996335e-01
  6.75392019985144e-01
  1.13230098456389e+00
  1.65400404378672e+00
  1.92497845800833e+00
  1.44814933271197e+00
  4.39427431056185e-01
  6.64980331679676e-03
 -5.74264109106499e-04
 -7.67561626326749e-02
 -1.46256808411412e-01
 -2.39407035824857e-01
 -3.79069085533774e-01
 -4.48103732793825e-01
 -4.84200525122430e-01
 -1.96168096161407e-01
  2.38161760404015e-01
  1.04468216411947e-01
  0.00000000000000e+00
  0.00000000000000e+00
  0.00000000000000e+00
  0.00000000000000e+00
  0.00000000000000e+00
  0.00000000000000e+00
  0.00000000000000e+00
  0.00000000000000e+00
  1.79963635330801e-01
  8.98721984913738e-01
  7.11071032781435e-01
  3.39917026383906e-01
  6.32701430216626e-02
  0.00000000000000e+00
  0.00000000000000e+00
  0.00000000000000e+00
  1.34949743639293e-01
  5.78154836189229e-01
  3.63803115996335e-01
  6.75392019985144e-01
  1.13230098456389e+00
  1.65400404378672e+00
  1.92497845800833e+00
  1.44814933271197e+00
  4.39427431056185e-01
  6.64980331679676e-03
 -5.74264109106499e-04
 -7.67561626326749e-02
 -1.46256808411412e-01
 -2.39407035824857e-01
 -3.79069085533774e-01
 -4.48103732793825e-01
 -4.84200525122430e-01
 -1.96168096161407e-01
  2.38161760404015e-01
  1.04468216411947e-01
  0.00000000000000e+00
  0.00000000000000e+00
  0.00000000000000e+00
  0.00000000000000e+00
  0.00000000000000e+00
  0.00000000000000e+00
  0.00000000000000e+00
  0.00000000000000e+00
  1.79963635330801e-01
  8.98721984913738e-01
  7.11071032781435e-01
  3.39917026383906e-01
  6.32701430216626e-02
  0.00000000000000e+00
  0.00000000000000e+00
  0.00000000000000e+00
  1.34949743639293e-01
  5.78154836189229e-01
  3.63803115996335e-01
  6.75392019985144e-01
  1.13230098456389e+00
  1.65400404378672e+00
  1.92497845800833e+00
  1.44814933271197e+00
  4.39427431056185e-01
  6.64980331679676e-03
 -5.74264109106499e-04
 -7.67561626326749e-02
 -1.46256808411412e-01
 -2.39407035824857e-01
 -3.79069085533774e-01
 -4.48103732793825e-01
 -4.84200525122430e-01
 -1.96168096161407e-01
  2.38161760404015e-01
  1.04468216411947e-01
  0.00000000000000e+00
  0.00000000000000e+00
  0.00000000000000e+00
  0.00000000000000e+00
  0.00000000000000e+00
  0.00000000000000e+00
  0.00000000000000e+00
  0.00000000000000e+00
  1.79963635330801e-01
  8.98721984913738e-01
  7.11071032781435e-01
  3.39917026383906e-01
  6.32701430216626e-02
  0.00000000000000e+00
  0.00000000000000e+00
  0.00000000000000e+00
  1.34949743639293e-01
  5.78154836189229e-01
  3.63803115996335e-01
  6.75392019985144e-01
  1.13230098456389e+00
  1.65400404378672e+00
  1.92497845800833e+00
  1.44814933271197e+00
  4.39427431056185e-01
  6.64980331679676e-03
 -5.74264109106499e-04
 -7.67561626326749e-02
 -1.46256808411412e-01
 -2.39407035824857e-01
 -3.79069085533774e-01
 -4.48103732793825e-01
 -4.84200525122430e-01
 -1.96168096161407e-01
  2.38161760404015e-01
  1.04468216411947e-01
  0.00000000000000e+00
  0.00000000000000e+00
  0.00000000000000e+00
  0.00000000000000e+00
  0.00000000000000e+00
  0.00000000000000e+00
  0.00000000000000e+00
  0.00000000000000e+00
  1.79963635330801e-01
  8.98721984913738e-01
  7.11071032781435e-01
  3.39917026383906e-01
  6.32701430216626e-02
  0.00000000000000e+00
  0.00000000000000e+00
  0.00000000000000e+00
  1.34949743639293e-01
  5.78154836189229e-01
  3.63803115996335e-01
  6.75392019985144e-01
  1.13230098456389e+00
  1.65400404378672e+00
  1.92497845800833e+00
  1.44814933271197e+00
  4.39427431056185e-01
  6.64980331679676e-03
 -5.74264109106499e-04
 -7.67561626326749e-02
 -1.46256808411412e-01
 -2.39407035824857e-01
 -3.79069085533774e-01
 -4.48103732793825e-01
 -4.84200525122430e-01
 -1.96168096161407e-01
  2.38161760404015e-01
  1.04468216411947e-01
  0.00000000000000e+00
  0.00000000000000e+00
  0.00000000000000e+00
  0.00000000000000e+00
  0.00000000000000e+00
  0.00000000000000e+00
  0.00000000000000e+00
  0.00000000000000e+00
  1.79963635330801e-01
  8.98721984913738e-01
  7.11071032781435e-01
  3.39917026383906e-01
  6.32701430216626e-02
  0.00000000000000e+00
  0.00000000000000e+00
  0.00000000000000e+00
  1.34949743639293e-01
  5.78154836189229e-01
  3.63803115996335e-01
  6.75392019985144e-01
  1.13230098456389e+00
  1.65400404378672e+00
  1.92497845800833e+00
  1.44814933271197e+00
  4.39427431056185e-01
  6.64980331679676e-03
 -5.74264109106499e-04
 -7.67561626326749e-02
 -1.46256808411412e-01
 -2.39407035824857e-01
 -3.79069085533774e-01
 -4.48103732793825e-01
 -4.84200525122430e-01
 -1.96168096161407e-01
  2.38161760404015e-01
  1.04468216411947e-01
  0.00000000000000e+00
  0.00000000000000e+00
  0.00000000000000e+00
  0.00000000000000e+00
  0.00000000000000e+00
  0.00000000000000e+00
  0.00000000000000e+00
  0.00000000000000e+00
  1.79963635330801e-01
  8.98721984913738e-01
  7.11071032781435e-01
  3.39917026383906e-01
  6.32701430216626e-02
  0.00000000000000e+00
  0.00000000000000e+00
  0.00000000000000e+00
  1.34949743639293e-01
  5.78154836189229e-01
  3.63803115996335e-01
  6.75392019985144e-01
  1.13230098456389e+00
  1.65400404378672e+00
  1.92497845800833e+00
  1.44814933271197e+00
  4.39427431056185e-01
  6.64980331679676e-03
 -5.74264109106499e-04
 -7.67561626326749e-02
 -1.46256808411412e-01
 -2.39407035824857e-01
 -3.79069085533774e-01
 -4.48103732793825e-01
 -4.84200525122430e-01
 -1.96168096161407e-01
  2.38161760404015e-01
  1.04468216411947e-01
  0.00000000000000e+00
  0.00000000000000e+00
  0.00000000000000e+00
  0.00000000000000e+00
  0.00000000000000e+00
  0.00000000000000e+00
  0.00000000000000e+00
  0.00000000000000e+00
  1.79963635330801e-01
  8.98721984913738e-01
  7.11071032781435e-01
  3.39917026383906e-01
  6.32701430216626e-02
  0.00000000000000e+00
  0.00000000000000e+00
  0.00000000000000e+00
  1.34949743639293e-01
  5.78154836189229e-01
  3.63803115996335e-01
  6.75392019985144e-01
  1.13230098456389e+00
  1.65400404378672e+00
  1.92497845800833e+00
  1.44814933271197e+00
  4.39427431056185e-01
  6.64980331679676e-03
 -5.74264109106499e-04
 -7.67561626326749e-02
 -1.46256808411412e-01
 -2.39407035824857e-01
 -3.79069085533774e-01
 -4.48103732793825e-01
 -4.84200525122430e-01
 -1.96168096161407e-01
  2.38161760404015e-01
  1.04468216411947e-01
  0.00000000000000e+00
  0.00000000000000e+00
  0.00000000000000e+00
  0.00000000000000e+00
  0.00000000000000e+00
  0.00000000000000e+00
  0.00000000000000e+00
  0.00000000000000e+00
  1.79963635330801e-01
  8.98721984913738e-01
  7.11071032781435e-01
  3.39917026383906e-01
  6.32701430216626e-02
  0.00000000000000e+00
  0.00000000000000e+00
  0.00000000000000e+00
  1.34949743639293e-01
  5.78154836189229e-01
  9.61066109833227e-02
  1.63019974791044e-01
  1.85545022683362e-01
  7.37437919835051e-02
  0.00000000000000e+00
  0.00000000000000e+00
  0.00000000000000e+00
  1.47122794428574e-01
  9.56881375059566e-01
  9.61066109833227e-02
  1.63019974791044e-01
  1.85545022683362e-01
  7.37437919835051e-02
  0.00000000000000e+00
  0.00000000000000e+00
  0.00000000000000e+00
  1.47122794428574e-01
  9.56881375059566e-01
  9.61066109833227e-02
  1.63019974791044e-01
  1.85545022683362e-01
  7.37437919835051e-02
  0.00000000000000e+00
  0.00000000000000e+00
  0.00000000000000e+00
  1.47122794428574e-01
  9.56881375059566e-01
  9.61066109833227e-02
  1.63019974791044e-01
  1.85545022683362e-01
  7.37437919835051e-02
  0.00000000000000e+00
  0.00000000000000e+00
  0.00000000000000e+00
  1.47122794428574e-01
  9.56881375059566e-01
  9.61066109833227e-02
  1.63019974791044e-01
  1.85545022683362e-01
  7.37437919835051e-02
  0.00000000000000e+00
  0.00000000000000e+00
  0.00000000000000e+00
  1.47122794428574e-01
  9.56881375059566e-01
  9.61066109833227e-02
  1.63019974791044e-01
  1.85545022683362e-01
  7.37437919835051e-02
  0.00000000000000e+00
  0.00000000000000e+00
  0.00000000000000e+00
  1.47122794428574e-01
  9.56881375059566e-01
  9.61066109833227e-02
  1.63019974791044e-01
  1.85545022683362e-01
  7.37437919835051e-02
  0.00000000000000e+00
  0.00000000000000e+00
  0.00000000000000e+00
  1.47122794428574e-01
  9.56881375059566e-01
  9.61066109833227e-02
  1.63019974791044e-01
  1.85545022683362e-01
  7.37437919835051e-02
  0.00000000000000e+00
  0.00000000000000e+00
  0.00000000000000e+00
  1.47122794428574e-01
  9.56881375059566e-01
  9.61066109833227e-02
  1.63019974791044e-01
  1.85545022683362e-01
  7.37437919835051e-02
  0.00000000000000e+00
  0.00000000000000e+00
  0.00000000000000e+00
  1.47122794428574e-01
  9.56881375059566e-01
  9.61066109833227e-02
  1.63019974791044e-01
  1.85545022683362e-01
  7.37437919835051e-02
  0.00000000000000e+00
  0.00000000000000e+00
  0.00000000000000e+00
  1.47122794428574e-01
  9.56881375059566e-01
  9.61066109833227e-02
  1.63019974791044e-01
  1.85545022683362e-01
  7.37437919835051e-02
  0.00000000000000e+00
  0.00000000000000e+00
  0.00000000000000e+00
  1.47122794428574e-01
  9.56881375059566e-01
  9.61066109833227e-02
  1.63019974791044e-01
  1.85545022683362e-01
  7.37437919835051e-02
  0.00000000000000e+00
  0.00000000000000e+00
  0.00000000000000e+00
  1.47122794428574e-01
  9.56881375059566e-01
  9.61066109833227e-02
  1.63019974791044e-01
  1.85545022683362e-01
  7.37437919835051e-02
  0.00000000000000e+00
  0.00000000000000e+00
  0.00000000000000e+00
  1.47122794428574e-01
  9.56881375059566e-01
  9.61066109833227e-02
  1.63019974791044e-01
  1.85545022683362e-01
  7.37437919835051e-02
  0.00000000000000e+00
  0.00000000000000e+00
  0.00000000000000e+00
  1.47122794428574e-01
  9.56881375059566e-01
  9.61066109833227e-02
  1.63019974791044e-01
  1.85545022683362e-01
  7.37437919835051e-02
  0.00000000000000e+00
  0.00000000000000e+00
  0.00000000000000e+00
  1.47122794428574e-01
  9.56881375059566e-01
  9.61066109833227e-02
  1.63019974791044e-01
  1.85545022683362e-01
  7.37437919835051e-02
  0.00000000000000e+00
  0.00000000000000e+00
  0.00000000000000e+00
  1.47122794428574e-01
  9.56881375059566e-01
  9.61066109833227e-02
  1.63019974791044e-01
  1.85545022683362e-01
  7.37437919835051e-02
  0.00000000000000e+00
  0.00000000000000e+00
  0.00000000000000e+00
  1.47122794428574e-01
  9.56881375059566e-01
  9.61066109833227e-02
  1.63019974791044e-01
  1.85545022683362e-01
  7.37437919835051e-02
  0.00000000000000e+00
  0.00000000000000e+00
  0.00000000000000e+00
  1.47122794428574e-01
  9.56881375059566e-01
  9.61066109833227e-02
  1.63019974791044e-01
  1.85545022683362e-01
  7.37437919835051e-02
  0.00000000000000e+00
  0.00000000000000e+00
  0.00000000000000e+00
  1.47122794428574e-01
  9.56881375059566e-01
  9.61066109833227e-02
  1.63019974791044e-01
  1.85545022683362e-01
  7.37437919835051e-02
  0.00000000000000e+00
  0.00000000000000e+00
  0.00000000000000e+00
  1.47122794428574e-01
  9.56881375059566e-01
  9.61066109833227e-02
  1.63019974791044e-01
  1.85545022683362e-01
  7.37437919835051e-02
  0.00000000000000e+00
  0.00000000000000e+00
  0.00000000000000e+00
  1.47122794428574e-01
  9.56881375059566e-01
  9.61066109833227e-02
  1.63019974791044e-01
  1.85545022683362e-01
  7.37437919835051e-02
  0.00000000000000e+00
  0.00000000000000e+00
  0.00000000000000e+00
  1.47122794428574e-01
  9.56881375059566e-01
  9.61066109833227e-02
  1.63019974791044e-01
  1.85545022683362e-01
  7.37437919835051e-02
  0.00000000000000e+00
  0.00000000000000e+00
  0.00000000000000e+00
  1.47122794428574e-01
  9.56881375059566e-01
  9.61066109833227e-02
  1.63019974791044e-01
  1.85545022683362e-01
  7.37437919835051e-02
  0.00000000000000e+00
  0.00000000000000e+00
  0.00000000000000e+00
  1.47122794428574e-01
  9.56881375059566e-01

0 0 0 0 3 3 3
0 0 9 0 18 0 
9 0

0 3 3 9 2 6 6
27 1 31 1 
4 0

0 9 9 13 1 5 6
35 2 
1 1

1 14 14 14 3 3 3
36 0 45 0 54 0 
9 0

1 17 17 23 2 6 6
63 1 67 1 
4 0

1 23 23 27 1 5 6
71 2 
1 1

2 28 28 28 3 3 3
72 0 81 0 90 0 
9 0

2 31 31 37 2 6 6
99 1 103 1 
4 0

2 37 37 41 1 5 6
107 2 
1 1

3 42 42 42 3 3 3
108 0 117 0 126 0 
9 0

3 45 45 51 2 6 6
135 1 139 1 
4 0

3 51 51 55 1 5 6
143 2 
1 1

4 56 56 56 3 3 3
144 0 153 0 162 0 
9 0

4 59 59 65 2 6 6
171 1 175 1 
4 0

4 65 65 69 1 5 6
179 2 
1 1

5 70 70 70 3 3 3
180 0 189 0 198 0 
9 0

5 73 73 79 2 6 6
207 1 211 1 
4 0

5 79 79 83 1 5 6
215 2 
1 1

6 84 84 84 3 3 3
216 0 225 0 234 0 
9 0

6 87 87 93 2 6 6
243 1 247 1 
4 0

6 93 93 97 1 5 6
251 2 
1 1

7 98 98 98 3 3 3
252 0 261 0 270 0 
9 0

7 101 101 107 2 6 6
279 1 283 1 
4 0

7 107 107 111 1 5 6
287 2 
1 1

8 112 112 112 3 3 3
288 0 297 0 306 0 
9 0

8 115 115 121 2 6 6
315 1 319 1 
4 0

8 121 121 125 1 5 6
323 2 
1 1

9 126 126 126 3 3 3
324 0 333 0 342 0 
9 0

9 129 129 135 2 6 6
351 1 355 1 
4 0

9 135 135 139 1 5 6
359 2 
1 1

10 140 140 140 3 3 3
360 0 369 0 378 0 
9 0

10 143 143 149 2 6 6
387 1 391 1 
4 0

10 149 149 153 1 5 6
395 2 
1 1

11 154 154 154 3 3 3
396 0 405 0 414 0 
9 0

11 157 157 163 2 6 6
423 1 427 1 
4 0

11 163 163 167 1 5 6
431 2 
1 1

12 168 168 168 3 3 3
432 0 441 0 450 0 
9 0

12 171 171 177 2 6 6
459 1 463 1 
4 0

12 177 177 181 1 5 6
467 2 
1 1

13 182 182 182 3 3 3
468 0 477 0 486 0 
9 0

13 185 185 191 2 6 6
495 1 499 1 
4 0

13 191 191 195 1 5 6
503 2 
1 1

14 196 196 196 3 3 3
504 0 513 0 522 0 
9 0

14 199 199 205 2 6 6
531 1 535 1 
4 0

14 205 205 209 1 5 6
539 2 
1 1

15 210 210 210 3 3 3
540 0 549 0 558 0 
9 0

15 213 213 219 2 6 6
567 1 571 1 
4 0

15 219 219 223 1 5 6
575 2 
1 1

16 224 224 224 3 3 3
576 0 585 0 594 0 
9 0

16 227 227 233 2 6 6
603 1 607 1 
4 0

16 233 233 237 1 5 6
611 2 
1 1

17 238 238 238 3 3 3
612 0 621 0 630 0 
9 0

17 241 241 247 2 6 6
639 1 643 1 
4 0

17 247 247 251 1 5 6
647 2 
1 1

18 252 252 252 3 3 3
648 0 657 0 666 0 
9 0

18 255 255 261 2 6 6
675 1 679 1 
4 0

18 261 261 265 1 5 6
683 2 
1 1

19 266 266 266 3 3 3
684 0 693 0 702 0 
9 0

19 269 269 275 2 6 6
711 1 715 1 
4 0

19 275 275 279 1 5 6
719 2 
1 1

20 280 280 280 3 3 3
720 0 729 0 738 0 
9 0

20 283 283 289 2 6 6
747 1 751 1 
4 0

20 289 289 293 1 5 6
755 2 
1 1

21 294 294 294 3 3 3
756 0 765 0 774 0 
9 0

21 297 297 303 2 6 6
783 1 787 1 
4 0

21 303 303 307 1 5 6
791 2 
1 1

22 308 308 308 3 3 3
792 0 801 0 810 0 
9 0

22 311 311 317 2 6 6
819 1 823 1 
4 0

22 317 317 321 1 5 6
827 2 
1 1

23 322 322 322 3 3 3
828 0 837 0 846 0 
9 0

23 325 325 331 2 6 6
855 1 859 1 
4 0

23 331 331 335 1 5 6
863 2 
1 1

24 336 336 336 2 2 2
864 0 868 0 
4 0

24 338 338 340 1 3 3
872 1 
1 0

25 341 341 341 2 2 2
873 0 877 0 
4 0

25 343 343 345 1 3 3
881 1 
1 0

26 346 346 346 2 2 2
882 0 886 0 
4 0

26 348 348 350 1 3 3
890 1 
1 0

27 351 351 351 2 2 2
891 0 895 0 
4 0

27 353 353 355 1 3 3
899 1 
1 0

28 356 356 356 2 2 2
900 0 904 0 
4 0

28 358 358 360 1 3 3
908 1 
1 0

29 361 361 361 2 2 2
909 0 913 0 
4 0

29 363 363 365 1 3 3
917 1 
1 0

30 366 366 366 2 2 2
918 0 922 0 
4 0

30 368 368 370 1 3 3
926 1 
1 0

31 371 371 371 2 2 2
927 0 931 0 
4 0

31 373 373 375 1 3 3
935 1 
1 0

32 376 376 376 2 2 2
936 0 940 0 
4 0

32 378 378 380 1 3 3
944 1 
1 0

33 381 381 381 2 2 2
945 0 949 0 
4 0

33 383 383 385 1 3 3
953 1 
1 0

34 386 386 386 2 2 2
954 0 958 0 
4 0

34 388 388 390 1 3 3
962 1 
1 0

35 391 391 391 2 2 2
963 0 967 0 
4 0

35 393 393 395 1 3 3
971 1 
1 0

36 396 396 396 2 2 2
972 0 976 0 
4 0

36 398 398 400 1 3 3
980 1 
1 0

37 401 401 401 2 2 2
981 0 985 0 
4 0

37 403 403 405 1 3 3
989 1 
1 0

38 406 406 406 2 2 2
990 0 994 0 
4 0

38 408 408 410 1 3 3
998 1 
1 0

39 411 411 411 2 2 2
999 0 1003 0 
4 0

39 413 413 415 1 3 3
1007 1 
1 0

40 416 416 416 2 2 2
1008 0 1012 0 
4 0

40 418 418 420 1 3 3
1016 1 
1 0

41 421 421 421 2 2 2
1017 0 1021 0 
4 0

41 423 423 425 1 3 3
1025 1 
1 0

42 426 426 426 2 2 2
1026 0 1030 0 
4 0

42 428 428 430 1 3 3
1034 1 
1 0

43 431 431 431 2 2 2
1035 0 1039 0 
4 0

43 433 433 435 1 3 3
1043 1 
1 0

44 436 436 436 2 2 2
1044 0 1048 0 
4 0

44 438 438 440 1 3 3
1052 1 
1 0

45 441 441 441 2 2 2
1053 0 1057 0 
4 0

45 443 443 445 1 3 3
1061 1 
1 0

46 446 446 446 2 2 2
1062 0 1066 0 
4 0

46 448 448 450 1 3 3
1070 1 
1 0

47 451 451 451 2 2 2
1071 0 1075 0 
4 0

47 453 453 455 1 3 3
1079 1 
1 0

 -------------------------------------------------------------
 Allocate 2759992 B from available memory: 314572800000 B
 There are 343 image cells after screening.
 There are 165 image cells for CGTO evaluation after screening.
 Real-Space grid for FFT initialized based on kinetic energy cutoff (eV) = 500.0
 Real-Space grid for FFT: (18,20,25)
 There are 77367 real-space grid points.
 There are 512 batches of real-space grid points. 
 Size of each grid batch is around 128
 Grid for AFT initialized based on kinetic energy cutoff (eV) = 500.0
 Real-Space grid for AFT: (18,20,25)
 There are 77367 real-space grid points.

 There are 138288 atom-centered grid points.

 Spacegroup symmetry group: Pbca
 Reducing spacegroup symmetry to symmorphic group: P -1
 Monkhorst-Pack mesh is [10,10,10]
 There are 1000 k points.
kpoints in Bohr
-0.1952962394 -0.1799685238 -0.1411854979
-0.1952962394 -0.1799685238 -0.1058891235
-0.1952962394 -0.1799685238 -0.0705927490
-0.1952962394 -0.1799685238 -0.0352963745
-0.1952962394 -0.1799685238 0.0000000000
-0.1952962394 -0.1799685238 0.0352963745
-0.1952962394 -0.1799685238 0.0705927490
-0.1952962394 -0.1799685238 0.1058891235
-0.1952962394 -0.1799685238 0.1411854979
-0.1952962394 -0.1799685238 0.1764818724
-0.1952962394 -0.1349763928 -0.1411854979
-0.1952962394 -0.1349763928 -0.1058891235
-0.1952962394 -0.1349763928 -0.0705927490
-0.1952962394 -0.1349763928 -0.0352963745
-0.1952962394 -0.1349763928 0.0000000000
-0.1952962394 -0.1349763928 0.0352963745
-0.1952962394 -0.1349763928 0.0705927490
-0.1952962394 -0.1349763928 0.1058891235
-0.1952962394 -0.1349763928 0.1411854979
-0.1952962394 -0.1349763928 0.1764818724
-0.1952962394 -0.0899842619 -0.1411854979
-0.1952962394 -0.0899842619 -0.1058891235
-0.1952962394 -0.0899842619 -0.0705927490
-0.1952962394 -0.0899842619 -0.0352963745
-0.1952962394 -0.0899842619 0.0000000000
-0.1952962394 -0.0899842619 0.0352963745
-0.1952962394 -0.0899842619 0.0705927490
-0.1952962394 -0.0899842619 0.1058891235
-0.1952962394 -0.0899842619 0.1411854979
-0.1952962394 -0.0899842619 0.1764818724
-0.1952962394 -0.0449921309 -0.1411854979
-0.1952962394 -0.0449921309 -0.1058891235
-0.1952962394 -0.0449921309 -0.0705927490
-0.1952962394 -0.0449921309 -0.0352963745
-0.1952962394 -0.0449921309 0.0000000000
-0.1952962394 -0.0449921309 0.0352963745
-0.1952962394 -0.0449921309 0.0705927490
-0.1952962394 -0.0449921309 0.1058891235
-0.1952962394 -0.0449921309 0.1411854979
-0.1952962394 -0.0449921309 0.1764818724
-0.1952962394 0.0000000000 -0.1411854979
-0.1952962394 0.0000000000 -0.1058891235
-0.1952962394 0.0000000000 -0.0705927490
-0.1952962394 0.0000000000 -0.0352963745
-0.1952962394 0.0000000000 0.0000000000
-0.1952962394 0.0000000000 0.0352963745
-0.1952962394 0.0000000000 0.0705927490
-0.1952962394 0.0000000000 0.1058891235
-0.1952962394 0.0000000000 0.1411854979
-0.1952962394 0.0000000000 0.1764818724
-0.1952962394 0.0449921309 -0.1411854979
-0.1952962394 0.0449921309 -0.1058891235
-0.1952962394 0.0449921309 -0.0705927490
-0.1952962394 0.0449921309 -0.0352963745
-0.1952962394 0.0449921309 0.0000000000
-0.1952962394 0.0449921309 0.0352963745
-0.1952962394 0.0449921309 0.0705927490
-0.1952962394 0.0449921309 0.1058891235
-0.1952962394 0.0449921309 0.1411854979
-0.1952962394 0.0449921309 0.1764818724
-0.1952962394 0.0899842619 -0.1411854979
-0.1952962394 0.0899842619 -0.1058891235
-0.1952962394 0.0899842619 -0.0705927490
-0.1952962394 0.0899842619 -0.0352963745
-0.1952962394 0.0899842619 0.0000000000
-0.1952962394 0.0899842619 0.0352963745
-0.1952962394 0.0899842619 0.0705927490
-0.1952962394 0.0899842619 0.1058891235
-0.1952962394 0.0899842619 0.1411854979
-0.1952962394 0.0899842619 0.1764818724
-0.1952962394 0.1349763928 -0.1411854979
-0.1952962394 0.1349763928 -0.1058891235
-0.1952962394 0.1349763928 -0.0705927490
-0.1952962394 0.1349763928 -0.0352963745
-0.1952962394 0.1349763928 0.0000000000
-0.1952962394 0.1349763928 0.0352963745
-0.1952962394 0.1349763928 0.0705927490
-0.1952962394 0.1349763928 0.1058891235
-0.1952962394 0.1349763928 0.1411854979
-0.1952962394 0.1349763928 0.1764818724
-0.1952962394 0.1799685238 -0.1411854979
-0.1952962394 0.1799685238 -0.1058891235
-0.1952962394 0.1799685238 -0.0705927490
-0.1952962394 0.1799685238 -0.0352963745
-0.1952962394 0.1799685238 0.0000000000
-0.1952962394 0.1799685238 0.0352963745
-0.1952962394 0.1799685238 0.0705927490
-0.1952962394 0.1799685238 0.1058891235
-0.1952962394 0.1799685238 0.1411854979
-0.1952962394 0.1799685238 0.1764818724
-0.1952962394 0.2249606547 -0.1411854979
-0.1952962394 0.2249606547 -0.1058891235
-0.1952962394 0.2249606547 -0.0705927490
-0.1952962394 0.2249606547 -0.0352963745
-0.1952962394 0.2249606547 0.0000000000
-0.1952962394 0.2249606547 0.0352963745
-0.1952962394 0.2249606547 0.0705927490
-0.1952962394 0.2249606547 0.1058891235
-0.1952962394 0.2249606547 0.1411854979
-0.1952962394 0.2249606547 0.1764818724
-0.1464721796 -0.1799685238 -0.1411854979
-0.1464721796 -0.1799685238 -0.1058891235
-0.1464721796 -0.1799685238 -0.0705927490
-0.1464721796 -0.1799685238 -0.0352963745
-0.1464721796 -0.1799685238 0.0000000000
-0.1464721796 -0.1799685238 0.0352963745
-0.1464721796 -0.1799685238 0.0705927490
-0.1464721796 -0.1799685238 0.1058891235
-0.1464721796 -0.1799685238 0.1411854979
-0.1464721796 -0.1799685238 0.1764818724
-0.1464721796 -0.1349763928 -0.1411854979
-0.1464721796 -0.1349763928 -0.1058891235
-0.1464721796 -0.1349763928 -0.0705927490
-0.1464721796 -0.1349763928 -0.0352963745
-0.1464721796 -0.1349763928 0.0000000000
-0.1464721796 -0.1349763928 0.0352963745
-0.1464721796 -0.1349763928 0.0705927490
-0.1464721796 -0.1349763928 0.1058891235
-0.1464721796 -0.1349763928 0.1411854979
-0.1464721796 -0.1349763928 0.1764818724
-0.1464721796 -0.0899842619 -0.1411854979
-0.1464721796 -0.0899842619 -0.1058891235
-0.1464721796 -0.0899842619 -0.0705927490
-0.1464721796 -0.0899842619 -0.0352963745
-0.1464721796 -0.0899842619 0.0000000000
-0.1464721796 -0.0899842619 0.0352963745
-0.1464721796 -0.0899842619 0.0705927490
-0.1464721796 -0.0899842619 0.1058891235
-0.1464721796 -0.0899842619 0.1411854979
-0.1464721796 -0.0899842619 0.1764818724
-0.1464721796 -0.0449921309 -0.1411854979
-0.1464721796 -0.0449921309 -0.1058891235
-0.1464721796 -0.0449921309 -0.0705927490
-0.1464721796 -0.0449921309 -0.0352963745
-0.1464721796 -0.0449921309 0.0000000000
-0.1464721796 -0.0449921309 0.0352963745
-0.1464721796 -0.0449921309 0.0705927490
-0.1464721796 -0.0449921309 0.1058891235
-0.1464721796 -0.0449921309 0.1411854979
-0.1464721796 -0.0449921309 0.1764818724
-0.1464721796 0.0000000000 -0.1411854979
-0.1464721796 0.0000000000 -0.1058891235
-0.1464721796 0.0000000000 -0.0705927490
-0.1464721796 0.0000000000 -0.0352963745
-0.1464721796 0.0000000000 0.0000000000
-0.1464721796 0.0000000000 0.0352963745
-0.1464721796 0.0000000000 0.0705927490
-0.1464721796 0.0000000000 0.1058891235
-0.1464721796 0.0000000000 0.1411854979
-0.1464721796 0.0000000000 0.1764818724
-0.1464721796 0.0449921309 -0.1411854979
-0.1464721796 0.0449921309 -0.1058891235
-0.1464721796 0.0449921309 -0.0705927490
-0.1464721796 0.0449921309 -0.0352963745
-0.1464721796 0.0449921309 0.0000000000
-0.1464721796 0.0449921309 0.0352963745
-0.1464721796 0.0449921309 0.0705927490
-0.1464721796 0.0449921309 0.1058891235
-0.1464721796 0.0449921309 0.1411854979
-0.1464721796 0.0449921309 0.1764818724
-0.1464721796 0.0899842619 -0.1411854979
-0.1464721796 0.0899842619 -0.1058891235
-0.1464721796 0.0899842619 -0.0705927490
-0.1464721796 0.0899842619 -0.0352963745
-0.1464721796 0.0899842619 0.0000000000
-0.1464721796 0.0899842619 0.0352963745
-0.1464721796 0.0899842619 0.0705927490
-0.1464721796 0.0899842619 0.1058891235
-0.1464721796 0.0899842619 0.1411854979
-0.1464721796 0.0899842619 0.1764818724
-0.1464721796 0.1349763928 -0.1411854979
-0.1464721796 0.1349763928 -0.1058891235
-0.1464721796 0.1349763928 -0.0705927490
-0.1464721796 0.1349763928 -0.0352963745
-0.1464721796 0.1349763928 0.0000000000
-0.1464721796 0.1349763928 0.0352963745
-0.1464721796 0.1349763928 0.0705927490
-0.1464721796 0.1349763928 0.1058891235
-0.1464721796 0.1349763928 0.1411854979
-0.1464721796 0.1349763928 0.1764818724
-0.1464721796 0.1799685238 -0.1411854979
-0.1464721796 0.1799685238 -0.1058891235
-0.1464721796 0.1799685238 -0.0705927490
-0.1464721796 0.1799685238 -0.0352963745
-0.1464721796 0.1799685238 0.0000000000
-0.1464721796 0.1799685238 0.0352963745
-0.1464721796 0.1799685238 0.0705927490
-0.1464721796 0.1799685238 0.1058891235
-0.1464721796 0.1799685238 0.1411854979
-0.1464721796 0.1799685238 0.1764818724
-0.1464721796 0.2249606547 -0.1411854979
-0.1464721796 0.2249606547 -0.1058891235
-0.1464721796 0.2249606547 -0.0705927490
-0.1464721796 0.2249606547 -0.0352963745
-0.1464721796 0.2249606547 0.0000000000
-0.1464721796 0.2249606547 0.0352963745
-0.1464721796 0.2249606547 0.0705927490
-0.1464721796 0.2249606547 0.1058891235
-0.1464721796 0.2249606547 0.1411854979
-0.1464721796 0.2249606547 0.1764818724
-0.0976481197 -0.1799685238 -0.1411854979
-0.0976481197 -0.1799685238 -0.1058891235
-0.0976481197 -0.1799685238 -0.0705927490
-0.0976481197 -0.1799685238 -0.0352963745
-0.0976481197 -0.1799685238 0.0000000000
-0.0976481197 -0.1799685238 0.0352963745
-0.0976481197 -0.1799685238 0.0705927490
-0.0976481197 -0.1799685238 0.1058891235
-0.0976481197 -0.1799685238 0.1411854979
-0.0976481197 -0.1799685238 0.1764818724
-0.0976481197 -0.1349763928 -0.1411854979
-0.0976481197 -0.1349763928 -0.1058891235
-0.0976481197 -0.1349763928 -0.0705927490
-0.0976481197 -0.1349763928 -0.0352963745
-0.0976481197 -0.1349763928 0.0000000000
-0.0976481197 -0.1349763928 0.0352963745
-0.0976481197 -0.1349763928 0.0705927490
-0.0976481197 -0.1349763928 0.1058891235
-0.0976481197 -0.1349763928 0.1411854979
-0.0976481197 -0.1349763928 0.1764818724
-0.0976481197 -0.0899842619 -0.1411854979
-0.0976481197 -0.0899842619 -0.1058891235
-0.0976481197 -0.0899842619 -0.0705927490
-0.0976481197 -0.0899842619 -0.0352963745
-0.0976481197 -0.0899842619 0.0000000000
-0.0976481197 -0.0899842619 0.0352963745
-0.0976481197 -0.0899842619 0.0705927490
-0.0976481197 -0.0899842619 0.1058891235
-0.0976481197 -0.0899842619 0.1411854979
-0.0976481197 -0.0899842619 0.1764818724
-0.0976481197 -0.0449921309 -0.1411854979
-0.0976481197 -0.0449921309 -0.1058891235
-0.0976481197 -0.0449921309 -0.0705927490
-0.0976481197 -0.0449921309 -0.0352963745
-0.0976481197 -0.0449921309 0.0000000000
-0.0976481197 -0.0449921309 0.0352963745
-0.0976481197 -0.0449921309 0.0705927490
-0.0976481197 -0.0449921309 0.1058891235
-0.0976481197 -0.0449921309 0.1411854979
-0.0976481197 -0.0449921309 0.1764818724
-0.0976481197 0.0000000000 -0.1411854979
-0.0976481197 0.0000000000 -0.1058891235
-0.0976481197 0.0000000000 -0.0705927490
-0.0976481197 0.0000000000 -0.0352963745
-0.0976481197 0.0000000000 0.0000000000
-0.0976481197 0.0000000000 0.0352963745
-0.0976481197 0.0000000000 0.0705927490
-0.0976481197 0.0000000000 0.1058891235
-0.0976481197 0.0000000000 0.1411854979
-0.0976481197 0.0000000000 0.1764818724
-0.0976481197 0.0449921309 -0.1411854979
-0.0976481197 0.0449921309 -0.1058891235
-0.0976481197 0.0449921309 -0.0705927490
-0.0976481197 0.0449921309 -0.0352963745
-0.0976481197 0.0449921309 0.0000000000
-0.0976481197 0.0449921309 0.0352963745
-0.0976481197 0.0449921309 0.0705927490
-0.0976481197 0.0449921309 0.1058891235
-0.0976481197 0.0449921309 0.1411854979
-0.0976481197 0.0449921309 0.1764818724
-0.0976481197 0.0899842619 -0.1411854979
-0.0976481197 0.0899842619 -0.1058891235
-0.0976481197 0.0899842619 -0.0705927490
-0.0976481197 0.0899842619 -0.0352963745
-0.0976481197 0.0899842619 0.0000000000
-0.0976481197 0.0899842619 0.0352963745
-0.0976481197 0.0899842619 0.0705927490
-0.0976481197 0.0899842619 0.1058891235
-0.0976481197 0.0899842619 0.1411854979
-0.0976481197 0.0899842619 0.1764818724
-0.0976481197 0.1349763928 -0.1411854979
-0.0976481197 0.1349763928 -0.1058891235
-0.0976481197 0.1349763928 -0.0705927490
-0.0976481197 0.1349763928 -0.0352963745
-0.0976481197 0.1349763928 0.0000000000
-0.0976481197 0.1349763928 0.0352963745
-0.0976481197 0.1349763928 0.0705927490
-0.0976481197 0.1349763928 0.1058891235
-0.0976481197 0.1349763928 0.1411854979
-0.0976481197 0.1349763928 0.1764818724
-0.0976481197 0.1799685238 -0.1411854979
-0.0976481197 0.1799685238 -0.1058891235
-0.0976481197 0.1799685238 -0.0705927490
-0.0976481197 0.1799685238 -0.0352963745
-0.0976481197 0.1799685238 0.0000000000
-0.0976481197 0.1799685238 0.0352963745
-0.0976481197 0.1799685238 0.0705927490
-0.0976481197 0.1799685238 0.1058891235
-0.0976481197 0.1799685238 0.1411854979
-0.0976481197 0.1799685238 0.1764818724
-0.0976481197 0.2249606547 -0.1411854979
-0.0976481197 0.2249606547 -0.1058891235
-0.0976481197 0.2249606547 -0.0705927490
-0.0976481197 0.2249606547 -0.0352963745
-0.0976481197 0.2249606547 0.0000000000
-0.0976481197 0.2249606547 0.0352963745
-0.0976481197 0.2249606547 0.0705927490
-0.0976481197 0.2249606547 0.1058891235
-0.0976481197 0.2249606547 0.1411854979
-0.0976481197 0.2249606547 0.1764818724
-0.0488240599 -0.1799685238 -0.1411854979
-0.0488240599 -0.1799685238 -0.1058891235
-0.0488240599 -0.1799685238 -0.0705927490
-0.0488240599 -0.1799685238 -0.0352963745
-0.0488240599 -0.1799685238 0.0000000000
-0.0488240599 -0.1799685238 0.0352963745
-0.0488240599 -0.1799685238 0.0705927490
-0.0488240599 -0.1799685238 0.1058891235
-0.0488240599 -0.1799685238 0.1411854979
-0.0488240599 -0.1799685238 0.1764818724
-0.0488240599 -0.1349763928 -0.1411854979
-0.0488240599 -0.1349763928 -0.1058891235
-0.0488240599 -0.1349763928 -0.0705927490
-0.0488240599 -0.1349763928 -0.0352963745
-0.0488240599 -0.1349763928 0.0000000000
-0.0488240599 -0.1349763928 0.0352963745
-0.0488240599 -0.1349763928 0.0705927490
-0.0488240599 -0.1349763928 0.1058891235
-0.0488240599 -0.1349763928 0.1411854979
-0.0488240599 -0.1349763928 0.1764818724
-0.0488240599 -0.0899842619 -0.1411854979
-0.0488240599 -0.0899842619 -0.1058891235
-0.0488240599 -0.0899842619 -0.0705927490
-0.0488240599 -0.0899842619 -0.0352963745
-0.0488240599 -0.0899842619 0.0000000000
-0.0488240599 -0.0899842619 0.0352963745
-0.0488240599 -0.0899842619 0.0705927490
-0.0488240599 -0.0899842619 0.1058891235
-0.0488240599 -0.0899842619 0.1411854979
-0.0488240599 -0.0899842619 0.1764818724
-0.0488240599 -0.0449921309 -0.1411854979
-0.0488240599 -0.0449921309 -0.1058891235
-0.0488240599 -0.0449921309 -0.0705927490
-0.0488240599 -0.0449921309 -0.0352963745
-0.0488240599 -0.0449921309 0.0000000000
-0.0488240599 -0.0449921309 0.0352963745
-0.0488240599 -0.0449921309 0.0705927490
-0.0488240599 -0.0449921309 0.1058891235
-0.0488240599 -0.0449921309 0.1411854979
-0.0488240599 -0.0449921309 0.1764818724
-0.0488240599 0.0000000000 -0.1411854979
-0.0488240599 0.0000000000 -0.1058891235
-0.0488240599 0.0000000000 -0.0705927490
-0.0488240599 0.0000000000 -0.0352963745
-0.0488240599 0.0000000000 0.0000000000
-0.0488240599 0.0000000000 0.0352963745
-0.0488240599 0.0000000000 0.0705927490
-0.0488240599 0.0000000000 0.1058891235
-0.0488240599 0.0000000000 0.1411854979
-0.0488240599 0.0000000000 0.1764818724
-0.0488240599 0.0449921309 -0.1411854979
-0.0488240599 0.0449921309 -0.1058891235
-0.0488240599 0.0449921309 -0.0705927490
-0.0488240599 0.0449921309 -0.0352963745
-0.0488240599 0.0449921309 0.0000000000
-0.0488240599 0.0449921309 0.0352963745
-0.0488240599 0.0449921309 0.0705927490
-0.0488240599 0.0449921309 0.1058891235
-0.0488240599 0.0449921309 0.1411854979
-0.0488240599 0.0449921309 0.1764818724
-0.0488240599 0.0899842619 -0.1411854979
-0.0488240599 0.0899842619 -0.1058891235
-0.0488240599 0.0899842619 -0.0705927490
-0.0488240599 0.0899842619 -0.0352963745
-0.0488240599 0.0899842619 0.0000000000
-0.0488240599 0.0899842619 0.0352963745
-0.0488240599 0.0899842619 0.0705927490
-0.0488240599 0.0899842619 0.1058891235
-0.0488240599 0.0899842619 0.1411854979
-0.0488240599 0.0899842619 0.1764818724
-0.0488240599 0.1349763928 -0.1411854979
-0.0488240599 0.1349763928 -0.1058891235
-0.0488240599 0.1349763928 -0.0705927490
-0.0488240599 0.1349763928 -0.0352963745
-0.0488240599 0.1349763928 0.0000000000
-0.0488240599 0.1349763928 0.0352963745
-0.0488240599 0.1349763928 0.0705927490
-0.0488240599 0.1349763928 0.1058891235
-0.0488240599 0.1349763928 0.1411854979
-0.0488240599 0.1349763928 0.1764818724
-0.0488240599 0.1799685238 -0.1411854979
-0.0488240599 0.1799685238 -0.1058891235
-0.0488240599 0.1799685238 -0.0705927490
-0.0488240599 0.1799685238 -0.0352963745
-0.0488240599 0.1799685238 0.0000000000
-0.0488240599 0.1799685238 0.0352963745
-0.0488240599 0.1799685238 0.0705927490
-0.0488240599 0.1799685238 0.1058891235
-0.0488240599 0.1799685238 0.1411854979
-0.0488240599 0.1799685238 0.1764818724
-0.0488240599 0.2249606547 -0.1411854979
-0.0488240599 0.2249606547 -0.1058891235
-0.0488240599 0.2249606547 -0.0705927490
-0.0488240599 0.2249606547 -0.0352963745
-0.0488240599 0.2249606547 0.0000000000
-0.0488240599 0.2249606547 0.0352963745
-0.0488240599 0.2249606547 0.0705927490
-0.0488240599 0.2249606547 0.1058891235
-0.0488240599 0.2249606547 0.1411854979
-0.0488240599 0.2249606547 0.1764818724
0.0000000000 -0.1799685238 -0.1411854979
0.0000000000 -0.1799685238 -0.1058891235
0.0000000000 -0.1799685238 -0.0705927490
0.0000000000 -0.1799685238 -0.0352963745
0.0000000000 -0.1799685238 0.0000000000
0.0000000000 -0.1799685238 0.0352963745
0.0000000000 -0.1799685238 0.0705927490
0.0000000000 -0.1799685238 0.1058891235
0.0000000000 -0.1799685238 0.1411854979
0.0000000000 -0.1799685238 0.1764818724
0.0000000000 -0.1349763928 -0.1411854979
0.0000000000 -0.1349763928 -0.1058891235
0.0000000000 -0.1349763928 -0.0705927490
0.0000000000 -0.1349763928 -0.0352963745
0.0000000000 -0.1349763928 0.0000000000
0.0000000000 -0.1349763928 0.0352963745
0.0000000000 -0.1349763928 0.0705927490
0.0000000000 -0.1349763928 0.1058891235
0.0000000000 -0.1349763928 0.1411854979
0.0000000000 -0.1349763928 0.1764818724
0.0000000000 -0.0899842619 -0.1411854979
0.0000000000 -0.0899842619 -0.1058891235
0.0000000000 -0.0899842619 -0.0705927490
0.0000000000 -0.0899842619 -0.0352963745
0.0000000000 -0.0899842619 0.0000000000
0.0000000000 -0.0899842619 0.0352963745
0.0000000000 -0.0899842619 0.0705927490
0.0000000000 -0.0899842619 0.1058891235
0.0000000000 -0.0899842619 0.1411854979
0.0000000000 -0.0899842619 0.1764818724
0.0000000000 -0.0449921309 -0.1411854979
0.0000000000 -0.0449921309 -0.1058891235
0.0000000000 -0.0449921309 -0.0705927490
0.0000000000 -0.0449921309 -0.0352963745
0.0000000000 -0.0449921309 0.0000000000
0.0000000000 -0.0449921309 0.0352963745
0.0000000000 -0.0449921309 0.0705927490
0.0000000000 -0.0449921309 0.1058891235
0.0000000000 -0.0449921309 0.1411854979
0.0000000000 -0.0449921309 0.1764818724
0.0000000000 0.0000000000 -0.1411854979
0.0000000000 0.0000000000 -0.1058891235
0.0000000000 0.0000000000 -0.0705927490
0.0000000000 0.0000000000 -0.0352963745
0.0000000000 0.0000000000 0.0000000000
0.0000000000 0.0000000000 0.0352963745
0.0000000000 0.0000000000 0.0705927490
0.0000000000 0.0000000000 0.1058891235
0.0000000000 0.0000000000 0.1411854979
0.0000000000 0.0000000000 0.1764818724
0.0000000000 0.0449921309 -0.1411854979
0.0000000000 0.0449921309 -0.1058891235
0.0000000000 0.0449921309 -0.0705927490
0.0000000000 0.0449921309 -0.0352963745
0.0000000000 0.0449921309 0.0000000000
0.0000000000 0.0449921309 0.0352963745
0.0000000000 0.0449921309 0.0705927490
0.0000000000 0.0449921309 0.1058891235
0.0000000000 0.0449921309 0.1411854979
0.0000000000 0.0449921309 0.1764818724
0.0000000000 0.0899842619 -0.1411854979
0.0000000000 0.0899842619 -0.1058891235
0.0000000000 0.0899842619 -0.0705927490
0.0000000000 0.0899842619 -0.0352963745
0.0000000000 0.0899842619 0.0000000000
0.0000000000 0.0899842619 0.0352963745
0.0000000000 0.0899842619 0.0705927490
0.0000000000 0.0899842619 0.1058891235
0.0000000000 0.0899842619 0.1411854979
0.0000000000 0.0899842619 0.1764818724
0.0000000000 0.1349763928 -0.1411854979
0.0000000000 0.1349763928 -0.1058891235
0.0000000000 0.1349763928 -0.0705927490
0.0000000000 0.1349763928 -0.0352963745
0.0000000000 0.1349763928 0.0000000000
0.0000000000 0.1349763928 0.0352963745
0.0000000000 0.1349763928 0.0705927490
0.0000000000 0.1349763928 0.1058891235
0.0000000000 0.1349763928 0.1411854979
0.0000000000 0.1349763928 0.1764818724
0.0000000000 0.1799685238 -0.1411854979
0.0000000000 0.1799685238 -0.1058891235
0.0000000000 0.1799685238 -0.0705927490
0.0000000000 0.1799685238 -0.0352963745
0.0000000000 0.1799685238 0.0000000000
0.0000000000 0.1799685238 0.0352963745
0.0000000000 0.1799685238 0.0705927490
0.0000000000 0.1799685238 0.1058891235
0.0000000000 0.1799685238 0.1411854979
0.0000000000 0.1799685238 0.1764818724
0.0000000000 0.2249606547 -0.1411854979
0.0000000000 0.2249606547 -0.1058891235
0.0000000000 0.2249606547 -0.0705927490
0.0000000000 0.2249606547 -0.0352963745
0.0000000000 0.2249606547 0.0000000000
0.0000000000 0.2249606547 0.0352963745
0.0000000000 0.2249606547 0.0705927490
0.0000000000 0.2249606547 0.1058891235
0.0000000000 0.2249606547 0.1411854979
0.0000000000 0.2249606547 0.1764818724
0.0488240599 -0.1799685238 -0.1411854979
0.0488240599 -0.1799685238 -0.1058891235
0.0488240599 -0.1799685238 -0.0705927490
0.0488240599 -0.1799685238 -0.0352963745
0.0488240599 -0.1799685238 0.0000000000
0.0488240599 -0.1799685238 0.0352963745
0.0488240599 -0.1799685238 0.0705927490
0.0488240599 -0.1799685238 0.1058891235
0.0488240599 -0.1799685238 0.1411854979
0.0488240599 -0.1799685238 0.1764818724
0.0488240599 -0.1349763928 -0.1411854979
0.0488240599 -0.1349763928 -0.1058891235
0.0488240599 -0.1349763928 -0.0705927490
0.0488240599 -0.1349763928 -0.0352963745
0.0488240599 -0.1349763928 0.0000000000
0.0488240599 -0.1349763928 0.0352963745
0.0488240599 -0.1349763928 0.0705927490
0.0488240599 -0.1349763928 0.1058891235
0.0488240599 -0.1349763928 0.1411854979
0.0488240599 -0.1349763928 0.1764818724
0.0488240599 -0.0899842619 -0.1411854979
0.0488240599 -0.0899842619 -0.1058891235
0.0488240599 -0.0899842619 -0.0705927490
0.0488240599 -0.0899842619 -0.0352963745
0.0488240599 -0.0899842619 0.0000000000
0.0488240599 -0.0899842619 0.0352963745
0.0488240599 -0.0899842619 0.0705927490
0.0488240599 -0.0899842619 0.1058891235
0.0488240599 -0.0899842619 0.1411854979
0.0488240599 -0.0899842619 0.1764818724
0.0488240599 -0.0449921309 -0.1411854979
0.0488240599 -0.0449921309 -0.1058891235
0.0488240599 -0.0449921309 -0.0705927490
0.0488240599 -0.0449921309 -0.0352963745
0.0488240599 -0.0449921309 0.0000000000
0.0488240599 -0.0449921309 0.0352963745
0.0488240599 -0.0449921309 0.0705927490
0.0488240599 -0.0449921309 0.1058891235
0.0488240599 -0.0449921309 0.1411854979
0.0488240599 -0.0449921309 0.1764818724
0.0488240599 0.0000000000 -0.1411854979
0.0488240599 0.0000000000 -0.1058891235
0.0488240599 0.0000000000 -0.0705927490
0.0488240599 0.0000000000 -0.0352963745
0.0488240599 0.0000000000 0.0000000000
0.0488240599 0.0000000000 0.0352963745
0.0488240599 0.0000000000 0.0705927490
0.0488240599 0.0000000000 0.1058891235
0.0488240599 0.0000000000 0.1411854979
0.0488240599 0.0000000000 0.1764818724
0.0488240599 0.0449921309 -0.1411854979
0.0488240599 0.0449921309 -0.1058891235
0.0488240599 0.0449921309 -0.0705927490
0.0488240599 0.0449921309 -0.0352963745
0.0488240599 0.0449921309 0.0000000000
0.0488240599 0.0449921309 0.0352963745
0.0488240599 0.0449921309 0.0705927490
0.0488240599 0.0449921309 0.1058891235
0.0488240599 0.0449921309 0.1411854979
0.0488240599 0.0449921309 0.1764818724
0.0488240599 0.0899842619 -0.1411854979
0.0488240599 0.0899842619 -0.1058891235
0.0488240599 0.0899842619 -0.0705927490
0.0488240599 0.0899842619 -0.0352963745
0.0488240599 0.0899842619 0.0000000000
0.0488240599 0.0899842619 0.0352963745
0.0488240599 0.0899842619 0.0705927490
0.0488240599 0.0899842619 0.1058891235
0.0488240599 0.0899842619 0.1411854979
0.0488240599 0.0899842619 0.1764818724
0.0488240599 0.1349763928 -0.1411854979
0.0488240599 0.1349763928 -0.1058891235
0.0488240599 0.1349763928 -0.0705927490
0.0488240599 0.1349763928 -0.0352963745
0.0488240599 0.1349763928 0.0000000000
0.0488240599 0.1349763928 0.0352963745
0.0488240599 0.1349763928 0.0705927490
0.0488240599 0.1349763928 0.1058891235
0.0488240599 0.1349763928 0.1411854979
0.0488240599 0.1349763928 0.1764818724
0.0488240599 0.1799685238 -0.1411854979
0.0488240599 0.1799685238 -0.1058891235
0.0488240599 0.1799685238 -0.0705927490
0.0488240599 0.1799685238 -0.0352963745
0.0488240599 0.1799685238 0.0000000000
0.0488240599 0.1799685238 0.0352963745
0.0488240599 0.1799685238 0.0705927490
0.0488240599 0.1799685238 0.1058891235
[...]
 2.55931 2.56228 2.60065 2.60118 2.60212 2.60600 2.65177 2.65261 2.65467 2.65594
 2.69257 2.69325 2.69465 2.69826 2.72068 2.72181 2.72236 2.72409 2.75444 2.75484
 2.75605 2.75979 2.78126 2.78172 2.78259 2.78627 2.88915 2.88960 2.88982 2.89347
 2.92044 2.92125 2.92177 2.92537 3.03053 3.03096 3.03216 3.03884 3.06803 3.06869
 3.07058 3.07501 3.72112 3.72128 3.72236 3.73262
 == 996-th k-point (0.24412,0.22496,0.07059) occupation: 84==
 -9.90540 -9.88334 -9.88202 -9.88191 -9.88169 -9.88125 -9.88102 -9.87931 -9.87856 -9.87699
 -9.87698 -9.87683 -9.87511 -9.87498 -9.87473 -9.87409 -9.86993 -9.86937 -9.86868 -9.86775
 -9.86263 -9.84171 -9.83587 -9.83238 -0.70121 -0.70117 -0.70005 -0.68460 -0.57875 -0.57864
 -0.57669 -0.57369 -0.57345 -0.57314 -0.56665 -0.55508 -0.42010 -0.41996 -0.41921 -0.41863
 -0.41763 -0.41703 -0.40889 -0.40570 -0.32229 -0.32212 -0.32122 -0.31464 -0.30054 -0.30038
 -0.29943 -0.28618 -0.24373 -0.24294 -0.24023 -0.23920 -0.23240 -0.23120 -0.23057 -0.22767
 -0.22052 -0.21963 -0.21932 -0.21144 -0.20651 -0.20600 -0.20329 -0.19596 -0.15816 -0.15755
 -0.15594 -0.15017 -0.14536 -0.14512 -0.14347 -0.13614 -0.10980 -0.10952 -0.10757 -0.10605
 -0.10484 -0.10440 -0.09874 -0.08954 0.08620 0.08648 0.08931 0.09094 0.09672 0.09701
 0.10311 0.10696 0.22505 0.22565 0.22709 0.22909 0.24018 0.24022 0.24122 0.24984
 0.26760 0.26850 0.26950 0.27014 0.30388 0.30453 0.30569 0.30675 0.34492 0.34554
 0.34615 0.34751 0.35843 0.35878 0.35948 0.36038 0.37420 0.37454 0.37520 0.37719
 0.39519 0.39547 0.39608 0.39970 0.41459 0.41523 0.41582 0.41950 0.42865 0.42903
 0.43028 0.43456 0.45157 0.45216 0.45391 0.45490 0.51963 0.51984 0.52103 0.52131
 0.54184 0.54233 0.54372 0.54618 0.56396 0.56581 0.56667 0.56928 0.58773 0.58910
 0.59095 0.59215 0.62240 0.62291 0.62375 0.62615 0.62904 0.63026 0.63074 0.63301
 0.65685 0.65757 0.65813 0.66333 0.68420 0.68572 0.68580 0.68675 0.70641 0.70663
 0.70772 0.70960 0.73320 0.73430 0.73494 0.73667 0.75990 0.76082 0.76277 0.76350
 0.78084 0.78164 0.78213 0.78417 0.81487 0.81640 0.81707 0.81945 0.83274 0.83336
 0.83476 0.83630 0.85246 0.85363 0.85551 0.85712 0.86718 0.86796 0.86960 0.87046
 0.91096 0.91155 0.91272 0.91326 0.93323 0.93385 0.93465 0.93526 0.97882 0.97900
 0.98013 0.98206 0.99579 0.99636 0.99717 1.00317 1.02853 1.02975 1.03036 1.03213
 1.05966 1.06018 1.06043 1.06182 1.08799 1.08845 1.08939 1.09090 1.09801 1.09859
 1.09975 1.10210 1.11379 1.11427 1.11533 1.11859 1.13500 1.13555 1.13712 1.13796
 1.15403 1.15480 1.15558 1.15976 1.17383 1.17418 1.17584 1.17786 1.19628 1.19700
 1.19842 1.20012 1.23354 1.23397 1.23524 1.23605 1.28773 1.28844 1.28919 1.29036
 1.30791 1.30921 1.31087 1.31201 1.32941 1.32955 1.33034 1.33348 1.35477 1.35628
 1.35717 1.35866 1.39751 1.39776 1.39909 1.39989 1.44251 1.44347 1.44435 1.44507
 1.47274 1.47321 1.47424 1.47480 1.52292 1.52396 1.52513 1.52577 1.58847 1.58884
 1.59048 1.59418 1.60965 1.61008 1.61100 1.61595 1.66445 1.66481 1.66673 1.66840
 1.70475 1.70499 1.70628 1.70798 1.72583 1.72603 1.72813 1.73147 1.74643 1.74736
 1.74838 1.74955 1.76422 1.76469 1.76656 1.76937 1.78033 1.78085 1.78243 1.78356
 1.79181 1.79227 1.79285 1.79747 1.80238 1.80301 1.80456 1.80597 1.81597 1.81639
 1.81830 1.81975 1.83782 1.83964 1.84019 1.84101 1.85678 1.85715 1.85889 1.86139
 1.88202 1.88276 1.88349 1.88433 1.90676 1.90712 1.90855 1.91060 1.92808 1.92905
 1.92954 1.93101 1.94518 1.94574 1.94619 1.94740 1.96098 1.96153 1.96305 1.96506
 1.99366 1.99409 1.99553 1.99713 2.02192 2.02290 2.02337 2.02482 2.04754 2.04853
 2.04908 2.05020 2.08101 2.08176 2.08211 2.08474 2.10600 2.10640 2.10774 2.10930
 2.13481 2.13520 2.13775 2.13833 2.19047 2.19127 2.19208 2.19306 2.22371 2.22457
 2.22524 2.22658 2.27144 2.27193 2.27239 2.27953 2.30042 2.30131 2.30282 2.30424
 2.34932 2.34991 2.35071 2.35390 2.41983 2.42078 2.42173 2.42343 2.55665 2.55750
 2.55859 2.56155 2.60683 2.60752 2.60828 2.61201 2.64859 2.64989 2.65130 2.65320
 2.69132 2.69236 2.69352 2.69703 2.71520 2.71631 2.71705 2.71879 2.74924 2.74979
 2.75075 2.75437 2.78918 2.78971 2.79042 2.79370 2.89005 2.89050 2.89088 2.89456
 2.91682 2.91761 2.91820 2.92190 3.02745 3.02814 3.02951 3.03512 3.07318 3.07406
 3.07632 3.07952 3.71947 3.71963 3.72071 3.73099
 == 997-th k-point (0.24412,0.22496,0.10589) occupation: 84==
 -9.90540 -9.88334 -9.88202 -9.88191 -9.88169 -9.88125 -9.88102 -9.87931 -9.87856 -9.87699
 -9.87698 -9.87683 -9.87511 -9.87498 -9.87473 -9.87409 -9.86993 -9.86937 -9.86868 -9.86775
 -9.86263 -9.84171 -9.83587 -9.83238 -0.70121 -0.70117 -0.70005 -0.68460 -0.57882 -0.57866
 -0.57677 -0.57377 -0.57340 -0.57300 -0.56659 -0.55506 -0.42037 -0.42021 -0.41938 -0.41878
 -0.41729 -0.41674 -0.40880 -0.40566 -0.32210 -0.32194 -0.32103 -0.31442 -0.30059 -0.30043
 -0.29947 -0.28621 -0.24532 -0.24425 -0.24201 -0.24106 -0.23150 -0.23033 -0.22957 -0.22670
 -0.21991 -0.21880 -0.21832 -0.21118 -0.20625 -0.20522 -0.20313 -0.19572 -0.15897 -0.15820
 -0.15678 -0.15131 -0.14509 -0.14473 -0.14283 -0.13609 -0.11002 -0.10957 -0.10783 -0.10625
 -0.10458 -0.10398 -0.09850 -0.08950 0.08560 0.08601 0.08869 0.09040 0.09737 0.09779
 0.10369 0.10736 0.22526 0.22582 0.22736 0.22961 0.24126 0.24127 0.24234 0.25066
 0.26433 0.26564 0.26672 0.26729 0.30769 0.30838 0.30944 0.31069 0.34300 0.34360
 0.34430 0.34553 0.35706 0.35784 0.35839 0.35972 0.36920 0.36935 0.37025 0.37275
 0.39654 0.39691 0.39745 0.40138 0.41804 0.41854 0.41957 0.42437 0.43059 0.43141
 0.43274 0.43528 0.44819 0.44882 0.45079 0.45169 0.52293 0.52338 0.52473 0.52528
 0.53907 0.54005 0.54030 0.54338 0.56173 0.56352 0.56408 0.56596 0.58604 0.58728
 0.58863 0.59021 0.62269 0.62380 0.62440 0.62690 0.62796 0.62897 0.62977 0.63181
 0.65829 0.65895 0.65940 0.66476 0.69193 0.69320 0.69375 0.69425 0.70577 0.70622
 0.70733 0.70879 0.73557 0.73665 0.73746 0.73935 0.75548 0.75667 0.75803 0.75875
 0.77836 0.77895 0.78008 0.78151 0.81618 0.81807 0.81828 0.82071 0.83351 0.83470
 0.83575 0.83721 0.84925 0.85004 0.85148 0.85295 0.86800 0.86874 0.86986 0.87079
 0.91591 0.91684 0.91795 0.91850 0.93221 0.93299 0.93370 0.93457 0.97750 0.97778
 0.97880 0.98147 0.99947 1.00025 1.00109 1.00610 1.02251 1.02397 1.02454 1.02638
 1.05991 1.06065 1.06130 1.06244 1.08688 1.08716 1.08827 1.09011 1.09743 1.09802
 1.09908 1.10353 1.11386 1.11498 1.11556 1.11787 1.13941 1.14027 1.14165 1.14234
 1.15472 1.15567 1.15626 1.16014 1.16929 1.16982 1.17157 1.17281 1.19909 1.19968
 1.20141 1.20269 1.23569 1.23613 1.23716 1.23803 1.28527 1.28613 1.28665 1.28794
 1.30425 1.30558 1.30745 1.30833 1.33357 1.33386 1.33467 1.33767 1.35261 1.35426
 1.35539 1.35659 1.40161 1.40214 1.40337 1.40423 1.43501 1.43609 1.43691 1.43779
 1.46830 1.46865 1.46984 1.47031 1.53137 1.53231 1.53354 1.53408 1.58655 1.58729
 1.58841 1.59160 1.60510 1.60547 1.60690 1.61112 1.66714 1.66781 1.66941 1.67078
 1.70536 1.70564 1.70698 1.70845 1.72405 1.72441 1.72664 1.72979 1.74940 1.74997
 1.75100 1.75278 1.76917 1.76945 1.77113 1.77396 1.77803 1.77865 1.77992 1.78178
 1.79216 1.79270 1.79309 1.79754 1.80164 1.80230 1.80385 1.80523 1.81721 1.81816
 1.81966 1.82024 1.84120 1.84284 1.84337 1.84457 1.85376 1.85421 1.85569 1.85825
 1.88193 1.88259 1.88345 1.88411 1.90464 1.90487 1.90612 1.90809 1.92800 1.92871
 1.92922 1.93059 1.94289 1.94341 1.94388 1.94500 1.96030 1.96086 1.96212 1.96506
 1.99599 1.99621 1.99781 1.99916 2.01805 2.01906 2.01997 2.02108 2.04291 2.04389
 2.04443 2.04589 2.08281 2.08319 2.08370 2.08680 2.11393 2.11475 2.11593 2.11685
 2.14080 2.14140 2.14307 2.14391 2.18338 2.18398 2.18520 2.18626 2.21521 2.21624
 2.21668 2.21820 2.26889 2.26924 2.26980 2.27780 2.31044 2.31146 2.31308 2.31389
 2.35013 2.35052 2.35207 2.35348 2.41314 2.41422 2.41510 2.41740 2.55635 2.55739
 2.55814 2.56126 2.61418 2.61504 2.61565 2.61911 2.64427 2.64580 2.64639 2.64947
 2.69066 2.69192 2.69281 2.69604 2.70857 2.70985 2.71051 2.71249 2.74395 2.74465
 2.74548 2.74925 2.79721 2.79775 2.79828 2.80145 2.89146 2.89201 2.89248 2.89626
 2.91176 2.91251 2.91313 2.91711 3.02443 3.02526 3.02676 3.03172 3.07862 3.07953
 3.08225 3.08448 3.71753 3.71769 3.71877 3.72907
 == 998-th k-point (0.24412,0.22496,0.14119) occupation: 84==
 -9.90540 -9.88334 -9.88202 -9.88191 -9.88169 -9.88125 -9.88102 -9.87931 -9.87856 -9.87699
 -9.87698 -9.87683 -9.87511 -9.87498 -9.87473 -9.87409 -9.86993 -9.86937 -9.86869 -9.86775
 -9.86263 -9.84171 -9.83587 -9.83238 -0.70121 -0.70117 -0.70005 -0.68460 -0.57887 -0.57868
 -0.57684 -0.57382 -0.57335 -0.57290 -0.56655 -0.55504 -0.42056 -0.42040 -0.41947 -0.41889
 -0.41708 -0.41654 -0.40873 -0.40564 -0.32195 -0.32179 -0.32088 -0.31425 -0.30063 -0.30048
 -0.29951 -0.28624 -0.24643 -0.24521 -0.24318 -0.24228 -0.23098 -0.22992 -0.22895 -0.22615
 -0.21935 -0.21814 -0.21752 -0.21100 -0.20603 -0.20456 -0.20299 -0.19552 -0.15961 -0.15873
 -0.15743 -0.15213 -0.14489 -0.14446 -0.14242 -0.13605 -0.11019 -0.10962 -0.10800 -0.10639
 -0.10437 -0.10370 -0.09832 -0.08947 0.08516 0.08565 0.08825 0.09000 0.09786 0.09834
 0.10413 0.10768 0.22540 0.22596 0.22755 0.23007 0.24229 0.24230 0.24348 0.25163
 0.26158 0.26322 0.26444 0.26491 0.31127 0.31185 0.31298 0.31440 0.33979 0.34045
 0.34125 0.34221 0.35797 0.35871 0.35906 0.36102 0.36496 0.36539 0.36649 0.36919
 0.39809 0.39868 0.39942 0.40311 0.41695 0.41742 0.41865 0.42312 0.43506 0.43611
 0.43713 0.43913 0.44624 0.44666 0.44848 0.45010 0.52266 0.52358 0.52450 0.52555
 0.54134 0.54236 0.54278 0.54503 0.55678 0.55796 0.55837 0.56007 0.58684 0.58771
 0.58855 0.59088 0.62264 0.62368 0.62450 0.62649 0.62734 0.62783 0.62853 0.63065
 0.65996 0.66047 0.66098 0.66642 0.69812 0.69894 0.69964 0.70039 0.70465 0.70569
 0.70688 0.70784 0.73815 0.73903 0.73998 0.74138 0.75235 0.75323 0.75408 0.75581
 0.77573 0.77664 0.77832 0.77870 0.81790 0.81930 0.82025 0.82191 0.83121 0.83269
 0.83361 0.83561 0.84957 0.85056 0.85115 0.85223 0.86827 0.86873 0.86963 0.87055
 0.92012 0.92134 0.92198 0.92279 0.93051 0.93140 0.93197 0.93299 0.97754 0.97782
 0.97871 0.98196 1.00348 1.00428 1.00506 1.00923 1.01663 1.01796 1.01880 1.02076
 1.06092 1.06216 1.06324 1.06386 1.08389 1.08477 1.08522 1.08717 1.09745 1.09816
 1.09954 1.10481 1.11320 1.11455 1.11538 1.11666 1.14540 1.14620 1.14754 1.14810
 1.15457 1.15508 1.15622 1.16012 1.16524 1.16608 1.16753 1.16888 1.20123 1.20165
 1.20344 1.20482 1.23738 1.23777 1.23845 1.23953 1.28294 1.28384 1.28443 1.28564
 1.30183 1.30312 1.30517 1.30593 1.33769 1.33809 1.33891 1.34189 1.34975 1.35143
 1.35252 1.35344 1.40766 1.40858 1.40955 1.41025 1.42607 1.42702 1.42783 1.42920
 1.46559 1.46600 1.46718 1.46769 1.53821 1.53904 1.54040 1.54079 1.58388 1.58499
 1.58565 1.58829 1.60195 1.60254 1.60414 1.60788 1.66907 1.66985 1.67136 1.67247
 1.70582 1.70621 1.70755 1.70888 1.72206 1.72243 1.72486 1.72771 1.75170 1.75247
 1.75321 1.75580 1.77458 1.77499 1.77558 1.77693 1.77846 1.77901 1.78096 1.78213
 1.79224 1.79278 1.79325 1.79734 1.79937 1.80050 1.80168 1.80320 1.81711 1.81849
 1.81930 1.82012 1.84509 1.84603 1.84706 1.84836 1.85069 1.85144 1.85301 1.85480
 1.88346 1.88400 1.88469 1.88582 1.90017 1.90070 1.90142 1.90388 1.92942 1.92985
 1.93016 1.93150 1.93882 1.93947 1.94015 1.94143 1.96051 1.96080 1.96217 1.96559
 1.99975 1.99991 2.00152 2.00305 2.01376 2.01482 2.01579 2.01723 2.03920 2.04008
 2.04067 2.04249 2.08440 2.08460 2.08518 2.08867 2.11920 2.12041 2.12185 2.12242
 2.14931 2.15003 2.15088 2.15224 2.17617 2.17676 2.17761 2.17917 2.20717 2.20822
 2.20902 2.21043 2.26638 2.26658 2.26730 2.27566 2.31867 2.31984 2.32078 2.32256
 2.35228 2.35251 2.35336 2.35520 2.40623 2.40747 2.40819 2.41142 2.55646 2.55763
 2.55803 2.56143 2.62045 2.62122 2.62215 2.62479 2.64011 2.64093 2.64176 2.64573
 2.69204 2.69334 2.69385 2.69671 2.70198 2.70358 2.70414 2.70632 2.74008 2.74089
 2.74174 2.74564 2.80306 2.80361 2.80398 2.80715 2.89350 2.89416 2.89460 2.89875
 2.90652 2.90720 2.90769 2.91233 3.02236 3.02325 3.02481 3.02949 3.08252 3.08342
 3.08640 3.08814 3.71603 3.71618 3.71726 3.72758
 == 999-th k-point (0.24412,0.22496,0.17648) occupation: 84==
 -9.90540 -9.88334 -9.88202 -9.88191 -9.88169 -9.88125 -9.88102 -9.87931 -9.87856 -9.87699
 -9.87698 -9.87683 -9.87511 -9.87498 -9.87473 -9.87409 -9.86993 -9.86937 -9.86869 -9.86775
 -9.86263 -9.84171 -9.83587 -9.83238 -0.70121 -0.70117 -0.70005 -0.68460 -0.57889 -0.57868
 -0.57686 -0.57384 -0.57333 -0.57286 -0.56653 -0.55503 -0.42064 -0.42047 -0.41950 -0.41893
 -0.41700 -0.41648 -0.40870 -0.40563 -0.32190 -0.32173 -0.32082 -0.31418 -0.30064 -0.30050
 -0.29953 -0.28625 -0.24682 -0.24556 -0.24359 -0.24270 -0.23081 -0.22981 -0.22874 -0.22598
 -0.21913 -0.21788 -0.21721 -0.21094 -0.20594 -0.20430 -0.20293 -0.19544 -0.15985 -0.15894
 -0.15767 -0.15242 -0.14482 -0.14436 -0.14228 -0.13603 -0.11025 -0.10963 -0.10806 -0.10644
 -0.10430 -0.10360 -0.09825 -0.08945 0.08500 0.08551 0.08809 0.08985 0.09803 0.09853
 0.10429 0.10779 0.22545 0.22602 0.22762 0.23025 0.24274 0.24276 0.24401 0.25215
 0.26045 0.26222 0.26355 0.26395 0.31291 0.31333 0.31458 0.31608 0.33813 0.33881
 0.33962 0.34042 0.35994 0.36047 0.36062 0.36157 0.36222 0.36330 0.36437 0.36711
 0.39884 0.39961 0.40047 0.40399 0.41588 0.41638 0.41765 0.42200 0.43696 0.43830
 0.43902 0.44128 0.44567 0.44606 0.44718 0.44990 0.52175 0.52278 0.52360 0.52485
 0.54457 0.54526 0.54721 0.54851 0.55220 0.55347 0.55458 0.55576 0.58752 0.58808
 0.58892 0.59153 0.62256 0.62347 0.62444 0.62606 0.62710 0.62762 0.62789 0.63017
 0.66068 0.66111 0.66164 0.66712 0.70059 0.70108 0.70152 0.70324 0.70382 0.70561
 0.70667 0.70786 0.73875 0.73939 0.74083 0.74137 0.75152 0.75227 0.75304 0.75592
 0.77447 0.77559 0.77715 0.77762 0.81917 0.81994 0.82150 0.82241 0.82993 0.83038
 0.83210 0.83402 0.85048 0.85134 0.85198 0.85278 0.86816 0.86842 0.86940 0.87019
 0.92272 0.92339 0.92411 0.92508 0.92914 0.92981 0.93084 0.93127 0.97783 0.97808
 0.97891 0.98242 1.00634 1.00667 1.00721 1.01196 1.01338 1.01386 1.01566 1.01784
 1.06157 1.06309 1.06454 1.06465 1.08217 1.08310 1.08354 1.08562 1.09767 1.09843
 1.09990 1.10539 1.11278 1.11419 1.11517 1.11605 1.15036 1.15086 1.15121 1.15144
 1.15237 1.15267 1.15515 1.15938 1.16324 1.16463 1.16572 1.16744 1.20203 1.20240
 1.20419 1.20566 1.23802 1.23838 1.23885 1.24010 1.28198 1.28289 1.28353 1.28472
 1.30098 1.30225 1.30435 1.30511 1.34019 1.34029 1.34117 1.34430 1.34865 1.34895
 1.35036 1.35136 1.41361 1.41479 1.41562 1.41587 1.41858 1.41990 1.42053 1.42294
 1.46474 1.46514 1.46635 1.46685 1.54098 1.54172 1.54318 1.54351 1.58245 1.58349
 1.58443 1.58664 1.60092 1.60165 1.60317 1.60686 1.66977 1.67055 1.67207 1.67307
 1.70603 1.70647 1.70782 1.70910 1.72112 1.72146 1.72404 1.72670 1.75259 1.75340
 1.75408 1.75702 1.77708 1.77737 1.77759 1.77813 1.77905 1.77965 1.78173 1.78401
 1.79237 1.79284 1.79347 1.79723 1.79775 1.79890 1.80008 1.80169 1.81697 1.81852
 1.81907 1.82002 1.84717 1.84733 1.84830 1.84863 1.85027 1.85053 1.85255 1.85280
 1.88495 1.88510 1.88631 1.88775 1.89702 1.89802 1.89805 1.90143 1.93097 1.93161
 1.93199 1.93299 1.93565 1.93676 1.93740 1.93897 1.96074 1.96087 1.96234 1.96585
 2.00245 2.00268 2.00483 2.00565 2.01092 2.01209 2.01264 2.01451 2.03790 2.03855
 2.03939 2.04125 2.08503 2.08525 2.08577 2.08944 2.12095 2.12218 2.12383 2.12434
 2.15497 2.15533 2.15613 2.15785 2.17190 2.17239 2.17416 2.17449 2.20341 2.20450
 2.20558 2.20682 2.26543 2.26553 2.26633 2.27481 2.32195 2.32261 2.32363 2.32619
 2.35337 2.35381 2.35415 2.35701 2.40299 2.40432 2.40491 2.40872 2.55658 2.55789
 2.55795 2.56158 2.62337 2.62376 2.62519 2.62693 2.63811 2.63842 2.63955 2.64391
 2.69525 2.69561 2.69635 2.69728 2.69755 2.69941 2.70106 2.70200 2.73867 2.73951
 2.74040 2.74434 2.80520 2.80576 2.80606 2.80924 2.89524 2.89531 2.89618 2.90152
 2.90341 2.90371 2.90463 2.90998 3.02163 3.02253 3.02411 3.02872 3.08392 3.08481
 3.08786 3.08948 3.71547 3.71562 3.71670 3.72703
 ---------------------------------------------------------------------------
 VBM is at 444-th k-point with -2.41773 eV
 CBM is at 999-th k-point with 2.31292 eV
 Band gap is 4.73065 eV


           Ground-State Mulliken Net Atomic Charges

      Atom                 Charge (a.u.)          Spin (a.u.)
   --------------------------------------------------------
      1  C               (0.130635,-0.000000)    (0.000000,0.000000)
      2  C               (0.158821,-0.000000)    (0.000000,0.000000)
      3  C               (0.153979,-0.000000)    (0.000000,0.000000)
      4  C                (0.171402,0.000000)    (0.000000,0.000000)
      5  C                (0.129535,0.000000)    (0.000000,0.000000)
      6  C                (0.155097,0.000000)    (0.000000,0.000000)
      7  C                (0.159285,0.000000)    (0.000000,0.000000)
      8  C               (0.157810,-0.000000)    (0.000000,0.000000)
      9  C                (0.088300,0.000000)    (0.000000,0.000000)
     10  C                (0.171535,0.000000)    (0.000000,0.000000)
     11  C                (0.169215,0.000000)    (0.000000,0.000000)
     12  C               (0.148166,-0.000000)    (0.000000,0.000000)
     13  C               (0.192091,-0.000000)    (0.000000,0.000000)
     14  C               (0.170155,-0.000000)    (0.000000,0.000000)
     15  C               (0.172448,-0.000000)    (0.000000,0.000000)
     16  C                (0.178107,0.000000)    (0.000000,0.000000)
     17  C                (0.143563,0.000000)    (0.000000,0.000000)
     18  C                (0.194858,0.000000)    (0.000000,0.000000)
     19  C                (0.193278,0.000000)    (0.000000,0.000000)
     20  C               (0.197620,-0.000000)    (0.000000,0.000000)
     21  C               (0.287686,-0.000000)    (0.000000,0.000000)
     22  C               (0.191426,-0.000000)    (0.000000,0.000000)
     23  C               (0.194414,-0.000000)    (0.000000,0.000000)
     24  C                (0.195586,0.000000)    (0.000000,0.000000)
     25  H              (-0.169895,-0.000000)    (0.000000,0.000000)
     26  H              (-0.183453,-0.000000)    (0.000000,0.000000)
     27  H              (-0.184846,-0.000000)    (0.000000,0.000000)
     28  H              (-0.183008,-0.000000)    (0.000000,0.000000)
     29  H               (-0.176901,0.000000)    (0.000000,0.000000)
     30  H              (-0.185261,-0.000000)    (0.000000,0.000000)
     31  H               (-0.181749,0.000000)    (0.000000,0.000000)
     32  H              (-0.182718,-0.000000)    (0.000000,0.000000)
     33  H               (-0.130220,0.000000)    (0.000000,0.000000)
     34  H               (-0.143933,0.000000)    (0.000000,0.000000)
     35  H               (-0.145044,0.000000)    (0.000000,0.000000)
     36  H              (-0.148075,-0.000000)    (0.000000,0.000000)
     37  H              (-0.140538,-0.000000)    (0.000000,0.000000)
     38  H              (-0.145608,-0.000000)    (0.000000,0.000000)
     39  H              (-0.145212,-0.000000)    (0.000000,0.000000)
     40  H               (-0.153982,0.000000)    (0.000000,0.000000)
     41  H               (-0.175692,0.000000)    (0.000000,0.000000)
     42  H               (-0.188776,0.000000)    (0.000000,0.000000)
     43  H               (-0.191805,0.000000)    (0.000000,0.000000)
     44  H              (-0.188600,-0.000000)    (0.000000,0.000000)
     45  H              (-0.191894,-0.000000)    (0.000000,0.000000)
     46  H              (-0.190418,-0.000000)    (0.000000,0.000000)
     47  H              (-0.188282,-0.000000)    (0.000000,0.000000)
     48  H               (-0.189106,0.000000)    (0.000000,0.000000)
   --------------------------------------------------------
  Sum of atomic charges =      (-0.000000,0.000000)
  Sum of spin   charges =       (0.000000,0.000000)



 Total job time:  2496.48 s.
 Fri Sep 12 18:01:51 2025


        *************************************************************
        *                                                           *
        *  Thank you very much for using QCPBC. Have a nice day.    *
        *                                                           *
        *************************************************************

