                  Welcome to Q-Chem
           with Periodic Boundary Condition
     A Quantum Leap Into The Future Of Chemistry

 Adam Rettig, Xintian Feng, Meng-Fu Chen, Hieu Dinh, Stephen Quiton,
 Anton Ni, Paul J. Robinson, Jinghong Zhang, Joonho Lee

Contributors to earlier versions of Q-Chem not listed above:
 Evgeny Epifanovsky, Leo Cunha, Jerome F. Gonthier, Kuan-Yu Liu
 Input file: /n/netscratch/joonholee_lab/Lab/hieudinh//mgo_slab_def2qzvp_omega_0.7_111.scratch20251124012408/mgo_slab_def2qzvp_omega_0.7_111.0
 Scratch folder: /n/netscratch/joonholee_lab/Lab/hieudinh//mgo_slab_def2qzvp_omega_0.7_111.scratch20251124012408
 Auxillary files located at: /n/home02/hieudinh/qcpbc/qcaux
 Q-Chem begins on Mon Nov 24 01:24:09 2025

 -------------------------------------------------------------
 User input:
 -------------------------------------------------------------
 $lattice
 3
 11.9443159104 0.0000000000 0.0000000000
 0.0000000000 11.9443159104 0.0000000000
 0.0000000000 0.0000000000 21.6602222298
 $end
 
 $unitcell
 ABSOLUTE
 0 1
 C   1.4930428341    1.4930432491    5.5284856213
 Mg   0.0000000000    0.0000000000    1.0000000000
 Mg   8.9582369328    5.9721579552    1.0000000000
 Mg   2.9860789776    5.9721579552    1.0000000000
 Mg   2.9860789776    8.9582369328    1.0000000000
 Mg   5.9721579552    0.0000000000    1.0000000000
 Mg   5.9721579552    2.9860789776    1.0000000000
 Mg   5.9721579552    5.9721579552    1.0000000000
 Mg   8.9582369328    2.9860789776    1.0000000000
 Mg   5.9721579552    8.9582369328    1.0000000000
 Mg   8.9582369328    0.0000000000    1.0000000000
 Mg   2.9860789776    2.9860789776    1.0000000000
 Mg   8.9582369328    8.9582369328    1.0000000000
 Mg   0.0000000000    8.9582369328    1.0000000000
 Mg   0.0000000000    2.9860789776    1.0000000000
 Mg   0.0000000000    5.9721579552    1.0000000000
 Mg   2.9860789776    0.0000000000    1.0000000000
 Mg   1.4930343349    1.4930374153    3.1511187175
 Mg   7.4651977897   10.4517004415    3.1114386205
 Mg   7.4651969790    7.4651968898    3.1112699448
 Mg   1.4930327857    4.4811832720    3.1056362779
 Mg   7.4651966404    4.4786922443    3.1114383107
 Mg   4.4811624032    1.4930368520    3.1056318890
 Mg  10.4496839597    4.4807048989    3.1095898700
 Mg   1.4930399629    7.4651963524    3.1116080311
 Mg  10.4496925734   10.4496968378    3.1095846708
 Mg   4.4807088948   10.4496904623    3.1095885984
 Mg   4.4786954624    7.4651978298    3.1114386978
 Mg   1.4930424686   10.4492084126    3.1056383774
 Mg  10.4516980458    7.4651970662    3.1114406695
 Mg   4.4807013212    4.4807040921    3.1095854125
 Mg   7.4651986133    1.4930389816    3.1116104730
 Mg  10.4492249714    1.4930441995    3.1056280117
 O  10.4512759328    1.4930390000    1.0000000000
 O   4.4791179776   10.4512759328    1.0000000000
 O   7.4651969552    1.4930390000    1.0000000000
 O   4.4791179776    4.4791179776    1.0000000000
 O  10.4512759328    4.4791179776    1.0000000000
 O   7.4651969552    7.4651969552    1.0000000000
 O   7.4651969552   10.4512759328    1.0000000000
 O   7.4651969552    4.4791179776    1.0000000000
 O   4.4791179776    7.4651969552    1.0000000000
 O   1.4930390000   10.4512759328    1.0000000000
 O  10.4512759328    7.4651969552    1.0000000000
 O   1.4930390000    4.4791179776    1.0000000000
 O   1.4930390000    7.4651969552    1.0000000000
 O   1.4930390000    1.4930390000    1.0000000000
 O   4.4791179776    1.4930390000    1.0000000000
 O  10.4512759328   10.4512759328    1.0000000000
 O   8.9580238897    5.9723685818    3.1594644112
 O   8.9570961456    2.9857717252    3.1600752389
 O   8.9570985067    0.0003085838    3.1600738373
 O   2.9857747423    8.9570945142    3.1600737733
 O   5.9723690642    5.9723696033    3.1594610725
 O   5.9732960489    2.9857717265    3.1600713997
 O   5.9732976356    0.0003062885    3.1600713024
 O   2.9857711850    5.9732998192    3.1600740469
 O   2.9950544541    2.9950623702    3.1548459568
 O   2.9950599166   -0.0089867212    3.1548507549
 O   0.0003060319    8.9570959750    3.1600745678
 O   0.0003045736    5.9732996331    3.1600758940
 O  -0.0089879078    2.9950667318    3.1548429191
 O  -0.0089805134   -0.0089799254    3.1548482730
 O   5.9723706153    8.9580251994    3.1594625961
 O   8.9580250454    8.9580263132    3.1594616543
 O   1.4930495812    1.4930407413    6.6690780399
 $end
 
 $rem
 jobtype = sp
 method = pbe
 dft_d = 6
 scf_convergence = 5
 scf_guess = autosad
 scf_algorithm = gdm
 basis = def2-qzvp
 aux_basis = rij-def2-qzvp
 input_bohr = false
 is_basis_uctr = true
 symmetry = false
 
 mp_mesh = [1,1,1]
 
 integral_direct true
 bvk_cgto true
 symmetry false
 rsdf_print_level 1
 
 thresh 14
 mem_total 500000
 threads 32
 
 MAX_SCF_CYCLES 500
 madelung = false
 omega 0.7
 do_rij_bigmem true
 automate_g true
 print_level 10
 grid_type_xc 1
 
 thresh_1e2c_sp 1e-14
 thresh_2e3c_bra_ket_sep 1e-14
 thresh_g 1e-14
 $end
 
 $rem_autosad
 incfock 1000
 scf_algorithm gdm_ls
 $end
 
 -------------------------------------------------------------
 Running PBC job

 Requested Exchange Correlation Functionals: 
  DFT Exchange:  1.00000 pbe_x
  DFT Correlation:  1.00000 pbe_c
 using 32 threads for computing.
 ---------------------------------------------------------------
      Coordinates of Atoms in Central Unit Cell (Angstroms)
    I     Atom         X            Y            Z
 ---------------------------------------------------------------
    1       C      1.493043     1.493043     5.528486
    2      Mg      0.000000     0.000000     1.000000
    3      Mg      8.958237     5.972158     1.000000
    4      Mg      2.986079     5.972158     1.000000
    5      Mg      2.986079     8.958237     1.000000
    6      Mg      5.972158     0.000000     1.000000
    7      Mg      5.972158     2.986079     1.000000
    8      Mg      5.972158     5.972158     1.000000
    9      Mg      8.958237     2.986079     1.000000
   10      Mg      5.972158     8.958237     1.000000
   11      Mg      8.958237     0.000000     1.000000
   12      Mg      2.986079     2.986079     1.000000
   13      Mg      8.958237     8.958237     1.000000
   14      Mg      0.000000     8.958237     1.000000
   15      Mg      0.000000     2.986079     1.000000
   16      Mg      0.000000     5.972158     1.000000
   17      Mg      2.986079     0.000000     1.000000
   18      Mg      1.493034     1.493037     3.151119
   19      Mg      7.465198    10.451700     3.111439
   20      Mg      7.465197     7.465197     3.111270
   21      Mg      1.493033     4.481183     3.105636
   22      Mg      7.465197     4.478692     3.111438
   23      Mg      4.481162     1.493037     3.105632
   24      Mg     10.449684     4.480705     3.109590
   25      Mg      1.493040     7.465196     3.111608
   26      Mg     10.449693    10.449697     3.109585
   27      Mg      4.480709    10.449690     3.109589
   28      Mg      4.478695     7.465198     3.111439
   29      Mg      1.493042    10.449208     3.105638
   30      Mg     10.451698     7.465197     3.111441
   31      Mg      4.480701     4.480704     3.109585
   32      Mg      7.465199     1.493039     3.111610
   33      Mg     10.449225     1.493044     3.105628
   34       O     10.451276     1.493039     1.000000
   35       O      4.479118    10.451276     1.000000
   36       O      7.465197     1.493039     1.000000
   37       O      4.479118     4.479118     1.000000
   38       O     10.451276     4.479118     1.000000
   39       O      7.465197     7.465197     1.000000
   40       O      7.465197    10.451276     1.000000
   41       O      7.465197     4.479118     1.000000
   42       O      4.479118     7.465197     1.000000
   43       O      1.493039    10.451276     1.000000
   44       O     10.451276     7.465197     1.000000
   45       O      1.493039     4.479118     1.000000
   46       O      1.493039     7.465197     1.000000
   47       O      1.493039     1.493039     1.000000
   48       O      4.479118     1.493039     1.000000
   49       O     10.451276    10.451276     1.000000
   50       O      8.958024     5.972369     3.159464
   51       O      8.957096     2.985772     3.160075
   52       O      8.957099     0.000309     3.160074
   53       O      2.985775     8.957095     3.160074
   54       O      5.972369     5.972370     3.159461
   55       O      5.973296     2.985772     3.160071
   56       O      5.973298     0.000306     3.160071
   57       O      2.985771     5.973300     3.160074
   58       O      2.995054     2.995062     3.154846
   59       O      2.995060    -0.008987     3.154851
   60       O      0.000306     8.957096     3.160075
   61       O      0.000305     5.973300     3.160076
   62       O     -0.008988     2.995067     3.154843
   63       O     -0.008981    -0.008980     3.154848
   64       O      5.972371     8.958025     3.159463
   65       O      8.958025     8.958026     3.159462
   66       O      1.493050     1.493041     6.669078
 ---------------------------------------------------------------
 --------------------------------------------------
              Lattice Vectors (Angstroms)
              X            Y            Z
 --------------------------------------------------
   X      11.944316     0.000000     0.000000
   Y       0.000000    11.944316     0.000000
   Z       0.000000     0.000000    21.660222
 --------------------------------------------------
 --------------------------------------------------
       Reciprocal Lattice Vectors (Angstroms^-1)
              X            Y            Z
 --------------------------------------------------
   X       0.526040     0.000000     0.000000
   Y       0.000000     0.526040     0.000000
   Z       0.000000     0.000000     0.290079
 --------------------------------------------------

 Single point calculation requested

 Hamiltonian contributions:
 List of terms in Hamiltonian: kpts_nn, kpts_kinetic, kpts_vnuc_df, kpts_xc, kpts_rij_bigmem, kpts_dftd3

 K-Points calculation started.

 Basis set information about using solid harmonic (1) or Cartesian (0):
  c : D(1) D(1) D(1) F(1) F(1) G(1) 
  o : D(1) D(1) D(1) F(1) F(1) G(1) 
  mg : D(1) D(1) D(1) D(1) F(1) 

 Basis set information about using solid harmonic (1) or Cartesian (0):
  c : D(1) D(1) D(1) F(1) G(1) 
  o : D(1) D(1) D(1) F(1) G(1) 
  mg : D(1) D(1) D(1) D(1) F(1) G(1) 

 There are 3570 basis functions in the central unit cell.
 Print atomic basis of atoms in the central unit cell:
 -------------------------------------------------------------
66 2170 2170 1186

  2.82144204878407e+00  2.82144283302041e+00  1.04473237081885e+01
  0.00000000000000e+00  0.00000000000000e+00  1.88972612462577e+00
  1.69286143624996e+01  1.12857429083331e+01  1.88972612462577e+00
  5.64287145416653e+00  1.12857429083331e+01  1.88972612462577e+00
  5.64287145416653e+00  1.69286143624996e+01  1.88972612462577e+00
  1.12857429083331e+01  0.00000000000000e+00  1.88972612462577e+00
  1.12857429083331e+01  5.64287145416653e+00  1.88972612462577e+00
  1.12857429083331e+01  1.12857429083331e+01  1.88972612462577e+00
  1.69286143624996e+01  5.64287145416653e+00  1.88972612462577e+00
  1.12857429083331e+01  1.69286143624996e+01  1.88972612462577e+00
  1.69286143624996e+01  0.00000000000000e+00  1.88972612462577e+00
  5.64287145416653e+00  5.64287145416653e+00  1.88972612462577e+00
  1.69286143624996e+01  1.69286143624996e+01  1.88972612462577e+00
  0.00000000000000e+00  1.69286143624996e+01  1.88972612462577e+00
  0.00000000000000e+00  5.64287145416653e+00  1.88972612462577e+00
  0.00000000000000e+00  1.12857429083331e+01  1.88972612462577e+00
  5.64287145416653e+00  0.00000000000000e+00  1.88972612462577e+00
  2.82142598762379e+00  2.82143180873615e+00  5.95475136225700e+00
  1.41071792886946e+01  1.97508513710652e+01  5.87976684632842e+00
  1.41071777566937e+01  1.41071775881301e+01  5.87944809545154e+00
  2.82142306006008e+00  8.46820909833439e+00  5.86880200793317e+00
  1.41071771168324e+01  8.46350173821253e+00  5.87976626089126e+00
  8.46816966201784e+00  2.82143074425342e+00  5.86879371411418e+00
  1.97470407727280e+01  8.46730510419000e+00  5.87627321421065e+00
  2.82143662300242e+00  1.41071765725913e+01  5.88008698596503e+00
  1.97470570502619e+01  1.97470651088100e+01  5.87626338914658e+00
  8.46731265534662e+00  1.97470530608611e+01  5.87627081123491e+00
  8.46350781954017e+00  1.41071793644727e+01  5.87976699240425e+00
  2.82144135808917e+00  1.97461421189496e+01  5.86880597541317e+00
  1.97508468438484e+01  1.41071779214778e+01  5.87977071837725e+00
  8.46729834331684e+00  8.46730357955896e+00  5.87626479075645e+00
  1.41071808450731e+01  2.82143476861417e+00  5.88009160048725e+00
  1.97461734105465e+01  2.82144462901612e+00  5.86878638707908e+00
  1.97500491658847e+01  2.82143480338514e+00  1.88972612462577e+00
  8.46430625755166e+00  1.97500491658847e+01  1.88972612462577e+00
  1.41071777117182e+01  2.82143480338514e+00  1.88972612462577e+00
  8.46430625755166e+00  8.46430625755166e+00  1.88972612462577e+00
  1.97500491658847e+01  8.46430625755166e+00  1.88972612462577e+00
  1.41071777117182e+01  1.41071777117182e+01  1.88972612462577e+00
  1.41071777117182e+01  1.97500491658847e+01  1.88972612462577e+00
  1.41071777117182e+01  8.46430625755166e+00  1.88972612462577e+00
  8.46430625755166e+00  1.41071777117182e+01  1.88972612462577e+00
  2.82143480338514e+00  1.97500491658847e+01  1.88972612462577e+00
  1.97500491658847e+01  1.41071777117182e+01  1.88972612462577e+00
  2.82143480338514e+00  8.46430625755166e+00  1.88972612462577e+00
  2.82143480338514e+00  1.41071777117182e+01  1.88972612462577e+00
  2.82143480338514e+00  2.82143480338514e+00  1.88972612462577e+00
  8.46430625755166e+00  2.82143480338514e+00  1.88972612462577e+00
  1.97500491658847e+01  1.97500491658847e+01  1.88972612462577e+00
  1.69282117693878e+01  1.12861409349216e+01  5.97052243767002e+00
  1.69264585871251e+01  5.64229083127940e+00  5.97167673473235e+00
  1.69264630489575e+01  5.83138868496294e-04  5.97167408609222e+00
  5.64229653277209e+00  1.69264555042259e+01  5.97167396514974e+00
  1.12861418465255e+01  1.12861428652769e+01  5.97051612844141e+00
  1.12878935937302e+01  5.64229083373604e+00  5.97166947969581e+00
  1.12878965921587e+01  5.78801380122440e-04  5.97166929582546e+00
  5.64228981044934e+00  1.12879007185646e+01  5.97167448217881e+00
  5.65983264658954e+00  5.65984760585052e+00  5.96179482373494e+00
  5.65984296921850e+00 -1.69824418263683e-02  5.96180389082986e+00
  5.78316476398861e-04  1.69264582647378e+01  5.97167546653715e+00
  5.75560688791319e-04  1.12879003668866e+01  5.97167797269194e+00
 -1.69846841753877e-02  5.65985584807999e+00  5.96178908331389e+00
 -1.69707107845318e-02 -1.69695996255705e-02  5.96179920071859e+00
  1.12861447776797e+01  1.69282142443622e+01  5.97051900762813e+00
  1.69282139533443e+01  1.69282163491391e+01  5.97051722788406e+00
  2.82145479895521e+00  2.82143809396524e+00  1.26027309991671e+01

  6.70250710290000e+04
  1.00399865380000e+04
  2.28493169110000e+03
  6.47141221300000e+02
  2.11094723350000e+02
  7.61776438620000e+01
  2.96338391630000e+01
  1.21877850810000e+01
  5.30260062990000e+01
  1.52585027760000e+01
  5.24039574640000e+00
  2.29050223790000e+00
  6.96732830060000e-01
  2.75993373630000e-01
  1.07398843890000e-01
  1.05125550820000e+02
  2.48844610660000e+01
  7.86372308260000e+00
  2.84070018350000e+00
  1.12271373350000e+00
  4.60507255550000e-01
  1.89375309130000e-01
  7.59837916110000e-02
  1.84800000000000e+00
  6.49000000000000e-01
  2.28000000000000e-01
  1.41900000000000e+00
  4.85000000000000e-01
  1.01100000000000e+00
  6.05967787530000e+05
  9.05690946920000e+04
  2.05742528440000e+04
  5.81862848650000e+03
  1.89562960750000e+03
  6.83459410210000e+02
  2.66182197620000e+02
  1.10112200100000e+02
  4.77770412340000e+01
  2.15421661490000e+01
  1.74121363780000e+02
  5.34849724980000e+01
  2.05002133070000e+01
  9.80568269220000e+00
  3.54029893480000e+00
  1.54508500460000e+00
  6.65401954320000e-01
  1.43554390710000e-01
  6.66246734680000e-02
  2.97726482660000e-02
  8.93204608290000e+02
  2.11782582860000e+02
  6.84432005370000e+01
  2.57272653490000e+01
  1.06066342810000e+01
  4.59341264840000e+00
  2.01004698070000e+00
  8.73848415360000e-01
  3.56150766660000e-01
  1.89959543560000e-01
  7.45801356690000e-02
  2.92216413090000e-02
  3.81000000000000e+00
  6.50000000000000e-01
  2.00000000000000e-01
  5.20000000000000e-02
  1.60000000000000e-01
  6.05967787530000e+05
  9.05690946920000e+04
  2.05742528440000e+04
  5.81862848650000e+03
  1.89562960750000e+03
  6.83459410210000e+02
  2.66182197620000e+02
  1.10112200100000e+02
  4.77770412340000e+01
  2.15421661490000e+01
  1.74121363780000e+02
  5.34849724980000e+01
  2.05002133070000e+01
  9.80568269220000e+00
  3.54029893480000e+00
  1.54508500460000e+00
  6.65401954320000e-01
  1.43554390710000e-01
  6.66246734680000e-02
  2.97726482660000e-02
  8.93204608290000e+02
  2.11782582860000e+02
  6.84432005370000e+01
  2.57272653490000e+01
  1.06066342810000e+01
  4.59341264840000e+00
  2.01004698070000e+00
  8.73848415360000e-01
  3.56150766660000e-01
  1.89959543560000e-01
  7.45801356690000e-02
  2.92216413090000e-02
  3.81000000000000e+00
  6.50000000000000e-01
  2.00000000000000e-01
  5.20000000000000e-02
  1.60000000000000e-01
  6.05967787530000e+05
  9.05690946920000e+04
  2.05742528440000e+04
  5.81862848650000e+03
  1.89562960750000e+03
  6.83459410210000e+02
  2.66182197620000e+02
  1.10112200100000e+02
  4.77770412340000e+01
  2.15421661490000e+01
  1.74121363780000e+02
  5.34849724980000e+01
  2.05002133070000e+01
  9.80568269220000e+00
  3.54029893480000e+00
  1.54508500460000e+00
  6.65401954320000e-01
  1.43554390710000e-01
  6.66246734680000e-02
  2.97726482660000e-02
  8.93204608290000e+02
  2.11782582860000e+02
  6.84432005370000e+01
  2.57272653490000e+01
  1.06066342810000e+01
  4.59341264840000e+00
  2.01004698070000e+00
  8.73848415360000e-01
  3.56150766660000e-01
  1.89959543560000e-01
  7.45801356690000e-02
  2.92216413090000e-02
  3.81000000000000e+00
  6.50000000000000e-01
  2.00000000000000e-01
  5.20000000000000e-02
  1.60000000000000e-01
  6.05967787530000e+05
  9.05690946920000e+04
  2.05742528440000e+04
  5.81862848650000e+03
  1.89562960750000e+03
  6.83459410210000e+02
  2.66182197620000e+02
  1.10112200100000e+02
  4.77770412340000e+01
  2.15421661490000e+01
  1.74121363780000e+02
  5.34849724980000e+01
  2.05002133070000e+01
  9.80568269220000e+00
  3.54029893480000e+00
  1.54508500460000e+00
  6.65401954320000e-01
  1.43554390710000e-01
  6.66246734680000e-02
  2.97726482660000e-02
  8.93204608290000e+02
  2.11782582860000e+02
  6.84432005370000e+01
  2.57272653490000e+01
  1.06066342810000e+01
  4.59341264840000e+00
  2.01004698070000e+00
  8.73848415360000e-01
  3.56150766660000e-01
  1.89959543560000e-01
  7.45801356690000e-02
  2.92216413090000e-02
  3.81000000000000e+00
  6.50000000000000e-01
  2.00000000000000e-01
  5.20000000000000e-02
  1.60000000000000e-01
  6.05967787530000e+05
  9.05690946920000e+04
  2.05742528440000e+04
  5.81862848650000e+03
  1.89562960750000e+03
  6.83459410210000e+02
  2.66182197620000e+02
  1.10112200100000e+02
  4.77770412340000e+01
  2.15421661490000e+01
  1.74121363780000e+02
  5.34849724980000e+01
  2.05002133070000e+01
  9.80568269220000e+00
  3.54029893480000e+00
  1.54508500460000e+00
  6.65401954320000e-01
  1.43554390710000e-01
  6.66246734680000e-02
  2.97726482660000e-02
  8.93204608290000e+02
  2.11782582860000e+02
  6.84432005370000e+01
  2.57272653490000e+01
  1.06066342810000e+01
  4.59341264840000e+00
  2.01004698070000e+00
  8.73848415360000e-01
  3.56150766660000e-01
  1.89959543560000e-01
  7.45801356690000e-02
  2.92216413090000e-02
  3.81000000000000e+00
  6.50000000000000e-01
  2.00000000000000e-01
  5.20000000000000e-02
  1.60000000000000e-01
  6.05967787530000e+05
  9.05690946920000e+04
  2.05742528440000e+04
  5.81862848650000e+03
  1.89562960750000e+03
  6.83459410210000e+02
  2.66182197620000e+02
  1.10112200100000e+02
  4.77770412340000e+01
  2.15421661490000e+01
  1.74121363780000e+02
  5.34849724980000e+01
  2.05002133070000e+01
  9.80568269220000e+00
  3.54029893480000e+00
  1.54508500460000e+00
  6.65401954320000e-01
  1.43554390710000e-01
  6.66246734680000e-02
  2.97726482660000e-02
  8.93204608290000e+02
  2.11782582860000e+02
  6.84432005370000e+01
  2.57272653490000e+01
  1.06066342810000e+01
  4.59341264840000e+00
  2.01004698070000e+00
  8.73848415360000e-01
  3.56150766660000e-01
  1.89959543560000e-01
  7.45801356690000e-02
  2.92216413090000e-02
  3.81000000000000e+00
  6.50000000000000e-01
  2.00000000000000e-01
  5.20000000000000e-02
  1.60000000000000e-01
  6.05967787530000e+05
  9.05690946920000e+04
  2.05742528440000e+04
  5.81862848650000e+03
  1.89562960750000e+03
  6.83459410210000e+02
  2.66182197620000e+02
  1.10112200100000e+02
  4.77770412340000e+01
  2.15421661490000e+01
  1.74121363780000e+02
  5.34849724980000e+01
  2.05002133070000e+01
  9.80568269220000e+00
  3.54029893480000e+00
  1.54508500460000e+00
  6.65401954320000e-01
  1.43554390710000e-01
  6.66246734680000e-02
  2.97726482660000e-02
  8.93204608290000e+02
  2.11782582860000e+02
  6.84432005370000e+01
  2.57272653490000e+01
  1.06066342810000e+01
  4.59341264840000e+00
  2.01004698070000e+00
  8.73848415360000e-01
  3.56150766660000e-01
  1.89959543560000e-01
  7.45801356690000e-02
  2.92216413090000e-02
  3.81000000000000e+00
  6.50000000000000e-01
  2.00000000000000e-01
  5.20000000000000e-02
  1.60000000000000e-01
  6.05967787530000e+05
  9.05690946920000e+04
  2.05742528440000e+04
  5.81862848650000e+03
  1.89562960750000e+03
  6.83459410210000e+02
  2.66182197620000e+02
  1.10112200100000e+02
  4.77770412340000e+01
  2.15421661490000e+01
  1.74121363780000e+02
  5.34849724980000e+01
  2.05002133070000e+01
  9.80568269220000e+00
  3.54029893480000e+00
  1.54508500460000e+00
  6.65401954320000e-01
  1.43554390710000e-01
  6.66246734680000e-02
  2.97726482660000e-02
  8.93204608290000e+02
  2.11782582860000e+02
  6.84432005370000e+01
  2.57272653490000e+01
  1.06066342810000e+01
  4.59341264840000e+00
  2.01004698070000e+00
  8.73848415360000e-01
  3.56150766660000e-01
  1.89959543560000e-01
  7.45801356690000e-02
  2.92216413090000e-02
  3.81000000000000e+00
  6.50000000000000e-01
  2.00000000000000e-01
  5.20000000000000e-02
  1.60000000000000e-01
  6.05967787530000e+05
  9.05690946920000e+04
  2.05742528440000e+04
  5.81862848650000e+03
  1.89562960750000e+03
  6.83459410210000e+02
  2.66182197620000e+02
  1.10112200100000e+02
  4.77770412340000e+01
  2.15421661490000e+01
  1.74121363780000e+02
  5.34849724980000e+01
  2.05002133070000e+01
  9.80568269220000e+00
  3.54029893480000e+00
  1.54508500460000e+00
  6.65401954320000e-01
  1.43554390710000e-01
  6.66246734680000e-02
  2.97726482660000e-02
  8.93204608290000e+02
  2.11782582860000e+02
  6.84432005370000e+01
  2.57272653490000e+01
  1.06066342810000e+01
  4.59341264840000e+00
  2.01004698070000e+00
  8.73848415360000e-01
  3.56150766660000e-01
  1.89959543560000e-01
  7.45801356690000e-02
  2.92216413090000e-02
  3.81000000000000e+00
  6.50000000000000e-01
  2.00000000000000e-01
  5.20000000000000e-02
  1.60000000000000e-01
  6.05967787530000e+05
  9.05690946920000e+04
  2.05742528440000e+04
  5.81862848650000e+03
  1.89562960750000e+03
  6.83459410210000e+02
  2.66182197620000e+02
  1.10112200100000e+02
  4.77770412340000e+01
  2.15421661490000e+01
  1.74121363780000e+02
  5.34849724980000e+01
  2.05002133070000e+01
  9.80568269220000e+00
  3.54029893480000e+00
  1.54508500460000e+00
  6.65401954320000e-01
  1.43554390710000e-01
  6.66246734680000e-02
  2.97726482660000e-02
  8.93204608290000e+02
  2.11782582860000e+02
  6.84432005370000e+01
  2.57272653490000e+01
  1.06066342810000e+01
  4.59341264840000e+00
  2.01004698070000e+00
  8.73848415360000e-01
  3.56150766660000e-01
  1.89959543560000e-01
  7.45801356690000e-02
  2.92216413090000e-02
  3.81000000000000e+00
  6.50000000000000e-01
  2.00000000000000e-01
  5.20000000000000e-02
  1.60000000000000e-01
  6.05967787530000e+05
  9.05690946920000e+04
  2.05742528440000e+04
  5.81862848650000e+03
  1.89562960750000e+03
  6.83459410210000e+02
  2.66182197620000e+02
  1.10112200100000e+02
  4.77770412340000e+01
  2.15421661490000e+01
  1.74121363780000e+02
  5.34849724980000e+01
  2.05002133070000e+01
  9.80568269220000e+00
  3.54029893480000e+00
  1.54508500460000e+00
  6.65401954320000e-01
  1.43554390710000e-01
  6.66246734680000e-02
  2.97726482660000e-02
  8.93204608290000e+02
  2.11782582860000e+02
  6.84432005370000e+01
  2.57272653490000e+01
  1.06066342810000e+01
  4.59341264840000e+00
  2.01004698070000e+00
  8.73848415360000e-01
  3.56150766660000e-01
  1.89959543560000e-01
  7.45801356690000e-02
  2.92216413090000e-02
  3.81000000000000e+00
  6.50000000000000e-01
  2.00000000000000e-01
  5.20000000000000e-02
  1.60000000000000e-01
  6.05967787530000e+05
  9.05690946920000e+04
  2.05742528440000e+04
  5.81862848650000e+03
  1.89562960750000e+03
  6.83459410210000e+02
  2.66182197620000e+02
  1.10112200100000e+02
  4.77770412340000e+01
  2.15421661490000e+01
  1.74121363780000e+02
  5.34849724980000e+01
  2.05002133070000e+01
  9.80568269220000e+00
  3.54029893480000e+00
  1.54508500460000e+00
  6.65401954320000e-01
  1.43554390710000e-01
  6.66246734680000e-02
  2.97726482660000e-02
  8.93204608290000e+02
  2.11782582860000e+02
  6.84432005370000e+01
  2.57272653490000e+01
  1.06066342810000e+01
  4.59341264840000e+00
  2.01004698070000e+00
  8.73848415360000e-01
  3.56150766660000e-01
  1.89959543560000e-01
  7.45801356690000e-02
  2.92216413090000e-02
  3.81000000000000e+00
  6.50000000000000e-01
  2.00000000000000e-01
  5.20000000000000e-02
  1.60000000000000e-01
  6.05967787530000e+05
  9.05690946920000e+04
  2.05742528440000e+04
  5.81862848650000e+03
  1.89562960750000e+03
  6.83459410210000e+02
  2.66182197620000e+02
  1.10112200100000e+02
  4.77770412340000e+01
  2.15421661490000e+01
  1.74121363780000e+02
  5.34849724980000e+01
  2.05002133070000e+01
  9.80568269220000e+00
  3.54029893480000e+00
  1.54508500460000e+00
  6.65401954320000e-01
  1.43554390710000e-01
  6.66246734680000e-02
  2.97726482660000e-02
  8.93204608290000e+02
  2.11782582860000e+02
  6.84432005370000e+01
  2.57272653490000e+01
  1.06066342810000e+01
  4.59341264840000e+00
  2.01004698070000e+00
  8.73848415360000e-01
  3.56150766660000e-01
  1.89959543560000e-01
  7.45801356690000e-02
  2.92216413090000e-02
  3.81000000000000e+00
  6.50000000000000e-01
  2.00000000000000e-01
  5.20000000000000e-02
  1.60000000000000e-01
  6.05967787530000e+05
  9.05690946920000e+04
  2.05742528440000e+04
  5.81862848650000e+03
  1.89562960750000e+03
  6.83459410210000e+02
  2.66182197620000e+02
  1.10112200100000e+02
  4.77770412340000e+01
  2.15421661490000e+01
  1.74121363780000e+02
  5.34849724980000e+01
  2.05002133070000e+01
  9.80568269220000e+00
  3.54029893480000e+00
  1.54508500460000e+00
  6.65401954320000e-01
  1.43554390710000e-01
  6.66246734680000e-02
  2.97726482660000e-02
  8.93204608290000e+02
  2.11782582860000e+02
  6.84432005370000e+01
  2.57272653490000e+01
  1.06066342810000e+01
  4.59341264840000e+00
  2.01004698070000e+00
  8.73848415360000e-01
  3.56150766660000e-01
  1.89959543560000e-01
  7.45801356690000e-02
  2.92216413090000e-02
  3.81000000000000e+00
  6.50000000000000e-01
  2.00000000000000e-01
  5.20000000000000e-02
  1.60000000000000e-01
  6.05967787530000e+05
  9.05690946920000e+04
  2.05742528440000e+04
  5.81862848650000e+03
  1.89562960750000e+03
  6.83459410210000e+02
  2.66182197620000e+02
  1.10112200100000e+02
  4.77770412340000e+01
  2.15421661490000e+01
  1.74121363780000e+02
  5.34849724980000e+01
  2.05002133070000e+01
  9.80568269220000e+00
  3.54029893480000e+00
  1.54508500460000e+00
  6.65401954320000e-01
  1.43554390710000e-01
  6.66246734680000e-02
  2.97726482660000e-02
  8.93204608290000e+02
  2.11782582860000e+02
  6.84432005370000e+01
  2.57272653490000e+01
  1.06066342810000e+01
  4.59341264840000e+00
  2.01004698070000e+00
  8.73848415360000e-01
  3.56150766660000e-01
  1.89959543560000e-01
  7.45801356690000e-02
  2.92216413090000e-02
  3.81000000000000e+00
  6.50000000000000e-01
  2.00000000000000e-01
  5.20000000000000e-02
  1.60000000000000e-01
  6.05967787530000e+05
  9.05690946920000e+04
  2.05742528440000e+04
  5.81862848650000e+03
  1.89562960750000e+03
  6.83459410210000e+02
  2.66182197620000e+02
  1.10112200100000e+02
  4.77770412340000e+01
  2.15421661490000e+01
  1.74121363780000e+02
  5.34849724980000e+01
  2.05002133070000e+01
  9.80568269220000e+00
  3.54029893480000e+00
  1.54508500460000e+00
  6.65401954320000e-01
  1.43554390710000e-01
  6.66246734680000e-02
  2.97726482660000e-02
  8.93204608290000e+02
  2.11782582860000e+02
  6.84432005370000e+01
  2.57272653490000e+01
  1.06066342810000e+01
  4.59341264840000e+00
  2.01004698070000e+00
  8.73848415360000e-01
  3.56150766660000e-01
  1.89959543560000e-01
  7.45801356690000e-02
  2.92216413090000e-02
  3.81000000000000e+00
  6.50000000000000e-01
  2.00000000000000e-01
  5.20000000000000e-02
  1.60000000000000e-01
  6.05967787530000e+05
  9.05690946920000e+04
  2.05742528440000e+04
  5.81862848650000e+03
  1.89562960750000e+03
  6.83459410210000e+02
  2.66182197620000e+02
  1.10112200100000e+02
  4.77770412340000e+01
  2.15421661490000e+01
  1.74121363780000e+02
  5.34849724980000e+01
  2.05002133070000e+01
  9.80568269220000e+00
  3.54029893480000e+00
  1.54508500460000e+00
  6.65401954320000e-01
  1.43554390710000e-01
  6.66246734680000e-02
  2.97726482660000e-02
  8.93204608290000e+02
  2.11782582860000e+02
  6.84432005370000e+01
  2.57272653490000e+01
  1.06066342810000e+01
  4.59341264840000e+00
  2.01004698070000e+00
  8.73848415360000e-01
  3.56150766660000e-01
  1.89959543560000e-01
  7.45801356690000e-02
  2.92216413090000e-02
  3.81000000000000e+00
  6.50000000000000e-01
  2.00000000000000e-01
  5.20000000000000e-02
  1.60000000000000e-01
  6.05967787530000e+05
  9.05690946920000e+04
  2.05742528440000e+04
  5.81862848650000e+03
  1.89562960750000e+03
  6.83459410210000e+02
  2.66182197620000e+02
  1.10112200100000e+02
  4.77770412340000e+01
  2.15421661490000e+01
  1.74121363780000e+02
  5.34849724980000e+01
  2.05002133070000e+01
  9.80568269220000e+00
  3.54029893480000e+00
  1.54508500460000e+00
  6.65401954320000e-01
  1.43554390710000e-01
  6.66246734680000e-02
  2.97726482660000e-02
  8.93204608290000e+02
  2.11782582860000e+02
  6.84432005370000e+01
  2.57272653490000e+01
  1.06066342810000e+01
  4.59341264840000e+00
  2.01004698070000e+00
  8.73848415360000e-01
  3.56150766660000e-01
  1.89959543560000e-01
  7.45801356690000e-02
  2.92216413090000e-02
  3.81000000000000e+00
  6.50000000000000e-01
  2.00000000000000e-01
  5.20000000000000e-02
  1.60000000000000e-01
  6.05967787530000e+05
  9.05690946920000e+04
  2.05742528440000e+04
  5.81862848650000e+03
  1.89562960750000e+03
  6.83459410210000e+02
  2.66182197620000e+02
  1.10112200100000e+02
  4.77770412340000e+01
  2.15421661490000e+01
  1.74121363780000e+02
  5.34849724980000e+01
  2.05002133070000e+01
  9.80568269220000e+00
  3.54029893480000e+00
  1.54508500460000e+00
  6.65401954320000e-01
  1.43554390710000e-01
  6.66246734680000e-02
  2.97726482660000e-02
  8.93204608290000e+02
  2.11782582860000e+02
  6.84432005370000e+01
  2.57272653490000e+01
  1.06066342810000e+01
  4.59341264840000e+00
  2.01004698070000e+00
  8.73848415360000e-01
  3.56150766660000e-01
  1.89959543560000e-01
  7.45801356690000e-02
  2.92216413090000e-02
  3.81000000000000e+00
  6.50000000000000e-01
  2.00000000000000e-01
  5.20000000000000e-02
  1.60000000000000e-01
  6.05967787530000e+05
  9.05690946920000e+04
  2.05742528440000e+04
  5.81862848650000e+03
  1.89562960750000e+03
  6.83459410210000e+02
  2.66182197620000e+02
  1.10112200100000e+02
  4.77770412340000e+01
  2.15421661490000e+01
  1.74121363780000e+02
  5.34849724980000e+01
  2.05002133070000e+01
  9.80568269220000e+00
  3.54029893480000e+00
  1.54508500460000e+00
  6.65401954320000e-01
  1.43554390710000e-01
  6.66246734680000e-02
  2.97726482660000e-02
  8.93204608290000e+02
  2.11782582860000e+02
  6.84432005370000e+01
  2.57272653490000e+01
  1.06066342810000e+01
  4.59341264840000e+00
  2.01004698070000e+00
  8.73848415360000e-01
  3.56150766660000e-01
  1.89959543560000e-01
  7.45801356690000e-02
  2.92216413090000e-02
  3.81000000000000e+00
  6.50000000000000e-01
  2.00000000000000e-01
  5.20000000000000e-02
  1.60000000000000e-01
  6.05967787530000e+05
  9.05690946920000e+04
  2.05742528440000e+04
  5.81862848650000e+03
  1.89562960750000e+03
  6.83459410210000e+02
  2.66182197620000e+02
  1.10112200100000e+02
  4.77770412340000e+01
  2.15421661490000e+01
  1.74121363780000e+02
  5.34849724980000e+01
  2.05002133070000e+01
  9.80568269220000e+00
  3.54029893480000e+00
  1.54508500460000e+00
  6.65401954320000e-01
  1.43554390710000e-01
  6.66246734680000e-02
  2.97726482660000e-02
  8.93204608290000e+02
  2.11782582860000e+02
  6.84432005370000e+01
  2.57272653490000e+01
  1.06066342810000e+01
  4.59341264840000e+00
  2.01004698070000e+00
  8.73848415360000e-01
  3.56150766660000e-01
  1.89959543560000e-01
  7.45801356690000e-02
  2.92216413090000e-02
  3.81000000000000e+00
  6.50000000000000e-01
  2.00000000000000e-01
  5.20000000000000e-02
  1.60000000000000e-01
  6.05967787530000e+05
  9.05690946920000e+04
  2.05742528440000e+04
  5.81862848650000e+03
  1.89562960750000e+03
  6.83459410210000e+02
  2.66182197620000e+02
  1.10112200100000e+02
  4.77770412340000e+01
  2.15421661490000e+01
  1.74121363780000e+02
  5.34849724980000e+01
  2.05002133070000e+01
  9.80568269220000e+00
  3.54029893480000e+00
  1.54508500460000e+00
  6.65401954320000e-01
  1.43554390710000e-01
  6.66246734680000e-02
  2.97726482660000e-02
  8.93204608290000e+02
  2.11782582860000e+02
  6.84432005370000e+01
  2.57272653490000e+01
  1.06066342810000e+01
  4.59341264840000e+00
  2.01004698070000e+00
  8.73848415360000e-01
  3.56150766660000e-01
  1.89959543560000e-01
  7.45801356690000e-02
  2.92216413090000e-02
  3.81000000000000e+00
  6.50000000000000e-01
  2.00000000000000e-01
  5.20000000000000e-02
  1.60000000000000e-01
  6.05967787530000e+05
  9.05690946920000e+04
  2.05742528440000e+04
  5.81862848650000e+03
  1.89562960750000e+03
  6.83459410210000e+02
  2.66182197620000e+02
  1.10112200100000e+02
  4.77770412340000e+01
  2.15421661490000e+01
  1.74121363780000e+02
  5.34849724980000e+01
  2.05002133070000e+01
  9.80568269220000e+00
  3.54029893480000e+00
  1.54508500460000e+00
  6.65401954320000e-01
  1.43554390710000e-01
  6.66246734680000e-02
  2.97726482660000e-02
  8.93204608290000e+02
  2.11782582860000e+02
  6.84432005370000e+01
  2.57272653490000e+01
  1.06066342810000e+01
  4.59341264840000e+00
  2.01004698070000e+00
  8.73848415360000e-01
  3.56150766660000e-01
  1.89959543560000e-01
  7.45801356690000e-02
  2.92216413090000e-02
  3.81000000000000e+00
  6.50000000000000e-01
  2.00000000000000e-01
  5.20000000000000e-02
  1.60000000000000e-01
  6.05967787530000e+05
  9.05690946920000e+04
  2.05742528440000e+04
  5.81862848650000e+03
  1.89562960750000e+03
  6.83459410210000e+02
  2.66182197620000e+02
  1.10112200100000e+02
  4.77770412340000e+01
  2.15421661490000e+01
  1.74121363780000e+02
  5.34849724980000e+01
  2.05002133070000e+01
  9.80568269220000e+00
  3.54029893480000e+00
  1.54508500460000e+00
  6.65401954320000e-01
  1.43554390710000e-01
  6.66246734680000e-02
  2.97726482660000e-02
  8.93204608290000e+02
  2.11782582860000e+02
  6.84432005370000e+01
  2.57272653490000e+01
  1.06066342810000e+01
  4.59341264840000e+00
  2.01004698070000e+00
  8.73848415360000e-01
  3.56150766660000e-01
  1.89959543560000e-01
  7.45801356690000e-02
  2.92216413090000e-02
  3.81000000000000e+00
  6.50000000000000e-01
  2.00000000000000e-01
  5.20000000000000e-02
  1.60000000000000e-01
  6.05967787530000e+05
  9.05690946920000e+04
  2.05742528440000e+04
  5.81862848650000e+03
  1.89562960750000e+03
  6.83459410210000e+02
  2.66182197620000e+02
  1.10112200100000e+02
  4.77770412340000e+01
  2.15421661490000e+01
  1.74121363780000e+02
  5.34849724980000e+01
  2.05002133070000e+01
  9.80568269220000e+00
  3.54029893480000e+00
  1.54508500460000e+00
  6.65401954320000e-01
  1.43554390710000e-01
  6.66246734680000e-02
  2.97726482660000e-02
  8.93204608290000e+02
  2.11782582860000e+02
  6.84432005370000e+01
  2.57272653490000e+01
  1.06066342810000e+01
  4.59341264840000e+00
  2.01004698070000e+00
  8.73848415360000e-01
  3.56150766660000e-01
  1.89959543560000e-01
  7.45801356690000e-02
  2.92216413090000e-02
  3.81000000000000e+00
  6.50000000000000e-01
  2.00000000000000e-01
  5.20000000000000e-02
  1.60000000000000e-01
  6.05967787530000e+05
  9.05690946920000e+04
  2.05742528440000e+04
  5.81862848650000e+03
  1.89562960750000e+03
  6.83459410210000e+02
  2.66182197620000e+02
  1.10112200100000e+02
  4.77770412340000e+01
  2.15421661490000e+01
  1.74121363780000e+02
  5.34849724980000e+01
  2.05002133070000e+01
  9.80568269220000e+00
  3.54029893480000e+00
  1.54508500460000e+00
  6.65401954320000e-01
  1.43554390710000e-01
  6.66246734680000e-02
  2.97726482660000e-02
  8.93204608290000e+02
  2.11782582860000e+02
  6.84432005370000e+01
  2.57272653490000e+01
  1.06066342810000e+01
  4.59341264840000e+00
  2.01004698070000e+00
  8.73848415360000e-01
  3.56150766660000e-01
  1.89959543560000e-01
  7.45801356690000e-02
  2.92216413090000e-02
  3.81000000000000e+00
  6.50000000000000e-01
  2.00000000000000e-01
  5.20000000000000e-02
  1.60000000000000e-01
  6.05967787530000e+05
  9.05690946920000e+04
  2.05742528440000e+04
  5.81862848650000e+03
  1.89562960750000e+03
  6.83459410210000e+02
  2.66182197620000e+02
  1.10112200100000e+02
  4.77770412340000e+01
  2.15421661490000e+01
  1.74121363780000e+02
  5.34849724980000e+01
  2.05002133070000e+01
  9.80568269220000e+00
  3.54029893480000e+00
  1.54508500460000e+00
  6.65401954320000e-01
  1.43554390710000e-01
  6.66246734680000e-02
  2.97726482660000e-02
  8.93204608290000e+02
  2.11782582860000e+02
  6.84432005370000e+01
  2.57272653490000e+01
  1.06066342810000e+01
  4.59341264840000e+00
  2.01004698070000e+00
  8.73848415360000e-01
  3.56150766660000e-01
  1.89959543560000e-01
  7.45801356690000e-02
  2.92216413090000e-02
  3.81000000000000e+00
  6.50000000000000e-01
  2.00000000000000e-01
  5.20000000000000e-02
  1.60000000000000e-01
  6.05967787530000e+05
  9.05690946920000e+04
  2.05742528440000e+04
  5.81862848650000e+03
  1.89562960750000e+03
  6.83459410210000e+02
  2.66182197620000e+02
  1.10112200100000e+02
  4.77770412340000e+01
  2.15421661490000e+01
  1.74121363780000e+02
  5.34849724980000e+01
  2.05002133070000e+01
  9.80568269220000e+00
  3.54029893480000e+00
  1.54508500460000e+00
  6.65401954320000e-01
  1.43554390710000e-01
  6.66246734680000e-02
  2.97726482660000e-02
  8.93204608290000e+02
  2.11782582860000e+02
  6.84432005370000e+01
  2.57272653490000e+01
  1.06066342810000e+01
  4.59341264840000e+00
  2.01004698070000e+00
  8.73848415360000e-01
  3.56150766660000e-01
  1.89959543560000e-01
  7.45801356690000e-02
  2.92216413090000e-02
  3.81000000000000e+00
  6.50000000000000e-01
  2.00000000000000e-01
  5.20000000000000e-02
  1.60000000000000e-01
  6.05967787530000e+05
  9.05690946920000e+04
  2.05742528440000e+04
  5.81862848650000e+03
  1.89562960750000e+03
  6.83459410210000e+02
  2.66182197620000e+02
  1.10112200100000e+02
  4.77770412340000e+01
  2.15421661490000e+01
  1.74121363780000e+02
  5.34849724980000e+01
  2.05002133070000e+01
  9.80568269220000e+00
  3.54029893480000e+00
  1.54508500460000e+00
  6.65401954320000e-01
  1.43554390710000e-01
  6.66246734680000e-02
  2.97726482660000e-02
  8.93204608290000e+02
  2.11782582860000e+02
  6.84432005370000e+01
  2.57272653490000e+01
  1.06066342810000e+01
  4.59341264840000e+00
  2.01004698070000e+00
  8.73848415360000e-01
  3.56150766660000e-01
  1.89959543560000e-01
  7.45801356690000e-02
  2.92216413090000e-02
  3.81000000000000e+00
  6.50000000000000e-01
  2.00000000000000e-01
  5.20000000000000e-02
  1.60000000000000e-01
  6.05967787530000e+05
  9.05690946920000e+04
  2.05742528440000e+04
  5.81862848650000e+03
  1.89562960750000e+03
  6.83459410210000e+02
  2.66182197620000e+02
  1.10112200100000e+02
  4.77770412340000e+01
  2.15421661490000e+01
  1.74121363780000e+02
  5.34849724980000e+01
  2.05002133070000e+01
  9.80568269220000e+00
  3.54029893480000e+00
  1.54508500460000e+00
  6.65401954320000e-01
  1.43554390710000e-01
  6.66246734680000e-02
  2.97726482660000e-02
  8.93204608290000e+02
  2.11782582860000e+02
  6.84432005370000e+01
  2.57272653490000e+01
  1.06066342810000e+01
  4.59341264840000e+00
  2.01004698070000e+00
  8.73848415360000e-01
  3.56150766660000e-01
  1.89959543560000e-01
  7.45801356690000e-02
  2.92216413090000e-02
  3.81000000000000e+00
  6.50000000000000e-01
  2.00000000000000e-01
  5.20000000000000e-02
  1.60000000000000e-01
  6.05967787530000e+05
  9.05690946920000e+04
  2.05742528440000e+04
  5.81862848650000e+03
  1.89562960750000e+03
  6.83459410210000e+02
  2.66182197620000e+02
  1.10112200100000e+02
  4.77770412340000e+01
  2.15421661490000e+01
  1.74121363780000e+02
  5.34849724980000e+01
  2.05002133070000e+01
  9.80568269220000e+00
  3.54029893480000e+00
  1.54508500460000e+00
  6.65401954320000e-01
  1.43554390710000e-01
  6.66246734680000e-02
  2.97726482660000e-02
  8.93204608290000e+02
  2.11782582860000e+02
  6.84432005370000e+01
  2.57272653490000e+01
  1.06066342810000e+01
  4.59341264840000e+00
  2.01004698070000e+00
  8.73848415360000e-01
  3.56150766660000e-01
  1.89959543560000e-01
  7.45801356690000e-02
  2.92216413090000e-02
  3.81000000000000e+00
  6.50000000000000e-01
  2.00000000000000e-01
  5.20000000000000e-02
  1.60000000000000e-01
  6.05967787530000e+05
  9.05690946920000e+04
  2.05742528440000e+04
  5.81862848650000e+03
  1.89562960750000e+03
  6.83459410210000e+02
  2.66182197620000e+02
  1.10112200100000e+02
  4.77770412340000e+01
  2.15421661490000e+01
  1.74121363780000e+02
  5.34849724980000e+01
  2.05002133070000e+01
  9.80568269220000e+00
  3.54029893480000e+00
  1.54508500460000e+00
  6.65401954320000e-01
  1.43554390710000e-01
  6.66246734680000e-02
  2.97726482660000e-02
  8.93204608290000e+02
  2.11782582860000e+02
  6.84432005370000e+01
  2.57272653490000e+01
  1.06066342810000e+01
  4.59341264840000e+00
  2.01004698070000e+00
  8.73848415360000e-01
  3.56150766660000e-01
  1.89959543560000e-01
  7.45801356690000e-02
  2.92216413090000e-02
  3.81000000000000e+00
  6.50000000000000e-01
  2.00000000000000e-01
  5.20000000000000e-02
  1.60000000000000e-01
  1.16506469080000e+05
  1.75043497240000e+04
  3.99345132300000e+03
  1.13300631860000e+03
  3.69995695940000e+02
  1.33620743490000e+02
  5.20356436490000e+01
  2.14619393130000e+01
  8.98350512520000e+01
  2.64280108440000e+01
  9.28228246490000e+00
  4.09477285330000e+00
  1.32553490780000e+00
  5.18772307870000e-01
  1.97726764540000e-01
  1.91152558100000e+02
  4.52333567390000e+01
  1.43534659220000e+01
  5.24223718320000e+00
  2.07924185990000e+00
  8.42823714240000e-01
  3.36176948910000e-01
  1.28639979740000e-01
  3.77500000000000e+00
  1.30000000000000e+00
  4.44000000000000e-01
  2.66600000000000e+00
  8.59000000000000e-01
  1.84600000000000e+00
  1.16506469080000e+05
  1.75043497240000e+04
  3.99345132300000e+03
  1.13300631860000e+03
  3.69995695940000e+02
  1.33620743490000e+02
  5.20356436490000e+01
  2.14619393130000e+01
  8.98350512520000e+01
  2.64280108440000e+01
  9.28228246490000e+00
  4.09477285330000e+00
  1.32553490780000e+00
  5.18772307870000e-01
  1.97726764540000e-01
  1.91152558100000e+02
  4.52333567390000e+01
  1.43534659220000e+01
  5.24223718320000e+00
  2.07924185990000e+00
  8.42823714240000e-01
  3.36176948910000e-01
  1.28639979740000e-01
  3.77500000000000e+00
  1.30000000000000e+00
  4.44000000000000e-01
  2.66600000000000e+00
  8.59000000000000e-01
  1.84600000000000e+00
  1.16506469080000e+05
  1.75043497240000e+04
  3.99345132300000e+03
  1.13300631860000e+03
  3.69995695940000e+02
  1.33620743490000e+02
  5.20356436490000e+01
  2.14619393130000e+01
  8.98350512520000e+01
  2.64280108440000e+01
  9.28228246490000e+00
  4.09477285330000e+00
  1.32553490780000e+00
  5.18772307870000e-01
  1.97726764540000e-01
  1.91152558100000e+02
  4.52333567390000e+01
  1.43534659220000e+01
  5.24223718320000e+00
  2.07924185990000e+00
  8.42823714240000e-01
  3.36176948910000e-01
  1.28639979740000e-01
  3.77500000000000e+00
  1.30000000000000e+00
  4.44000000000000e-01
  2.66600000000000e+00
  8.59000000000000e-01
  1.84600000000000e+00
  1.16506469080000e+05
  1.75043497240000e+04
  3.99345132300000e+03
  1.13300631860000e+03
  3.69995695940000e+02
  1.33620743490000e+02
  5.20356436490000e+01
  2.14619393130000e+01
  8.98350512520000e+01
  2.64280108440000e+01
  9.28228246490000e+00
  4.09477285330000e+00
  1.32553490780000e+00
  5.18772307870000e-01
  1.97726764540000e-01
  1.91152558100000e+02
  4.52333567390000e+01
  1.43534659220000e+01
  5.24223718320000e+00
  2.07924185990000e+00
  8.42823714240000e-01
  3.36176948910000e-01
  1.28639979740000e-01
  3.77500000000000e+00
  1.30000000000000e+00
  4.44000000000000e-01
  2.66600000000000e+00
  8.59000000000000e-01
  1.84600000000000e+00
  1.16506469080000e+05
  1.75043497240000e+04
  3.99345132300000e+03
  1.13300631860000e+03
  3.69995695940000e+02
  1.33620743490000e+02
  5.20356436490000e+01
  2.14619393130000e+01
  8.98350512520000e+01
  2.64280108440000e+01
  9.28228246490000e+00
  4.09477285330000e+00
  1.32553490780000e+00
  5.18772307870000e-01
  1.97726764540000e-01
  1.91152558100000e+02
  4.52333567390000e+01
  1.43534659220000e+01
  5.24223718320000e+00
  2.07924185990000e+00
  8.42823714240000e-01
  3.36176948910000e-01
  1.28639979740000e-01
  3.77500000000000e+00
  1.30000000000000e+00
  4.44000000000000e-01
  2.66600000000000e+00
  8.59000000000000e-01
  1.84600000000000e+00
  1.16506469080000e+05
  1.75043497240000e+04
  3.99345132300000e+03
  1.13300631860000e+03
  3.69995695940000e+02
  1.33620743490000e+02
  5.20356436490000e+01
  2.14619393130000e+01
  8.98350512520000e+01
  2.64280108440000e+01
  9.28228246490000e+00
  4.09477285330000e+00
  1.32553490780000e+00
  5.18772307870000e-01
  1.97726764540000e-01
  1.91152558100000e+02
  4.52333567390000e+01
  1.43534659220000e+01
  5.24223718320000e+00
  2.07924185990000e+00
  8.42823714240000e-01
  3.36176948910000e-01
  1.28639979740000e-01
  3.77500000000000e+00
  1.30000000000000e+00
  4.44000000000000e-01
  2.66600000000000e+00
  8.59000000000000e-01
  1.84600000000000e+00
  1.16506469080000e+05
  1.75043497240000e+04
  3.99345132300000e+03
  1.13300631860000e+03
  3.69995695940000e+02
  1.33620743490000e+02
  5.20356436490000e+01
  2.14619393130000e+01
  8.98350512520000e+01
  2.64280108440000e+01
  9.28228246490000e+00
  4.09477285330000e+00
  1.32553490780000e+00
  5.18772307870000e-01
  1.97726764540000e-01
  1.91152558100000e+02
  4.52333567390000e+01
  1.43534659220000e+01
  5.24223718320000e+00
  2.07924185990000e+00
  8.42823714240000e-01
  3.36176948910000e-01
  1.28639979740000e-01
  3.77500000000000e+00
  1.30000000000000e+00
  4.44000000000000e-01
  2.66600000000000e+00
  8.59000000000000e-01
  1.84600000000000e+00
  1.16506469080000e+05
  1.75043497240000e+04
  3.99345132300000e+03
  1.13300631860000e+03
  3.69995695940000e+02
  1.33620743490000e+02
  5.20356436490000e+01
  2.14619393130000e+01
  8.98350512520000e+01
  2.64280108440000e+01
  9.28228246490000e+00
  4.09477285330000e+00
  1.32553490780000e+00
  5.18772307870000e-01
  1.97726764540000e-01
  1.91152558100000e+02
  4.52333567390000e+01
  1.43534659220000e+01
  5.24223718320000e+00
  2.07924185990000e+00
  8.42823714240000e-01
  3.36176948910000e-01
  1.28639979740000e-01
  3.77500000000000e+00
  1.30000000000000e+00
  4.44000000000000e-01
  2.66600000000000e+00
  8.59000000000000e-01
  1.84600000000000e+00
  1.16506469080000e+05
  1.75043497240000e+04
  3.99345132300000e+03
  1.13300631860000e+03
  3.69995695940000e+02
  1.33620743490000e+02
  5.20356436490000e+01
  2.14619393130000e+01
  8.98350512520000e+01
  2.64280108440000e+01
  9.28228246490000e+00
  4.09477285330000e+00
  1.32553490780000e+00
  5.18772307870000e-01
  1.97726764540000e-01
  1.91152558100000e+02
  4.52333567390000e+01
  1.43534659220000e+01
  5.24223718320000e+00
  2.07924185990000e+00
  8.42823714240000e-01
  3.36176948910000e-01
  1.28639979740000e-01
  3.77500000000000e+00
  1.30000000000000e+00
  4.44000000000000e-01
  2.66600000000000e+00
  8.59000000000000e-01
  1.84600000000000e+00
  1.16506469080000e+05
  1.75043497240000e+04
  3.99345132300000e+03
  1.13300631860000e+03
  3.69995695940000e+02
  1.33620743490000e+02
  5.20356436490000e+01
  2.14619393130000e+01
  8.98350512520000e+01
  2.64280108440000e+01
  9.28228246490000e+00
  4.09477285330000e+00
  1.32553490780000e+00
  5.18772307870000e-01
  1.97726764540000e-01
  1.91152558100000e+02
  4.52333567390000e+01
  1.43534659220000e+01
  5.24223718320000e+00
  2.07924185990000e+00
  8.42823714240000e-01
  3.36176948910000e-01
  1.28639979740000e-01
  3.77500000000000e+00
  1.30000000000000e+00
  4.44000000000000e-01
  2.66600000000000e+00
  8.59000000000000e-01
  1.84600000000000e+00
  1.16506469080000e+05
  1.75043497240000e+04
  3.99345132300000e+03
  1.13300631860000e+03
  3.69995695940000e+02
  1.33620743490000e+02
  5.20356436490000e+01
  2.14619393130000e+01
  8.98350512520000e+01
  2.64280108440000e+01
  9.28228246490000e+00
  4.09477285330000e+00
  1.32553490780000e+00
  5.18772307870000e-01
  1.97726764540000e-01
  1.91152558100000e+02
  4.52333567390000e+01
  1.43534659220000e+01
  5.24223718320000e+00
  2.07924185990000e+00
  8.42823714240000e-01
  3.36176948910000e-01
  1.28639979740000e-01
  3.77500000000000e+00
  1.30000000000000e+00
  4.44000000000000e-01
  2.66600000000000e+00
  8.59000000000000e-01
  1.84600000000000e+00
  1.16506469080000e+05
  1.75043497240000e+04
  3.99345132300000e+03
  1.13300631860000e+03
  3.69995695940000e+02
  1.33620743490000e+02
  5.20356436490000e+01
  2.14619393130000e+01
  8.98350512520000e+01
  2.64280108440000e+01
  9.28228246490000e+00
  4.09477285330000e+00
  1.32553490780000e+00
  5.18772307870000e-01
  1.97726764540000e-01
  1.91152558100000e+02
  4.52333567390000e+01
  1.43534659220000e+01
  5.24223718320000e+00
  2.07924185990000e+00
  8.42823714240000e-01
  3.36176948910000e-01
  1.28639979740000e-01
  3.77500000000000e+00
  1.30000000000000e+00
  4.44000000000000e-01
  2.66600000000000e+00
  8.59000000000000e-01
  1.84600000000000e+00
  1.16506469080000e+05
  1.75043497240000e+04
  3.99345132300000e+03
  1.13300631860000e+03
  3.69995695940000e+02
  1.33620743490000e+02
  5.20356436490000e+01
  2.14619393130000e+01
  8.98350512520000e+01
  2.64280108440000e+01
  9.28228246490000e+00
  4.09477285330000e+00
  1.32553490780000e+00
  5.18772307870000e-01
  1.97726764540000e-01
  1.91152558100000e+02
  4.52333567390000e+01
  1.43534659220000e+01
  5.24223718320000e+00
  2.07924185990000e+00
  8.42823714240000e-01
  3.36176948910000e-01
  1.28639979740000e-01
  3.77500000000000e+00
  1.30000000000000e+00
  4.44000000000000e-01
  2.66600000000000e+00
  8.59000000000000e-01
  1.84600000000000e+00
  1.16506469080000e+05
  1.75043497240000e+04
  3.99345132300000e+03
  1.13300631860000e+03
  3.69995695940000e+02
  1.33620743490000e+02
  5.20356436490000e+01
  2.14619393130000e+01
  8.98350512520000e+01
  2.64280108440000e+01
  9.28228246490000e+00
  4.09477285330000e+00
  1.32553490780000e+00
  5.18772307870000e-01
  1.97726764540000e-01
  1.91152558100000e+02
  4.52333567390000e+01
  1.43534659220000e+01
  5.24223718320000e+00
  2.07924185990000e+00
  8.42823714240000e-01
  3.36176948910000e-01
  1.28639979740000e-01
  3.77500000000000e+00
  1.30000000000000e+00
  4.44000000000000e-01
  2.66600000000000e+00
  8.59000000000000e-01
  1.84600000000000e+00
  1.16506469080000e+05
  1.75043497240000e+04
  3.99345132300000e+03
  1.13300631860000e+03
  3.69995695940000e+02
  1.33620743490000e+02
  5.20356436490000e+01
  2.14619393130000e+01
  8.98350512520000e+01
  2.64280108440000e+01
  9.28228246490000e+00
  4.09477285330000e+00
  1.32553490780000e+00
  5.18772307870000e-01
  1.97726764540000e-01
  1.91152558100000e+02
  4.52333567390000e+01
  1.43534659220000e+01
  5.24223718320000e+00
  2.07924185990000e+00
  8.42823714240000e-01
  3.36176948910000e-01
  1.28639979740000e-01
  3.77500000000000e+00
  1.30000000000000e+00
  4.44000000000000e-01
  2.66600000000000e+00
  8.59000000000000e-01
  1.84600000000000e+00
  1.16506469080000e+05
  1.75043497240000e+04
  3.99345132300000e+03
  1.13300631860000e+03
  3.69995695940000e+02
  1.33620743490000e+02
  5.20356436490000e+01
  2.14619393130000e+01
  8.98350512520000e+01
  2.64280108440000e+01
  9.28228246490000e+00
  4.09477285330000e+00
  1.32553490780000e+00
  5.18772307870000e-01
  1.97726764540000e-01
  1.91152558100000e+02
  4.52333567390000e+01
  1.43534659220000e+01
  5.24223718320000e+00
  2.07924185990000e+00
  8.42823714240000e-01
  3.36176948910000e-01
  1.28639979740000e-01
  3.77500000000000e+00
  1.30000000000000e+00
  4.44000000000000e-01
  2.66600000000000e+00
  8.59000000000000e-01
  1.84600000000000e+00
  1.16506469080000e+05
  1.75043497240000e+04
  3.99345132300000e+03
  1.13300631860000e+03
  3.69995695940000e+02
  1.33620743490000e+02
  5.20356436490000e+01
  2.14619393130000e+01
  8.98350512520000e+01
  2.64280108440000e+01
  9.28228246490000e+00
  4.09477285330000e+00
  1.32553490780000e+00
  5.18772307870000e-01
  1.97726764540000e-01
  1.91152558100000e+02
  4.52333567390000e+01
  1.43534659220000e+01
  5.24223718320000e+00
  2.07924185990000e+00
  8.42823714240000e-01
  3.36176948910000e-01
  1.28639979740000e-01
  3.77500000000000e+00
  1.30000000000000e+00
  4.44000000000000e-01
  2.66600000000000e+00
  8.59000000000000e-01
  1.84600000000000e+00
  1.16506469080000e+05
  1.75043497240000e+04
  3.99345132300000e+03
  1.13300631860000e+03
  3.69995695940000e+02
  1.33620743490000e+02
  5.20356436490000e+01
  2.14619393130000e+01
  8.98350512520000e+01
  2.64280108440000e+01
  9.28228246490000e+00
  4.09477285330000e+00
  1.32553490780000e+00
  5.18772307870000e-01
  1.97726764540000e-01
  1.91152558100000e+02
  4.52333567390000e+01
  1.43534659220000e+01
  5.24223718320000e+00
  2.07924185990000e+00
  8.42823714240000e-01
  3.36176948910000e-01
  1.28639979740000e-01
  3.77500000000000e+00
  1.30000000000000e+00
  4.44000000000000e-01
  2.66600000000000e+00
  8.59000000000000e-01
  1.84600000000000e+00
  1.16506469080000e+05
  1.75043497240000e+04
  3.99345132300000e+03
  1.13300631860000e+03
  3.69995695940000e+02
  1.33620743490000e+02
  5.20356436490000e+01
  2.14619393130000e+01
  8.98350512520000e+01
  2.64280108440000e+01
  9.28228246490000e+00
  4.09477285330000e+00
  1.32553490780000e+00
  5.18772307870000e-01
  1.97726764540000e-01
  1.91152558100000e+02
  4.52333567390000e+01
  1.43534659220000e+01
  5.24223718320000e+00
  2.07924185990000e+00
  8.42823714240000e-01
  3.36176948910000e-01
  1.28639979740000e-01
  3.77500000000000e+00
  1.30000000000000e+00
  4.44000000000000e-01
  2.66600000000000e+00
  8.59000000000000e-01
  1.84600000000000e+00
  1.16506469080000e+05
  1.75043497240000e+04
  3.99345132300000e+03
  1.13300631860000e+03
  3.69995695940000e+02
  1.33620743490000e+02
  5.20356436490000e+01
  2.14619393130000e+01
  8.98350512520000e+01
  2.64280108440000e+01
  9.28228246490000e+00
  4.09477285330000e+00
  1.32553490780000e+00
  5.18772307870000e-01
  1.97726764540000e-01
  1.91152558100000e+02
  4.52333567390000e+01
  1.43534659220000e+01
  5.24223718320000e+00
  2.07924185990000e+00
  8.42823714240000e-01
  3.36176948910000e-01
  1.28639979740000e-01
  3.77500000000000e+00
  1.30000000000000e+00
  4.44000000000000e-01
  2.66600000000000e+00
  8.59000000000000e-01
  1.84600000000000e+00
  1.16506469080000e+05
  1.75043497240000e+04
  3.99345132300000e+03
  1.13300631860000e+03
  3.69995695940000e+02
  1.33620743490000e+02
  5.20356436490000e+01
  2.14619393130000e+01
  8.98350512520000e+01
  2.64280108440000e+01
  9.28228246490000e+00
  4.09477285330000e+00
  1.32553490780000e+00
  5.18772307870000e-01
  1.97726764540000e-01
  1.91152558100000e+02
  4.52333567390000e+01
  1.43534659220000e+01
  5.24223718320000e+00
  2.07924185990000e+00
  8.42823714240000e-01
  3.36176948910000e-01
  1.28639979740000e-01
  3.77500000000000e+00
  1.30000000000000e+00
  4.44000000000000e-01
  2.66600000000000e+00
  8.59000000000000e-01
  1.84600000000000e+00
  1.16506469080000e+05
  1.75043497240000e+04
  3.99345132300000e+03
  1.13300631860000e+03
  3.69995695940000e+02
  1.33620743490000e+02
  5.20356436490000e+01
  2.14619393130000e+01
  8.98350512520000e+01
  2.64280108440000e+01
  9.28228246490000e+00
  4.09477285330000e+00
  1.32553490780000e+00
  5.18772307870000e-01
  1.97726764540000e-01
  1.91152558100000e+02
  4.52333567390000e+01
  1.43534659220000e+01
  5.24223718320000e+00
  2.07924185990000e+00
  8.42823714240000e-01
  3.36176948910000e-01
  1.28639979740000e-01
  3.77500000000000e+00
  1.30000000000000e+00
  4.44000000000000e-01
  2.66600000000000e+00
  8.59000000000000e-01
  1.84600000000000e+00
  1.16506469080000e+05
  1.75043497240000e+04
  3.99345132300000e+03
  1.13300631860000e+03
  3.69995695940000e+02
  1.33620743490000e+02
  5.20356436490000e+01
  2.14619393130000e+01
  8.98350512520000e+01
  2.64280108440000e+01
  9.28228246490000e+00
  4.09477285330000e+00
  1.32553490780000e+00
  5.18772307870000e-01
  1.97726764540000e-01
  1.91152558100000e+02
  4.52333567390000e+01
  1.43534659220000e+01
  5.24223718320000e+00
  2.07924185990000e+00
  8.42823714240000e-01
  3.36176948910000e-01
  1.28639979740000e-01
  3.77500000000000e+00
  1.30000000000000e+00
  4.44000000000000e-01
  2.66600000000000e+00
  8.59000000000000e-01
  1.84600000000000e+00
  1.16506469080000e+05
  1.75043497240000e+04
  3.99345132300000e+03
  1.13300631860000e+03
  3.69995695940000e+02
  1.33620743490000e+02
  5.20356436490000e+01
  2.14619393130000e+01
  8.98350512520000e+01
  2.64280108440000e+01
  9.28228246490000e+00
  4.09477285330000e+00
  1.32553490780000e+00
  5.18772307870000e-01
  1.97726764540000e-01
  1.91152558100000e+02
  4.52333567390000e+01
  1.43534659220000e+01
  5.24223718320000e+00
  2.07924185990000e+00
  8.42823714240000e-01
  3.36176948910000e-01
  1.28639979740000e-01
  3.77500000000000e+00
  1.30000000000000e+00
  4.44000000000000e-01
  2.66600000000000e+00
  8.59000000000000e-01
  1.84600000000000e+00
  1.16506469080000e+05
  1.75043497240000e+04
  3.99345132300000e+03
  1.13300631860000e+03
  3.69995695940000e+02
  1.33620743490000e+02
  5.20356436490000e+01
  2.14619393130000e+01
  8.98350512520000e+01
  2.64280108440000e+01
  9.28228246490000e+00
  4.09477285330000e+00
  1.32553490780000e+00
  5.18772307870000e-01
  1.97726764540000e-01
  1.91152558100000e+02
  4.52333567390000e+01
  1.43534659220000e+01
  5.24223718320000e+00
  2.07924185990000e+00
  8.42823714240000e-01
  3.36176948910000e-01
  1.28639979740000e-01
  3.77500000000000e+00
  1.30000000000000e+00
  4.44000000000000e-01
  2.66600000000000e+00
  8.59000000000000e-01
  1.84600000000000e+00
  1.16506469080000e+05
  1.75043497240000e+04
  3.99345132300000e+03
  1.13300631860000e+03
  3.69995695940000e+02
  1.33620743490000e+02
  5.20356436490000e+01
  2.14619393130000e+01
  8.98350512520000e+01
  2.64280108440000e+01
  9.28228246490000e+00
  4.09477285330000e+00
  1.32553490780000e+00
  5.18772307870000e-01
  1.97726764540000e-01
  1.91152558100000e+02
  4.52333567390000e+01
  1.43534659220000e+01
  5.24223718320000e+00
  2.07924185990000e+00
  8.42823714240000e-01
  3.36176948910000e-01
  1.28639979740000e-01
  3.77500000000000e+00
  1.30000000000000e+00
  4.44000000000000e-01
  2.66600000000000e+00
  8.59000000000000e-01
  1.84600000000000e+00
  1.16506469080000e+05
  1.75043497240000e+04
  3.99345132300000e+03
  1.13300631860000e+03
  3.69995695940000e+02
  1.33620743490000e+02
  5.20356436490000e+01
  2.14619393130000e+01
  8.98350512520000e+01
  2.64280108440000e+01
  9.28228246490000e+00
  4.09477285330000e+00
  1.32553490780000e+00
  5.18772307870000e-01
  1.97726764540000e-01
  1.91152558100000e+02
  4.52333567390000e+01
  1.43534659220000e+01
  5.24223718320000e+00
  2.07924185990000e+00
  8.42823714240000e-01
  3.36176948910000e-01
  1.28639979740000e-01
  3.77500000000000e+00
  1.30000000000000e+00
  4.44000000000000e-01
  2.66600000000000e+00
  8.59000000000000e-01
  1.84600000000000e+00
  1.16506469080000e+05
  1.75043497240000e+04
  3.99345132300000e+03
  1.13300631860000e+03
  3.69995695940000e+02
  1.33620743490000e+02
  5.20356436490000e+01
  2.14619393130000e+01
  8.98350512520000e+01
  2.64280108440000e+01
  9.28228246490000e+00
  4.09477285330000e+00
  1.32553490780000e+00
  5.18772307870000e-01
  1.97726764540000e-01
  1.91152558100000e+02
  4.52333567390000e+01
  1.43534659220000e+01
  5.24223718320000e+00
  2.07924185990000e+00
  8.42823714240000e-01
  3.36176948910000e-01
  1.28639979740000e-01
  3.77500000000000e+00
  1.30000000000000e+00
  4.44000000000000e-01
  2.66600000000000e+00
  8.59000000000000e-01
  1.84600000000000e+00
  1.16506469080000e+05
  1.75043497240000e+04
  3.99345132300000e+03
  1.13300631860000e+03
  3.69995695940000e+02
  1.33620743490000e+02
  5.20356436490000e+01
  2.14619393130000e+01
  8.98350512520000e+01
  2.64280108440000e+01
  9.28228246490000e+00
  4.09477285330000e+00
  1.32553490780000e+00
  5.18772307870000e-01
  1.97726764540000e-01
  1.91152558100000e+02
  4.52333567390000e+01
  1.43534659220000e+01
  5.24223718320000e+00
  2.07924185990000e+00
  8.42823714240000e-01
  3.36176948910000e-01
  1.28639979740000e-01
  3.77500000000000e+00
  1.30000000000000e+00
  4.44000000000000e-01
  2.66600000000000e+00
  8.59000000000000e-01
  1.84600000000000e+00
  1.16506469080000e+05
  1.75043497240000e+04
  3.99345132300000e+03
  1.13300631860000e+03
  3.69995695940000e+02
  1.33620743490000e+02
  5.20356436490000e+01
  2.14619393130000e+01
  8.98350512520000e+01
  2.64280108440000e+01
  9.28228246490000e+00
  4.09477285330000e+00
  1.32553490780000e+00
  5.18772307870000e-01
  1.97726764540000e-01
  1.91152558100000e+02
  4.52333567390000e+01
  1.43534659220000e+01
  5.24223718320000e+00
  2.07924185990000e+00
  8.42823714240000e-01
  3.36176948910000e-01
  1.28639979740000e-01
  3.77500000000000e+00
  1.30000000000000e+00
  4.44000000000000e-01
  2.66600000000000e+00
  8.59000000000000e-01
  1.84600000000000e+00
  1.16506469080000e+05
  1.75043497240000e+04
  3.99345132300000e+03
  1.13300631860000e+03
  3.69995695940000e+02
  1.33620743490000e+02
  5.20356436490000e+01
  2.14619393130000e+01
  8.98350512520000e+01
  2.64280108440000e+01
  9.28228246490000e+00
  4.09477285330000e+00
  1.32553490780000e+00
  5.18772307870000e-01
  1.97726764540000e-01
  1.91152558100000e+02
  4.52333567390000e+01
  1.43534659220000e+01
  5.24223718320000e+00
  2.07924185990000e+00
  8.42823714240000e-01
  3.36176948910000e-01
  1.28639979740000e-01
  3.77500000000000e+00
  1.30000000000000e+00
  4.44000000000000e-01
  2.66600000000000e+00
  8.59000000000000e-01
  1.84600000000000e+00
  1.16506469080000e+05
  1.75043497240000e+04
  3.99345132300000e+03
  1.13300631860000e+03
  3.69995695940000e+02
  1.33620743490000e+02
  5.20356436490000e+01
  2.14619393130000e+01
  8.98350512520000e+01
  2.64280108440000e+01
  9.28228246490000e+00
  4.09477285330000e+00
  1.32553490780000e+00
  5.18772307870000e-01
  1.97726764540000e-01
  1.91152558100000e+02
  4.52333567390000e+01
  1.43534659220000e+01
  5.24223718320000e+00
  2.07924185990000e+00
  8.42823714240000e-01
  3.36176948910000e-01
  1.28639979740000e-01
  3.77500000000000e+00
  1.30000000000000e+00
  4.44000000000000e-01
  2.66600000000000e+00
  8.59000000000000e-01
  1.84600000000000e+00
  1.16506469080000e+05
  1.75043497240000e+04
  3.99345132300000e+03
  1.13300631860000e+03
  3.69995695940000e+02
  1.33620743490000e+02
  5.20356436490000e+01
  2.14619393130000e+01
  8.98350512520000e+01
  2.64280108440000e+01
  9.28228246490000e+00
  4.09477285330000e+00
  1.32553490780000e+00
  5.18772307870000e-01
  1.97726764540000e-01
  1.91152558100000e+02
  4.52333567390000e+01
  1.43534659220000e+01
  5.24223718320000e+00
  2.07924185990000e+00
  8.42823714240000e-01
  3.36176948910000e-01
  1.28639979740000e-01
  3.77500000000000e+00
  1.30000000000000e+00
  4.44000000000000e-01
  2.66600000000000e+00
  8.59000000000000e-01
  1.84600000000000e+00

  2.10753625593756e-01
  3.94420453180463e-01
  6.81488673339914e-01
  1.10750264031282e+00
  1.69021574844253e+00
  2.37164649255442e+00
  2.87990493125616e+00
  2.75119584155661e+00
  1.27954700675913e+00
  5.11031941001511e+00
  2.46850014075040e+00
  1.32696091938732e+00
  5.43512827613698e-01
  2.71383902660290e-01
  1.33708740226501e-01
  1.19787942253799e+00
  1.54852090278742e+00
  1.66747448854949e+00
  1.54965178789794e+00
  1.15759388345848e+00
  5.40736498311229e-01
  1.78071444371519e-01
  5.68645084492531e-02
  4.82100851162461e+00
  7.72391837520708e-01
  1.23821322548459e-01
  3.23530209875761e+00
  2.88983709509175e-01
  1.14683543468607e+00
  2.57226323061032e-01
  4.82046798727303e-01
  8.35598690668546e-01
  1.36636575285047e+00
  2.12753351426577e+00
  3.13546646974985e+00
  4.27633913736539e+00
  5.09689862583897e+00
  4.79622107294527e+00
  2.87469778823108e+00
  9.87018482399258e-01
  3.40129311232691e+00
  5.29074637777286e+00
  3.94928493795792e+00
  1.83945870699884e+00
  9.87698457309665e-01
  5.25077182598192e-01
  1.66215856718395e-01
  9.34622888241072e-02
  5.10826233355890e-02
  2.51582602315196e+00
  3.54972184579634e+00
  4.50231968832641e+00
  4.91694775076965e+00
  4.40377855233830e+00
  2.89703480206181e+00
  1.31284892365757e+00
  3.43400803309903e-01
  3.92177291062833e-01
  1.78758410625548e-01
  5.55544751816923e-02
  1.72214947988116e-02
  1.71012621172510e+01
  7.74475761458575e-01
  9.84491449611383e-02
  9.31998702099698e-03
  2.38355079066967e-02
  2.57226323061032e-01
  4.82046798727303e-01
  8.35598690668546e-01
  1.36636575285047e+00
  2.12753351426577e+00
  3.13546646974985e+00
  4.27633913736539e+00
  5.09689862583897e+00
  4.79622107294527e+00
  2.87469778823108e+00
  9.87018482399258e-01
  3.40129311232691e+00
  5.29074637777286e+00
  3.94928493795792e+00
  1.83945870699884e+00
  9.87698457309665e-01
  5.25077182598192e-01
  1.66215856718395e-01
  9.34622888241072e-02
  5.10826233355890e-02
  2.51582602315196e+00
  3.54972184579634e+00
  4.50231968832641e+00
  4.91694775076965e+00
  4.40377855233830e+00
  2.89703480206181e+00
  1.31284892365757e+00
  3.43400803309903e-01
  3.92177291062833e-01
  1.78758410625548e-01
  5.55544751816923e-02
  1.72214947988116e-02
  1.71012621172510e+01
  7.74475761458575e-01
  9.84491449611383e-02
  9.31998702099698e-03
  2.38355079066967e-02
  2.57226323061032e-01
  4.82046798727303e-01
  8.35598690668546e-01
  1.36636575285047e+00
  2.12753351426577e+00
  3.13546646974985e+00
  4.27633913736539e+00
  5.09689862583897e+00
  4.79622107294527e+00
  2.87469778823108e+00
  9.87018482399258e-01
  3.40129311232691e+00
  5.29074637777286e+00
  3.94928493795792e+00
  1.83945870699884e+00
  9.87698457309665e-01
  5.25077182598192e-01
  1.66215856718395e-01
  9.34622888241072e-02
  5.10826233355890e-02
  2.51582602315196e+00
  3.54972184579634e+00
  4.50231968832641e+00
  4.91694775076965e+00
  4.40377855233830e+00
  2.89703480206181e+00
  1.31284892365757e+00
  3.43400803309903e-01
  3.92177291062833e-01
  1.78758410625548e-01
  5.55544751816923e-02
  1.72214947988116e-02
  1.71012621172510e+01
  7.74475761458575e-01
  9.84491449611383e-02
  9.31998702099698e-03
  2.38355079066967e-02
  2.57226323061032e-01
  4.82046798727303e-01
  8.35598690668546e-01
  1.36636575285047e+00
  2.12753351426577e+00
  3.13546646974985e+00
  4.27633913736539e+00
  5.09689862583897e+00
  4.79622107294527e+00
  2.87469778823108e+00
  9.87018482399258e-01
  3.40129311232691e+00
  5.29074637777286e+00
  3.94928493795792e+00
  1.83945870699884e+00
  9.87698457309665e-01
  5.25077182598192e-01
  1.66215856718395e-01
  9.34622888241072e-02
  5.10826233355890e-02
  2.51582602315196e+00
  3.54972184579634e+00
  4.50231968832641e+00
  4.91694775076965e+00
  4.40377855233830e+00
  2.89703480206181e+00
  1.31284892365757e+00
  3.43400803309903e-01
  3.92177291062833e-01
  1.78758410625548e-01
  5.55544751816923e-02
  1.72214947988116e-02
  1.71012621172510e+01
  7.74475761458575e-01
  9.84491449611383e-02
  9.31998702099698e-03
  2.38355079066967e-02
  2.57226323061032e-01
  4.82046798727303e-01
  8.35598690668546e-01
  1.36636575285047e+00
  2.12753351426577e+00
  3.13546646974985e+00
  4.27633913736539e+00
  5.09689862583897e+00
  4.79622107294527e+00
  2.87469778823108e+00
  9.87018482399258e-01
  3.40129311232691e+00
  5.29074637777286e+00
  3.94928493795792e+00
  1.83945870699884e+00
  9.87698457309665e-01
  5.25077182598192e-01
  1.66215856718395e-01
  9.34622888241072e-02
  5.10826233355890e-02
  2.51582602315196e+00
  3.54972184579634e+00
  4.50231968832641e+00
  4.91694775076965e+00
  4.40377855233830e+00
  2.89703480206181e+00
  1.31284892365757e+00
  3.43400803309903e-01
  3.92177291062833e-01
  1.78758410625548e-01
  5.55544751816923e-02
  1.72214947988116e-02
  1.71012621172510e+01
  7.74475761458575e-01
  9.84491449611383e-02
  9.31998702099698e-03
  2.38355079066967e-02
  2.57226323061032e-01
  4.82046798727303e-01
  8.35598690668546e-01
  1.36636575285047e+00
  2.12753351426577e+00
  3.13546646974985e+00
  4.27633913736539e+00
  5.09689862583897e+00
  4.79622107294527e+00
  2.87469778823108e+00
  9.87018482399258e-01
  3.40129311232691e+00
  5.29074637777286e+00
  3.94928493795792e+00
  1.83945870699884e+00
  9.87698457309665e-01
  5.25077182598192e-01
  1.66215856718395e-01
  9.34622888241072e-02
  5.10826233355890e-02
  2.51582602315196e+00
  3.54972184579634e+00
  4.50231968832641e+00
  4.91694775076965e+00
  4.40377855233830e+00
  2.89703480206181e+00
  1.31284892365757e+00
  3.43400803309903e-01
  3.92177291062833e-01
  1.78758410625548e-01
  5.55544751816923e-02
  1.72214947988116e-02
  1.71012621172510e+01
  7.74475761458575e-01
  9.84491449611383e-02
  9.31998702099698e-03
  2.38355079066967e-02
  2.57226323061032e-01
  4.82046798727303e-01
  8.35598690668546e-01
  1.36636575285047e+00
  2.12753351426577e+00
  3.13546646974985e+00
  4.27633913736539e+00
  5.09689862583897e+00
  4.79622107294527e+00
  2.87469778823108e+00
  9.87018482399258e-01
  3.40129311232691e+00
  5.29074637777286e+00
  3.94928493795792e+00
  1.83945870699884e+00
  9.87698457309665e-01
  5.25077182598192e-01
  1.66215856718395e-01
  9.34622888241072e-02
  5.10826233355890e-02
  2.51582602315196e+00
  3.54972184579634e+00
  4.50231968832641e+00
  4.91694775076965e+00
  4.40377855233830e+00
  2.89703480206181e+00
  1.31284892365757e+00
  3.43400803309903e-01
  3.92177291062833e-01
  1.78758410625548e-01
  5.55544751816923e-02
  1.72214947988116e-02
  1.71012621172510e+01
  7.74475761458575e-01
  9.84491449611383e-02
  9.31998702099698e-03
  2.38355079066967e-02
  2.57226323061032e-01
  4.82046798727303e-01
  8.35598690668546e-01
  1.36636575285047e+00
  2.12753351426577e+00
  3.13546646974985e+00
  4.27633913736539e+00
  5.09689862583897e+00
  4.79622107294527e+00
  2.87469778823108e+00
  9.87018482399258e-01
  3.40129311232691e+00
  5.29074637777286e+00
  3.94928493795792e+00
  1.83945870699884e+00
  9.87698457309665e-01
  5.25077182598192e-01
  1.66215856718395e-01
  9.34622888241072e-02
  5.10826233355890e-02
  2.51582602315196e+00
  3.54972184579634e+00
  4.50231968832641e+00
  4.91694775076965e+00
  4.40377855233830e+00
  2.89703480206181e+00
  1.31284892365757e+00
  3.43400803309903e-01
  3.92177291062833e-01
  1.78758410625548e-01
  5.55544751816923e-02
  1.72214947988116e-02
  1.71012621172510e+01
  7.74475761458575e-01
  9.84491449611383e-02
  9.31998702099698e-03
  2.38355079066967e-02
  2.57226323061032e-01
  4.82046798727303e-01
  8.35598690668546e-01
  1.36636575285047e+00
  2.12753351426577e+00
  3.13546646974985e+00
  4.27633913736539e+00
  5.09689862583897e+00
  4.79622107294527e+00
  2.87469778823108e+00
  9.87018482399258e-01
  3.40129311232691e+00
  5.29074637777286e+00
  3.94928493795792e+00
  1.83945870699884e+00
  9.87698457309665e-01
  5.25077182598192e-01
  1.66215856718395e-01
  9.34622888241072e-02
  5.10826233355890e-02
  2.51582602315196e+00
  3.54972184579634e+00
  4.50231968832641e+00
  4.91694775076965e+00
  4.40377855233830e+00
  2.89703480206181e+00
  1.31284892365757e+00
  3.43400803309903e-01
  3.92177291062833e-01
  1.78758410625548e-01
  5.55544751816923e-02
  1.72214947988116e-02
  1.71012621172510e+01
  7.74475761458575e-01
  9.84491449611383e-02
  9.31998702099698e-03
  2.38355079066967e-02
  2.57226323061032e-01
  4.82046798727303e-01
  8.35598690668546e-01
  1.36636575285047e+00
  2.12753351426577e+00
  3.13546646974985e+00
  4.27633913736539e+00
  5.09689862583897e+00
  4.79622107294527e+00
  2.87469778823108e+00
  9.87018482399258e-01
  3.40129311232691e+00
  5.29074637777286e+00
  3.94928493795792e+00
  1.83945870699884e+00
  9.87698457309665e-01
  5.25077182598192e-01
  1.66215856718395e-01
  9.34622888241072e-02
  5.10826233355890e-02
  2.51582602315196e+00
  3.54972184579634e+00
  4.50231968832641e+00
  4.91694775076965e+00
  4.40377855233830e+00
  2.89703480206181e+00
  1.31284892365757e+00
  3.43400803309903e-01
  3.92177291062833e-01
  1.78758410625548e-01
  5.55544751816923e-02
  1.72214947988116e-02
  1.71012621172510e+01
  7.74475761458575e-01
  9.84491449611383e-02
  9.31998702099698e-03
  2.38355079066967e-02
  2.57226323061032e-01
  4.82046798727303e-01
  8.35598690668546e-01
  1.36636575285047e+00
  2.12753351426577e+00
  3.13546646974985e+00
  4.27633913736539e+00
  5.09689862583897e+00
  4.79622107294527e+00
  2.87469778823108e+00
  9.87018482399258e-01
  3.40129311232691e+00
  5.29074637777286e+00
  3.94928493795792e+00
  1.83945870699884e+00
  9.87698457309665e-01
  5.25077182598192e-01
  1.66215856718395e-01
  9.34622888241072e-02
  5.10826233355890e-02
  2.51582602315196e+00
  3.54972184579634e+00
  4.50231968832641e+00
  4.91694775076965e+00
  4.40377855233830e+00
  2.89703480206181e+00
  1.31284892365757e+00
  3.43400803309903e-01
  3.92177291062833e-01
  1.78758410625548e-01
  5.55544751816923e-02
  1.72214947988116e-02
  1.71012621172510e+01
  7.74475761458575e-01
  9.84491449611383e-02
  9.31998702099698e-03
  2.38355079066967e-02
  2.57226323061032e-01
  4.82046798727303e-01
  8.35598690668546e-01
  1.36636575285047e+00
  2.12753351426577e+00
  3.13546646974985e+00
  4.27633913736539e+00
  5.09689862583897e+00
  4.79622107294527e+00
  2.87469778823108e+00
  9.87018482399258e-01
  3.40129311232691e+00
  5.29074637777286e+00
  3.94928493795792e+00
  1.83945870699884e+00
  9.87698457309665e-01
  5.25077182598192e-01
  1.66215856718395e-01
  9.34622888241072e-02
  5.10826233355890e-02
  2.51582602315196e+00
  3.54972184579634e+00
  4.50231968832641e+00
  4.91694775076965e+00
  4.40377855233830e+00
  2.89703480206181e+00
  1.31284892365757e+00
  3.43400803309903e-01
  3.92177291062833e-01
  1.78758410625548e-01
  5.55544751816923e-02
  1.72214947988116e-02
  1.71012621172510e+01
  7.74475761458575e-01
  9.84491449611383e-02
  9.31998702099698e-03
  2.38355079066967e-02
  2.57226323061032e-01
  4.82046798727303e-01
  8.35598690668546e-01
  1.36636575285047e+00
  2.12753351426577e+00
  3.13546646974985e+00
  4.27633913736539e+00
  5.09689862583897e+00
  4.79622107294527e+00
  2.87469778823108e+00
  9.87018482399258e-01
  3.40129311232691e+00
  5.29074637777286e+00
  3.94928493795792e+00
  1.83945870699884e+00
  9.87698457309665e-01
  5.25077182598192e-01
  1.66215856718395e-01
  9.34622888241072e-02
  5.10826233355890e-02
  2.51582602315196e+00
  3.54972184579634e+00
  4.50231968832641e+00
  4.91694775076965e+00
  4.40377855233830e+00
  2.89703480206181e+00
  1.31284892365757e+00
  3.43400803309903e-01
  3.92177291062833e-01
  1.78758410625548e-01
  5.55544751816923e-02
  1.72214947988116e-02
  1.71012621172510e+01
  7.74475761458575e-01
  9.84491449611383e-02
  9.31998702099698e-03
  2.38355079066967e-02
  2.57226323061032e-01
  4.82046798727303e-01
  8.35598690668546e-01
  1.36636575285047e+00
  2.12753351426577e+00
  3.13546646974985e+00
  4.27633913736539e+00
  5.09689862583897e+00
  4.79622107294527e+00
  2.87469778823108e+00
  9.87018482399258e-01
  3.40129311232691e+00
  5.29074637777286e+00
  3.94928493795792e+00
  1.83945870699884e+00
  9.87698457309665e-01
  5.25077182598192e-01
  1.66215856718395e-01
  9.34622888241072e-02
  5.10826233355890e-02
  2.51582602315196e+00
  3.54972184579634e+00
  4.50231968832641e+00
  4.91694775076965e+00
  4.40377855233830e+00
  2.89703480206181e+00
  1.31284892365757e+00
  3.43400803309903e-01
  3.92177291062833e-01
  1.78758410625548e-01
  5.55544751816923e-02
  1.72214947988116e-02
  1.71012621172510e+01
  7.74475761458575e-01
  9.84491449611383e-02
  9.31998702099698e-03
  2.38355079066967e-02
  2.57226323061032e-01
  4.82046798727303e-01
  8.35598690668546e-01
  1.36636575285047e+00
  2.12753351426577e+00
  3.13546646974985e+00
  4.27633913736539e+00
  5.09689862583897e+00
  4.79622107294527e+00
  2.87469778823108e+00
  9.87018482399258e-01
  3.40129311232691e+00
  5.29074637777286e+00
  3.94928493795792e+00
  1.83945870699884e+00
  9.87698457309665e-01
  5.25077182598192e-01
  1.66215856718395e-01
  9.34622888241072e-02
  5.10826233355890e-02
  2.51582602315196e+00
  3.54972184579634e+00
  4.50231968832641e+00
  4.91694775076965e+00
  4.40377855233830e+00
  2.89703480206181e+00
  1.31284892365757e+00
  3.43400803309903e-01
  3.92177291062833e-01
  1.78758410625548e-01
  5.55544751816923e-02
  1.72214947988116e-02
  1.71012621172510e+01
  7.74475761458575e-01
  9.84491449611383e-02
  9.31998702099698e-03
  2.38355079066967e-02
  2.57226323061032e-01
  4.82046798727303e-01
  8.35598690668546e-01
  1.36636575285047e+00
  2.12753351426577e+00
  3.13546646974985e+00
  4.27633913736539e+00
  5.09689862583897e+00
  4.79622107294527e+00
  2.87469778823108e+00
  9.87018482399258e-01
  3.40129311232691e+00
  5.29074637777286e+00
  3.94928493795792e+00
  1.83945870699884e+00
  9.87698457309665e-01
  5.25077182598192e-01
  1.66215856718395e-01
  9.34622888241072e-02
  5.10826233355890e-02
  2.51582602315196e+00
  3.54972184579634e+00
  4.50231968832641e+00
  4.91694775076965e+00
  4.40377855233830e+00
  2.89703480206181e+00
  1.31284892365757e+00
  3.43400803309903e-01
  3.92177291062833e-01
  1.78758410625548e-01
  5.55544751816923e-02
  1.72214947988116e-02
  1.71012621172510e+01
  7.74475761458575e-01
  9.84491449611383e-02
  9.31998702099698e-03
  2.38355079066967e-02
  2.57226323061032e-01
  4.82046798727303e-01
  8.35598690668546e-01
  1.36636575285047e+00
  2.12753351426577e+00
  3.13546646974985e+00
  4.27633913736539e+00
  5.09689862583897e+00
  4.79622107294527e+00
  2.87469778823108e+00
  9.87018482399258e-01
  3.40129311232691e+00
  5.29074637777286e+00
  3.94928493795792e+00
  1.83945870699884e+00
  9.87698457309665e-01
  5.25077182598192e-01
  1.66215856718395e-01
  9.34622888241072e-02
  5.10826233355890e-02
  2.51582602315196e+00
  3.54972184579634e+00
  4.50231968832641e+00
  4.91694775076965e+00
  4.40377855233830e+00
  2.89703480206181e+00
  1.31284892365757e+00
  3.43400803309903e-01
  3.92177291062833e-01
  1.78758410625548e-01
  5.55544751816923e-02
  1.72214947988116e-02
  1.71012621172510e+01
[...]
 2.96879 2.96880 2.97436 2.97462 2.98363 2.98363 2.98407 2.98622 2.98903 2.98903
 2.98928 2.99645 3.00063 3.01351 3.01521 3.01521 3.02548 3.04905 3.06955 3.06955
 3.08110 3.08801 3.08822 3.08822 3.09383 3.10965 3.11109 3.11246 3.11918 3.11918
 3.12311 3.13173 3.13173 3.13307 3.13308 3.14181 3.15322 3.15910 3.16101 3.16101
 3.16372 3.16845 3.16849 3.17277 3.17916 3.18374 3.18374 3.18443 3.18726 3.18726
 3.18763 3.19095 3.19164 3.19164 3.19239 3.20256 3.20537 3.20537 3.20706 3.24178
 3.24320 3.24468 3.24469 3.24851 3.24965 3.25184 3.25184 3.25369 3.26694 3.27392
 3.27392 3.27572 3.27699 3.29047 3.30368 3.31055 3.31376 3.31952 3.31952 3.32659
 3.33775 3.33776 3.34752 3.34752 3.35153 3.36886 3.37764 3.37764 3.38710 3.38746
 3.38746 3.38911 3.38983 3.39107 3.39108 3.39236 3.39262 3.39315 3.39315 3.39502
 3.39528 3.40200 3.40200 3.40427 3.40631 3.41207 3.41485 3.41717 3.41717 3.42294
 3.42434 3.42547 3.42615 3.42632 3.42632 3.42950 3.42950 3.43140 3.43624 3.43677
 3.43677 3.43691 3.43903 3.44729 3.44729 3.45081 3.45363 3.45543 3.45543 3.45786
 3.46209 3.46539 3.46539 3.47540 3.47670 3.47670 3.47883 3.48766 3.49154 3.49154
 3.49249 3.49820 3.51182 3.51433 3.51500 3.51500 3.51532 3.51933 3.51933 3.52565
 3.53066 3.53495 3.54061 3.54165 3.54165 3.54486 3.54681 3.55383 3.55383 3.55514
 3.55790 3.55866 3.56175 3.57097 3.57708 3.57708 3.58530 3.59872 3.59872 3.61140
 3.61430 3.62619 3.62814 3.63528 3.63528 3.63898 3.64174 3.64199 3.64199 3.64452
 3.64452 3.64666 3.65213 3.65921 3.65921 3.66169 3.66271 3.66281 3.66454 3.66455
 3.66631 3.67242 3.67283 3.67524 3.67525 3.67737 3.67737 3.67876 3.68078 3.68438
 3.68438 3.68519 3.69154 3.69154 3.69579 3.69739 3.69739 3.71326 3.71326 3.71473
 3.72031 3.72031 3.72086 3.72190 3.72223 3.72761 3.72761 3.72900 3.73046 3.73192
 3.73202 3.73202 3.73332 3.74175 3.74310 3.74310 3.74553 3.75074 3.75263 3.75263
 3.76170 3.76362 3.76362 3.77460 3.77494 3.78169 3.78845 3.78856 3.79623 3.79623
 3.79766 3.80061 3.80274 3.80274 3.80310 3.80866 3.80866 3.81080 3.81255 3.82868
 3.82869 3.82895 3.83091 3.83227 3.83228 3.83294 3.83557 3.83700 3.83700 3.83744
 3.83747 3.84226 3.84227 3.84438 3.84848 3.84849 3.84882 3.86025 3.86615 3.86615
 3.86682 3.87427 3.87429 3.87701 3.87815 3.87818 3.89134 3.89575 3.90007 3.90007
 3.90419 3.90648 3.91724 3.91733 3.91733 3.91945 3.91946 3.91946 3.92096 3.92097
 3.92607 3.92810 3.92810 3.93109 3.93406 3.93869 3.93956 3.93956 3.94035 3.94353
 3.95589 3.95589 3.95661 3.95666 3.95905 3.95905 3.96451 3.96451 3.96868 3.97422
 3.97422 3.98114 3.98286 3.98307 3.99172 4.00046 4.00460 4.02765 4.02765 4.03340
 4.04078 4.04262 4.04314 4.04314 4.04816 4.04831 4.05197 4.05197 4.05698 4.05698
 4.05751 4.06712 4.10291 4.11802 4.11802 4.12079 4.12416 4.16964 4.20787 4.20787
 4.21049 4.21065 4.21285 4.21562 4.21906 4.21906 4.22021 4.22021 4.22094 4.22406
 4.22651 4.23084 4.24330 4.24429 4.24429 4.24698 4.24698 4.26372 4.26990 4.28138
 4.28138 4.30618 4.31072 4.31113 4.31113 4.31350 4.31495 4.31495 4.31976 4.32618
 4.32618 4.32854 4.33848 4.34851 4.35621 4.35621 4.35906 4.36718 4.36850 4.37512
 4.37512 4.39286 4.40394 4.40476 4.40927 4.40951 4.40951 4.41222 4.41236 4.43895
 4.43895 4.45312 4.48789 4.48860 4.48883 4.48883 4.49299 4.51588 4.51588 4.51919
 4.52305 4.52341 4.52341 4.52429 4.53931 4.54036 4.54036 4.55856 4.57763 4.57763
 4.59372 4.60322 4.62705 4.62705 4.62758 4.63772 4.64208 4.64419 4.64520 4.64520
 4.64754 4.64754 4.65078 4.65078 4.65441 4.66996 4.67364 4.67535 4.67543 4.68146
 4.68146 4.68212 4.70178 4.70262 4.70320 4.70321 4.70736 4.70736 4.70876 4.71583
 4.71583 4.72222 4.72524 4.72568 4.72577 4.72652 4.72652 4.72951 4.73235 4.73382
 4.73382 4.74495 4.75331 4.75870 4.75994 4.75994 4.77095 4.77095 4.78373 4.79144
 4.79720 4.79994 4.79994 4.81038 4.81215 4.81914 4.81914 4.82115 4.82265 4.82265
 4.82346 4.82854 4.83345 4.83936 4.84196 4.84196 4.87660 4.87785 4.87785 4.88084
 4.88400 4.88400 4.88573 4.88962 4.89143 4.89304 4.89304 4.89387 4.89653 4.90379
 4.91022 4.91482 4.92504 4.92504 4.93134 4.93134 4.93317 4.93383 4.93384 4.94242
 4.95157 4.95274 4.95375 4.95375 4.95440 4.96006 4.97369 4.97369 4.97511 4.97754
 4.97997 4.98131 4.98131 4.98448 4.98996 4.99059 4.99290 4.99317 4.99533 4.99533
 5.01052 5.01504 5.02274 5.02652 5.02652 5.04607 5.05155 5.05288 5.05288 5.10003
 5.10003 5.10831 5.12582 5.12903 5.13359 5.13359 5.15713 5.16068 5.28462 5.28462
 5.67917 5.68009 5.68571 5.71864 5.76418 5.77517 5.78915 5.78915 5.81132 5.81132
 5.82305 5.82524 5.84429 5.84855 5.85085 5.85085 5.85786 5.86746 5.86938 5.87133
 5.87862 5.87862 5.88256 5.88284 5.88284 5.88965 5.89429 5.89963 5.89963 5.90275
 5.90275 5.90891 5.91596 5.91632 5.91632 5.94337 5.96120 5.96120 5.96928 5.97214
 5.97214 5.98667 6.02284 6.03889 6.03972 6.04948 6.04948 6.05397 6.05563 6.05845
 6.05845 6.06134 6.06168 6.06354 6.06452 6.06452 6.07109 6.07214 6.07365 6.07634
 6.07634 6.08342 6.08724 6.08724 6.09508 6.10461 6.10633 6.10633 6.11249 6.12207
 6.12207 6.15153 6.15831 6.16541 6.16541 6.16705 6.17609 6.19431 6.19657 6.19657
 6.20075 6.20985 6.21323 6.21323 6.21460 6.23232 6.23233 6.25991 6.30959 6.33166
 6.33522 6.33522 6.33840 6.35667 6.35667 6.35788 6.35825 6.36417 6.36419 6.37012
 6.37336 6.37336 6.37967 6.39863 6.39863 6.40097 6.40097 6.40720 6.47087 6.47087
 7.16786 7.57121 7.74896 7.74896 8.14949 8.23858 8.23880 8.23880 8.24336 8.24461
 8.24467 8.24498 8.24498 8.24662 8.25242 8.25287 8.25287 8.26443 8.27210 8.30332
 8.33806 8.33817 8.33971 8.33971 8.34445 8.34813 8.34813 8.34886 8.35387 8.35625
 8.35625 8.37045 8.37751 8.37755 8.38074 8.38074 8.38367 8.38367 8.38686 8.39285
 8.39618 8.39623 8.39680 8.39680 8.40406 8.40482 8.40482 8.40741 8.40752 8.40752
 8.40788 8.40899 8.40899 8.41130 8.41185 8.41197 8.41317 8.41774 8.41774 8.42098
 8.42749 8.42967 8.42967 8.43153 8.43360 8.43746 8.44478 8.44478 8.44486 8.44514
 8.44737 8.44737 8.45280 8.45280 8.45420 8.45970 8.45970 8.46378 8.46474 8.46592
 8.46632 8.46670 8.46757 8.46757 8.46871 8.46933 8.46934 8.46934 8.47171 8.47171
 8.47233 8.47302 8.47311 8.47847 8.47847 8.48037 8.48501 8.48501 8.49221 8.49278
 8.49278 8.49305 8.49992 8.49992 8.51106 8.51144 8.51144 8.51352 8.52443 8.53053
 8.53053 8.55789 8.55892 8.56165 8.56165 8.56416 8.56416 8.56424 8.59941 8.61893
 8.62103 8.62104 8.62387 8.66243 8.66272 8.66272 8.66295 8.66531 8.66636 8.66636
 8.67032 8.67032 8.67249 8.68090 8.69827 8.71101 8.72410 8.72807 8.72898 8.72898
 8.73884 8.74527 8.74584 8.76665 8.76665 8.77323 8.77343 8.77528 8.77605 8.77605
 8.77804 8.77937 8.79060 8.79060 8.79207 8.79227 8.79824 8.79960 8.79960 8.80204
 8.82211 8.82211 8.82229 8.82272 8.86078 8.87062 8.87824 8.87824 8.88322 8.88326
 8.88354 8.88354 8.88356 8.88362 8.88456 8.88456 8.88483 8.88539 8.88560 8.88588
 8.88588 8.88726 8.88729 8.88814 8.88824 8.88855 8.88855 8.88895 8.88895 8.88983
 8.88990 8.89018 8.89018 8.89079 8.89079 8.89150 8.89171 8.89172 8.89202 8.89202
 8.89239 8.89263 8.89263 8.89268 8.89338 8.89338 8.89592 8.89593 8.89594 8.89594
 8.89687 8.89687 8.89695 8.89718 8.89718 8.89722 8.89842 8.89846 8.89873 8.89873
 8.89892 8.89892 8.89895 8.89908 8.89938 8.89981 8.89994 8.89994 8.89997 8.90016
 8.90059 8.90059 8.90193 8.90193 8.90236 8.90288 8.90584 8.90613 8.90613 8.90655
 8.90674 8.91250 8.91250 8.91561 8.91600 8.91600 8.91655 8.91686 8.91695 8.91742
 8.91742 8.91769 8.91886 8.91960 8.92004 8.92004 8.92074 8.92105 8.92131 8.92141
 8.92186 8.92186 8.92194 8.92504 8.92504 8.92610 8.92636 8.92881 8.92920 8.92920
 8.92989 8.93001 8.93009 8.93009 8.93027 8.93036 8.93036 8.93113 8.93113 8.93117
 8.93117 8.93168 8.93188 8.93201 8.93201 8.93291 8.93499 8.93551 8.93557 8.93601
 8.93618 8.93618 8.93679 8.93679 8.93687 8.93888 8.93971 8.93971 8.94001 8.94009
 8.94091 8.94091 8.94502 8.94502 8.94550 8.94588 8.94663 8.94670 8.94685 8.94685
 8.94718 8.94746 8.94746 8.94917 8.94983 8.94983 8.95060 8.95060 8.95100 8.95137
 8.95475 8.95498 8.95498 8.95566 8.95685 8.95685 8.95721 8.95746 8.95799 8.95832
 8.95848 8.95848 8.95855 8.95943 8.95994 8.95994 8.96022 8.96113 8.96173 8.96173
 8.96188 8.96196 8.96434 8.96884 8.96884 8.97157 8.97162 8.97162 8.97171 8.97177
 8.97213 8.97276 8.97276 8.97349 8.97362 8.97459 8.97459 8.97505 8.97546 8.97546
 8.97845 8.97969 8.97990 8.98043 8.98101 8.98101 8.98117 8.98272 8.98372 8.98415
 8.98415 8.98534 8.98540 8.98540 8.98621 8.98821 8.98821 8.98845 8.98860 8.98870
 8.98908 8.98950 8.99080 8.99080 8.99237 8.99243 8.99385 8.99386 8.99386 8.99608
 8.99657 8.99672 8.99846 8.99863 8.99863 8.99937 9.00111 9.00112 9.00167 9.00279
 9.00305 9.00305 9.00634 9.00698 9.00742 9.00743 9.00855 9.00999 9.01023 9.01031
 9.01031 9.01055 9.01071 9.01071 9.01132 9.01152 9.01335 9.01446 9.01446 9.01469
 9.01542 9.01545 9.01545 9.01576 9.01618 9.01619 9.01619 9.01900 9.01951 9.01951
 9.02080 9.02267 9.02581 9.02581 9.02654 9.02689 9.02689 9.02807 9.03281 9.03357
 9.03357 9.03361 9.03715 9.03735 9.03887 9.03887 9.04157 9.04157 9.04162 9.04169
 9.04200 9.04288 9.04288 9.04304 9.09943 9.11853 9.75130 9.87659 9.88004 9.97346
 9.97360 9.97571 9.97571 10.03274 10.03329 10.03329 10.03980 10.13469 10.13469 10.13723
 10.14112 10.14325 10.15010 10.16659 10.18754 10.18754 10.23167 10.23167 10.23386 10.24840
 10.30182 10.33489 10.33489 10.34981 10.35765 10.52987 10.52987 10.53339 10.53517 10.59224
 10.59661 10.59661 10.62203 10.77238 10.83209 10.83209 10.99390 10.99390 10.99454 10.99584
 11.00613 11.00692 11.04707 11.04759 11.04759 11.04819 11.04982 11.04982 11.05056 11.05088
 11.05146 11.05190 11.05272 11.05272 11.06355 11.07048 11.07048 11.07324 11.07324 11.07421
 11.07438 11.07461 11.07482 11.07482 11.07538 11.07666 11.07799 11.07975 11.07975 11.08163
 11.08507 11.09210 11.09311 11.09374 11.09374 11.09726 11.09877 11.09886 11.09886 11.10042
 11.10133 11.10135 11.10135 11.10515 11.10567 11.10567 11.10752 11.12098 11.12433 11.12433
 11.12843 11.12860 11.13002 11.13003 11.13350 11.14448 11.14598 11.14740 11.14740 11.14834
 11.14868 11.14886 11.15017 11.15017 11.15625 11.17013 11.17373 11.17514 11.17514 11.19196
 11.19253 11.19724 11.19724 11.20091 11.20525 11.20747 11.20855 11.20855 11.21127 11.21127
 11.22210 11.22210 11.22228 11.22298 11.22306 11.22319 11.22319 11.22345 11.22475 11.22475
 11.22579 11.22579 11.22583 11.22584 11.22714 11.22714 11.22847 11.23385 11.23431 11.23502
 11.23502 11.23620 11.23690 11.23709 11.23835 11.23877 11.23877 11.24360 11.24460 11.24460
 11.24757 11.24795 11.24795 11.24884 11.24974 11.24999 11.25117 11.25204 11.25204 11.25287
 11.25310 11.25417 11.25417 11.25560 11.25667 11.25667 11.25950 11.25950 11.26354 11.26519
 11.26721 11.26721 11.26735 11.26877 11.27038 11.27038 11.27429 11.27856 11.27905 11.28024
 11.28024 11.28927 11.29079 11.29100 11.29100 11.29247 11.29247 11.29289 11.29479 11.29534
 11.29578 11.29578 11.29657 11.29721 11.29812 11.29812 11.30202 11.30331 11.30495 11.30495
 11.30517 11.30985 11.31605 11.31606 11.31640 11.32014 11.32014 11.32043 11.32225 11.32488
 11.32779 11.33148 11.33148 11.33235 11.33235 11.33243 11.34040 11.34745 11.34746 11.34935
 11.35077 11.35146 11.35182 11.35182 11.35205 11.35206 11.35773 11.35919 11.36029 11.36129
 11.36129 11.36571 11.36571 11.36883 11.37076 11.37076 11.37079 11.38830 11.39087 11.39087
 11.39874 11.41146 11.41146 11.41174 11.41562 11.41606 11.41619 11.41619 11.41955 11.41955
 11.42530 11.42790 11.42790 11.42984 11.43058 11.43058 11.43133 11.43342 11.43485 11.45973
 11.46892 11.47371 11.75473 11.75473 11.95436 11.96884 11.97498 12.15608 12.16176 12.21576
 12.21576 12.21727 12.21868 12.22033 12.22033 12.22744 12.22744 12.26844 12.27481 12.27481
 12.27710 12.30204 12.30486 12.30486 12.30773 12.31593 12.32034 12.32034 12.32129 12.32509
 12.32787 12.32787 12.32911 12.41162 12.41187 12.41187 12.41263 12.43006 12.43006 12.43344
 12.43429 12.44112 12.44439 12.44562 12.44562 12.44723 12.44723 12.45321 12.45614 12.45662
 12.45938 12.45938 12.47588 12.48441 12.48441 12.48585 12.48659 12.48659 12.49303 12.49675
 12.50382 12.50815 12.51005 12.51005 12.52112 12.52127 12.52375 12.52562 12.52562 12.52754
 12.52791 12.52791 12.52936 12.54107 12.54145 12.54427 12.54427 12.54594 12.55320 12.56445
 12.56445 12.56966 12.57080 12.57080 12.57209 12.59011 12.59707 12.59828 12.59937 12.59937
 12.59989 12.60037 12.61204 12.61204 12.62469 12.62505 12.62646 12.62646 12.64381 12.64410
 12.64443 12.64444 12.64751 12.64783 12.64783 12.64916 12.65058 12.65205 12.65205 12.65388
 12.65756 12.65756 12.65898 12.65991 12.66515 12.66515 12.66767 12.67754 12.67985 12.67985
 12.68335 12.70436 12.70436 12.70690 12.71440 12.71797 12.71858 12.71990 12.71990 12.72301
 12.72721 12.72721 12.73010 12.73875 12.73986 12.74003 12.75219 12.78141 12.78141 12.78306
 12.78590 12.78640 12.78642 12.78642 12.78653 12.79622 12.79728 12.79728 12.80141 12.80795
 12.80826 12.80826 12.81114 12.81443 12.81640 12.81986 12.81986 12.83783 12.83808 12.85073
 12.86885 12.89538 12.89539 12.91716 12.91757 12.91757 12.92225 13.38532 13.38532 13.76261
 13.76407 13.78169 13.78481 13.78481 13.79549 13.79742 13.79760 13.79837 13.79837 13.79921
 13.81728 13.82605 13.82605 13.83546 13.83891 13.83973 13.83973 13.86494 13.88024 13.88111
 13.88111 13.90541 13.95873 13.97199 13.97199 13.97421 13.97834 13.98431 13.99508 14.00601
 14.00601 14.05874 14.55892 28.03204 35.25187 35.25233 35.25386 35.25386 35.32778 35.32778
 35.33037 35.33309 35.41815 35.41815 35.41992 35.42211 35.43681 35.44554 35.47113 35.47114
 35.50192 35.50192 35.50210 35.50265 35.56217 35.58425 35.60505 35.74590 35.74590 35.74733
 35.75025 35.80414 35.80855 35.80855 35.82860 35.95662 47.86249 47.86445 47.87228 47.88126
 47.88126 47.88593 47.89352 47.89629 47.89629 47.89636 47.89807 47.89892 47.89929 47.89929
 47.90203 47.90993 47.91497 47.91497 47.92681 47.93477 47.94310 47.95801 47.95802 48.03026
 48.04397 48.04924 48.04924 48.05095 48.05499 48.05950 48.07776 48.07776 48.13877 146.71225
 196.58432 196.58559 196.58767 196.58767 196.73507 196.73508 196.74056 196.74394 196.89468 196.89468
 196.89830 196.90183 196.92314 196.93766 196.98396 196.98396 197.04322 197.04367 197.04367 197.04657
 197.14464 197.16585 197.19521 197.45769 197.45769 197.46020 197.46345 197.55910 197.56665 197.56666
 197.59737 197.82432 252.43552 252.44013 252.44255 252.44989 252.45963 252.45963 252.47160 252.47282
 252.47422 252.47422 252.47653 252.47720 252.47783 252.47783 252.48099 252.48766 252.49555 252.49555
 252.50967 252.51688 252.53122 252.54689 252.54689 252.65031 252.65639 252.65800 252.65800 252.66040
 252.66416 252.66925 252.69009 252.69009 252.76373
 ---------------------------------------------------------------------------
 VBM is at 0-th k-point with -2.44522 eV
 CBM is at 0-th k-point with 0.47708 eV
 Band gap is 2.92230 eV


           Ground-State Mulliken Net Atomic Charges

      Atom                 Charge (a.u.)          Spin (a.u.)
   --------------------------------------------------------
      1  C              (-0.219687,-0.000000)    (0.000000,0.000000)
      2 Mg               (0.738514,-0.000000)    (0.000000,0.000000)
      3 Mg               (0.795840,-0.000000)    (0.000000,0.000000)
      4 Mg               (0.759898,-0.000000)    (0.000000,0.000000)
      5 Mg               (0.759898,-0.000000)    (0.000000,0.000000)
      6 Mg               (0.759904,-0.000000)    (0.000000,0.000000)
      7 Mg               (0.759902,-0.000000)    (0.000000,0.000000)
      8 Mg               (0.795841,-0.000000)    (0.000000,0.000000)
      9 Mg               (0.759896,-0.000000)    (0.000000,0.000000)
     10 Mg               (0.795841,-0.000000)    (0.000000,0.000000)
     11 Mg               (0.759900,-0.000000)    (0.000000,0.000000)
     12 Mg               (0.738519,-0.000000)    (0.000000,0.000000)
     13 Mg               (0.795844,-0.000000)    (0.000000,0.000000)
     14 Mg               (0.759899,-0.000000)    (0.000000,0.000000)
     15 Mg               (0.738520,-0.000000)    (0.000000,0.000000)
     16 Mg               (0.759899,-0.000000)    (0.000000,0.000000)
     17 Mg               (0.738514,-0.000000)    (0.000000,0.000000)
     18 Mg               (1.522427,-0.000000)    (0.000000,0.000000)
     19 Mg               (0.797830,-0.000000)    (0.000000,0.000000)
     20 Mg               (0.794659,-0.000000)    (0.000000,0.000000)
     21 Mg               (0.662068,-0.000000)    (0.000000,0.000000)
     22 Mg               (0.797826,-0.000000)    (0.000000,0.000000)
     23 Mg               (0.662067,-0.000000)    (0.000000,0.000000)
     24 Mg               (0.818376,-0.000000)    (0.000000,0.000000)
     25 Mg               (0.818872,-0.000000)    (0.000000,0.000000)
     26 Mg               (0.818360,-0.000000)    (0.000000,0.000000)
     27 Mg               (0.818371,-0.000000)    (0.000000,0.000000)
     28 Mg               (0.797827,-0.000000)    (0.000000,0.000000)
     29 Mg               (0.662065,-0.000000)    (0.000000,0.000000)
     30 Mg               (0.797830,-0.000000)    (0.000000,0.000000)
     31 Mg               (0.818359,-0.000000)    (0.000000,0.000000)
     32 Mg               (0.818865,-0.000000)    (0.000000,0.000000)
     33 Mg               (0.662064,-0.000000)    (0.000000,0.000000)
     34  O              (-0.778388,-0.000000)    (0.000000,0.000000)
     35  O              (-0.776184,-0.000000)    (0.000000,0.000000)
     36  O              (-0.780446,-0.000000)    (0.000000,0.000000)
     37  O              (-0.776186,-0.000000)    (0.000000,0.000000)
     38  O              (-0.776183,-0.000000)    (0.000000,0.000000)
     39  O              (-0.775337,-0.000000)    (0.000000,0.000000)
     40  O              (-0.773684,-0.000000)    (0.000000,0.000000)
     41  O              (-0.773684,-0.000000)    (0.000000,0.000000)
     42  O              (-0.773684,-0.000000)    (0.000000,0.000000)
     43  O              (-0.778383,-0.000000)    (0.000000,0.000000)
     44  O              (-0.773683,-0.000000)    (0.000000,0.000000)
     45  O              (-0.778384,-0.000000)    (0.000000,0.000000)
     46  O              (-0.780446,-0.000000)    (0.000000,0.000000)
     47  O              (-0.741766,-0.000000)    (0.000000,0.000000)
     48  O              (-0.778386,-0.000000)    (0.000000,0.000000)
     49  O              (-0.776186,-0.000000)    (0.000000,0.000000)
     50  O              (-0.786536,-0.000000)    (0.000000,0.000000)
     51  O              (-0.776192,-0.000000)    (0.000000,0.000000)
     52  O              (-0.776192,-0.000000)    (0.000000,0.000000)
     53  O              (-0.776194,-0.000000)    (0.000000,0.000000)
     54  O              (-0.786536,-0.000000)    (0.000000,0.000000)
     55  O              (-0.776191,-0.000000)    (0.000000,0.000000)
     56  O              (-0.776192,-0.000000)    (0.000000,0.000000)
     57  O              (-0.776193,-0.000000)    (0.000000,0.000000)
     58  O              (-0.821845,-0.000000)    (0.000000,0.000000)
     59  O              (-0.821845,-0.000000)    (0.000000,0.000000)
     60  O              (-0.776193,-0.000000)    (0.000000,0.000000)
     61  O              (-0.776193,-0.000000)    (0.000000,0.000000)
     62  O              (-0.821847,-0.000000)    (0.000000,0.000000)
     63  O              (-0.821846,-0.000000)    (0.000000,0.000000)
     64  O              (-0.786536,-0.000000)    (0.000000,0.000000)
     65  O              (-0.786535,-0.000000)    (0.000000,0.000000)
     66  O              (-0.030730,-0.000000)    (0.000000,0.000000)
   --------------------------------------------------------
  Sum of atomic charges =     (-0.000000,-0.000000)
  Sum of spin   charges =       (0.000000,0.000000)



 Total job time:  8780.63 s.
 Mon Nov 24 03:50:30 2025


        *************************************************************
        *                                                           *
        *  Thank you very much for using QCPBC. Have a nice day.    *
        *                                                           *
        *************************************************************

Running job 1 of 1
