                  Welcome to Q-Chem
           with Periodic Boundary Condition
     A Quantum Leap Into The Future Of Chemistry

 Adam Rettig, Xintian Feng, Meng-Fu Chen, Hieu Dinh, Stephen Quiton,
 Anton Ni, Paul J. Robinson, Jinghong Zhang, Joonho Lee

Contributors to earlier versions of Q-Chem not listed above:
 Evgeny Epifanovsky, Leo Cunha, Jerome F. Gonthier, Kuan-Yu Liu
 Input file: /n/netscratch/joonholee_lab/Lab/hieudinh//mgo_slab_def2qzvp_rijk_omega_0.7_111.scratch20251123224759/mgo_slab_def2qzvp_rijk_omega_0.7_111.0
 Scratch folder: /n/netscratch/joonholee_lab/Lab/hieudinh//mgo_slab_def2qzvp_rijk_omega_0.7_111.scratch20251123224759
 Auxillary files located at: /n/home02/hieudinh/qcpbc/qcaux
 Q-Chem begins on Sun Nov 23 22:48:29 2025

 -------------------------------------------------------------
 User input:
 -------------------------------------------------------------
 $lattice
 3
 11.9443159104 0.0000000000 0.0000000000
 0.0000000000 11.9443159104 0.0000000000
 0.0000000000 0.0000000000 21.6602222298
 $end
 
 $unitcell
 ABSOLUTE
 0 1
 C   1.4930428341    1.4930432491    5.5284856213
 Mg   0.0000000000    0.0000000000    1.0000000000
 Mg   8.9582369328    5.9721579552    1.0000000000
 Mg   2.9860789776    5.9721579552    1.0000000000
 Mg   2.9860789776    8.9582369328    1.0000000000
 Mg   5.9721579552    0.0000000000    1.0000000000
 Mg   5.9721579552    2.9860789776    1.0000000000
 Mg   5.9721579552    5.9721579552    1.0000000000
 Mg   8.9582369328    2.9860789776    1.0000000000
 Mg   5.9721579552    8.9582369328    1.0000000000
 Mg   8.9582369328    0.0000000000    1.0000000000
 Mg   2.9860789776    2.9860789776    1.0000000000
 Mg   8.9582369328    8.9582369328    1.0000000000
 Mg   0.0000000000    8.9582369328    1.0000000000
 Mg   0.0000000000    2.9860789776    1.0000000000
 Mg   0.0000000000    5.9721579552    1.0000000000
 Mg   2.9860789776    0.0000000000    1.0000000000
 Mg   1.4930343349    1.4930374153    3.1511187175
 Mg   7.4651977897   10.4517004415    3.1114386205
 Mg   7.4651969790    7.4651968898    3.1112699448
 Mg   1.4930327857    4.4811832720    3.1056362779
 Mg   7.4651966404    4.4786922443    3.1114383107
 Mg   4.4811624032    1.4930368520    3.1056318890
 Mg  10.4496839597    4.4807048989    3.1095898700
 Mg   1.4930399629    7.4651963524    3.1116080311
 Mg  10.4496925734   10.4496968378    3.1095846708
 Mg   4.4807088948   10.4496904623    3.1095885984
 Mg   4.4786954624    7.4651978298    3.1114386978
 Mg   1.4930424686   10.4492084126    3.1056383774
 Mg  10.4516980458    7.4651970662    3.1114406695
 Mg   4.4807013212    4.4807040921    3.1095854125
 Mg   7.4651986133    1.4930389816    3.1116104730
 Mg  10.4492249714    1.4930441995    3.1056280117
 O  10.4512759328    1.4930390000    1.0000000000
 O   4.4791179776   10.4512759328    1.0000000000
 O   7.4651969552    1.4930390000    1.0000000000
 O   4.4791179776    4.4791179776    1.0000000000
 O  10.4512759328    4.4791179776    1.0000000000
 O   7.4651969552    7.4651969552    1.0000000000
 O   7.4651969552   10.4512759328    1.0000000000
 O   7.4651969552    4.4791179776    1.0000000000
 O   4.4791179776    7.4651969552    1.0000000000
 O   1.4930390000   10.4512759328    1.0000000000
 O  10.4512759328    7.4651969552    1.0000000000
 O   1.4930390000    4.4791179776    1.0000000000
 O   1.4930390000    7.4651969552    1.0000000000
 O   1.4930390000    1.4930390000    1.0000000000
 O   4.4791179776    1.4930390000    1.0000000000
 O  10.4512759328   10.4512759328    1.0000000000
 O   8.9580238897    5.9723685818    3.1594644112
 O   8.9570961456    2.9857717252    3.1600752389
 O   8.9570985067    0.0003085838    3.1600738373
 O   2.9857747423    8.9570945142    3.1600737733
 O   5.9723690642    5.9723696033    3.1594610725
 O   5.9732960489    2.9857717265    3.1600713997
 O   5.9732976356    0.0003062885    3.1600713024
 O   2.9857711850    5.9732998192    3.1600740469
 O   2.9950544541    2.9950623702    3.1548459568
 O   2.9950599166   -0.0089867212    3.1548507549
 O   0.0003060319    8.9570959750    3.1600745678
 O   0.0003045736    5.9732996331    3.1600758940
 O  -0.0089879078    2.9950667318    3.1548429191
 O  -0.0089805134   -0.0089799254    3.1548482730
 O   5.9723706153    8.9580251994    3.1594625961
 O   8.9580250454    8.9580263132    3.1594616543
 O   1.4930495812    1.4930407413    6.6690780399
 $end
 
 $rem
 jobtype = sp
 method = pbe
 dft_d = 6
 scf_convergence = 5
 scf_guess = autosad
 scf_algorithm = gdm
 basis = def2-qzvp
 aux_basis = rijk-def2-qzvp
 input_bohr = false
 is_basis_uctr = true
 symmetry = false
 
 mp_mesh = [1,1,1]
 
 integral_direct true
 bvk_cgto true
 symmetry false
 rsdf_print_level 1
 
 thresh 14
 mem_total 500000
 threads 32
 
 MAX_SCF_CYCLES 500
 madelung = false
 omega 0.7
 do_rij_bigmem true
 automate_g true
 print_level 10
 grid_type_xc 1
 
 thresh_1e2c_sp 1e-14
 thresh_2e3c_bra_ket_sep 1e-14
 thresh_g 1e-14
 $end
 
 $rem_autosad
 incfock 1000
 scf_algorithm gdm_ls
 $end
 
 -------------------------------------------------------------
 Running PBC job

 Requested Exchange Correlation Functionals: 
  DFT Exchange:  1.00000 pbe_x
  DFT Correlation:  1.00000 pbe_c
 using 32 threads for computing.
 ---------------------------------------------------------------
      Coordinates of Atoms in Central Unit Cell (Angstroms)
    I     Atom         X            Y            Z
 ---------------------------------------------------------------
    1       C      1.493043     1.493043     5.528486
    2      Mg      0.000000     0.000000     1.000000
    3      Mg      8.958237     5.972158     1.000000
    4      Mg      2.986079     5.972158     1.000000
    5      Mg      2.986079     8.958237     1.000000
    6      Mg      5.972158     0.000000     1.000000
    7      Mg      5.972158     2.986079     1.000000
    8      Mg      5.972158     5.972158     1.000000
    9      Mg      8.958237     2.986079     1.000000
   10      Mg      5.972158     8.958237     1.000000
   11      Mg      8.958237     0.000000     1.000000
   12      Mg      2.986079     2.986079     1.000000
   13      Mg      8.958237     8.958237     1.000000
   14      Mg      0.000000     8.958237     1.000000
   15      Mg      0.000000     2.986079     1.000000
   16      Mg      0.000000     5.972158     1.000000
   17      Mg      2.986079     0.000000     1.000000
   18      Mg      1.493034     1.493037     3.151119
   19      Mg      7.465198    10.451700     3.111439
   20      Mg      7.465197     7.465197     3.111270
   21      Mg      1.493033     4.481183     3.105636
   22      Mg      7.465197     4.478692     3.111438
   23      Mg      4.481162     1.493037     3.105632
   24      Mg     10.449684     4.480705     3.109590
   25      Mg      1.493040     7.465196     3.111608
   26      Mg     10.449693    10.449697     3.109585
   27      Mg      4.480709    10.449690     3.109589
   28      Mg      4.478695     7.465198     3.111439
   29      Mg      1.493042    10.449208     3.105638
   30      Mg     10.451698     7.465197     3.111441
   31      Mg      4.480701     4.480704     3.109585
   32      Mg      7.465199     1.493039     3.111610
   33      Mg     10.449225     1.493044     3.105628
   34       O     10.451276     1.493039     1.000000
   35       O      4.479118    10.451276     1.000000
   36       O      7.465197     1.493039     1.000000
   37       O      4.479118     4.479118     1.000000
   38       O     10.451276     4.479118     1.000000
   39       O      7.465197     7.465197     1.000000
   40       O      7.465197    10.451276     1.000000
   41       O      7.465197     4.479118     1.000000
   42       O      4.479118     7.465197     1.000000
   43       O      1.493039    10.451276     1.000000
   44       O     10.451276     7.465197     1.000000
   45       O      1.493039     4.479118     1.000000
   46       O      1.493039     7.465197     1.000000
   47       O      1.493039     1.493039     1.000000
   48       O      4.479118     1.493039     1.000000
   49       O     10.451276    10.451276     1.000000
   50       O      8.958024     5.972369     3.159464
   51       O      8.957096     2.985772     3.160075
   52       O      8.957099     0.000309     3.160074
   53       O      2.985775     8.957095     3.160074
   54       O      5.972369     5.972370     3.159461
   55       O      5.973296     2.985772     3.160071
   56       O      5.973298     0.000306     3.160071
   57       O      2.985771     5.973300     3.160074
   58       O      2.995054     2.995062     3.154846
   59       O      2.995060    -0.008987     3.154851
   60       O      0.000306     8.957096     3.160075
   61       O      0.000305     5.973300     3.160076
   62       O     -0.008988     2.995067     3.154843
   63       O     -0.008981    -0.008980     3.154848
   64       O      5.972371     8.958025     3.159463
   65       O      8.958025     8.958026     3.159462
   66       O      1.493050     1.493041     6.669078
 ---------------------------------------------------------------
 --------------------------------------------------
              Lattice Vectors (Angstroms)
              X            Y            Z
 --------------------------------------------------
   X      11.944316     0.000000     0.000000
   Y       0.000000    11.944316     0.000000
   Z       0.000000     0.000000    21.660222
 --------------------------------------------------
 --------------------------------------------------
       Reciprocal Lattice Vectors (Angstroms^-1)
              X            Y            Z
 --------------------------------------------------
   X       0.526040     0.000000     0.000000
   Y       0.000000     0.526040     0.000000
   Z       0.000000     0.000000     0.290079
 --------------------------------------------------

 Single point calculation requested

 Hamiltonian contributions:
 List of terms in Hamiltonian: kpts_nn, kpts_kinetic, kpts_vnuc_df, kpts_xc, kpts_rij_bigmem, kpts_dftd3

 K-Points calculation started.

 Basis set information about using solid harmonic (1) or Cartesian (0):
  c : D(1) D(1) D(1) F(1) F(1) G(1) 
  o : D(1) D(1) D(1) F(1) F(1) G(1) 
  mg : D(1) D(1) D(1) D(1) F(1) 

 Basis set information about using solid harmonic (1) or Cartesian (0):
  c : D(1) D(1) D(1) D(1) D(1) F(1) G(1) 
  o : D(1) D(1) D(1) D(1) F(1) F(1) G(1) 
  mg : D(1) D(1) D(1) D(1) D(1) D(1) D(1) F(1) F(1) F(1) F(1) G(1) 

 There are 3570 basis functions in the central unit cell.
 Print atomic basis of atoms in the central unit cell:
 -------------------------------------------------------------
66 2170 2170 1186

  2.82144204878407e+00  2.82144283302041e+00  1.04473237081885e+01
  0.00000000000000e+00  0.00000000000000e+00  1.88972612462577e+00
  1.69286143624996e+01  1.12857429083331e+01  1.88972612462577e+00
  5.64287145416653e+00  1.12857429083331e+01  1.88972612462577e+00
  5.64287145416653e+00  1.69286143624996e+01  1.88972612462577e+00
  1.12857429083331e+01  0.00000000000000e+00  1.88972612462577e+00
  1.12857429083331e+01  5.64287145416653e+00  1.88972612462577e+00
  1.12857429083331e+01  1.12857429083331e+01  1.88972612462577e+00
  1.69286143624996e+01  5.64287145416653e+00  1.88972612462577e+00
  1.12857429083331e+01  1.69286143624996e+01  1.88972612462577e+00
  1.69286143624996e+01  0.00000000000000e+00  1.88972612462577e+00
  5.64287145416653e+00  5.64287145416653e+00  1.88972612462577e+00
  1.69286143624996e+01  1.69286143624996e+01  1.88972612462577e+00
  0.00000000000000e+00  1.69286143624996e+01  1.88972612462577e+00
  0.00000000000000e+00  5.64287145416653e+00  1.88972612462577e+00
  0.00000000000000e+00  1.12857429083331e+01  1.88972612462577e+00
  5.64287145416653e+00  0.00000000000000e+00  1.88972612462577e+00
  2.82142598762379e+00  2.82143180873615e+00  5.95475136225700e+00
  1.41071792886946e+01  1.97508513710652e+01  5.87976684632842e+00
  1.41071777566937e+01  1.41071775881301e+01  5.87944809545154e+00
  2.82142306006008e+00  8.46820909833439e+00  5.86880200793317e+00
  1.41071771168324e+01  8.46350173821253e+00  5.87976626089126e+00
  8.46816966201784e+00  2.82143074425342e+00  5.86879371411418e+00
  1.97470407727280e+01  8.46730510419000e+00  5.87627321421065e+00
  2.82143662300242e+00  1.41071765725913e+01  5.88008698596503e+00
  1.97470570502619e+01  1.97470651088100e+01  5.87626338914658e+00
  8.46731265534662e+00  1.97470530608611e+01  5.87627081123491e+00
  8.46350781954017e+00  1.41071793644727e+01  5.87976699240425e+00
  2.82144135808917e+00  1.97461421189496e+01  5.86880597541317e+00
  1.97508468438484e+01  1.41071779214778e+01  5.87977071837725e+00
  8.46729834331684e+00  8.46730357955896e+00  5.87626479075645e+00
  1.41071808450731e+01  2.82143476861417e+00  5.88009160048725e+00
  1.97461734105465e+01  2.82144462901612e+00  5.86878638707908e+00
  1.97500491658847e+01  2.82143480338514e+00  1.88972612462577e+00
  8.46430625755166e+00  1.97500491658847e+01  1.88972612462577e+00
  1.41071777117182e+01  2.82143480338514e+00  1.88972612462577e+00
  8.46430625755166e+00  8.46430625755166e+00  1.88972612462577e+00
  1.97500491658847e+01  8.46430625755166e+00  1.88972612462577e+00
  1.41071777117182e+01  1.41071777117182e+01  1.88972612462577e+00
  1.41071777117182e+01  1.97500491658847e+01  1.88972612462577e+00
  1.41071777117182e+01  8.46430625755166e+00  1.88972612462577e+00
  8.46430625755166e+00  1.41071777117182e+01  1.88972612462577e+00
  2.82143480338514e+00  1.97500491658847e+01  1.88972612462577e+00
  1.97500491658847e+01  1.41071777117182e+01  1.88972612462577e+00
  2.82143480338514e+00  8.46430625755166e+00  1.88972612462577e+00
  2.82143480338514e+00  1.41071777117182e+01  1.88972612462577e+00
  2.82143480338514e+00  2.82143480338514e+00  1.88972612462577e+00
  8.46430625755166e+00  2.82143480338514e+00  1.88972612462577e+00
  1.97500491658847e+01  1.97500491658847e+01  1.88972612462577e+00
  1.69282117693878e+01  1.12861409349216e+01  5.97052243767002e+00
  1.69264585871251e+01  5.64229083127940e+00  5.97167673473235e+00
  1.69264630489575e+01  5.83138868496294e-04  5.97167408609222e+00
  5.64229653277209e+00  1.69264555042259e+01  5.97167396514974e+00
  1.12861418465255e+01  1.12861428652769e+01  5.97051612844141e+00
  1.12878935937302e+01  5.64229083373604e+00  5.97166947969581e+00
  1.12878965921587e+01  5.78801380122440e-04  5.97166929582546e+00
  5.64228981044934e+00  1.12879007185646e+01  5.97167448217881e+00
  5.65983264658954e+00  5.65984760585052e+00  5.96179482373494e+00
  5.65984296921850e+00 -1.69824418263683e-02  5.96180389082986e+00
  5.78316476398861e-04  1.69264582647378e+01  5.97167546653715e+00
  5.75560688791319e-04  1.12879003668866e+01  5.97167797269194e+00
 -1.69846841753877e-02  5.65985584807999e+00  5.96178908331389e+00
 -1.69707107845318e-02 -1.69695996255705e-02  5.96179920071859e+00
  1.12861447776797e+01  1.69282142443622e+01  5.97051900762813e+00
  1.69282139533443e+01  1.69282163491391e+01  5.97051722788406e+00
  2.82145479895521e+00  2.82143809396524e+00  1.26027309991671e+01

  6.70250710290000e+04
  1.00399865380000e+04
  2.28493169110000e+03
  6.47141221300000e+02
  2.11094723350000e+02
  7.61776438620000e+01
  2.96338391630000e+01
  1.21877850810000e+01
  5.30260062990000e+01
  1.52585027760000e+01
  5.24039574640000e+00
  2.29050223790000e+00
  6.96732830060000e-01
  2.75993373630000e-01
  1.07398843890000e-01
  1.05125550820000e+02
  2.48844610660000e+01
  7.86372308260000e+00
  2.84070018350000e+00
  1.12271373350000e+00
  4.60507255550000e-01
  1.89375309130000e-01
  7.59837916110000e-02
  1.84800000000000e+00
  6.49000000000000e-01
  2.28000000000000e-01
  1.41900000000000e+00
  4.85000000000000e-01
  1.01100000000000e+00
  6.05967787530000e+05
  9.05690946920000e+04
  2.05742528440000e+04
  5.81862848650000e+03
  1.89562960750000e+03
  6.83459410210000e+02
  2.66182197620000e+02
  1.10112200100000e+02
  4.77770412340000e+01
  2.15421661490000e+01
  1.74121363780000e+02
  5.34849724980000e+01
  2.05002133070000e+01
  9.80568269220000e+00
  3.54029893480000e+00
  1.54508500460000e+00
  6.65401954320000e-01
  1.43554390710000e-01
  6.66246734680000e-02
  2.97726482660000e-02
  8.93204608290000e+02
  2.11782582860000e+02
  6.84432005370000e+01
  2.57272653490000e+01
  1.06066342810000e+01
  4.59341264840000e+00
  2.01004698070000e+00
  8.73848415360000e-01
  3.56150766660000e-01
  1.89959543560000e-01
  7.45801356690000e-02
  2.92216413090000e-02
  3.81000000000000e+00
  6.50000000000000e-01
  2.00000000000000e-01
  5.20000000000000e-02
  1.60000000000000e-01
  6.05967787530000e+05
  9.05690946920000e+04
  2.05742528440000e+04
  5.81862848650000e+03
  1.89562960750000e+03
  6.83459410210000e+02
  2.66182197620000e+02
  1.10112200100000e+02
  4.77770412340000e+01
  2.15421661490000e+01
  1.74121363780000e+02
  5.34849724980000e+01
  2.05002133070000e+01
  9.80568269220000e+00
  3.54029893480000e+00
  1.54508500460000e+00
  6.65401954320000e-01
  1.43554390710000e-01
  6.66246734680000e-02
  2.97726482660000e-02
  8.93204608290000e+02
  2.11782582860000e+02
  6.84432005370000e+01
  2.57272653490000e+01
  1.06066342810000e+01
  4.59341264840000e+00
  2.01004698070000e+00
  8.73848415360000e-01
  3.56150766660000e-01
  1.89959543560000e-01
  7.45801356690000e-02
  2.92216413090000e-02
  3.81000000000000e+00
  6.50000000000000e-01
  2.00000000000000e-01
  5.20000000000000e-02
  1.60000000000000e-01
  6.05967787530000e+05
  9.05690946920000e+04
  2.05742528440000e+04
  5.81862848650000e+03
  1.89562960750000e+03
  6.83459410210000e+02
  2.66182197620000e+02
  1.10112200100000e+02
  4.77770412340000e+01
  2.15421661490000e+01
  1.74121363780000e+02
  5.34849724980000e+01
  2.05002133070000e+01
  9.80568269220000e+00
  3.54029893480000e+00
  1.54508500460000e+00
  6.65401954320000e-01
  1.43554390710000e-01
  6.66246734680000e-02
  2.97726482660000e-02
  8.93204608290000e+02
  2.11782582860000e+02
  6.84432005370000e+01
  2.57272653490000e+01
  1.06066342810000e+01
  4.59341264840000e+00
  2.01004698070000e+00
  8.73848415360000e-01
  3.56150766660000e-01
  1.89959543560000e-01
  7.45801356690000e-02
  2.92216413090000e-02
  3.81000000000000e+00
  6.50000000000000e-01
  2.00000000000000e-01
  5.20000000000000e-02
  1.60000000000000e-01
  6.05967787530000e+05
  9.05690946920000e+04
  2.05742528440000e+04
  5.81862848650000e+03
  1.89562960750000e+03
  6.83459410210000e+02
  2.66182197620000e+02
  1.10112200100000e+02
  4.77770412340000e+01
  2.15421661490000e+01
  1.74121363780000e+02
  5.34849724980000e+01
  2.05002133070000e+01
  9.80568269220000e+00
  3.54029893480000e+00
  1.54508500460000e+00
  6.65401954320000e-01
  1.43554390710000e-01
  6.66246734680000e-02
  2.97726482660000e-02
  8.93204608290000e+02
  2.11782582860000e+02
  6.84432005370000e+01
  2.57272653490000e+01
  1.06066342810000e+01
  4.59341264840000e+00
  2.01004698070000e+00
  8.73848415360000e-01
  3.56150766660000e-01
  1.89959543560000e-01
  7.45801356690000e-02
  2.92216413090000e-02
  3.81000000000000e+00
  6.50000000000000e-01
  2.00000000000000e-01
  5.20000000000000e-02
  1.60000000000000e-01
  6.05967787530000e+05
  9.05690946920000e+04
  2.05742528440000e+04
  5.81862848650000e+03
  1.89562960750000e+03
  6.83459410210000e+02
  2.66182197620000e+02
  1.10112200100000e+02
  4.77770412340000e+01
  2.15421661490000e+01
  1.74121363780000e+02
  5.34849724980000e+01
  2.05002133070000e+01
  9.80568269220000e+00
  3.54029893480000e+00
  1.54508500460000e+00
  6.65401954320000e-01
  1.43554390710000e-01
  6.66246734680000e-02
  2.97726482660000e-02
  8.93204608290000e+02
  2.11782582860000e+02
  6.84432005370000e+01
  2.57272653490000e+01
  1.06066342810000e+01
  4.59341264840000e+00
  2.01004698070000e+00
  8.73848415360000e-01
  3.56150766660000e-01
  1.89959543560000e-01
  7.45801356690000e-02
  2.92216413090000e-02
  3.81000000000000e+00
  6.50000000000000e-01
  2.00000000000000e-01
  5.20000000000000e-02
  1.60000000000000e-01
  6.05967787530000e+05
  9.05690946920000e+04
  2.05742528440000e+04
  5.81862848650000e+03
  1.89562960750000e+03
  6.83459410210000e+02
  2.66182197620000e+02
  1.10112200100000e+02
  4.77770412340000e+01
  2.15421661490000e+01
  1.74121363780000e+02
  5.34849724980000e+01
  2.05002133070000e+01
  9.80568269220000e+00
  3.54029893480000e+00
  1.54508500460000e+00
  6.65401954320000e-01
  1.43554390710000e-01
  6.66246734680000e-02
  2.97726482660000e-02
  8.93204608290000e+02
  2.11782582860000e+02
  6.84432005370000e+01
  2.57272653490000e+01
  1.06066342810000e+01
  4.59341264840000e+00
  2.01004698070000e+00
  8.73848415360000e-01
  3.56150766660000e-01
  1.89959543560000e-01
  7.45801356690000e-02
  2.92216413090000e-02
  3.81000000000000e+00
  6.50000000000000e-01
  2.00000000000000e-01
  5.20000000000000e-02
  1.60000000000000e-01
  6.05967787530000e+05
  9.05690946920000e+04
  2.05742528440000e+04
  5.81862848650000e+03
  1.89562960750000e+03
  6.83459410210000e+02
  2.66182197620000e+02
  1.10112200100000e+02
  4.77770412340000e+01
  2.15421661490000e+01
  1.74121363780000e+02
  5.34849724980000e+01
  2.05002133070000e+01
  9.80568269220000e+00
  3.54029893480000e+00
  1.54508500460000e+00
  6.65401954320000e-01
  1.43554390710000e-01
  6.66246734680000e-02
  2.97726482660000e-02
  8.93204608290000e+02
  2.11782582860000e+02
  6.84432005370000e+01
  2.57272653490000e+01
  1.06066342810000e+01
  4.59341264840000e+00
  2.01004698070000e+00
  8.73848415360000e-01
  3.56150766660000e-01
  1.89959543560000e-01
  7.45801356690000e-02
  2.92216413090000e-02
  3.81000000000000e+00
  6.50000000000000e-01
  2.00000000000000e-01
  5.20000000000000e-02
  1.60000000000000e-01
  6.05967787530000e+05
  9.05690946920000e+04
  2.05742528440000e+04
  5.81862848650000e+03
  1.89562960750000e+03
  6.83459410210000e+02
  2.66182197620000e+02
  1.10112200100000e+02
  4.77770412340000e+01
  2.15421661490000e+01
  1.74121363780000e+02
  5.34849724980000e+01
  2.05002133070000e+01
  9.80568269220000e+00
  3.54029893480000e+00
  1.54508500460000e+00
  6.65401954320000e-01
  1.43554390710000e-01
  6.66246734680000e-02
  2.97726482660000e-02
  8.93204608290000e+02
  2.11782582860000e+02
  6.84432005370000e+01
  2.57272653490000e+01
  1.06066342810000e+01
  4.59341264840000e+00
  2.01004698070000e+00
  8.73848415360000e-01
  3.56150766660000e-01
  1.89959543560000e-01
  7.45801356690000e-02
  2.92216413090000e-02
  3.81000000000000e+00
  6.50000000000000e-01
  2.00000000000000e-01
  5.20000000000000e-02
  1.60000000000000e-01
  6.05967787530000e+05
  9.05690946920000e+04
  2.05742528440000e+04
  5.81862848650000e+03
  1.89562960750000e+03
  6.83459410210000e+02
  2.66182197620000e+02
  1.10112200100000e+02
  4.77770412340000e+01
  2.15421661490000e+01
  1.74121363780000e+02
  5.34849724980000e+01
  2.05002133070000e+01
  9.80568269220000e+00
  3.54029893480000e+00
  1.54508500460000e+00
  6.65401954320000e-01
  1.43554390710000e-01
  6.66246734680000e-02
  2.97726482660000e-02
  8.93204608290000e+02
  2.11782582860000e+02
  6.84432005370000e+01
  2.57272653490000e+01
  1.06066342810000e+01
  4.59341264840000e+00
  2.01004698070000e+00
  8.73848415360000e-01
  3.56150766660000e-01
  1.89959543560000e-01
  7.45801356690000e-02
  2.92216413090000e-02
  3.81000000000000e+00
  6.50000000000000e-01
  2.00000000000000e-01
  5.20000000000000e-02
  1.60000000000000e-01
  6.05967787530000e+05
  9.05690946920000e+04
  2.05742528440000e+04
  5.81862848650000e+03
  1.89562960750000e+03
  6.83459410210000e+02
  2.66182197620000e+02
  1.10112200100000e+02
  4.77770412340000e+01
  2.15421661490000e+01
  1.74121363780000e+02
  5.34849724980000e+01
  2.05002133070000e+01
  9.80568269220000e+00
  3.54029893480000e+00
  1.54508500460000e+00
  6.65401954320000e-01
  1.43554390710000e-01
  6.66246734680000e-02
  2.97726482660000e-02
  8.93204608290000e+02
  2.11782582860000e+02
  6.84432005370000e+01
  2.57272653490000e+01
  1.06066342810000e+01
  4.59341264840000e+00
  2.01004698070000e+00
  8.73848415360000e-01
  3.56150766660000e-01
  1.89959543560000e-01
  7.45801356690000e-02
  2.92216413090000e-02
  3.81000000000000e+00
  6.50000000000000e-01
  2.00000000000000e-01
  5.20000000000000e-02
  1.60000000000000e-01
  6.05967787530000e+05
  9.05690946920000e+04
  2.05742528440000e+04
  5.81862848650000e+03
  1.89562960750000e+03
  6.83459410210000e+02
  2.66182197620000e+02
  1.10112200100000e+02
  4.77770412340000e+01
  2.15421661490000e+01
  1.74121363780000e+02
  5.34849724980000e+01
  2.05002133070000e+01
  9.80568269220000e+00
  3.54029893480000e+00
  1.54508500460000e+00
  6.65401954320000e-01
  1.43554390710000e-01
  6.66246734680000e-02
  2.97726482660000e-02
  8.93204608290000e+02
  2.11782582860000e+02
  6.84432005370000e+01
  2.57272653490000e+01
  1.06066342810000e+01
  4.59341264840000e+00
  2.01004698070000e+00
  8.73848415360000e-01
  3.56150766660000e-01
  1.89959543560000e-01
  7.45801356690000e-02
  2.92216413090000e-02
  3.81000000000000e+00
  6.50000000000000e-01
  2.00000000000000e-01
  5.20000000000000e-02
  1.60000000000000e-01
  6.05967787530000e+05
  9.05690946920000e+04
  2.05742528440000e+04
  5.81862848650000e+03
  1.89562960750000e+03
  6.83459410210000e+02
  2.66182197620000e+02
  1.10112200100000e+02
  4.77770412340000e+01
  2.15421661490000e+01
  1.74121363780000e+02
  5.34849724980000e+01
  2.05002133070000e+01
  9.80568269220000e+00
  3.54029893480000e+00
  1.54508500460000e+00
  6.65401954320000e-01
  1.43554390710000e-01
  6.66246734680000e-02
  2.97726482660000e-02
  8.93204608290000e+02
  2.11782582860000e+02
  6.84432005370000e+01
  2.57272653490000e+01
  1.06066342810000e+01
  4.59341264840000e+00
  2.01004698070000e+00
  8.73848415360000e-01
  3.56150766660000e-01
  1.89959543560000e-01
  7.45801356690000e-02
  2.92216413090000e-02
  3.81000000000000e+00
  6.50000000000000e-01
  2.00000000000000e-01
  5.20000000000000e-02
  1.60000000000000e-01
  6.05967787530000e+05
  9.05690946920000e+04
  2.05742528440000e+04
  5.81862848650000e+03
  1.89562960750000e+03
  6.83459410210000e+02
  2.66182197620000e+02
  1.10112200100000e+02
  4.77770412340000e+01
  2.15421661490000e+01
  1.74121363780000e+02
  5.34849724980000e+01
  2.05002133070000e+01
  9.80568269220000e+00
  3.54029893480000e+00
  1.54508500460000e+00
  6.65401954320000e-01
  1.43554390710000e-01
  6.66246734680000e-02
  2.97726482660000e-02
  8.93204608290000e+02
  2.11782582860000e+02
  6.84432005370000e+01
  2.57272653490000e+01
  1.06066342810000e+01
  4.59341264840000e+00
  2.01004698070000e+00
  8.73848415360000e-01
  3.56150766660000e-01
  1.89959543560000e-01
  7.45801356690000e-02
  2.92216413090000e-02
  3.81000000000000e+00
  6.50000000000000e-01
  2.00000000000000e-01
  5.20000000000000e-02
  1.60000000000000e-01
  6.05967787530000e+05
  9.05690946920000e+04
  2.05742528440000e+04
  5.81862848650000e+03
  1.89562960750000e+03
  6.83459410210000e+02
  2.66182197620000e+02
  1.10112200100000e+02
  4.77770412340000e+01
  2.15421661490000e+01
  1.74121363780000e+02
  5.34849724980000e+01
  2.05002133070000e+01
  9.80568269220000e+00
  3.54029893480000e+00
  1.54508500460000e+00
  6.65401954320000e-01
  1.43554390710000e-01
  6.66246734680000e-02
  2.97726482660000e-02
  8.93204608290000e+02
  2.11782582860000e+02
  6.84432005370000e+01
  2.57272653490000e+01
  1.06066342810000e+01
  4.59341264840000e+00
  2.01004698070000e+00
  8.73848415360000e-01
  3.56150766660000e-01
  1.89959543560000e-01
  7.45801356690000e-02
  2.92216413090000e-02
  3.81000000000000e+00
  6.50000000000000e-01
  2.00000000000000e-01
  5.20000000000000e-02
  1.60000000000000e-01
  6.05967787530000e+05
  9.05690946920000e+04
  2.05742528440000e+04
  5.81862848650000e+03
  1.89562960750000e+03
  6.83459410210000e+02
  2.66182197620000e+02
  1.10112200100000e+02
  4.77770412340000e+01
  2.15421661490000e+01
  1.74121363780000e+02
  5.34849724980000e+01
  2.05002133070000e+01
  9.80568269220000e+00
  3.54029893480000e+00
  1.54508500460000e+00
  6.65401954320000e-01
  1.43554390710000e-01
  6.66246734680000e-02
  2.97726482660000e-02
  8.93204608290000e+02
  2.11782582860000e+02
  6.84432005370000e+01
  2.57272653490000e+01
  1.06066342810000e+01
  4.59341264840000e+00
  2.01004698070000e+00
  8.73848415360000e-01
  3.56150766660000e-01
  1.89959543560000e-01
  7.45801356690000e-02
  2.92216413090000e-02
  3.81000000000000e+00
  6.50000000000000e-01
  2.00000000000000e-01
  5.20000000000000e-02
  1.60000000000000e-01
  6.05967787530000e+05
  9.05690946920000e+04
  2.05742528440000e+04
  5.81862848650000e+03
  1.89562960750000e+03
  6.83459410210000e+02
  2.66182197620000e+02
  1.10112200100000e+02
  4.77770412340000e+01
  2.15421661490000e+01
  1.74121363780000e+02
  5.34849724980000e+01
  2.05002133070000e+01
  9.80568269220000e+00
  3.54029893480000e+00
  1.54508500460000e+00
  6.65401954320000e-01
  1.43554390710000e-01
  6.66246734680000e-02
  2.97726482660000e-02
  8.93204608290000e+02
  2.11782582860000e+02
  6.84432005370000e+01
  2.57272653490000e+01
  1.06066342810000e+01
  4.59341264840000e+00
  2.01004698070000e+00
  8.73848415360000e-01
  3.56150766660000e-01
  1.89959543560000e-01
  7.45801356690000e-02
  2.92216413090000e-02
  3.81000000000000e+00
  6.50000000000000e-01
  2.00000000000000e-01
  5.20000000000000e-02
  1.60000000000000e-01
  6.05967787530000e+05
  9.05690946920000e+04
  2.05742528440000e+04
  5.81862848650000e+03
  1.89562960750000e+03
  6.83459410210000e+02
  2.66182197620000e+02
  1.10112200100000e+02
  4.77770412340000e+01
  2.15421661490000e+01
  1.74121363780000e+02
  5.34849724980000e+01
  2.05002133070000e+01
  9.80568269220000e+00
  3.54029893480000e+00
  1.54508500460000e+00
  6.65401954320000e-01
  1.43554390710000e-01
  6.66246734680000e-02
  2.97726482660000e-02
  8.93204608290000e+02
  2.11782582860000e+02
  6.84432005370000e+01
  2.57272653490000e+01
  1.06066342810000e+01
  4.59341264840000e+00
  2.01004698070000e+00
  8.73848415360000e-01
  3.56150766660000e-01
  1.89959543560000e-01
  7.45801356690000e-02
  2.92216413090000e-02
  3.81000000000000e+00
  6.50000000000000e-01
  2.00000000000000e-01
  5.20000000000000e-02
  1.60000000000000e-01
  6.05967787530000e+05
  9.05690946920000e+04
  2.05742528440000e+04
  5.81862848650000e+03
  1.89562960750000e+03
  6.83459410210000e+02
  2.66182197620000e+02
  1.10112200100000e+02
  4.77770412340000e+01
  2.15421661490000e+01
  1.74121363780000e+02
  5.34849724980000e+01
  2.05002133070000e+01
  9.80568269220000e+00
  3.54029893480000e+00
  1.54508500460000e+00
  6.65401954320000e-01
  1.43554390710000e-01
  6.66246734680000e-02
  2.97726482660000e-02
  8.93204608290000e+02
  2.11782582860000e+02
  6.84432005370000e+01
  2.57272653490000e+01
  1.06066342810000e+01
  4.59341264840000e+00
  2.01004698070000e+00
  8.73848415360000e-01
  3.56150766660000e-01
  1.89959543560000e-01
  7.45801356690000e-02
  2.92216413090000e-02
  3.81000000000000e+00
  6.50000000000000e-01
  2.00000000000000e-01
  5.20000000000000e-02
  1.60000000000000e-01
  6.05967787530000e+05
  9.05690946920000e+04
  2.05742528440000e+04
  5.81862848650000e+03
  1.89562960750000e+03
  6.83459410210000e+02
  2.66182197620000e+02
  1.10112200100000e+02
  4.77770412340000e+01
  2.15421661490000e+01
  1.74121363780000e+02
  5.34849724980000e+01
  2.05002133070000e+01
  9.80568269220000e+00
  3.54029893480000e+00
  1.54508500460000e+00
  6.65401954320000e-01
  1.43554390710000e-01
  6.66246734680000e-02
  2.97726482660000e-02
  8.93204608290000e+02
  2.11782582860000e+02
  6.84432005370000e+01
  2.57272653490000e+01
  1.06066342810000e+01
  4.59341264840000e+00
  2.01004698070000e+00
  8.73848415360000e-01
  3.56150766660000e-01
  1.89959543560000e-01
  7.45801356690000e-02
  2.92216413090000e-02
  3.81000000000000e+00
  6.50000000000000e-01
  2.00000000000000e-01
  5.20000000000000e-02
  1.60000000000000e-01
  6.05967787530000e+05
  9.05690946920000e+04
  2.05742528440000e+04
  5.81862848650000e+03
  1.89562960750000e+03
  6.83459410210000e+02
  2.66182197620000e+02
  1.10112200100000e+02
  4.77770412340000e+01
  2.15421661490000e+01
  1.74121363780000e+02
  5.34849724980000e+01
  2.05002133070000e+01
  9.80568269220000e+00
  3.54029893480000e+00
  1.54508500460000e+00
  6.65401954320000e-01
  1.43554390710000e-01
  6.66246734680000e-02
  2.97726482660000e-02
  8.93204608290000e+02
  2.11782582860000e+02
  6.84432005370000e+01
  2.57272653490000e+01
  1.06066342810000e+01
  4.59341264840000e+00
  2.01004698070000e+00
  8.73848415360000e-01
  3.56150766660000e-01
  1.89959543560000e-01
  7.45801356690000e-02
  2.92216413090000e-02
  3.81000000000000e+00
  6.50000000000000e-01
  2.00000000000000e-01
  5.20000000000000e-02
  1.60000000000000e-01
  6.05967787530000e+05
  9.05690946920000e+04
  2.05742528440000e+04
  5.81862848650000e+03
  1.89562960750000e+03
  6.83459410210000e+02
  2.66182197620000e+02
  1.10112200100000e+02
  4.77770412340000e+01
  2.15421661490000e+01
  1.74121363780000e+02
  5.34849724980000e+01
  2.05002133070000e+01
  9.80568269220000e+00
  3.54029893480000e+00
  1.54508500460000e+00
  6.65401954320000e-01
  1.43554390710000e-01
  6.66246734680000e-02
  2.97726482660000e-02
  8.93204608290000e+02
  2.11782582860000e+02
  6.84432005370000e+01
  2.57272653490000e+01
  1.06066342810000e+01
  4.59341264840000e+00
  2.01004698070000e+00
  8.73848415360000e-01
  3.56150766660000e-01
  1.89959543560000e-01
  7.45801356690000e-02
  2.92216413090000e-02
  3.81000000000000e+00
  6.50000000000000e-01
  2.00000000000000e-01
  5.20000000000000e-02
  1.60000000000000e-01
  6.05967787530000e+05
  9.05690946920000e+04
  2.05742528440000e+04
  5.81862848650000e+03
  1.89562960750000e+03
  6.83459410210000e+02
  2.66182197620000e+02
  1.10112200100000e+02
  4.77770412340000e+01
  2.15421661490000e+01
  1.74121363780000e+02
  5.34849724980000e+01
  2.05002133070000e+01
  9.80568269220000e+00
  3.54029893480000e+00
  1.54508500460000e+00
  6.65401954320000e-01
  1.43554390710000e-01
  6.66246734680000e-02
  2.97726482660000e-02
  8.93204608290000e+02
  2.11782582860000e+02
  6.84432005370000e+01
  2.57272653490000e+01
  1.06066342810000e+01
  4.59341264840000e+00
  2.01004698070000e+00
  8.73848415360000e-01
  3.56150766660000e-01
  1.89959543560000e-01
  7.45801356690000e-02
  2.92216413090000e-02
  3.81000000000000e+00
  6.50000000000000e-01
  2.00000000000000e-01
  5.20000000000000e-02
  1.60000000000000e-01
  6.05967787530000e+05
  9.05690946920000e+04
  2.05742528440000e+04
  5.81862848650000e+03
  1.89562960750000e+03
  6.83459410210000e+02
  2.66182197620000e+02
  1.10112200100000e+02
  4.77770412340000e+01
  2.15421661490000e+01
  1.74121363780000e+02
  5.34849724980000e+01
  2.05002133070000e+01
  9.80568269220000e+00
  3.54029893480000e+00
  1.54508500460000e+00
  6.65401954320000e-01
  1.43554390710000e-01
  6.66246734680000e-02
  2.97726482660000e-02
  8.93204608290000e+02
  2.11782582860000e+02
  6.84432005370000e+01
  2.57272653490000e+01
  1.06066342810000e+01
  4.59341264840000e+00
  2.01004698070000e+00
  8.73848415360000e-01
  3.56150766660000e-01
  1.89959543560000e-01
  7.45801356690000e-02
  2.92216413090000e-02
  3.81000000000000e+00
  6.50000000000000e-01
  2.00000000000000e-01
  5.20000000000000e-02
  1.60000000000000e-01
  6.05967787530000e+05
  9.05690946920000e+04
  2.05742528440000e+04
  5.81862848650000e+03
  1.89562960750000e+03
  6.83459410210000e+02
  2.66182197620000e+02
  1.10112200100000e+02
  4.77770412340000e+01
  2.15421661490000e+01
  1.74121363780000e+02
  5.34849724980000e+01
  2.05002133070000e+01
  9.80568269220000e+00
  3.54029893480000e+00
  1.54508500460000e+00
  6.65401954320000e-01
  1.43554390710000e-01
  6.66246734680000e-02
  2.97726482660000e-02
  8.93204608290000e+02
  2.11782582860000e+02
  6.84432005370000e+01
  2.57272653490000e+01
  1.06066342810000e+01
  4.59341264840000e+00
  2.01004698070000e+00
  8.73848415360000e-01
  3.56150766660000e-01
  1.89959543560000e-01
  7.45801356690000e-02
  2.92216413090000e-02
  3.81000000000000e+00
  6.50000000000000e-01
  2.00000000000000e-01
  5.20000000000000e-02
  1.60000000000000e-01
  6.05967787530000e+05
  9.05690946920000e+04
  2.05742528440000e+04
  5.81862848650000e+03
  1.89562960750000e+03
  6.83459410210000e+02
  2.66182197620000e+02
  1.10112200100000e+02
  4.77770412340000e+01
  2.15421661490000e+01
  1.74121363780000e+02
  5.34849724980000e+01
  2.05002133070000e+01
  9.80568269220000e+00
  3.54029893480000e+00
  1.54508500460000e+00
  6.65401954320000e-01
  1.43554390710000e-01
  6.66246734680000e-02
  2.97726482660000e-02
  8.93204608290000e+02
  2.11782582860000e+02
  6.84432005370000e+01
  2.57272653490000e+01
  1.06066342810000e+01
  4.59341264840000e+00
  2.01004698070000e+00
  8.73848415360000e-01
  3.56150766660000e-01
  1.89959543560000e-01
  7.45801356690000e-02
  2.92216413090000e-02
  3.81000000000000e+00
  6.50000000000000e-01
  2.00000000000000e-01
  5.20000000000000e-02
  1.60000000000000e-01
  6.05967787530000e+05
  9.05690946920000e+04
  2.05742528440000e+04
  5.81862848650000e+03
  1.89562960750000e+03
  6.83459410210000e+02
  2.66182197620000e+02
  1.10112200100000e+02
  4.77770412340000e+01
  2.15421661490000e+01
  1.74121363780000e+02
  5.34849724980000e+01
  2.05002133070000e+01
  9.80568269220000e+00
  3.54029893480000e+00
  1.54508500460000e+00
  6.65401954320000e-01
  1.43554390710000e-01
  6.66246734680000e-02
  2.97726482660000e-02
  8.93204608290000e+02
  2.11782582860000e+02
  6.84432005370000e+01
  2.57272653490000e+01
  1.06066342810000e+01
  4.59341264840000e+00
  2.01004698070000e+00
  8.73848415360000e-01
  3.56150766660000e-01
  1.89959543560000e-01
  7.45801356690000e-02
  2.92216413090000e-02
  3.81000000000000e+00
  6.50000000000000e-01
  2.00000000000000e-01
  5.20000000000000e-02
  1.60000000000000e-01
  6.05967787530000e+05
  9.05690946920000e+04
  2.05742528440000e+04
  5.81862848650000e+03
  1.89562960750000e+03
  6.83459410210000e+02
  2.66182197620000e+02
  1.10112200100000e+02
  4.77770412340000e+01
  2.15421661490000e+01
  1.74121363780000e+02
  5.34849724980000e+01
  2.05002133070000e+01
  9.80568269220000e+00
  3.54029893480000e+00
  1.54508500460000e+00
  6.65401954320000e-01
  1.43554390710000e-01
  6.66246734680000e-02
  2.97726482660000e-02
  8.93204608290000e+02
  2.11782582860000e+02
  6.84432005370000e+01
  2.57272653490000e+01
  1.06066342810000e+01
  4.59341264840000e+00
  2.01004698070000e+00
  8.73848415360000e-01
  3.56150766660000e-01
  1.89959543560000e-01
  7.45801356690000e-02
  2.92216413090000e-02
  3.81000000000000e+00
  6.50000000000000e-01
  2.00000000000000e-01
  5.20000000000000e-02
  1.60000000000000e-01
  6.05967787530000e+05
  9.05690946920000e+04
  2.05742528440000e+04
  5.81862848650000e+03
  1.89562960750000e+03
  6.83459410210000e+02
  2.66182197620000e+02
  1.10112200100000e+02
  4.77770412340000e+01
  2.15421661490000e+01
  1.74121363780000e+02
  5.34849724980000e+01
  2.05002133070000e+01
  9.80568269220000e+00
  3.54029893480000e+00
  1.54508500460000e+00
  6.65401954320000e-01
  1.43554390710000e-01
  6.66246734680000e-02
  2.97726482660000e-02
  8.93204608290000e+02
  2.11782582860000e+02
  6.84432005370000e+01
  2.57272653490000e+01
  1.06066342810000e+01
  4.59341264840000e+00
  2.01004698070000e+00
  8.73848415360000e-01
  3.56150766660000e-01
  1.89959543560000e-01
  7.45801356690000e-02
  2.92216413090000e-02
  3.81000000000000e+00
  6.50000000000000e-01
  2.00000000000000e-01
  5.20000000000000e-02
  1.60000000000000e-01
  6.05967787530000e+05
  9.05690946920000e+04
  2.05742528440000e+04
  5.81862848650000e+03
  1.89562960750000e+03
  6.83459410210000e+02
  2.66182197620000e+02
  1.10112200100000e+02
  4.77770412340000e+01
  2.15421661490000e+01
  1.74121363780000e+02
  5.34849724980000e+01
  2.05002133070000e+01
  9.80568269220000e+00
  3.54029893480000e+00
  1.54508500460000e+00
  6.65401954320000e-01
  1.43554390710000e-01
  6.66246734680000e-02
  2.97726482660000e-02
  8.93204608290000e+02
  2.11782582860000e+02
  6.84432005370000e+01
  2.57272653490000e+01
  1.06066342810000e+01
  4.59341264840000e+00
  2.01004698070000e+00
  8.73848415360000e-01
  3.56150766660000e-01
  1.89959543560000e-01
  7.45801356690000e-02
  2.92216413090000e-02
  3.81000000000000e+00
  6.50000000000000e-01
  2.00000000000000e-01
  5.20000000000000e-02
  1.60000000000000e-01
  6.05967787530000e+05
  9.05690946920000e+04
  2.05742528440000e+04
  5.81862848650000e+03
  1.89562960750000e+03
  6.83459410210000e+02
  2.66182197620000e+02
  1.10112200100000e+02
  4.77770412340000e+01
  2.15421661490000e+01
  1.74121363780000e+02
  5.34849724980000e+01
  2.05002133070000e+01
  9.80568269220000e+00
  3.54029893480000e+00
  1.54508500460000e+00
  6.65401954320000e-01
  1.43554390710000e-01
  6.66246734680000e-02
  2.97726482660000e-02
  8.93204608290000e+02
  2.11782582860000e+02
  6.84432005370000e+01
  2.57272653490000e+01
  1.06066342810000e+01
  4.59341264840000e+00
  2.01004698070000e+00
  8.73848415360000e-01
  3.56150766660000e-01
  1.89959543560000e-01
  7.45801356690000e-02
  2.92216413090000e-02
  3.81000000000000e+00
  6.50000000000000e-01
  2.00000000000000e-01
  5.20000000000000e-02
  1.60000000000000e-01
  6.05967787530000e+05
  9.05690946920000e+04
  2.05742528440000e+04
  5.81862848650000e+03
  1.89562960750000e+03
  6.83459410210000e+02
  2.66182197620000e+02
  1.10112200100000e+02
  4.77770412340000e+01
  2.15421661490000e+01
  1.74121363780000e+02
  5.34849724980000e+01
  2.05002133070000e+01
  9.80568269220000e+00
  3.54029893480000e+00
  1.54508500460000e+00
  6.65401954320000e-01
  1.43554390710000e-01
  6.66246734680000e-02
  2.97726482660000e-02
  8.93204608290000e+02
  2.11782582860000e+02
  6.84432005370000e+01
  2.57272653490000e+01
  1.06066342810000e+01
  4.59341264840000e+00
  2.01004698070000e+00
  8.73848415360000e-01
  3.56150766660000e-01
  1.89959543560000e-01
  7.45801356690000e-02
  2.92216413090000e-02
  3.81000000000000e+00
  6.50000000000000e-01
  2.00000000000000e-01
  5.20000000000000e-02
  1.60000000000000e-01
  6.05967787530000e+05
  9.05690946920000e+04
  2.05742528440000e+04
  5.81862848650000e+03
  1.89562960750000e+03
  6.83459410210000e+02
  2.66182197620000e+02
  1.10112200100000e+02
  4.77770412340000e+01
  2.15421661490000e+01
  1.74121363780000e+02
  5.34849724980000e+01
  2.05002133070000e+01
  9.80568269220000e+00
  3.54029893480000e+00
  1.54508500460000e+00
  6.65401954320000e-01
  1.43554390710000e-01
  6.66246734680000e-02
  2.97726482660000e-02
  8.93204608290000e+02
  2.11782582860000e+02
  6.84432005370000e+01
  2.57272653490000e+01
  1.06066342810000e+01
  4.59341264840000e+00
  2.01004698070000e+00
  8.73848415360000e-01
  3.56150766660000e-01
  1.89959543560000e-01
  7.45801356690000e-02
  2.92216413090000e-02
  3.81000000000000e+00
  6.50000000000000e-01
  2.00000000000000e-01
  5.20000000000000e-02
  1.60000000000000e-01
  1.16506469080000e+05
  1.75043497240000e+04
  3.99345132300000e+03
  1.13300631860000e+03
  3.69995695940000e+02
  1.33620743490000e+02
  5.20356436490000e+01
  2.14619393130000e+01
  8.98350512520000e+01
  2.64280108440000e+01
  9.28228246490000e+00
  4.09477285330000e+00
  1.32553490780000e+00
  5.18772307870000e-01
  1.97726764540000e-01
  1.91152558100000e+02
  4.52333567390000e+01
  1.43534659220000e+01
  5.24223718320000e+00
  2.07924185990000e+00
  8.42823714240000e-01
  3.36176948910000e-01
  1.28639979740000e-01
  3.77500000000000e+00
  1.30000000000000e+00
  4.44000000000000e-01
  2.66600000000000e+00
  8.59000000000000e-01
  1.84600000000000e+00
  1.16506469080000e+05
  1.75043497240000e+04
  3.99345132300000e+03
  1.13300631860000e+03
  3.69995695940000e+02
  1.33620743490000e+02
  5.20356436490000e+01
  2.14619393130000e+01
  8.98350512520000e+01
  2.64280108440000e+01
  9.28228246490000e+00
  4.09477285330000e+00
  1.32553490780000e+00
  5.18772307870000e-01
  1.97726764540000e-01
  1.91152558100000e+02
  4.52333567390000e+01
  1.43534659220000e+01
  5.24223718320000e+00
  2.07924185990000e+00
  8.42823714240000e-01
  3.36176948910000e-01
  1.28639979740000e-01
  3.77500000000000e+00
  1.30000000000000e+00
  4.44000000000000e-01
  2.66600000000000e+00
  8.59000000000000e-01
  1.84600000000000e+00
  1.16506469080000e+05
  1.75043497240000e+04
  3.99345132300000e+03
  1.13300631860000e+03
  3.69995695940000e+02
  1.33620743490000e+02
  5.20356436490000e+01
  2.14619393130000e+01
  8.98350512520000e+01
  2.64280108440000e+01
  9.28228246490000e+00
  4.09477285330000e+00
  1.32553490780000e+00
  5.18772307870000e-01
  1.97726764540000e-01
  1.91152558100000e+02
  4.52333567390000e+01
  1.43534659220000e+01
  5.24223718320000e+00
  2.07924185990000e+00
  8.42823714240000e-01
  3.36176948910000e-01
  1.28639979740000e-01
  3.77500000000000e+00
  1.30000000000000e+00
  4.44000000000000e-01
  2.66600000000000e+00
  8.59000000000000e-01
  1.84600000000000e+00
  1.16506469080000e+05
  1.75043497240000e+04
  3.99345132300000e+03
  1.13300631860000e+03
  3.69995695940000e+02
  1.33620743490000e+02
  5.20356436490000e+01
  2.14619393130000e+01
  8.98350512520000e+01
  2.64280108440000e+01
  9.28228246490000e+00
  4.09477285330000e+00
  1.32553490780000e+00
  5.18772307870000e-01
  1.97726764540000e-01
  1.91152558100000e+02
  4.52333567390000e+01
  1.43534659220000e+01
  5.24223718320000e+00
  2.07924185990000e+00
  8.42823714240000e-01
  3.36176948910000e-01
  1.28639979740000e-01
  3.77500000000000e+00
  1.30000000000000e+00
  4.44000000000000e-01
  2.66600000000000e+00
  8.59000000000000e-01
  1.84600000000000e+00
  1.16506469080000e+05
  1.75043497240000e+04
  3.99345132300000e+03
  1.13300631860000e+03
  3.69995695940000e+02
  1.33620743490000e+02
  5.20356436490000e+01
  2.14619393130000e+01
  8.98350512520000e+01
  2.64280108440000e+01
  9.28228246490000e+00
  4.09477285330000e+00
  1.32553490780000e+00
  5.18772307870000e-01
  1.97726764540000e-01
  1.91152558100000e+02
  4.52333567390000e+01
  1.43534659220000e+01
  5.24223718320000e+00
  2.07924185990000e+00
  8.42823714240000e-01
  3.36176948910000e-01
  1.28639979740000e-01
  3.77500000000000e+00
  1.30000000000000e+00
  4.44000000000000e-01
  2.66600000000000e+00
  8.59000000000000e-01
  1.84600000000000e+00
  1.16506469080000e+05
  1.75043497240000e+04
  3.99345132300000e+03
  1.13300631860000e+03
  3.69995695940000e+02
  1.33620743490000e+02
  5.20356436490000e+01
  2.14619393130000e+01
  8.98350512520000e+01
  2.64280108440000e+01
  9.28228246490000e+00
  4.09477285330000e+00
  1.32553490780000e+00
  5.18772307870000e-01
  1.97726764540000e-01
  1.91152558100000e+02
  4.52333567390000e+01
  1.43534659220000e+01
  5.24223718320000e+00
  2.07924185990000e+00
  8.42823714240000e-01
  3.36176948910000e-01
  1.28639979740000e-01
  3.77500000000000e+00
  1.30000000000000e+00
  4.44000000000000e-01
  2.66600000000000e+00
  8.59000000000000e-01
  1.84600000000000e+00
  1.16506469080000e+05
  1.75043497240000e+04
  3.99345132300000e+03
  1.13300631860000e+03
  3.69995695940000e+02
  1.33620743490000e+02
  5.20356436490000e+01
  2.14619393130000e+01
  8.98350512520000e+01
  2.64280108440000e+01
  9.28228246490000e+00
  4.09477285330000e+00
  1.32553490780000e+00
  5.18772307870000e-01
  1.97726764540000e-01
  1.91152558100000e+02
  4.52333567390000e+01
  1.43534659220000e+01
  5.24223718320000e+00
  2.07924185990000e+00
  8.42823714240000e-01
  3.36176948910000e-01
  1.28639979740000e-01
  3.77500000000000e+00
  1.30000000000000e+00
  4.44000000000000e-01
  2.66600000000000e+00
  8.59000000000000e-01
  1.84600000000000e+00
  1.16506469080000e+05
  1.75043497240000e+04
  3.99345132300000e+03
  1.13300631860000e+03
  3.69995695940000e+02
  1.33620743490000e+02
  5.20356436490000e+01
  2.14619393130000e+01
  8.98350512520000e+01
  2.64280108440000e+01
  9.28228246490000e+00
  4.09477285330000e+00
  1.32553490780000e+00
  5.18772307870000e-01
  1.97726764540000e-01
  1.91152558100000e+02
  4.52333567390000e+01
  1.43534659220000e+01
  5.24223718320000e+00
  2.07924185990000e+00
  8.42823714240000e-01
  3.36176948910000e-01
  1.28639979740000e-01
  3.77500000000000e+00
  1.30000000000000e+00
  4.44000000000000e-01
  2.66600000000000e+00
  8.59000000000000e-01
  1.84600000000000e+00
  1.16506469080000e+05
  1.75043497240000e+04
  3.99345132300000e+03
  1.13300631860000e+03
  3.69995695940000e+02
  1.33620743490000e+02
  5.20356436490000e+01
  2.14619393130000e+01
  8.98350512520000e+01
  2.64280108440000e+01
  9.28228246490000e+00
  4.09477285330000e+00
  1.32553490780000e+00
  5.18772307870000e-01
  1.97726764540000e-01
  1.91152558100000e+02
  4.52333567390000e+01
  1.43534659220000e+01
  5.24223718320000e+00
  2.07924185990000e+00
  8.42823714240000e-01
  3.36176948910000e-01
  1.28639979740000e-01
  3.77500000000000e+00
  1.30000000000000e+00
  4.44000000000000e-01
  2.66600000000000e+00
  8.59000000000000e-01
  1.84600000000000e+00
  1.16506469080000e+05
  1.75043497240000e+04
  3.99345132300000e+03
  1.13300631860000e+03
  3.69995695940000e+02
  1.33620743490000e+02
  5.20356436490000e+01
  2.14619393130000e+01
  8.98350512520000e+01
  2.64280108440000e+01
  9.28228246490000e+00
  4.09477285330000e+00
  1.32553490780000e+00
  5.18772307870000e-01
  1.97726764540000e-01
  1.91152558100000e+02
  4.52333567390000e+01
  1.43534659220000e+01
  5.24223718320000e+00
  2.07924185990000e+00
  8.42823714240000e-01
  3.36176948910000e-01
  1.28639979740000e-01
  3.77500000000000e+00
  1.30000000000000e+00
  4.44000000000000e-01
  2.66600000000000e+00
  8.59000000000000e-01
  1.84600000000000e+00
  1.16506469080000e+05
  1.75043497240000e+04
  3.99345132300000e+03
  1.13300631860000e+03
  3.69995695940000e+02
  1.33620743490000e+02
  5.20356436490000e+01
  2.14619393130000e+01
  8.98350512520000e+01
  2.64280108440000e+01
  9.28228246490000e+00
  4.09477285330000e+00
  1.32553490780000e+00
  5.18772307870000e-01
  1.97726764540000e-01
  1.91152558100000e+02
  4.52333567390000e+01
  1.43534659220000e+01
  5.24223718320000e+00
  2.07924185990000e+00
  8.42823714240000e-01
  3.36176948910000e-01
  1.28639979740000e-01
  3.77500000000000e+00
  1.30000000000000e+00
  4.44000000000000e-01
  2.66600000000000e+00
  8.59000000000000e-01
  1.84600000000000e+00
  1.16506469080000e+05
  1.75043497240000e+04
  3.99345132300000e+03
  1.13300631860000e+03
  3.69995695940000e+02
  1.33620743490000e+02
  5.20356436490000e+01
  2.14619393130000e+01
  8.98350512520000e+01
  2.64280108440000e+01
  9.28228246490000e+00
  4.09477285330000e+00
  1.32553490780000e+00
  5.18772307870000e-01
  1.97726764540000e-01
  1.91152558100000e+02
  4.52333567390000e+01
  1.43534659220000e+01
  5.24223718320000e+00
  2.07924185990000e+00
  8.42823714240000e-01
  3.36176948910000e-01
  1.28639979740000e-01
  3.77500000000000e+00
  1.30000000000000e+00
  4.44000000000000e-01
  2.66600000000000e+00
  8.59000000000000e-01
  1.84600000000000e+00
  1.16506469080000e+05
  1.75043497240000e+04
  3.99345132300000e+03
  1.13300631860000e+03
  3.69995695940000e+02
  1.33620743490000e+02
  5.20356436490000e+01
  2.14619393130000e+01
  8.98350512520000e+01
  2.64280108440000e+01
  9.28228246490000e+00
  4.09477285330000e+00
  1.32553490780000e+00
  5.18772307870000e-01
  1.97726764540000e-01
  1.91152558100000e+02
  4.52333567390000e+01
  1.43534659220000e+01
  5.24223718320000e+00
  2.07924185990000e+00
  8.42823714240000e-01
  3.36176948910000e-01
  1.28639979740000e-01
  3.77500000000000e+00
  1.30000000000000e+00
  4.44000000000000e-01
  2.66600000000000e+00
  8.59000000000000e-01
  1.84600000000000e+00
  1.16506469080000e+05
  1.75043497240000e+04
  3.99345132300000e+03
  1.13300631860000e+03
  3.69995695940000e+02
  1.33620743490000e+02
  5.20356436490000e+01
  2.14619393130000e+01
  8.98350512520000e+01
  2.64280108440000e+01
  9.28228246490000e+00
  4.09477285330000e+00
  1.32553490780000e+00
  5.18772307870000e-01
  1.97726764540000e-01
  1.91152558100000e+02
  4.52333567390000e+01
  1.43534659220000e+01
  5.24223718320000e+00
  2.07924185990000e+00
  8.42823714240000e-01
  3.36176948910000e-01
  1.28639979740000e-01
  3.77500000000000e+00
  1.30000000000000e+00
  4.44000000000000e-01
  2.66600000000000e+00
  8.59000000000000e-01
  1.84600000000000e+00
  1.16506469080000e+05
  1.75043497240000e+04
  3.99345132300000e+03
  1.13300631860000e+03
  3.69995695940000e+02
  1.33620743490000e+02
  5.20356436490000e+01
  2.14619393130000e+01
  8.98350512520000e+01
  2.64280108440000e+01
  9.28228246490000e+00
  4.09477285330000e+00
  1.32553490780000e+00
  5.18772307870000e-01
  1.97726764540000e-01
  1.91152558100000e+02
  4.52333567390000e+01
  1.43534659220000e+01
  5.24223718320000e+00
  2.07924185990000e+00
  8.42823714240000e-01
  3.36176948910000e-01
  1.28639979740000e-01
  3.77500000000000e+00
  1.30000000000000e+00
  4.44000000000000e-01
  2.66600000000000e+00
  8.59000000000000e-01
  1.84600000000000e+00
  1.16506469080000e+05
  1.75043497240000e+04
  3.99345132300000e+03
  1.13300631860000e+03
  3.69995695940000e+02
  1.33620743490000e+02
  5.20356436490000e+01
  2.14619393130000e+01
  8.98350512520000e+01
  2.64280108440000e+01
  9.28228246490000e+00
  4.09477285330000e+00
  1.32553490780000e+00
  5.18772307870000e-01
  1.97726764540000e-01
  1.91152558100000e+02
  4.52333567390000e+01
  1.43534659220000e+01
  5.24223718320000e+00
  2.07924185990000e+00
  8.42823714240000e-01
  3.36176948910000e-01
  1.28639979740000e-01
  3.77500000000000e+00
  1.30000000000000e+00
  4.44000000000000e-01
  2.66600000000000e+00
  8.59000000000000e-01
  1.84600000000000e+00
  1.16506469080000e+05
  1.75043497240000e+04
  3.99345132300000e+03
  1.13300631860000e+03
  3.69995695940000e+02
  1.33620743490000e+02
  5.20356436490000e+01
  2.14619393130000e+01
  8.98350512520000e+01
  2.64280108440000e+01
  9.28228246490000e+00
  4.09477285330000e+00
  1.32553490780000e+00
  5.18772307870000e-01
  1.97726764540000e-01
  1.91152558100000e+02
  4.52333567390000e+01
  1.43534659220000e+01
  5.24223718320000e+00
  2.07924185990000e+00
  8.42823714240000e-01
  3.36176948910000e-01
  1.28639979740000e-01
  3.77500000000000e+00
  1.30000000000000e+00
  4.44000000000000e-01
  2.66600000000000e+00
  8.59000000000000e-01
  1.84600000000000e+00
  1.16506469080000e+05
  1.75043497240000e+04
  3.99345132300000e+03
  1.13300631860000e+03
  3.69995695940000e+02
  1.33620743490000e+02
  5.20356436490000e+01
  2.14619393130000e+01
  8.98350512520000e+01
  2.64280108440000e+01
  9.28228246490000e+00
  4.09477285330000e+00
  1.32553490780000e+00
  5.18772307870000e-01
  1.97726764540000e-01
  1.91152558100000e+02
  4.52333567390000e+01
  1.43534659220000e+01
  5.24223718320000e+00
  2.07924185990000e+00
  8.42823714240000e-01
  3.36176948910000e-01
  1.28639979740000e-01
  3.77500000000000e+00
  1.30000000000000e+00
  4.44000000000000e-01
  2.66600000000000e+00
  8.59000000000000e-01
  1.84600000000000e+00
  1.16506469080000e+05
  1.75043497240000e+04
  3.99345132300000e+03
  1.13300631860000e+03
  3.69995695940000e+02
  1.33620743490000e+02
  5.20356436490000e+01
  2.14619393130000e+01
  8.98350512520000e+01
  2.64280108440000e+01
  9.28228246490000e+00
  4.09477285330000e+00
  1.32553490780000e+00
  5.18772307870000e-01
  1.97726764540000e-01
  1.91152558100000e+02
  4.52333567390000e+01
  1.43534659220000e+01
  5.24223718320000e+00
  2.07924185990000e+00
  8.42823714240000e-01
  3.36176948910000e-01
  1.28639979740000e-01
  3.77500000000000e+00
  1.30000000000000e+00
  4.44000000000000e-01
  2.66600000000000e+00
  8.59000000000000e-01
  1.84600000000000e+00
  1.16506469080000e+05
  1.75043497240000e+04
  3.99345132300000e+03
  1.13300631860000e+03
  3.69995695940000e+02
  1.33620743490000e+02
  5.20356436490000e+01
  2.14619393130000e+01
  8.98350512520000e+01
  2.64280108440000e+01
  9.28228246490000e+00
  4.09477285330000e+00
  1.32553490780000e+00
  5.18772307870000e-01
  1.97726764540000e-01
  1.91152558100000e+02
  4.52333567390000e+01
  1.43534659220000e+01
  5.24223718320000e+00
  2.07924185990000e+00
  8.42823714240000e-01
  3.36176948910000e-01
  1.28639979740000e-01
  3.77500000000000e+00
  1.30000000000000e+00
  4.44000000000000e-01
  2.66600000000000e+00
  8.59000000000000e-01
  1.84600000000000e+00
  1.16506469080000e+05
  1.75043497240000e+04
  3.99345132300000e+03
  1.13300631860000e+03
  3.69995695940000e+02
  1.33620743490000e+02
  5.20356436490000e+01
  2.14619393130000e+01
  8.98350512520000e+01
  2.64280108440000e+01
  9.28228246490000e+00
  4.09477285330000e+00
  1.32553490780000e+00
  5.18772307870000e-01
  1.97726764540000e-01
  1.91152558100000e+02
  4.52333567390000e+01
  1.43534659220000e+01
  5.24223718320000e+00
  2.07924185990000e+00
  8.42823714240000e-01
  3.36176948910000e-01
  1.28639979740000e-01
  3.77500000000000e+00
  1.30000000000000e+00
  4.44000000000000e-01
  2.66600000000000e+00
  8.59000000000000e-01
  1.84600000000000e+00
  1.16506469080000e+05
  1.75043497240000e+04
  3.99345132300000e+03
  1.13300631860000e+03
  3.69995695940000e+02
  1.33620743490000e+02
  5.20356436490000e+01
  2.14619393130000e+01
  8.98350512520000e+01
  2.64280108440000e+01
  9.28228246490000e+00
  4.09477285330000e+00
  1.32553490780000e+00
  5.18772307870000e-01
  1.97726764540000e-01
  1.91152558100000e+02
  4.52333567390000e+01
  1.43534659220000e+01
  5.24223718320000e+00
  2.07924185990000e+00
  8.42823714240000e-01
  3.36176948910000e-01
  1.28639979740000e-01
  3.77500000000000e+00
  1.30000000000000e+00
  4.44000000000000e-01
  2.66600000000000e+00
  8.59000000000000e-01
  1.84600000000000e+00
  1.16506469080000e+05
  1.75043497240000e+04
  3.99345132300000e+03
  1.13300631860000e+03
  3.69995695940000e+02
  1.33620743490000e+02
  5.20356436490000e+01
  2.14619393130000e+01
  8.98350512520000e+01
  2.64280108440000e+01
  9.28228246490000e+00
  4.09477285330000e+00
  1.32553490780000e+00
  5.18772307870000e-01
  1.97726764540000e-01
  1.91152558100000e+02
  4.52333567390000e+01
  1.43534659220000e+01
  5.24223718320000e+00
  2.07924185990000e+00
  8.42823714240000e-01
  3.36176948910000e-01
  1.28639979740000e-01
  3.77500000000000e+00
  1.30000000000000e+00
  4.44000000000000e-01
  2.66600000000000e+00
  8.59000000000000e-01
  1.84600000000000e+00
  1.16506469080000e+05
  1.75043497240000e+04
  3.99345132300000e+03
  1.13300631860000e+03
  3.69995695940000e+02
  1.33620743490000e+02
  5.20356436490000e+01
  2.14619393130000e+01
  8.98350512520000e+01
  2.64280108440000e+01
  9.28228246490000e+00
  4.09477285330000e+00
  1.32553490780000e+00
  5.18772307870000e-01
  1.97726764540000e-01
  1.91152558100000e+02
  4.52333567390000e+01
  1.43534659220000e+01
  5.24223718320000e+00
  2.07924185990000e+00
  8.42823714240000e-01
  3.36176948910000e-01
  1.28639979740000e-01
  3.77500000000000e+00
  1.30000000000000e+00
  4.44000000000000e-01
  2.66600000000000e+00
  8.59000000000000e-01
  1.84600000000000e+00
  1.16506469080000e+05
  1.75043497240000e+04
  3.99345132300000e+03
  1.13300631860000e+03
  3.69995695940000e+02
  1.33620743490000e+02
  5.20356436490000e+01
  2.14619393130000e+01
  8.98350512520000e+01
  2.64280108440000e+01
  9.28228246490000e+00
  4.09477285330000e+00
  1.32553490780000e+00
  5.18772307870000e-01
  1.97726764540000e-01
  1.91152558100000e+02
  4.52333567390000e+01
  1.43534659220000e+01
  5.24223718320000e+00
  2.07924185990000e+00
  8.42823714240000e-01
  3.36176948910000e-01
  1.28639979740000e-01
  3.77500000000000e+00
  1.30000000000000e+00
  4.44000000000000e-01
  2.66600000000000e+00
  8.59000000000000e-01
  1.84600000000000e+00
  1.16506469080000e+05
  1.75043497240000e+04
  3.99345132300000e+03
  1.13300631860000e+03
  3.69995695940000e+02
  1.33620743490000e+02
  5.20356436490000e+01
  2.14619393130000e+01
  8.98350512520000e+01
  2.64280108440000e+01
  9.28228246490000e+00
  4.09477285330000e+00
  1.32553490780000e+00
  5.18772307870000e-01
  1.97726764540000e-01
  1.91152558100000e+02
  4.52333567390000e+01
  1.43534659220000e+01
  5.24223718320000e+00
  2.07924185990000e+00
  8.42823714240000e-01
  3.36176948910000e-01
  1.28639979740000e-01
  3.77500000000000e+00
  1.30000000000000e+00
  4.44000000000000e-01
  2.66600000000000e+00
  8.59000000000000e-01
  1.84600000000000e+00
  1.16506469080000e+05
  1.75043497240000e+04
  3.99345132300000e+03
  1.13300631860000e+03
  3.69995695940000e+02
  1.33620743490000e+02
  5.20356436490000e+01
  2.14619393130000e+01
  8.98350512520000e+01
  2.64280108440000e+01
  9.28228246490000e+00
  4.09477285330000e+00
  1.32553490780000e+00
  5.18772307870000e-01
  1.97726764540000e-01
  1.91152558100000e+02
  4.52333567390000e+01
  1.43534659220000e+01
  5.24223718320000e+00
  2.07924185990000e+00
  8.42823714240000e-01
  3.36176948910000e-01
  1.28639979740000e-01
  3.77500000000000e+00
  1.30000000000000e+00
  4.44000000000000e-01
  2.66600000000000e+00
  8.59000000000000e-01
  1.84600000000000e+00
  1.16506469080000e+05
  1.75043497240000e+04
  3.99345132300000e+03
  1.13300631860000e+03
  3.69995695940000e+02
  1.33620743490000e+02
  5.20356436490000e+01
  2.14619393130000e+01
  8.98350512520000e+01
  2.64280108440000e+01
  9.28228246490000e+00
  4.09477285330000e+00
  1.32553490780000e+00
  5.18772307870000e-01
  1.97726764540000e-01
  1.91152558100000e+02
  4.52333567390000e+01
  1.43534659220000e+01
  5.24223718320000e+00
  2.07924185990000e+00
  8.42823714240000e-01
  3.36176948910000e-01
  1.28639979740000e-01
  3.77500000000000e+00
  1.30000000000000e+00
  4.44000000000000e-01
  2.66600000000000e+00
  8.59000000000000e-01
  1.84600000000000e+00
  1.16506469080000e+05
  1.75043497240000e+04
  3.99345132300000e+03
  1.13300631860000e+03
  3.69995695940000e+02
  1.33620743490000e+02
  5.20356436490000e+01
  2.14619393130000e+01
  8.98350512520000e+01
  2.64280108440000e+01
  9.28228246490000e+00
  4.09477285330000e+00
  1.32553490780000e+00
  5.18772307870000e-01
  1.97726764540000e-01
  1.91152558100000e+02
  4.52333567390000e+01
  1.43534659220000e+01
  5.24223718320000e+00
  2.07924185990000e+00
  8.42823714240000e-01
  3.36176948910000e-01
  1.28639979740000e-01
  3.77500000000000e+00
  1.30000000000000e+00
  4.44000000000000e-01
  2.66600000000000e+00
  8.59000000000000e-01
  1.84600000000000e+00
  1.16506469080000e+05
  1.75043497240000e+04
  3.99345132300000e+03
  1.13300631860000e+03
  3.69995695940000e+02
  1.33620743490000e+02
  5.20356436490000e+01
  2.14619393130000e+01
  8.98350512520000e+01
  2.64280108440000e+01
  9.28228246490000e+00
  4.09477285330000e+00
  1.32553490780000e+00
  5.18772307870000e-01
  1.97726764540000e-01
  1.91152558100000e+02
  4.52333567390000e+01
  1.43534659220000e+01
  5.24223718320000e+00
  2.07924185990000e+00
  8.42823714240000e-01
  3.36176948910000e-01
  1.28639979740000e-01
  3.77500000000000e+00
  1.30000000000000e+00
  4.44000000000000e-01
  2.66600000000000e+00
  8.59000000000000e-01
  1.84600000000000e+00
  1.16506469080000e+05
  1.75043497240000e+04
  3.99345132300000e+03
  1.13300631860000e+03
  3.69995695940000e+02
  1.33620743490000e+02
  5.20356436490000e+01
  2.14619393130000e+01
  8.98350512520000e+01
  2.64280108440000e+01
  9.28228246490000e+00
  4.09477285330000e+00
  1.32553490780000e+00
  5.18772307870000e-01
  1.97726764540000e-01
  1.91152558100000e+02
  4.52333567390000e+01
  1.43534659220000e+01
  5.24223718320000e+00
  2.07924185990000e+00
  8.42823714240000e-01
  3.36176948910000e-01
  1.28639979740000e-01
  3.77500000000000e+00
  1.30000000000000e+00
  4.44000000000000e-01
  2.66600000000000e+00
  8.59000000000000e-01
  1.84600000000000e+00
  1.16506469080000e+05
  1.75043497240000e+04
  3.99345132300000e+03
  1.13300631860000e+03
  3.69995695940000e+02
  1.33620743490000e+02
  5.20356436490000e+01
  2.14619393130000e+01
  8.98350512520000e+01
  2.64280108440000e+01
  9.28228246490000e+00
  4.09477285330000e+00
  1.32553490780000e+00
  5.18772307870000e-01
  1.97726764540000e-01
  1.91152558100000e+02
  4.52333567390000e+01
  1.43534659220000e+01
  5.24223718320000e+00
  2.07924185990000e+00
  8.42823714240000e-01
  3.36176948910000e-01
  1.28639979740000e-01
  3.77500000000000e+00
  1.30000000000000e+00
  4.44000000000000e-01
  2.66600000000000e+00
  8.59000000000000e-01
  1.84600000000000e+00
  1.16506469080000e+05
  1.75043497240000e+04
  3.99345132300000e+03
  1.13300631860000e+03
  3.69995695940000e+02
  1.33620743490000e+02
  5.20356436490000e+01
  2.14619393130000e+01
  8.98350512520000e+01
  2.64280108440000e+01
  9.28228246490000e+00
  4.09477285330000e+00
  1.32553490780000e+00
  5.18772307870000e-01
  1.97726764540000e-01
  1.91152558100000e+02
  4.52333567390000e+01
  1.43534659220000e+01
  5.24223718320000e+00
  2.07924185990000e+00
  8.42823714240000e-01
  3.36176948910000e-01
  1.28639979740000e-01
  3.77500000000000e+00
  1.30000000000000e+00
  4.44000000000000e-01
  2.66600000000000e+00
  8.59000000000000e-01
  1.84600000000000e+00

  2.10753625593756e-01
  3.94420453180463e-01
  6.81488673339914e-01
  1.10750264031282e+00
  1.69021574844253e+00
  2.37164649255442e+00
  2.87990493125616e+00
  2.75119584155661e+00
  1.27954700675913e+00
  5.11031941001511e+00
  2.46850014075040e+00
  1.32696091938732e+00
  5.43512827613698e-01
  2.71383902660290e-01
  1.33708740226501e-01
  1.19787942253799e+00
  1.54852090278742e+00
  1.66747448854949e+00
  1.54965178789794e+00
  1.15759388345848e+00
  5.40736498311229e-01
  1.78071444371519e-01
  5.68645084492531e-02
  4.82100851162461e+00
  7.72391837520708e-01
  1.23821322548459e-01
  3.23530209875761e+00
  2.88983709509175e-01
  1.14683543468607e+00
  2.57226323061032e-01
  4.82046798727303e-01
  8.35598690668546e-01
  1.36636575285047e+00
  2.12753351426577e+00
  3.13546646974985e+00
  4.27633913736539e+00
  5.09689862583897e+00
  4.79622107294527e+00
  2.87469778823108e+00
  9.87018482399258e-01
  3.40129311232691e+00
  5.29074637777286e+00
  3.94928493795792e+00
  1.83945870699884e+00
  9.87698457309665e-01
  5.25077182598192e-01
  1.66215856718395e-01
  9.34622888241072e-02
  5.10826233355890e-02
  2.51582602315196e+00
  3.54972184579634e+00
  4.50231968832641e+00
  4.91694775076965e+00
  4.40377855233830e+00
  2.89703480206181e+00
  1.31284892365757e+00
  3.43400803309903e-01
  3.92177291062833e-01
  1.78758410625548e-01
  5.55544751816923e-02
  1.72214947988116e-02
  1.71012621172510e+01
  7.74475761458575e-01
  9.84491449611383e-02
  9.31998702099698e-03
  2.38355079066967e-02
  2.57226323061032e-01
  4.82046798727303e-01
  8.35598690668546e-01
  1.36636575285047e+00
  2.12753351426577e+00
  3.13546646974985e+00
  4.27633913736539e+00
  5.09689862583897e+00
  4.79622107294527e+00
  2.87469778823108e+00
  9.87018482399258e-01
  3.40129311232691e+00
  5.29074637777286e+00
  3.94928493795792e+00
  1.83945870699884e+00
  9.87698457309665e-01
  5.25077182598192e-01
  1.66215856718395e-01
  9.34622888241072e-02
  5.10826233355890e-02
  2.51582602315196e+00
  3.54972184579634e+00
  4.50231968832641e+00
  4.91694775076965e+00
  4.40377855233830e+00
  2.89703480206181e+00
  1.31284892365757e+00
  3.43400803309903e-01
  3.92177291062833e-01
  1.78758410625548e-01
  5.55544751816923e-02
  1.72214947988116e-02
  1.71012621172510e+01
  7.74475761458575e-01
  9.84491449611383e-02
  9.31998702099698e-03
  2.38355079066967e-02
  2.57226323061032e-01
  4.82046798727303e-01
  8.35598690668546e-01
  1.36636575285047e+00
  2.12753351426577e+00
  3.13546646974985e+00
  4.27633913736539e+00
  5.09689862583897e+00
  4.79622107294527e+00
  2.87469778823108e+00
  9.87018482399258e-01
  3.40129311232691e+00
  5.29074637777286e+00
  3.94928493795792e+00
  1.83945870699884e+00
  9.87698457309665e-01
  5.25077182598192e-01
  1.66215856718395e-01
  9.34622888241072e-02
  5.10826233355890e-02
  2.51582602315196e+00
  3.54972184579634e+00
  4.50231968832641e+00
  4.91694775076965e+00
  4.40377855233830e+00
  2.89703480206181e+00
  1.31284892365757e+00
  3.43400803309903e-01
  3.92177291062833e-01
  1.78758410625548e-01
  5.55544751816923e-02
  1.72214947988116e-02
  1.71012621172510e+01
  7.74475761458575e-01
  9.84491449611383e-02
  9.31998702099698e-03
  2.38355079066967e-02
  2.57226323061032e-01
  4.82046798727303e-01
  8.35598690668546e-01
  1.36636575285047e+00
  2.12753351426577e+00
  3.13546646974985e+00
  4.27633913736539e+00
  5.09689862583897e+00
  4.79622107294527e+00
  2.87469778823108e+00
  9.87018482399258e-01
  3.40129311232691e+00
  5.29074637777286e+00
  3.94928493795792e+00
  1.83945870699884e+00
  9.87698457309665e-01
  5.25077182598192e-01
  1.66215856718395e-01
  9.34622888241072e-02
  5.10826233355890e-02
  2.51582602315196e+00
  3.54972184579634e+00
  4.50231968832641e+00
  4.91694775076965e+00
  4.40377855233830e+00
  2.89703480206181e+00
  1.31284892365757e+00
  3.43400803309903e-01
  3.92177291062833e-01
  1.78758410625548e-01
  5.55544751816923e-02
  1.72214947988116e-02
  1.71012621172510e+01
  7.74475761458575e-01
  9.84491449611383e-02
  9.31998702099698e-03
  2.38355079066967e-02
  2.57226323061032e-01
  4.82046798727303e-01
  8.35598690668546e-01
  1.36636575285047e+00
  2.12753351426577e+00
  3.13546646974985e+00
  4.27633913736539e+00
  5.09689862583897e+00
  4.79622107294527e+00
  2.87469778823108e+00
  9.87018482399258e-01
  3.40129311232691e+00
  5.29074637777286e+00
  3.94928493795792e+00
  1.83945870699884e+00
  9.87698457309665e-01
  5.25077182598192e-01
  1.66215856718395e-01
  9.34622888241072e-02
  5.10826233355890e-02
  2.51582602315196e+00
  3.54972184579634e+00
  4.50231968832641e+00
  4.91694775076965e+00
  4.40377855233830e+00
  2.89703480206181e+00
  1.31284892365757e+00
  3.43400803309903e-01
  3.92177291062833e-01
  1.78758410625548e-01
  5.55544751816923e-02
  1.72214947988116e-02
  1.71012621172510e+01
  7.74475761458575e-01
  9.84491449611383e-02
  9.31998702099698e-03
  2.38355079066967e-02
  2.57226323061032e-01
  4.82046798727303e-01
  8.35598690668546e-01
  1.36636575285047e+00
  2.12753351426577e+00
  3.13546646974985e+00
  4.27633913736539e+00
  5.09689862583897e+00
  4.79622107294527e+00
  2.87469778823108e+00
  9.87018482399258e-01
  3.40129311232691e+00
  5.29074637777286e+00
  3.94928493795792e+00
  1.83945870699884e+00
  9.87698457309665e-01
  5.25077182598192e-01
  1.66215856718395e-01
  9.34622888241072e-02
  5.10826233355890e-02
  2.51582602315196e+00
  3.54972184579634e+00
  4.50231968832641e+00
  4.91694775076965e+00
  4.40377855233830e+00
  2.89703480206181e+00
  1.31284892365757e+00
  3.43400803309903e-01
  3.92177291062833e-01
  1.78758410625548e-01
  5.55544751816923e-02
  1.72214947988116e-02
  1.71012621172510e+01
  7.74475761458575e-01
  9.84491449611383e-02
  9.31998702099698e-03
  2.38355079066967e-02
  2.57226323061032e-01
  4.82046798727303e-01
  8.35598690668546e-01
  1.36636575285047e+00
  2.12753351426577e+00
  3.13546646974985e+00
  4.27633913736539e+00
  5.09689862583897e+00
  4.79622107294527e+00
  2.87469778823108e+00
  9.87018482399258e-01
  3.40129311232691e+00
  5.29074637777286e+00
  3.94928493795792e+00
  1.83945870699884e+00
  9.87698457309665e-01
  5.25077182598192e-01
  1.66215856718395e-01
  9.34622888241072e-02
  5.10826233355890e-02
  2.51582602315196e+00
  3.54972184579634e+00
  4.50231968832641e+00
  4.91694775076965e+00
  4.40377855233830e+00
  2.89703480206181e+00
  1.31284892365757e+00
  3.43400803309903e-01
  3.92177291062833e-01
  1.78758410625548e-01
  5.55544751816923e-02
  1.72214947988116e-02
  1.71012621172510e+01
  7.74475761458575e-01
  9.84491449611383e-02
  9.31998702099698e-03
  2.38355079066967e-02
  2.57226323061032e-01
  4.82046798727303e-01
  8.35598690668546e-01
  1.36636575285047e+00
  2.12753351426577e+00
  3.13546646974985e+00
  4.27633913736539e+00
  5.09689862583897e+00
  4.79622107294527e+00
  2.87469778823108e+00
  9.87018482399258e-01
  3.40129311232691e+00
  5.29074637777286e+00
  3.94928493795792e+00
  1.83945870699884e+00
  9.87698457309665e-01
  5.25077182598192e-01
  1.66215856718395e-01
  9.34622888241072e-02
  5.10826233355890e-02
  2.51582602315196e+00
  3.54972184579634e+00
  4.50231968832641e+00
  4.91694775076965e+00
  4.40377855233830e+00
  2.89703480206181e+00
  1.31284892365757e+00
  3.43400803309903e-01
  3.92177291062833e-01
  1.78758410625548e-01
  5.55544751816923e-02
  1.72214947988116e-02
  1.71012621172510e+01
  7.74475761458575e-01
  9.84491449611383e-02
  9.31998702099698e-03
  2.38355079066967e-02
  2.57226323061032e-01
  4.82046798727303e-01
  8.35598690668546e-01
  1.36636575285047e+00
  2.12753351426577e+00
  3.13546646974985e+00
  4.27633913736539e+00
  5.09689862583897e+00
  4.79622107294527e+00
  2.87469778823108e+00
  9.87018482399258e-01
  3.40129311232691e+00
  5.29074637777286e+00
  3.94928493795792e+00
  1.83945870699884e+00
  9.87698457309665e-01
  5.25077182598192e-01
  1.66215856718395e-01
  9.34622888241072e-02
  5.10826233355890e-02
  2.51582602315196e+00
  3.54972184579634e+00
  4.50231968832641e+00
  4.91694775076965e+00
  4.40377855233830e+00
  2.89703480206181e+00
  1.31284892365757e+00
  3.43400803309903e-01
  3.92177291062833e-01
  1.78758410625548e-01
  5.55544751816923e-02
  1.72214947988116e-02
  1.71012621172510e+01
  7.74475761458575e-01
  9.84491449611383e-02
  9.31998702099698e-03
  2.38355079066967e-02
  2.57226323061032e-01
  4.82046798727303e-01
  8.35598690668546e-01
  1.36636575285047e+00
  2.12753351426577e+00
  3.13546646974985e+00
  4.27633913736539e+00
  5.09689862583897e+00
  4.79622107294527e+00
  2.87469778823108e+00
  9.87018482399258e-01
  3.40129311232691e+00
  5.29074637777286e+00
  3.94928493795792e+00
  1.83945870699884e+00
  9.87698457309665e-01
  5.25077182598192e-01
  1.66215856718395e-01
  9.34622888241072e-02
  5.10826233355890e-02
  2.51582602315196e+00
  3.54972184579634e+00
  4.50231968832641e+00
  4.91694775076965e+00
  4.40377855233830e+00
  2.89703480206181e+00
  1.31284892365757e+00
  3.43400803309903e-01
  3.92177291062833e-01
  1.78758410625548e-01
  5.55544751816923e-02
  1.72214947988116e-02
  1.71012621172510e+01
  7.74475761458575e-01
  9.84491449611383e-02
  9.31998702099698e-03
  2.38355079066967e-02
  2.57226323061032e-01
  4.82046798727303e-01
  8.35598690668546e-01
  1.36636575285047e+00
  2.12753351426577e+00
  3.13546646974985e+00
  4.27633913736539e+00
  5.09689862583897e+00
  4.79622107294527e+00
  2.87469778823108e+00
  9.87018482399258e-01
  3.40129311232691e+00
  5.29074637777286e+00
  3.94928493795792e+00
  1.83945870699884e+00
  9.87698457309665e-01
  5.25077182598192e-01
  1.66215856718395e-01
  9.34622888241072e-02
  5.10826233355890e-02
  2.51582602315196e+00
  3.54972184579634e+00
  4.50231968832641e+00
  4.91694775076965e+00
  4.40377855233830e+00
  2.89703480206181e+00
  1.31284892365757e+00
  3.43400803309903e-01
  3.92177291062833e-01
  1.78758410625548e-01
  5.55544751816923e-02
  1.72214947988116e-02
  1.71012621172510e+01
  7.74475761458575e-01
  9.84491449611383e-02
  9.31998702099698e-03
  2.38355079066967e-02
  2.57226323061032e-01
  4.82046798727303e-01
  8.35598690668546e-01
  1.36636575285047e+00
  2.12753351426577e+00
  3.13546646974985e+00
  4.27633913736539e+00
  5.09689862583897e+00
  4.79622107294527e+00
  2.87469778823108e+00
  9.87018482399258e-01
  3.40129311232691e+00
  5.29074637777286e+00
  3.94928493795792e+00
  1.83945870699884e+00
  9.87698457309665e-01
  5.25077182598192e-01
  1.66215856718395e-01
  9.34622888241072e-02
  5.10826233355890e-02
  2.51582602315196e+00
  3.54972184579634e+00
  4.50231968832641e+00
  4.91694775076965e+00
  4.40377855233830e+00
  2.89703480206181e+00
  1.31284892365757e+00
  3.43400803309903e-01
  3.92177291062833e-01
  1.78758410625548e-01
  5.55544751816923e-02
  1.72214947988116e-02
  1.71012621172510e+01
  7.74475761458575e-01
  9.84491449611383e-02
  9.31998702099698e-03
  2.38355079066967e-02
  2.57226323061032e-01
  4.82046798727303e-01
  8.35598690668546e-01
  1.36636575285047e+00
  2.12753351426577e+00
  3.13546646974985e+00
  4.27633913736539e+00
  5.09689862583897e+00
  4.79622107294527e+00
  2.87469778823108e+00
  9.87018482399258e-01
  3.40129311232691e+00
  5.29074637777286e+00
  3.94928493795792e+00
  1.83945870699884e+00
  9.87698457309665e-01
  5.25077182598192e-01
  1.66215856718395e-01
  9.34622888241072e-02
  5.10826233355890e-02
  2.51582602315196e+00
  3.54972184579634e+00
  4.50231968832641e+00
  4.91694775076965e+00
  4.40377855233830e+00
  2.89703480206181e+00
  1.31284892365757e+00
  3.43400803309903e-01
  3.92177291062833e-01
  1.78758410625548e-01
  5.55544751816923e-02
  1.72214947988116e-02
  1.71012621172510e+01
  7.74475761458575e-01
  9.84491449611383e-02
  9.31998702099698e-03
  2.38355079066967e-02
  2.57226323061032e-01
  4.82046798727303e-01
  8.35598690668546e-01
  1.36636575285047e+00
  2.12753351426577e+00
  3.13546646974985e+00
  4.27633913736539e+00
  5.09689862583897e+00
  4.79622107294527e+00
  2.87469778823108e+00
  9.87018482399258e-01
  3.40129311232691e+00
  5.29074637777286e+00
  3.94928493795792e+00
  1.83945870699884e+00
  9.87698457309665e-01
  5.25077182598192e-01
  1.66215856718395e-01
  9.34622888241072e-02
  5.10826233355890e-02
  2.51582602315196e+00
  3.54972184579634e+00
  4.50231968832641e+00
  4.91694775076965e+00
  4.40377855233830e+00
  2.89703480206181e+00
  1.31284892365757e+00
  3.43400803309903e-01
  3.92177291062833e-01
  1.78758410625548e-01
  5.55544751816923e-02
  1.72214947988116e-02
  1.71012621172510e+01
  7.74475761458575e-01
  9.84491449611383e-02
  9.31998702099698e-03
  2.38355079066967e-02
  2.57226323061032e-01
  4.82046798727303e-01
  8.35598690668546e-01
  1.36636575285047e+00
  2.12753351426577e+00
  3.13546646974985e+00
  4.27633913736539e+00
  5.09689862583897e+00
  4.79622107294527e+00
  2.87469778823108e+00
  9.87018482399258e-01
  3.40129311232691e+00
  5.29074637777286e+00
  3.94928493795792e+00
  1.83945870699884e+00
  9.87698457309665e-01
  5.25077182598192e-01
  1.66215856718395e-01
  9.34622888241072e-02
  5.10826233355890e-02
  2.51582602315196e+00
  3.54972184579634e+00
  4.50231968832641e+00
  4.91694775076965e+00
  4.40377855233830e+00
  2.89703480206181e+00
  1.31284892365757e+00
  3.43400803309903e-01
  3.92177291062833e-01
  1.78758410625548e-01
  5.55544751816923e-02
  1.72214947988116e-02
  1.71012621172510e+01
  7.74475761458575e-01
  9.84491449611383e-02
  9.31998702099698e-03
  2.38355079066967e-02
  2.57226323061032e-01
  4.82046798727303e-01
  8.35598690668546e-01
  1.36636575285047e+00
  2.12753351426577e+00
  3.13546646974985e+00
  4.27633913736539e+00
  5.09689862583897e+00
  4.79622107294527e+00
  2.87469778823108e+00
  9.87018482399258e-01
  3.40129311232691e+00
  5.29074637777286e+00
  3.94928493795792e+00
  1.83945870699884e+00
  9.87698457309665e-01
  5.25077182598192e-01
  1.66215856718395e-01
  9.34622888241072e-02
  5.10826233355890e-02
  2.51582602315196e+00
  3.54972184579634e+00
  4.50231968832641e+00
  4.91694775076965e+00
  4.40377855233830e+00
  2.89703480206181e+00
  1.31284892365757e+00
  3.43400803309903e-01
  3.92177291062833e-01
  1.78758410625548e-01
  5.55544751816923e-02
  1.72214947988116e-02
  1.71012621172510e+01
  7.74475761458575e-01
  9.84491449611383e-02
  9.31998702099698e-03
  2.38355079066967e-02
  2.57226323061032e-01
  4.82046798727303e-01
  8.35598690668546e-01
  1.36636575285047e+00
  2.12753351426577e+00
  3.13546646974985e+00
  4.27633913736539e+00
  5.09689862583897e+00
  4.79622107294527e+00
  2.87469778823108e+00
  9.87018482399258e-01
  3.40129311232691e+00
  5.29074637777286e+00
  3.94928493795792e+00
  1.83945870699884e+00
  9.87698457309665e-01
  5.25077182598192e-01
  1.66215856718395e-01
  9.34622888241072e-02
  5.10826233355890e-02
  2.51582602315196e+00
  3.54972184579634e+00
  4.50231968832641e+00
  4.91694775076965e+00
  4.40377855233830e+00
  2.89703480206181e+00
  1.31284892365757e+00
  3.43400803309903e-01
  3.92177291062833e-01
  1.78758410625548e-01
[...]
 2.96903 2.96903 2.97475 2.97554 2.98443 2.98443 2.98465 2.98696 2.99003 2.99003
 2.99072 2.99720 3.00153 3.01473 3.01611 3.01611 3.02629 3.04957 3.07018 3.07018
 3.08176 3.08857 3.08857 3.08897 3.09454 3.11032 3.11176 3.11302 3.11982 3.11983
 3.12412 3.13255 3.13255 3.13358 3.13358 3.14275 3.15418 3.16028 3.16178 3.16179
 3.16472 3.16854 3.16858 3.17337 3.17995 3.18423 3.18423 3.18512 3.18793 3.18793
 3.18839 3.19202 3.19256 3.19256 3.19332 3.20376 3.20677 3.20677 3.20716 3.24235
 3.24380 3.24501 3.24501 3.24910 3.25061 3.25219 3.25220 3.25406 3.26707 3.27422
 3.27422 3.27590 3.27724 3.29062 3.30395 3.31071 3.31377 3.32025 3.32025 3.32658
 3.33789 3.33790 3.34791 3.34791 3.35202 3.36911 3.37792 3.37792 3.38719 3.38758
 3.38758 3.38922 3.38996 3.39115 3.39115 3.39249 3.39275 3.39328 3.39328 3.39521
 3.39541 3.40206 3.40206 3.40428 3.40635 3.41215 3.41491 3.41729 3.41729 3.42311
 3.42433 3.42551 3.42613 3.42632 3.42632 3.42955 3.42955 3.43144 3.43621 3.43675
 3.43675 3.43689 3.43897 3.44729 3.44729 3.45079 3.45361 3.45551 3.45551 3.45806
 3.46228 3.46543 3.46543 3.47548 3.47679 3.47679 3.47891 3.48771 3.49104 3.49104
 3.49183 3.49780 3.51163 3.51349 3.51433 3.51433 3.51450 3.51916 3.51917 3.52562
 3.53061 3.53495 3.54058 3.54162 3.54162 3.54523 3.54725 3.55420 3.55421 3.55537
 3.55798 3.55852 3.56162 3.57078 3.57696 3.57696 3.58527 3.59849 3.59849 3.61140
 3.61425 3.62615 3.62830 3.63545 3.63545 3.63908 3.64171 3.64180 3.64180 3.64444
 3.64444 3.64727 3.65205 3.65923 3.65923 3.66181 3.66270 3.66274 3.66434 3.66434
 3.66610 3.67244 3.67284 3.67511 3.67511 3.67737 3.67737 3.67871 3.68073 3.68432
 3.68432 3.68500 3.69160 3.69160 3.69585 3.69735 3.69735 3.71324 3.71325 3.71477
 3.72067 3.72067 3.72125 3.72181 3.72210 3.72765 3.72766 3.72938 3.73052 3.73232
 3.73239 3.73239 3.73360 3.74193 3.74326 3.74326 3.74575 3.75083 3.75276 3.75276
 3.76171 3.76363 3.76363 3.77461 3.77523 3.78147 3.78825 3.78862 3.79637 3.79638
 3.79763 3.80138 3.80283 3.80284 3.80326 3.80880 3.80880 3.81078 3.81249 3.82885
 3.82886 3.82894 3.83089 3.83235 3.83236 3.83323 3.83557 3.83715 3.83716 3.83764
 3.83803 3.84288 3.84288 3.84488 3.84869 3.84870 3.84903 3.86048 3.86613 3.86613
 3.86679 3.87440 3.87442 3.87718 3.87832 3.87835 3.89151 3.89568 3.90014 3.90014
 3.90418 3.90647 3.91745 3.91745 3.91771 3.91947 3.91969 3.91969 3.92113 3.92113
 3.92656 3.92819 3.92819 3.93107 3.93421 3.93901 3.93992 3.93993 3.94058 3.94383
 3.95625 3.95625 3.95695 3.95716 3.95934 3.95934 3.96475 3.96475 3.96905 3.97446
 3.97446 3.98138 3.98285 3.98327 3.99194 4.00062 4.00476 4.02779 4.02779 4.03356
 4.04089 4.04280 4.04353 4.04353 4.04879 4.04887 4.05238 4.05239 4.05752 4.05752
 4.05822 4.06754 4.10319 4.11812 4.11812 4.12072 4.12409 4.16958 4.20777 4.20777
 4.21043 4.21050 4.21280 4.21564 4.21903 4.21903 4.22013 4.22013 4.22111 4.22455
 4.22645 4.23104 4.24334 4.24434 4.24434 4.24700 4.24700 4.26401 4.26993 4.28147
 4.28147 4.30633 4.31083 4.31126 4.31126 4.31358 4.31509 4.31509 4.31969 4.32612
 4.32612 4.32866 4.33851 4.34898 4.35615 4.35615 4.35907 4.36723 4.36850 4.37514
 4.37514 4.39284 4.40389 4.40497 4.40920 4.40944 4.40944 4.41229 4.41236 4.43888
 4.43888 4.45282 4.48790 4.48824 4.48890 4.48890 4.49298 4.51571 4.51571 4.51898
 4.52313 4.52337 4.52337 4.52438 4.53944 4.54034 4.54034 4.55873 4.57760 4.57760
 4.59370 4.60318 4.62699 4.62699 4.62751 4.63763 4.64166 4.64392 4.64486 4.64486
 4.64745 4.64745 4.65074 4.65074 4.65442 4.66972 4.67357 4.67536 4.67568 4.68136
 4.68136 4.68240 4.70137 4.70225 4.70285 4.70285 4.70704 4.70704 4.70849 4.71555
 4.71555 4.72195 4.72521 4.72570 4.72576 4.72646 4.72646 4.72961 4.73225 4.73372
 4.73372 4.74488 4.75312 4.75843 4.75973 4.75973 4.77109 4.77109 4.78374 4.79154
 4.79718 4.79990 4.79990 4.81053 4.81218 4.81924 4.81924 4.82153 4.82278 4.82278
 4.82354 4.82894 4.83383 4.83964 4.84238 4.84238 4.87675 4.87809 4.87809 4.88107
 4.88420 4.88420 4.88592 4.88978 4.89158 4.89324 4.89324 4.89403 4.89661 4.90395
 4.91017 4.91485 4.92517 4.92517 4.93193 4.93193 4.93391 4.93398 4.93398 4.94290
 4.95154 4.95270 4.95369 4.95369 4.95448 4.96026 4.97398 4.97398 4.97576 4.97751
 4.98027 4.98139 4.98139 4.98461 4.98998 4.99097 4.99341 4.99367 4.99541 4.99541
 5.01054 5.01512 5.02311 5.02660 5.02660 5.04646 5.05254 5.05340 5.05340 5.10057
 5.10057 5.10938 5.12657 5.12978 5.13438 5.13438 5.15732 5.16023 5.28478 5.28478
 5.67914 5.68006 5.68568 5.71870 5.76433 5.77535 5.78922 5.78922 5.81160 5.81160
 5.82334 5.82550 5.84446 5.84896 5.85102 5.85103 5.85822 5.86770 5.86950 5.87146
 5.87905 5.87905 5.88284 5.88312 5.88312 5.88991 5.89458 5.89988 5.89988 5.90288
 5.90288 5.90916 5.91622 5.91655 5.91655 5.94353 5.96134 5.96134 5.96961 5.97240
 5.97240 5.98671 6.02320 6.03901 6.03988 6.04968 6.04968 6.05410 6.05578 6.05863
 6.05863 6.06157 6.06181 6.06381 6.06481 6.06481 6.07130 6.07222 6.07375 6.07641
 6.07641 6.08375 6.08752 6.08753 6.09476 6.10461 6.10612 6.10612 6.11224 6.12201
 6.12201 6.15156 6.15855 6.16562 6.16562 6.16727 6.17601 6.19442 6.19668 6.19668
 6.20087 6.20994 6.21307 6.21307 6.21456 6.23250 6.23251 6.26004 6.30968 6.33148
 6.33520 6.33520 6.33819 6.35690 6.35690 6.35819 6.35856 6.36428 6.36430 6.37032
 6.37338 6.37338 6.38003 6.39924 6.39924 6.40138 6.40139 6.40705 6.47143 6.47143
 7.16814 7.57099 7.74887 7.74887 8.14949 8.23864 8.23882 8.23882 8.24338 8.24464
 8.24470 8.24501 8.24501 8.24664 8.25245 8.25290 8.25290 8.26444 8.27215 8.30345
 8.33806 8.33818 8.33971 8.33972 8.34446 8.34813 8.34813 8.34887 8.35390 8.35628
 8.35628 8.37048 8.37750 8.37755 8.38074 8.38074 8.38371 8.38371 8.38690 8.39289
 8.39618 8.39622 8.39680 8.39680 8.40406 8.40483 8.40483 8.40741 8.40751 8.40752
 8.40788 8.40899 8.40899 8.41129 8.41184 8.41195 8.41314 8.41773 8.41773 8.42097
 8.42749 8.42969 8.42969 8.43152 8.43357 8.43749 8.44480 8.44480 8.44499 8.44512
 8.44745 8.44745 8.45279 8.45279 8.45432 8.45970 8.45970 8.46381 8.46474 8.46596
 8.46634 8.46673 8.46762 8.46762 8.46870 8.46937 8.46937 8.46937 8.47174 8.47174
 8.47233 8.47306 8.47316 8.47850 8.47850 8.48040 8.48501 8.48501 8.49223 8.49279
 8.49279 8.49306 8.49993 8.49994 8.51105 8.51143 8.51143 8.51351 8.52452 8.53056
 8.53056 8.55813 8.55919 8.56189 8.56190 8.56442 8.56443 8.56448 8.59966 8.61899
 8.62109 8.62109 8.62393 8.66270 8.66299 8.66299 8.66322 8.66560 8.66664 8.66664
 8.67026 8.67026 8.67243 8.68084 8.69862 8.71143 8.72439 8.72843 8.72929 8.72929
 8.73904 8.74516 8.74572 8.76671 8.76671 8.77329 8.77353 8.77537 8.77619 8.77619
 8.77817 8.77970 8.79058 8.79058 8.79205 8.79228 8.79822 8.79958 8.79958 8.80203
 8.82226 8.82226 8.82243 8.82286 8.86079 8.87063 8.87822 8.87822 8.88320 8.88324
 8.88352 8.88352 8.88354 8.88360 8.88454 8.88454 8.88481 8.88536 8.88559 8.88586
 8.88586 8.88724 8.88727 8.88812 8.88823 8.88854 8.88854 8.88900 8.88900 8.88988
 8.88994 8.89021 8.89021 8.89079 8.89079 8.89149 8.89169 8.89170 8.89201 8.89201
 8.89239 8.89262 8.89262 8.89266 8.89337 8.89337 8.89592 8.89594 8.89595 8.89595
 8.89691 8.89691 8.89694 8.89717 8.89717 8.89721 8.89844 8.89846 8.89876 8.89876
 8.89893 8.89893 8.89899 8.89909 8.89939 8.89982 8.89995 8.89995 8.89997 8.90017
 8.90060 8.90060 8.90192 8.90192 8.90236 8.90288 8.90584 8.90612 8.90612 8.90655
 8.90673 8.91247 8.91247 8.91562 8.91603 8.91603 8.91658 8.91686 8.91694 8.91742
 8.91742 8.91768 8.91888 8.91962 8.92006 8.92006 8.92077 8.92108 8.92136 8.92142
 8.92191 8.92191 8.92199 8.92507 8.92507 8.92613 8.92638 8.92884 8.92923 8.92923
 8.92992 8.93004 8.93013 8.93013 8.93029 8.93038 8.93038 8.93113 8.93116 8.93118
 8.93118 8.93171 8.93191 8.93205 8.93205 8.93291 8.93502 8.93555 8.93556 8.93606
 8.93619 8.93619 8.93681 8.93681 8.93686 8.93891 8.93972 8.93972 8.94002 8.94010
 8.94093 8.94094 8.94500 8.94500 8.94551 8.94587 8.94662 8.94670 8.94684 8.94684
 8.94717 8.94745 8.94745 8.94919 8.94982 8.94982 8.95062 8.95062 8.95102 8.95139
 8.95481 8.95503 8.95503 8.95571 8.95687 8.95687 8.95723 8.95747 8.95801 8.95835
 8.95850 8.95850 8.95858 8.95946 8.95997 8.95997 8.96023 8.96117 8.96177 8.96177
 8.96192 8.96199 8.96438 8.96887 8.96887 8.97162 8.97167 8.97167 8.97177 8.97182
 8.97217 8.97281 8.97281 8.97351 8.97364 8.97462 8.97462 8.97511 8.97550 8.97550
 8.97843 8.97973 8.97993 8.98046 8.98104 8.98104 8.98120 8.98275 8.98375 8.98418
 8.98418 8.98538 8.98543 8.98543 8.98627 8.98822 8.98822 8.98848 8.98863 8.98874
 8.98913 8.98951 8.99082 8.99082 8.99239 8.99244 8.99387 8.99388 8.99388 8.99614
 8.99658 8.99673 8.99850 8.99867 8.99867 8.99943 9.00117 9.00117 9.00171 9.00281
 9.00306 9.00306 9.00634 9.00698 9.00743 9.00743 9.00855 9.01001 9.01027 9.01033
 9.01034 9.01057 9.01073 9.01073 9.01139 9.01160 9.01338 9.01449 9.01449 9.01473
 9.01545 9.01548 9.01548 9.01580 9.01622 9.01623 9.01623 9.01903 9.01954 9.01954
 9.02079 9.02269 9.02583 9.02583 9.02657 9.02691 9.02692 9.02810 9.03285 9.03361
 9.03361 9.03364 9.03723 9.03737 9.03892 9.03892 9.04159 9.04159 9.04164 9.04173
 9.04204 9.04292 9.04292 9.04305 9.09946 9.11862 9.75160 9.87656 9.88001 9.97344
 9.97359 9.97569 9.97569 10.03273 10.03328 10.03328 10.03981 10.13453 10.13453 10.13707
 10.14097 10.14322 10.14993 10.16649 10.18737 10.18737 10.23161 10.23161 10.23380 10.24833
 10.30173 10.33501 10.33501 10.34939 10.35723 10.52959 10.52959 10.53310 10.53488 10.59196
 10.59633 10.59633 10.62174 10.77195 10.83175 10.83175 10.99380 10.99380 10.99444 10.99574
 11.00597 11.00677 11.04691 11.04743 11.04743 11.04804 11.04967 11.04967 11.05041 11.05072
 11.05130 11.05174 11.05257 11.05257 11.06341 11.07035 11.07035 11.07309 11.07309 11.07412
 11.07428 11.07447 11.07472 11.07472 11.07523 11.07652 11.07790 11.07965 11.07965 11.08154
 11.08491 11.09194 11.09294 11.09358 11.09358 11.09717 11.09867 11.09877 11.09877 11.10032
 11.10126 11.10127 11.10127 11.10507 11.10558 11.10558 11.10744 11.12084 11.12419 11.12419
 11.12835 11.12846 11.12994 11.12994 11.13342 11.14443 11.14592 11.14733 11.14733 11.14823
 11.14858 11.14871 11.15007 11.15007 11.15618 11.17005 11.17364 11.17506 11.17506 11.19193
 11.19250 11.19714 11.19714 11.20090 11.20522 11.20745 11.20851 11.20851 11.21121 11.21121
 11.22207 11.22208 11.22219 11.22295 11.22298 11.22315 11.22315 11.22342 11.22469 11.22469
 11.22573 11.22573 11.22578 11.22582 11.22707 11.22707 11.22842 11.23383 11.23427 11.23500
 11.23500 11.23612 11.23684 11.23701 11.23828 11.23870 11.23870 11.24354 11.24454 11.24454
 11.24753 11.24790 11.24790 11.24878 11.24966 11.24990 11.25112 11.25197 11.25197 11.25279
 11.25299 11.25409 11.25410 11.25552 11.25662 11.25662 11.25943 11.25943 11.26350 11.26512
 11.26717 11.26717 11.26733 11.26874 11.27034 11.27034 11.27425 11.27850 11.27898 11.28018
 11.28018 11.28921 11.29073 11.29095 11.29095 11.29242 11.29242 11.29283 11.29473 11.29526
 11.29571 11.29571 11.29651 11.29715 11.29806 11.29806 11.30195 11.30325 11.30490 11.30490
 11.30514 11.30981 11.31601 11.31601 11.31635 11.32012 11.32012 11.32039 11.32221 11.32484
 11.32775 11.33144 11.33144 11.33228 11.33228 11.33239 11.34033 11.34742 11.34742 11.34931
 11.35072 11.35141 11.35178 11.35178 11.35202 11.35202 11.35770 11.35915 11.36026 11.36124
 11.36124 11.36563 11.36563 11.36875 11.37072 11.37072 11.37075 11.38825 11.39079 11.39079
 11.39871 11.41143 11.41144 11.41171 11.41558 11.41602 11.41616 11.41616 11.41952 11.41952
 11.42526 11.42785 11.42785 11.42982 11.43054 11.43054 11.43130 11.43339 11.43482 11.45967
 11.46902 11.47378 11.75479 11.75479 11.95473 11.96921 11.97495 12.15621 12.16188 12.21586
 12.21586 12.21738 12.21879 12.22044 12.22044 12.22755 12.22755 12.26854 12.27491 12.27492
 12.27721 12.30212 12.30495 12.30495 12.30781 12.31605 12.32045 12.32046 12.32141 12.32521
 12.32799 12.32799 12.32923 12.41176 12.41200 12.41200 12.41276 12.43020 12.43020 12.43357
 12.43442 12.44129 12.44456 12.44578 12.44578 12.44738 12.44738 12.45337 12.45630 12.45678
 12.45954 12.45954 12.47602 12.48454 12.48454 12.48593 12.48668 12.48668 12.49315 12.49688
 12.50394 12.50826 12.51017 12.51017 12.52128 12.52142 12.52393 12.52579 12.52579 12.52775
 12.52807 12.52807 12.52950 12.54122 12.54160 12.54442 12.54442 12.54613 12.55339 12.56452
 12.56452 12.56980 12.57094 12.57094 12.57223 12.59034 12.59720 12.59848 12.59958 12.59958
 12.60003 12.60057 12.61220 12.61220 12.62475 12.62511 12.62652 12.62652 12.64396 12.64429
 12.64457 12.64457 12.64772 12.64794 12.64794 12.64930 12.65072 12.65220 12.65220 12.65404
 12.65772 12.65772 12.65912 12.66007 12.66536 12.66536 12.66791 12.67772 12.68008 12.68008
 12.68361 12.70465 12.70465 12.70723 12.71458 12.71813 12.71885 12.72009 12.72009 12.72319
 12.72739 12.72739 12.73026 12.73894 12.74009 12.74028 12.75243 12.78170 12.78171 12.78336
 12.78617 12.78668 12.78668 12.78669 12.78679 12.79652 12.79757 12.79757 12.80170 12.80820
 12.80851 12.80851 12.81138 12.81471 12.81670 12.82015 12.82016 12.83817 12.83841 12.85097
 12.86920 12.89576 12.89576 12.91750 12.91792 12.91792 12.92259 13.38542 13.38542 13.76282
 13.76428 13.78190 13.78503 13.78503 13.79568 13.79759 13.79777 13.79854 13.79854 13.79938
 13.81747 13.82625 13.82625 13.83565 13.83912 13.83992 13.83992 13.86518 13.88050 13.88134
 13.88135 13.90568 13.95921 13.97208 13.97208 13.97427 13.97853 13.98443 13.99507 14.00607
 14.00608 14.05879 14.55880 28.03253 35.25232 35.25279 35.25431 35.25431 35.32823 35.32823
 35.33082 35.33354 35.41857 35.41857 35.42035 35.42253 35.43724 35.44596 35.47156 35.47156
 35.50236 35.50236 35.50254 35.50308 35.56260 35.58464 35.60543 35.74630 35.74630 35.74773
 35.75065 35.80453 35.80894 35.80894 35.82899 35.95696 47.86247 47.86443 47.87224 47.88124
 47.88124 47.88589 47.89348 47.89625 47.89625 47.89632 47.89803 47.89888 47.89925 47.89925
 47.90199 47.90989 47.91493 47.91494 47.92678 47.93473 47.94307 47.95798 47.95799 48.03027
 48.04389 48.04919 48.04919 48.05090 48.05493 48.05945 48.07770 48.07770 48.13872 146.71401
 196.58364 196.58492 196.58700 196.58700 196.73440 196.73440 196.73988 196.74327 196.89400 196.89400
 196.89762 196.90115 196.92246 196.93699 196.98328 196.98328 197.04254 197.04299 197.04299 197.04589
 197.14396 197.16516 197.19452 197.45699 197.45700 197.45951 197.46276 197.55841 197.56596 197.56596
 197.59668 197.82361 252.43369 252.43831 252.44072 252.44805 252.45779 252.45780 252.46976 252.47098
 252.47238 252.47238 252.47469 252.47536 252.47600 252.47600 252.47916 252.48582 252.49371 252.49371
 252.50784 252.51504 252.52942 252.54506 252.54506 252.64846 252.65485 252.65616 252.65616 252.65856
 252.66232 252.66742 252.68825 252.68825 252.76201
 ---------------------------------------------------------------------------
 VBM is at 0-th k-point with -2.44521 eV
 CBM is at 0-th k-point with 0.47705 eV
 Band gap is 2.92226 eV


           Ground-State Mulliken Net Atomic Charges

      Atom                 Charge (a.u.)          Spin (a.u.)
   --------------------------------------------------------
      1  C              (-0.226476,-0.000000)    (0.000000,0.000000)
      2 Mg               (0.737213,-0.000000)    (0.000000,0.000000)
      3 Mg               (0.794729,-0.000000)    (0.000000,0.000000)
      4 Mg               (0.758828,-0.000000)    (0.000000,0.000000)
      5 Mg               (0.758828,-0.000000)    (0.000000,0.000000)
      6 Mg               (0.758834,-0.000000)    (0.000000,0.000000)
      7 Mg               (0.758833,-0.000000)    (0.000000,0.000000)
      8 Mg               (0.794731,-0.000000)    (0.000000,0.000000)
      9 Mg               (0.758826,-0.000000)    (0.000000,0.000000)
     10 Mg               (0.794731,-0.000000)    (0.000000,0.000000)
     11 Mg               (0.758830,-0.000000)    (0.000000,0.000000)
     12 Mg               (0.737218,-0.000000)    (0.000000,0.000000)
     13 Mg               (0.794734,-0.000000)    (0.000000,0.000000)
     14 Mg               (0.758829,-0.000000)    (0.000000,0.000000)
     15 Mg               (0.737218,-0.000000)    (0.000000,0.000000)
     16 Mg               (0.758829,-0.000000)    (0.000000,0.000000)
     17 Mg               (0.737213,-0.000000)    (0.000000,0.000000)
     18 Mg               (1.524289,-0.000000)    (0.000000,0.000000)
     19 Mg               (0.797101,-0.000000)    (0.000000,0.000000)
     20 Mg               (0.794323,-0.000000)    (0.000000,0.000000)
     21 Mg               (0.662397,-0.000000)    (0.000000,0.000000)
     22 Mg               (0.797097,-0.000000)    (0.000000,0.000000)
     23 Mg               (0.662396,-0.000000)    (0.000000,0.000000)
     24 Mg               (0.818157,-0.000000)    (0.000000,0.000000)
     25 Mg               (0.818357,-0.000000)    (0.000000,0.000000)
     26 Mg               (0.818141,-0.000000)    (0.000000,0.000000)
     27 Mg               (0.818152,-0.000000)    (0.000000,0.000000)
     28 Mg               (0.797098,-0.000000)    (0.000000,0.000000)
     29 Mg               (0.662394,-0.000000)    (0.000000,0.000000)
     30 Mg               (0.797101,-0.000000)    (0.000000,0.000000)
     31 Mg               (0.818140,-0.000000)    (0.000000,0.000000)
     32 Mg               (0.818350,-0.000000)    (0.000000,0.000000)
     33 Mg               (0.662393,-0.000000)    (0.000000,0.000000)
     34  O              (-0.777666,-0.000000)    (0.000000,0.000000)
     35  O              (-0.775382,-0.000000)    (0.000000,0.000000)
     36  O              (-0.779698,-0.000000)    (0.000000,0.000000)
     37  O              (-0.775384,-0.000000)    (0.000000,0.000000)
     38  O              (-0.775381,-0.000000)    (0.000000,0.000000)
     39  O              (-0.774615,-0.000000)    (0.000000,0.000000)
     40  O              (-0.772901,-0.000000)    (0.000000,0.000000)
     41  O              (-0.772901,-0.000000)    (0.000000,0.000000)
     42  O              (-0.772901,-0.000000)    (0.000000,0.000000)
     43  O              (-0.777661,-0.000000)    (0.000000,0.000000)
     44  O              (-0.772900,-0.000000)    (0.000000,0.000000)
     45  O              (-0.777662,-0.000000)    (0.000000,0.000000)
     46  O              (-0.779699,-0.000000)    (0.000000,0.000000)
     47  O              (-0.740830,-0.000000)    (0.000000,0.000000)
     48  O              (-0.777664,-0.000000)    (0.000000,0.000000)
     49  O              (-0.775384,-0.000000)    (0.000000,0.000000)
     50  O              (-0.785765,-0.000000)    (0.000000,0.000000)
     51  O              (-0.775418,-0.000000)    (0.000000,0.000000)
     52  O              (-0.775418,-0.000000)    (0.000000,0.000000)
     53  O              (-0.775419,-0.000000)    (0.000000,0.000000)
     54  O              (-0.785765,-0.000000)    (0.000000,0.000000)
     55  O              (-0.775417,-0.000000)    (0.000000,0.000000)
     56  O              (-0.775418,-0.000000)    (0.000000,0.000000)
     57  O              (-0.775419,-0.000000)    (0.000000,0.000000)
     58  O              (-0.821421,-0.000000)    (0.000000,0.000000)
     59  O              (-0.821420,-0.000000)    (0.000000,0.000000)
     60  O              (-0.775419,-0.000000)    (0.000000,0.000000)
     61  O              (-0.775419,-0.000000)    (0.000000,0.000000)
     62  O              (-0.821422,-0.000000)    (0.000000,0.000000)
     63  O              (-0.821421,-0.000000)    (0.000000,0.000000)
     64  O              (-0.785765,-0.000000)    (0.000000,0.000000)
     65  O              (-0.785764,-0.000000)    (0.000000,0.000000)
     66  O              (-0.027116,-0.000000)    (0.000000,0.000000)
   --------------------------------------------------------
  Sum of atomic charges =     (-0.000000,-0.000000)
  Sum of spin   charges =       (0.000000,0.000000)



 Total job time:  9018.83 s.
 Mon Nov 24 01:18:48 2025


        *************************************************************
        *                                                           *
        *  Thank you very much for using QCPBC. Have a nice day.    *
        *                                                           *
        *************************************************************

Running job 1 of 1
