                  Welcome to Q-Chem
           with Periodic Boundary Condition
     A Quantum Leap Into The Future Of Chemistry

 Adam Rettig, Xintian Feng, Meng-Fu Chen, Hieu Dinh, Stephen Quiton,
 Anton Ni, Paul J. Robinson, Jinghong Zhang, Joonho Lee

Contributors to earlier versions of Q-Chem not listed above:
 Evgeny Epifanovsky, Leo Cunha, Jerome F. Gonthier, Kuan-Yu Liu
 Input file: /n/netscratch/joonholee_lab/Lab/hieudinh//si_444_ccpvdz_omega_0.9_111.scratch20250908154057/si_444_ccpvdz_omega_0.9_111.0
 Scratch folder: /n/netscratch/joonholee_lab/Lab/hieudinh//si_444_ccpvdz_omega_0.9_111.scratch20250908154057
 Auxillary files located at: /n/holylabs/LABS/joonholee_lab/Lab/qchem_base/qcaux
 Q-Chem begins on Mon Sep  8 15:40:58 2025

 -------------------------------------------------------------
 User input:
 -------------------------------------------------------------
 $lattice
 3
 0.000000 20.522400 20.522400
 20.522400 0.000000 20.522400
 20.522400 20.522400 0.000000
 $end
 
 $unitcell
 ABSOLUTE
 0 1
 Si 0.000000 0.000000 0.000000
 Si 2.565300 2.565300 2.565300
 Si 5.130600 5.130600 0.000000
 Si 7.695900 7.695900 2.565300
 Si 10.261200 10.261200 0.000000
 Si 12.826500 12.826500 2.565300
 Si 15.391800 15.391800 0.000000
 Si 17.957100 17.957100 2.565300
 Si 5.130600 0.000000 5.130600
 Si 7.695900 2.565300 7.695900
 Si 10.261200 5.130600 5.130600
 Si 12.826500 7.695900 7.695900
 Si 15.391800 10.261200 5.130600
 Si 17.957100 12.826500 7.695900
 Si 20.522400 15.391800 5.130600
 Si 23.087700 17.957100 7.695900
 Si 10.261200 0.000000 10.261200
 Si 12.826500 2.565300 12.826500
 Si 15.391800 5.130600 10.261200
 Si 17.957100 7.695900 12.826500
 Si 20.522400 10.261200 10.261200
 Si 23.087700 12.826500 12.826500
 Si 25.653000 15.391800 10.261200
 Si 28.218300 17.957100 12.826500
 Si 15.391800 0.000000 15.391800
 Si 17.957100 2.565300 17.957100
 Si 20.522400 5.130600 15.391800
 Si 23.087700 7.695900 17.957100
 Si 25.653000 10.261200 15.391800
 Si 28.218300 12.826500 17.957100
 Si 30.783600 15.391800 15.391800
 Si 33.348900 17.957100 17.957100
 Si 0.000000 5.130600 5.130600
 Si 2.565300 7.695900 7.695900
 Si 5.130600 10.261200 5.130600
 Si 7.695900 12.826500 7.695900
 Si 10.261200 15.391800 5.130600
 Si 12.826500 17.957100 7.695900
 Si 15.391800 20.522400 5.130600
 Si 17.957100 23.087700 7.695900
 Si 5.130600 5.130600 10.261200
 Si 7.695900 7.695900 12.826500
 Si 10.261200 10.261200 10.261200
 Si 12.826500 12.826500 12.826500
 Si 15.391800 15.391800 10.261200
 Si 17.957100 17.957100 12.826500
 Si 20.522400 20.522400 10.261200
 Si 23.087700 23.087700 12.826500
 Si 10.261200 5.130600 15.391800
 Si 12.826500 7.695900 17.957100
 Si 15.391800 10.261200 15.391800
 Si 17.957100 12.826500 17.957100
 Si 20.522400 15.391800 15.391800
 Si 23.087700 17.957100 17.957100
 Si 25.653000 20.522400 15.391800
 Si 28.218300 23.087700 17.957100
 Si 15.391800 5.130600 20.522400
 Si 17.957100 7.695900 23.087700
 Si 20.522400 10.261200 20.522400
 Si 23.087700 12.826500 23.087700
 Si 25.653000 15.391800 20.522400
 Si 28.218300 17.957100 23.087700
 Si 30.783600 20.522400 20.522400
 Si 33.348900 23.087700 23.087700
 Si 0.000000 10.261200 10.261200
 Si 2.565300 12.826500 12.826500
 Si 5.130600 15.391800 10.261200
 Si 7.695900 17.957100 12.826500
 Si 10.261200 20.522400 10.261200
 Si 12.826500 23.087700 12.826500
 Si 15.391800 25.653000 10.261200
 Si 17.957100 28.218300 12.826500
 Si 5.130600 10.261200 15.391800
 Si 7.695900 12.826500 17.957100
 Si 10.261200 15.391800 15.391800
 Si 12.826500 17.957100 17.957100
 Si 15.391800 20.522400 15.391800
 Si 17.957100 23.087700 17.957100
 Si 20.522400 25.653000 15.391800
 Si 23.087700 28.218300 17.957100
 Si 10.261200 10.261200 20.522400
 Si 12.826500 12.826500 23.087700
 Si 15.391800 15.391800 20.522400
 Si 17.957100 17.957100 23.087700
 Si 20.522400 20.522400 20.522400
 Si 23.087700 23.087700 23.087700
 Si 25.653000 25.653000 20.522400
 Si 28.218300 28.218300 23.087700
 Si 15.391800 10.261200 25.653000
 Si 17.957100 12.826500 28.218300
 Si 20.522400 15.391800 25.653000
 Si 23.087700 17.957100 28.218300
 Si 25.653000 20.522400 25.653000
 Si 28.218300 23.087700 28.218300
 Si 30.783600 25.653000 25.653000
 Si 33.348900 28.218300 28.218300
 Si 0.000000 15.391800 15.391800
 Si 2.565300 17.957100 17.957100
 Si 5.130600 20.522400 15.391800
 Si 7.695900 23.087700 17.957100
 Si 10.261200 25.653000 15.391800
 Si 12.826500 28.218300 17.957100
 Si 15.391800 30.783600 15.391800
 Si 17.957100 33.348900 17.957100
 Si 5.130600 15.391800 20.522400
 Si 7.695900 17.957100 23.087700
 Si 10.261200 20.522400 20.522400
 Si 12.826500 23.087700 23.087700
 Si 15.391800 25.653000 20.522400
 Si 17.957100 28.218300 23.087700
 Si 20.522400 30.783600 20.522400
 Si 23.087700 33.348900 23.087700
 Si 10.261200 15.391800 25.653000
 Si 12.826500 17.957100 28.218300
 Si 15.391800 20.522400 25.653000
 Si 17.957100 23.087700 28.218300
 Si 20.522400 25.653000 25.653000
 Si 23.087700 28.218300 28.218300
 Si 25.653000 30.783600 25.653000
 Si 28.218300 33.348900 28.218300
 Si 15.391800 15.391800 30.783600
 Si 17.957100 17.957100 33.348900
 Si 20.522400 20.522400 30.783600
 Si 23.087700 23.087700 33.348900
 Si 25.653000 25.653000 30.783600
 Si 28.218300 28.218300 33.348900
 Si 30.783600 30.783600 30.783600
 Si 33.348900 33.348900 33.348900
 $end
 
 $rem
 jobtype = sp
 method = pbe
 scf_convergence = 5
 scf_guess = autosad
 scf_algorithm = diis_gdm
 basis = cc-pvdz
 aux_basis = cc-pvtz-jk
 input_bohr = true
 symmetry false
 latsum_factor 1.0
 
 mp_mesh = [1,1,1]
 
 integral_direct true
 bvk_cgto true
 
 thresh 14
 mem_total 1000000
 threads 32
 
 MAX_SCF_CYCLES 3
 madelung = false
 omega 0.9
 do_rij_bigmem true
 automate_g true
 print_level 10
 rsdf_print_level 10
 grid_type_xc 1
 
 thresh_1e2c_sp 1e-14
 thresh_2e3c_bra_ket_sep 1e-10
 thresh_g 1e-12
 $end
 
 -------------------------------------------------------------
 Running PBC job

 Requested Exchange Correlation Functionals: 
  DFT Exchange:  1.00000 pbe_x
  DFT Correlation:  1.00000 pbe_c
 using 32 threads for computing.
 ---------------------------------------------------------------
      Coordinates of Atoms in Central Unit Cell (Angstroms)
    I     Atom         X            Y            Z
 ---------------------------------------------------------------
    1      Si      0.000000     0.000000     0.000000
    2      Si      1.357498     1.357498     1.357498
    3      Si      2.714997     2.714997     0.000000
    4      Si      4.072495     4.072495     1.357498
    5      Si      5.429993     5.429993     0.000000
    6      Si      6.787491     6.787491     1.357498
    7      Si      8.144990     8.144990     0.000000
    8      Si      9.502488     9.502488     1.357498
    9      Si      2.714997     0.000000     2.714997
   10      Si      4.072495     1.357498     4.072495
   11      Si      5.429993     2.714997     2.714997
   12      Si      6.787491     4.072495     4.072495
   13      Si      8.144990     5.429993     2.714997
   14      Si      9.502488     6.787491     4.072495
   15      Si     10.859986     8.144990     2.714997
   16      Si     12.217485     9.502488     4.072495
   17      Si      5.429993     0.000000     5.429993
   18      Si      6.787491     1.357498     6.787491
   19      Si      8.144990     2.714997     5.429993
   20      Si      9.502488     4.072495     6.787491
   21      Si     10.859986     5.429993     5.429993
   22      Si     12.217485     6.787491     6.787491
   23      Si     13.574983     8.144990     5.429993
   24      Si     14.932481     9.502488     6.787491
   25      Si      8.144990     0.000000     8.144990
   26      Si      9.502488     1.357498     9.502488
   27      Si     10.859986     2.714997     8.144990
   28      Si     12.217485     4.072495     9.502488
   29      Si     13.574983     5.429993     8.144990
   30      Si     14.932481     6.787491     9.502488
   31      Si     16.289980     8.144990     8.144990
   32      Si     17.647478     9.502488     9.502488
   33      Si      0.000000     2.714997     2.714997
   34      Si      1.357498     4.072495     4.072495
   35      Si      2.714997     5.429993     2.714997
   36      Si      4.072495     6.787491     4.072495
   37      Si      5.429993     8.144990     2.714997
   38      Si      6.787491     9.502488     4.072495
   39      Si      8.144990    10.859986     2.714997
   40      Si      9.502488    12.217485     4.072495
   41      Si      2.714997     2.714997     5.429993
   42      Si      4.072495     4.072495     6.787491
   43      Si      5.429993     5.429993     5.429993
   44      Si      6.787491     6.787491     6.787491
   45      Si      8.144990     8.144990     5.429993
   46      Si      9.502488     9.502488     6.787491
   47      Si     10.859986    10.859986     5.429993
   48      Si     12.217485    12.217485     6.787491
   49      Si      5.429993     2.714997     8.144990
   50      Si      6.787491     4.072495     9.502488
   51      Si      8.144990     5.429993     8.144990
   52      Si      9.502488     6.787491     9.502488
   53      Si     10.859986     8.144990     8.144990
   54      Si     12.217485     9.502488     9.502488
   55      Si     13.574983    10.859986     8.144990
   56      Si     14.932481    12.217485     9.502488
   57      Si      8.144990     2.714997    10.859986
   58      Si      9.502488     4.072495    12.217485
   59      Si     10.859986     5.429993    10.859986
   60      Si     12.217485     6.787491    12.217485
   61      Si     13.574983     8.144990    10.859986
   62      Si     14.932481     9.502488    12.217485
   63      Si     16.289980    10.859986    10.859986
   64      Si     17.647478    12.217485    12.217485
   65      Si      0.000000     5.429993     5.429993
   66      Si      1.357498     6.787491     6.787491
   67      Si      2.714997     8.144990     5.429993
   68      Si      4.072495     9.502488     6.787491
   69      Si      5.429993    10.859986     5.429993
   70      Si      6.787491    12.217485     6.787491
   71      Si      8.144990    13.574983     5.429993
   72      Si      9.502488    14.932481     6.787491
   73      Si      2.714997     5.429993     8.144990
   74      Si      4.072495     6.787491     9.502488
   75      Si      5.429993     8.144990     8.144990
   76      Si      6.787491     9.502488     9.502488
   77      Si      8.144990    10.859986     8.144990
   78      Si      9.502488    12.217485     9.502488
   79      Si     10.859986    13.574983     8.144990
   80      Si     12.217485    14.932481     9.502488
   81      Si      5.429993     5.429993    10.859986
   82      Si      6.787491     6.787491    12.217485
   83      Si      8.144990     8.144990    10.859986
   84      Si      9.502488     9.502488    12.217485
   85      Si     10.859986    10.859986    10.859986
   86      Si     12.217485    12.217485    12.217485
   87      Si     13.574983    13.574983    10.859986
   88      Si     14.932481    14.932481    12.217485
   89      Si      8.144990     5.429993    13.574983
   90      Si      9.502488     6.787491    14.932481
   91      Si     10.859986     8.144990    13.574983
   92      Si     12.217485     9.502488    14.932481
   93      Si     13.574983    10.859986    13.574983
   94      Si     14.932481    12.217485    14.932481
   95      Si     16.289980    13.574983    13.574983
   96      Si     17.647478    14.932481    14.932481
   97      Si      0.000000     8.144990     8.144990
   98      Si      1.357498     9.502488     9.502488
   99      Si      2.714997    10.859986     8.144990
  100      Si      4.072495    12.217485     9.502488
  101      Si      5.429993    13.574983     8.144990
  102      Si      6.787491    14.932481     9.502488
  103      Si      8.144990    16.289980     8.144990
  104      Si      9.502488    17.647478     9.502488
  105      Si      2.714997     8.144990    10.859986
  106      Si      4.072495     9.502488    12.217485
  107      Si      5.429993    10.859986    10.859986
  108      Si      6.787491    12.217485    12.217485
  109      Si      8.144990    13.574983    10.859986
  110      Si      9.502488    14.932481    12.217485
  111      Si     10.859986    16.289980    10.859986
  112      Si     12.217485    17.647478    12.217485
  113      Si      5.429993     8.144990    13.574983
  114      Si      6.787491     9.502488    14.932481
  115      Si      8.144990    10.859986    13.574983
  116      Si      9.502488    12.217485    14.932481
  117      Si     10.859986    13.574983    13.574983
  118      Si     12.217485    14.932481    14.932481
  119      Si     13.574983    16.289980    13.574983
  120      Si     14.932481    17.647478    14.932481
  121      Si      8.144990     8.144990    16.289980
  122      Si      9.502488     9.502488    17.647478
  123      Si     10.859986    10.859986    16.289980
  124      Si     12.217485    12.217485    17.647478
  125      Si     13.574983    13.574983    16.289980
  126      Si     14.932481    14.932481    17.647478
  127      Si     16.289980    16.289980    16.289980
  128      Si     17.647478    17.647478    17.647478
 ---------------------------------------------------------------
 --------------------------------------------------
              Lattice Vectors (Angstroms)
              X            Y            Z
 --------------------------------------------------
   X       0.000000    10.859986    10.859986
   Y      10.859986     0.000000    10.859986
   Z      10.859986    10.859986     0.000000
 --------------------------------------------------
 --------------------------------------------------
       Reciprocal Lattice Vectors (Angstroms^-1)
              X            Y            Z
 --------------------------------------------------
   X      -0.289281     0.289281     0.289281
   Y       0.289281    -0.289281     0.289281
   Z       0.289281     0.289281    -0.289281
 --------------------------------------------------

 Single point calculation requested

 Hamiltonian contributions:
 List of terms in Hamiltonian: kpts_nn, kpts_kinetic, kpts_vnuc_df, kpts_xc, kpts_rij_bigmem

 K-Points calculation started.

 Basis set information about using solid harmonic (1) or Cartesian (0):
  si : D(1) 

 Basis set information about using solid harmonic (1) or Cartesian (0):
  si : D(1) D(1) D(1) D(1) D(1) D(1) D(1) D(1) D(1) F(1) F(1) F(1) G(1) 

 There are 2304 basis functions in the central unit cell.
 Print atomic basis of atoms in the central unit cell:
 -------------------------------------------------------------
128 5376 5376 1024

  0.00000000000000e+00  0.00000000000000e+00  0.00000000000000e+00
  2.56530000000000e+00  2.56530000000000e+00  2.56530000000000e+00
  5.13060000000000e+00  5.13060000000000e+00  0.00000000000000e+00
  7.69590000000000e+00  7.69590000000000e+00  2.56530000000000e+00
  1.02612000000000e+01  1.02612000000000e+01  0.00000000000000e+00
  1.28265000000000e+01  1.28265000000000e+01  2.56530000000000e+00
  1.53918000000000e+01  1.53918000000000e+01  0.00000000000000e+00
  1.79571000000000e+01  1.79571000000000e+01  2.56530000000000e+00
  5.13060000000000e+00  0.00000000000000e+00  5.13060000000000e+00
  7.69590000000000e+00  2.56530000000000e+00  7.69590000000000e+00
  1.02612000000000e+01  5.13060000000000e+00  5.13060000000000e+00
  1.28265000000000e+01  7.69590000000000e+00  7.69590000000000e+00
  1.53918000000000e+01  1.02612000000000e+01  5.13060000000000e+00
  1.79571000000000e+01  1.28265000000000e+01  7.69590000000000e+00
  2.05224000000000e+01  1.53918000000000e+01  5.13060000000000e+00
  2.30877000000000e+01  1.79571000000000e+01  7.69590000000000e+00
  1.02612000000000e+01  0.00000000000000e+00  1.02612000000000e+01
  1.28265000000000e+01  2.56530000000000e+00  1.28265000000000e+01
  1.53918000000000e+01  5.13060000000000e+00  1.02612000000000e+01
  1.79571000000000e+01  7.69590000000000e+00  1.28265000000000e+01
  2.05224000000000e+01  1.02612000000000e+01  1.02612000000000e+01
  2.30877000000000e+01  1.28265000000000e+01  1.28265000000000e+01
  2.56530000000000e+01  1.53918000000000e+01  1.02612000000000e+01
  2.82183000000000e+01  1.79571000000000e+01  1.28265000000000e+01
  1.53918000000000e+01  0.00000000000000e+00  1.53918000000000e+01
  1.79571000000000e+01  2.56530000000000e+00  1.79571000000000e+01
  2.05224000000000e+01  5.13060000000000e+00  1.53918000000000e+01
  2.30877000000000e+01  7.69590000000000e+00  1.79571000000000e+01
  2.56530000000000e+01  1.02612000000000e+01  1.53918000000000e+01
  2.82183000000000e+01  1.28265000000000e+01  1.79571000000000e+01
  3.07836000000000e+01  1.53918000000000e+01  1.53918000000000e+01
  3.33489000000000e+01  1.79571000000000e+01  1.79571000000000e+01
  0.00000000000000e+00  5.13060000000000e+00  5.13060000000000e+00
  2.56530000000000e+00  7.69590000000000e+00  7.69590000000000e+00
  5.13060000000000e+00  1.02612000000000e+01  5.13060000000000e+00
  7.69590000000000e+00  1.28265000000000e+01  7.69590000000000e+00
  1.02612000000000e+01  1.53918000000000e+01  5.13060000000000e+00
  1.28265000000000e+01  1.79571000000000e+01  7.69590000000000e+00
  1.53918000000000e+01  2.05224000000000e+01  5.13060000000000e+00
  1.79571000000000e+01  2.30877000000000e+01  7.69590000000000e+00
  5.13060000000000e+00  5.13060000000000e+00  1.02612000000000e+01
  7.69590000000000e+00  7.69590000000000e+00  1.28265000000000e+01
  1.02612000000000e+01  1.02612000000000e+01  1.02612000000000e+01
  1.28265000000000e+01  1.28265000000000e+01  1.28265000000000e+01
  1.53918000000000e+01  1.53918000000000e+01  1.02612000000000e+01
  1.79571000000000e+01  1.79571000000000e+01  1.28265000000000e+01
  2.05224000000000e+01  2.05224000000000e+01  1.02612000000000e+01
  2.30877000000000e+01  2.30877000000000e+01  1.28265000000000e+01
  1.02612000000000e+01  5.13060000000000e+00  1.53918000000000e+01
  1.28265000000000e+01  7.69590000000000e+00  1.79571000000000e+01
  1.53918000000000e+01  1.02612000000000e+01  1.53918000000000e+01
  1.79571000000000e+01  1.28265000000000e+01  1.79571000000000e+01
  2.05224000000000e+01  1.53918000000000e+01  1.53918000000000e+01
  2.30877000000000e+01  1.79571000000000e+01  1.79571000000000e+01
  2.56530000000000e+01  2.05224000000000e+01  1.53918000000000e+01
  2.82183000000000e+01  2.30877000000000e+01  1.79571000000000e+01
  1.53918000000000e+01  5.13060000000000e+00  2.05224000000000e+01
  1.79571000000000e+01  7.69590000000000e+00  2.30877000000000e+01
  2.05224000000000e+01  1.02612000000000e+01  2.05224000000000e+01
  2.30877000000000e+01  1.28265000000000e+01  2.30877000000000e+01
  2.56530000000000e+01  1.53918000000000e+01  2.05224000000000e+01
  2.82183000000000e+01  1.79571000000000e+01  2.30877000000000e+01
  3.07836000000000e+01  2.05224000000000e+01  2.05224000000000e+01
  3.33489000000000e+01  2.30877000000000e+01  2.30877000000000e+01
  0.00000000000000e+00  1.02612000000000e+01  1.02612000000000e+01
  2.56530000000000e+00  1.28265000000000e+01  1.28265000000000e+01
  5.13060000000000e+00  1.53918000000000e+01  1.02612000000000e+01
  7.69590000000000e+00  1.79571000000000e+01  1.28265000000000e+01
  1.02612000000000e+01  2.05224000000000e+01  1.02612000000000e+01
  1.28265000000000e+01  2.30877000000000e+01  1.28265000000000e+01
  1.53918000000000e+01  2.56530000000000e+01  1.02612000000000e+01
  1.79571000000000e+01  2.82183000000000e+01  1.28265000000000e+01
  5.13060000000000e+00  1.02612000000000e+01  1.53918000000000e+01
  7.69590000000000e+00  1.28265000000000e+01  1.79571000000000e+01
  1.02612000000000e+01  1.53918000000000e+01  1.53918000000000e+01
  1.28265000000000e+01  1.79571000000000e+01  1.79571000000000e+01
  1.53918000000000e+01  2.05224000000000e+01  1.53918000000000e+01
  1.79571000000000e+01  2.30877000000000e+01  1.79571000000000e+01
  2.05224000000000e+01  2.56530000000000e+01  1.53918000000000e+01
  2.30877000000000e+01  2.82183000000000e+01  1.79571000000000e+01
  1.02612000000000e+01  1.02612000000000e+01  2.05224000000000e+01
  1.28265000000000e+01  1.28265000000000e+01  2.30877000000000e+01
  1.53918000000000e+01  1.53918000000000e+01  2.05224000000000e+01
  1.79571000000000e+01  1.79571000000000e+01  2.30877000000000e+01
  2.05224000000000e+01  2.05224000000000e+01  2.05224000000000e+01
  2.30877000000000e+01  2.30877000000000e+01  2.30877000000000e+01
  2.56530000000000e+01  2.56530000000000e+01  2.05224000000000e+01
  2.82183000000000e+01  2.82183000000000e+01  2.30877000000000e+01
  1.53918000000000e+01  1.02612000000000e+01  2.56530000000000e+01
  1.79571000000000e+01  1.28265000000000e+01  2.82183000000000e+01
  2.05224000000000e+01  1.53918000000000e+01  2.56530000000000e+01
  2.30877000000000e+01  1.79571000000000e+01  2.82183000000000e+01
  2.56530000000000e+01  2.05224000000000e+01  2.56530000000000e+01
  2.82183000000000e+01  2.30877000000000e+01  2.82183000000000e+01
  3.07836000000000e+01  2.56530000000000e+01  2.56530000000000e+01
  3.33489000000000e+01  2.82183000000000e+01  2.82183000000000e+01
  0.00000000000000e+00  1.53918000000000e+01  1.53918000000000e+01
  2.56530000000000e+00  1.79571000000000e+01  1.79571000000000e+01
  5.13060000000000e+00  2.05224000000000e+01  1.53918000000000e+01
  7.69590000000000e+00  2.30877000000000e+01  1.79571000000000e+01
  1.02612000000000e+01  2.56530000000000e+01  1.53918000000000e+01
  1.28265000000000e+01  2.82183000000000e+01  1.79571000000000e+01
  1.53918000000000e+01  3.07836000000000e+01  1.53918000000000e+01
  1.79571000000000e+01  3.33489000000000e+01  1.79571000000000e+01
  5.13060000000000e+00  1.53918000000000e+01  2.05224000000000e+01
  7.69590000000000e+00  1.79571000000000e+01  2.30877000000000e+01
  1.02612000000000e+01  2.05224000000000e+01  2.05224000000000e+01
  1.28265000000000e+01  2.30877000000000e+01  2.30877000000000e+01
  1.53918000000000e+01  2.56530000000000e+01  2.05224000000000e+01
  1.79571000000000e+01  2.82183000000000e+01  2.30877000000000e+01
  2.05224000000000e+01  3.07836000000000e+01  2.05224000000000e+01
  2.30877000000000e+01  3.33489000000000e+01  2.30877000000000e+01
  1.02612000000000e+01  1.53918000000000e+01  2.56530000000000e+01
  1.28265000000000e+01  1.79571000000000e+01  2.82183000000000e+01
  1.53918000000000e+01  2.05224000000000e+01  2.56530000000000e+01
  1.79571000000000e+01  2.30877000000000e+01  2.82183000000000e+01
  2.05224000000000e+01  2.56530000000000e+01  2.56530000000000e+01
  2.30877000000000e+01  2.82183000000000e+01  2.82183000000000e+01
  2.56530000000000e+01  3.07836000000000e+01  2.56530000000000e+01
  2.82183000000000e+01  3.33489000000000e+01  2.82183000000000e+01
  1.53918000000000e+01  1.53918000000000e+01  3.07836000000000e+01
  1.79571000000000e+01  1.79571000000000e+01  3.33489000000000e+01
  2.05224000000000e+01  2.05224000000000e+01  3.07836000000000e+01
  2.30877000000000e+01  2.30877000000000e+01  3.33489000000000e+01
  2.56530000000000e+01  2.56530000000000e+01  3.07836000000000e+01
  2.82183000000000e+01  2.82183000000000e+01  3.33489000000000e+01
  3.07836000000000e+01  3.07836000000000e+01  3.07836000000000e+01
  3.33489000000000e+01  3.33489000000000e+01  3.33489000000000e+01

  7.88600000000000e+04
  1.18200000000000e+04
  2.69200000000000e+03
  7.63400000000000e+02
  2.49600000000000e+02
  9.02800000000000e+01
  3.52900000000000e+01
  1.45100000000000e+01
  4.05300000000000e+00
  7.88600000000000e+04
  1.18200000000000e+04
  2.69200000000000e+03
  2.49600000000000e+02
  9.02800000000000e+01
  3.52900000000000e+01
  1.45100000000000e+01
  4.05300000000000e+00
  1.48200000000000e+00
  7.88600000000000e+04
  1.18200000000000e+04
  2.69200000000000e+03
  9.02800000000000e+01
  3.52900000000000e+01
  1.45100000000000e+01
  4.05300000000000e+00
  1.48200000000000e+00
  2.51700000000000e-01
  9.24300000000000e-02
  3.15900000000000e+02
  7.44200000000000e+01
  2.34800000000000e+01
  8.48800000000000e+00
  3.21700000000000e+00
  1.22900000000000e+00
  7.44200000000000e+01
  2.34800000000000e+01
  8.48800000000000e+00
  3.21700000000000e+00
  1.22900000000000e+00
  2.96400000000000e-01
  8.76800000000000e-02
  2.75000000000000e-01
  7.88600000000000e+04
  1.18200000000000e+04
  2.69200000000000e+03
  7.63400000000000e+02
  2.49600000000000e+02
  9.02800000000000e+01
  3.52900000000000e+01
  1.45100000000000e+01
  4.05300000000000e+00
  7.88600000000000e+04
  1.18200000000000e+04
  2.69200000000000e+03
  2.49600000000000e+02
  9.02800000000000e+01
  3.52900000000000e+01
  1.45100000000000e+01
  4.05300000000000e+00
  1.48200000000000e+00
  7.88600000000000e+04
  1.18200000000000e+04
  2.69200000000000e+03
  9.02800000000000e+01
  3.52900000000000e+01
  1.45100000000000e+01
  4.05300000000000e+00
  1.48200000000000e+00
  2.51700000000000e-01
  9.24300000000000e-02
  3.15900000000000e+02
  7.44200000000000e+01
  2.34800000000000e+01
  8.48800000000000e+00
  3.21700000000000e+00
  1.22900000000000e+00
  7.44200000000000e+01
  2.34800000000000e+01
  8.48800000000000e+00
  3.21700000000000e+00
  1.22900000000000e+00
  2.96400000000000e-01
  8.76800000000000e-02
  2.75000000000000e-01
  7.88600000000000e+04
  1.18200000000000e+04
  2.69200000000000e+03
  7.63400000000000e+02
  2.49600000000000e+02
  9.02800000000000e+01
  3.52900000000000e+01
  1.45100000000000e+01
  4.05300000000000e+00
  7.88600000000000e+04
  1.18200000000000e+04
  2.69200000000000e+03
  2.49600000000000e+02
  9.02800000000000e+01
  3.52900000000000e+01
  1.45100000000000e+01
  4.05300000000000e+00
  1.48200000000000e+00
  7.88600000000000e+04
  1.18200000000000e+04
  2.69200000000000e+03
  9.02800000000000e+01
  3.52900000000000e+01
  1.45100000000000e+01
  4.05300000000000e+00
  1.48200000000000e+00
  2.51700000000000e-01
  9.24300000000000e-02
  3.15900000000000e+02
  7.44200000000000e+01
  2.34800000000000e+01
  8.48800000000000e+00
  3.21700000000000e+00
  1.22900000000000e+00
  7.44200000000000e+01
  2.34800000000000e+01
  8.48800000000000e+00
  3.21700000000000e+00
  1.22900000000000e+00
  2.96400000000000e-01
  8.76800000000000e-02
  2.75000000000000e-01
  7.88600000000000e+04
  1.18200000000000e+04
  2.69200000000000e+03
  7.63400000000000e+02
  2.49600000000000e+02
  9.02800000000000e+01
  3.52900000000000e+01
  1.45100000000000e+01
  4.05300000000000e+00
  7.88600000000000e+04
  1.18200000000000e+04
  2.69200000000000e+03
  2.49600000000000e+02
  9.02800000000000e+01
  3.52900000000000e+01
  1.45100000000000e+01
  4.05300000000000e+00
  1.48200000000000e+00
  7.88600000000000e+04
  1.18200000000000e+04
  2.69200000000000e+03
  9.02800000000000e+01
  3.52900000000000e+01
  1.45100000000000e+01
  4.05300000000000e+00
  1.48200000000000e+00
  2.51700000000000e-01
  9.24300000000000e-02
  3.15900000000000e+02
  7.44200000000000e+01
  2.34800000000000e+01
  8.48800000000000e+00
  3.21700000000000e+00
  1.22900000000000e+00
  7.44200000000000e+01
  2.34800000000000e+01
  8.48800000000000e+00
  3.21700000000000e+00
  1.22900000000000e+00
  2.96400000000000e-01
  8.76800000000000e-02
  2.75000000000000e-01
  7.88600000000000e+04
  1.18200000000000e+04
  2.69200000000000e+03
  7.63400000000000e+02
  2.49600000000000e+02
  9.02800000000000e+01
  3.52900000000000e+01
  1.45100000000000e+01
  4.05300000000000e+00
  7.88600000000000e+04
  1.18200000000000e+04
  2.69200000000000e+03
  2.49600000000000e+02
  9.02800000000000e+01
  3.52900000000000e+01
  1.45100000000000e+01
  4.05300000000000e+00
  1.48200000000000e+00
  7.88600000000000e+04
  1.18200000000000e+04
  2.69200000000000e+03
  9.02800000000000e+01
  3.52900000000000e+01
  1.45100000000000e+01
  4.05300000000000e+00
  1.48200000000000e+00
  2.51700000000000e-01
  9.24300000000000e-02
  3.15900000000000e+02
  7.44200000000000e+01
  2.34800000000000e+01
  8.48800000000000e+00
  3.21700000000000e+00
  1.22900000000000e+00
  7.44200000000000e+01
  2.34800000000000e+01
  8.48800000000000e+00
  3.21700000000000e+00
  1.22900000000000e+00
  2.96400000000000e-01
  8.76800000000000e-02
  2.75000000000000e-01
  7.88600000000000e+04
  1.18200000000000e+04
  2.69200000000000e+03
  7.63400000000000e+02
  2.49600000000000e+02
  9.02800000000000e+01
  3.52900000000000e+01
  1.45100000000000e+01
  4.05300000000000e+00
  7.88600000000000e+04
  1.18200000000000e+04
  2.69200000000000e+03
  2.49600000000000e+02
  9.02800000000000e+01
  3.52900000000000e+01
  1.45100000000000e+01
  4.05300000000000e+00
  1.48200000000000e+00
  7.88600000000000e+04
  1.18200000000000e+04
  2.69200000000000e+03
  9.02800000000000e+01
  3.52900000000000e+01
  1.45100000000000e+01
  4.05300000000000e+00
  1.48200000000000e+00
  2.51700000000000e-01
  9.24300000000000e-02
  3.15900000000000e+02
  7.44200000000000e+01
  2.34800000000000e+01
  8.48800000000000e+00
  3.21700000000000e+00
  1.22900000000000e+00
  7.44200000000000e+01
  2.34800000000000e+01
  8.48800000000000e+00
  3.21700000000000e+00
  1.22900000000000e+00
  2.96400000000000e-01
  8.76800000000000e-02
  2.75000000000000e-01
  7.88600000000000e+04
  1.18200000000000e+04
  2.69200000000000e+03
  7.63400000000000e+02
  2.49600000000000e+02
  9.02800000000000e+01
  3.52900000000000e+01
  1.45100000000000e+01
  4.05300000000000e+00
  7.88600000000000e+04
  1.18200000000000e+04
  2.69200000000000e+03
  2.49600000000000e+02
  9.02800000000000e+01
  3.52900000000000e+01
  1.45100000000000e+01
  4.05300000000000e+00
  1.48200000000000e+00
  7.88600000000000e+04
  1.18200000000000e+04
  2.69200000000000e+03
  9.02800000000000e+01
  3.52900000000000e+01
  1.45100000000000e+01
  4.05300000000000e+00
  1.48200000000000e+00
  2.51700000000000e-01
  9.24300000000000e-02
  3.15900000000000e+02
  7.44200000000000e+01
  2.34800000000000e+01
  8.48800000000000e+00
  3.21700000000000e+00
  1.22900000000000e+00
  7.44200000000000e+01
  2.34800000000000e+01
  8.48800000000000e+00
  3.21700000000000e+00
  1.22900000000000e+00
  2.96400000000000e-01
  8.76800000000000e-02
  2.75000000000000e-01
  7.88600000000000e+04
  1.18200000000000e+04
  2.69200000000000e+03
  7.63400000000000e+02
  2.49600000000000e+02
  9.02800000000000e+01
  3.52900000000000e+01
  1.45100000000000e+01
  4.05300000000000e+00
  7.88600000000000e+04
  1.18200000000000e+04
  2.69200000000000e+03
  2.49600000000000e+02
  9.02800000000000e+01
  3.52900000000000e+01
  1.45100000000000e+01
  4.05300000000000e+00
  1.48200000000000e+00
  7.88600000000000e+04
  1.18200000000000e+04
  2.69200000000000e+03
  9.02800000000000e+01
  3.52900000000000e+01
  1.45100000000000e+01
  4.05300000000000e+00
  1.48200000000000e+00
  2.51700000000000e-01
  9.24300000000000e-02
  3.15900000000000e+02
  7.44200000000000e+01
  2.34800000000000e+01
  8.48800000000000e+00
  3.21700000000000e+00
  1.22900000000000e+00
  7.44200000000000e+01
  2.34800000000000e+01
  8.48800000000000e+00
  3.21700000000000e+00
  1.22900000000000e+00
  2.96400000000000e-01
  8.76800000000000e-02
  2.75000000000000e-01
  7.88600000000000e+04
  1.18200000000000e+04
  2.69200000000000e+03
  7.63400000000000e+02
  2.49600000000000e+02
  9.02800000000000e+01
  3.52900000000000e+01
  1.45100000000000e+01
  4.05300000000000e+00
  7.88600000000000e+04
  1.18200000000000e+04
  2.69200000000000e+03
  2.49600000000000e+02
  9.02800000000000e+01
  3.52900000000000e+01
  1.45100000000000e+01
  4.05300000000000e+00
  1.48200000000000e+00
  7.88600000000000e+04
  1.18200000000000e+04
  2.69200000000000e+03
  9.02800000000000e+01
  3.52900000000000e+01
  1.45100000000000e+01
  4.05300000000000e+00
  1.48200000000000e+00
  2.51700000000000e-01
  9.24300000000000e-02
  3.15900000000000e+02
  7.44200000000000e+01
  2.34800000000000e+01
  8.48800000000000e+00
  3.21700000000000e+00
  1.22900000000000e+00
  7.44200000000000e+01
  2.34800000000000e+01
  8.48800000000000e+00
  3.21700000000000e+00
  1.22900000000000e+00
  2.96400000000000e-01
  8.76800000000000e-02
  2.75000000000000e-01
  7.88600000000000e+04
  1.18200000000000e+04
  2.69200000000000e+03
  7.63400000000000e+02
  2.49600000000000e+02
  9.02800000000000e+01
  3.52900000000000e+01
  1.45100000000000e+01
  4.05300000000000e+00
  7.88600000000000e+04
  1.18200000000000e+04
  2.69200000000000e+03
  2.49600000000000e+02
  9.02800000000000e+01
  3.52900000000000e+01
  1.45100000000000e+01
  4.05300000000000e+00
  1.48200000000000e+00
  7.88600000000000e+04
  1.18200000000000e+04
  2.69200000000000e+03
  9.02800000000000e+01
  3.52900000000000e+01
  1.45100000000000e+01
  4.05300000000000e+00
  1.48200000000000e+00
  2.51700000000000e-01
  9.24300000000000e-02
  3.15900000000000e+02
  7.44200000000000e+01
  2.34800000000000e+01
  8.48800000000000e+00
  3.21700000000000e+00
  1.22900000000000e+00
  7.44200000000000e+01
  2.34800000000000e+01
  8.48800000000000e+00
  3.21700000000000e+00
  1.22900000000000e+00
  2.96400000000000e-01
  8.76800000000000e-02
  2.75000000000000e-01
  7.88600000000000e+04
  1.18200000000000e+04
  2.69200000000000e+03
  7.63400000000000e+02
  2.49600000000000e+02
  9.02800000000000e+01
  3.52900000000000e+01
  1.45100000000000e+01
  4.05300000000000e+00
  7.88600000000000e+04
  1.18200000000000e+04
  2.69200000000000e+03
  2.49600000000000e+02
  9.02800000000000e+01
  3.52900000000000e+01
  1.45100000000000e+01
  4.05300000000000e+00
  1.48200000000000e+00
  7.88600000000000e+04
  1.18200000000000e+04
  2.69200000000000e+03
  9.02800000000000e+01
  3.52900000000000e+01
  1.45100000000000e+01
  4.05300000000000e+00
  1.48200000000000e+00
  2.51700000000000e-01
  9.24300000000000e-02
  3.15900000000000e+02
  7.44200000000000e+01
  2.34800000000000e+01
  8.48800000000000e+00
  3.21700000000000e+00
  1.22900000000000e+00
  7.44200000000000e+01
  2.34800000000000e+01
  8.48800000000000e+00
  3.21700000000000e+00
  1.22900000000000e+00
  2.96400000000000e-01
  8.76800000000000e-02
  2.75000000000000e-01
  7.88600000000000e+04
  1.18200000000000e+04
  2.69200000000000e+03
  7.63400000000000e+02
  2.49600000000000e+02
  9.02800000000000e+01
  3.52900000000000e+01
  1.45100000000000e+01
  4.05300000000000e+00
  7.88600000000000e+04
  1.18200000000000e+04
  2.69200000000000e+03
  2.49600000000000e+02
  9.02800000000000e+01
  3.52900000000000e+01
  1.45100000000000e+01
  4.05300000000000e+00
  1.48200000000000e+00
  7.88600000000000e+04
  1.18200000000000e+04
  2.69200000000000e+03
  9.02800000000000e+01
  3.52900000000000e+01
  1.45100000000000e+01
  4.05300000000000e+00
  1.48200000000000e+00
  2.51700000000000e-01
  9.24300000000000e-02
  3.15900000000000e+02
  7.44200000000000e+01
  2.34800000000000e+01
  8.48800000000000e+00
  3.21700000000000e+00
  1.22900000000000e+00
  7.44200000000000e+01
  2.34800000000000e+01
  8.48800000000000e+00
  3.21700000000000e+00
  1.22900000000000e+00
  2.96400000000000e-01
  8.76800000000000e-02
  2.75000000000000e-01
  7.88600000000000e+04
  1.18200000000000e+04
  2.69200000000000e+03
  7.63400000000000e+02
  2.49600000000000e+02
  9.02800000000000e+01
  3.52900000000000e+01
  1.45100000000000e+01
  4.05300000000000e+00
  7.88600000000000e+04
  1.18200000000000e+04
  2.69200000000000e+03
  2.49600000000000e+02
  9.02800000000000e+01
  3.52900000000000e+01
  1.45100000000000e+01
  4.05300000000000e+00
  1.48200000000000e+00
  7.88600000000000e+04
  1.18200000000000e+04
  2.69200000000000e+03
  9.02800000000000e+01
  3.52900000000000e+01
  1.45100000000000e+01
  4.05300000000000e+00
  1.48200000000000e+00
  2.51700000000000e-01
  9.24300000000000e-02
  3.15900000000000e+02
  7.44200000000000e+01
  2.34800000000000e+01
  8.48800000000000e+00
  3.21700000000000e+00
  1.22900000000000e+00
  7.44200000000000e+01
  2.34800000000000e+01
  8.48800000000000e+00
  3.21700000000000e+00
  1.22900000000000e+00
  2.96400000000000e-01
  8.76800000000000e-02
  2.75000000000000e-01
  7.88600000000000e+04
  1.18200000000000e+04
  2.69200000000000e+03
  7.63400000000000e+02
  2.49600000000000e+02
  9.02800000000000e+01
  3.52900000000000e+01
  1.45100000000000e+01
  4.05300000000000e+00
  7.88600000000000e+04
  1.18200000000000e+04
  2.69200000000000e+03
  2.49600000000000e+02
  9.02800000000000e+01
  3.52900000000000e+01
  1.45100000000000e+01
  4.05300000000000e+00
  1.48200000000000e+00
  7.88600000000000e+04
  1.18200000000000e+04
  2.69200000000000e+03
  9.02800000000000e+01
  3.52900000000000e+01
  1.45100000000000e+01
  4.05300000000000e+00
  1.48200000000000e+00
  2.51700000000000e-01
  9.24300000000000e-02
  3.15900000000000e+02
  7.44200000000000e+01
  2.34800000000000e+01
  8.48800000000000e+00
  3.21700000000000e+00
  1.22900000000000e+00
  7.44200000000000e+01
  2.34800000000000e+01
  8.48800000000000e+00
  3.21700000000000e+00
  1.22900000000000e+00
  2.96400000000000e-01
  8.76800000000000e-02
  2.75000000000000e-01
  7.88600000000000e+04
  1.18200000000000e+04
  2.69200000000000e+03
  7.63400000000000e+02
  2.49600000000000e+02
  9.02800000000000e+01
  3.52900000000000e+01
  1.45100000000000e+01
  4.05300000000000e+00
  7.88600000000000e+04
  1.18200000000000e+04
  2.69200000000000e+03
  2.49600000000000e+02
  9.02800000000000e+01
  3.52900000000000e+01
  1.45100000000000e+01
  4.05300000000000e+00
  1.48200000000000e+00
  7.88600000000000e+04
  1.18200000000000e+04
  2.69200000000000e+03
  9.02800000000000e+01
  3.52900000000000e+01
  1.45100000000000e+01
  4.05300000000000e+00
  1.48200000000000e+00
  2.51700000000000e-01
  9.24300000000000e-02
  3.15900000000000e+02
  7.44200000000000e+01
  2.34800000000000e+01
  8.48800000000000e+00
  3.21700000000000e+00
  1.22900000000000e+00
  7.44200000000000e+01
  2.34800000000000e+01
  8.48800000000000e+00
  3.21700000000000e+00
  1.22900000000000e+00
  2.96400000000000e-01
  8.76800000000000e-02
  2.75000000000000e-01
  7.88600000000000e+04
  1.18200000000000e+04
  2.69200000000000e+03
  7.63400000000000e+02
  2.49600000000000e+02
  9.02800000000000e+01
  3.52900000000000e+01
  1.45100000000000e+01
  4.05300000000000e+00
  7.88600000000000e+04
  1.18200000000000e+04
  2.69200000000000e+03
  2.49600000000000e+02
  9.02800000000000e+01
  3.52900000000000e+01
  1.45100000000000e+01
  4.05300000000000e+00
  1.48200000000000e+00
  7.88600000000000e+04
  1.18200000000000e+04
  2.69200000000000e+03
  9.02800000000000e+01
  3.52900000000000e+01
  1.45100000000000e+01
  4.05300000000000e+00
  1.48200000000000e+00
  2.51700000000000e-01
  9.24300000000000e-02
  3.15900000000000e+02
  7.44200000000000e+01
  2.34800000000000e+01
  8.48800000000000e+00
  3.21700000000000e+00
  1.22900000000000e+00
  7.44200000000000e+01
  2.34800000000000e+01
  8.48800000000000e+00
  3.21700000000000e+00
  1.22900000000000e+00
  2.96400000000000e-01
  8.76800000000000e-02
  2.75000000000000e-01
  7.88600000000000e+04
  1.18200000000000e+04
  2.69200000000000e+03
  7.63400000000000e+02
  2.49600000000000e+02
  9.02800000000000e+01
  3.52900000000000e+01
  1.45100000000000e+01
  4.05300000000000e+00
  7.88600000000000e+04
  1.18200000000000e+04
  2.69200000000000e+03
  2.49600000000000e+02
  9.02800000000000e+01
  3.52900000000000e+01
  1.45100000000000e+01
  4.05300000000000e+00
  1.48200000000000e+00
  7.88600000000000e+04
  1.18200000000000e+04
  2.69200000000000e+03
  9.02800000000000e+01
  3.52900000000000e+01
  1.45100000000000e+01
  4.05300000000000e+00
  1.48200000000000e+00
  2.51700000000000e-01
  9.24300000000000e-02
  3.15900000000000e+02
  7.44200000000000e+01
  2.34800000000000e+01
  8.48800000000000e+00
  3.21700000000000e+00
  1.22900000000000e+00
  7.44200000000000e+01
  2.34800000000000e+01
  8.48800000000000e+00
  3.21700000000000e+00
  1.22900000000000e+00
  2.96400000000000e-01
  8.76800000000000e-02
  2.75000000000000e-01
  7.88600000000000e+04
  1.18200000000000e+04
  2.69200000000000e+03
  7.63400000000000e+02
  2.49600000000000e+02
  9.02800000000000e+01
  3.52900000000000e+01
  1.45100000000000e+01
  4.05300000000000e+00
  7.88600000000000e+04
  1.18200000000000e+04
  2.69200000000000e+03
  2.49600000000000e+02
  9.02800000000000e+01
  3.52900000000000e+01
  1.45100000000000e+01
  4.05300000000000e+00
  1.48200000000000e+00
  7.88600000000000e+04
  1.18200000000000e+04
  2.69200000000000e+03
  9.02800000000000e+01
  3.52900000000000e+01
  1.45100000000000e+01
  4.05300000000000e+00
  1.48200000000000e+00
  2.51700000000000e-01
  9.24300000000000e-02
  3.15900000000000e+02
  7.44200000000000e+01
  2.34800000000000e+01
  8.48800000000000e+00
  3.21700000000000e+00
  1.22900000000000e+00
  7.44200000000000e+01
  2.34800000000000e+01
  8.48800000000000e+00
  3.21700000000000e+00
  1.22900000000000e+00
  2.96400000000000e-01
  8.76800000000000e-02
  2.75000000000000e-01
  7.88600000000000e+04
  1.18200000000000e+04
  2.69200000000000e+03
  7.63400000000000e+02
  2.49600000000000e+02
  9.02800000000000e+01
  3.52900000000000e+01
  1.45100000000000e+01
  4.05300000000000e+00
  7.88600000000000e+04
  1.18200000000000e+04
  2.69200000000000e+03
  2.49600000000000e+02
  9.02800000000000e+01
  3.52900000000000e+01
  1.45100000000000e+01
  4.05300000000000e+00
  1.48200000000000e+00
  7.88600000000000e+04
  1.18200000000000e+04
  2.69200000000000e+03
  9.02800000000000e+01
  3.52900000000000e+01
  1.45100000000000e+01
  4.05300000000000e+00
  1.48200000000000e+00
  2.51700000000000e-01
  9.24300000000000e-02
  3.15900000000000e+02
  7.44200000000000e+01
  2.34800000000000e+01
  8.48800000000000e+00
  3.21700000000000e+00
  1.22900000000000e+00
  7.44200000000000e+01
  2.34800000000000e+01
  8.48800000000000e+00
  3.21700000000000e+00
  1.22900000000000e+00
  2.96400000000000e-01
  8.76800000000000e-02
  2.75000000000000e-01
  7.88600000000000e+04
  1.18200000000000e+04
  2.69200000000000e+03
  7.63400000000000e+02
  2.49600000000000e+02
  9.02800000000000e+01
  3.52900000000000e+01
  1.45100000000000e+01
  4.05300000000000e+00
  7.88600000000000e+04
  1.18200000000000e+04
  2.69200000000000e+03
  2.49600000000000e+02
  9.02800000000000e+01
  3.52900000000000e+01
  1.45100000000000e+01
  4.05300000000000e+00
  1.48200000000000e+00
  7.88600000000000e+04
  1.18200000000000e+04
  2.69200000000000e+03
  9.02800000000000e+01
  3.52900000000000e+01
  1.45100000000000e+01
  4.05300000000000e+00
  1.48200000000000e+00
  2.51700000000000e-01
  9.24300000000000e-02
  3.15900000000000e+02
  7.44200000000000e+01
  2.34800000000000e+01
  8.48800000000000e+00
  3.21700000000000e+00
  1.22900000000000e+00
  7.44200000000000e+01
  2.34800000000000e+01
  8.48800000000000e+00
  3.21700000000000e+00
  1.22900000000000e+00
  2.96400000000000e-01
  8.76800000000000e-02
  2.75000000000000e-01
  7.88600000000000e+04
  1.18200000000000e+04
  2.69200000000000e+03
  7.63400000000000e+02
  2.49600000000000e+02
  9.02800000000000e+01
  3.52900000000000e+01
  1.45100000000000e+01
  4.05300000000000e+00
  7.88600000000000e+04
  1.18200000000000e+04
  2.69200000000000e+03
  2.49600000000000e+02
  9.02800000000000e+01
  3.52900000000000e+01
  1.45100000000000e+01
  4.05300000000000e+00
  1.48200000000000e+00
  7.88600000000000e+04
  1.18200000000000e+04
  2.69200000000000e+03
  9.02800000000000e+01
  3.52900000000000e+01
  1.45100000000000e+01
  4.05300000000000e+00
  1.48200000000000e+00
  2.51700000000000e-01
  9.24300000000000e-02
  3.15900000000000e+02
  7.44200000000000e+01
  2.34800000000000e+01
  8.48800000000000e+00
  3.21700000000000e+00
  1.22900000000000e+00
  7.44200000000000e+01
  2.34800000000000e+01
  8.48800000000000e+00
  3.21700000000000e+00
  1.22900000000000e+00
  2.96400000000000e-01
  8.76800000000000e-02
  2.75000000000000e-01
  7.88600000000000e+04
  1.18200000000000e+04
  2.69200000000000e+03
  7.63400000000000e+02
  2.49600000000000e+02
  9.02800000000000e+01
  3.52900000000000e+01
  1.45100000000000e+01
  4.05300000000000e+00
  7.88600000000000e+04
  1.18200000000000e+04
  2.69200000000000e+03
  2.49600000000000e+02
  9.02800000000000e+01
  3.52900000000000e+01
  1.45100000000000e+01
  4.05300000000000e+00
  1.48200000000000e+00
  7.88600000000000e+04
  1.18200000000000e+04
  2.69200000000000e+03
  9.02800000000000e+01
  3.52900000000000e+01
  1.45100000000000e+01
  4.05300000000000e+00
  1.48200000000000e+00
  2.51700000000000e-01
  9.24300000000000e-02
  3.15900000000000e+02
  7.44200000000000e+01
  2.34800000000000e+01
  8.48800000000000e+00
  3.21700000000000e+00
  1.22900000000000e+00
  7.44200000000000e+01
  2.34800000000000e+01
  8.48800000000000e+00
  3.21700000000000e+00
  1.22900000000000e+00
  2.96400000000000e-01
  8.76800000000000e-02
  2.75000000000000e-01
  7.88600000000000e+04
  1.18200000000000e+04
  2.69200000000000e+03
  7.63400000000000e+02
  2.49600000000000e+02
  9.02800000000000e+01
  3.52900000000000e+01
  1.45100000000000e+01
  4.05300000000000e+00
  7.88600000000000e+04
  1.18200000000000e+04
  2.69200000000000e+03
  2.49600000000000e+02
  9.02800000000000e+01
  3.52900000000000e+01
  1.45100000000000e+01
  4.05300000000000e+00
  1.48200000000000e+00
  7.88600000000000e+04
  1.18200000000000e+04
  2.69200000000000e+03
  9.02800000000000e+01
  3.52900000000000e+01
  1.45100000000000e+01
  4.05300000000000e+00
  1.48200000000000e+00
  2.51700000000000e-01
  9.24300000000000e-02
  3.15900000000000e+02
  7.44200000000000e+01
  2.34800000000000e+01
  8.48800000000000e+00
  3.21700000000000e+00
  1.22900000000000e+00
  7.44200000000000e+01
  2.34800000000000e+01
  8.48800000000000e+00
  3.21700000000000e+00
  1.22900000000000e+00
  2.96400000000000e-01
  8.76800000000000e-02
  2.75000000000000e-01
  7.88600000000000e+04
  1.18200000000000e+04
  2.69200000000000e+03
  7.63400000000000e+02
  2.49600000000000e+02
  9.02800000000000e+01
  3.52900000000000e+01
  1.45100000000000e+01
  4.05300000000000e+00
  7.88600000000000e+04
  1.18200000000000e+04
  2.69200000000000e+03
  2.49600000000000e+02
  9.02800000000000e+01
  3.52900000000000e+01
  1.45100000000000e+01
  4.05300000000000e+00
  1.48200000000000e+00
  7.88600000000000e+04
  1.18200000000000e+04
  2.69200000000000e+03
  9.02800000000000e+01
  3.52900000000000e+01
  1.45100000000000e+01
  4.05300000000000e+00
  1.48200000000000e+00
  2.51700000000000e-01
  9.24300000000000e-02
  3.15900000000000e+02
  7.44200000000000e+01
  2.34800000000000e+01
  8.48800000000000e+00
  3.21700000000000e+00
  1.22900000000000e+00
  7.44200000000000e+01
  2.34800000000000e+01
  8.48800000000000e+00
  3.21700000000000e+00
  1.22900000000000e+00
  2.96400000000000e-01
  8.76800000000000e-02
  2.75000000000000e-01
  7.88600000000000e+04
  1.18200000000000e+04
  2.69200000000000e+03
  7.63400000000000e+02
  2.49600000000000e+02
  9.02800000000000e+01
  3.52900000000000e+01
  1.45100000000000e+01
  4.05300000000000e+00
  7.88600000000000e+04
  1.18200000000000e+04
  2.69200000000000e+03
  2.49600000000000e+02
  9.02800000000000e+01
  3.52900000000000e+01
  1.45100000000000e+01
  4.05300000000000e+00
  1.48200000000000e+00
  7.88600000000000e+04
  1.18200000000000e+04
  2.69200000000000e+03
  9.02800000000000e+01
  3.52900000000000e+01
  1.45100000000000e+01
  4.05300000000000e+00
  1.48200000000000e+00
  2.51700000000000e-01
  9.24300000000000e-02
  3.15900000000000e+02
  7.44200000000000e+01
  2.34800000000000e+01
  8.48800000000000e+00
  3.21700000000000e+00
  1.22900000000000e+00
  7.44200000000000e+01
  2.34800000000000e+01
  8.48800000000000e+00
  3.21700000000000e+00
  1.22900000000000e+00
  2.96400000000000e-01
  8.76800000000000e-02
  2.75000000000000e-01
  7.88600000000000e+04
  1.18200000000000e+04
  2.69200000000000e+03
  7.63400000000000e+02
  2.49600000000000e+02
  9.02800000000000e+01
  3.52900000000000e+01
  1.45100000000000e+01
  4.05300000000000e+00
  7.88600000000000e+04
  1.18200000000000e+04
  2.69200000000000e+03
  2.49600000000000e+02
  9.02800000000000e+01
  3.52900000000000e+01
  1.45100000000000e+01
  4.05300000000000e+00
  1.48200000000000e+00
  7.88600000000000e+04
  1.18200000000000e+04
  2.69200000000000e+03
  9.02800000000000e+01
  3.52900000000000e+01
  1.45100000000000e+01
  4.05300000000000e+00
  1.48200000000000e+00
  2.51700000000000e-01
  9.24300000000000e-02
  3.15900000000000e+02
  7.44200000000000e+01
  2.34800000000000e+01
  8.48800000000000e+00
  3.21700000000000e+00
  1.22900000000000e+00
  7.44200000000000e+01
  2.34800000000000e+01
  8.48800000000000e+00
  3.21700000000000e+00
  1.22900000000000e+00
  2.96400000000000e-01
  8.76800000000000e-02
  2.75000000000000e-01
  7.88600000000000e+04
  1.18200000000000e+04
  2.69200000000000e+03
  7.63400000000000e+02
  2.49600000000000e+02
  9.02800000000000e+01
  3.52900000000000e+01
  1.45100000000000e+01
  4.05300000000000e+00
  7.88600000000000e+04
  1.18200000000000e+04
  2.69200000000000e+03
  2.49600000000000e+02
  9.02800000000000e+01
  3.52900000000000e+01
  1.45100000000000e+01
  4.05300000000000e+00
  1.48200000000000e+00
  7.88600000000000e+04
  1.18200000000000e+04
  2.69200000000000e+03
  9.02800000000000e+01
  3.52900000000000e+01
  1.45100000000000e+01
  4.05300000000000e+00
  1.48200000000000e+00
  2.51700000000000e-01
  9.24300000000000e-02
  3.15900000000000e+02
  7.44200000000000e+01
  2.34800000000000e+01
  8.48800000000000e+00
  3.21700000000000e+00
  1.22900000000000e+00
  7.44200000000000e+01
  2.34800000000000e+01
  8.48800000000000e+00
  3.21700000000000e+00
  1.22900000000000e+00
  2.96400000000000e-01
  8.76800000000000e-02
  2.75000000000000e-01
  7.88600000000000e+04
  1.18200000000000e+04
  2.69200000000000e+03
  7.63400000000000e+02
  2.49600000000000e+02
  9.02800000000000e+01
  3.52900000000000e+01
  1.45100000000000e+01
  4.05300000000000e+00
  7.88600000000000e+04
  1.18200000000000e+04
  2.69200000000000e+03
  2.49600000000000e+02
  9.02800000000000e+01
  3.52900000000000e+01
  1.45100000000000e+01
  4.05300000000000e+00
  1.48200000000000e+00
  7.88600000000000e+04
  1.18200000000000e+04
  2.69200000000000e+03
  9.02800000000000e+01
  3.52900000000000e+01
  1.45100000000000e+01
  4.05300000000000e+00
  1.48200000000000e+00
  2.51700000000000e-01
  9.24300000000000e-02
  3.15900000000000e+02
  7.44200000000000e+01
  2.34800000000000e+01
  8.48800000000000e+00
  3.21700000000000e+00
  1.22900000000000e+00
  7.44200000000000e+01
  2.34800000000000e+01
  8.48800000000000e+00
  3.21700000000000e+00
  1.22900000000000e+00
  2.96400000000000e-01
  8.76800000000000e-02
  2.75000000000000e-01
  7.88600000000000e+04
  1.18200000000000e+04
  2.69200000000000e+03
  7.63400000000000e+02
  2.49600000000000e+02
  9.02800000000000e+01
  3.52900000000000e+01
  1.45100000000000e+01
  4.05300000000000e+00
  7.88600000000000e+04
  1.18200000000000e+04
  2.69200000000000e+03
  2.49600000000000e+02
  9.02800000000000e+01
  3.52900000000000e+01
  1.45100000000000e+01
  4.05300000000000e+00
  1.48200000000000e+00
  7.88600000000000e+04
  1.18200000000000e+04
  2.69200000000000e+03
  9.02800000000000e+01
  3.52900000000000e+01
  1.45100000000000e+01
  4.05300000000000e+00
  1.48200000000000e+00
  2.51700000000000e-01
  9.24300000000000e-02
  3.15900000000000e+02
  7.44200000000000e+01
  2.34800000000000e+01
  8.48800000000000e+00
  3.21700000000000e+00
  1.22900000000000e+00
  7.44200000000000e+01
  2.34800000000000e+01
  8.48800000000000e+00
  3.21700000000000e+00
  1.22900000000000e+00
  2.96400000000000e-01
  8.76800000000000e-02
  2.75000000000000e-01
  7.88600000000000e+04
  1.18200000000000e+04
  2.69200000000000e+03
  7.63400000000000e+02
  2.49600000000000e+02
  9.02800000000000e+01
  3.52900000000000e+01
  1.45100000000000e+01
  4.05300000000000e+00
  7.88600000000000e+04
  1.18200000000000e+04
  2.69200000000000e+03
  2.49600000000000e+02
  9.02800000000000e+01
  3.52900000000000e+01
  1.45100000000000e+01
  4.05300000000000e+00
  1.48200000000000e+00
  7.88600000000000e+04
  1.18200000000000e+04
  2.69200000000000e+03
  9.02800000000000e+01
  3.52900000000000e+01
  1.45100000000000e+01
  4.05300000000000e+00
  1.48200000000000e+00
  2.51700000000000e-01
  9.24300000000000e-02
  3.15900000000000e+02
  7.44200000000000e+01
  2.34800000000000e+01
  8.48800000000000e+00
  3.21700000000000e+00
  1.22900000000000e+00
  7.44200000000000e+01
  2.34800000000000e+01
  8.48800000000000e+00
  3.21700000000000e+00
  1.22900000000000e+00
  2.96400000000000e-01
  8.76800000000000e-02
  2.75000000000000e-01
  7.88600000000000e+04
  1.18200000000000e+04
  2.69200000000000e+03
  7.63400000000000e+02
  2.49600000000000e+02
  9.02800000000000e+01
  3.52900000000000e+01
  1.45100000000000e+01
  4.05300000000000e+00
  7.88600000000000e+04
  1.18200000000000e+04
  2.69200000000000e+03
  2.49600000000000e+02
  9.02800000000000e+01
  3.52900000000000e+01
  1.45100000000000e+01
  4.05300000000000e+00
  1.48200000000000e+00
  7.88600000000000e+04
  1.18200000000000e+04
  2.69200000000000e+03
  9.02800000000000e+01
  3.52900000000000e+01
  1.45100000000000e+01
  4.05300000000000e+00
  1.48200000000000e+00
  2.51700000000000e-01
  9.24300000000000e-02
  3.15900000000000e+02
  7.44200000000000e+01
  2.34800000000000e+01
  8.48800000000000e+00
  3.21700000000000e+00
  1.22900000000000e+00
  7.44200000000000e+01
  2.34800000000000e+01
  8.48800000000000e+00
  3.21700000000000e+00
  1.22900000000000e+00
  2.96400000000000e-01
  8.76800000000000e-02
  2.75000000000000e-01
  7.88600000000000e+04
  1.18200000000000e+04
  2.69200000000000e+03
  7.63400000000000e+02
  2.49600000000000e+02
  9.02800000000000e+01
  3.52900000000000e+01
  1.45100000000000e+01
  4.05300000000000e+00
  7.88600000000000e+04
  1.18200000000000e+04
  2.69200000000000e+03
  2.49600000000000e+02
  9.02800000000000e+01
  3.52900000000000e+01
  1.45100000000000e+01
  4.05300000000000e+00
  1.48200000000000e+00
  7.88600000000000e+04
  1.18200000000000e+04
  2.69200000000000e+03
  9.02800000000000e+01
  3.52900000000000e+01
  1.45100000000000e+01
  4.05300000000000e+00
  1.48200000000000e+00
  2.51700000000000e-01
  9.24300000000000e-02
  3.15900000000000e+02
  7.44200000000000e+01
  2.34800000000000e+01
  8.48800000000000e+00
  3.21700000000000e+00
  1.22900000000000e+00
  7.44200000000000e+01
  2.34800000000000e+01
  8.48800000000000e+00
  3.21700000000000e+00
  1.22900000000000e+00
  2.96400000000000e-01
  8.76800000000000e-02
  2.75000000000000e-01
  7.88600000000000e+04
  1.18200000000000e+04
  2.69200000000000e+03
  7.63400000000000e+02
  2.49600000000000e+02
  9.02800000000000e+01
  3.52900000000000e+01
  1.45100000000000e+01
  4.05300000000000e+00
  7.88600000000000e+04
  1.18200000000000e+04
  2.69200000000000e+03
  2.49600000000000e+02
  9.02800000000000e+01
  3.52900000000000e+01
  1.45100000000000e+01
  4.05300000000000e+00
  1.48200000000000e+00
  7.88600000000000e+04
  1.18200000000000e+04
  2.69200000000000e+03
  9.02800000000000e+01
  3.52900000000000e+01
  1.45100000000000e+01
  4.05300000000000e+00
  1.48200000000000e+00
  2.51700000000000e-01
  9.24300000000000e-02
  3.15900000000000e+02
  7.44200000000000e+01
  2.34800000000000e+01
  8.48800000000000e+00
  3.21700000000000e+00
  1.22900000000000e+00
  7.44200000000000e+01
  2.34800000000000e+01
  8.48800000000000e+00
  3.21700000000000e+00
  1.22900000000000e+00
  2.96400000000000e-01
  8.76800000000000e-02
  2.75000000000000e-01
  7.88600000000000e+04
  1.18200000000000e+04
  2.69200000000000e+03
  7.63400000000000e+02
  2.49600000000000e+02
  9.02800000000000e+01
  3.52900000000000e+01
  1.45100000000000e+01
  4.05300000000000e+00
  7.88600000000000e+04
  1.18200000000000e+04
  2.69200000000000e+03
  2.49600000000000e+02
  9.02800000000000e+01
  3.52900000000000e+01
  1.45100000000000e+01
  4.05300000000000e+00
  1.48200000000000e+00
  7.88600000000000e+04
  1.18200000000000e+04
  2.69200000000000e+03
  9.02800000000000e+01
  3.52900000000000e+01
  1.45100000000000e+01
  4.05300000000000e+00
  1.48200000000000e+00
  2.51700000000000e-01
  9.24300000000000e-02
  3.15900000000000e+02
  7.44200000000000e+01
  2.34800000000000e+01
  8.48800000000000e+00
  3.21700000000000e+00
  1.22900000000000e+00
  7.44200000000000e+01
  2.34800000000000e+01
  8.48800000000000e+00
  3.21700000000000e+00
  1.22900000000000e+00
  2.96400000000000e-01
  8.76800000000000e-02
  2.75000000000000e-01
  7.88600000000000e+04
  1.18200000000000e+04
  2.69200000000000e+03
  7.63400000000000e+02
  2.49600000000000e+02
  9.02800000000000e+01
  3.52900000000000e+01
  1.45100000000000e+01
  4.05300000000000e+00
  7.88600000000000e+04
  1.18200000000000e+04
  2.69200000000000e+03
  2.49600000000000e+02
  9.02800000000000e+01
  3.52900000000000e+01
  1.45100000000000e+01
  4.05300000000000e+00
  1.48200000000000e+00
  7.88600000000000e+04
  1.18200000000000e+04
  2.69200000000000e+03
  9.02800000000000e+01
  3.52900000000000e+01
  1.45100000000000e+01
  4.05300000000000e+00
  1.48200000000000e+00
  2.51700000000000e-01
  9.24300000000000e-02
  3.15900000000000e+02
  7.44200000000000e+01
  2.34800000000000e+01
  8.48800000000000e+00
  3.21700000000000e+00
  1.22900000000000e+00
  7.44200000000000e+01
  2.34800000000000e+01
  8.48800000000000e+00
  3.21700000000000e+00
  1.22900000000000e+00
  2.96400000000000e-01
  8.76800000000000e-02
  2.75000000000000e-01
  7.88600000000000e+04
  1.18200000000000e+04
  2.69200000000000e+03
  7.63400000000000e+02
  2.49600000000000e+02
  9.02800000000000e+01
  3.52900000000000e+01
  1.45100000000000e+01
  4.05300000000000e+00
  7.88600000000000e+04
  1.18200000000000e+04
  2.69200000000000e+03
  2.49600000000000e+02
  9.02800000000000e+01
  3.52900000000000e+01
  1.45100000000000e+01
  4.05300000000000e+00
  1.48200000000000e+00
  7.88600000000000e+04
  1.18200000000000e+04
  2.69200000000000e+03
  9.02800000000000e+01
  3.52900000000000e+01
  1.45100000000000e+01
  4.05300000000000e+00
  1.48200000000000e+00
  2.51700000000000e-01
  9.24300000000000e-02
  3.15900000000000e+02
  7.44200000000000e+01
  2.34800000000000e+01
  8.48800000000000e+00
  3.21700000000000e+00
  1.22900000000000e+00
  7.44200000000000e+01
  2.34800000000000e+01
  8.48800000000000e+00
  3.21700000000000e+00
  1.22900000000000e+00
  2.96400000000000e-01
  8.76800000000000e-02
  2.75000000000000e-01
  7.88600000000000e+04
  1.18200000000000e+04
  2.69200000000000e+03
  7.63400000000000e+02
  2.49600000000000e+02
  9.02800000000000e+01
  3.52900000000000e+01
  1.45100000000000e+01
  4.05300000000000e+00
  7.88600000000000e+04
  1.18200000000000e+04
  2.69200000000000e+03
  2.49600000000000e+02
  9.02800000000000e+01
  3.52900000000000e+01
  1.45100000000000e+01
  4.05300000000000e+00
  1.48200000000000e+00
  7.88600000000000e+04
  1.18200000000000e+04
  2.69200000000000e+03
  9.02800000000000e+01
  3.52900000000000e+01
  1.45100000000000e+01
  4.05300000000000e+00
  1.48200000000000e+00
  2.51700000000000e-01
  9.24300000000000e-02
  3.15900000000000e+02
  7.44200000000000e+01
  2.34800000000000e+01
  8.48800000000000e+00
  3.21700000000000e+00
  1.22900000000000e+00
  7.44200000000000e+01
  2.34800000000000e+01
  8.48800000000000e+00
  3.21700000000000e+00
  1.22900000000000e+00
  2.96400000000000e-01
  8.76800000000000e-02
  2.75000000000000e-01
  7.88600000000000e+04
  1.18200000000000e+04
  2.69200000000000e+03
  7.63400000000000e+02
  2.49600000000000e+02
  9.02800000000000e+01
  3.52900000000000e+01
  1.45100000000000e+01
  4.05300000000000e+00
  7.88600000000000e+04
  1.18200000000000e+04
  2.69200000000000e+03
  2.49600000000000e+02
  9.02800000000000e+01
  3.52900000000000e+01
  1.45100000000000e+01
  4.05300000000000e+00
  1.48200000000000e+00
  7.88600000000000e+04
  1.18200000000000e+04
  2.69200000000000e+03
  9.02800000000000e+01
  3.52900000000000e+01
  1.45100000000000e+01
  4.05300000000000e+00
  1.48200000000000e+00
  2.51700000000000e-01
  9.24300000000000e-02
  3.15900000000000e+02
  7.44200000000000e+01
  2.34800000000000e+01
  8.48800000000000e+00
  3.21700000000000e+00
  1.22900000000000e+00
  7.44200000000000e+01
  2.34800000000000e+01
  8.48800000000000e+00
  3.21700000000000e+00
  1.22900000000000e+00
  2.96400000000000e-01
  8.76800000000000e-02
  2.75000000000000e-01
  7.88600000000000e+04
  1.18200000000000e+04
  2.69200000000000e+03
  7.63400000000000e+02
  2.49600000000000e+02
  9.02800000000000e+01
  3.52900000000000e+01
  1.45100000000000e+01
  4.05300000000000e+00
  7.88600000000000e+04
  1.18200000000000e+04
  2.69200000000000e+03
  2.49600000000000e+02
  9.02800000000000e+01
  3.52900000000000e+01
  1.45100000000000e+01
  4.05300000000000e+00
  1.48200000000000e+00
  7.88600000000000e+04
  1.18200000000000e+04
  2.69200000000000e+03
  9.02800000000000e+01
  3.52900000000000e+01
  1.45100000000000e+01
  4.05300000000000e+00
  1.48200000000000e+00
  2.51700000000000e-01
  9.24300000000000e-02
  3.15900000000000e+02
  7.44200000000000e+01
  2.34800000000000e+01
  8.48800000000000e+00
  3.21700000000000e+00
  1.22900000000000e+00
  7.44200000000000e+01
  2.34800000000000e+01
  8.48800000000000e+00
  3.21700000000000e+00
  1.22900000000000e+00
  2.96400000000000e-01
  8.76800000000000e-02
  2.75000000000000e-01
  7.88600000000000e+04
  1.18200000000000e+04
  2.69200000000000e+03
  7.63400000000000e+02
  2.49600000000000e+02
  9.02800000000000e+01
  3.52900000000000e+01
  1.45100000000000e+01
  4.05300000000000e+00
  7.88600000000000e+04
  1.18200000000000e+04
  2.69200000000000e+03
  2.49600000000000e+02
  9.02800000000000e+01
  3.52900000000000e+01
  1.45100000000000e+01
  4.05300000000000e+00
  1.48200000000000e+00
  7.88600000000000e+04
  1.18200000000000e+04
  2.69200000000000e+03
  9.02800000000000e+01
  3.52900000000000e+01
  1.45100000000000e+01
  4.05300000000000e+00
  1.48200000000000e+00
  2.51700000000000e-01
  9.24300000000000e-02
  3.15900000000000e+02
  7.44200000000000e+01
  2.34800000000000e+01
  8.48800000000000e+00
  3.21700000000000e+00
  1.22900000000000e+00
  7.44200000000000e+01
  2.34800000000000e+01
  8.48800000000000e+00
  3.21700000000000e+00
  1.22900000000000e+00
  2.96400000000000e-01
  8.76800000000000e-02
  2.75000000000000e-01
  7.88600000000000e+04
  1.18200000000000e+04
  2.69200000000000e+03
  7.63400000000000e+02
  2.49600000000000e+02
  9.02800000000000e+01
  3.52900000000000e+01
  1.45100000000000e+01
  4.05300000000000e+00
  7.88600000000000e+04
  1.18200000000000e+04
  2.69200000000000e+03
  2.49600000000000e+02
  9.02800000000000e+01
  3.52900000000000e+01
  1.45100000000000e+01
  4.05300000000000e+00
  1.48200000000000e+00
  7.88600000000000e+04
  1.18200000000000e+04
  2.69200000000000e+03
  9.02800000000000e+01
  3.52900000000000e+01
  1.45100000000000e+01
  4.05300000000000e+00
  1.48200000000000e+00
  2.51700000000000e-01
  9.24300000000000e-02
  3.15900000000000e+02
  7.44200000000000e+01
  2.34800000000000e+01
  8.48800000000000e+00
  3.21700000000000e+00
  1.22900000000000e+00
  7.44200000000000e+01
  2.34800000000000e+01
  8.48800000000000e+00
  3.21700000000000e+00
  1.22900000000000e+00
  2.96400000000000e-01
  8.76800000000000e-02
  2.75000000000000e-01
  7.88600000000000e+04
  1.18200000000000e+04
  2.69200000000000e+03
  7.63400000000000e+02
  2.49600000000000e+02
  9.02800000000000e+01
  3.52900000000000e+01
  1.45100000000000e+01
  4.05300000000000e+00
  7.88600000000000e+04
  1.18200000000000e+04
  2.69200000000000e+03
  2.49600000000000e+02
  9.02800000000000e+01
  3.52900000000000e+01
  1.45100000000000e+01
  4.05300000000000e+00
  1.48200000000000e+00
  7.88600000000000e+04
  1.18200000000000e+04
  2.69200000000000e+03
  9.02800000000000e+01
  3.52900000000000e+01
  1.45100000000000e+01
  4.05300000000000e+00
  1.48200000000000e+00
  2.51700000000000e-01
  9.24300000000000e-02
  3.15900000000000e+02
  7.44200000000000e+01
  2.34800000000000e+01
  8.48800000000000e+00
  3.21700000000000e+00
  1.22900000000000e+00
  7.44200000000000e+01
  2.34800000000000e+01
  8.48800000000000e+00
  3.21700000000000e+00
  1.22900000000000e+00
  2.96400000000000e-01
  8.76800000000000e-02
  2.75000000000000e-01
  7.88600000000000e+04
  1.18200000000000e+04
  2.69200000000000e+03
  7.63400000000000e+02
  2.49600000000000e+02
  9.02800000000000e+01
  3.52900000000000e+01
  1.45100000000000e+01
  4.05300000000000e+00
  7.88600000000000e+04
  1.18200000000000e+04
  2.69200000000000e+03
  2.49600000000000e+02
  9.02800000000000e+01
  3.52900000000000e+01
  1.45100000000000e+01
  4.05300000000000e+00
  1.48200000000000e+00
  7.88600000000000e+04
  1.18200000000000e+04
  2.69200000000000e+03
  9.02800000000000e+01
  3.52900000000000e+01
  1.45100000000000e+01
  4.05300000000000e+00
  1.48200000000000e+00
  2.51700000000000e-01
  9.24300000000000e-02
  3.15900000000000e+02
  7.44200000000000e+01
  2.34800000000000e+01
  8.48800000000000e+00
  3.21700000000000e+00
  1.22900000000000e+00
  7.44200000000000e+01
  2.34800000000000e+01
  8.48800000000000e+00
  3.21700000000000e+00
  1.22900000000000e+00
  2.96400000000000e-01
  8.76800000000000e-02
  2.75000000000000e-01
  7.88600000000000e+04
  1.18200000000000e+04
  2.69200000000000e+03
  7.63400000000000e+02
  2.49600000000000e+02
  9.02800000000000e+01
  3.52900000000000e+01
  1.45100000000000e+01
  4.05300000000000e+00
  7.88600000000000e+04
  1.18200000000000e+04
  2.69200000000000e+03
  2.49600000000000e+02
  9.02800000000000e+01
  3.52900000000000e+01
  1.45100000000000e+01
  4.05300000000000e+00
  1.48200000000000e+00
  7.88600000000000e+04
  1.18200000000000e+04
  2.69200000000000e+03
  9.02800000000000e+01
  3.52900000000000e+01
  1.45100000000000e+01
  4.05300000000000e+00
  1.48200000000000e+00
  2.51700000000000e-01
  9.24300000000000e-02
  3.15900000000000e+02
  7.44200000000000e+01
  2.34800000000000e+01
  8.48800000000000e+00
  3.21700000000000e+00
  1.22900000000000e+00
  7.44200000000000e+01
  2.34800000000000e+01
  8.48800000000000e+00
  3.21700000000000e+00
  1.22900000000000e+00
  2.96400000000000e-01
  8.76800000000000e-02
  2.75000000000000e-01
  7.88600000000000e+04
  1.18200000000000e+04
  2.69200000000000e+03
  7.63400000000000e+02
  2.49600000000000e+02
  9.02800000000000e+01
  3.52900000000000e+01
  1.45100000000000e+01
  4.05300000000000e+00
  7.88600000000000e+04
  1.18200000000000e+04
  2.69200000000000e+03
  2.49600000000000e+02
  9.02800000000000e+01
  3.52900000000000e+01
  1.45100000000000e+01
  4.05300000000000e+00
  1.48200000000000e+00
  7.88600000000000e+04
  1.18200000000000e+04
  2.69200000000000e+03
  9.02800000000000e+01
  3.52900000000000e+01
  1.45100000000000e+01
  4.05300000000000e+00
  1.48200000000000e+00
  2.51700000000000e-01
  9.24300000000000e-02
  3.15900000000000e+02
  7.44200000000000e+01
  2.34800000000000e+01
  8.48800000000000e+00
  3.21700000000000e+00
  1.22900000000000e+00
  7.44200000000000e+01
  2.34800000000000e+01
  8.48800000000000e+00
  3.21700000000000e+00
  1.22900000000000e+00
  2.96400000000000e-01
  8.76800000000000e-02
  2.75000000000000e-01
  7.88600000000000e+04
  1.18200000000000e+04
  2.69200000000000e+03
  7.63400000000000e+02
  2.49600000000000e+02
  9.02800000000000e+01
  3.52900000000000e+01
  1.45100000000000e+01
  4.05300000000000e+00
  7.88600000000000e+04
  1.18200000000000e+04
  2.69200000000000e+03
  2.49600000000000e+02
  9.02800000000000e+01
  3.52900000000000e+01
  1.45100000000000e+01
  4.05300000000000e+00
  1.48200000000000e+00
  7.88600000000000e+04
  1.18200000000000e+04
  2.69200000000000e+03
  9.02800000000000e+01
  3.52900000000000e+01
  1.45100000000000e+01
  4.05300000000000e+00
  1.48200000000000e+00
  2.51700000000000e-01
  9.24300000000000e-02
  3.15900000000000e+02
  7.44200000000000e+01
  2.34800000000000e+01
  8.48800000000000e+00
  3.21700000000000e+00
  1.22900000000000e+00
  7.44200000000000e+01
  2.34800000000000e+01
  8.48800000000000e+00
  3.21700000000000e+00
  1.22900000000000e+00
  2.96400000000000e-01
  8.76800000000000e-02
  2.75000000000000e-01
  7.88600000000000e+04
  1.18200000000000e+04
  2.69200000000000e+03
  7.63400000000000e+02
  2.49600000000000e+02
  9.02800000000000e+01
  3.52900000000000e+01
  1.45100000000000e+01
  4.05300000000000e+00
  7.88600000000000e+04
  1.18200000000000e+04
  2.69200000000000e+03
  2.49600000000000e+02
  9.02800000000000e+01
  3.52900000000000e+01
  1.45100000000000e+01
  4.05300000000000e+00
  1.48200000000000e+00
  7.88600000000000e+04
  1.18200000000000e+04
  2.69200000000000e+03
  9.02800000000000e+01
  3.52900000000000e+01
  1.45100000000000e+01
  4.05300000000000e+00
  1.48200000000000e+00
  2.51700000000000e-01
  9.24300000000000e-02
  3.15900000000000e+02
  7.44200000000000e+01
  2.34800000000000e+01
  8.48800000000000e+00
  3.21700000000000e+00
  1.22900000000000e+00
  7.44200000000000e+01
  2.34800000000000e+01
  8.48800000000000e+00
  3.21700000000000e+00
  1.22900000000000e+00
  2.96400000000000e-01
  8.76800000000000e-02
  2.75000000000000e-01
  7.88600000000000e+04
  1.18200000000000e+04
  2.69200000000000e+03
  7.63400000000000e+02
  2.49600000000000e+02
  9.02800000000000e+01
  3.52900000000000e+01
  1.45100000000000e+01
  4.05300000000000e+00
  7.88600000000000e+04
  1.18200000000000e+04
  2.69200000000000e+03
  2.49600000000000e+02
  9.02800000000000e+01
  3.52900000000000e+01
  1.45100000000000e+01
  4.05300000000000e+00
  1.48200000000000e+00
  7.88600000000000e+04
  1.18200000000000e+04
  2.69200000000000e+03
  9.02800000000000e+01
  3.52900000000000e+01
  1.45100000000000e+01
  4.05300000000000e+00
  1.48200000000000e+00
  2.51700000000000e-01
  9.24300000000000e-02
  3.15900000000000e+02
  7.44200000000000e+01
  2.34800000000000e+01
  8.48800000000000e+00
  3.21700000000000e+00
  1.22900000000000e+00
  7.44200000000000e+01
  2.34800000000000e+01
  8.48800000000000e+00
  3.21700000000000e+00
  1.22900000000000e+00
  2.96400000000000e-01
  8.76800000000000e-02
  2.75000000000000e-01
  7.88600000000000e+04
  1.18200000000000e+04
  2.69200000000000e+03
  7.63400000000000e+02
  2.49600000000000e+02
  9.02800000000000e+01
  3.52900000000000e+01
  1.45100000000000e+01
  4.05300000000000e+00
  7.88600000000000e+04
  1.18200000000000e+04
  2.69200000000000e+03
  2.49600000000000e+02
  9.02800000000000e+01
  3.52900000000000e+01
  1.45100000000000e+01
  4.05300000000000e+00
  1.48200000000000e+00
  7.88600000000000e+04
  1.18200000000000e+04
  2.69200000000000e+03
  9.02800000000000e+01
  3.52900000000000e+01
  1.45100000000000e+01
  4.05300000000000e+00
  1.48200000000000e+00
  2.51700000000000e-01
  9.24300000000000e-02
  3.15900000000000e+02
  7.44200000000000e+01
  2.34800000000000e+01
  8.48800000000000e+00
  3.21700000000000e+00
  1.22900000000000e+00
  7.44200000000000e+01
  2.34800000000000e+01
  8.48800000000000e+00
  3.21700000000000e+00
  1.22900000000000e+00
  2.96400000000000e-01
  8.76800000000000e-02
  2.75000000000000e-01
  7.88600000000000e+04
  1.18200000000000e+04
  2.69200000000000e+03
  7.63400000000000e+02
  2.49600000000000e+02
  9.02800000000000e+01
  3.52900000000000e+01
  1.45100000000000e+01
  4.05300000000000e+00
  7.88600000000000e+04
  1.18200000000000e+04
  2.69200000000000e+03
  2.49600000000000e+02
  9.02800000000000e+01
  3.52900000000000e+01
  1.45100000000000e+01
  4.05300000000000e+00
  1.48200000000000e+00
  7.88600000000000e+04
  1.18200000000000e+04
  2.69200000000000e+03
  9.02800000000000e+01
  3.52900000000000e+01
  1.45100000000000e+01
  4.05300000000000e+00
  1.48200000000000e+00
  2.51700000000000e-01
  9.24300000000000e-02
  3.15900000000000e+02
  7.44200000000000e+01
  2.34800000000000e+01
  8.48800000000000e+00
  3.21700000000000e+00
  1.22900000000000e+00
  7.44200000000000e+01
  2.34800000000000e+01
  8.48800000000000e+00
  3.21700000000000e+00
  1.22900000000000e+00
  2.96400000000000e-01
  8.76800000000000e-02
  2.75000000000000e-01
  7.88600000000000e+04
  1.18200000000000e+04
  2.69200000000000e+03
  7.63400000000000e+02
  2.49600000000000e+02
  9.02800000000000e+01
  3.52900000000000e+01
  1.45100000000000e+01
  4.05300000000000e+00
  7.88600000000000e+04
  1.18200000000000e+04
  2.69200000000000e+03
  2.49600000000000e+02
  9.02800000000000e+01
  3.52900000000000e+01
  1.45100000000000e+01
  4.05300000000000e+00
  1.48200000000000e+00
  7.88600000000000e+04
  1.18200000000000e+04
  2.69200000000000e+03
  9.02800000000000e+01
  3.52900000000000e+01
  1.45100000000000e+01
  4.05300000000000e+00
  1.48200000000000e+00
  2.51700000000000e-01
  9.24300000000000e-02
  3.15900000000000e+02
  7.44200000000000e+01
  2.34800000000000e+01
  8.48800000000000e+00
  3.21700000000000e+00
  1.22900000000000e+00
  7.44200000000000e+01
  2.34800000000000e+01
  8.48800000000000e+00
  3.21700000000000e+00
  1.22900000000000e+00
  2.96400000000000e-01
  8.76800000000000e-02
  2.75000000000000e-01
  7.88600000000000e+04
  1.18200000000000e+04
  2.69200000000000e+03
  7.63400000000000e+02
  2.49600000000000e+02
  9.02800000000000e+01
  3.52900000000000e+01
  1.45100000000000e+01
  4.05300000000000e+00
  7.88600000000000e+04
  1.18200000000000e+04
  2.69200000000000e+03
  2.49600000000000e+02
  9.02800000000000e+01
  3.52900000000000e+01
  1.45100000000000e+01
  4.05300000000000e+00
  1.48200000000000e+00
  7.88600000000000e+04
  1.18200000000000e+04
  2.69200000000000e+03
  9.02800000000000e+01
  3.52900000000000e+01
  1.45100000000000e+01
  4.05300000000000e+00
  1.48200000000000e+00
  2.51700000000000e-01
  9.24300000000000e-02
  3.15900000000000e+02
  7.44200000000000e+01
  2.34800000000000e+01
  8.48800000000000e+00
  3.21700000000000e+00
  1.22900000000000e+00
  7.44200000000000e+01
  2.34800000000000e+01
  8.48800000000000e+00
  3.21700000000000e+00
  1.22900000000000e+00
  2.96400000000000e-01
  8.76800000000000e-02
  2.75000000000000e-01
  7.88600000000000e+04
  1.18200000000000e+04
  2.69200000000000e+03
  7.63400000000000e+02
  2.49600000000000e+02
  9.02800000000000e+01
  3.52900000000000e+01
  1.45100000000000e+01
  4.05300000000000e+00
  7.88600000000000e+04
  1.18200000000000e+04
  2.69200000000000e+03
  2.49600000000000e+02
  9.02800000000000e+01
  3.52900000000000e+01
  1.45100000000000e+01
  4.05300000000000e+00
  1.48200000000000e+00
  7.88600000000000e+04
  1.18200000000000e+04
  2.69200000000000e+03
  9.02800000000000e+01
  3.52900000000000e+01
  1.45100000000000e+01
  4.05300000000000e+00
  1.48200000000000e+00
  2.51700000000000e-01
  9.24300000000000e-02
  3.15900000000000e+02
  7.44200000000000e+01
  2.34800000000000e+01
  8.48800000000000e+00
  3.21700000000000e+00
  1.22900000000000e+00
  7.44200000000000e+01
  2.34800000000000e+01
  8.48800000000000e+00
  3.21700000000000e+00
  1.22900000000000e+00
  2.96400000000000e-01
  8.76800000000000e-02
  2.75000000000000e-01
  7.88600000000000e+04
  1.18200000000000e+04
  2.69200000000000e+03
  7.63400000000000e+02
  2.49600000000000e+02
  9.02800000000000e+01
  3.52900000000000e+01
  1.45100000000000e+01
  4.05300000000000e+00
  7.88600000000000e+04
  1.18200000000000e+04
  2.69200000000000e+03
  2.49600000000000e+02
  9.02800000000000e+01
  3.52900000000000e+01
  1.45100000000000e+01
  4.05300000000000e+00
  1.48200000000000e+00
  7.88600000000000e+04
  1.18200000000000e+04
  2.69200000000000e+03
  9.02800000000000e+01
  3.52900000000000e+01
  1.45100000000000e+01
  4.05300000000000e+00
  1.48200000000000e+00
  2.51700000000000e-01
  9.24300000000000e-02
  3.15900000000000e+02
  7.44200000000000e+01
  2.34800000000000e+01
  8.48800000000000e+00
  3.21700000000000e+00
  1.22900000000000e+00
  7.44200000000000e+01
  2.34800000000000e+01
  8.48800000000000e+00
  3.21700000000000e+00
  1.22900000000000e+00
  2.96400000000000e-01
  8.76800000000000e-02
  2.75000000000000e-01
  7.88600000000000e+04
  1.18200000000000e+04
  2.69200000000000e+03
  7.63400000000000e+02
  2.49600000000000e+02
  9.02800000000000e+01
  3.52900000000000e+01
  1.45100000000000e+01
  4.05300000000000e+00
  7.88600000000000e+04
  1.18200000000000e+04
  2.69200000000000e+03
  2.49600000000000e+02
  9.02800000000000e+01
  3.52900000000000e+01
  1.45100000000000e+01
  4.05300000000000e+00
  1.48200000000000e+00
  7.88600000000000e+04
  1.18200000000000e+04
  2.69200000000000e+03
  9.02800000000000e+01
  3.52900000000000e+01
  1.45100000000000e+01
  4.05300000000000e+00
  1.48200000000000e+00
  2.51700000000000e-01
  9.24300000000000e-02
  3.15900000000000e+02
  7.44200000000000e+01
  2.34800000000000e+01
  8.48800000000000e+00
  3.21700000000000e+00
  1.22900000000000e+00
  7.44200000000000e+01
  2.34800000000000e+01
  8.48800000000000e+00
  3.21700000000000e+00
  1.22900000000000e+00
  2.96400000000000e-01
  8.76800000000000e-02
  2.75000000000000e-01
  7.88600000000000e+04
  1.18200000000000e+04
  2.69200000000000e+03
  7.63400000000000e+02
  2.49600000000000e+02
  9.02800000000000e+01
  3.52900000000000e+01
  1.45100000000000e+01
  4.05300000000000e+00
  7.88600000000000e+04
  1.18200000000000e+04
  2.69200000000000e+03
  2.49600000000000e+02
  9.02800000000000e+01
  3.52900000000000e+01
  1.45100000000000e+01
  4.05300000000000e+00
  1.48200000000000e+00
  7.88600000000000e+04
  1.18200000000000e+04
  2.69200000000000e+03
  9.02800000000000e+01
  3.52900000000000e+01
  1.45100000000000e+01
  4.05300000000000e+00
  1.48200000000000e+00
  2.51700000000000e-01
  9.24300000000000e-02
  3.15900000000000e+02
  7.44200000000000e+01
  2.34800000000000e+01
  8.48800000000000e+00
  3.21700000000000e+00
  1.22900000000000e+00
  7.44200000000000e+01
  2.34800000000000e+01
  8.48800000000000e+00
  3.21700000000000e+00
  1.22900000000000e+00
  2.96400000000000e-01
  8.76800000000000e-02
  2.75000000000000e-01
  7.88600000000000e+04
  1.18200000000000e+04
  2.69200000000000e+03
  7.63400000000000e+02
  2.49600000000000e+02
  9.02800000000000e+01
  3.52900000000000e+01
  1.45100000000000e+01
  4.05300000000000e+00
  7.88600000000000e+04
  1.18200000000000e+04
  2.69200000000000e+03
  2.49600000000000e+02
  9.02800000000000e+01
  3.52900000000000e+01
  1.45100000000000e+01
  4.05300000000000e+00
  1.48200000000000e+00
  7.88600000000000e+04
  1.18200000000000e+04
  2.69200000000000e+03
  9.02800000000000e+01
  3.52900000000000e+01
  1.45100000000000e+01
  4.05300000000000e+00
  1.48200000000000e+00
  2.51700000000000e-01
  9.24300000000000e-02
  3.15900000000000e+02
  7.44200000000000e+01
  2.34800000000000e+01
  8.48800000000000e+00
  3.21700000000000e+00
  1.22900000000000e+00
  7.44200000000000e+01
  2.34800000000000e+01
  8.48800000000000e+00
  3.21700000000000e+00
  1.22900000000000e+00
  2.96400000000000e-01
  8.76800000000000e-02
  2.75000000000000e-01
  7.88600000000000e+04
  1.18200000000000e+04
  2.69200000000000e+03
  7.63400000000000e+02
  2.49600000000000e+02
  9.02800000000000e+01
  3.52900000000000e+01
  1.45100000000000e+01
  4.05300000000000e+00
  7.88600000000000e+04
  1.18200000000000e+04
  2.69200000000000e+03
  2.49600000000000e+02
  9.02800000000000e+01
  3.52900000000000e+01
  1.45100000000000e+01
  4.05300000000000e+00
  1.48200000000000e+00
  7.88600000000000e+04
  1.18200000000000e+04
  2.69200000000000e+03
  9.02800000000000e+01
  3.52900000000000e+01
  1.45100000000000e+01
  4.05300000000000e+00
  1.48200000000000e+00
  2.51700000000000e-01
  9.24300000000000e-02
  3.15900000000000e+02
  7.44200000000000e+01
  2.34800000000000e+01
  8.48800000000000e+00
  3.21700000000000e+00
  1.22900000000000e+00
  7.44200000000000e+01
  2.34800000000000e+01
  8.48800000000000e+00
  3.21700000000000e+00
  1.22900000000000e+00
  2.96400000000000e-01
  8.76800000000000e-02
  2.75000000000000e-01
  7.88600000000000e+04
  1.18200000000000e+04
  2.69200000000000e+03
  7.63400000000000e+02
  2.49600000000000e+02
  9.02800000000000e+01
  3.52900000000000e+01
  1.45100000000000e+01
  4.05300000000000e+00
  7.88600000000000e+04
  1.18200000000000e+04
  2.69200000000000e+03
  2.49600000000000e+02
  9.02800000000000e+01
  3.52900000000000e+01
  1.45100000000000e+01
  4.05300000000000e+00
  1.48200000000000e+00
  7.88600000000000e+04
  1.18200000000000e+04
  2.69200000000000e+03
  9.02800000000000e+01
  3.52900000000000e+01
  1.45100000000000e+01
  4.05300000000000e+00
  1.48200000000000e+00
  2.51700000000000e-01
  9.24300000000000e-02
  3.15900000000000e+02
  7.44200000000000e+01
  2.34800000000000e+01
  8.48800000000000e+00
[...]
 0.47941 0.47941 0.47941 0.47941 0.47941 0.47941 0.47941 0.47941 0.47941 0.47941
 0.47941 0.47941 0.49806 0.49806 0.49806 0.49806 0.49806 0.49806 0.49806 0.49806
 0.49806 0.49806 0.49806 0.49806 0.49806 0.49806 0.49806 0.49806 0.49806 0.49806
 0.49806 0.49806 0.49806 0.49806 0.49806 0.49806 0.49925 0.49925 0.49925 0.49925
 0.49925 0.49925 0.49925 0.49925 0.49925 0.49925 0.49925 0.49925 0.50819 0.50819
 0.50819 0.50819 0.50819 0.50819 0.50819 0.50819 0.50819 0.50819 0.50819 0.50819
 0.50819 0.50819 0.50819 0.50819 0.50819 0.50819 0.50819 0.50819 0.50819 0.50819
 0.50819 0.50819 0.51044 0.51044 0.51044 0.51044 0.51044 0.51044 0.51044 0.51044
 0.51044 0.51044 0.51044 0.51044 0.53665 0.53665 0.53665 0.53665 0.53665 0.53665
 0.53665 0.53665 0.56680 0.56680 0.56680 0.56680 0.56680 0.56680 0.56680 0.56680
 0.56680 0.56680 0.56680 0.56680 0.58817 0.58817 0.59296 0.59296 0.59296 0.59296
 0.59296 0.59296 0.59296 0.59296 0.59296 0.59296 0.59296 0.59296 0.59296 0.59296
 0.59296 0.59296 0.60047 0.60047 0.60047 0.60047 0.60427 0.60427 0.60427 0.60427
 0.60427 0.60427 0.61902 0.63761 0.63761 0.63761 0.63761 0.63761 0.63761 0.65634
 0.65634 0.65634 0.65634 0.65634 0.65634 0.66038 0.66038 0.66038 0.66038 0.66038
 0.66038 0.66038 0.66038 0.66038 0.66038 0.66038 0.66038 0.67611 0.67611 0.67611
 0.67611 0.67611 0.67611 0.67611 0.67611 0.67611 0.67611 0.67611 0.67611 0.67611
 0.67611 0.67611 0.67611 0.67611 0.67611 0.67611 0.67611 0.67611 0.67611 0.67611
 0.67611 0.68778 0.68778 0.68778 0.68778 0.68778 0.68778 0.68778 0.68778 0.68778
 0.68778 0.68778 0.68778 0.69736 0.69736 0.69736 0.69736 0.69736 0.69736 0.69736
 0.69736 0.70503 0.70503 0.70503 0.70503 0.70503 0.70503 0.70503 0.70503 0.70503
 0.70503 0.70503 0.70503 0.70503 0.70503 0.70503 0.70503 0.70503 0.70503 0.70503
 0.70503 0.70503 0.70503 0.70503 0.70503 0.70569 0.70569 0.70569 0.70569 0.70569
 0.70569 0.70569 0.70569 0.71735 0.71735 0.71735 0.71735 0.72562 0.72562 0.72562
 0.72562 0.72562 0.72562 0.72867 0.72867 0.72867 0.72867 0.72867 0.72867 0.76008
 0.76008 0.76008 0.76008 0.76008 0.76008 0.76008 0.76008 0.76848 0.76848 0.76848
 0.76848 0.76848 0.76848 0.76848 0.76848 0.76848 0.76848 0.76848 0.76848 0.76848
 0.76848 0.76848 0.76848 0.76848 0.76848 0.76848 0.76848 0.76848 0.76848 0.76848
 0.76848 0.77257 0.77257 0.77257 0.77257 0.77257 0.77257 0.77487 0.77487 0.77487
 0.77487 0.77487 0.77487 0.77487 0.77487 0.77487 0.77487 0.77487 0.77487 0.77487
 0.77487 0.77487 0.77487 0.77487 0.77487 0.77487 0.77487 0.77487 0.77487 0.77487
 0.77487 0.78652 0.78652 0.78652 0.78652 0.78652 0.78652 0.78652 0.78652 0.78652
 0.78652 0.78652 0.78652 0.78906 0.78906 0.78906 0.78906 0.78906 0.78906 0.79314
 0.79314 0.79314 0.79314 0.79398 0.79398 0.79398 0.79398 0.79398 0.79398 0.79398
 0.79398 0.80265 0.80265 0.80265 0.80265 0.80265 0.80265 0.80265 0.80265 0.80265
 0.80265 0.80265 0.80265 0.81700 0.81700 0.81700 0.81700 0.81700 0.81700 0.81700
 0.81700 0.81700 0.81700 0.81700 0.81700 0.84519 0.84519 0.84519 0.84939 0.84939
 0.84939 0.84939 0.84939 0.84939 0.84939 0.84939 0.84939 0.84939 0.84939 0.84939
 0.86113 0.86113 0.86113 0.86113 0.86113 0.86113 0.86113 0.86113 0.86113 0.86113
 0.86113 0.86113 0.86343 0.86343 0.86343 0.86343 0.86343 0.86343 0.86343 0.86343
 0.86343 0.86343 0.86343 0.86343 0.86343 0.86343 0.86343 0.86343 0.86343 0.86343
 0.86343 0.86343 0.86343 0.86343 0.86343 0.86343 0.88876 0.88876 0.88876 0.88876
 0.88876 0.88876 0.90914 0.90914 0.90914 0.90914 0.90914 0.90914 0.90914 0.90914
 0.90914 0.90914 0.90914 0.90914 0.90914 0.90914 0.90914 0.90914 0.94091 0.94091
 0.94091 0.94091 0.94091 0.94091 0.94091 0.94091 0.94091 0.94091 0.94091 0.94091
 0.94091 0.94091 0.94091 0.94091 0.94091 0.94091 0.94091 0.94091 0.94091 0.94091
 0.94091 0.94091 0.95380 0.95380 0.95380 0.95380 0.95380 0.95380 0.95380 0.95380
 0.95380 0.95380 0.95380 0.95380 0.95905 0.95905 0.95905 0.95905 0.95905 0.95905
 0.95905 0.95905 0.95905 0.95905 0.95905 0.95905 0.97597 0.97597 0.97597 0.97597
 0.97597 0.97597 0.97597 0.97597 0.97597 0.97597 0.97597 0.97597 1.00848 1.00848
 1.00848 1.00848 1.00848 1.00848 1.00848 1.00848 1.00879 1.00879 1.00879 1.00879
 1.00879 1.00879 1.00879 1.00879 1.00879 1.00879 1.00879 1.00879 1.00879 1.00879
 1.00879 1.00879 1.00879 1.00879 1.00879 1.00879 1.00879 1.00879 1.00879 1.00879
 1.01892 1.01892 1.01892 1.01892 1.01892 1.01892 1.01892 1.01892 1.01892 1.01892
 1.01892 1.01892 1.02510 1.02510 1.02510 1.02510 1.02510 1.02510 1.02510 1.02510
 1.02510 1.02510 1.02510 1.02510 1.02510 1.02510 1.02510 1.02510 1.02510 1.02510
 1.02510 1.02510 1.02510 1.02510 1.02510 1.02510 1.03083 1.03083 1.03083 1.03083
 1.03083 1.03083 1.03083 1.03083 1.03083 1.03083 1.03083 1.03083 1.03146 1.03146
 1.03146 1.03146 1.03146 1.03146 1.03146 1.03146 1.03146 1.03146 1.03146 1.03146
 1.04051 1.04051 1.04051 1.04051 1.04051 1.04051 1.04990 1.04990 1.04990 1.04990
 1.05308 1.05308 1.05308 1.05308 1.05308 1.05308 1.05596 1.05596 1.05596 1.05596
 1.05596 1.05596 1.05596 1.05596 1.05596 1.05596 1.05596 1.05596 1.05942 1.05942
 1.05942 1.05942 1.06209 1.06500 1.06500 1.06500 1.06500 1.06500 1.06500 1.06500
 1.06500 1.06500 1.06500 1.06500 1.06500 1.07615 1.07615 1.07615 1.07615 1.07615
 1.07615 1.07615 1.07615 1.07615 1.07615 1.07615 1.07615 1.07615 1.07615 1.07615
 1.07615 1.07615 1.07615 1.07615 1.07615 1.07615 1.07615 1.07615 1.07615 1.08398
 1.08398 1.08398 1.08398 1.08398 1.08398 1.08398 1.08398 1.08398 1.08398 1.08398
 1.08398 1.08924 1.08924 1.08924 1.08924 1.08924 1.08924 1.10753 1.10753 1.10753
 1.10753 1.10753 1.10753 1.10753 1.10753 1.10753 1.10753 1.10753 1.10753 1.10753
 1.10753 1.10753 1.10753 1.11552 1.11552 1.11552 1.11552 1.11552 1.11552 1.11552
 1.11552 1.11552 1.11552 1.11552 1.11552 1.11552 1.11552 1.11552 1.11552 1.11552
 1.11552 1.11552 1.11552 1.11552 1.11552 1.11552 1.11552 1.13412 1.13412 1.13412
 1.13412 1.13412 1.13412 1.13796 1.13796 1.13796 1.13796 1.13796 1.13796 1.13796
 1.13796 1.13796 1.13796 1.13796 1.13796 1.13796 1.13796 1.13796 1.13796 1.13796
 1.13796 1.13796 1.13796 1.13796 1.13796 1.13796 1.13796 1.15311 1.15311 1.15311
 1.15311 1.15311 1.15311 1.15311 1.15311 1.15311 1.15311 1.15311 1.15311 1.16515
 1.16515 1.16515 1.16515 1.16515 1.16515 1.16515 1.16515 1.18237 1.18237 1.18237
 1.18237 1.18237 1.18237 1.18639 1.18639 1.18639 1.18639 1.18639 1.18639 1.18974
 1.18974 1.18974 1.18974 1.18974 1.18974 1.18974 1.18974 1.23489 1.23489 1.23489
 1.23489 1.23489 1.23489 1.23489 1.23489 1.24388 1.24388 1.24388 1.24388 1.24388
 1.24388 1.24388 1.24388 1.24388 1.24388 1.24388 1.24388 1.24388 1.24388 1.24388
 1.24388 1.24388 1.24388 1.24388 1.24388 1.24388 1.24388 1.24388 1.24388 1.24945
 1.24945 1.24945 1.24945 1.24945 1.24945 1.24945 1.24945 1.24945 1.24945 1.24945
 1.24945 1.25147 1.25147 1.25147 1.25147 1.25147 1.25147 1.25672 1.25672 1.25672
 1.26118 1.26118 1.26118 1.26118 1.26118 1.26118 1.26118 1.26118 1.26118 1.26118
 1.26118 1.26118 1.27274 1.27274 1.29828 1.29828 1.29828 1.29828 1.29828 1.29828
 1.29828 1.29828 1.29828 1.29828 1.29828 1.29828 1.29828 1.29828 1.29828 1.29828
 1.31320 1.31320 1.31320 1.31320 1.31320 1.31320 1.31320 1.31320 1.31320 1.31320
 1.31320 1.31320 1.31408 1.31409 1.31409 1.31409 1.32457 1.32457 1.32457 1.32457
 1.32457 1.32457 1.32457 1.32457 1.32457 1.32457 1.32457 1.32457 1.32457 1.32457
 1.32457 1.32457 1.32457 1.32457 1.32457 1.32457 1.32457 1.32457 1.32457 1.32457
 1.33206 1.33206 1.33206 1.33206 1.33206 1.33206 1.33206 1.33206 1.33206 1.33206
 1.33206 1.33206 1.33206 1.33206 1.33206 1.33206 1.33206 1.33206 1.33206 1.33206
 1.33206 1.33206 1.33206 1.33206 1.33419 1.33419 1.33419 1.33419 1.33419 1.33419
 1.33419 1.33419 1.33419 1.33419 1.33419 1.33419 1.37428 1.37428 1.37428 1.37428
 1.37428 1.37428 1.38226 1.38226 1.38226 1.39362 1.39362 1.39362 1.39362 1.39362
 1.39362 1.39362 1.39362 1.39362 1.39362 1.39362 1.39362 1.39362 1.39362 1.39362
 1.39362 1.39362 1.39362 1.39362 1.39362 1.39362 1.39362 1.39362 1.39362 1.39513
 1.39513 1.39513 1.39513 1.39513 1.39513 1.39513 1.39513 1.40803 1.40803 1.40803
 1.40803 1.40803 1.40803 1.40803 1.40803 1.40803 1.40803 1.40803 1.40803 1.42041
 1.42041 1.42041 1.42041 1.42041 1.42041 1.42041 1.42041 1.42041 1.42041 1.42041
 1.42041 1.42386 1.42386 1.42386 1.42387 1.42387 1.42387 1.42395 1.42395 1.42395
 1.42395 1.42395 1.42395 1.42396 1.42396 1.42396 1.42396 1.42396 1.42396 1.46394
 1.46394 1.46394 1.46394 1.46394 1.46394 1.46394 1.46394 1.46394 1.46394 1.46394
 1.46394 1.48726 1.48726 1.48726 1.48726 1.48726 1.48726 1.48726 1.48726 1.48871
 1.48871 1.48871 1.48871 1.48871 1.48871 1.48871 1.48871 1.48871 1.48871 1.48871
 1.48871 1.48871 1.48871 1.48871 1.48871 1.50425 1.50425 1.50425 1.50426 1.50426
 1.50426 1.50426 1.50426 1.59527 1.59527 1.59527 1.59527 1.59527 1.59527 1.61657
 1.61657 1.61657 1.61657 1.61657 1.61657 1.61953 1.61953 1.61953 1.61953 1.61953
 1.61953 1.61953 1.61953 1.61953 1.61953 1.61953 1.61953 1.61954 1.61954 1.61954
 1.61954 1.61954 1.61954 1.61954 1.61954 1.61954 1.61954 1.61954 1.61954 1.65325
 1.65325 1.65325 1.65325 1.65325 1.65325 1.65325 1.65325 1.65325 1.65325 1.65325
 1.65325 1.69009 1.69009 1.69009 1.70492 1.70492 1.70492 1.70492 1.70492 1.70492
 1.70492 1.70492 1.70492 1.70492 1.70492 1.70492 1.70492 1.70492 1.70492 1.70492
 1.70492 1.70492 1.70492 1.70492 1.70492 1.70492 1.70492 1.70492 1.71887 1.71887
 1.71887 1.71887 1.71887 1.71887 1.71887 1.71887 1.71887 1.71887 1.71887 1.71887
 1.71887 1.71887 1.71887 1.71887 1.84806 1.84806 1.84806 1.84806 1.84806 1.84806
 1.84806 1.84806 1.84806 1.84806 1.84806 1.84806 1.89078 1.89078 1.89078 1.89078
 1.89078 1.89078 1.89078 1.89078 1.89078 1.89078 1.89078 1.89078 1.92108 1.92108
 1.92108 1.92108 1.92108 1.92108 2.07281 2.07281 2.07281 2.07281 2.07281 2.07281
 2.07281 2.07281 2.07281 2.07281 2.07281 2.07281 2.17610 2.17610 2.17610 2.17610
 2.17610 2.17610 2.17610 2.17610 2.17610 2.17610 2.17610 2.17610 2.26930 2.26930
 2.26930 2.26931 2.26931 2.26931 2.26931 2.26931 2.48309 2.48309 2.48309 2.48310
 2.48310 2.48310 2.48310 2.48310 2.48310 2.48310 2.48310 2.48310 2.48310 2.48310
 2.48310 2.48310 2.48310 2.48310 2.48310 2.48310 2.48310 2.48310 2.48310 2.48310
 2.61747 2.61747 2.61747 2.61747
 ---------------------------------------------------------------------------
 VBM is at 0-th k-point with 7.62776 eV
 CBM is at 0-th k-point with 8.41482 eV
 Band gap is 0.78706 eV


           Ground-State Mulliken Net Atomic Charges

      Atom                 Charge (a.u.)          Spin (a.u.)
   --------------------------------------------------------
      1 Si               (0.000000,-0.000000)    (0.000000,0.000000)
      2 Si               (0.000001,-0.000000)    (0.000000,0.000000)
      3 Si              (-0.000000,-0.000000)    (0.000000,0.000000)
      4 Si               (0.000001,-0.000000)    (0.000000,0.000000)
      5 Si               (0.000000,-0.000000)    (0.000000,0.000000)
      6 Si               (0.000000,-0.000000)    (0.000000,0.000000)
      7 Si               (0.000000,-0.000000)    (0.000000,0.000000)
      8 Si               (0.000001,-0.000000)    (0.000000,0.000000)
      9 Si              (-0.000000,-0.000000)    (0.000000,0.000000)
     10 Si               (0.000001,-0.000000)    (0.000000,0.000000)
     11 Si              (-0.000001,-0.000000)    (0.000000,0.000000)
     12 Si               (0.000000,-0.000000)    (0.000000,0.000000)
     13 Si              (-0.000000,-0.000000)    (0.000000,0.000000)
     14 Si              (-0.000000,-0.000000)    (0.000000,0.000000)
     15 Si               (0.000000,-0.000000)    (0.000000,0.000000)
     16 Si               (0.000000,-0.000000)    (0.000000,0.000000)
     17 Si               (0.000000,-0.000000)    (0.000000,0.000000)
     18 Si               (0.000000,-0.000000)    (0.000000,0.000000)
     19 Si              (-0.000000,-0.000000)    (0.000000,0.000000)
     20 Si              (-0.000000,-0.000000)    (0.000000,0.000000)
     21 Si               (0.000000,-0.000000)    (0.000000,0.000000)
     22 Si              (-0.000000,-0.000000)    (0.000000,0.000000)
     23 Si               (0.000000,-0.000000)    (0.000000,0.000000)
     24 Si               (0.000000,-0.000000)    (0.000000,0.000000)
     25 Si               (0.000000,-0.000000)    (0.000000,0.000000)
     26 Si               (0.000001,-0.000000)    (0.000000,0.000000)
     27 Si               (0.000000,-0.000000)    (0.000000,0.000000)
     28 Si               (0.000000,-0.000000)    (0.000000,0.000000)
     29 Si               (0.000000,-0.000000)    (0.000000,0.000000)
     30 Si               (0.000000,-0.000000)    (0.000000,0.000000)
     31 Si               (0.000001,-0.000000)    (0.000000,0.000000)
     32 Si               (0.000000,-0.000000)    (0.000000,0.000000)
     33 Si              (-0.000000,-0.000000)    (0.000000,0.000000)
     34 Si               (0.000001,-0.000000)    (0.000000,0.000000)
     35 Si              (-0.000001,-0.000000)    (0.000000,0.000000)
     36 Si               (0.000000,-0.000000)    (0.000000,0.000000)
     37 Si              (-0.000000,-0.000000)    (0.000000,0.000000)
     38 Si              (-0.000000,-0.000000)    (0.000000,0.000000)
     39 Si               (0.000000,-0.000000)    (0.000000,0.000000)
     40 Si               (0.000000,-0.000000)    (0.000000,0.000000)
     41 Si              (-0.000001,-0.000000)    (0.000000,0.000000)
     42 Si               (0.000000,-0.000000)    (0.000000,0.000000)
     43 Si              (-0.000001,-0.000000)    (0.000000,0.000000)
     44 Si              (-0.000000,-0.000000)    (0.000000,0.000000)
     45 Si              (-0.000001,-0.000000)    (0.000000,0.000000)
     46 Si              (-0.000000,-0.000000)    (0.000000,0.000000)
     47 Si              (-0.000000,-0.000000)    (0.000000,0.000000)
     48 Si               (0.000000,-0.000000)    (0.000000,0.000000)
     49 Si              (-0.000000,-0.000000)    (0.000000,0.000000)
     50 Si              (-0.000000,-0.000000)    (0.000000,0.000000)
     51 Si              (-0.000001,-0.000000)    (0.000000,0.000000)
     52 Si              (-0.000000,-0.000000)    (0.000000,0.000000)
     53 Si              (-0.000000,-0.000000)    (0.000000,0.000000)
     54 Si              (-0.000001,-0.000000)    (0.000000,0.000000)
     55 Si              (-0.000000,-0.000000)    (0.000000,0.000000)
     56 Si              (-0.000000,-0.000000)    (0.000000,0.000000)
     57 Si               (0.000000,-0.000000)    (0.000000,0.000000)
     58 Si               (0.000000,-0.000000)    (0.000000,0.000000)
     59 Si              (-0.000000,-0.000000)    (0.000000,0.000000)
     60 Si               (0.000000,-0.000000)    (0.000000,0.000000)
     61 Si              (-0.000000,-0.000000)    (0.000000,0.000000)
     62 Si              (-0.000000,-0.000000)    (0.000000,0.000000)
     63 Si               (0.000000,-0.000000)    (0.000000,0.000000)
     64 Si               (0.000000,-0.000000)    (0.000000,0.000000)
     65 Si               (0.000000,-0.000000)    (0.000000,0.000000)
     66 Si               (0.000000,-0.000000)    (0.000000,0.000000)
     67 Si              (-0.000000,-0.000000)    (0.000000,0.000000)
     68 Si              (-0.000000,-0.000000)    (0.000000,0.000000)
     69 Si               (0.000000,-0.000000)    (0.000000,0.000000)
     70 Si              (-0.000000,-0.000000)    (0.000000,0.000000)
     71 Si               (0.000000,-0.000000)    (0.000000,0.000000)
     72 Si               (0.000000,-0.000000)    (0.000000,0.000000)
     73 Si              (-0.000000,-0.000000)    (0.000000,0.000000)
     74 Si              (-0.000000,-0.000000)    (0.000000,0.000000)
     75 Si              (-0.000001,-0.000000)    (0.000000,0.000000)
     76 Si              (-0.000000,-0.000000)    (0.000000,0.000000)
     77 Si              (-0.000000,-0.000000)    (0.000000,0.000000)
     78 Si              (-0.000001,-0.000000)    (0.000000,0.000000)
     79 Si              (-0.000000,-0.000000)    (0.000000,0.000000)
     80 Si              (-0.000000,-0.000000)    (0.000000,0.000000)
     81 Si               (0.000000,-0.000000)    (0.000000,0.000000)
     82 Si              (-0.000000,-0.000000)    (0.000000,0.000000)
     83 Si              (-0.000000,-0.000000)    (0.000000,0.000000)
     84 Si              (-0.000001,-0.000000)    (0.000000,0.000000)
     85 Si              (-0.000000,-0.000000)    (0.000000,0.000000)
     86 Si              (-0.000001,-0.000000)    (0.000000,0.000000)
     87 Si               (0.000000,-0.000000)    (0.000000,0.000000)
     88 Si              (-0.000001,-0.000000)    (0.000000,0.000000)
     89 Si               (0.000000,-0.000000)    (0.000000,0.000000)
     90 Si               (0.000000,-0.000000)    (0.000000,0.000000)
     91 Si              (-0.000000,-0.000000)    (0.000000,0.000000)
     92 Si              (-0.000000,-0.000000)    (0.000000,0.000000)
     93 Si               (0.000000,-0.000000)    (0.000000,0.000000)
     94 Si              (-0.000001,-0.000000)    (0.000000,0.000000)
     95 Si               (0.000001,-0.000000)    (0.000000,0.000000)
     96 Si              (-0.000000,-0.000000)    (0.000000,0.000000)
     97 Si               (0.000000,-0.000000)    (0.000000,0.000000)
     98 Si               (0.000001,-0.000000)    (0.000000,0.000000)
     99 Si               (0.000000,-0.000000)    (0.000000,0.000000)
    100 Si               (0.000000,-0.000000)    (0.000000,0.000000)
    101 Si               (0.000000,-0.000000)    (0.000000,0.000000)
    102 Si               (0.000000,-0.000000)    (0.000000,0.000000)
    103 Si               (0.000001,-0.000000)    (0.000000,0.000000)
    104 Si               (0.000000,-0.000000)    (0.000000,0.000000)
    105 Si               (0.000000,-0.000000)    (0.000000,0.000000)
    106 Si               (0.000000,-0.000000)    (0.000000,0.000000)
    107 Si              (-0.000000,-0.000000)    (0.000000,0.000000)
    108 Si               (0.000000,-0.000000)    (0.000000,0.000000)
    109 Si              (-0.000000,-0.000000)    (0.000000,0.000000)
    110 Si              (-0.000000,-0.000000)    (0.000000,0.000000)
    111 Si               (0.000000,-0.000000)    (0.000000,0.000000)
    112 Si               (0.000000,-0.000000)    (0.000000,0.000000)
    113 Si               (0.000000,-0.000000)    (0.000000,0.000000)
    114 Si               (0.000000,-0.000000)    (0.000000,0.000000)
    115 Si              (-0.000000,-0.000000)    (0.000000,0.000000)
    116 Si              (-0.000000,-0.000000)    (0.000000,0.000000)
    117 Si               (0.000000,-0.000000)    (0.000000,0.000000)
    118 Si              (-0.000001,-0.000000)    (0.000000,0.000000)
    119 Si               (0.000001,-0.000000)    (0.000000,0.000000)
    120 Si              (-0.000000,-0.000000)    (0.000000,0.000000)
    121 Si               (0.000001,-0.000000)    (0.000000,0.000000)
    122 Si               (0.000000,-0.000000)    (0.000000,0.000000)
    123 Si               (0.000000,-0.000000)    (0.000000,0.000000)
    124 Si               (0.000000,-0.000000)    (0.000000,0.000000)
    125 Si               (0.000001,-0.000000)    (0.000000,0.000000)
    126 Si              (-0.000000,-0.000000)    (0.000000,0.000000)
    127 Si               (0.000001,-0.000000)    (0.000000,0.000000)
    128 Si               (0.000000,-0.000000)    (0.000000,0.000000)
   --------------------------------------------------------
  Sum of atomic charges =     (-0.000000,-0.000000)
  Sum of spin   charges =       (0.000000,0.000000)



 Total job time:  1643.15 s.
 Mon Sep  8 16:08:21 2025


        *************************************************************
        *                                                           *
        *  Thank you very much for using QCPBC. Have a nice day.    *
        *                                                           *
        *************************************************************

Running job 1 of 1
