                  Welcome to Q-Chem
           with Periodic Boundary Condition
     A Quantum Leap Into The Future Of Chemistry

 Adam Rettig, Xintian Feng, Meng-Fu Chen, Hieu Dinh, Stephen Quiton,
 Anton Ni, Paul J. Robinson, Jinghong Zhang, Joonho Lee

Contributors to earlier versions of Q-Chem not listed above:
 Evgeny Epifanovsky, Leo Cunha, Jerome F. Gonthier, Kuan-Yu Liu
 Input file: /n/netscratch/joonholee_lab/Lab/hieudinh//lif_solve_def2tzvp_omega_0.3_888.scratch20250909015938/lif_solve_def2tzvp_omega_0.3_888.0
 Scratch folder: /n/netscratch/joonholee_lab/Lab/hieudinh//lif_solve_def2tzvp_omega_0.3_888.scratch20250909015938
 Auxillary files located at: /n/holylabs/LABS/joonholee_lab/Lab/qchem_base/qcaux
 Q-Chem begins on Tue Sep  9 01:59:39 2025

 -------------------------------------------------------------
 User input:
 -------------------------------------------------------------
 $lattice
 3
 0.000000 2.005000 2.005000
 2.005000 0.000000 2.005000
 2.005000 2.005000 0.000000
 $end
 
 $unitcell
 ABSOLUTE
 0 1
 Li 0.000000 0.000000 0.000000
 F  2.005000 0.000000 0.000000
 $end
 
 $rem
 jobtype = sp
 method = pbe
 scf_convergence = 5
 scf_guess = autosad
 scf_algorithm = gdm
 basis = def2-tzvp
 aux_basis = gen
 input_bohr = false
 symmetry false
 is_basis_uctr true
 rsdf_print_level 1
 
 mp_mesh = [8,8,8]
 
 integral_direct true
 bvk_cgto true
 
 thresh 14
 mem_total 100000
 threads 32
 
 MAX_SCF_CYCLES 400
 madelung = false
 omega 0.3
 do_rij_bigmem true
 automate_g true
 print_level 10
 grid_type_xc 1
 
 thresh_1e2c_sp 1e-14
 thresh_2e3c_bra_ket_sep 1e-10
 thresh_g 1e-12
 $end
 
 $aux_basis
 Li     0
 S   7   1.00
     498.3689730              0.0207908
     162.9342738              0.0542177
      57.3246735              0.1776783
      21.6427314              0.4181150
       8.7345375              0.6535245
       3.7491039              0.5492618
       1.7006754              0.1701425
 S   1   1.00
       0.8090859             -0.0097548
 S   1   1.00
       0.4000933             -0.0050152
 S   1   1.00
       0.2035793              0.0232200
 !S   1   1.00
 !      0.1054201              0.0134535
 !S   1   1.00
 !      0.0549139              0.0006647
 P   2   1.00
      10.7024696              0.0072923
       3.6551543              0.0060940
 P   1   1.00
       1.2464013              0.0172529
 P   1   1.00
       0.4246282             -0.0160026
 P   1   1.00
       0.1446192             -0.0195111
 D   2   1.00
       1.1510647             -0.0014314
       0.6019112              0.0038969
 D   1   1.00
       0.3109573              0.0024683
 D   1   1.00
       0.1600032              0.0036451
 F   2   1.00
       0.5967918              0.0010494
       0.1790687              0.0006468
 G   1   1.00
       1.0460130             -0.0001971
 ****
 F     0
 S   7   1.00
    3514.9201549              0.1805835
    1231.2458815              0.3676084
     454.1367336              1.2707881
     175.8376258              2.8274164
      71.2081775              4.3588226
      30.0316883              2.7180994
      13.1259023             -0.0804726
 S   1   1.00
       5.9126861             -0.0023370
 S   1   1.00
       2.7284431              1.1236274
 S   1   1.00
       1.2813993              0.9999042
 S   1   1.00
       0.6082793              0.3119579
 S   1   1.00
       0.2897894              0.0312295
 P   2   1.00
      49.3740409             -0.0346332
      13.4874956             -0.0096069
 P   1   1.00
       3.9664900              0.0762067
 P   1   1.00
       1.2226629             -0.0103329
 P   1   1.00
       0.3830317              0.0018853
 D   2   1.00
      29.9719140             -0.0113316
       6.7860915             -0.0467639
 D   1   1.00
       1.8137313             -0.0167604
 D   1   1.00
       0.5157840             -0.0050777
 F   2   1.00
       2.8301877              1.0
       0.9155962              1.0
 G   1   1.00
       1.6097500             -0.0005411
 ****
 $end
 -------------------------------------------------------------
 Running PBC job

 Requested Exchange Correlation Functionals: 
  DFT Exchange:  1.00000 pbe_x
  DFT Correlation:  1.00000 pbe_c
 using 32 threads for computing.
 ---------------------------------------------------------------
      Coordinates of Atoms in Central Unit Cell (Angstroms)
    I     Atom         X            Y            Z
 ---------------------------------------------------------------
    1      Li      0.000000     0.000000     0.000000
    2       F      2.005000     0.000000     0.000000
 ---------------------------------------------------------------
 --------------------------------------------------
              Lattice Vectors (Angstroms)
              X            Y            Z
 --------------------------------------------------
   X       0.000000     2.005000     2.005000
   Y       2.005000     0.000000     2.005000
   Z       2.005000     2.005000     0.000000
 --------------------------------------------------
 --------------------------------------------------
       Reciprocal Lattice Vectors (Angstroms^-1)
              X            Y            Z
 --------------------------------------------------
   X      -1.566879     1.566879     1.566879
   Y       1.566879    -1.566879     1.566879
   Z       1.566879     1.566879    -1.566879
 --------------------------------------------------

 Single point calculation requested

 Hamiltonian contributions:
 List of terms in Hamiltonian: kpts_nn, kpts_kinetic, kpts_vnuc_df, kpts_xc, kpts_rij_bigmem

 K-Points calculation started.

 Basis set information about using solid harmonic (1) or Cartesian (0):
  li : 
  f : D(1) D(1) F(1) 

 Basis set information about using solid harmonic (1) or Cartesian (0):
  li : D(1) D(1) D(1) F(1) G(1) 
  f : D(1) D(1) D(1) F(1) G(1) 

 There are 45 basis functions in the central unit cell.
 Print atomic basis of atoms in the central unit cell:
 -------------------------------------------------------------
2 34 34 19

  0.00000000000000e+00  0.00000000000000e+00  0.00000000000000e+00
  3.78890087987467e+00  0.00000000000000e+00  0.00000000000000e+00

  6.26926280100000e+03
  9.40316124310000e+02
  2.14221075280000e+02
  6.07598401840000e+01
  1.99151520320000e+01
  7.31715097970000e+00
  2.97246742160000e+00
  1.26398523140000e+00
  5.14274899530000e-01
  7.70308859010000e-02
  2.89388964330000e-02
  3.32700000000000e+00
  4.00000000000000e-01
  6.00000000000000e-02
  3.54791004410000e+04
  5.31847289830000e+03
  1.21048109750000e+03
  3.42855181400000e+02
  1.12019431810000e+02
  4.07147402480000e+01
  1.60396781110000e+01
  6.50381867400000e+00
  1.54404775090000e+00
  6.12234528620000e-01
  2.40279796980000e-01
  8.02339004830000e+01
  1.85940107430000e+01
  5.68679026530000e+00
  1.95110062940000e+00
  6.69702112980000e-01
  2.16513004100000e-01
  3.10700000000000e+00
  8.55000000000000e-01
  1.91700000000000e+00

  2.60146728801502e-01
  4.85835841940497e-01
  8.34119322504559e-01
  1.32445742735490e+00
  1.88157694810314e+00
  2.19520050299083e+00
  7.26218105813079e-01
  4.94491916459429e-01
  4.32819270028068e-01
  1.04209847805929e-01
  5.00059366529026e-02
  6.40480761295544e+00
  4.53435039044381e-01
  4.23281366783111e-02
  1.03516566506933e+00
  1.93311703276555e+00
  3.30816792488426e+00
  5.19043602286014e+00
  7.14537150961128e+00
  7.78535976400937e+00
  3.61564648527820e+00
  1.16499925171188e+00
  9.87201115801914e-01
  4.93285621447351e-01
  2.44595258796206e-01
  4.21740775922586e+00
  4.71742640820820e+00
  4.08491013761290e+00
  2.29989742214987e+00
  8.63559317399815e-01
  2.10520828359705e-01
  1.19675885449078e+01
  1.25126747832287e+00
  6.36581779142017e+00

0 0 0 0 1 1 1
0 0 
6 0

0 1 1 6 1 1 1
6 0 
2 0

0 2 2 8 1 1 1
8 0 
1 0

0 3 3 9 1 1 1
9 0 
1 0

0 4 4 10 1 1 1
10 0 
1 0

0 5 5 11 1 3 3
11 1 
1 0

0 8 8 12 1 3 3
12 1 
1 0

0 11 11 13 1 3 3
13 1 
1 0

1 14 14 14 1 1 1
14 0 
6 0

1 15 15 20 1 1 1
20 0 
2 0

1 16 16 22 1 1 1
22 0 
1 0

1 17 17 23 1 1 1
23 0 
1 0

1 18 18 24 1 1 1
24 0 
1 0

1 19 19 25 1 3 3
25 1 
4 0

1 22 22 29 1 3 3
29 1 
1 0

1 25 25 30 1 3 3
30 1 
1 0

1 28 28 31 1 5 6
31 2 
1 1

1 33 33 32 1 5 6
32 2 
1 1

1 38 38 33 1 7 10
33 3 
1 1

 -------------------------------------------------------------
 Allocate 134496 B from available memory: 104857600000 B
 There are 6859 image cells after screening.
 There are 10216 image cells for CGTO evaluation after screening.
 Real-Space grid for FFT initialized based on kinetic energy cutoff (eV) = 500.0
 Real-Space grid for FFT: (8,8,8)
 There are 4913 real-space grid points.
 There are 27 batches of real-space grid points. 
 Size of each grid batch is around 128
 Grid for AFT initialized based on kinetic energy cutoff (eV) = 500.0
 Real-Space grid for AFT: (8,8,8)
 There are 4913 real-space grid points.

 There are 5740 atom-centered grid points.

 Spacegroup symmetry group: Fm-3m
 Reducing spacegroup symmetry to symmorphic group: F m -3 m
 Monkhorst-Pack mesh is [8,8,8]
 There are 512 k points.
kpoints in Bohr
-0.3109337727 -0.3109337727 -0.3109337727
-0.2072891818 -0.2072891818 -0.4145783636
-0.1036445909 -0.1036445909 -0.5182229546
-0.0000000000 0.0000000000 -0.6218675455
0.1036445909 0.1036445909 -0.7255121364
0.2072891818 0.2072891818 -0.8291567273
0.3109337727 0.3109337727 -0.9328013182
0.4145783636 0.4145783636 -1.0364459091
-0.2072891818 -0.4145783636 -0.2072891818
-0.1036445909 -0.3109337727 -0.3109337727
-0.0000000000 -0.2072891818 -0.4145783636
0.1036445909 -0.1036445909 -0.5182229546
0.2072891818 0.0000000000 -0.6218675455
0.3109337727 0.1036445909 -0.7255121364
0.4145783636 0.2072891818 -0.8291567273
0.5182229546 0.3109337727 -0.9328013182
-0.1036445909 -0.5182229546 -0.1036445909
-0.0000000000 -0.4145783636 -0.2072891818
0.1036445909 -0.3109337727 -0.3109337727
0.2072891818 -0.2072891818 -0.4145783636
0.3109337727 -0.1036445909 -0.5182229546
0.4145783636 0.0000000000 -0.6218675455
0.5182229546 0.1036445909 -0.7255121364
0.6218675455 0.2072891818 -0.8291567273
-0.0000000000 -0.6218675455 -0.0000000000
0.1036445909 -0.5182229546 -0.1036445909
0.2072891818 -0.4145783636 -0.2072891818
0.3109337727 -0.3109337727 -0.3109337727
0.4145783636 -0.2072891818 -0.4145783636
0.5182229546 -0.1036445909 -0.5182229546
0.6218675455 0.0000000000 -0.6218675455
0.7255121364 0.1036445909 -0.7255121364
0.1036445909 -0.7255121364 0.1036445909
0.2072891818 -0.6218675455 -0.0000000000
0.3109337727 -0.5182229546 -0.1036445909
0.4145783636 -0.4145783636 -0.2072891818
0.5182229546 -0.3109337727 -0.3109337727
0.6218675455 -0.2072891818 -0.4145783636
0.7255121364 -0.1036445909 -0.5182229546
0.8291567273 0.0000000000 -0.6218675455
0.2072891818 -0.8291567273 0.2072891818
0.3109337727 -0.7255121364 0.1036445909
0.4145783636 -0.6218675455 -0.0000000000
0.5182229546 -0.5182229546 -0.1036445909
0.6218675455 -0.4145783636 -0.2072891818
0.7255121364 -0.3109337727 -0.3109337727
0.8291567273 -0.2072891818 -0.4145783636
0.9328013182 -0.1036445909 -0.5182229546
0.3109337727 -0.9328013182 0.3109337727
0.4145783636 -0.8291567273 0.2072891818
0.5182229546 -0.7255121364 0.1036445909
0.6218675455 -0.6218675455 -0.0000000000
0.7255121364 -0.5182229546 -0.1036445909
0.8291567273 -0.4145783636 -0.2072891818
0.9328013182 -0.3109337727 -0.3109337727
1.0364459091 -0.2072891818 -0.4145783636
0.4145783636 -1.0364459091 0.4145783636
0.5182229546 -0.9328013182 0.3109337727
0.6218675455 -0.8291567273 0.2072891818
0.7255121364 -0.7255121364 0.1036445909
0.8291567273 -0.6218675455 -0.0000000000
0.9328013182 -0.5182229546 -0.1036445909
1.0364459091 -0.4145783636 -0.2072891818
1.1400905000 -0.3109337727 -0.3109337727
-0.4145783636 -0.2072891818 -0.2072891818
-0.3109337727 -0.1036445909 -0.3109337727
-0.2072891818 0.0000000000 -0.4145783636
-0.1036445909 0.1036445909 -0.5182229546
-0.0000000000 0.2072891818 -0.6218675455
0.1036445909 0.3109337727 -0.7255121364
0.2072891818 0.4145783636 -0.8291567273
0.3109337727 0.5182229546 -0.9328013182
-0.3109337727 -0.3109337727 -0.1036445909
-0.2072891818 -0.2072891818 -0.2072891818
-0.1036445909 -0.1036445909 -0.3109337727
-0.0000000000 0.0000000000 -0.4145783636
0.1036445909 0.1036445909 -0.5182229546
0.2072891818 0.2072891818 -0.6218675455
0.3109337727 0.3109337727 -0.7255121364
0.4145783636 0.4145783636 -0.8291567273
-0.2072891818 -0.4145783636 -0.0000000000
-0.1036445909 -0.3109337727 -0.1036445909
-0.0000000000 -0.2072891818 -0.2072891818
0.1036445909 -0.1036445909 -0.3109337727
0.2072891818 0.0000000000 -0.4145783636
0.3109337727 0.1036445909 -0.5182229546
0.4145783636 0.2072891818 -0.6218675455
0.5182229546 0.3109337727 -0.7255121364
-0.1036445909 -0.5182229546 0.1036445909
-0.0000000000 -0.4145783636 -0.0000000000
0.1036445909 -0.3109337727 -0.1036445909
0.2072891818 -0.2072891818 -0.2072891818
0.3109337727 -0.1036445909 -0.3109337727
0.4145783636 0.0000000000 -0.4145783636
0.5182229546 0.1036445909 -0.5182229546
0.6218675455 0.2072891818 -0.6218675455
0.0000000000 -0.6218675455 0.2072891818
0.1036445909 -0.5182229546 0.1036445909
0.2072891818 -0.4145783636 -0.0000000000
0.3109337727 -0.3109337727 -0.1036445909
0.4145783636 -0.2072891818 -0.2072891818
0.5182229546 -0.1036445909 -0.3109337727
0.6218675455 0.0000000000 -0.4145783636
0.7255121364 0.1036445909 -0.5182229546
0.1036445909 -0.7255121364 0.3109337727
0.2072891818 -0.6218675455 0.2072891818
0.3109337727 -0.5182229546 0.1036445909
0.4145783636 -0.4145783636 -0.0000000000
0.5182229546 -0.3109337727 -0.1036445909
0.6218675455 -0.2072891818 -0.2072891818
0.7255121364 -0.1036445909 -0.3109337727
0.8291567273 0.0000000000 -0.4145783636
0.2072891818 -0.8291567273 0.4145783636
0.3109337727 -0.7255121364 0.3109337727
0.4145783636 -0.6218675455 0.2072891818
0.5182229546 -0.5182229546 0.1036445909
0.6218675455 -0.4145783636 -0.0000000000
0.7255121364 -0.3109337727 -0.1036445909
0.8291567273 -0.2072891818 -0.2072891818
0.9328013182 -0.1036445909 -0.3109337727
0.3109337727 -0.9328013182 0.5182229546
0.4145783636 -0.8291567273 0.4145783636
0.5182229546 -0.7255121364 0.3109337727
0.6218675455 -0.6218675455 0.2072891818
0.7255121364 -0.5182229546 0.1036445909
0.8291567273 -0.4145783636 -0.0000000000
0.9328013182 -0.3109337727 -0.1036445909
1.0364459091 -0.2072891818 -0.2072891818
-0.5182229546 -0.1036445909 -0.1036445909
-0.4145783636 0.0000000000 -0.2072891818
-0.3109337727 0.1036445909 -0.3109337727
-0.2072891818 0.2072891818 -0.4145783636
-0.1036445909 0.3109337727 -0.5182229546
-0.0000000000 0.4145783636 -0.6218675455
0.1036445909 0.5182229546 -0.7255121364
0.2072891818 0.6218675455 -0.8291567273
-0.4145783636 -0.2072891818 -0.0000000000
-0.3109337727 -0.1036445909 -0.1036445909
-0.2072891818 0.0000000000 -0.2072891818
-0.1036445909 0.1036445909 -0.3109337727
-0.0000000000 0.2072891818 -0.4145783636
0.1036445909 0.3109337727 -0.5182229546
0.2072891818 0.4145783636 -0.6218675455
0.3109337727 0.5182229546 -0.7255121364
-0.3109337727 -0.3109337727 0.1036445909
-0.2072891818 -0.2072891818 -0.0000000000
-0.1036445909 -0.1036445909 -0.1036445909
-0.0000000000 0.0000000000 -0.2072891818
0.1036445909 0.1036445909 -0.3109337727
0.2072891818 0.2072891818 -0.4145783636
0.3109337727 0.3109337727 -0.5182229546
0.4145783636 0.4145783636 -0.6218675455
-0.2072891818 -0.4145783636 0.2072891818
-0.1036445909 -0.3109337727 0.1036445909
-0.0000000000 -0.2072891818 -0.0000000000
0.1036445909 -0.1036445909 -0.1036445909
0.2072891818 0.0000000000 -0.2072891818
0.3109337727 0.1036445909 -0.3109337727
0.4145783636 0.2072891818 -0.4145783636
0.5182229546 0.3109337727 -0.5182229546
-0.1036445909 -0.5182229546 0.3109337727
0.0000000000 -0.4145783636 0.2072891818
0.1036445909 -0.3109337727 0.1036445909
0.2072891818 -0.2072891818 -0.0000000000
0.3109337727 -0.1036445909 -0.1036445909
0.4145783636 0.0000000000 -0.2072891818
0.5182229546 0.1036445909 -0.3109337727
0.6218675455 0.2072891818 -0.4145783636
0.0000000000 -0.6218675455 0.4145783636
0.1036445909 -0.5182229546 0.3109337727
0.2072891818 -0.4145783636 0.2072891818
0.3109337727 -0.3109337727 0.1036445909
0.4145783636 -0.2072891818 -0.0000000000
0.5182229546 -0.1036445909 -0.1036445909
0.6218675455 0.0000000000 -0.2072891818
0.7255121364 0.1036445909 -0.3109337727
0.1036445909 -0.7255121364 0.5182229546
0.2072891818 -0.6218675455 0.4145783636
0.3109337727 -0.5182229546 0.3109337727
0.4145783636 -0.4145783636 0.2072891818
0.5182229546 -0.3109337727 0.1036445909
0.6218675455 -0.2072891818 -0.0000000000
0.7255121364 -0.1036445909 -0.1036445909
0.8291567273 0.0000000000 -0.2072891818
0.2072891818 -0.8291567273 0.6218675455
0.3109337727 -0.7255121364 0.5182229546
0.4145783636 -0.6218675455 0.4145783636
0.5182229546 -0.5182229546 0.3109337727
0.6218675455 -0.4145783636 0.2072891818
0.7255121364 -0.3109337727 0.1036445909
0.8291567273 -0.2072891818 -0.0000000000
0.9328013182 -0.1036445909 -0.1036445909
-0.6218675455 0.0000000000 0.0000000000
-0.5182229546 0.1036445909 -0.1036445909
-0.4145783636 0.2072891818 -0.2072891818
-0.3109337727 0.3109337727 -0.3109337727
-0.2072891818 0.4145783636 -0.4145783636
-0.1036445909 0.5182229546 -0.5182229546
-0.0000000000 0.6218675455 -0.6218675455
0.1036445909 0.7255121364 -0.7255121364
-0.5182229546 -0.1036445909 0.1036445909
-0.4145783636 0.0000000000 0.0000000000
-0.3109337727 0.1036445909 -0.1036445909
-0.2072891818 0.2072891818 -0.2072891818
-0.1036445909 0.3109337727 -0.3109337727
-0.0000000000 0.4145783636 -0.4145783636
0.1036445909 0.5182229546 -0.5182229546
0.2072891818 0.6218675455 -0.6218675455
-0.4145783636 -0.2072891818 0.2072891818
-0.3109337727 -0.1036445909 0.1036445909
-0.2072891818 0.0000000000 0.0000000000
-0.1036445909 0.1036445909 -0.1036445909
-0.0000000000 0.2072891818 -0.2072891818
0.1036445909 0.3109337727 -0.3109337727
0.2072891818 0.4145783636 -0.4145783636
0.3109337727 0.5182229546 -0.5182229546
-0.3109337727 -0.3109337727 0.3109337727
-0.2072891818 -0.2072891818 0.2072891818
-0.1036445909 -0.1036445909 0.1036445909
0.0000000000 0.0000000000 0.0000000000
0.1036445909 0.1036445909 -0.1036445909
0.2072891818 0.2072891818 -0.2072891818
0.3109337727 0.3109337727 -0.3109337727
0.4145783636 0.4145783636 -0.4145783636
-0.2072891818 -0.4145783636 0.4145783636
-0.1036445909 -0.3109337727 0.3109337727
0.0000000000 -0.2072891818 0.2072891818
0.1036445909 -0.1036445909 0.1036445909
0.2072891818 -0.0000000000 0.0000000000
0.3109337727 0.1036445909 -0.1036445909
0.4145783636 0.2072891818 -0.2072891818
0.5182229546 0.3109337727 -0.3109337727
-0.1036445909 -0.5182229546 0.5182229546
0.0000000000 -0.4145783636 0.4145783636
0.1036445909 -0.3109337727 0.3109337727
0.2072891818 -0.2072891818 0.2072891818
0.3109337727 -0.1036445909 0.1036445909
0.4145783636 -0.0000000000 0.0000000000
0.5182229546 0.1036445909 -0.1036445909
0.6218675455 0.2072891818 -0.2072891818
0.0000000000 -0.6218675455 0.6218675455
0.1036445909 -0.5182229546 0.5182229546
0.2072891818 -0.4145783636 0.4145783636
0.3109337727 -0.3109337727 0.3109337727
0.4145783636 -0.2072891818 0.2072891818
0.5182229546 -0.1036445909 0.1036445909
0.6218675455 -0.0000000000 0.0000000000
0.7255121364 0.1036445909 -0.1036445909
0.1036445909 -0.7255121364 0.7255121364
0.2072891818 -0.6218675455 0.6218675455
0.3109337727 -0.5182229546 0.5182229546
0.4145783636 -0.4145783636 0.4145783636
0.5182229546 -0.3109337727 0.3109337727
0.6218675455 -0.2072891818 0.2072891818
0.7255121364 -0.1036445909 0.1036445909
0.8291567273 -0.0000000000 0.0000000000
-0.7255121364 0.1036445909 0.1036445909
-0.6218675455 0.2072891818 0.0000000000
-0.5182229546 0.3109337727 -0.1036445909
-0.4145783636 0.4145783636 -0.2072891818
-0.3109337727 0.5182229546 -0.3109337727
-0.2072891818 0.6218675455 -0.4145783636
-0.1036445909 0.7255121364 -0.5182229546
-0.0000000000 0.8291567273 -0.6218675455
-0.6218675455 0.0000000000 0.2072891818
-0.5182229546 0.1036445909 0.1036445909
-0.4145783636 0.2072891818 0.0000000000
-0.3109337727 0.3109337727 -0.1036445909
-0.2072891818 0.4145783636 -0.2072891818
-0.1036445909 0.5182229546 -0.3109337727
-0.0000000000 0.6218675455 -0.4145783636
0.1036445909 0.7255121364 -0.5182229546
-0.5182229546 -0.1036445909 0.3109337727
-0.4145783636 -0.0000000000 0.2072891818
-0.3109337727 0.1036445909 0.1036445909
-0.2072891818 0.2072891818 0.0000000000
-0.1036445909 0.3109337727 -0.1036445909
-0.0000000000 0.4145783636 -0.2072891818
0.1036445909 0.5182229546 -0.3109337727
0.2072891818 0.6218675455 -0.4145783636
-0.4145783636 -0.2072891818 0.4145783636
-0.3109337727 -0.1036445909 0.3109337727
-0.2072891818 -0.0000000000 0.2072891818
-0.1036445909 0.1036445909 0.1036445909
0.0000000000 0.2072891818 0.0000000000
0.1036445909 0.3109337727 -0.1036445909
0.2072891818 0.4145783636 -0.2072891818
0.3109337727 0.5182229546 -0.3109337727
-0.3109337727 -0.3109337727 0.5182229546
-0.2072891818 -0.2072891818 0.4145783636
-0.1036445909 -0.1036445909 0.3109337727
0.0000000000 -0.0000000000 0.2072891818
0.1036445909 0.1036445909 0.1036445909
0.2072891818 0.2072891818 0.0000000000
0.3109337727 0.3109337727 -0.1036445909
0.4145783636 0.4145783636 -0.2072891818
-0.2072891818 -0.4145783636 0.6218675455
-0.1036445909 -0.3109337727 0.5182229546
0.0000000000 -0.2072891818 0.4145783636
0.1036445909 -0.1036445909 0.3109337727
0.2072891818 -0.0000000000 0.2072891818
0.3109337727 0.1036445909 0.1036445909
0.4145783636 0.2072891818 0.0000000000
0.5182229546 0.3109337727 -0.1036445909
-0.1036445909 -0.5182229546 0.7255121364
0.0000000000 -0.4145783636 0.6218675455
0.1036445909 -0.3109337727 0.5182229546
0.2072891818 -0.2072891818 0.4145783636
0.3109337727 -0.1036445909 0.3109337727
0.4145783636 -0.0000000000 0.2072891818
0.5182229546 0.1036445909 0.1036445909
0.6218675455 0.2072891818 0.0000000000
0.0000000000 -0.6218675455 0.8291567273
0.1036445909 -0.5182229546 0.7255121364
0.2072891818 -0.4145783636 0.6218675455
0.3109337727 -0.3109337727 0.5182229546
0.4145783636 -0.2072891818 0.4145783636
0.5182229546 -0.1036445909 0.3109337727
0.6218675455 -0.0000000000 0.2072891818
0.7255121364 0.1036445909 0.1036445909
-0.8291567273 0.2072891818 0.2072891818
-0.7255121364 0.3109337727 0.1036445909
-0.6218675455 0.4145783636 0.0000000000
-0.5182229546 0.5182229546 -0.1036445909
-0.4145783636 0.6218675455 -0.2072891818
-0.3109337727 0.7255121364 -0.3109337727
-0.2072891818 0.8291567273 -0.4145783636
-0.1036445909 0.9328013182 -0.5182229546
-0.7255121364 0.1036445909 0.3109337727
-0.6218675455 0.2072891818 0.2072891818
-0.5182229546 0.3109337727 0.1036445909
-0.4145783636 0.4145783636 0.0000000000
-0.3109337727 0.5182229546 -0.1036445909
-0.2072891818 0.6218675455 -0.2072891818
-0.1036445909 0.7255121364 -0.3109337727
-0.0000000000 0.8291567273 -0.4145783636
-0.6218675455 0.0000000000 0.4145783636
-0.5182229546 0.1036445909 0.3109337727
-0.4145783636 0.2072891818 0.2072891818
-0.3109337727 0.3109337727 0.1036445909
-0.2072891818 0.4145783636 0.0000000000
-0.1036445909 0.5182229546 -0.1036445909
0.0000000000 0.6218675455 -0.2072891818
0.1036445909 0.7255121364 -0.3109337727
-0.5182229546 -0.1036445909 0.5182229546
-0.4145783636 -0.0000000000 0.4145783636
-0.3109337727 0.1036445909 0.3109337727
-0.2072891818 0.2072891818 0.2072891818
-0.1036445909 0.3109337727 0.1036445909
0.0000000000 0.4145783636 0.0000000000
0.1036445909 0.5182229546 -0.1036445909
0.2072891818 0.6218675455 -0.2072891818
-0.4145783636 -0.2072891818 0.6218675455
-0.3109337727 -0.1036445909 0.5182229546
-0.2072891818 -0.0000000000 0.4145783636
-0.1036445909 0.1036445909 0.3109337727
0.0000000000 0.2072891818 0.2072891818
0.1036445909 0.3109337727 0.1036445909
0.2072891818 0.4145783636 0.0000000000
0.3109337727 0.5182229546 -0.1036445909
-0.3109337727 -0.3109337727 0.7255121364
-0.2072891818 -0.2072891818 0.6218675455
-0.1036445909 -0.1036445909 0.5182229546
0.0000000000 -0.0000000000 0.4145783636
0.1036445909 0.1036445909 0.3109337727
0.2072891818 0.2072891818 0.2072891818
0.3109337727 0.3109337727 0.1036445909
0.4145783636 0.4145783636 0.0000000000
-0.2072891818 -0.4145783636 0.8291567273
-0.1036445909 -0.3109337727 0.7255121364
0.0000000000 -0.2072891818 0.6218675455
0.1036445909 -0.1036445909 0.5182229546
0.2072891818 -0.0000000000 0.4145783636
0.3109337727 0.1036445909 0.3109337727
0.4145783636 0.2072891818 0.2072891818
0.5182229546 0.3109337727 0.1036445909
-0.1036445909 -0.5182229546 0.9328013182
0.0000000000 -0.4145783636 0.8291567273
0.1036445909 -0.3109337727 0.7255121364
0.2072891818 -0.2072891818 0.6218675455
0.3109337727 -0.1036445909 0.5182229546
0.4145783636 -0.0000000000 0.4145783636
0.5182229546 0.1036445909 0.3109337727
0.6218675455 0.2072891818 0.2072891818
-0.9328013182 0.3109337727 0.3109337727
-0.8291567273 0.4145783636 0.2072891818
-0.7255121364 0.5182229546 0.1036445909
-0.6218675455 0.6218675455 0.0000000000
-0.5182229546 0.7255121364 -0.1036445909
-0.4145783636 0.8291567273 -0.2072891818
-0.3109337727 0.9328013182 -0.3109337727
-0.2072891818 1.0364459091 -0.4145783636
-0.8291567273 0.2072891818 0.4145783636
-0.7255121364 0.3109337727 0.3109337727
-0.6218675455 0.4145783636 0.2072891818
-0.5182229546 0.5182229546 0.1036445909
-0.4145783636 0.6218675455 0.0000000000
-0.3109337727 0.7255121364 -0.1036445909
-0.2072891818 0.8291567273 -0.2072891818
-0.1036445909 0.9328013182 -0.3109337727
-0.7255121364 0.1036445909 0.5182229546
-0.6218675455 0.2072891818 0.4145783636
-0.5182229546 0.3109337727 0.3109337727
-0.4145783636 0.4145783636 0.2072891818
-0.3109337727 0.5182229546 0.1036445909
-0.2072891818 0.6218675455 0.0000000000
-0.1036445909 0.7255121364 -0.1036445909
0.0000000000 0.8291567273 -0.2072891818
-0.6218675455 -0.0000000000 0.6218675455
-0.5182229546 0.1036445909 0.5182229546
-0.4145783636 0.2072891818 0.4145783636
-0.3109337727 0.3109337727 0.3109337727
-0.2072891818 0.4145783636 0.2072891818
-0.1036445909 0.5182229546 0.1036445909
0.0000000000 0.6218675455 0.0000000000
0.1036445909 0.7255121364 -0.1036445909
-0.5182229546 -0.1036445909 0.7255121364
-0.4145783636 -0.0000000000 0.6218675455
-0.3109337727 0.1036445909 0.5182229546
-0.2072891818 0.2072891818 0.4145783636
-0.1036445909 0.3109337727 0.3109337727
0.0000000000 0.4145783636 0.2072891818
0.1036445909 0.5182229546 0.1036445909
0.2072891818 0.6218675455 0.0000000000
-0.4145783636 -0.2072891818 0.8291567273
-0.3109337727 -0.1036445909 0.7255121364
-0.2072891818 -0.0000000000 0.6218675455
-0.1036445909 0.1036445909 0.5182229546
0.0000000000 0.2072891818 0.4145783636
0.1036445909 0.3109337727 0.3109337727
0.2072891818 0.4145783636 0.2072891818
0.3109337727 0.5182229546 0.1036445909
-0.3109337727 -0.3109337727 0.9328013182
-0.2072891818 -0.2072891818 0.8291567273
-0.1036445909 -0.1036445909 0.7255121364
0.0000000000 -0.0000000000 0.6218675455
0.1036445909 0.1036445909 0.5182229546
0.2072891818 0.2072891818 0.4145783636
0.3109337727 0.3109337727 0.3109337727
0.4145783636 0.4145783636 0.2072891818
-0.2072891818 -0.4145783636 1.0364459091
-0.1036445909 -0.3109337727 0.9328013182
0.0000000000 -0.2072891818 0.8291567273
0.1036445909 -0.1036445909 0.7255121364
0.2072891818 -0.0000000000 0.6218675455
0.3109337727 0.1036445909 0.5182229546
0.4145783636 0.2072891818 0.4145783636
0.5182229546 0.3109337727 0.3109337727
-1.0364459091 0.4145783636 0.4145783636
-0.9328013182 0.5182229546 0.3109337727
-0.8291567273 0.6218675455 0.2072891818
-0.7255121364 0.7255121364 0.1036445909
-0.6218675455 0.8291567273 0.0000000000
-0.5182229546 0.9328013182 -0.1036445909
-0.4145783636 1.0364459091 -0.2072891818
-0.3109337727 1.1400905000 -0.3109337727
-0.9328013182 0.3109337727 0.5182229546
-0.8291567273 0.4145783636 0.4145783636
-0.7255121364 0.5182229546 0.3109337727
-0.6218675455 0.6218675455 0.2072891818
-0.5182229546 0.7255121364 0.1036445909
-0.4145783636 0.8291567273 0.0000000000
-0.3109337727 0.9328013182 -0.1036445909
-0.2072891818 1.0364459091 -0.2072891818
-0.8291567273 0.2072891818 0.6218675455
-0.7255121364 0.3109337727 0.5182229546
-0.6218675455 0.4145783636 0.4145783636
-0.5182229546 0.5182229546 0.3109337727
-0.4145783636 0.6218675455 0.2072891818
-0.3109337727 0.7255121364 0.1036445909
-0.2072891818 0.8291567273 0.0000000000
-0.1036445909 0.9328013182 -0.1036445909
-0.7255121364 0.1036445909 0.7255121364
-0.6218675455 0.2072891818 0.6218675455
-0.5182229546 0.3109337727 0.5182229546
-0.4145783636 0.4145783636 0.4145783636
-0.3109337727 0.5182229546 0.3109337727
-0.2072891818 0.6218675455 0.2072891818
-0.1036445909 0.7255121364 0.1036445909
0.0000000000 0.8291567273 0.0000000000
-0.6218675455 -0.0000000000 0.8291567273
-0.5182229546 0.1036445909 0.7255121364
-0.4145783636 0.2072891818 0.6218675455
-0.3109337727 0.3109337727 0.5182229546
-0.2072891818 0.4145783636 0.4145783636
-0.1036445909 0.5182229546 0.3109337727
0.0000000000 0.6218675455 0.2072891818
0.1036445909 0.7255121364 0.1036445909
-0.5182229546 -0.1036445909 0.9328013182
-0.4145783636 -0.0000000000 0.8291567273
-0.3109337727 0.1036445909 0.7255121364
-0.2072891818 0.2072891818 0.6218675455
-0.1036445909 0.3109337727 0.5182229546
0.0000000000 0.4145783636 0.4145783636
0.1036445909 0.5182229546 0.3109337727
0.2072891818 0.6218675455 0.2072891818
-0.4145783636 -0.2072891818 1.0364459091
-0.3109337727 -0.1036445909 0.9328013182
-0.2072891818 -0.0000000000 0.8291567273
-0.1036445909 0.1036445909 0.7255121364
0.0000000000 0.2072891818 0.6218675455
0.1036445909 0.3109337727 0.5182229546
0.2072891818 0.4145783636 0.4145783636
0.3109337727 0.5182229546 0.3109337727
-0.3109337727 -0.3109337727 1.1400905000
-0.2072891818 -0.2072891818 1.0364459091
-0.1036445909 -0.1036445909 0.9328013182
0.0000000000 -0.0000000000 0.8291567273
0.1036445909 0.1036445909 0.7255121364
0.2072891818 0.2072891818 0.6218675455
0.3109337727 0.3109337727 0.5182229546
0.4145783636 0.4145783636 0.4145783636
 There are 6 alpha and 6 beta electrons
 Start computing overlap matrix
 Allocate 16588800 B from available memory: 104857465504 B
 Time for computing overlap matrix: 9.8780000000 s
 ====== Initialize compute kernels for all-electron RI-J (kpts) ====== 
 ========================================================== 
 Range-separated parameter omega        = 0.299999999999999989
 Threshold for 1e2c shellpair           = 0.000000000000010000
 Threshold for 2e2c SR integral         = 0.000000000000000001
 Threshold for 2e3c SR integral         = 0.000000000100000000
 Threshold for AFT G-space screening is = 0.000000000001000000
 The exponent cutoff for C/D classification (omega2 / 2) is  = 0.044999999999999998
 ========================================================== 
 === Post process the basis set for RI calculation (exp_cutoff = 0.044999999999999998 ) === 
nshells_b1 before uncontraction = 19
nshells_b1 after uncontraction = 19
nshells_baux before uncontraction = 28
nshells_baux after uncontraction = 28
===============================================
nbsf total   = 45
nbsf compact = 44
nbsf diffuse = 1
naux total   = 96
naux compact = 96
naux diffuse = 0
nshells_bnuc = 2

 Number of unique atoms is 2
 Unique atom #0 (li) has 7 shells.
 Unique atom #1 (f) has 11 shells.

Shell 0 to 6 belongs to atom li
Shell 7 to 17 belongs to atom f

 Number of unique atoms is 2
 Unique atom #0 (li) has 1 shells.
 Unique atom #1 (f) has 0 shells.

Shell 0 to 0 belongs to atom li

 Number of unique atom is 2
 Unique atom #0 (li) has 13 auxiliary shells.
 Unique atom #1 (f) has 15 auxiliary shells.

Auxiliary Shell 0 to 12 belongs to atom li
Auxiliary Shell 13 to 27 belongs to atom f

================= Automatically determine grid size for reciprocal space summation =================
 Range-separated parameter = 0.30000000000000 and G-space screening threshold = 0.00000000000100
The number of grid points along each axis dimension is (3, 3, 3)
Total number of grid points = 343

Use nonortho shellpair for diffuse density
======== Initializing relevant kernel for RIJ (DD type) ========
There are 1 shellpairs in the reference unit cell
There are 14123 images and we expect to have 14123 in total
There are 3043 shellpairs in the lattice sum after screening
======== Initializing relevant kernel for RIJ (CD type) ========
There are 18 shellpairs in the reference unit cell
There are 10889 images and we expect to have 196002 in total
There are 24851 shellpairs in the lattice sum after screening
****** AFT -> SR ******
Maximum bra distance cutoff is 36.000000000000
Maximum bra ket distance cutoff is 34.263081562852
Maximum bra ket screening distance is 30.968750000000
Number of auxiliary image is 3307
There are 18 shellpairs in the reference unit cell
There are 3307 images and we expect to have 59526 in total
There are 24851 shellpairs in the lattice sum after screening
Available memory per thread for 2e3c calculation is 3.276277397000Gb
Finish initializing 2e3c SR with the lattice sum!
=================================================
======== Initializing relevant kernel for RIJ (CC type) ========
There are 168 shellpairs in the reference unit cell
There are 7119 images and we expect to have 1195992 in total
There are 20408 shellpairs in the lattice sum after screening
****** AFT -> SR ******
Maximum bra distance cutoff is 29.000000000000
Maximum bra ket distance cutoff is 35.843750000000
Maximum bra ket screening distance is 30.062500000000
Number of auxiliary image is 3163
There are 168 shellpairs in the reference unit cell
There are 1897 images and we expect to have 318696 in total
There are 20408 shellpairs in the lattice sum after screening
Available memory per thread for 2e3c calculation is 3.276277397000Gb
Finish initializing 2e3c SR with the lattice sum!
=================================================
======== Initializing the SR component for Vnuc (CD type) ========
Maximum bra distance cutoff is 36.000000000000
Maximum bra ket distance cutoff is 27.875618137235
Maximum bra ket screening distance is 24.517983484978
Number of auxiliary image is 3307
There are 18 shellpairs in the reference unit cell
There are 3307 images and we expect to have 59526 in total
There are 24851 shellpairs in the lattice sum after screening
Available memory per thread for 2e3c calculation is 3.276277397000Gb
Finish initializing 2e3c SR with the lattice sum!
=================================================
======== Initialize the SR component for Vnuc (CC type) ========
Maximum bra distance cutoff is 29.000000000000
Maximum bra ket distance cutoff is 29.402830256687
Maximum bra ket screening distance is 23.518898877708
Number of auxiliary image is 1897
There are 168 shellpairs in the reference unit cell
There are 1897 images and we expect to have 318696 in total
There are 20408 shellpairs in the lattice sum after screening
Available memory per thread for 2e3c calculation is 3.276277397000Gb
Finish initializing 2e3c SR with the lattice sum!
=================================================
 Aufbau occupation scheme, occupation determined by eigenvalue
 == 0-th k-point nmo = 45 (-0.31093,-0.31093,-0.31093) ==
 == 1-th k-point nmo = 44 (-0.20729,-0.20729,-0.41458) ==
 == 2-th k-point nmo = 44 (-0.10364,-0.10364,-0.51822) ==
 == 3-th k-point nmo = 44 (-0.00000,0.00000,-0.62187) ==
 == 4-th k-point nmo = 44 (0.10364,0.10364,-0.72551) ==
 == 5-th k-point nmo = 44 (0.20729,0.20729,-0.82916) ==
 == 6-th k-point nmo = 44 (0.31093,0.31093,-0.93280) ==
 == 7-th k-point nmo = 44 (0.41458,0.41458,-1.03645) ==
 == 8-th k-point nmo = 44 (-0.20729,-0.41458,-0.20729) ==
 == 9-th k-point nmo = 44 (-0.10364,-0.31093,-0.31093) ==
 == 10-th k-point nmo = 44 (-0.00000,-0.20729,-0.41458) ==
 == 11-th k-point nmo = 44 (0.10364,-0.10364,-0.51822) ==
 == 12-th k-point nmo = 44 (0.20729,0.00000,-0.62187) ==
 == 13-th k-point nmo = 44 (0.31093,0.10364,-0.72551) ==
 == 14-th k-point nmo = 44 (0.41458,0.20729,-0.82916) ==
 == 15-th k-point nmo = 44 (0.51822,0.31093,-0.93280) ==
 == 16-th k-point nmo = 44 (-0.10364,-0.51822,-0.10364) ==
 == 17-th k-point nmo = 44 (-0.00000,-0.41458,-0.20729) ==
 == 18-th k-point nmo = 44 (0.10364,-0.31093,-0.31093) ==
 == 19-th k-point nmo = 44 (0.20729,-0.20729,-0.41458) ==
 == 20-th k-point nmo = 44 (0.31093,-0.10364,-0.51822) ==
 == 21-th k-point nmo = 44 (0.41458,0.00000,-0.62187) ==
 == 22-th k-point nmo = 44 (0.51822,0.10364,-0.72551) ==
 == 23-th k-point nmo = 44 (0.62187,0.20729,-0.82916) ==
 == 24-th k-point nmo = 44 (-0.00000,-0.62187,-0.00000) ==
 == 25-th k-point nmo = 44 (0.10364,-0.51822,-0.10364) ==
 == 26-th k-point nmo = 44 (0.20729,-0.41458,-0.20729) ==
 == 27-th k-point nmo = 45 (0.31093,-0.31093,-0.31093) ==
 == 28-th k-point nmo = 44 (0.41458,-0.20729,-0.41458) ==
 == 29-th k-point nmo = 44 (0.51822,-0.10364,-0.51822) ==
 == 30-th k-point nmo = 44 (0.62187,0.00000,-0.62187) ==
 == 31-th k-point nmo = 44 (0.72551,0.10364,-0.72551) ==
 == 32-th k-point nmo = 44 (0.10364,-0.72551,0.10364) ==
 == 33-th k-point nmo = 44 (0.20729,-0.62187,-0.00000) ==
 == 34-th k-point nmo = 44 (0.31093,-0.51822,-0.10364) ==
 == 35-th k-point nmo = 44 (0.41458,-0.41458,-0.20729) ==
 == 36-th k-point nmo = 44 (0.51822,-0.31093,-0.31093) ==
 == 37-th k-point nmo = 44 (0.62187,-0.20729,-0.41458) ==
 == 38-th k-point nmo = 44 (0.72551,-0.10364,-0.51822) ==
 == 39-th k-point nmo = 44 (0.82916,0.00000,-0.62187) ==
 == 40-th k-point nmo = 44 (0.20729,-0.82916,0.20729) ==
 == 41-th k-point nmo = 44 (0.31093,-0.72551,0.10364) ==
 == 42-th k-point nmo = 44 (0.41458,-0.62187,-0.00000) ==
 == 43-th k-point nmo = 44 (0.51822,-0.51822,-0.10364) ==
 == 44-th k-point nmo = 44 (0.62187,-0.41458,-0.20729) ==
 == 45-th k-point nmo = 44 (0.72551,-0.31093,-0.31093) ==
 == 46-th k-point nmo = 44 (0.82916,-0.20729,-0.41458) ==
 == 47-th k-point nmo = 44 (0.93280,-0.10364,-0.51822) ==
 == 48-th k-point nmo = 44 (0.31093,-0.93280,0.31093) ==
 == 49-th k-point nmo = 44 (0.41458,-0.82916,0.20729) ==
 == 50-th k-point nmo = 44 (0.51822,-0.72551,0.10364) ==
 == 51-th k-point nmo = 44 (0.62187,-0.62187,-0.00000) ==
 == 52-th k-point nmo = 44 (0.72551,-0.51822,-0.10364) ==
 == 53-th k-point nmo = 44 (0.82916,-0.41458,-0.20729) ==
 == 54-th k-point nmo = 44 (0.93280,-0.31093,-0.31093) ==
 == 55-th k-point nmo = 44 (1.03645,-0.20729,-0.41458) ==
 == 56-th k-point nmo = 44 (0.41458,-1.03645,0.41458) ==
 == 57-th k-point nmo = 44 (0.51822,-0.93280,0.31093) ==
 == 58-th k-point nmo = 44 (0.62187,-0.82916,0.20729) ==
 == 59-th k-point nmo = 44 (0.72551,-0.72551,0.10364) ==
 == 60-th k-point nmo = 44 (0.82916,-0.62187,-0.00000) ==
 == 61-th k-point nmo = 44 (0.93280,-0.51822,-0.10364) ==
 == 62-th k-point nmo = 44 (1.03645,-0.41458,-0.20729) ==
 == 63-th k-point nmo = 44 (1.14009,-0.31093,-0.31093) ==
 == 64-th k-point nmo = 44 (-0.41458,-0.20729,-0.20729) ==
 == 65-th k-point nmo = 44 (-0.31093,-0.10364,-0.31093) ==
 == 66-th k-point nmo = 44 (-0.20729,0.00000,-0.41458) ==
 == 67-th k-point nmo = 44 (-0.10364,0.10364,-0.51822) ==
 == 68-th k-point nmo = 44 (-0.00000,0.20729,-0.62187) ==
 == 69-th k-point nmo = 44 (0.10364,0.31093,-0.72551) ==
 == 70-th k-point nmo = 44 (0.20729,0.41458,-0.82916) ==
 == 71-th k-point nmo = 44 (0.31093,0.51822,-0.93280) ==
 == 72-th k-point nmo = 44 (-0.31093,-0.31093,-0.10364) ==
 == 73-th k-point nmo = 45 (-0.20729,-0.20729,-0.20729) ==
 == 74-th k-point nmo = 44 (-0.10364,-0.10364,-0.31093) ==
 == 75-th k-point nmo = 44 (-0.00000,0.00000,-0.41458) ==
 == 76-th k-point nmo = 44 (0.10364,0.10364,-0.51822) ==
 == 77-th k-point nmo = 44 (0.20729,0.20729,-0.62187) ==
 == 78-th k-point nmo = 44 (0.31093,0.31093,-0.72551) ==
 == 79-th k-point nmo = 44 (0.41458,0.41458,-0.82916) ==
 == 80-th k-point nmo = 44 (-0.20729,-0.41458,-0.00000) ==
 == 81-th k-point nmo = 44 (-0.10364,-0.31093,-0.10364) ==
 == 82-th k-point nmo = 43 (-0.00000,-0.20729,-0.20729) ==
 == 83-th k-point nmo = 44 (0.10364,-0.10364,-0.31093) ==
 == 84-th k-point nmo = 44 (0.20729,0.00000,-0.41458) ==
 == 85-th k-point nmo = 44 (0.31093,0.10364,-0.51822) ==
 == 86-th k-point nmo = 44 (0.41458,0.20729,-0.62187) ==
 == 87-th k-point nmo = 44 (0.51822,0.31093,-0.72551) ==
 == 88-th k-point nmo = 44 (-0.10364,-0.51822,0.10364) ==
 == 89-th k-point nmo = 44 (-0.00000,-0.41458,-0.00000) ==
 == 90-th k-point nmo = 44 (0.10364,-0.31093,-0.10364) ==
 == 91-th k-point nmo = 45 (0.20729,-0.20729,-0.20729) ==
 == 92-th k-point nmo = 44 (0.31093,-0.10364,-0.31093) ==
 == 93-th k-point nmo = 44 (0.41458,0.00000,-0.41458) ==
 == 94-th k-point nmo = 44 (0.51822,0.10364,-0.51822) ==
 == 95-th k-point nmo = 44 (0.62187,0.20729,-0.62187) ==
 == 96-th k-point nmo = 44 (0.00000,-0.62187,0.20729) ==
 == 97-th k-point nmo = 44 (0.10364,-0.51822,0.10364) ==
 == 98-th k-point nmo = 44 (0.20729,-0.41458,-0.00000) ==
 == 99-th k-point nmo = 44 (0.31093,-0.31093,-0.10364) ==
 == 100-th k-point nmo = 44 (0.41458,-0.20729,-0.20729) ==
 == 101-th k-point nmo = 44 (0.51822,-0.10364,-0.31093) ==
 == 102-th k-point nmo = 44 (0.62187,0.00000,-0.41458) ==
 == 103-th k-point nmo = 44 (0.72551,0.10364,-0.51822) ==
 == 104-th k-point nmo = 44 (0.10364,-0.72551,0.31093) ==
 == 105-th k-point nmo = 44 (0.20729,-0.62187,0.20729) ==
 == 106-th k-point nmo = 44 (0.31093,-0.51822,0.10364) ==
 == 107-th k-point nmo = 44 (0.41458,-0.41458,-0.00000) ==
 == 108-th k-point nmo = 44 (0.51822,-0.31093,-0.10364) ==
 == 109-th k-point nmo = 44 (0.62187,-0.20729,-0.20729) ==
 == 110-th k-point nmo = 44 (0.72551,-0.10364,-0.31093) ==
 == 111-th k-point nmo = 44 (0.82916,0.00000,-0.41458) ==
 == 112-th k-point nmo = 44 (0.20729,-0.82916,0.41458) ==
 == 113-th k-point nmo = 44 (0.31093,-0.72551,0.31093) ==
 == 114-th k-point nmo = 44 (0.41458,-0.62187,0.20729) ==
 == 115-th k-point nmo = 44 (0.51822,-0.51822,0.10364) ==
 == 116-th k-point nmo = 44 (0.62187,-0.41458,-0.00000) ==
 == 117-th k-point nmo = 44 (0.72551,-0.31093,-0.10364) ==
 == 118-th k-point nmo = 44 (0.82916,-0.20729,-0.20729) ==
 == 119-th k-point nmo = 44 (0.93280,-0.10364,-0.31093) ==
 == 120-th k-point nmo = 44 (0.31093,-0.93280,0.51822) ==
 == 121-th k-point nmo = 44 (0.41458,-0.82916,0.41458) ==
 == 122-th k-point nmo = 44 (0.51822,-0.72551,0.31093) ==
 == 123-th k-point nmo = 44 (0.62187,-0.62187,0.20729) ==
 == 124-th k-point nmo = 44 (0.72551,-0.51822,0.10364) ==
 == 125-th k-point nmo = 44 (0.82916,-0.41458,-0.00000) ==
 == 126-th k-point nmo = 44 (0.93280,-0.31093,-0.10364) ==
 == 127-th k-point nmo = 44 (1.03645,-0.20729,-0.20729) ==
 == 128-th k-point nmo = 44 (-0.51822,-0.10364,-0.10364) ==
 == 129-th k-point nmo = 44 (-0.41458,0.00000,-0.20729) ==
 == 130-th k-point nmo = 44 (-0.31093,0.10364,-0.31093) ==
 == 131-th k-point nmo = 44 (-0.20729,0.20729,-0.41458) ==
 == 132-th k-point nmo = 44 (-0.10364,0.31093,-0.51822) ==
 == 133-th k-point nmo = 44 (-0.00000,0.41458,-0.62187) ==
 == 134-th k-point nmo = 44 (0.10364,0.51822,-0.72551) ==
 == 135-th k-point nmo = 44 (0.20729,0.62187,-0.82916) ==
 == 136-th k-point nmo = 44 (-0.41458,-0.20729,-0.00000) ==
 == 137-th k-point nmo = 44 (-0.31093,-0.10364,-0.10364) ==
 == 138-th k-point nmo = 43 (-0.20729,0.00000,-0.20729) ==
 == 139-th k-point nmo = 44 (-0.10364,0.10364,-0.31093) ==
 == 140-th k-point nmo = 44 (-0.00000,0.20729,-0.41458) ==
 == 141-th k-point nmo = 44 (0.10364,0.31093,-0.51822) ==
 == 142-th k-point nmo = 44 (0.20729,0.41458,-0.62187) ==
 == 143-th k-point nmo = 44 (0.31093,0.51822,-0.72551) ==
 == 144-th k-point nmo = 44 (-0.31093,-0.31093,0.10364) ==
 == 145-th k-point nmo = 43 (-0.20729,-0.20729,-0.00000) ==
 == 146-th k-point nmo = 44 (-0.10364,-0.10364,-0.10364) ==
 == 147-th k-point nmo = 44 (-0.00000,0.00000,-0.20729) ==
 == 148-th k-point nmo = 44 (0.10364,0.10364,-0.31093) ==
 == 149-th k-point nmo = 44 (0.20729,0.20729,-0.41458) ==
 == 150-th k-point nmo = 44 (0.31093,0.31093,-0.51822) ==
 == 151-th k-point nmo = 44 (0.41458,0.41458,-0.62187) ==
 == 152-th k-point nmo = 44 (-0.20729,-0.41458,0.20729) ==
 == 153-th k-point nmo = 44 (-0.10364,-0.31093,0.10364) ==
 == 154-th k-point nmo = 44 (-0.00000,-0.20729,-0.00000) ==
 == 155-th k-point nmo = 44 (0.10364,-0.10364,-0.10364) ==
 == 156-th k-point nmo = 43 (0.20729,0.00000,-0.20729) ==
 == 157-th k-point nmo = 44 (0.31093,0.10364,-0.31093) ==
 == 158-th k-point nmo = 44 (0.41458,0.20729,-0.41458) ==
 == 159-th k-point nmo = 44 (0.51822,0.31093,-0.51822) ==
 == 160-th k-point nmo = 44 (-0.10364,-0.51822,0.31093) ==
 == 161-th k-point nmo = 44 (0.00000,-0.41458,0.20729) ==
 == 162-th k-point nmo = 44 (0.10364,-0.31093,0.10364) ==
 == 163-th k-point nmo = 43 (0.20729,-0.20729,-0.00000) ==
 == 164-th k-point nmo = 44 (0.31093,-0.10364,-0.10364) ==
 == 165-th k-point nmo = 44 (0.41458,0.00000,-0.20729) ==
 == 166-th k-point nmo = 44 (0.51822,0.10364,-0.31093) ==
 == 167-th k-point nmo = 44 (0.62187,0.20729,-0.41458) ==
 == 168-th k-point nmo = 44 (0.00000,-0.62187,0.41458) ==
 == 169-th k-point nmo = 44 (0.10364,-0.51822,0.31093) ==
 == 170-th k-point nmo = 44 (0.20729,-0.41458,0.20729) ==
 == 171-th k-point nmo = 44 (0.31093,-0.31093,0.10364) ==
 == 172-th k-point nmo = 44 (0.41458,-0.20729,-0.00000) ==
 == 173-th k-point nmo = 44 (0.51822,-0.10364,-0.10364) ==
 == 174-th k-point nmo = 44 (0.62187,0.00000,-0.20729) ==
 == 175-th k-point nmo = 44 (0.72551,0.10364,-0.31093) ==
 == 176-th k-point nmo = 44 (0.10364,-0.72551,0.51822) ==
 == 177-th k-point nmo = 44 (0.20729,-0.62187,0.41458) ==
 == 178-th k-point nmo = 44 (0.31093,-0.51822,0.31093) ==
 == 179-th k-point nmo = 44 (0.41458,-0.41458,0.20729) ==
 == 180-th k-point nmo = 44 (0.51822,-0.31093,0.10364) ==
 == 181-th k-point nmo = 44 (0.62187,-0.20729,-0.00000) ==
 == 182-th k-point nmo = 44 (0.72551,-0.10364,-0.10364) ==
 == 183-th k-point nmo = 44 (0.82916,0.00000,-0.20729) ==
 == 184-th k-point nmo = 44 (0.20729,-0.82916,0.62187) ==
 == 185-th k-point nmo = 44 (0.31093,-0.72551,0.51822) ==
 == 186-th k-point nmo = 44 (0.41458,-0.62187,0.41458) ==
 == 187-th k-point nmo = 44 (0.51822,-0.51822,0.31093) ==
 == 188-th k-point nmo = 44 (0.62187,-0.41458,0.20729) ==
 == 189-th k-point nmo = 44 (0.72551,-0.31093,0.10364) ==
 == 190-th k-point nmo = 44 (0.82916,-0.20729,-0.00000) ==
 == 191-th k-point nmo = 44 (0.93280,-0.10364,-0.10364) ==
 == 192-th k-point nmo = 44 (-0.62187,0.00000,0.00000) ==
 == 193-th k-point nmo = 44 (-0.51822,0.10364,-0.10364) ==
 == 194-th k-point nmo = 44 (-0.41458,0.20729,-0.20729) ==
 == 195-th k-point nmo = 45 (-0.31093,0.31093,-0.31093) ==
 == 196-th k-point nmo = 44 (-0.20729,0.41458,-0.41458) ==
 == 197-th k-point nmo = 44 (-0.10364,0.51822,-0.51822) ==
 == 198-th k-point nmo = 44 (-0.00000,0.62187,-0.62187) ==
 == 199-th k-point nmo = 44 (0.10364,0.72551,-0.72551) ==
 == 200-th k-point nmo = 44 (-0.51822,-0.10364,0.10364) ==
 == 201-th k-point nmo = 44 (-0.41458,0.00000,0.00000) ==
 == 202-th k-point nmo = 44 (-0.31093,0.10364,-0.10364) ==
 == 203-th k-point nmo = 45 (-0.20729,0.20729,-0.20729) ==
 == 204-th k-point nmo = 44 (-0.10364,0.31093,-0.31093) ==
 == 205-th k-point nmo = 44 (-0.00000,0.41458,-0.41458) ==
 == 206-th k-point nmo = 44 (0.10364,0.51822,-0.51822) ==
 == 207-th k-point nmo = 44 (0.20729,0.62187,-0.62187) ==
 == 208-th k-point nmo = 44 (-0.41458,-0.20729,0.20729) ==
 == 209-th k-point nmo = 44 (-0.31093,-0.10364,0.10364) ==
 == 210-th k-point nmo = 44 (-0.20729,0.00000,0.00000) ==
 == 211-th k-point nmo = 44 (-0.10364,0.10364,-0.10364) ==
 == 212-th k-point nmo = 43 (-0.00000,0.20729,-0.20729) ==
 == 213-th k-point nmo = 44 (0.10364,0.31093,-0.31093) ==
 == 214-th k-point nmo = 44 (0.20729,0.41458,-0.41458) ==
 == 215-th k-point nmo = 44 (0.31093,0.51822,-0.51822) ==
 == 216-th k-point nmo = 45 (-0.31093,-0.31093,0.31093) ==
 == 217-th k-point nmo = 45 (-0.20729,-0.20729,0.20729) ==
 == 218-th k-point nmo = 44 (-0.10364,-0.10364,0.10364) ==
 == 219-th k-point nmo = 41 (0.00000,0.00000,0.00000) ==
 == 220-th k-point nmo = 44 (0.10364,0.10364,-0.10364) ==
 == 221-th k-point nmo = 45 (0.20729,0.20729,-0.20729) ==
 == 222-th k-point nmo = 45 (0.31093,0.31093,-0.31093) ==
 == 223-th k-point nmo = 44 (0.41458,0.41458,-0.41458) ==
 == 224-th k-point nmo = 44 (-0.20729,-0.41458,0.41458) ==
 == 225-th k-point nmo = 44 (-0.10364,-0.31093,0.31093) ==
 == 226-th k-point nmo = 43 (0.00000,-0.20729,0.20729) ==
 == 227-th k-point nmo = 44 (0.10364,-0.10364,0.10364) ==
 == 228-th k-point nmo = 44 (0.20729,-0.00000,0.00000) ==
 == 229-th k-point nmo = 44 (0.31093,0.10364,-0.10364) ==
 == 230-th k-point nmo = 44 (0.41458,0.20729,-0.20729) ==
 == 231-th k-point nmo = 44 (0.51822,0.31093,-0.31093) ==
 == 232-th k-point nmo = 44 (-0.10364,-0.51822,0.51822) ==
 == 233-th k-point nmo = 44 (0.00000,-0.41458,0.41458) ==
 == 234-th k-point nmo = 44 (0.10364,-0.31093,0.31093) ==
 == 235-th k-point nmo = 45 (0.20729,-0.20729,0.20729) ==
 == 236-th k-point nmo = 44 (0.31093,-0.10364,0.10364) ==
 == 237-th k-point nmo = 44 (0.41458,-0.00000,0.00000) ==
 == 238-th k-point nmo = 44 (0.51822,0.10364,-0.10364) ==
 == 239-th k-point nmo = 44 (0.62187,0.20729,-0.20729) ==
 == 240-th k-point nmo = 44 (0.00000,-0.62187,0.62187) ==
 == 241-th k-point nmo = 44 (0.10364,-0.51822,0.51822) ==
 == 242-th k-point nmo = 44 (0.20729,-0.41458,0.41458) ==
 == 243-th k-point nmo = 45 (0.31093,-0.31093,0.31093) ==
 == 244-th k-point nmo = 44 (0.41458,-0.20729,0.20729) ==
 == 245-th k-point nmo = 44 (0.51822,-0.10364,0.10364) ==
 == 246-th k-point nmo = 44 (0.62187,-0.00000,0.00000) ==
 == 247-th k-point nmo = 44 (0.72551,0.10364,-0.10364) ==
 == 248-th k-point nmo = 44 (0.10364,-0.72551,0.72551) ==
 == 249-th k-point nmo = 44 (0.20729,-0.62187,0.62187) ==
 == 250-th k-point nmo = 44 (0.31093,-0.51822,0.51822) ==
 == 251-th k-point nmo = 44 (0.41458,-0.41458,0.41458) ==
 == 252-th k-point nmo = 44 (0.51822,-0.31093,0.31093) ==
 == 253-th k-point nmo = 44 (0.62187,-0.20729,0.20729) ==
 == 254-th k-point nmo = 44 (0.72551,-0.10364,0.10364) ==
 == 255-th k-point nmo = 44 (0.82916,-0.00000,0.00000) ==
 == 256-th k-point nmo = 44 (-0.72551,0.10364,0.10364) ==
 == 257-th k-point nmo = 44 (-0.62187,0.20729,0.00000) ==
 == 258-th k-point nmo = 44 (-0.51822,0.31093,-0.10364) ==
 == 259-th k-point nmo = 44 (-0.41458,0.41458,-0.20729) ==
 == 260-th k-point nmo = 44 (-0.31093,0.51822,-0.31093) ==
 == 261-th k-point nmo = 44 (-0.20729,0.62187,-0.41458) ==
 == 262-th k-point nmo = 44 (-0.10364,0.72551,-0.51822) ==
 == 263-th k-point nmo = 44 (-0.00000,0.82916,-0.62187) ==
 == 264-th k-point nmo = 44 (-0.62187,0.00000,0.20729) ==
 == 265-th k-point nmo = 44 (-0.51822,0.10364,0.10364) ==
 == 266-th k-point nmo = 44 (-0.41458,0.20729,0.00000) ==
 == 267-th k-point nmo = 44 (-0.31093,0.31093,-0.10364) ==
 == 268-th k-point nmo = 44 (-0.20729,0.41458,-0.20729) ==
 == 269-th k-point nmo = 44 (-0.10364,0.51822,-0.31093) ==
 == 270-th k-point nmo = 44 (-0.00000,0.62187,-0.41458) ==
 == 271-th k-point nmo = 44 (0.10364,0.72551,-0.51822) ==
 == 272-th k-point nmo = 44 (-0.51822,-0.10364,0.31093) ==
 == 273-th k-point nmo = 44 (-0.41458,-0.00000,0.20729) ==
 == 274-th k-point nmo = 44 (-0.31093,0.10364,0.10364) ==
 == 275-th k-point nmo = 43 (-0.20729,0.20729,0.00000) ==
 == 276-th k-point nmo = 44 (-0.10364,0.31093,-0.10364) ==
 == 277-th k-point nmo = 44 (-0.00000,0.41458,-0.20729) ==
 == 278-th k-point nmo = 44 (0.10364,0.51822,-0.31093) ==
 == 279-th k-point nmo = 44 (0.20729,0.62187,-0.41458) ==
 == 280-th k-point nmo = 44 (-0.41458,-0.20729,0.41458) ==
 == 281-th k-point nmo = 44 (-0.31093,-0.10364,0.31093) ==
 == 282-th k-point nmo = 43 (-0.20729,-0.00000,0.20729) ==
 == 283-th k-point nmo = 44 (-0.10364,0.10364,0.10364) ==
 == 284-th k-point nmo = 44 (0.00000,0.20729,0.00000) ==
 == 285-th k-point nmo = 44 (0.10364,0.31093,-0.10364) ==
 == 286-th k-point nmo = 44 (0.20729,0.41458,-0.20729) ==
 == 287-th k-point nmo = 44 (0.31093,0.51822,-0.31093) ==
 == 288-th k-point nmo = 44 (-0.31093,-0.31093,0.51822) ==
 == 289-th k-point nmo = 44 (-0.20729,-0.20729,0.41458) ==
 == 290-th k-point nmo = 44 (-0.10364,-0.10364,0.31093) ==
 == 291-th k-point nmo = 44 (0.00000,-0.00000,0.20729) ==
 == 292-th k-point nmo = 44 (0.10364,0.10364,0.10364) ==
 == 293-th k-point nmo = 43 (0.20729,0.20729,0.00000) ==
 == 294-th k-point nmo = 44 (0.31093,0.31093,-0.10364) ==
 == 295-th k-point nmo = 44 (0.41458,0.41458,-0.20729) ==
 == 296-th k-point nmo = 44 (-0.20729,-0.41458,0.62187) ==
 == 297-th k-point nmo = 44 (-0.10364,-0.31093,0.51822) ==
 == 298-th k-point nmo = 44 (0.00000,-0.20729,0.41458) ==
 == 299-th k-point nmo = 44 (0.10364,-0.10364,0.31093) ==
 == 300-th k-point nmo = 43 (0.20729,-0.00000,0.20729) ==
 == 301-th k-point nmo = 44 (0.31093,0.10364,0.10364) ==
 == 302-th k-point nmo = 44 (0.41458,0.20729,0.00000) ==
 == 303-th k-point nmo = 44 (0.51822,0.31093,-0.10364) ==
 == 304-th k-point nmo = 44 (-0.10364,-0.51822,0.72551) ==
 == 305-th k-point nmo = 44 (0.00000,-0.41458,0.62187) ==
 == 306-th k-point nmo = 44 (0.10364,-0.31093,0.51822) ==
 == 307-th k-point nmo = 44 (0.20729,-0.20729,0.41458) ==
 == 308-th k-point nmo = 44 (0.31093,-0.10364,0.31093) ==
 == 309-th k-point nmo = 44 (0.41458,-0.00000,0.20729) ==
 == 310-th k-point nmo = 44 (0.51822,0.10364,0.10364) ==
 == 311-th k-point nmo = 44 (0.62187,0.20729,0.00000) ==
 == 312-th k-point nmo = 44 (0.00000,-0.62187,0.82916) ==
 == 313-th k-point nmo = 44 (0.10364,-0.51822,0.72551) ==
 == 314-th k-point nmo = 44 (0.20729,-0.41458,0.62187) ==
 == 315-th k-point nmo = 44 (0.31093,-0.31093,0.51822) ==
 == 316-th k-point nmo = 44 (0.41458,-0.20729,0.41458) ==
 == 317-th k-point nmo = 44 (0.51822,-0.10364,0.31093) ==
 == 318-th k-point nmo = 44 (0.62187,-0.00000,0.20729) ==
 == 319-th k-point nmo = 44 (0.72551,0.10364,0.10364) ==
 == 320-th k-point nmo = 44 (-0.82916,0.20729,0.20729) ==
 == 321-th k-point nmo = 44 (-0.72551,0.31093,0.10364) ==
 == 322-th k-point nmo = 44 (-0.62187,0.41458,0.00000) ==
 == 323-th k-point nmo = 44 (-0.51822,0.51822,-0.10364) ==
 == 324-th k-point nmo = 44 (-0.41458,0.62187,-0.20729) ==
 == 325-th k-point nmo = 44 (-0.31093,0.72551,-0.31093) ==
 == 326-th k-point nmo = 44 (-0.20729,0.82916,-0.41458) ==
 == 327-th k-point nmo = 44 (-0.10364,0.93280,-0.51822) ==
 == 328-th k-point nmo = 44 (-0.72551,0.10364,0.31093) ==
 == 329-th k-point nmo = 44 (-0.62187,0.20729,0.20729) ==
 == 330-th k-point nmo = 44 (-0.51822,0.31093,0.10364) ==
 == 331-th k-point nmo = 44 (-0.41458,0.41458,0.00000) ==
 == 332-th k-point nmo = 44 (-0.31093,0.51822,-0.10364) ==
 == 333-th k-point nmo = 44 (-0.20729,0.62187,-0.20729) ==
 == 334-th k-point nmo = 44 (-0.10364,0.72551,-0.31093) ==
 == 335-th k-point nmo = 44 (-0.00000,0.82916,-0.41458) ==
 == 336-th k-point nmo = 44 (-0.62187,0.00000,0.41458) ==
 == 337-th k-point nmo = 44 (-0.51822,0.10364,0.31093) ==
 == 338-th k-point nmo = 44 (-0.41458,0.20729,0.20729) ==
 == 339-th k-point nmo = 44 (-0.31093,0.31093,0.10364) ==
 == 340-th k-point nmo = 44 (-0.20729,0.41458,0.00000) ==
 == 341-th k-point nmo = 44 (-0.10364,0.51822,-0.10364) ==
 == 342-th k-point nmo = 44 (0.00000,0.62187,-0.20729) ==
 == 343-th k-point nmo = 44 (0.10364,0.72551,-0.31093) ==
 == 344-th k-point nmo = 44 (-0.51822,-0.10364,0.51822) ==
 == 345-th k-point nmo = 44 (-0.41458,-0.00000,0.41458) ==
 == 346-th k-point nmo = 44 (-0.31093,0.10364,0.31093) ==
 == 347-th k-point nmo = 45 (-0.20729,0.20729,0.20729) ==
 == 348-th k-point nmo = 44 (-0.10364,0.31093,0.10364) ==
 == 349-th k-point nmo = 44 (0.00000,0.41458,0.00000) ==
 == 350-th k-point nmo = 44 (0.10364,0.51822,-0.10364) ==
 == 351-th k-point nmo = 44 (0.20729,0.62187,-0.20729) ==
 == 352-th k-point nmo = 44 (-0.41458,-0.20729,0.62187) ==
 == 353-th k-point nmo = 44 (-0.31093,-0.10364,0.51822) ==
 == 354-th k-point nmo = 44 (-0.20729,-0.00000,0.41458) ==
 == 355-th k-point nmo = 44 (-0.10364,0.10364,0.31093) ==
 == 356-th k-point nmo = 43 (0.00000,0.20729,0.20729) ==
 == 357-th k-point nmo = 44 (0.10364,0.31093,0.10364) ==
 == 358-th k-point nmo = 44 (0.20729,0.41458,0.00000) ==
 == 359-th k-point nmo = 44 (0.31093,0.51822,-0.10364) ==
 == 360-th k-point nmo = 44 (-0.31093,-0.31093,0.72551) ==
 == 361-th k-point nmo = 44 (-0.20729,-0.20729,0.62187) ==
 == 362-th k-point nmo = 44 (-0.10364,-0.10364,0.51822) ==
 == 363-th k-point nmo = 44 (0.00000,-0.00000,0.41458) ==
 == 364-th k-point nmo = 44 (0.10364,0.10364,0.31093) ==
 == 365-th k-point nmo = 45 (0.20729,0.20729,0.20729) ==
 == 366-th k-point nmo = 44 (0.31093,0.31093,0.10364) ==
 == 367-th k-point nmo = 44 (0.41458,0.41458,0.00000) ==
 == 368-th k-point nmo = 44 (-0.20729,-0.41458,0.82916) ==
 == 369-th k-point nmo = 44 (-0.10364,-0.31093,0.72551) ==
 == 370-th k-point nmo = 44 (0.00000,-0.20729,0.62187) ==
 == 371-th k-point nmo = 44 (0.10364,-0.10364,0.51822) ==
 == 372-th k-point nmo = 44 (0.20729,-0.00000,0.41458) ==
 == 373-th k-point nmo = 44 (0.31093,0.10364,0.31093) ==
 == 374-th k-point nmo = 44 (0.41458,0.20729,0.20729) ==
 == 375-th k-point nmo = 44 (0.51822,0.31093,0.10364) ==
 == 376-th k-point nmo = 44 (-0.10364,-0.51822,0.93280) ==
 == 377-th k-point nmo = 44 (0.00000,-0.41458,0.82916) ==
 == 378-th k-point nmo = 44 (0.10364,-0.31093,0.72551) ==
 == 379-th k-point nmo = 44 (0.20729,-0.20729,0.62187) ==
 == 380-th k-point nmo = 44 (0.31093,-0.10364,0.51822) ==
 == 381-th k-point nmo = 44 (0.41458,-0.00000,0.41458) ==
 == 382-th k-point nmo = 44 (0.51822,0.10364,0.31093) ==
 == 383-th k-point nmo = 44 (0.62187,0.20729,0.20729) ==
 == 384-th k-point nmo = 44 (-0.93280,0.31093,0.31093) ==
 == 385-th k-point nmo = 44 (-0.82916,0.41458,0.20729) ==
 == 386-th k-point nmo = 44 (-0.72551,0.51822,0.10364) ==
 == 387-th k-point nmo = 44 (-0.62187,0.62187,0.00000) ==
 == 388-th k-point nmo = 44 (-0.51822,0.72551,-0.10364) ==
 == 389-th k-point nmo = 44 (-0.41458,0.82916,-0.20729) ==
 == 390-th k-point nmo = 44 (-0.31093,0.93280,-0.31093) ==
 == 391-th k-point nmo = 44 (-0.20729,1.03645,-0.41458) ==
 == 392-th k-point nmo = 44 (-0.82916,0.20729,0.41458) ==
 == 393-th k-point nmo = 44 (-0.72551,0.31093,0.31093) ==
 == 394-th k-point nmo = 44 (-0.62187,0.41458,0.20729) ==
 == 395-th k-point nmo = 44 (-0.51822,0.51822,0.10364) ==
 == 396-th k-point nmo = 44 (-0.41458,0.62187,0.00000) ==
 == 397-th k-point nmo = 44 (-0.31093,0.72551,-0.10364) ==
 == 398-th k-point nmo = 44 (-0.20729,0.82916,-0.20729) ==
 == 399-th k-point nmo = 44 (-0.10364,0.93280,-0.31093) ==
 == 400-th k-point nmo = 44 (-0.72551,0.10364,0.51822) ==
 == 401-th k-point nmo = 44 (-0.62187,0.20729,0.41458) ==
 == 402-th k-point nmo = 44 (-0.51822,0.31093,0.31093) ==
 == 403-th k-point nmo = 44 (-0.41458,0.41458,0.20729) ==
 == 404-th k-point nmo = 44 (-0.31093,0.51822,0.10364) ==
 == 405-th k-point nmo = 44 (-0.20729,0.62187,0.00000) ==
 == 406-th k-point nmo = 44 (-0.10364,0.72551,-0.10364) ==
 == 407-th k-point nmo = 44 (0.00000,0.82916,-0.20729) ==
 == 408-th k-point nmo = 44 (-0.62187,-0.00000,0.62187) ==
 == 409-th k-point nmo = 44 (-0.51822,0.10364,0.51822) ==
 == 410-th k-point nmo = 44 (-0.41458,0.20729,0.41458) ==
 == 411-th k-point nmo = 45 (-0.31093,0.31093,0.31093) ==
 == 412-th k-point nmo = 44 (-0.20729,0.41458,0.20729) ==
 == 413-th k-point nmo = 44 (-0.10364,0.51822,0.10364) ==
 == 414-th k-point nmo = 44 (0.00000,0.62187,0.00000) ==
 == 415-th k-point nmo = 44 (0.10364,0.72551,-0.10364) ==
 == 416-th k-point nmo = 44 (-0.51822,-0.10364,0.72551) ==
 == 417-th k-point nmo = 44 (-0.41458,-0.00000,0.62187) ==
 == 418-th k-point nmo = 44 (-0.31093,0.10364,0.51822) ==
 == 419-th k-point nmo = 44 (-0.20729,0.20729,0.41458) ==
 == 420-th k-point nmo = 44 (-0.10364,0.31093,0.31093) ==
 == 421-th k-point nmo = 44 (0.00000,0.41458,0.20729) ==
 == 422-th k-point nmo = 44 (0.10364,0.51822,0.10364) ==
 == 423-th k-point nmo = 44 (0.20729,0.62187,0.00000) ==
 == 424-th k-point nmo = 44 (-0.41458,-0.20729,0.82916) ==
 == 425-th k-point nmo = 44 (-0.31093,-0.10364,0.72551) ==
 == 426-th k-point nmo = 44 (-0.20729,-0.00000,0.62187) ==
 == 427-th k-point nmo = 44 (-0.10364,0.10364,0.51822) ==
 == 428-th k-point nmo = 44 (0.00000,0.20729,0.41458) ==
 == 429-th k-point nmo = 44 (0.10364,0.31093,0.31093) ==
 == 430-th k-point nmo = 44 (0.20729,0.41458,0.20729) ==
 == 431-th k-point nmo = 44 (0.31093,0.51822,0.10364) ==
 == 432-th k-point nmo = 44 (-0.31093,-0.31093,0.93280) ==
 == 433-th k-point nmo = 44 (-0.20729,-0.20729,0.82916) ==
 == 434-th k-point nmo = 44 (-0.10364,-0.10364,0.72551) ==
 == 435-th k-point nmo = 44 (0.00000,-0.00000,0.62187) ==
 == 436-th k-point nmo = 44 (0.10364,0.10364,0.51822) ==
 == 437-th k-point nmo = 44 (0.20729,0.20729,0.41458) ==
 == 438-th k-point nmo = 45 (0.31093,0.31093,0.31093) ==
 == 439-th k-point nmo = 44 (0.41458,0.41458,0.20729) ==
 == 440-th k-point nmo = 44 (-0.20729,-0.41458,1.03645) ==
 == 441-th k-point nmo = 44 (-0.10364,-0.31093,0.93280) ==
 == 442-th k-point nmo = 44 (0.00000,-0.20729,0.82916) ==
 == 443-th k-point nmo = 44 (0.10364,-0.10364,0.72551) ==
 == 444-th k-point nmo = 44 (0.20729,-0.00000,0.62187) ==
 == 445-th k-point nmo = 44 (0.31093,0.10364,0.51822) ==
 == 446-th k-point nmo = 44 (0.41458,0.20729,0.41458) ==
 == 447-th k-point nmo = 44 (0.51822,0.31093,0.31093) ==
 == 448-th k-point nmo = 44 (-1.03645,0.41458,0.41458) ==
 == 449-th k-point nmo = 44 (-0.93280,0.51822,0.31093) ==
 == 450-th k-point nmo = 44 (-0.82916,0.62187,0.20729) ==
 == 451-th k-point nmo = 44 (-0.72551,0.72551,0.10364) ==
 == 452-th k-point nmo = 44 (-0.62187,0.82916,0.00000) ==
 == 453-th k-point nmo = 44 (-0.51822,0.93280,-0.10364) ==
 == 454-th k-point nmo = 44 (-0.41458,1.03645,-0.20729) ==
 == 455-th k-point nmo = 44 (-0.31093,1.14009,-0.31093) ==
 == 456-th k-point nmo = 44 (-0.93280,0.31093,0.51822) ==
 == 457-th k-point nmo = 44 (-0.82916,0.41458,0.41458) ==
 == 458-th k-point nmo = 44 (-0.72551,0.51822,0.31093) ==
 == 459-th k-point nmo = 44 (-0.62187,0.62187,0.20729) ==
 == 460-th k-point nmo = 44 (-0.51822,0.72551,0.10364) ==
 == 461-th k-point nmo = 44 (-0.41458,0.82916,0.00000) ==
 == 462-th k-point nmo = 44 (-0.31093,0.93280,-0.10364) ==
 == 463-th k-point nmo = 44 (-0.20729,1.03645,-0.20729) ==
 == 464-th k-point nmo = 44 (-0.82916,0.20729,0.62187) ==
 == 465-th k-point nmo = 44 (-0.72551,0.31093,0.51822) ==
 == 466-th k-point nmo = 44 (-0.62187,0.41458,0.41458) ==
 == 467-th k-point nmo = 44 (-0.51822,0.51822,0.31093) ==
 == 468-th k-point nmo = 44 (-0.41458,0.62187,0.20729) ==
 == 469-th k-point nmo = 44 (-0.31093,0.72551,0.10364) ==
 == 470-th k-point nmo = 44 (-0.20729,0.82916,0.00000) ==
 == 471-th k-point nmo = 44 (-0.10364,0.93280,-0.10364) ==
 == 472-th k-point nmo = 44 (-0.72551,0.10364,0.72551) ==
 == 473-th k-point nmo = 44 (-0.62187,0.20729,0.62187) ==
 == 474-th k-point nmo = 44 (-0.51822,0.31093,0.51822) ==
 == 475-th k-point nmo = 44 (-0.41458,0.41458,0.41458) ==
 == 476-th k-point nmo = 44 (-0.31093,0.51822,0.31093) ==
 == 477-th k-point nmo = 44 (-0.20729,0.62187,0.20729) ==
 == 478-th k-point nmo = 44 (-0.10364,0.72551,0.10364) ==
 == 479-th k-point nmo = 44 (0.00000,0.82916,0.00000) ==
 == 480-th k-point nmo = 44 (-0.62187,-0.00000,0.82916) ==
 == 481-th k-point nmo = 44 (-0.51822,0.10364,0.72551) ==
 == 482-th k-point nmo = 44 (-0.41458,0.20729,0.62187) ==
 == 483-th k-point nmo = 44 (-0.31093,0.31093,0.51822) ==
 == 484-th k-point nmo = 44 (-0.20729,0.41458,0.41458) ==
 == 485-th k-point nmo = 44 (-0.10364,0.51822,0.31093) ==
 == 486-th k-point nmo = 44 (0.00000,0.62187,0.20729) ==
 == 487-th k-point nmo = 44 (0.10364,0.72551,0.10364) ==
 == 488-th k-point nmo = 44 (-0.51822,-0.10364,0.93280) ==
 == 489-th k-point nmo = 44 (-0.41458,-0.00000,0.82916) ==
 == 490-th k-point nmo = 44 (-0.31093,0.10364,0.72551) ==
 == 491-th k-point nmo = 44 (-0.20729,0.20729,0.62187) ==
 == 492-th k-point nmo = 44 (-0.10364,0.31093,0.51822) ==
 == 493-th k-point nmo = 44 (0.00000,0.41458,0.41458) ==
 == 494-th k-point nmo = 44 (0.10364,0.51822,0.31093) ==
 == 495-th k-point nmo = 44 (0.20729,0.62187,0.20729) ==
 == 496-th k-point nmo = 44 (-0.41458,-0.20729,1.03645) ==
 == 497-th k-point nmo = 44 (-0.31093,-0.10364,0.93280) ==
 == 498-th k-point nmo = 44 (-0.20729,-0.00000,0.82916) ==
 == 499-th k-point nmo = 44 (-0.10364,0.10364,0.72551) ==
 == 500-th k-point nmo = 44 (0.00000,0.20729,0.62187) ==
 == 501-th k-point nmo = 44 (0.10364,0.31093,0.51822) ==
 == 502-th k-point nmo = 44 (0.20729,0.41458,0.41458) ==
 == 503-th k-point nmo = 44 (0.31093,0.51822,0.31093) ==
 == 504-th k-point nmo = 44 (-0.31093,-0.31093,1.14009) ==
 == 505-th k-point nmo = 44 (-0.20729,-0.20729,1.03645) ==
 == 506-th k-point nmo = 44 (-0.10364,-0.10364,0.93280) ==
 == 507-th k-point nmo = 44 (0.00000,-0.00000,0.82916) ==
 == 508-th k-point nmo = 44 (0.10364,0.10364,0.72551) ==
 == 509-th k-point nmo = 44 (0.20729,0.20729,0.62187) ==
 == 510-th k-point nmo = 44 (0.31093,0.31093,0.51822) ==
 == 511-th k-point nmo = 44 (0.41458,0.41458,0.41458) ==

 Generate autoSAD guess
backing up fragment data
Atom # 0: li, charge: 0, multiplicity: 2.000000
Atom # 1: f, charge: 0, multiplicity: 2.000000
writing autosad to fragment context
Settings for isolated fragments: 
  frgm_gamma: TRUE
  frgm_center: FALSE

    Running SCF for isolated atom #0
    Fragment Input file: /n/netscratch/joonholee_lab/Lab/hieudinh//lif_solve_def2tzvp_omega_0.3_888.scratch20250909015938/autosad_frgmt_0/frgmt_input.in
    Fragment Output file: /n/netscratch/joonholee_lab/Lab/hieudinh//lif_solve_def2tzvp_omega_0.3_888.scratch20250909015938/autosad_frgmt_0/frgmt_job.out
    Fragment job begins at Tue Sep  9 01:59:51 2025

 Integrated density by DFT XC:
   Numerical integral  =     2.999999993509
   Relative error      =     0.0000002164 %
Final energy components:
 DFT Correlation            Energy =  -0.05092434039942
 DFT Exchange               Energy =  -1.75140723515056
 Kinetic (alpha)            Energy =   3.83066744044889
 Kinetic (beta)             Energy =   3.58623083148463
 Nuclear Attraction (alpha) Energy =  -9.10958889983069
 Nuclear Attraction (beta)  Energy =  -8.02018991527131
 Nuclear Repulsion          Energy =   0.00000000000000
 SEOQF                      Energy =  -0.00000000000000
 Total Coulomb              Energy =   4.05329323490599
----------------------------------------------
    SCF Energy: -7.4619188838
   Total fragment job time:  0.43 s.
    Running SCF for isolated atom #1
    Fragment Input file: /n/netscratch/joonholee_lab/Lab/hieudinh//lif_solve_def2tzvp_omega_0.3_888.scratch20250909015938/autosad_frgmt_1/frgmt_input.in
    Fragment Output file: /n/netscratch/joonholee_lab/Lab/hieudinh//lif_solve_def2tzvp_omega_0.3_888.scratch20250909015938/autosad_frgmt_1/frgmt_job.out
    Fragment job begins at Tue Sep  9 01:59:52 2025

 Integrated density by DFT XC:
   Numerical integral  =     9.000000032991
   Relative error      =     0.0000003666 %
Final energy components:
 DFT Correlation            Energy =  -0.29005331125227
 DFT Exchange               Energy =  -9.97682915393220
 Kinetic (alpha)            Energy =  51.55991484248820
 Kinetic (beta)             Energy =  47.86189754389153
 Nuclear Attraction (alpha) Energy = -125.32369696155536
 Nuclear Attraction (beta)  Energy = -113.23357709834444
 Nuclear Repulsion          Energy =   0.00000000000000
 SEOQF                      Energy =  -0.00000000020384
 Total Coulomb              Energy =  49.73321880799709
----------------------------------------------
    SCF Energy: -99.6691253309
   Total fragment job time:  0.49 s.
restoring fragment data

 ------------------------------------------------------------------------
 Allocate 133087952 B from available memory: 104840876704 B
 Time for generating SCF guess: 0.97 s

 Allocate 264964 B from available memory: 104707788768 B
 Selected algorithms for each term:
  kpts_kinetic -> @0x147a0ff21680
  kpts_nn -> @0x147a0ff21800
  kpts_rij_bigmem -> @0x147a0ff213e0
  kpts_vnuc_df -> @0x147a0ff21380
  kpts_xc -> @0x147a0ff212c0
 Time for computing kinetic matrix is 12.05 s
Start calculating Vnuc DD type!
Start calculating Vnuc CD type!
Start calculating Vnuc CC type!
 Time for computing nuclear attraction matrix is 22.62 s
Compute (P|Q) and use solve on the fly!
Maximum distance between P and Q is 37.07317869796985
Number of images for (P|Qn) is 3451
 Time for computing 2e2c SR integral is 0.15 s
Maximum dynamic memory per thread for 2e3c SR integrals: 0.011 GiB
Batch size for basis function pair is 44 out of 44
 === bvk cell = 0 has 100.000 % of the basis function pairs === 
 === bvk cell = 1 has 100.000 % of the basis function pairs === 
 === bvk cell = 2 has 100.000 % of the basis function pairs === 
 === bvk cell = 3 has 100.000 % of the basis function pairs === 
 === bvk cell = 4 has 100.000 % of the basis function pairs === 
 === bvk cell = 5 has 100.000 % of the basis function pairs === 
 === bvk cell = 6 has 100.000 % of the basis function pairs === 
 === bvk cell = 7 has 100.000 % of the basis function pairs === 
 === bvk cell = 8 has 100.000 % of the basis function pairs === 
 === bvk cell = 9 has 100.000 % of the basis function pairs === 
 === bvk cell = 10 has 100.000 % of the basis function pairs === 
 === bvk cell = 11 has 100.000 % of the basis function pairs === 
 === bvk cell = 12 has 100.000 % of the basis function pairs === 
 === bvk cell = 13 has 100.000 % of the basis function pairs === 
 === bvk cell = 14 has 100.000 % of the basis function pairs === 
 === bvk cell = 15 has 100.000 % of the basis function pairs === 
 === bvk cell = 16 has 100.000 % of the basis function pairs === 
 === bvk cell = 17 has 100.000 % of the basis function pairs === 
 === bvk cell = 18 has 100.000 % of the basis function pairs === 
 === bvk cell = 19 has 100.000 % of the basis function pairs === 
 === bvk cell = 20 has 100.000 % of the basis function pairs === 
 === bvk cell = 21 has 100.000 % of the basis function pairs === 
 === bvk cell = 22 has 100.000 % of the basis function pairs === 
 === bvk cell = 23 has 100.000 % of the basis function pairs === 
 === bvk cell = 24 has 100.000 % of the basis function pairs === 
 === bvk cell = 25 has 100.000 % of the basis function pairs === 
 === bvk cell = 26 has 100.000 % of the basis function pairs === 
 === bvk cell = 27 has 100.000 % of the basis function pairs === 
 === bvk cell = 28 has 100.000 % of the basis function pairs === 
 === bvk cell = 29 has 100.000 % of the basis function pairs === 
 === bvk cell = 30 has 100.000 % of the basis function pairs === 
 === bvk cell = 31 has 100.000 % of the basis function pairs === 
 === bvk cell = 32 has 100.000 % of the basis function pairs === 
 === bvk cell = 33 has 100.000 % of the basis function pairs === 
 === bvk cell = 34 has 100.000 % of the basis function pairs === 
 === bvk cell = 35 has 100.000 % of the basis function pairs === 
 === bvk cell = 36 has 100.000 % of the basis function pairs === 
 === bvk cell = 37 has 100.000 % of the basis function pairs === 
 === bvk cell = 38 has 100.000 % of the basis function pairs === 
 === bvk cell = 39 has 100.000 % of the basis function pairs === 
 === bvk cell = 40 has 100.000 % of the basis function pairs === 
 === bvk cell = 41 has 100.000 % of the basis function pairs === 
 === bvk cell = 42 has 100.000 % of the basis function pairs === 
 === bvk cell = 43 has 100.000 % of the basis function pairs === 
 === bvk cell = 44 has 100.000 % of the basis function pairs === 
 === bvk cell = 45 has 100.000 % of the basis function pairs === 
 === bvk cell = 46 has 100.000 % of the basis function pairs === 
 === bvk cell = 47 has 100.000 % of the basis function pairs === 
 === bvk cell = 48 has 100.000 % of the basis function pairs === 
 === bvk cell = 49 has 100.000 % of the basis function pairs === 
 === bvk cell = 50 has 100.000 % of the basis function pairs === 
 === bvk cell = 51 has 100.000 % of the basis function pairs === 
 === bvk cell = 52 has 100.000 % of the basis function pairs === 
 === bvk cell = 53 has 100.000 % of the basis function pairs === 
 === bvk cell = 54 has 100.000 % of the basis function pairs === 
 === bvk cell = 55 has 100.000 % of the basis function pairs === 
 === bvk cell = 56 has 100.000 % of the basis function pairs === 
 === bvk cell = 57 has 100.000 % of the basis function pairs === 
 === bvk cell = 58 has 100.000 % of the basis function pairs === 
 === bvk cell = 59 has 100.000 % of the basis function pairs === 
 === bvk cell = 60 has 100.000 % of the basis function pairs === 
 === bvk cell = 61 has 100.000 % of the basis function pairs === 
 === bvk cell = 62 has 100.000 % of the basis function pairs === 
 === bvk cell = 63 has 100.000 % of the basis function pairs === 
 === bvk cell = 64 has 100.000 % of the basis function pairs === 
 === bvk cell = 65 has 100.000 % of the basis function pairs === 
 === bvk cell = 66 has 100.000 % of the basis function pairs === 
 === bvk cell = 67 has 100.000 % of the basis function pairs === 
 === bvk cell = 68 has 100.000 % of the basis function pairs === 
 === bvk cell = 69 has 100.000 % of the basis function pairs === 
 === bvk cell = 70 has 100.000 % of the basis function pairs === 
 === bvk cell = 71 has 100.000 % of the basis function pairs === 
 === bvk cell = 72 has 100.000 % of the basis function pairs === 
 === bvk cell = 73 has 100.000 % of the basis function pairs === 
 === bvk cell = 74 has 100.000 % of the basis function pairs === 
 === bvk cell = 75 has 100.000 % of the basis function pairs === 
 === bvk cell = 76 has 100.000 % of the basis function pairs === 
 === bvk cell = 77 has 100.000 % of the basis function pairs === 
 === bvk cell = 78 has 100.000 % of the basis function pairs === 
 === bvk cell = 79 has 100.000 % of the basis function pairs === 
 === bvk cell = 80 has 100.000 % of the basis function pairs === 
 === bvk cell = 81 has 100.000 % of the basis function pairs === 
 === bvk cell = 82 has 100.000 % of the basis function pairs === 
 === bvk cell = 83 has 100.000 % of the basis function pairs === 
 === bvk cell = 84 has 100.000 % of the basis function pairs === 
 === bvk cell = 85 has 100.000 % of the basis function pairs === 
 === bvk cell = 86 has 100.000 % of the basis function pairs === 
 === bvk cell = 87 has 100.000 % of the basis function pairs === 
 === bvk cell = 88 has 100.000 % of the basis function pairs === 
 === bvk cell = 89 has 100.000 % of the basis function pairs === 
 === bvk cell = 90 has 100.000 % of the basis function pairs === 
 === bvk cell = 91 has 100.000 % of the basis function pairs === 
 === bvk cell = 92 has 100.000 % of the basis function pairs === 
 === bvk cell = 93 has 100.000 % of the basis function pairs === 
 === bvk cell = 94 has 100.000 % of the basis function pairs === 
 === bvk cell = 95 has 100.000 % of the basis function pairs === 
 === bvk cell = 96 has 100.000 % of the basis function pairs === 
 === bvk cell = 97 has 100.000 % of the basis function pairs === 
 === bvk cell = 98 has 100.000 % of the basis function pairs === 
 === bvk cell = 99 has 100.000 % of the basis function pairs === 
 === bvk cell = 100 has 100.000 % of the basis function pairs === 
 === bvk cell = 101 has 100.000 % of the basis function pairs === 
 === bvk cell = 102 has 100.000 % of the basis function pairs === 
 === bvk cell = 103 has 100.000 % of the basis function pairs === 
 === bvk cell = 104 has 100.000 % of the basis function pairs === 
 === bvk cell = 105 has 100.000 % of the basis function pairs === 
 === bvk cell = 106 has 100.000 % of the basis function pairs === 
 === bvk cell = 107 has 100.000 % of the basis function pairs === 
 === bvk cell = 108 has 100.000 % of the basis function pairs === 
 === bvk cell = 109 has 100.000 % of the basis function pairs === 
 === bvk cell = 110 has 100.000 % of the basis function pairs === 
 === bvk cell = 111 has 100.000 % of the basis function pairs === 
 === bvk cell = 112 has 100.000 % of the basis function pairs === 
 === bvk cell = 113 has 100.000 % of the basis function pairs === 
 === bvk cell = 114 has 100.000 % of the basis function pairs === 
 === bvk cell = 115 has 100.000 % of the basis function pairs === 
 === bvk cell = 116 has 100.000 % of the basis function pairs === 
 === bvk cell = 117 has 100.000 % of the basis function pairs === 
 === bvk cell = 118 has 100.000 % of the basis function pairs === 
 === bvk cell = 119 has 100.000 % of the basis function pairs === 
 === bvk cell = 120 has 100.000 % of the basis function pairs === 
 === bvk cell = 121 has 100.000 % of the basis function pairs === 
 === bvk cell = 122 has 100.000 % of the basis function pairs === 
 === bvk cell = 123 has 100.000 % of the basis function pairs === 
 === bvk cell = 124 has 100.000 % of the basis function pairs === 
 === bvk cell = 125 has 100.000 % of the basis function pairs === 
 === bvk cell = 126 has 100.000 % of the basis function pairs === 
 === bvk cell = 127 has 100.000 % of the basis function pairs === 
 === bvk cell = 128 has 100.000 % of the basis function pairs === 
 === bvk cell = 129 has 100.000 % of the basis function pairs === 
 === bvk cell = 130 has 100.000 % of the basis function pairs === 
 === bvk cell = 131 has 100.000 % of the basis function pairs === 
 === bvk cell = 132 has 100.000 % of the basis function pairs === 
 === bvk cell = 133 has 100.000 % of the basis function pairs === 
 === bvk cell = 134 has 100.000 % of the basis function pairs === 
 === bvk cell = 135 has 100.000 % of the basis function pairs === 
 === bvk cell = 136 has 100.000 % of the basis function pairs === 
 === bvk cell = 137 has 100.000 % of the basis function pairs === 
 === bvk cell = 138 has 100.000 % of the basis function pairs === 
 === bvk cell = 139 has 100.000 % of the basis function pairs === 
 === bvk cell = 140 has 100.000 % of the basis function pairs === 
 === bvk cell = 141 has 100.000 % of the basis function pairs === 
 === bvk cell = 142 has 100.000 % of the basis function pairs === 
 === bvk cell = 143 has 100.000 % of the basis function pairs === 
 === bvk cell = 144 has 100.000 % of the basis function pairs === 
 === bvk cell = 145 has 100.000 % of the basis function pairs === 
 === bvk cell = 146 has 100.000 % of the basis function pairs === 
 === bvk cell = 147 has 100.000 % of the basis function pairs === 
 === bvk cell = 148 has 100.000 % of the basis function pairs === 
 === bvk cell = 149 has 100.000 % of the basis function pairs === 
 === bvk cell = 150 has 100.000 % of the basis function pairs === 
 === bvk cell = 151 has 100.000 % of the basis function pairs === 
 === bvk cell = 152 has 100.000 % of the basis function pairs === 
 === bvk cell = 153 has 100.000 % of the basis function pairs === 
 === bvk cell = 154 has 100.000 % of the basis function pairs === 
 === bvk cell = 155 has 100.000 % of the basis function pairs === 
 === bvk cell = 156 has 100.000 % of the basis function pairs === 
 === bvk cell = 157 has 100.000 % of the basis function pairs === 
 === bvk cell = 158 has 100.000 % of the basis function pairs === 
 === bvk cell = 159 has 100.000 % of the basis function pairs === 
 === bvk cell = 160 has 100.000 % of the basis function pairs === 
 === bvk cell = 161 has 100.000 % of the basis function pairs === 
 === bvk cell = 162 has 100.000 % of the basis function pairs === 
 === bvk cell = 163 has 100.000 % of the basis function pairs === 
 === bvk cell = 164 has 100.000 % of the basis function pairs === 
 === bvk cell = 165 has 100.000 % of the basis function pairs === 
 === bvk cell = 166 has 100.000 % of the basis function pairs === 
 === bvk cell = 167 has 100.000 % of the basis function pairs === 
 === bvk cell = 168 has 100.000 % of the basis function pairs === 
 === bvk cell = 169 has 100.000 % of the basis function pairs === 
 === bvk cell = 170 has 100.000 % of the basis function pairs === 
 === bvk cell = 171 has 100.000 % of the basis function pairs === 
 === bvk cell = 172 has 100.000 % of the basis function pairs === 
 === bvk cell = 173 has 100.000 % of the basis function pairs === 
 === bvk cell = 174 has 100.000 % of the basis function pairs === 
 === bvk cell = 175 has 100.000 % of the basis function pairs === 
 === bvk cell = 176 has 100.000 % of the basis function pairs === 
 === bvk cell = 177 has 100.000 % of the basis function pairs === 
 === bvk cell = 178 has 100.000 % of the basis function pairs === 
[...]
 7.08850 7.09603 7.10022 7.12092 7.13558 7.13679 7.28497 8.60157 8.69120 8.80577
 8.86032 8.92861 15.93059 57.45713
 == 468-th k-point (-0.41458,0.62187,0.20729) occupation: 6==
 -23.85931 -1.46371 -0.67468 -0.05047 -0.00921 0.01874 0.50148 0.62031 0.74466 0.75089
 1.18250 1.21175 1.41718 1.42899 1.79755 1.81055 1.90665 2.32577 2.45191 2.69696
 2.72252 2.72869 3.49120 4.05933 4.34709 4.39642 4.85490 6.47130 6.49114 6.79597
 7.08416 7.08599 7.09577 7.10474 7.15281 7.24068 7.25716 8.51774 8.77312 8.77842
 8.81375 8.96920 16.02718 57.44151
 == 469-th k-point (-0.31093,0.72551,0.10364) occupation: 6==
 -23.85932 -1.46350 -0.67123 -0.05164 -0.02403 0.00949 0.56077 0.60494 0.71263 0.75805
 1.04160 1.27391 1.38443 1.49943 1.76778 1.84198 2.09152 2.23526 2.47195 2.53788
 2.71511 2.74094 3.50710 4.10789 4.27708 4.39835 4.91846 6.48225 6.57818 6.71839
 7.08526 7.08788 7.09514 7.10710 7.21547 7.23782 7.29703 8.46678 8.69251 8.78347
 8.81786 9.04045 16.05254 57.51134
 == 470-th k-point (-0.20729,0.82916,0.00000) occupation: 6==
 -23.85932 -1.46342 -0.66946 -0.06621 -0.01311 0.00309 0.58683 0.62236 0.68448 0.77055
 0.92243 1.33615 1.40051 1.60096 1.75122 1.92072 2.10463 2.21725 2.46192 2.51827
 2.65040 2.74092 3.48448 4.04211 4.33090 4.47904 4.95088 6.46950 6.57958 6.78816
 7.08533 7.08555 7.09642 7.15719 7.23143 7.24200 7.32338 8.46260 8.61871 8.71388
 8.81913 9.04422 16.06647 57.50175
 == 471-th k-point (-0.10364,0.93280,-0.10364) occupation: 6==
 -23.85930 -1.46353 -0.67049 -0.06694 -0.00543 0.00330 0.56998 0.64504 0.70409 0.78322
 0.90475 1.33703 1.48336 1.63195 1.74184 1.85127 2.01014 2.24953 2.48264 2.59701
 2.62084 2.73219 3.37951 4.06626 4.43387 4.55120 4.86921 6.44433 6.52126 6.86520
 7.08397 7.08714 7.10591 7.17843 7.22746 7.24210 7.31942 8.48546 8.62069 8.67428
 8.80940 9.00337 15.93306 57.26276
 == 472-th k-point (-0.72551,0.10364,0.72551) occupation: 6==
 -23.85930 -1.46353 -0.67049 -0.06694 -0.00543 0.00330 0.56998 0.64504 0.70409 0.78322
 0.90475 1.33703 1.48336 1.63195 1.74184 1.85127 2.01014 2.24953 2.48264 2.59701
 2.62084 2.73219 3.37951 4.06626 4.43387 4.55120 4.86921 6.44433 6.52126 6.86520
 7.08397 7.08714 7.10591 7.17843 7.22746 7.24210 7.31942 8.48546 8.62069 8.67428
 8.80940 9.00337 15.93306 57.26276
 == 473-th k-point (-0.62187,0.20729,0.62187) occupation: 6==
 -23.85931 -1.46374 -0.67416 -0.05199 -0.00684 0.01323 0.51840 0.62673 0.73340 0.76673
 1.03809 1.32544 1.44467 1.46967 1.67437 1.75818 1.88104 2.32393 2.46799 2.68785
 2.72569 2.82732 3.40558 4.08024 4.29368 4.32474 4.92222 6.45745 6.52505 6.69379
 7.08799 7.09206 7.11121 7.11325 7.19294 7.22384 7.24852 8.54220 8.72948 8.80270
 8.85567 8.96837 15.97013 57.42055
 == 474-th k-point (-0.51822,0.31093,0.51822) occupation: 6==
 -23.85931 -1.46394 -0.67774 -0.05407 0.01452 0.02371 0.46105 0.64249 0.74831 0.74993
 1.18493 1.29921 1.35363 1.41489 1.56687 1.80403 1.88717 2.38661 2.45395 2.66830
 2.72819 2.94273 3.39103 4.01821 4.07262 4.30451 4.90679 6.39454 6.55421 6.75176
 7.08850 7.09603 7.10022 7.12092 7.13558 7.13679 7.28497 8.60157 8.69120 8.80577
 8.86032 8.92861 15.93059 57.45713
 == 475-th k-point (-0.41458,0.41458,0.41458) occupation: 6==
 -23.85931 -1.46400 -0.67919 -0.05759 0.02823 0.02823 0.43651 0.66402 0.73910 0.73910
 1.31195 1.31195 1.33930 1.51681 1.51681 1.81844 1.82368 2.41356 2.41356 2.73416
 2.90435 3.00750 3.00750 3.95093 3.95093 4.21423 4.87163 6.58818 6.58818 6.83642
 7.08067 7.08067 7.08359 7.09340 7.10570 7.10570 7.29877 8.63182 8.63182 8.81556
 8.95812 8.95812 15.16680 57.44462
 == 476-th k-point (-0.31093,0.51822,0.31093) occupation: 6==
 -23.85931 -1.46394 -0.67774 -0.05407 0.01452 0.02371 0.46105 0.64249 0.74831 0.74993
 1.18493 1.29921 1.35363 1.41489 1.56687 1.80403 1.88717 2.38661 2.45395 2.66830
 2.72819 2.94273 3.39103 4.01821 4.07262 4.30451 4.90679 6.39454 6.55421 6.75176
 7.08850 7.09603 7.10022 7.12092 7.13558 7.13679 7.28497 8.60157 8.69120 8.80577
 8.86032 8.92861 15.93059 57.45713
 == 477-th k-point (-0.20729,0.62187,0.20729) occupation: 6==
 -23.85931 -1.46374 -0.67416 -0.05199 -0.00684 0.01323 0.51840 0.62673 0.73340 0.76673
 1.03809 1.32544 1.44467 1.46967 1.67437 1.75818 1.88104 2.32393 2.46799 2.68785
 2.72569 2.82732 3.40558 4.08024 4.29368 4.32474 4.92222 6.45745 6.52505 6.69379
 7.08799 7.09206 7.11121 7.11325 7.19294 7.22384 7.24852 8.54220 8.72948 8.80270
 8.85567 8.96837 15.97013 57.42055
 == 478-th k-point (-0.10364,0.72551,0.10364) occupation: 6==
 -23.85930 -1.46353 -0.67049 -0.06694 -0.00543 0.00330 0.56998 0.64504 0.70409 0.78322
 0.90475 1.33703 1.48336 1.63195 1.74184 1.85127 2.01014 2.24953 2.48264 2.59701
 2.62084 2.73219 3.37951 4.06626 4.43387 4.55120 4.86921 6.44433 6.52126 6.86520
 7.08397 7.08714 7.10591 7.17843 7.22746 7.24210 7.31942 8.48546 8.62069 8.67428
 8.80940 9.00337 15.93306 57.26276
 == 479-th k-point (0.00000,0.82916,0.00000) occupation: 6==
 -23.85929 -1.46344 -0.66893 -0.07598 -0.00066 -0.00066 0.58574 0.68377 0.78964 0.78964
 1.33482 1.52454 1.71337 1.71337 2.17589 2.19920 2.21725 2.21725 2.24660 2.24660
 2.37297 2.51339 3.36545 4.69094 4.70380 4.70778 4.70778 6.52305 6.52305 7.05336
 7.08358 7.08533 7.23714 7.24249 7.24249 7.40743 7.40743 8.43829 8.45516 8.46260
 8.46260 9.01165 15.88724 57.10955
 == 480-th k-point (-0.62187,-0.00000,0.82916) occupation: 6==
 -23.85932 -1.46342 -0.66946 -0.06621 -0.01311 0.00309 0.58683 0.62236 0.68448 0.77055
 0.92243 1.33615 1.40051 1.60096 1.75122 1.92072 2.10463 2.21725 2.46192 2.51827
 2.65040 2.74092 3.48448 4.04211 4.33090 4.47904 4.95088 6.46950 6.57958 6.78816
 7.08533 7.08555 7.09642 7.15719 7.23143 7.24200 7.32338 8.46260 8.61871 8.71388
 8.81913 9.04422 16.06647 57.50175
 == 481-th k-point (-0.51822,0.10364,0.72551) occupation: 6==
 -23.85932 -1.46350 -0.67123 -0.05164 -0.02403 0.00949 0.56077 0.60494 0.71263 0.75805
 1.04160 1.27391 1.38443 1.49943 1.76778 1.84198 2.09152 2.23526 2.47195 2.53788
 2.71511 2.74094 3.50710 4.10789 4.27708 4.39835 4.91846 6.48225 6.57818 6.71839
 7.08526 7.08788 7.09514 7.10710 7.21547 7.23782 7.29703 8.46678 8.69251 8.78347
 8.81786 9.04045 16.05254 57.51134
 == 482-th k-point (-0.41458,0.20729,0.62187) occupation: 6==
 -23.85931 -1.46371 -0.67468 -0.05047 -0.00921 0.01874 0.50148 0.62031 0.74466 0.75089
 1.18250 1.21175 1.41718 1.42899 1.79755 1.81055 1.90665 2.32577 2.45191 2.69696
 2.72252 2.72869 3.49120 4.05933 4.34709 4.39642 4.85490 6.47130 6.49114 6.79597
 7.08416 7.08599 7.09577 7.10474 7.15281 7.24068 7.25716 8.51774 8.77312 8.77842
 8.81375 8.96920 16.02718 57.44151
 == 483-th k-point (-0.31093,0.31093,0.51822) occupation: 6==
 -23.85931 -1.46394 -0.67774 -0.05407 0.01452 0.02371 0.46105 0.64249 0.74831 0.74993
 1.18493 1.29921 1.35363 1.41489 1.56687 1.80403 1.88717 2.38661 2.45395 2.66830
 2.72819 2.94273 3.39103 4.01821 4.07262 4.30451 4.90679 6.39454 6.55421 6.75176
 7.08850 7.09603 7.10022 7.12092 7.13558 7.13679 7.28497 8.60157 8.69120 8.80577
 8.86032 8.92861 15.93059 57.45713
 == 484-th k-point (-0.20729,0.41458,0.41458) occupation: 6==
 -23.85932 -1.46404 -0.67870 -0.04952 0.01155 0.02790 0.45915 0.64110 0.74987 0.75837
 1.19105 1.28428 1.36911 1.43820 1.60140 1.78545 1.92544 2.39547 2.41280 2.66002
 2.73927 2.96158 3.37779 3.92505 4.08843 4.30745 5.01551 6.35967 6.64665 6.82817
 7.08162 7.09606 7.10016 7.10822 7.10875 7.14378 7.27302 8.60955 8.68912 8.80295
 8.85385 8.92446 15.81904 57.59003
 == 485-th k-point (-0.10364,0.51822,0.31093) occupation: 6==
 -23.85932 -1.46397 -0.67704 -0.04264 -0.00490 0.02130 0.49317 0.62890 0.74711 0.76484
 1.09330 1.28424 1.42409 1.48610 1.73078 1.78014 1.95032 2.29973 2.43921 2.68690
 2.71938 2.73261 3.41750 4.10863 4.20654 4.43085 5.03649 6.37802 6.50722 6.87335
 7.08840 7.09144 7.10349 7.10783 7.15028 7.22675 7.23882 8.51631 8.74083 8.78471
 8.78974 8.95310 15.87924 57.63579
 == 486-th k-point (0.00000,0.62187,0.20729) occupation: 6==
 -23.85932 -1.46376 -0.67366 -0.05284 -0.00694 0.00968 0.53674 0.63502 0.71783 0.77445
 0.95866 1.32428 1.46603 1.56328 1.70232 1.83931 2.09902 2.22057 2.46371 2.53978
 2.68616 2.71965 3.43000 4.07295 4.27839 4.56915 4.99448 6.39782 6.49772 6.89830
 7.08514 7.08941 7.09405 7.15063 7.22180 7.22528 7.28141 8.46970 8.63311 8.71568
 8.79972 9.01173 15.96087 57.57197
 == 487-th k-point (0.10364,0.72551,0.10364) occupation: 6==
 -23.85930 -1.46353 -0.67049 -0.06694 -0.00543 0.00330 0.56998 0.64504 0.70409 0.78322
 0.90475 1.33703 1.48336 1.63195 1.74184 1.85127 2.01014 2.24953 2.48264 2.59701
 2.62084 2.73219 3.37951 4.06626 4.43387 4.55120 4.86921 6.44433 6.52126 6.86520
 7.08397 7.08714 7.10591 7.17843 7.22746 7.24210 7.31942 8.48546 8.62069 8.67428
 8.80940 9.00337 15.93306 57.26276
 == 488-th k-point (-0.51822,-0.10364,0.93280) occupation: 6==
 -23.85932 -1.46350 -0.67123 -0.05164 -0.02403 0.00949 0.56077 0.60494 0.71263 0.75805
 1.04160 1.27391 1.38443 1.49943 1.76778 1.84198 2.09152 2.23526 2.47195 2.53788
 2.71511 2.74094 3.50710 4.10789 4.27708 4.39835 4.91846 6.48225 6.57818 6.71839
 7.08526 7.08788 7.09514 7.10710 7.21547 7.23782 7.29703 8.46678 8.69251 8.78347
 8.81786 9.04045 16.05254 57.51134
 == 489-th k-point (-0.41458,-0.00000,0.82916) occupation: 6==
 -23.85932 -1.46340 -0.66999 -0.04104 -0.04104 0.00690 0.59483 0.59483 0.68573 0.75106
 1.13952 1.13952 1.38185 1.48262 1.79004 1.79004 2.18008 2.21725 2.47119 2.49951
 2.73791 2.73791 3.52197 4.18309 4.18309 4.27289 4.93971 6.57424 6.57424 6.65530
 7.08533 7.08869 7.09108 7.09108 7.23198 7.23198 7.30317 8.46260 8.68829 8.81660
 8.81660 9.05717 16.05297 57.56446
 == 490-th k-point (-0.31093,0.10364,0.72551) occupation: 6==
 -23.85932 -1.46350 -0.67123 -0.05164 -0.02403 0.00949 0.56077 0.60494 0.71263 0.75805
 1.04160 1.27391 1.38443 1.49943 1.76778 1.84198 2.09152 2.23526 2.47195 2.53788
 2.71511 2.74094 3.50710 4.10789 4.27708 4.39835 4.91846 6.48225 6.57818 6.71839
 7.08526 7.08788 7.09514 7.10710 7.21547 7.23782 7.29703 8.46678 8.69251 8.78347
 8.81786 9.04045 16.05254 57.51134
 == 491-th k-point (-0.20729,0.20729,0.62187) occupation: 6==
 -23.85931 -1.46374 -0.67416 -0.05199 -0.00684 0.01323 0.51840 0.62673 0.73340 0.76673
 1.03809 1.32544 1.44467 1.46967 1.67437 1.75818 1.88104 2.32393 2.46799 2.68785
 2.72569 2.82732 3.40558 4.08024 4.29368 4.32474 4.92222 6.45745 6.52505 6.69379
 7.08799 7.09206 7.11121 7.11325 7.19294 7.22384 7.24852 8.54220 8.72948 8.80270
 8.85567 8.96837 15.97013 57.42055
 == 492-th k-point (-0.10364,0.31093,0.51822) occupation: 6==
 -23.85932 -1.46397 -0.67704 -0.04264 -0.00490 0.02130 0.49317 0.62890 0.74711 0.76484
 1.09330 1.28424 1.42409 1.48610 1.73078 1.78014 1.95032 2.29973 2.43921 2.68690
 2.71938 2.73261 3.41750 4.10863 4.20654 4.43085 5.03649 6.37802 6.50722 6.87335
 7.08840 7.09144 7.10349 7.10783 7.15028 7.22675 7.23882 8.51631 8.74083 8.78471
 8.78974 8.95310 15.87924 57.63579
 == 493-th k-point (0.00000,0.41458,0.41458) occupation: 6==
 -23.85932 -1.46407 -0.67820 -0.03301 -0.01305 0.02756 0.48584 0.62167 0.76034 0.76264
 1.15343 1.25703 1.43467 1.49217 1.76526 1.90827 2.11366 2.20044 2.36953 2.67757
 2.74644 2.85432 3.41702 3.86901 4.37235 4.51191 5.09337 6.36238 6.83611 6.85297
 7.08358 7.08474 7.10340 7.10380 7.18918 7.20808 7.28804 8.45257 8.75857 8.77749
 8.85139 8.91129 15.78781 57.69811
 == 494-th k-point (0.10364,0.51822,0.31093) occupation: 6==
 -23.85932 -1.46397 -0.67704 -0.04264 -0.00490 0.02130 0.49317 0.62890 0.74711 0.76484
 1.09330 1.28424 1.42409 1.48610 1.73078 1.78014 1.95032 2.29973 2.43921 2.68690
 2.71938 2.73261 3.41750 4.10863 4.20654 4.43085 5.03649 6.37802 6.50722 6.87335
 7.08840 7.09144 7.10349 7.10783 7.15028 7.22675 7.23882 8.51631 8.74083 8.78471
 8.78974 8.95310 15.87924 57.63579
 == 495-th k-point (0.20729,0.62187,0.20729) occupation: 6==
 -23.85931 -1.46374 -0.67416 -0.05199 -0.00684 0.01323 0.51840 0.62673 0.73340 0.76673
 1.03809 1.32544 1.44467 1.46967 1.67437 1.75818 1.88104 2.32393 2.46799 2.68785
 2.72569 2.82732 3.40558 4.08024 4.29368 4.32474 4.92222 6.45745 6.52505 6.69379
 7.08799 7.09206 7.11121 7.11325 7.19294 7.22384 7.24852 8.54220 8.72948 8.80270
 8.85567 8.96837 15.97013 57.42055
 == 496-th k-point (-0.41458,-0.20729,1.03645) occupation: 6==
 -23.85931 -1.46371 -0.67468 -0.05047 -0.00921 0.01874 0.50148 0.62031 0.74466 0.75089
 1.18250 1.21175 1.41718 1.42899 1.79755 1.81055 1.90665 2.32577 2.45191 2.69696
 2.72252 2.72869 3.49120 4.05933 4.34709 4.39642 4.85490 6.47130 6.49114 6.79597
 7.08416 7.08599 7.09577 7.10474 7.15281 7.24068 7.25716 8.51774 8.77312 8.77842
 8.81375 8.96920 16.02718 57.44151
 == 497-th k-point (-0.31093,-0.10364,0.93280) occupation: 6==
 -23.85932 -1.46350 -0.67123 -0.05164 -0.02403 0.00949 0.56077 0.60494 0.71263 0.75805
 1.04160 1.27391 1.38443 1.49943 1.76778 1.84198 2.09152 2.23526 2.47195 2.53788
 2.71511 2.74094 3.50710 4.10789 4.27708 4.39835 4.91846 6.48225 6.57818 6.71839
 7.08526 7.08788 7.09514 7.10710 7.21547 7.23782 7.29703 8.46678 8.69251 8.78347
 8.81786 9.04045 16.05254 57.51134
 == 498-th k-point (-0.20729,-0.00000,0.82916) occupation: 6==
 -23.85932 -1.46342 -0.66946 -0.06621 -0.01311 0.00309 0.58683 0.62236 0.68448 0.77055
 0.92243 1.33615 1.40051 1.60096 1.75122 1.92072 2.10463 2.21725 2.46192 2.51827
 2.65040 2.74092 3.48448 4.04211 4.33090 4.47904 4.95088 6.46950 6.57958 6.78816
 7.08533 7.08555 7.09642 7.15719 7.23143 7.24200 7.32338 8.46260 8.61871 8.71388
 8.81913 9.04422 16.06647 57.50175
 == 499-th k-point (-0.10364,0.10364,0.72551) occupation: 6==
 -23.85930 -1.46353 -0.67049 -0.06694 -0.00543 0.00330 0.56998 0.64504 0.70409 0.78322
 0.90475 1.33703 1.48336 1.63195 1.74184 1.85127 2.01014 2.24953 2.48264 2.59701
 2.62084 2.73219 3.37951 4.06626 4.43387 4.55120 4.86921 6.44433 6.52126 6.86520
 7.08397 7.08714 7.10591 7.17843 7.22746 7.24210 7.31942 8.48546 8.62069 8.67428
 8.80940 9.00337 15.93306 57.26276
 == 500-th k-point (0.00000,0.20729,0.62187) occupation: 6==
 -23.85932 -1.46376 -0.67366 -0.05284 -0.00694 0.00968 0.53674 0.63502 0.71783 0.77445
 0.95866 1.32428 1.46603 1.56328 1.70232 1.83931 2.09902 2.22057 2.46371 2.53978
 2.68616 2.71965 3.43000 4.07295 4.27839 4.56915 4.99448 6.39782 6.49772 6.89830
 7.08514 7.08941 7.09405 7.15063 7.22180 7.22528 7.28141 8.46970 8.63311 8.71568
 8.79972 9.01173 15.96087 57.57197
 == 501-th k-point (0.10364,0.31093,0.51822) occupation: 6==
 -23.85932 -1.46397 -0.67704 -0.04264 -0.00490 0.02130 0.49317 0.62890 0.74711 0.76484
 1.09330 1.28424 1.42409 1.48610 1.73078 1.78014 1.95032 2.29973 2.43921 2.68690
 2.71938 2.73261 3.41750 4.10863 4.20654 4.43085 5.03649 6.37802 6.50722 6.87335
 7.08840 7.09144 7.10349 7.10783 7.15028 7.22675 7.23882 8.51631 8.74083 8.78471
 8.78974 8.95310 15.87924 57.63579
 == 502-th k-point (0.20729,0.41458,0.41458) occupation: 6==
 -23.85932 -1.46404 -0.67870 -0.04952 0.01155 0.02790 0.45915 0.64110 0.74987 0.75837
 1.19105 1.28428 1.36911 1.43820 1.60140 1.78545 1.92544 2.39547 2.41280 2.66002
 2.73927 2.96158 3.37779 3.92505 4.08843 4.30745 5.01551 6.35967 6.64665 6.82817
 7.08162 7.09606 7.10016 7.10822 7.10875 7.14378 7.27302 8.60955 8.68912 8.80295
 8.85385 8.92446 15.81904 57.59003
 == 503-th k-point (0.31093,0.51822,0.31093) occupation: 6==
 -23.85931 -1.46394 -0.67774 -0.05407 0.01452 0.02371 0.46105 0.64249 0.74831 0.74993
 1.18493 1.29921 1.35363 1.41489 1.56687 1.80403 1.88717 2.38661 2.45395 2.66830
 2.72819 2.94273 3.39103 4.01821 4.07262 4.30451 4.90679 6.39454 6.55421 6.75176
 7.08850 7.09603 7.10022 7.12092 7.13558 7.13679 7.28497 8.60157 8.69120 8.80577
 8.86032 8.92861 15.93059 57.45713
 == 504-th k-point (-0.31093,-0.31093,1.14009) occupation: 6==
 -23.85931 -1.46394 -0.67774 -0.05407 0.01452 0.02371 0.46105 0.64249 0.74831 0.74993
 1.18493 1.29921 1.35363 1.41489 1.56687 1.80403 1.88717 2.38661 2.45395 2.66830
 2.72819 2.94273 3.39103 4.01821 4.07262 4.30451 4.90679 6.39454 6.55421 6.75176
 7.08850 7.09603 7.10022 7.12092 7.13558 7.13679 7.28497 8.60157 8.69120 8.80577
 8.86032 8.92861 15.93059 57.45713
 == 505-th k-point (-0.20729,-0.20729,1.03645) occupation: 6==
 -23.85931 -1.46374 -0.67416 -0.05199 -0.00684 0.01323 0.51840 0.62673 0.73340 0.76673
 1.03809 1.32544 1.44467 1.46967 1.67437 1.75818 1.88104 2.32393 2.46799 2.68785
 2.72569 2.82732 3.40558 4.08024 4.29368 4.32474 4.92222 6.45745 6.52505 6.69379
 7.08799 7.09206 7.11121 7.11325 7.19294 7.22384 7.24852 8.54220 8.72948 8.80270
 8.85567 8.96837 15.97013 57.42055
 == 506-th k-point (-0.10364,-0.10364,0.93280) occupation: 6==
 -23.85930 -1.46353 -0.67049 -0.06694 -0.00543 0.00330 0.56998 0.64504 0.70409 0.78322
 0.90475 1.33703 1.48336 1.63195 1.74184 1.85127 2.01014 2.24953 2.48264 2.59701
 2.62084 2.73219 3.37951 4.06626 4.43387 4.55120 4.86921 6.44433 6.52126 6.86520
 7.08397 7.08714 7.10591 7.17843 7.22746 7.24210 7.31942 8.48546 8.62069 8.67428
 8.80940 9.00337 15.93306 57.26276
 == 507-th k-point (0.00000,-0.00000,0.82916) occupation: 6==
 -23.85929 -1.46344 -0.66893 -0.07598 -0.00066 -0.00066 0.58574 0.68377 0.78964 0.78964
 1.33482 1.52454 1.71337 1.71337 2.17589 2.19920 2.21725 2.21725 2.24660 2.24661
 2.37297 2.51339 3.36545 4.69094 4.70380 4.70778 4.70778 6.52305 6.52305 7.05336
 7.08358 7.08533 7.23714 7.24249 7.24249 7.40743 7.40743 8.43829 8.45516 8.46260
 8.46260 9.01165 15.88724 57.10955
 == 508-th k-point (0.10364,0.10364,0.72551) occupation: 6==
 -23.85930 -1.46353 -0.67049 -0.06694 -0.00543 0.00330 0.56998 0.64504 0.70409 0.78322
 0.90475 1.33703 1.48336 1.63195 1.74184 1.85127 2.01014 2.24953 2.48264 2.59701
 2.62084 2.73219 3.37951 4.06626 4.43387 4.55120 4.86921 6.44433 6.52126 6.86520
 7.08397 7.08714 7.10591 7.17843 7.22746 7.24210 7.31942 8.48546 8.62069 8.67428
 8.80940 9.00337 15.93306 57.26276
 == 509-th k-point (0.20729,0.20729,0.62187) occupation: 6==
 -23.85931 -1.46374 -0.67416 -0.05199 -0.00684 0.01323 0.51840 0.62673 0.73340 0.76673
 1.03809 1.32544 1.44467 1.46967 1.67437 1.75818 1.88104 2.32393 2.46799 2.68785
 2.72569 2.82732 3.40558 4.08024 4.29368 4.32474 4.92222 6.45745 6.52505 6.69379
 7.08799 7.09206 7.11121 7.11325 7.19294 7.22384 7.24852 8.54220 8.72948 8.80270
 8.85567 8.96837 15.97013 57.42055
 == 510-th k-point (0.31093,0.31093,0.51822) occupation: 6==
 -23.85931 -1.46394 -0.67774 -0.05407 0.01452 0.02371 0.46105 0.64249 0.74831 0.74993
 1.18493 1.29921 1.35363 1.41489 1.56687 1.80403 1.88717 2.38661 2.45395 2.66830
 2.72819 2.94273 3.39103 4.01821 4.07262 4.30451 4.90679 6.39454 6.55421 6.75176
 7.08850 7.09603 7.10022 7.12092 7.13558 7.13679 7.28497 8.60157 8.69120 8.80577
 8.86032 8.92861 15.93059 57.45713
 == 511-th k-point (0.41458,0.41458,0.41458) occupation: 6==
 -23.85931 -1.46400 -0.67919 -0.05759 0.02823 0.02823 0.43651 0.66402 0.73910 0.73910
 1.31195 1.31195 1.33930 1.51681 1.51681 1.81844 1.82368 2.41356 2.41356 2.73416
 2.90435 3.00750 3.00750 3.95093 3.95093 4.21423 4.87163 6.58818 6.58818 6.83642
 7.08067 7.08067 7.08359 7.09340 7.10570 7.10570 7.29877 8.63182 8.63182 8.81556
 8.95812 8.95812 15.16680 57.44462
 ---------------------------------------------------------------------------
 VBM is at 219-th k-point with 0.99962 eV
 CBM is at 219-th k-point with 10.16313 eV
 Band gap is 9.16352 eV


           Ground-State Mulliken Net Atomic Charges

      Atom                 Charge (a.u.)          Spin (a.u.)
   --------------------------------------------------------
      1 Li               (0.815843,-0.000000)    (0.000000,0.000000)
      2  F               (-0.815843,0.000000)    (0.000000,0.000000)
   --------------------------------------------------------
  Sum of atomic charges =      (0.000000,-0.000000)
  Sum of spin   charges =       (0.000000,0.000000)



 Total job time:  182.35 s.
 Tue Sep  9 02:02:41 2025


        *************************************************************
        *                                                           *
        *  Thank you very much for using QCPBC. Have a nice day.    *
        *                                                           *
        *************************************************************

Running job 1 of 1
