                  Welcome to Q-Chem
           with Periodic Boundary Condition
     A Quantum Leap Into The Future Of Chemistry

 Adam Rettig, Xintian Feng, Meng-Fu Chen, Hieu Dinh, Stephen Quiton,
 Anton Ni, Paul J. Robinson, Jinghong Zhang, Joonho Lee

Contributors to earlier versions of Q-Chem not listed above:
 Evgeny Epifanovsky, Leo Cunha, Jerome F. Gonthier, Kuan-Yu Liu
 Input file: /n/netscratch/joonholee_lab/Lab/hieudinh//lif_solve_def2tzvp_omega_0.9_999.scratch20250909030854/lif_solve_def2tzvp_omega_0.9_999.0
 Scratch folder: /n/netscratch/joonholee_lab/Lab/hieudinh//lif_solve_def2tzvp_omega_0.9_999.scratch20250909030854
 Auxillary files located at: /n/holylabs/LABS/joonholee_lab/Lab/qchem_base/qcaux
 Q-Chem begins on Tue Sep  9 03:08:55 2025

 -------------------------------------------------------------
 User input:
 -------------------------------------------------------------
 $lattice
 3
 0.000000 2.005000 2.005000
 2.005000 0.000000 2.005000
 2.005000 2.005000 0.000000
 $end
 
 $unitcell
 ABSOLUTE
 0 1
 Li 0.000000 0.000000 0.000000
 F  2.005000 0.000000 0.000000
 $end
 
 $rem
 jobtype = sp
 method = pbe
 scf_convergence = 5
 scf_guess = autosad
 scf_algorithm = gdm
 basis = def2-tzvp
 aux_basis = gen
 input_bohr = false
 symmetry false
 is_basis_uctr true
 rsdf_print_level 1
 
 mp_mesh = [9,9,9]
 
 integral_direct true
 bvk_cgto true
 
 thresh 14
 mem_total 100000
 threads 32
 
 MAX_SCF_CYCLES 400
 madelung = false
 omega 0.9
 do_rij_bigmem true
 automate_g true
 print_level 10
 grid_type_xc 1
 
 thresh_1e2c_sp 1e-14
 thresh_2e3c_bra_ket_sep 1e-10
 thresh_g 1e-12
 $end
 
 $aux_basis
 Li     0
 S   7   1.00
     498.3689730              0.0207908
     162.9342738              0.0542177
      57.3246735              0.1776783
      21.6427314              0.4181150
       8.7345375              0.6535245
       3.7491039              0.5492618
       1.7006754              0.1701425
 S   1   1.00
       0.8090859             -0.0097548
 S   1   1.00
       0.4000933             -0.0050152
 S   1   1.00
       0.2035793              0.0232200
 !S   1   1.00
 !      0.1054201              0.0134535
 !S   1   1.00
 !      0.0549139              0.0006647
 P   2   1.00
      10.7024696              0.0072923
       3.6551543              0.0060940
 P   1   1.00
       1.2464013              0.0172529
 P   1   1.00
       0.4246282             -0.0160026
 P   1   1.00
       0.1446192             -0.0195111
 D   2   1.00
       1.1510647             -0.0014314
       0.6019112              0.0038969
 D   1   1.00
       0.3109573              0.0024683
 D   1   1.00
       0.1600032              0.0036451
 F   2   1.00
       0.5967918              0.0010494
       0.1790687              0.0006468
 G   1   1.00
       1.0460130             -0.0001971
 ****
 F     0
 S   7   1.00
    3514.9201549              0.1805835
    1231.2458815              0.3676084
     454.1367336              1.2707881
     175.8376258              2.8274164
      71.2081775              4.3588226
      30.0316883              2.7180994
      13.1259023             -0.0804726
 S   1   1.00
       5.9126861             -0.0023370
 S   1   1.00
       2.7284431              1.1236274
 S   1   1.00
       1.2813993              0.9999042
 S   1   1.00
       0.6082793              0.3119579
 S   1   1.00
       0.2897894              0.0312295
 P   2   1.00
      49.3740409             -0.0346332
      13.4874956             -0.0096069
 P   1   1.00
       3.9664900              0.0762067
 P   1   1.00
       1.2226629             -0.0103329
 P   1   1.00
       0.3830317              0.0018853
 D   2   1.00
      29.9719140             -0.0113316
       6.7860915             -0.0467639
 D   1   1.00
       1.8137313             -0.0167604
 D   1   1.00
       0.5157840             -0.0050777
 F   2   1.00
       2.8301877              1.0
       0.9155962              1.0
 G   1   1.00
       1.6097500             -0.0005411
 ****
 $end
 -------------------------------------------------------------
 Running PBC job

 Requested Exchange Correlation Functionals: 
  DFT Exchange:  1.00000 pbe_x
  DFT Correlation:  1.00000 pbe_c
 using 32 threads for computing.
 ---------------------------------------------------------------
      Coordinates of Atoms in Central Unit Cell (Angstroms)
    I     Atom         X            Y            Z
 ---------------------------------------------------------------
    1      Li      0.000000     0.000000     0.000000
    2       F      2.005000     0.000000     0.000000
 ---------------------------------------------------------------
 --------------------------------------------------
              Lattice Vectors (Angstroms)
              X            Y            Z
 --------------------------------------------------
   X       0.000000     2.005000     2.005000
   Y       2.005000     0.000000     2.005000
   Z       2.005000     2.005000     0.000000
 --------------------------------------------------
 --------------------------------------------------
       Reciprocal Lattice Vectors (Angstroms^-1)
              X            Y            Z
 --------------------------------------------------
   X      -1.566879     1.566879     1.566879
   Y       1.566879    -1.566879     1.566879
   Z       1.566879     1.566879    -1.566879
 --------------------------------------------------

 Single point calculation requested

 Hamiltonian contributions:
 List of terms in Hamiltonian: kpts_nn, kpts_kinetic, kpts_vnuc_df, kpts_xc, kpts_rij_bigmem

 K-Points calculation started.

 Basis set information about using solid harmonic (1) or Cartesian (0):
  li : 
  f : D(1) D(1) F(1) 

 Basis set information about using solid harmonic (1) or Cartesian (0):
  li : D(1) D(1) D(1) F(1) G(1) 
  f : D(1) D(1) D(1) F(1) G(1) 

 There are 45 basis functions in the central unit cell.
 Print atomic basis of atoms in the central unit cell:
 -------------------------------------------------------------
2 34 34 19

  0.00000000000000e+00  0.00000000000000e+00  0.00000000000000e+00
  3.78890087987467e+00  0.00000000000000e+00  0.00000000000000e+00

  6.26926280100000e+03
  9.40316124310000e+02
  2.14221075280000e+02
  6.07598401840000e+01
  1.99151520320000e+01
  7.31715097970000e+00
  2.97246742160000e+00
  1.26398523140000e+00
  5.14274899530000e-01
  7.70308859010000e-02
  2.89388964330000e-02
  3.32700000000000e+00
  4.00000000000000e-01
  6.00000000000000e-02
  3.54791004410000e+04
  5.31847289830000e+03
  1.21048109750000e+03
  3.42855181400000e+02
  1.12019431810000e+02
  4.07147402480000e+01
  1.60396781110000e+01
  6.50381867400000e+00
  1.54404775090000e+00
  6.12234528620000e-01
  2.40279796980000e-01
  8.02339004830000e+01
  1.85940107430000e+01
  5.68679026530000e+00
  1.95110062940000e+00
  6.69702112980000e-01
  2.16513004100000e-01
  3.10700000000000e+00
  8.55000000000000e-01
  1.91700000000000e+00

  2.60146728801502e-01
  4.85835841940497e-01
  8.34119322504559e-01
  1.32445742735490e+00
  1.88157694810314e+00
  2.19520050299083e+00
  7.26218105813079e-01
  4.94491916459429e-01
  4.32819270028068e-01
  1.04209847805929e-01
  5.00059366529026e-02
  6.40480761295544e+00
  4.53435039044381e-01
  4.23281366783111e-02
  1.03516566506933e+00
  1.93311703276555e+00
  3.30816792488426e+00
  5.19043602286014e+00
  7.14537150961128e+00
  7.78535976400937e+00
  3.61564648527820e+00
  1.16499925171188e+00
  9.87201115801914e-01
  4.93285621447351e-01
  2.44595258796206e-01
  4.21740775922586e+00
  4.71742640820820e+00
  4.08491013761290e+00
  2.29989742214987e+00
  8.63559317399815e-01
  2.10520828359705e-01
  1.19675885449078e+01
  1.25126747832287e+00
  6.36581779142017e+00

0 0 0 0 1 1 1
0 0 
6 0

0 1 1 6 1 1 1
6 0 
2 0

0 2 2 8 1 1 1
8 0 
1 0

0 3 3 9 1 1 1
9 0 
1 0

0 4 4 10 1 1 1
10 0 
1 0

0 5 5 11 1 3 3
11 1 
1 0

0 8 8 12 1 3 3
12 1 
1 0

0 11 11 13 1 3 3
13 1 
1 0

1 14 14 14 1 1 1
14 0 
6 0

1 15 15 20 1 1 1
20 0 
2 0

1 16 16 22 1 1 1
22 0 
1 0

1 17 17 23 1 1 1
23 0 
1 0

1 18 18 24 1 1 1
24 0 
1 0

1 19 19 25 1 3 3
25 1 
4 0

1 22 22 29 1 3 3
29 1 
1 0

1 25 25 30 1 3 3
30 1 
1 0

1 28 28 31 1 5 6
31 2 
1 1

1 33 33 32 1 5 6
32 2 
1 1

1 38 38 33 1 7 10
33 3 
1 1

 -------------------------------------------------------------
 Allocate 134496 B from available memory: 104857600000 B
 There are 6859 image cells after screening.
 There are 10216 image cells for CGTO evaluation after screening.
 Real-Space grid for FFT initialized based on kinetic energy cutoff (eV) = 500.0
 Real-Space grid for FFT: (8,8,8)
 There are 4913 real-space grid points.
 There are 27 batches of real-space grid points. 
 Size of each grid batch is around 128
 Grid for AFT initialized based on kinetic energy cutoff (eV) = 500.0
 Real-Space grid for AFT: (8,8,8)
 There are 4913 real-space grid points.

 There are 5740 atom-centered grid points.

 Spacegroup symmetry group: Fm-3m
 Reducing spacegroup symmetry to symmorphic group: F m -3 m
 Monkhorst-Pack mesh is [9,9,9]
 There are 729 k points.
kpoints in Bohr
-0.3685141010 -0.3685141010 -0.3685141010
-0.2763855758 -0.2763855758 -0.4606426263
-0.1842570505 -0.1842570505 -0.5527711515
-0.0921285253 -0.0921285253 -0.6448996768
-0.0000000000 0.0000000000 -0.7370282020
0.0921285253 0.0921285253 -0.8291567273
0.1842570505 0.1842570505 -0.9212852525
0.2763855758 0.2763855758 -1.0134137778
0.3685141010 0.3685141010 -1.1055423031
-0.2763855758 -0.4606426263 -0.2763855758
-0.1842570505 -0.3685141010 -0.3685141010
-0.0921285253 -0.2763855758 -0.4606426263
-0.0000000000 -0.1842570505 -0.5527711515
0.0921285253 -0.0921285253 -0.6448996768
0.1842570505 0.0000000000 -0.7370282020
0.2763855758 0.0921285253 -0.8291567273
0.3685141010 0.1842570505 -0.9212852525
0.4606426263 0.2763855758 -1.0134137778
-0.1842570505 -0.5527711515 -0.1842570505
-0.0921285253 -0.4606426263 -0.2763855758
-0.0000000000 -0.3685141010 -0.3685141010
0.0921285253 -0.2763855758 -0.4606426263
0.1842570505 -0.1842570505 -0.5527711515
0.2763855758 -0.0921285253 -0.6448996768
0.3685141010 0.0000000000 -0.7370282020
0.4606426263 0.0921285253 -0.8291567273
0.5527711515 0.1842570505 -0.9212852525
-0.0921285253 -0.6448996768 -0.0921285253
-0.0000000000 -0.5527711515 -0.1842570505
0.0921285253 -0.4606426263 -0.2763855758
0.1842570505 -0.3685141010 -0.3685141010
0.2763855758 -0.2763855758 -0.4606426263
0.3685141010 -0.1842570505 -0.5527711515
0.4606426263 -0.0921285253 -0.6448996768
0.5527711515 0.0000000000 -0.7370282020
0.6448996768 0.0921285253 -0.8291567273
0.0000000000 -0.7370282020 -0.0000000000
0.0921285253 -0.6448996768 -0.0921285253
0.1842570505 -0.5527711515 -0.1842570505
0.2763855758 -0.4606426263 -0.2763855758
0.3685141010 -0.3685141010 -0.3685141010
0.4606426263 -0.2763855758 -0.4606426263
0.5527711515 -0.1842570505 -0.5527711515
0.6448996768 -0.0921285253 -0.6448996768
0.7370282020 0.0000000000 -0.7370282020
0.0921285253 -0.8291567273 0.0921285253
0.1842570505 -0.7370282020 -0.0000000000
0.2763855758 -0.6448996768 -0.0921285253
0.3685141010 -0.5527711515 -0.1842570505
0.4606426263 -0.4606426263 -0.2763855758
0.5527711515 -0.3685141010 -0.3685141010
0.6448996768 -0.2763855758 -0.4606426263
0.7370282020 -0.1842570505 -0.5527711515
0.8291567273 -0.0921285253 -0.6448996768
0.1842570505 -0.9212852525 0.1842570505
0.2763855758 -0.8291567273 0.0921285253
0.3685141010 -0.7370282020 -0.0000000000
0.4606426263 -0.6448996768 -0.0921285253
0.5527711515 -0.5527711515 -0.1842570505
0.6448996768 -0.4606426263 -0.2763855758
0.7370282020 -0.3685141010 -0.3685141010
0.8291567273 -0.2763855758 -0.4606426263
0.9212852525 -0.1842570505 -0.5527711515
0.2763855758 -1.0134137778 0.2763855758
0.3685141010 -0.9212852525 0.1842570505
0.4606426263 -0.8291567273 0.0921285253
0.5527711515 -0.7370282020 -0.0000000000
0.6448996768 -0.6448996768 -0.0921285253
0.7370282020 -0.5527711515 -0.1842570505
0.8291567273 -0.4606426263 -0.2763855758
0.9212852525 -0.3685141010 -0.3685141010
1.0134137778 -0.2763855758 -0.4606426263
0.3685141010 -1.1055423031 0.3685141010
0.4606426263 -1.0134137778 0.2763855758
0.5527711515 -0.9212852525 0.1842570505
0.6448996768 -0.8291567273 0.0921285253
0.7370282020 -0.7370282020 -0.0000000000
0.8291567273 -0.6448996768 -0.0921285253
0.9212852525 -0.5527711515 -0.1842570505
1.0134137778 -0.4606426263 -0.2763855758
1.1055423031 -0.3685141010 -0.3685141010
-0.4606426263 -0.2763855758 -0.2763855758
-0.3685141010 -0.1842570505 -0.3685141010
-0.2763855758 -0.0921285253 -0.4606426263
-0.1842570505 0.0000000000 -0.5527711515
-0.0921285253 0.0921285253 -0.6448996768
-0.0000000000 0.1842570505 -0.7370282020
0.0921285253 0.2763855758 -0.8291567273
0.1842570505 0.3685141010 -0.9212852525
0.2763855758 0.4606426263 -1.0134137778
-0.3685141010 -0.3685141010 -0.1842570505
-0.2763855758 -0.2763855758 -0.2763855758
-0.1842570505 -0.1842570505 -0.3685141010
-0.0921285253 -0.0921285253 -0.4606426263
-0.0000000000 0.0000000000 -0.5527711515
0.0921285253 0.0921285253 -0.6448996768
0.1842570505 0.1842570505 -0.7370282020
0.2763855758 0.2763855758 -0.8291567273
0.3685141010 0.3685141010 -0.9212852525
-0.2763855758 -0.4606426263 -0.0921285253
-0.1842570505 -0.3685141010 -0.1842570505
-0.0921285253 -0.2763855758 -0.2763855758
-0.0000000000 -0.1842570505 -0.3685141010
0.0921285253 -0.0921285253 -0.4606426263
0.1842570505 0.0000000000 -0.5527711515
0.2763855758 0.0921285253 -0.6448996768
0.3685141010 0.1842570505 -0.7370282020
0.4606426263 0.2763855758 -0.8291567273
-0.1842570505 -0.5527711515 -0.0000000000
-0.0921285253 -0.4606426263 -0.0921285253
-0.0000000000 -0.3685141010 -0.1842570505
0.0921285253 -0.2763855758 -0.2763855758
0.1842570505 -0.1842570505 -0.3685141010
0.2763855758 -0.0921285253 -0.4606426263
0.3685141010 0.0000000000 -0.5527711515
0.4606426263 0.0921285253 -0.6448996768
0.5527711515 0.1842570505 -0.7370282020
-0.0921285253 -0.6448996768 0.0921285253
-0.0000000000 -0.5527711515 -0.0000000000
0.0921285253 -0.4606426263 -0.0921285253
0.1842570505 -0.3685141010 -0.1842570505
0.2763855758 -0.2763855758 -0.2763855758
0.3685141010 -0.1842570505 -0.3685141010
0.4606426263 -0.0921285253 -0.4606426263
0.5527711515 0.0000000000 -0.5527711515
0.6448996768 0.0921285253 -0.6448996768
0.0000000000 -0.7370282020 0.1842570505
0.0921285253 -0.6448996768 0.0921285253
0.1842570505 -0.5527711515 -0.0000000000
0.2763855758 -0.4606426263 -0.0921285253
0.3685141010 -0.3685141010 -0.1842570505
0.4606426263 -0.2763855758 -0.2763855758
0.5527711515 -0.1842570505 -0.3685141010
0.6448996768 -0.0921285253 -0.4606426263
0.7370282020 0.0000000000 -0.5527711515
0.0921285253 -0.8291567273 0.2763855758
0.1842570505 -0.7370282020 0.1842570505
0.2763855758 -0.6448996768 0.0921285253
0.3685141010 -0.5527711515 -0.0000000000
0.4606426263 -0.4606426263 -0.0921285253
0.5527711515 -0.3685141010 -0.1842570505
0.6448996768 -0.2763855758 -0.2763855758
0.7370282020 -0.1842570505 -0.3685141010
0.8291567273 -0.0921285253 -0.4606426263
0.1842570505 -0.9212852525 0.3685141010
0.2763855758 -0.8291567273 0.2763855758
0.3685141010 -0.7370282020 0.1842570505
0.4606426263 -0.6448996768 0.0921285253
0.5527711515 -0.5527711515 -0.0000000000
0.6448996768 -0.4606426263 -0.0921285253
0.7370282020 -0.3685141010 -0.1842570505
0.8291567273 -0.2763855758 -0.2763855758
0.9212852525 -0.1842570505 -0.3685141010
0.2763855758 -1.0134137778 0.4606426263
0.3685141010 -0.9212852525 0.3685141010
0.4606426263 -0.8291567273 0.2763855758
0.5527711515 -0.7370282020 0.1842570505
0.6448996768 -0.6448996768 0.0921285253
0.7370282020 -0.5527711515 -0.0000000000
0.8291567273 -0.4606426263 -0.0921285253
0.9212852525 -0.3685141010 -0.1842570505
1.0134137778 -0.2763855758 -0.2763855758
-0.5527711515 -0.1842570505 -0.1842570505
-0.4606426263 -0.0921285253 -0.2763855758
-0.3685141010 0.0000000000 -0.3685141010
-0.2763855758 0.0921285253 -0.4606426263
-0.1842570505 0.1842570505 -0.5527711515
-0.0921285253 0.2763855758 -0.6448996768
-0.0000000000 0.3685141010 -0.7370282020
0.0921285253 0.4606426263 -0.8291567273
0.1842570505 0.5527711515 -0.9212852525
-0.4606426263 -0.2763855758 -0.0921285253
-0.3685141010 -0.1842570505 -0.1842570505
-0.2763855758 -0.0921285253 -0.2763855758
-0.1842570505 0.0000000000 -0.3685141010
-0.0921285253 0.0921285253 -0.4606426263
-0.0000000000 0.1842570505 -0.5527711515
0.0921285253 0.2763855758 -0.6448996768
0.1842570505 0.3685141010 -0.7370282020
0.2763855758 0.4606426263 -0.8291567273
-0.3685141010 -0.3685141010 -0.0000000000
-0.2763855758 -0.2763855758 -0.0921285253
-0.1842570505 -0.1842570505 -0.1842570505
-0.0921285253 -0.0921285253 -0.2763855758
-0.0000000000 0.0000000000 -0.3685141010
0.0921285253 0.0921285253 -0.4606426263
0.1842570505 0.1842570505 -0.5527711515
0.2763855758 0.2763855758 -0.6448996768
0.3685141010 0.3685141010 -0.7370282020
-0.2763855758 -0.4606426263 0.0921285253
-0.1842570505 -0.3685141010 -0.0000000000
-0.0921285253 -0.2763855758 -0.0921285253
-0.0000000000 -0.1842570505 -0.1842570505
0.0921285253 -0.0921285253 -0.2763855758
0.1842570505 0.0000000000 -0.3685141010
0.2763855758 0.0921285253 -0.4606426263
0.3685141010 0.1842570505 -0.5527711515
0.4606426263 0.2763855758 -0.6448996768
-0.1842570505 -0.5527711515 0.1842570505
-0.0921285253 -0.4606426263 0.0921285253
0.0000000000 -0.3685141010 -0.0000000000
0.0921285253 -0.2763855758 -0.0921285253
0.1842570505 -0.1842570505 -0.1842570505
0.2763855758 -0.0921285253 -0.2763855758
0.3685141010 0.0000000000 -0.3685141010
0.4606426263 0.0921285253 -0.4606426263
0.5527711515 0.1842570505 -0.5527711515
-0.0921285253 -0.6448996768 0.2763855758
0.0000000000 -0.5527711515 0.1842570505
0.0921285253 -0.4606426263 0.0921285253
0.1842570505 -0.3685141010 -0.0000000000
0.2763855758 -0.2763855758 -0.0921285253
0.3685141010 -0.1842570505 -0.1842570505
0.4606426263 -0.0921285253 -0.2763855758
0.5527711515 0.0000000000 -0.3685141010
0.6448996768 0.0921285253 -0.4606426263
0.0000000000 -0.7370282020 0.3685141010
0.0921285253 -0.6448996768 0.2763855758
0.1842570505 -0.5527711515 0.1842570505
0.2763855758 -0.4606426263 0.0921285253
0.3685141010 -0.3685141010 -0.0000000000
0.4606426263 -0.2763855758 -0.0921285253
0.5527711515 -0.1842570505 -0.1842570505
0.6448996768 -0.0921285253 -0.2763855758
0.7370282020 0.0000000000 -0.3685141010
0.0921285253 -0.8291567273 0.4606426263
0.1842570505 -0.7370282020 0.3685141010
0.2763855758 -0.6448996768 0.2763855758
0.3685141010 -0.5527711515 0.1842570505
0.4606426263 -0.4606426263 0.0921285253
0.5527711515 -0.3685141010 -0.0000000000
0.6448996768 -0.2763855758 -0.0921285253
0.7370282020 -0.1842570505 -0.1842570505
0.8291567273 -0.0921285253 -0.2763855758
0.1842570505 -0.9212852525 0.5527711515
0.2763855758 -0.8291567273 0.4606426263
0.3685141010 -0.7370282020 0.3685141010
0.4606426263 -0.6448996768 0.2763855758
0.5527711515 -0.5527711515 0.1842570505
0.6448996768 -0.4606426263 0.0921285253
0.7370282020 -0.3685141010 -0.0000000000
0.8291567273 -0.2763855758 -0.0921285253
0.9212852525 -0.1842570505 -0.1842570505
-0.6448996768 -0.0921285253 -0.0921285253
-0.5527711515 0.0000000000 -0.1842570505
-0.4606426263 0.0921285253 -0.2763855758
-0.3685141010 0.1842570505 -0.3685141010
-0.2763855758 0.2763855758 -0.4606426263
-0.1842570505 0.3685141010 -0.5527711515
-0.0921285253 0.4606426263 -0.6448996768
-0.0000000000 0.5527711515 -0.7370282020
0.0921285253 0.6448996768 -0.8291567273
-0.5527711515 -0.1842570505 -0.0000000000
-0.4606426263 -0.0921285253 -0.0921285253
-0.3685141010 0.0000000000 -0.1842570505
-0.2763855758 0.0921285253 -0.2763855758
-0.1842570505 0.1842570505 -0.3685141010
-0.0921285253 0.2763855758 -0.4606426263
-0.0000000000 0.3685141010 -0.5527711515
0.0921285253 0.4606426263 -0.6448996768
0.1842570505 0.5527711515 -0.7370282020
-0.4606426263 -0.2763855758 0.0921285253
-0.3685141010 -0.1842570505 -0.0000000000
-0.2763855758 -0.0921285253 -0.0921285253
-0.1842570505 0.0000000000 -0.1842570505
-0.0921285253 0.0921285253 -0.2763855758
-0.0000000000 0.1842570505 -0.3685141010
0.0921285253 0.2763855758 -0.4606426263
0.1842570505 0.3685141010 -0.5527711515
0.2763855758 0.4606426263 -0.6448996768
-0.3685141010 -0.3685141010 0.1842570505
-0.2763855758 -0.2763855758 0.0921285253
-0.1842570505 -0.1842570505 -0.0000000000
-0.0921285253 -0.0921285253 -0.0921285253
-0.0000000000 0.0000000000 -0.1842570505
0.0921285253 0.0921285253 -0.2763855758
0.1842570505 0.1842570505 -0.3685141010
0.2763855758 0.2763855758 -0.4606426263
0.3685141010 0.3685141010 -0.5527711515
-0.2763855758 -0.4606426263 0.2763855758
-0.1842570505 -0.3685141010 0.1842570505
-0.0921285253 -0.2763855758 0.0921285253
0.0000000000 -0.1842570505 -0.0000000000
0.0921285253 -0.0921285253 -0.0921285253
0.1842570505 0.0000000000 -0.1842570505
0.2763855758 0.0921285253 -0.2763855758
0.3685141010 0.1842570505 -0.3685141010
0.4606426263 0.2763855758 -0.4606426263
-0.1842570505 -0.5527711515 0.3685141010
-0.0921285253 -0.4606426263 0.2763855758
0.0000000000 -0.3685141010 0.1842570505
0.0921285253 -0.2763855758 0.0921285253
0.1842570505 -0.1842570505 -0.0000000000
0.2763855758 -0.0921285253 -0.0921285253
0.3685141010 0.0000000000 -0.1842570505
0.4606426263 0.0921285253 -0.2763855758
0.5527711515 0.1842570505 -0.3685141010
-0.0921285253 -0.6448996768 0.4606426263
0.0000000000 -0.5527711515 0.3685141010
0.0921285253 -0.4606426263 0.2763855758
0.1842570505 -0.3685141010 0.1842570505
0.2763855758 -0.2763855758 0.0921285253
0.3685141010 -0.1842570505 -0.0000000000
0.4606426263 -0.0921285253 -0.0921285253
0.5527711515 0.0000000000 -0.1842570505
0.6448996768 0.0921285253 -0.2763855758
0.0000000000 -0.7370282020 0.5527711515
0.0921285253 -0.6448996768 0.4606426263
0.1842570505 -0.5527711515 0.3685141010
0.2763855758 -0.4606426263 0.2763855758
0.3685141010 -0.3685141010 0.1842570505
0.4606426263 -0.2763855758 0.0921285253
0.5527711515 -0.1842570505 -0.0000000000
0.6448996768 -0.0921285253 -0.0921285253
0.7370282020 0.0000000000 -0.1842570505
0.0921285253 -0.8291567273 0.6448996768
0.1842570505 -0.7370282020 0.5527711515
0.2763855758 -0.6448996768 0.4606426263
0.3685141010 -0.5527711515 0.3685141010
0.4606426263 -0.4606426263 0.2763855758
0.5527711515 -0.3685141010 0.1842570505
0.6448996768 -0.2763855758 0.0921285253
0.7370282020 -0.1842570505 -0.0000000000
0.8291567273 -0.0921285253 -0.0921285253
-0.7370282020 0.0000000000 0.0000000000
-0.6448996768 0.0921285253 -0.0921285253
-0.5527711515 0.1842570505 -0.1842570505
-0.4606426263 0.2763855758 -0.2763855758
-0.3685141010 0.3685141010 -0.3685141010
-0.2763855758 0.4606426263 -0.4606426263
-0.1842570505 0.5527711515 -0.5527711515
-0.0921285253 0.6448996768 -0.6448996768
-0.0000000000 0.7370282020 -0.7370282020
-0.6448996768 -0.0921285253 0.0921285253
-0.5527711515 0.0000000000 0.0000000000
-0.4606426263 0.0921285253 -0.0921285253
-0.3685141010 0.1842570505 -0.1842570505
-0.2763855758 0.2763855758 -0.2763855758
-0.1842570505 0.3685141010 -0.3685141010
-0.0921285253 0.4606426263 -0.4606426263
-0.0000000000 0.5527711515 -0.5527711515
0.0921285253 0.6448996768 -0.6448996768
-0.5527711515 -0.1842570505 0.1842570505
-0.4606426263 -0.0921285253 0.0921285253
-0.3685141010 0.0000000000 0.0000000000
-0.2763855758 0.0921285253 -0.0921285253
-0.1842570505 0.1842570505 -0.1842570505
-0.0921285253 0.2763855758 -0.2763855758
-0.0000000000 0.3685141010 -0.3685141010
0.0921285253 0.4606426263 -0.4606426263
0.1842570505 0.5527711515 -0.5527711515
-0.4606426263 -0.2763855758 0.2763855758
-0.3685141010 -0.1842570505 0.1842570505
-0.2763855758 -0.0921285253 0.0921285253
-0.1842570505 0.0000000000 0.0000000000
-0.0921285253 0.0921285253 -0.0921285253
-0.0000000000 0.1842570505 -0.1842570505
0.0921285253 0.2763855758 -0.2763855758
0.1842570505 0.3685141010 -0.3685141010
0.2763855758 0.4606426263 -0.4606426263
-0.3685141010 -0.3685141010 0.3685141010
-0.2763855758 -0.2763855758 0.2763855758
-0.1842570505 -0.1842570505 0.1842570505
-0.0921285253 -0.0921285253 0.0921285253
0.0000000000 0.0000000000 0.0000000000
0.0921285253 0.0921285253 -0.0921285253
0.1842570505 0.1842570505 -0.1842570505
0.2763855758 0.2763855758 -0.2763855758
0.3685141010 0.3685141010 -0.3685141010
-0.2763855758 -0.4606426263 0.4606426263
-0.1842570505 -0.3685141010 0.3685141010
-0.0921285253 -0.2763855758 0.2763855758
0.0000000000 -0.1842570505 0.1842570505
0.0921285253 -0.0921285253 0.0921285253
0.1842570505 -0.0000000000 0.0000000000
0.2763855758 0.0921285253 -0.0921285253
0.3685141010 0.1842570505 -0.1842570505
0.4606426263 0.2763855758 -0.2763855758
-0.1842570505 -0.5527711515 0.5527711515
-0.0921285253 -0.4606426263 0.4606426263
0.0000000000 -0.3685141010 0.3685141010
0.0921285253 -0.2763855758 0.2763855758
0.1842570505 -0.1842570505 0.1842570505
0.2763855758 -0.0921285253 0.0921285253
0.3685141010 -0.0000000000 0.0000000000
0.4606426263 0.0921285253 -0.0921285253
0.5527711515 0.1842570505 -0.1842570505
-0.0921285253 -0.6448996768 0.6448996768
0.0000000000 -0.5527711515 0.5527711515
0.0921285253 -0.4606426263 0.4606426263
0.1842570505 -0.3685141010 0.3685141010
0.2763855758 -0.2763855758 0.2763855758
0.3685141010 -0.1842570505 0.1842570505
0.4606426263 -0.0921285253 0.0921285253
0.5527711515 -0.0000000000 0.0000000000
0.6448996768 0.0921285253 -0.0921285253
0.0000000000 -0.7370282020 0.7370282020
0.0921285253 -0.6448996768 0.6448996768
0.1842570505 -0.5527711515 0.5527711515
0.2763855758 -0.4606426263 0.4606426263
0.3685141010 -0.3685141010 0.3685141010
0.4606426263 -0.2763855758 0.2763855758
0.5527711515 -0.1842570505 0.1842570505
0.6448996768 -0.0921285253 0.0921285253
0.7370282020 -0.0000000000 0.0000000000
-0.8291567273 0.0921285253 0.0921285253
-0.7370282020 0.1842570505 0.0000000000
-0.6448996768 0.2763855758 -0.0921285253
-0.5527711515 0.3685141010 -0.1842570505
-0.4606426263 0.4606426263 -0.2763855758
-0.3685141010 0.5527711515 -0.3685141010
-0.2763855758 0.6448996768 -0.4606426263
-0.1842570505 0.7370282020 -0.5527711515
-0.0921285253 0.8291567273 -0.6448996768
-0.7370282020 0.0000000000 0.1842570505
-0.6448996768 0.0921285253 0.0921285253
-0.5527711515 0.1842570505 0.0000000000
-0.4606426263 0.2763855758 -0.0921285253
-0.3685141010 0.3685141010 -0.1842570505
-0.2763855758 0.4606426263 -0.2763855758
-0.1842570505 0.5527711515 -0.3685141010
-0.0921285253 0.6448996768 -0.4606426263
-0.0000000000 0.7370282020 -0.5527711515
-0.6448996768 -0.0921285253 0.2763855758
-0.5527711515 0.0000000000 0.1842570505
-0.4606426263 0.0921285253 0.0921285253
-0.3685141010 0.1842570505 0.0000000000
-0.2763855758 0.2763855758 -0.0921285253
-0.1842570505 0.3685141010 -0.1842570505
-0.0921285253 0.4606426263 -0.2763855758
-0.0000000000 0.5527711515 -0.3685141010
0.0921285253 0.6448996768 -0.4606426263
-0.5527711515 -0.1842570505 0.3685141010
-0.4606426263 -0.0921285253 0.2763855758
-0.3685141010 -0.0000000000 0.1842570505
-0.2763855758 0.0921285253 0.0921285253
-0.1842570505 0.1842570505 0.0000000000
-0.0921285253 0.2763855758 -0.0921285253
-0.0000000000 0.3685141010 -0.1842570505
0.0921285253 0.4606426263 -0.2763855758
0.1842570505 0.5527711515 -0.3685141010
-0.4606426263 -0.2763855758 0.4606426263
-0.3685141010 -0.1842570505 0.3685141010
-0.2763855758 -0.0921285253 0.2763855758
-0.1842570505 -0.0000000000 0.1842570505
-0.0921285253 0.0921285253 0.0921285253
0.0000000000 0.1842570505 0.0000000000
0.0921285253 0.2763855758 -0.0921285253
0.1842570505 0.3685141010 -0.1842570505
0.2763855758 0.4606426263 -0.2763855758
-0.3685141010 -0.3685141010 0.5527711515
-0.2763855758 -0.2763855758 0.4606426263
-0.1842570505 -0.1842570505 0.3685141010
-0.0921285253 -0.0921285253 0.2763855758
0.0000000000 -0.0000000000 0.1842570505
0.0921285253 0.0921285253 0.0921285253
0.1842570505 0.1842570505 0.0000000000
0.2763855758 0.2763855758 -0.0921285253
0.3685141010 0.3685141010 -0.1842570505
-0.2763855758 -0.4606426263 0.6448996768
-0.1842570505 -0.3685141010 0.5527711515
-0.0921285253 -0.2763855758 0.4606426263
0.0000000000 -0.1842570505 0.3685141010
0.0921285253 -0.0921285253 0.2763855758
0.1842570505 -0.0000000000 0.1842570505
0.2763855758 0.0921285253 0.0921285253
0.3685141010 0.1842570505 0.0000000000
0.4606426263 0.2763855758 -0.0921285253
-0.1842570505 -0.5527711515 0.7370282020
-0.0921285253 -0.4606426263 0.6448996768
0.0000000000 -0.3685141010 0.5527711515
0.0921285253 -0.2763855758 0.4606426263
0.1842570505 -0.1842570505 0.3685141010
0.2763855758 -0.0921285253 0.2763855758
0.3685141010 -0.0000000000 0.1842570505
0.4606426263 0.0921285253 0.0921285253
0.5527711515 0.1842570505 0.0000000000
-0.0921285253 -0.6448996768 0.8291567273
0.0000000000 -0.5527711515 0.7370282020
0.0921285253 -0.4606426263 0.6448996768
0.1842570505 -0.3685141010 0.5527711515
0.2763855758 -0.2763855758 0.4606426263
0.3685141010 -0.1842570505 0.3685141010
0.4606426263 -0.0921285253 0.2763855758
0.5527711515 -0.0000000000 0.1842570505
0.6448996768 0.0921285253 0.0921285253
-0.9212852525 0.1842570505 0.1842570505
-0.8291567273 0.2763855758 0.0921285253
-0.7370282020 0.3685141010 0.0000000000
-0.6448996768 0.4606426263 -0.0921285253
-0.5527711515 0.5527711515 -0.1842570505
-0.4606426263 0.6448996768 -0.2763855758
-0.3685141010 0.7370282020 -0.3685141010
-0.2763855758 0.8291567273 -0.4606426263
-0.1842570505 0.9212852525 -0.5527711515
-0.8291567273 0.0921285253 0.2763855758
-0.7370282020 0.1842570505 0.1842570505
-0.6448996768 0.2763855758 0.0921285253
-0.5527711515 0.3685141010 0.0000000000
-0.4606426263 0.4606426263 -0.0921285253
-0.3685141010 0.5527711515 -0.1842570505
-0.2763855758 0.6448996768 -0.2763855758
-0.1842570505 0.7370282020 -0.3685141010
-0.0921285253 0.8291567273 -0.4606426263
-0.7370282020 -0.0000000000 0.3685141010
-0.6448996768 0.0921285253 0.2763855758
-0.5527711515 0.1842570505 0.1842570505
-0.4606426263 0.2763855758 0.0921285253
-0.3685141010 0.3685141010 0.0000000000
-0.2763855758 0.4606426263 -0.0921285253
-0.1842570505 0.5527711515 -0.1842570505
-0.0921285253 0.6448996768 -0.2763855758
-0.0000000000 0.7370282020 -0.3685141010
-0.6448996768 -0.0921285253 0.4606426263
-0.5527711515 0.0000000000 0.3685141010
-0.4606426263 0.0921285253 0.2763855758
-0.3685141010 0.1842570505 0.1842570505
-0.2763855758 0.2763855758 0.0921285253
-0.1842570505 0.3685141010 0.0000000000
-0.0921285253 0.4606426263 -0.0921285253
-0.0000000000 0.5527711515 -0.1842570505
0.0921285253 0.6448996768 -0.2763855758
-0.5527711515 -0.1842570505 0.5527711515
-0.4606426263 -0.0921285253 0.4606426263
-0.3685141010 -0.0000000000 0.3685141010
-0.2763855758 0.0921285253 0.2763855758
-0.1842570505 0.1842570505 0.1842570505
-0.0921285253 0.2763855758 0.0921285253
0.0000000000 0.3685141010 0.0000000000
0.0921285253 0.4606426263 -0.0921285253
0.1842570505 0.5527711515 -0.1842570505
-0.4606426263 -0.2763855758 0.6448996768
-0.3685141010 -0.1842570505 0.5527711515
-0.2763855758 -0.0921285253 0.4606426263
-0.1842570505 -0.0000000000 0.3685141010
-0.0921285253 0.0921285253 0.2763855758
0.0000000000 0.1842570505 0.1842570505
0.0921285253 0.2763855758 0.0921285253
0.1842570505 0.3685141010 0.0000000000
0.2763855758 0.4606426263 -0.0921285253
-0.3685141010 -0.3685141010 0.7370282020
-0.2763855758 -0.2763855758 0.6448996768
-0.1842570505 -0.1842570505 0.5527711515
-0.0921285253 -0.0921285253 0.4606426263
0.0000000000 -0.0000000000 0.3685141010
0.0921285253 0.0921285253 0.2763855758
0.1842570505 0.1842570505 0.1842570505
0.2763855758 0.2763855758 0.0921285253
0.3685141010 0.3685141010 0.0000000000
-0.2763855758 -0.4606426263 0.8291567273
-0.1842570505 -0.3685141010 0.7370282020
-0.0921285253 -0.2763855758 0.6448996768
0.0000000000 -0.1842570505 0.5527711515
0.0921285253 -0.0921285253 0.4606426263
0.1842570505 -0.0000000000 0.3685141010
0.2763855758 0.0921285253 0.2763855758
0.3685141010 0.1842570505 0.1842570505
0.4606426263 0.2763855758 0.0921285253
-0.1842570505 -0.5527711515 0.9212852525
-0.0921285253 -0.4606426263 0.8291567273
0.0000000000 -0.3685141010 0.7370282020
0.0921285253 -0.2763855758 0.6448996768
0.1842570505 -0.1842570505 0.5527711515
0.2763855758 -0.0921285253 0.4606426263
0.3685141010 -0.0000000000 0.3685141010
0.4606426263 0.0921285253 0.2763855758
0.5527711515 0.1842570505 0.1842570505
-1.0134137778 0.2763855758 0.2763855758
-0.9212852525 0.3685141010 0.1842570505
-0.8291567273 0.4606426263 0.0921285253
-0.7370282020 0.5527711515 0.0000000000
-0.6448996768 0.6448996768 -0.0921285253
-0.5527711515 0.7370282020 -0.1842570505
-0.4606426263 0.8291567273 -0.2763855758
-0.3685141010 0.9212852525 -0.3685141010
-0.2763855758 1.0134137778 -0.4606426263
-0.9212852525 0.1842570505 0.3685141010
-0.8291567273 0.2763855758 0.2763855758
-0.7370282020 0.3685141010 0.1842570505
-0.6448996768 0.4606426263 0.0921285253
-0.5527711515 0.5527711515 0.0000000000
-0.4606426263 0.6448996768 -0.0921285253
-0.3685141010 0.7370282020 -0.1842570505
-0.2763855758 0.8291567273 -0.2763855758
-0.1842570505 0.9212852525 -0.3685141010
-0.8291567273 0.0921285253 0.4606426263
-0.7370282020 0.1842570505 0.3685141010
-0.6448996768 0.2763855758 0.2763855758
-0.5527711515 0.3685141010 0.1842570505
-0.4606426263 0.4606426263 0.0921285253
-0.3685141010 0.5527711515 0.0000000000
-0.2763855758 0.6448996768 -0.0921285253
-0.1842570505 0.7370282020 -0.1842570505
-0.0921285253 0.8291567273 -0.2763855758
-0.7370282020 -0.0000000000 0.5527711515
-0.6448996768 0.0921285253 0.4606426263
-0.5527711515 0.1842570505 0.3685141010
-0.4606426263 0.2763855758 0.2763855758
-0.3685141010 0.3685141010 0.1842570505
-0.2763855758 0.4606426263 0.0921285253
-0.1842570505 0.5527711515 0.0000000000
-0.0921285253 0.6448996768 -0.0921285253
0.0000000000 0.7370282020 -0.1842570505
-0.6448996768 -0.0921285253 0.6448996768
-0.5527711515 -0.0000000000 0.5527711515
-0.4606426263 0.0921285253 0.4606426263
-0.3685141010 0.1842570505 0.3685141010
-0.2763855758 0.2763855758 0.2763855758
-0.1842570505 0.3685141010 0.1842570505
-0.0921285253 0.4606426263 0.0921285253
0.0000000000 0.5527711515 0.0000000000
0.0921285253 0.6448996768 -0.0921285253
-0.5527711515 -0.1842570505 0.7370282020
-0.4606426263 -0.0921285253 0.6448996768
-0.3685141010 -0.0000000000 0.5527711515
-0.2763855758 0.0921285253 0.4606426263
-0.1842570505 0.1842570505 0.3685141010
-0.0921285253 0.2763855758 0.2763855758
0.0000000000 0.3685141010 0.1842570505
0.0921285253 0.4606426263 0.0921285253
0.1842570505 0.5527711515 0.0000000000
-0.4606426263 -0.2763855758 0.8291567273
-0.3685141010 -0.1842570505 0.7370282020
-0.2763855758 -0.0921285253 0.6448996768
-0.1842570505 -0.0000000000 0.5527711515
-0.0921285253 0.0921285253 0.4606426263
0.0000000000 0.1842570505 0.3685141010
0.0921285253 0.2763855758 0.2763855758
0.1842570505 0.3685141010 0.1842570505
0.2763855758 0.4606426263 0.0921285253
-0.3685141010 -0.3685141010 0.9212852525
-0.2763855758 -0.2763855758 0.8291567273
-0.1842570505 -0.1842570505 0.7370282020
-0.0921285253 -0.0921285253 0.6448996768
0.0000000000 -0.0000000000 0.5527711515
0.0921285253 0.0921285253 0.4606426263
0.1842570505 0.1842570505 0.3685141010
0.2763855758 0.2763855758 0.2763855758
0.3685141010 0.3685141010 0.1842570505
-0.2763855758 -0.4606426263 1.0134137778
-0.1842570505 -0.3685141010 0.9212852525
-0.0921285253 -0.2763855758 0.8291567273
0.0000000000 -0.1842570505 0.7370282020
0.0921285253 -0.0921285253 0.6448996768
0.1842570505 -0.0000000000 0.5527711515
0.2763855758 0.0921285253 0.4606426263
0.3685141010 0.1842570505 0.3685141010
0.4606426263 0.2763855758 0.2763855758
-1.1055423031 0.3685141010 0.3685141010
-1.0134137778 0.4606426263 0.2763855758
-0.9212852525 0.5527711515 0.1842570505
-0.8291567273 0.6448996768 0.0921285253
-0.7370282020 0.7370282020 0.0000000000
-0.6448996768 0.8291567273 -0.0921285253
-0.5527711515 0.9212852525 -0.1842570505
-0.4606426263 1.0134137778 -0.2763855758
-0.3685141010 1.1055423031 -0.3685141010
-1.0134137778 0.2763855758 0.4606426263
-0.9212852525 0.3685141010 0.3685141010
-0.8291567273 0.4606426263 0.2763855758
-0.7370282020 0.5527711515 0.1842570505
-0.6448996768 0.6448996768 0.0921285253
-0.5527711515 0.7370282020 0.0000000000
-0.4606426263 0.8291567273 -0.0921285253
-0.3685141010 0.9212852525 -0.1842570505
-0.2763855758 1.0134137778 -0.2763855758
-0.9212852525 0.1842570505 0.5527711515
-0.8291567273 0.2763855758 0.4606426263
-0.7370282020 0.3685141010 0.3685141010
-0.6448996768 0.4606426263 0.2763855758
-0.5527711515 0.5527711515 0.1842570505
-0.4606426263 0.6448996768 0.0921285253
-0.3685141010 0.7370282020 0.0000000000
-0.2763855758 0.8291567273 -0.0921285253
-0.1842570505 0.9212852525 -0.1842570505
-0.8291567273 0.0921285253 0.6448996768
-0.7370282020 0.1842570505 0.5527711515
-0.6448996768 0.2763855758 0.4606426263
-0.5527711515 0.3685141010 0.3685141010
-0.4606426263 0.4606426263 0.2763855758
-0.3685141010 0.5527711515 0.1842570505
-0.2763855758 0.6448996768 0.0921285253
-0.1842570505 0.7370282020 0.0000000000
-0.0921285253 0.8291567273 -0.0921285253
-0.7370282020 -0.0000000000 0.7370282020
-0.6448996768 0.0921285253 0.6448996768
-0.5527711515 0.1842570505 0.5527711515
-0.4606426263 0.2763855758 0.4606426263
-0.3685141010 0.3685141010 0.3685141010
-0.2763855758 0.4606426263 0.2763855758
-0.1842570505 0.5527711515 0.1842570505
-0.0921285253 0.6448996768 0.0921285253
0.0000000000 0.7370282020 0.0000000000
-0.6448996768 -0.0921285253 0.8291567273
-0.5527711515 -0.0000000000 0.7370282020
-0.4606426263 0.0921285253 0.6448996768
-0.3685141010 0.1842570505 0.5527711515
-0.2763855758 0.2763855758 0.4606426263
-0.1842570505 0.3685141010 0.3685141010
-0.0921285253 0.4606426263 0.2763855758
0.0000000000 0.5527711515 0.1842570505
0.0921285253 0.6448996768 0.0921285253
-0.5527711515 -0.1842570505 0.9212852525
-0.4606426263 -0.0921285253 0.8291567273
-0.3685141010 -0.0000000000 0.7370282020
-0.2763855758 0.0921285253 0.6448996768
-0.1842570505 0.1842570505 0.5527711515
-0.0921285253 0.2763855758 0.4606426263
0.0000000000 0.3685141010 0.3685141010
0.0921285253 0.4606426263 0.2763855758
0.1842570505 0.5527711515 0.1842570505
-0.4606426263 -0.2763855758 1.0134137778
-0.3685141010 -0.1842570505 0.9212852525
-0.2763855758 -0.0921285253 0.8291567273
-0.1842570505 -0.0000000000 0.7370282020
-0.0921285253 0.0921285253 0.6448996768
0.0000000000 0.1842570505 0.5527711515
0.0921285253 0.2763855758 0.4606426263
0.1842570505 0.3685141010 0.3685141010
0.2763855758 0.4606426263 0.2763855758
-0.3685141010 -0.3685141010 1.1055423031
-0.2763855758 -0.2763855758 1.0134137778
-0.1842570505 -0.1842570505 0.9212852525
-0.0921285253 -0.0921285253 0.8291567273
0.0000000000 -0.0000000000 0.7370282020
0.0921285253 0.0921285253 0.6448996768
0.1842570505 0.1842570505 0.5527711515
0.2763855758 0.2763855758 0.4606426263
0.3685141010 0.3685141010 0.3685141010
 There are 6 alpha and 6 beta electrons
 Start computing overlap matrix
 Allocate 23619600 B from available memory: 104857465504 B
 Time for computing overlap matrix: 10.9330000000 s
 ====== Initialize compute kernels for all-electron RI-J (kpts) ====== 
 ========================================================== 
 Range-separated parameter omega        = 0.900000000000000022
 Threshold for 1e2c shellpair           = 0.000000000000010000
 Threshold for 2e2c SR integral         = 0.000000000000000001
 Threshold for 2e3c SR integral         = 0.000000000100000000
 Threshold for AFT G-space screening is = 0.000000000001000000
 The exponent cutoff for C/D classification (omega2 / 2) is  = 0.405000000000000027
 ========================================================== 
 === Post process the basis set for RI calculation (exp_cutoff = 0.405000000000000027 ) === 
nshells_b1 before uncontraction = 19
nshells_b1 after uncontraction = 19
nshells_baux before uncontraction = 28
nshells_baux after uncontraction = 28
===============================================
nbsf total   = 45
nbsf compact = 33
nbsf diffuse = 12
naux total   = 96
naux compact = 96
naux diffuse = 0
nshells_bnuc = 2

 Number of unique atoms is 2
 Unique atom #0 (li) has 4 shells.
 Unique atom #1 (f) has 9 shells.

Shell 0 to 3 belongs to atom li
Shell 4 to 12 belongs to atom f

 Number of unique atoms is 2
 Unique atom #0 (li) has 4 shells.
 Unique atom #1 (f) has 2 shells.

Shell 0 to 3 belongs to atom li
Shell 4 to 5 belongs to atom f

 Number of unique atom is 2
 Unique atom #0 (li) has 13 auxiliary shells.
 Unique atom #1 (f) has 15 auxiliary shells.

Auxiliary Shell 0 to 12 belongs to atom li
Auxiliary Shell 13 to 27 belongs to atom f

================= Automatically determine grid size for reciprocal space summation =================
 Range-separated parameter = 0.90000000000000 and G-space screening threshold = 0.00000000000100
The number of grid points along each axis dimension is (7, 7, 7)
Total number of grid points = 3375

Use nonortho shellpair for diffuse density
======== Initializing relevant kernel for RIJ (DD type) ========
There are 21 shellpairs in the reference unit cell
There are 14003 images and we expect to have 294063 in total
There are 16705 shellpairs in the lattice sum after screening
======== Initializing relevant kernel for RIJ (CD type) ========
There are 78 shellpairs in the reference unit cell
There are 8175 images and we expect to have 637650 in total
There are 30260 shellpairs in the lattice sum after screening
****** AFT -> SR ******
Maximum bra distance cutoff is 33.000000000000
Maximum bra ket distance cutoff is 17.968770700363
Maximum bra ket screening distance is 17.343750000000
Number of auxiliary image is 2611
There are 78 shellpairs in the reference unit cell
There are 2611 images and we expect to have 203658 in total
There are 30260 shellpairs in the lattice sum after screening
Available memory per thread for 2e3c calculation is 3.276057685000Gb
Finish initializing 2e3c SR with the lattice sum!
=================================================
======== Initializing relevant kernel for RIJ (CC type) ========
There are 88 shellpairs in the reference unit cell
There are 695 images and we expect to have 61160 in total
There are 1337 shellpairs in the lattice sum after screening
****** AFT -> SR ******
Maximum bra distance cutoff is 10.000000000000
Maximum bra ket distance cutoff is 18.593368050563
Maximum bra ket screening distance is 17.000000000000
Number of auxiliary image is 695
There are 88 shellpairs in the reference unit cell
There are 213 images and we expect to have 18744 in total
There are 1337 shellpairs in the lattice sum after screening
Available memory per thread for 2e3c calculation is 3.276057685000Gb
Finish initializing 2e3c SR with the lattice sum!
=================================================
======== Initializing the SR component for Vnuc (CD type) ========
Maximum bra distance cutoff is 33.000000000000
Maximum bra ket distance cutoff is 9.129701720000
Maximum bra ket screening distance is 8.478683757907
Number of auxiliary image is 2611
There are 78 shellpairs in the reference unit cell
There are 2611 images and we expect to have 203658 in total
There are 30260 shellpairs in the lattice sum after screening
Available memory per thread for 2e3c calculation is 3.276057685000Gb
Finish initializing 2e3c SR with the lattice sum!
=================================================
======== Initialize the SR component for Vnuc (CC type) ========
Maximum bra distance cutoff is 10.000000000000
Maximum bra ket distance cutoff is 10.053892184326
Maximum bra ket screening distance is 7.232660986948
Number of auxiliary image is 213
There are 88 shellpairs in the reference unit cell
There are 213 images and we expect to have 18744 in total
There are 1337 shellpairs in the lattice sum after screening
Available memory per thread for 2e3c calculation is 3.276057685000Gb
Finish initializing 2e3c SR with the lattice sum!
=================================================
 Aufbau occupation scheme, occupation determined by eigenvalue
 == 0-th k-point nmo = 44 (-0.36851,-0.36851,-0.36851) ==
 == 1-th k-point nmo = 44 (-0.27639,-0.27639,-0.46064) ==
 == 2-th k-point nmo = 44 (-0.18426,-0.18426,-0.55277) ==
 == 3-th k-point nmo = 44 (-0.09213,-0.09213,-0.64490) ==
 == 4-th k-point nmo = 44 (-0.00000,0.00000,-0.73703) ==
 == 5-th k-point nmo = 44 (0.09213,0.09213,-0.82916) ==
 == 6-th k-point nmo = 44 (0.18426,0.18426,-0.92129) ==
 == 7-th k-point nmo = 44 (0.27639,0.27639,-1.01341) ==
 == 8-th k-point nmo = 44 (0.36851,0.36851,-1.10554) ==
 == 9-th k-point nmo = 44 (-0.27639,-0.46064,-0.27639) ==
 == 10-th k-point nmo = 44 (-0.18426,-0.36851,-0.36851) ==
 == 11-th k-point nmo = 44 (-0.09213,-0.27639,-0.46064) ==
 == 12-th k-point nmo = 44 (-0.00000,-0.18426,-0.55277) ==
 == 13-th k-point nmo = 44 (0.09213,-0.09213,-0.64490) ==
 == 14-th k-point nmo = 44 (0.18426,0.00000,-0.73703) ==
 == 15-th k-point nmo = 44 (0.27639,0.09213,-0.82916) ==
 == 16-th k-point nmo = 44 (0.36851,0.18426,-0.92129) ==
 == 17-th k-point nmo = 44 (0.46064,0.27639,-1.01341) ==
 == 18-th k-point nmo = 44 (-0.18426,-0.55277,-0.18426) ==
 == 19-th k-point nmo = 44 (-0.09213,-0.46064,-0.27639) ==
 == 20-th k-point nmo = 44 (-0.00000,-0.36851,-0.36851) ==
 == 21-th k-point nmo = 44 (0.09213,-0.27639,-0.46064) ==
 == 22-th k-point nmo = 44 (0.18426,-0.18426,-0.55277) ==
 == 23-th k-point nmo = 44 (0.27639,-0.09213,-0.64490) ==
 == 24-th k-point nmo = 44 (0.36851,0.00000,-0.73703) ==
 == 25-th k-point nmo = 44 (0.46064,0.09213,-0.82916) ==
 == 26-th k-point nmo = 44 (0.55277,0.18426,-0.92129) ==
 == 27-th k-point nmo = 44 (-0.09213,-0.64490,-0.09213) ==
 == 28-th k-point nmo = 44 (-0.00000,-0.55277,-0.18426) ==
 == 29-th k-point nmo = 44 (0.09213,-0.46064,-0.27639) ==
 == 30-th k-point nmo = 44 (0.18426,-0.36851,-0.36851) ==
 == 31-th k-point nmo = 44 (0.27639,-0.27639,-0.46064) ==
 == 32-th k-point nmo = 44 (0.36851,-0.18426,-0.55277) ==
 == 33-th k-point nmo = 44 (0.46064,-0.09213,-0.64490) ==
 == 34-th k-point nmo = 44 (0.55277,0.00000,-0.73703) ==
 == 35-th k-point nmo = 44 (0.64490,0.09213,-0.82916) ==
 == 36-th k-point nmo = 44 (0.00000,-0.73703,-0.00000) ==
 == 37-th k-point nmo = 44 (0.09213,-0.64490,-0.09213) ==
 == 38-th k-point nmo = 44 (0.18426,-0.55277,-0.18426) ==
 == 39-th k-point nmo = 44 (0.27639,-0.46064,-0.27639) ==
 == 40-th k-point nmo = 44 (0.36851,-0.36851,-0.36851) ==
 == 41-th k-point nmo = 44 (0.46064,-0.27639,-0.46064) ==
 == 42-th k-point nmo = 44 (0.55277,-0.18426,-0.55277) ==
 == 43-th k-point nmo = 44 (0.64490,-0.09213,-0.64490) ==
 == 44-th k-point nmo = 44 (0.73703,0.00000,-0.73703) ==
 == 45-th k-point nmo = 44 (0.09213,-0.82916,0.09213) ==
 == 46-th k-point nmo = 44 (0.18426,-0.73703,-0.00000) ==
 == 47-th k-point nmo = 44 (0.27639,-0.64490,-0.09213) ==
 == 48-th k-point nmo = 44 (0.36851,-0.55277,-0.18426) ==
 == 49-th k-point nmo = 44 (0.46064,-0.46064,-0.27639) ==
 == 50-th k-point nmo = 44 (0.55277,-0.36851,-0.36851) ==
 == 51-th k-point nmo = 44 (0.64490,-0.27639,-0.46064) ==
 == 52-th k-point nmo = 44 (0.73703,-0.18426,-0.55277) ==
 == 53-th k-point nmo = 44 (0.82916,-0.09213,-0.64490) ==
 == 54-th k-point nmo = 44 (0.18426,-0.92129,0.18426) ==
 == 55-th k-point nmo = 44 (0.27639,-0.82916,0.09213) ==
 == 56-th k-point nmo = 44 (0.36851,-0.73703,-0.00000) ==
 == 57-th k-point nmo = 44 (0.46064,-0.64490,-0.09213) ==
 == 58-th k-point nmo = 44 (0.55277,-0.55277,-0.18426) ==
 == 59-th k-point nmo = 44 (0.64490,-0.46064,-0.27639) ==
 == 60-th k-point nmo = 44 (0.73703,-0.36851,-0.36851) ==
 == 61-th k-point nmo = 44 (0.82916,-0.27639,-0.46064) ==
 == 62-th k-point nmo = 44 (0.92129,-0.18426,-0.55277) ==
 == 63-th k-point nmo = 44 (0.27639,-1.01341,0.27639) ==
 == 64-th k-point nmo = 44 (0.36851,-0.92129,0.18426) ==
 == 65-th k-point nmo = 44 (0.46064,-0.82916,0.09213) ==
 == 66-th k-point nmo = 44 (0.55277,-0.73703,-0.00000) ==
 == 67-th k-point nmo = 44 (0.64490,-0.64490,-0.09213) ==
 == 68-th k-point nmo = 44 (0.73703,-0.55277,-0.18426) ==
 == 69-th k-point nmo = 44 (0.82916,-0.46064,-0.27639) ==
 == 70-th k-point nmo = 44 (0.92129,-0.36851,-0.36851) ==
 == 71-th k-point nmo = 44 (1.01341,-0.27639,-0.46064) ==
 == 72-th k-point nmo = 44 (0.36851,-1.10554,0.36851) ==
 == 73-th k-point nmo = 44 (0.46064,-1.01341,0.27639) ==
 == 74-th k-point nmo = 44 (0.55277,-0.92129,0.18426) ==
 == 75-th k-point nmo = 44 (0.64490,-0.82916,0.09213) ==
 == 76-th k-point nmo = 44 (0.73703,-0.73703,-0.00000) ==
 == 77-th k-point nmo = 44 (0.82916,-0.64490,-0.09213) ==
 == 78-th k-point nmo = 44 (0.92129,-0.55277,-0.18426) ==
 == 79-th k-point nmo = 44 (1.01341,-0.46064,-0.27639) ==
 == 80-th k-point nmo = 44 (1.10554,-0.36851,-0.36851) ==
 == 81-th k-point nmo = 44 (-0.46064,-0.27639,-0.27639) ==
 == 82-th k-point nmo = 44 (-0.36851,-0.18426,-0.36851) ==
 == 83-th k-point nmo = 44 (-0.27639,-0.09213,-0.46064) ==
 == 84-th k-point nmo = 44 (-0.18426,0.00000,-0.55277) ==
 == 85-th k-point nmo = 44 (-0.09213,0.09213,-0.64490) ==
 == 86-th k-point nmo = 44 (-0.00000,0.18426,-0.73703) ==
 == 87-th k-point nmo = 44 (0.09213,0.27639,-0.82916) ==
 == 88-th k-point nmo = 44 (0.18426,0.36851,-0.92129) ==
 == 89-th k-point nmo = 44 (0.27639,0.46064,-1.01341) ==
 == 90-th k-point nmo = 44 (-0.36851,-0.36851,-0.18426) ==
 == 91-th k-point nmo = 45 (-0.27639,-0.27639,-0.27639) ==
 == 92-th k-point nmo = 44 (-0.18426,-0.18426,-0.36851) ==
 == 93-th k-point nmo = 44 (-0.09213,-0.09213,-0.46064) ==
 == 94-th k-point nmo = 44 (-0.00000,0.00000,-0.55277) ==
 == 95-th k-point nmo = 44 (0.09213,0.09213,-0.64490) ==
 == 96-th k-point nmo = 44 (0.18426,0.18426,-0.73703) ==
 == 97-th k-point nmo = 44 (0.27639,0.27639,-0.82916) ==
 == 98-th k-point nmo = 44 (0.36851,0.36851,-0.92129) ==
 == 99-th k-point nmo = 44 (-0.27639,-0.46064,-0.09213) ==
 == 100-th k-point nmo = 44 (-0.18426,-0.36851,-0.18426) ==
 == 101-th k-point nmo = 44 (-0.09213,-0.27639,-0.27639) ==
 == 102-th k-point nmo = 44 (-0.00000,-0.18426,-0.36851) ==
 == 103-th k-point nmo = 44 (0.09213,-0.09213,-0.46064) ==
 == 104-th k-point nmo = 44 (0.18426,0.00000,-0.55277) ==
 == 105-th k-point nmo = 44 (0.27639,0.09213,-0.64490) ==
 == 106-th k-point nmo = 44 (0.36851,0.18426,-0.73703) ==
 == 107-th k-point nmo = 44 (0.46064,0.27639,-0.82916) ==
 == 108-th k-point nmo = 44 (-0.18426,-0.55277,-0.00000) ==
 == 109-th k-point nmo = 44 (-0.09213,-0.46064,-0.09213) ==
 == 110-th k-point nmo = 44 (-0.00000,-0.36851,-0.18426) ==
 == 111-th k-point nmo = 44 (0.09213,-0.27639,-0.27639) ==
 == 112-th k-point nmo = 44 (0.18426,-0.18426,-0.36851) ==
 == 113-th k-point nmo = 44 (0.27639,-0.09213,-0.46064) ==
 == 114-th k-point nmo = 44 (0.36851,0.00000,-0.55277) ==
 == 115-th k-point nmo = 44 (0.46064,0.09213,-0.64490) ==
 == 116-th k-point nmo = 44 (0.55277,0.18426,-0.73703) ==
 == 117-th k-point nmo = 44 (-0.09213,-0.64490,0.09213) ==
 == 118-th k-point nmo = 44 (-0.00000,-0.55277,-0.00000) ==
 == 119-th k-point nmo = 44 (0.09213,-0.46064,-0.09213) ==
 == 120-th k-point nmo = 44 (0.18426,-0.36851,-0.18426) ==
 == 121-th k-point nmo = 45 (0.27639,-0.27639,-0.27639) ==
 == 122-th k-point nmo = 44 (0.36851,-0.18426,-0.36851) ==
 == 123-th k-point nmo = 44 (0.46064,-0.09213,-0.46064) ==
 == 124-th k-point nmo = 44 (0.55277,0.00000,-0.55277) ==
 == 125-th k-point nmo = 44 (0.64490,0.09213,-0.64490) ==
 == 126-th k-point nmo = 44 (0.00000,-0.73703,0.18426) ==
 == 127-th k-point nmo = 44 (0.09213,-0.64490,0.09213) ==
 == 128-th k-point nmo = 44 (0.18426,-0.55277,-0.00000) ==
 == 129-th k-point nmo = 44 (0.27639,-0.46064,-0.09213) ==
 == 130-th k-point nmo = 44 (0.36851,-0.36851,-0.18426) ==
 == 131-th k-point nmo = 44 (0.46064,-0.27639,-0.27639) ==
 == 132-th k-point nmo = 44 (0.55277,-0.18426,-0.36851) ==
 == 133-th k-point nmo = 44 (0.64490,-0.09213,-0.46064) ==
 == 134-th k-point nmo = 44 (0.73703,0.00000,-0.55277) ==
 == 135-th k-point nmo = 44 (0.09213,-0.82916,0.27639) ==
 == 136-th k-point nmo = 44 (0.18426,-0.73703,0.18426) ==
 == 137-th k-point nmo = 44 (0.27639,-0.64490,0.09213) ==
 == 138-th k-point nmo = 44 (0.36851,-0.55277,-0.00000) ==
 == 139-th k-point nmo = 44 (0.46064,-0.46064,-0.09213) ==
 == 140-th k-point nmo = 44 (0.55277,-0.36851,-0.18426) ==
 == 141-th k-point nmo = 44 (0.64490,-0.27639,-0.27639) ==
 == 142-th k-point nmo = 44 (0.73703,-0.18426,-0.36851) ==
 == 143-th k-point nmo = 44 (0.82916,-0.09213,-0.46064) ==
 == 144-th k-point nmo = 44 (0.18426,-0.92129,0.36851) ==
 == 145-th k-point nmo = 44 (0.27639,-0.82916,0.27639) ==
 == 146-th k-point nmo = 44 (0.36851,-0.73703,0.18426) ==
 == 147-th k-point nmo = 44 (0.46064,-0.64490,0.09213) ==
 == 148-th k-point nmo = 44 (0.55277,-0.55277,-0.00000) ==
 == 149-th k-point nmo = 44 (0.64490,-0.46064,-0.09213) ==
 == 150-th k-point nmo = 44 (0.73703,-0.36851,-0.18426) ==
 == 151-th k-point nmo = 44 (0.82916,-0.27639,-0.27639) ==
 == 152-th k-point nmo = 44 (0.92129,-0.18426,-0.36851) ==
 == 153-th k-point nmo = 44 (0.27639,-1.01341,0.46064) ==
 == 154-th k-point nmo = 44 (0.36851,-0.92129,0.36851) ==
 == 155-th k-point nmo = 44 (0.46064,-0.82916,0.27639) ==
 == 156-th k-point nmo = 44 (0.55277,-0.73703,0.18426) ==
 == 157-th k-point nmo = 44 (0.64490,-0.64490,0.09213) ==
 == 158-th k-point nmo = 44 (0.73703,-0.55277,-0.00000) ==
 == 159-th k-point nmo = 44 (0.82916,-0.46064,-0.09213) ==
 == 160-th k-point nmo = 44 (0.92129,-0.36851,-0.18426) ==
 == 161-th k-point nmo = 44 (1.01341,-0.27639,-0.27639) ==
 == 162-th k-point nmo = 44 (-0.55277,-0.18426,-0.18426) ==
 == 163-th k-point nmo = 44 (-0.46064,-0.09213,-0.27639) ==
 == 164-th k-point nmo = 44 (-0.36851,0.00000,-0.36851) ==
 == 165-th k-point nmo = 44 (-0.27639,0.09213,-0.46064) ==
 == 166-th k-point nmo = 44 (-0.18426,0.18426,-0.55277) ==
 == 167-th k-point nmo = 44 (-0.09213,0.27639,-0.64490) ==
 == 168-th k-point nmo = 44 (-0.00000,0.36851,-0.73703) ==
 == 169-th k-point nmo = 44 (0.09213,0.46064,-0.82916) ==
 == 170-th k-point nmo = 44 (0.18426,0.55277,-0.92129) ==
 == 171-th k-point nmo = 44 (-0.46064,-0.27639,-0.09213) ==
 == 172-th k-point nmo = 44 (-0.36851,-0.18426,-0.18426) ==
 == 173-th k-point nmo = 44 (-0.27639,-0.09213,-0.27639) ==
 == 174-th k-point nmo = 44 (-0.18426,0.00000,-0.36851) ==
 == 175-th k-point nmo = 44 (-0.09213,0.09213,-0.46064) ==
 == 176-th k-point nmo = 44 (-0.00000,0.18426,-0.55277) ==
 == 177-th k-point nmo = 44 (0.09213,0.27639,-0.64490) ==
 == 178-th k-point nmo = 44 (0.18426,0.36851,-0.73703) ==
 == 179-th k-point nmo = 44 (0.27639,0.46064,-0.82916) ==
 == 180-th k-point nmo = 44 (-0.36851,-0.36851,-0.00000) ==
 == 181-th k-point nmo = 44 (-0.27639,-0.27639,-0.09213) ==
 == 182-th k-point nmo = 45 (-0.18426,-0.18426,-0.18426) ==
 == 183-th k-point nmo = 44 (-0.09213,-0.09213,-0.27639) ==
 == 184-th k-point nmo = 44 (-0.00000,0.00000,-0.36851) ==
 == 185-th k-point nmo = 44 (0.09213,0.09213,-0.46064) ==
 == 186-th k-point nmo = 44 (0.18426,0.18426,-0.55277) ==
 == 187-th k-point nmo = 44 (0.27639,0.27639,-0.64490) ==
 == 188-th k-point nmo = 44 (0.36851,0.36851,-0.73703) ==
 == 189-th k-point nmo = 44 (-0.27639,-0.46064,0.09213) ==
 == 190-th k-point nmo = 44 (-0.18426,-0.36851,-0.00000) ==
 == 191-th k-point nmo = 44 (-0.09213,-0.27639,-0.09213) ==
 == 192-th k-point nmo = 43 (-0.00000,-0.18426,-0.18426) ==
 == 193-th k-point nmo = 44 (0.09213,-0.09213,-0.27639) ==
 == 194-th k-point nmo = 44 (0.18426,0.00000,-0.36851) ==
 == 195-th k-point nmo = 44 (0.27639,0.09213,-0.46064) ==
 == 196-th k-point nmo = 44 (0.36851,0.18426,-0.55277) ==
 == 197-th k-point nmo = 44 (0.46064,0.27639,-0.64490) ==
 == 198-th k-point nmo = 44 (-0.18426,-0.55277,0.18426) ==
 == 199-th k-point nmo = 44 (-0.09213,-0.46064,0.09213) ==
 == 200-th k-point nmo = 44 (0.00000,-0.36851,-0.00000) ==
 == 201-th k-point nmo = 44 (0.09213,-0.27639,-0.09213) ==
 == 202-th k-point nmo = 45 (0.18426,-0.18426,-0.18426) ==
 == 203-th k-point nmo = 44 (0.27639,-0.09213,-0.27639) ==
 == 204-th k-point nmo = 44 (0.36851,0.00000,-0.36851) ==
 == 205-th k-point nmo = 44 (0.46064,0.09213,-0.46064) ==
 == 206-th k-point nmo = 44 (0.55277,0.18426,-0.55277) ==
 == 207-th k-point nmo = 44 (-0.09213,-0.64490,0.27639) ==
 == 208-th k-point nmo = 44 (0.00000,-0.55277,0.18426) ==
 == 209-th k-point nmo = 44 (0.09213,-0.46064,0.09213) ==
 == 210-th k-point nmo = 44 (0.18426,-0.36851,-0.00000) ==
 == 211-th k-point nmo = 44 (0.27639,-0.27639,-0.09213) ==
 == 212-th k-point nmo = 44 (0.36851,-0.18426,-0.18426) ==
 == 213-th k-point nmo = 44 (0.46064,-0.09213,-0.27639) ==
 == 214-th k-point nmo = 44 (0.55277,0.00000,-0.36851) ==
 == 215-th k-point nmo = 44 (0.64490,0.09213,-0.46064) ==
 == 216-th k-point nmo = 44 (0.00000,-0.73703,0.36851) ==
 == 217-th k-point nmo = 44 (0.09213,-0.64490,0.27639) ==
 == 218-th k-point nmo = 44 (0.18426,-0.55277,0.18426) ==
 == 219-th k-point nmo = 44 (0.27639,-0.46064,0.09213) ==
 == 220-th k-point nmo = 44 (0.36851,-0.36851,-0.00000) ==
 == 221-th k-point nmo = 44 (0.46064,-0.27639,-0.09213) ==
 == 222-th k-point nmo = 44 (0.55277,-0.18426,-0.18426) ==
 == 223-th k-point nmo = 44 (0.64490,-0.09213,-0.27639) ==
 == 224-th k-point nmo = 44 (0.73703,0.00000,-0.36851) ==
 == 225-th k-point nmo = 44 (0.09213,-0.82916,0.46064) ==
 == 226-th k-point nmo = 44 (0.18426,-0.73703,0.36851) ==
 == 227-th k-point nmo = 44 (0.27639,-0.64490,0.27639) ==
 == 228-th k-point nmo = 44 (0.36851,-0.55277,0.18426) ==
 == 229-th k-point nmo = 44 (0.46064,-0.46064,0.09213) ==
 == 230-th k-point nmo = 44 (0.55277,-0.36851,-0.00000) ==
 == 231-th k-point nmo = 44 (0.64490,-0.27639,-0.09213) ==
 == 232-th k-point nmo = 44 (0.73703,-0.18426,-0.18426) ==
 == 233-th k-point nmo = 44 (0.82916,-0.09213,-0.27639) ==
 == 234-th k-point nmo = 44 (0.18426,-0.92129,0.55277) ==
 == 235-th k-point nmo = 44 (0.27639,-0.82916,0.46064) ==
 == 236-th k-point nmo = 44 (0.36851,-0.73703,0.36851) ==
 == 237-th k-point nmo = 44 (0.46064,-0.64490,0.27639) ==
 == 238-th k-point nmo = 44 (0.55277,-0.55277,0.18426) ==
 == 239-th k-point nmo = 44 (0.64490,-0.46064,0.09213) ==
 == 240-th k-point nmo = 44 (0.73703,-0.36851,-0.00000) ==
 == 241-th k-point nmo = 44 (0.82916,-0.27639,-0.09213) ==
 == 242-th k-point nmo = 44 (0.92129,-0.18426,-0.18426) ==
 == 243-th k-point nmo = 44 (-0.64490,-0.09213,-0.09213) ==
 == 244-th k-point nmo = 44 (-0.55277,0.00000,-0.18426) ==
 == 245-th k-point nmo = 44 (-0.46064,0.09213,-0.27639) ==
 == 246-th k-point nmo = 44 (-0.36851,0.18426,-0.36851) ==
 == 247-th k-point nmo = 44 (-0.27639,0.27639,-0.46064) ==
 == 248-th k-point nmo = 44 (-0.18426,0.36851,-0.55277) ==
 == 249-th k-point nmo = 44 (-0.09213,0.46064,-0.64490) ==
 == 250-th k-point nmo = 44 (-0.00000,0.55277,-0.73703) ==
 == 251-th k-point nmo = 44 (0.09213,0.64490,-0.82916) ==
 == 252-th k-point nmo = 44 (-0.55277,-0.18426,-0.00000) ==
 == 253-th k-point nmo = 44 (-0.46064,-0.09213,-0.09213) ==
 == 254-th k-point nmo = 44 (-0.36851,0.00000,-0.18426) ==
 == 255-th k-point nmo = 44 (-0.27639,0.09213,-0.27639) ==
 == 256-th k-point nmo = 44 (-0.18426,0.18426,-0.36851) ==
 == 257-th k-point nmo = 44 (-0.09213,0.27639,-0.46064) ==
 == 258-th k-point nmo = 44 (-0.00000,0.36851,-0.55277) ==
 == 259-th k-point nmo = 44 (0.09213,0.46064,-0.64490) ==
 == 260-th k-point nmo = 44 (0.18426,0.55277,-0.73703) ==
 == 261-th k-point nmo = 44 (-0.46064,-0.27639,0.09213) ==
 == 262-th k-point nmo = 44 (-0.36851,-0.18426,-0.00000) ==
 == 263-th k-point nmo = 44 (-0.27639,-0.09213,-0.09213) ==
 == 264-th k-point nmo = 43 (-0.18426,0.00000,-0.18426) ==
 == 265-th k-point nmo = 44 (-0.09213,0.09213,-0.27639) ==
 == 266-th k-point nmo = 44 (-0.00000,0.18426,-0.36851) ==
 == 267-th k-point nmo = 44 (0.09213,0.27639,-0.46064) ==
 == 268-th k-point nmo = 44 (0.18426,0.36851,-0.55277) ==
 == 269-th k-point nmo = 44 (0.27639,0.46064,-0.64490) ==
 == 270-th k-point nmo = 44 (-0.36851,-0.36851,0.18426) ==
 == 271-th k-point nmo = 44 (-0.27639,-0.27639,0.09213) ==
 == 272-th k-point nmo = 43 (-0.18426,-0.18426,-0.00000) ==
 == 273-th k-point nmo = 44 (-0.09213,-0.09213,-0.09213) ==
 == 274-th k-point nmo = 44 (-0.00000,0.00000,-0.18426) ==
 == 275-th k-point nmo = 44 (0.09213,0.09213,-0.27639) ==
 == 276-th k-point nmo = 44 (0.18426,0.18426,-0.36851) ==
 == 277-th k-point nmo = 44 (0.27639,0.27639,-0.46064) ==
 == 278-th k-point nmo = 44 (0.36851,0.36851,-0.55277) ==
 == 279-th k-point nmo = 44 (-0.27639,-0.46064,0.27639) ==
 == 280-th k-point nmo = 44 (-0.18426,-0.36851,0.18426) ==
 == 281-th k-point nmo = 44 (-0.09213,-0.27639,0.09213) ==
 == 282-th k-point nmo = 44 (0.00000,-0.18426,-0.00000) ==
 == 283-th k-point nmo = 44 (0.09213,-0.09213,-0.09213) ==
 == 284-th k-point nmo = 43 (0.18426,0.00000,-0.18426) ==
 == 285-th k-point nmo = 44 (0.27639,0.09213,-0.27639) ==
 == 286-th k-point nmo = 44 (0.36851,0.18426,-0.36851) ==
 == 287-th k-point nmo = 44 (0.46064,0.27639,-0.46064) ==
 == 288-th k-point nmo = 44 (-0.18426,-0.55277,0.36851) ==
 == 289-th k-point nmo = 44 (-0.09213,-0.46064,0.27639) ==
 == 290-th k-point nmo = 44 (0.00000,-0.36851,0.18426) ==
 == 291-th k-point nmo = 44 (0.09213,-0.27639,0.09213) ==
 == 292-th k-point nmo = 43 (0.18426,-0.18426,-0.00000) ==
 == 293-th k-point nmo = 44 (0.27639,-0.09213,-0.09213) ==
 == 294-th k-point nmo = 44 (0.36851,0.00000,-0.18426) ==
 == 295-th k-point nmo = 44 (0.46064,0.09213,-0.27639) ==
 == 296-th k-point nmo = 44 (0.55277,0.18426,-0.36851) ==
 == 297-th k-point nmo = 44 (-0.09213,-0.64490,0.46064) ==
 == 298-th k-point nmo = 44 (0.00000,-0.55277,0.36851) ==
 == 299-th k-point nmo = 44 (0.09213,-0.46064,0.27639) ==
 == 300-th k-point nmo = 44 (0.18426,-0.36851,0.18426) ==
 == 301-th k-point nmo = 44 (0.27639,-0.27639,0.09213) ==
 == 302-th k-point nmo = 44 (0.36851,-0.18426,-0.00000) ==
 == 303-th k-point nmo = 44 (0.46064,-0.09213,-0.09213) ==
 == 304-th k-point nmo = 44 (0.55277,0.00000,-0.18426) ==
 == 305-th k-point nmo = 44 (0.64490,0.09213,-0.27639) ==
 == 306-th k-point nmo = 44 (0.00000,-0.73703,0.55277) ==
 == 307-th k-point nmo = 44 (0.09213,-0.64490,0.46064) ==
 == 308-th k-point nmo = 44 (0.18426,-0.55277,0.36851) ==
 == 309-th k-point nmo = 44 (0.27639,-0.46064,0.27639) ==
 == 310-th k-point nmo = 44 (0.36851,-0.36851,0.18426) ==
 == 311-th k-point nmo = 44 (0.46064,-0.27639,0.09213) ==
 == 312-th k-point nmo = 44 (0.55277,-0.18426,-0.00000) ==
 == 313-th k-point nmo = 44 (0.64490,-0.09213,-0.09213) ==
 == 314-th k-point nmo = 44 (0.73703,0.00000,-0.18426) ==
 == 315-th k-point nmo = 44 (0.09213,-0.82916,0.64490) ==
 == 316-th k-point nmo = 44 (0.18426,-0.73703,0.55277) ==
 == 317-th k-point nmo = 44 (0.27639,-0.64490,0.46064) ==
 == 318-th k-point nmo = 44 (0.36851,-0.55277,0.36851) ==
 == 319-th k-point nmo = 44 (0.46064,-0.46064,0.27639) ==
 == 320-th k-point nmo = 44 (0.55277,-0.36851,0.18426) ==
 == 321-th k-point nmo = 44 (0.64490,-0.27639,0.09213) ==
 == 322-th k-point nmo = 44 (0.73703,-0.18426,-0.00000) ==
 == 323-th k-point nmo = 44 (0.82916,-0.09213,-0.09213) ==
 == 324-th k-point nmo = 44 (-0.73703,0.00000,0.00000) ==
 == 325-th k-point nmo = 44 (-0.64490,0.09213,-0.09213) ==
 == 326-th k-point nmo = 44 (-0.55277,0.18426,-0.18426) ==
 == 327-th k-point nmo = 44 (-0.46064,0.27639,-0.27639) ==
 == 328-th k-point nmo = 44 (-0.36851,0.36851,-0.36851) ==
 == 329-th k-point nmo = 44 (-0.27639,0.46064,-0.46064) ==
 == 330-th k-point nmo = 44 (-0.18426,0.55277,-0.55277) ==
 == 331-th k-point nmo = 44 (-0.09213,0.64490,-0.64490) ==
 == 332-th k-point nmo = 44 (-0.00000,0.73703,-0.73703) ==
 == 333-th k-point nmo = 44 (-0.64490,-0.09213,0.09213) ==
 == 334-th k-point nmo = 44 (-0.55277,0.00000,0.00000) ==
 == 335-th k-point nmo = 44 (-0.46064,0.09213,-0.09213) ==
 == 336-th k-point nmo = 44 (-0.36851,0.18426,-0.18426) ==
 == 337-th k-point nmo = 45 (-0.27639,0.27639,-0.27639) ==
 == 338-th k-point nmo = 44 (-0.18426,0.36851,-0.36851) ==
 == 339-th k-point nmo = 44 (-0.09213,0.46064,-0.46064) ==
 == 340-th k-point nmo = 44 (-0.00000,0.55277,-0.55277) ==
 == 341-th k-point nmo = 44 (0.09213,0.64490,-0.64490) ==
 == 342-th k-point nmo = 44 (-0.55277,-0.18426,0.18426) ==
 == 343-th k-point nmo = 44 (-0.46064,-0.09213,0.09213) ==
 == 344-th k-point nmo = 44 (-0.36851,0.00000,0.00000) ==
 == 345-th k-point nmo = 44 (-0.27639,0.09213,-0.09213) ==
 == 346-th k-point nmo = 45 (-0.18426,0.18426,-0.18426) ==
 == 347-th k-point nmo = 44 (-0.09213,0.27639,-0.27639) ==
 == 348-th k-point nmo = 44 (-0.00000,0.36851,-0.36851) ==
 == 349-th k-point nmo = 44 (0.09213,0.46064,-0.46064) ==
 == 350-th k-point nmo = 44 (0.18426,0.55277,-0.55277) ==
 == 351-th k-point nmo = 44 (-0.46064,-0.27639,0.27639) ==
 == 352-th k-point nmo = 44 (-0.36851,-0.18426,0.18426) ==
 == 353-th k-point nmo = 44 (-0.27639,-0.09213,0.09213) ==
 == 354-th k-point nmo = 44 (-0.18426,0.00000,0.00000) ==
 == 355-th k-point nmo = 44 (-0.09213,0.09213,-0.09213) ==
 == 356-th k-point nmo = 43 (-0.00000,0.18426,-0.18426) ==
 == 357-th k-point nmo = 44 (0.09213,0.27639,-0.27639) ==
 == 358-th k-point nmo = 44 (0.18426,0.36851,-0.36851) ==
 == 359-th k-point nmo = 44 (0.27639,0.46064,-0.46064) ==
 == 360-th k-point nmo = 44 (-0.36851,-0.36851,0.36851) ==
 == 361-th k-point nmo = 45 (-0.27639,-0.27639,0.27639) ==
 == 362-th k-point nmo = 45 (-0.18426,-0.18426,0.18426) ==
 == 363-th k-point nmo = 44 (-0.09213,-0.09213,0.09213) ==
 == 364-th k-point nmo = 41 (0.00000,0.00000,0.00000) ==
 == 365-th k-point nmo = 44 (0.09213,0.09213,-0.09213) ==
 == 366-th k-point nmo = 45 (0.18426,0.18426,-0.18426) ==
 == 367-th k-point nmo = 45 (0.27639,0.27639,-0.27639) ==
 == 368-th k-point nmo = 44 (0.36851,0.36851,-0.36851) ==
 == 369-th k-point nmo = 44 (-0.27639,-0.46064,0.46064) ==
 == 370-th k-point nmo = 44 (-0.18426,-0.36851,0.36851) ==
 == 371-th k-point nmo = 44 (-0.09213,-0.27639,0.27639) ==
 == 372-th k-point nmo = 43 (0.00000,-0.18426,0.18426) ==
 == 373-th k-point nmo = 44 (0.09213,-0.09213,0.09213) ==
 == 374-th k-point nmo = 44 (0.18426,-0.00000,0.00000) ==
 == 375-th k-point nmo = 44 (0.27639,0.09213,-0.09213) ==
 == 376-th k-point nmo = 44 (0.36851,0.18426,-0.18426) ==
 == 377-th k-point nmo = 44 (0.46064,0.27639,-0.27639) ==
 == 378-th k-point nmo = 44 (-0.18426,-0.55277,0.55277) ==
 == 379-th k-point nmo = 44 (-0.09213,-0.46064,0.46064) ==
 == 380-th k-point nmo = 44 (0.00000,-0.36851,0.36851) ==
 == 381-th k-point nmo = 44 (0.09213,-0.27639,0.27639) ==
 == 382-th k-point nmo = 45 (0.18426,-0.18426,0.18426) ==
 == 383-th k-point nmo = 44 (0.27639,-0.09213,0.09213) ==
 == 384-th k-point nmo = 44 (0.36851,-0.00000,0.00000) ==
 == 385-th k-point nmo = 44 (0.46064,0.09213,-0.09213) ==
 == 386-th k-point nmo = 44 (0.55277,0.18426,-0.18426) ==
 == 387-th k-point nmo = 44 (-0.09213,-0.64490,0.64490) ==
 == 388-th k-point nmo = 44 (0.00000,-0.55277,0.55277) ==
 == 389-th k-point nmo = 44 (0.09213,-0.46064,0.46064) ==
 == 390-th k-point nmo = 44 (0.18426,-0.36851,0.36851) ==
 == 391-th k-point nmo = 45 (0.27639,-0.27639,0.27639) ==
 == 392-th k-point nmo = 44 (0.36851,-0.18426,0.18426) ==
 == 393-th k-point nmo = 44 (0.46064,-0.09213,0.09213) ==
 == 394-th k-point nmo = 44 (0.55277,-0.00000,0.00000) ==
 == 395-th k-point nmo = 44 (0.64490,0.09213,-0.09213) ==
 == 396-th k-point nmo = 44 (0.00000,-0.73703,0.73703) ==
 == 397-th k-point nmo = 44 (0.09213,-0.64490,0.64490) ==
 == 398-th k-point nmo = 44 (0.18426,-0.55277,0.55277) ==
 == 399-th k-point nmo = 44 (0.27639,-0.46064,0.46064) ==
 == 400-th k-point nmo = 44 (0.36851,-0.36851,0.36851) ==
 == 401-th k-point nmo = 44 (0.46064,-0.27639,0.27639) ==
 == 402-th k-point nmo = 44 (0.55277,-0.18426,0.18426) ==
 == 403-th k-point nmo = 44 (0.64490,-0.09213,0.09213) ==
 == 404-th k-point nmo = 44 (0.73703,-0.00000,0.00000) ==
 == 405-th k-point nmo = 44 (-0.82916,0.09213,0.09213) ==
 == 406-th k-point nmo = 44 (-0.73703,0.18426,0.00000) ==
 == 407-th k-point nmo = 44 (-0.64490,0.27639,-0.09213) ==
 == 408-th k-point nmo = 44 (-0.55277,0.36851,-0.18426) ==
 == 409-th k-point nmo = 44 (-0.46064,0.46064,-0.27639) ==
 == 410-th k-point nmo = 44 (-0.36851,0.55277,-0.36851) ==
 == 411-th k-point nmo = 44 (-0.27639,0.64490,-0.46064) ==
 == 412-th k-point nmo = 44 (-0.18426,0.73703,-0.55277) ==
 == 413-th k-point nmo = 44 (-0.09213,0.82916,-0.64490) ==
 == 414-th k-point nmo = 44 (-0.73703,0.00000,0.18426) ==
 == 415-th k-point nmo = 44 (-0.64490,0.09213,0.09213) ==
 == 416-th k-point nmo = 44 (-0.55277,0.18426,0.00000) ==
 == 417-th k-point nmo = 44 (-0.46064,0.27639,-0.09213) ==
 == 418-th k-point nmo = 44 (-0.36851,0.36851,-0.18426) ==
 == 419-th k-point nmo = 44 (-0.27639,0.46064,-0.27639) ==
 == 420-th k-point nmo = 44 (-0.18426,0.55277,-0.36851) ==
 == 421-th k-point nmo = 44 (-0.09213,0.64490,-0.46064) ==
 == 422-th k-point nmo = 44 (-0.00000,0.73703,-0.55277) ==
 == 423-th k-point nmo = 44 (-0.64490,-0.09213,0.27639) ==
 == 424-th k-point nmo = 44 (-0.55277,0.00000,0.18426) ==
 == 425-th k-point nmo = 44 (-0.46064,0.09213,0.09213) ==
 == 426-th k-point nmo = 44 (-0.36851,0.18426,0.00000) ==
 == 427-th k-point nmo = 44 (-0.27639,0.27639,-0.09213) ==
 == 428-th k-point nmo = 44 (-0.18426,0.36851,-0.18426) ==
 == 429-th k-point nmo = 44 (-0.09213,0.46064,-0.27639) ==
 == 430-th k-point nmo = 44 (-0.00000,0.55277,-0.36851) ==
 == 431-th k-point nmo = 44 (0.09213,0.64490,-0.46064) ==
 == 432-th k-point nmo = 44 (-0.55277,-0.18426,0.36851) ==
 == 433-th k-point nmo = 44 (-0.46064,-0.09213,0.27639) ==
 == 434-th k-point nmo = 44 (-0.36851,-0.00000,0.18426) ==
 == 435-th k-point nmo = 44 (-0.27639,0.09213,0.09213) ==
 == 436-th k-point nmo = 43 (-0.18426,0.18426,0.00000) ==
 == 437-th k-point nmo = 44 (-0.09213,0.27639,-0.09213) ==
 == 438-th k-point nmo = 44 (-0.00000,0.36851,-0.18426) ==
 == 439-th k-point nmo = 44 (0.09213,0.46064,-0.27639) ==
 == 440-th k-point nmo = 44 (0.18426,0.55277,-0.36851) ==
 == 441-th k-point nmo = 44 (-0.46064,-0.27639,0.46064) ==
 == 442-th k-point nmo = 44 (-0.36851,-0.18426,0.36851) ==
 == 443-th k-point nmo = 44 (-0.27639,-0.09213,0.27639) ==
 == 444-th k-point nmo = 43 (-0.18426,-0.00000,0.18426) ==
 == 445-th k-point nmo = 44 (-0.09213,0.09213,0.09213) ==
 == 446-th k-point nmo = 44 (0.00000,0.18426,0.00000) ==
 == 447-th k-point nmo = 44 (0.09213,0.27639,-0.09213) ==
 == 448-th k-point nmo = 44 (0.18426,0.36851,-0.18426) ==
 == 449-th k-point nmo = 44 (0.27639,0.46064,-0.27639) ==
 == 450-th k-point nmo = 44 (-0.36851,-0.36851,0.55277) ==
 == 451-th k-point nmo = 44 (-0.27639,-0.27639,0.46064) ==
 == 452-th k-point nmo = 44 (-0.18426,-0.18426,0.36851) ==
 == 453-th k-point nmo = 44 (-0.09213,-0.09213,0.27639) ==
 == 454-th k-point nmo = 44 (0.00000,-0.00000,0.18426) ==
 == 455-th k-point nmo = 44 (0.09213,0.09213,0.09213) ==
 == 456-th k-point nmo = 43 (0.18426,0.18426,0.00000) ==
 == 457-th k-point nmo = 44 (0.27639,0.27639,-0.09213) ==
 == 458-th k-point nmo = 44 (0.36851,0.36851,-0.18426) ==
 == 459-th k-point nmo = 44 (-0.27639,-0.46064,0.64490) ==
 == 460-th k-point nmo = 44 (-0.18426,-0.36851,0.55277) ==
 == 461-th k-point nmo = 44 (-0.09213,-0.27639,0.46064) ==
 == 462-th k-point nmo = 44 (0.00000,-0.18426,0.36851) ==
 == 463-th k-point nmo = 44 (0.09213,-0.09213,0.27639) ==
 == 464-th k-point nmo = 43 (0.18426,-0.00000,0.18426) ==
 == 465-th k-point nmo = 44 (0.27639,0.09213,0.09213) ==
 == 466-th k-point nmo = 44 (0.36851,0.18426,0.00000) ==
 == 467-th k-point nmo = 44 (0.46064,0.27639,-0.09213) ==
 == 468-th k-point nmo = 44 (-0.18426,-0.55277,0.73703) ==
 == 469-th k-point nmo = 44 (-0.09213,-0.46064,0.64490) ==
 == 470-th k-point nmo = 44 (0.00000,-0.36851,0.55277) ==
 == 471-th k-point nmo = 44 (0.09213,-0.27639,0.46064) ==
 == 472-th k-point nmo = 44 (0.18426,-0.18426,0.36851) ==
 == 473-th k-point nmo = 44 (0.27639,-0.09213,0.27639) ==
 == 474-th k-point nmo = 44 (0.36851,-0.00000,0.18426) ==
 == 475-th k-point nmo = 44 (0.46064,0.09213,0.09213) ==
 == 476-th k-point nmo = 44 (0.55277,0.18426,0.00000) ==
 == 477-th k-point nmo = 44 (-0.09213,-0.64490,0.82916) ==
 == 478-th k-point nmo = 44 (0.00000,-0.55277,0.73703) ==
 == 479-th k-point nmo = 44 (0.09213,-0.46064,0.64490) ==
 == 480-th k-point nmo = 44 (0.18426,-0.36851,0.55277) ==
 == 481-th k-point nmo = 44 (0.27639,-0.27639,0.46064) ==
 == 482-th k-point nmo = 44 (0.36851,-0.18426,0.36851) ==
 == 483-th k-point nmo = 44 (0.46064,-0.09213,0.27639) ==
 == 484-th k-point nmo = 44 (0.55277,-0.00000,0.18426) ==
 == 485-th k-point nmo = 44 (0.64490,0.09213,0.09213) ==
 == 486-th k-point nmo = 44 (-0.92129,0.18426,0.18426) ==
 == 487-th k-point nmo = 44 (-0.82916,0.27639,0.09213) ==
 == 488-th k-point nmo = 44 (-0.73703,0.36851,0.00000) ==
 == 489-th k-point nmo = 44 (-0.64490,0.46064,-0.09213) ==
 == 490-th k-point nmo = 44 (-0.55277,0.55277,-0.18426) ==
 == 491-th k-point nmo = 44 (-0.46064,0.64490,-0.27639) ==
 == 492-th k-point nmo = 44 (-0.36851,0.73703,-0.36851) ==
 == 493-th k-point nmo = 44 (-0.27639,0.82916,-0.46064) ==
 == 494-th k-point nmo = 44 (-0.18426,0.92129,-0.55277) ==
 == 495-th k-point nmo = 44 (-0.82916,0.09213,0.27639) ==
 == 496-th k-point nmo = 44 (-0.73703,0.18426,0.18426) ==
 == 497-th k-point nmo = 44 (-0.64490,0.27639,0.09213) ==
 == 498-th k-point nmo = 44 (-0.55277,0.36851,0.00000) ==
 == 499-th k-point nmo = 44 (-0.46064,0.46064,-0.09213) ==
 == 500-th k-point nmo = 44 (-0.36851,0.55277,-0.18426) ==
 == 501-th k-point nmo = 44 (-0.27639,0.64490,-0.27639) ==
 == 502-th k-point nmo = 44 (-0.18426,0.73703,-0.36851) ==
 == 503-th k-point nmo = 44 (-0.09213,0.82916,-0.46064) ==
 == 504-th k-point nmo = 44 (-0.73703,-0.00000,0.36851) ==
 == 505-th k-point nmo = 44 (-0.64490,0.09213,0.27639) ==
 == 506-th k-point nmo = 44 (-0.55277,0.18426,0.18426) ==
 == 507-th k-point nmo = 44 (-0.46064,0.27639,0.09213) ==
 == 508-th k-point nmo = 44 (-0.36851,0.36851,0.00000) ==
 == 509-th k-point nmo = 44 (-0.27639,0.46064,-0.09213) ==
 == 510-th k-point nmo = 44 (-0.18426,0.55277,-0.18426) ==
 == 511-th k-point nmo = 44 (-0.09213,0.64490,-0.27639) ==
 == 512-th k-point nmo = 44 (-0.00000,0.73703,-0.36851) ==
 == 513-th k-point nmo = 44 (-0.64490,-0.09213,0.46064) ==
 == 514-th k-point nmo = 44 (-0.55277,0.00000,0.36851) ==
 == 515-th k-point nmo = 44 (-0.46064,0.09213,0.27639) ==
 == 516-th k-point nmo = 44 (-0.36851,0.18426,0.18426) ==
 == 517-th k-point nmo = 44 (-0.27639,0.27639,0.09213) ==
 == 518-th k-point nmo = 44 (-0.18426,0.36851,0.00000) ==
 == 519-th k-point nmo = 44 (-0.09213,0.46064,-0.09213) ==
 == 520-th k-point nmo = 44 (-0.00000,0.55277,-0.18426) ==
 == 521-th k-point nmo = 44 (0.09213,0.64490,-0.27639) ==
 == 522-th k-point nmo = 44 (-0.55277,-0.18426,0.55277) ==
 == 523-th k-point nmo = 44 (-0.46064,-0.09213,0.46064) ==
 == 524-th k-point nmo = 44 (-0.36851,-0.00000,0.36851) ==
 == 525-th k-point nmo = 44 (-0.27639,0.09213,0.27639) ==
 == 526-th k-point nmo = 45 (-0.18426,0.18426,0.18426) ==
 == 527-th k-point nmo = 44 (-0.09213,0.27639,0.09213) ==
 == 528-th k-point nmo = 44 (0.00000,0.36851,0.00000) ==
 == 529-th k-point nmo = 44 (0.09213,0.46064,-0.09213) ==
 == 530-th k-point nmo = 44 (0.18426,0.55277,-0.18426) ==
 == 531-th k-point nmo = 44 (-0.46064,-0.27639,0.64490) ==
 == 532-th k-point nmo = 44 (-0.36851,-0.18426,0.55277) ==
 == 533-th k-point nmo = 44 (-0.27639,-0.09213,0.46064) ==
 == 534-th k-point nmo = 44 (-0.18426,-0.00000,0.36851) ==
 == 535-th k-point nmo = 44 (-0.09213,0.09213,0.27639) ==
 == 536-th k-point nmo = 43 (0.00000,0.18426,0.18426) ==
 == 537-th k-point nmo = 44 (0.09213,0.27639,0.09213) ==
 == 538-th k-point nmo = 44 (0.18426,0.36851,0.00000) ==
 == 539-th k-point nmo = 44 (0.27639,0.46064,-0.09213) ==
 == 540-th k-point nmo = 44 (-0.36851,-0.36851,0.73703) ==
 == 541-th k-point nmo = 44 (-0.27639,-0.27639,0.64490) ==
 == 542-th k-point nmo = 44 (-0.18426,-0.18426,0.55277) ==
 == 543-th k-point nmo = 44 (-0.09213,-0.09213,0.46064) ==
 == 544-th k-point nmo = 44 (0.00000,-0.00000,0.36851) ==
 == 545-th k-point nmo = 44 (0.09213,0.09213,0.27639) ==
 == 546-th k-point nmo = 45 (0.18426,0.18426,0.18426) ==
 == 547-th k-point nmo = 44 (0.27639,0.27639,0.09213) ==
 == 548-th k-point nmo = 44 (0.36851,0.36851,0.00000) ==
 == 549-th k-point nmo = 44 (-0.27639,-0.46064,0.82916) ==
 == 550-th k-point nmo = 44 (-0.18426,-0.36851,0.73703) ==
 == 551-th k-point nmo = 44 (-0.09213,-0.27639,0.64490) ==
 == 552-th k-point nmo = 44 (0.00000,-0.18426,0.55277) ==
 == 553-th k-point nmo = 44 (0.09213,-0.09213,0.46064) ==
 == 554-th k-point nmo = 44 (0.18426,-0.00000,0.36851) ==
 == 555-th k-point nmo = 44 (0.27639,0.09213,0.27639) ==
 == 556-th k-point nmo = 44 (0.36851,0.18426,0.18426) ==
 == 557-th k-point nmo = 44 (0.46064,0.27639,0.09213) ==
 == 558-th k-point nmo = 44 (-0.18426,-0.55277,0.92129) ==
 == 559-th k-point nmo = 44 (-0.09213,-0.46064,0.82916) ==
 == 560-th k-point nmo = 44 (0.00000,-0.36851,0.73703) ==
 == 561-th k-point nmo = 44 (0.09213,-0.27639,0.64490) ==
 == 562-th k-point nmo = 44 (0.18426,-0.18426,0.55277) ==
 == 563-th k-point nmo = 44 (0.27639,-0.09213,0.46064) ==
 == 564-th k-point nmo = 44 (0.36851,-0.00000,0.36851) ==
 == 565-th k-point nmo = 44 (0.46064,0.09213,0.27639) ==
 == 566-th k-point nmo = 44 (0.55277,0.18426,0.18426) ==
 == 567-th k-point nmo = 44 (-1.01341,0.27639,0.27639) ==
 == 568-th k-point nmo = 44 (-0.92129,0.36851,0.18426) ==
 == 569-th k-point nmo = 44 (-0.82916,0.46064,0.09213) ==
 == 570-th k-point nmo = 44 (-0.73703,0.55277,0.00000) ==
 == 571-th k-point nmo = 44 (-0.64490,0.64490,-0.09213) ==
 == 572-th k-point nmo = 44 (-0.55277,0.73703,-0.18426) ==
 == 573-th k-point nmo = 44 (-0.46064,0.82916,-0.27639) ==
 == 574-th k-point nmo = 44 (-0.36851,0.92129,-0.36851) ==
 == 575-th k-point nmo = 44 (-0.27639,1.01341,-0.46064) ==
 == 576-th k-point nmo = 44 (-0.92129,0.18426,0.36851) ==
 == 577-th k-point nmo = 44 (-0.82916,0.27639,0.27639) ==
 == 578-th k-point nmo = 44 (-0.73703,0.36851,0.18426) ==
 == 579-th k-point nmo = 44 (-0.64490,0.46064,0.09213) ==
 == 580-th k-point nmo = 44 (-0.55277,0.55277,0.00000) ==
 == 581-th k-point nmo = 44 (-0.46064,0.64490,-0.09213) ==
 == 582-th k-point nmo = 44 (-0.36851,0.73703,-0.18426) ==
 == 583-th k-point nmo = 44 (-0.27639,0.82916,-0.27639) ==
 == 584-th k-point nmo = 44 (-0.18426,0.92129,-0.36851) ==
 == 585-th k-point nmo = 44 (-0.82916,0.09213,0.46064) ==
 == 586-th k-point nmo = 44 (-0.73703,0.18426,0.36851) ==
 == 587-th k-point nmo = 44 (-0.64490,0.27639,0.27639) ==
 == 588-th k-point nmo = 44 (-0.55277,0.36851,0.18426) ==
 == 589-th k-point nmo = 44 (-0.46064,0.46064,0.09213) ==
 == 590-th k-point nmo = 44 (-0.36851,0.55277,0.00000) ==
 == 591-th k-point nmo = 44 (-0.27639,0.64490,-0.09213) ==
 == 592-th k-point nmo = 44 (-0.18426,0.73703,-0.18426) ==
 == 593-th k-point nmo = 44 (-0.09213,0.82916,-0.27639) ==
 == 594-th k-point nmo = 44 (-0.73703,-0.00000,0.55277) ==
 == 595-th k-point nmo = 44 (-0.64490,0.09213,0.46064) ==
 == 596-th k-point nmo = 44 (-0.55277,0.18426,0.36851) ==
 == 597-th k-point nmo = 44 (-0.46064,0.27639,0.27639) ==
 == 598-th k-point nmo = 44 (-0.36851,0.36851,0.18426) ==
 == 599-th k-point nmo = 44 (-0.27639,0.46064,0.09213) ==
 == 600-th k-point nmo = 44 (-0.18426,0.55277,0.00000) ==
 == 601-th k-point nmo = 44 (-0.09213,0.64490,-0.09213) ==
 == 602-th k-point nmo = 44 (0.00000,0.73703,-0.18426) ==
 == 603-th k-point nmo = 44 (-0.64490,-0.09213,0.64490) ==
 == 604-th k-point nmo = 44 (-0.55277,-0.00000,0.55277) ==
 == 605-th k-point nmo = 44 (-0.46064,0.09213,0.46064) ==
 == 606-th k-point nmo = 44 (-0.36851,0.18426,0.36851) ==
 == 607-th k-point nmo = 45 (-0.27639,0.27639,0.27639) ==
 == 608-th k-point nmo = 44 (-0.18426,0.36851,0.18426) ==
 == 609-th k-point nmo = 44 (-0.09213,0.46064,0.09213) ==
 == 610-th k-point nmo = 44 (0.00000,0.55277,0.00000) ==
 == 611-th k-point nmo = 44 (0.09213,0.64490,-0.09213) ==
 == 612-th k-point nmo = 44 (-0.55277,-0.18426,0.73703) ==
 == 613-th k-point nmo = 44 (-0.46064,-0.09213,0.64490) ==
 == 614-th k-point nmo = 44 (-0.36851,-0.00000,0.55277) ==
 == 615-th k-point nmo = 44 (-0.27639,0.09213,0.46064) ==
 == 616-th k-point nmo = 44 (-0.18426,0.18426,0.36851) ==
 == 617-th k-point nmo = 44 (-0.09213,0.27639,0.27639) ==
 == 618-th k-point nmo = 44 (0.00000,0.36851,0.18426) ==
 == 619-th k-point nmo = 44 (0.09213,0.46064,0.09213) ==
 == 620-th k-point nmo = 44 (0.18426,0.55277,0.00000) ==
[...]
 7.08359 7.08615 7.09932 7.19402 7.23379 7.24427 7.37421 8.46200 8.59544 8.60349
 8.81206 9.01315 15.91680 57.09572
 == 685-th k-point (-0.64490,0.09213,0.64490) occupation: 6==
 -23.85930 -1.46351 -0.67102 -0.05900 -0.01580 0.00819 0.56295 0.61050 0.71979 0.77155
 1.01539 1.34188 1.40163 1.53977 1.77217 1.85629 1.90020 2.26385 2.48839 2.67478
 2.70921 2.74174 3.43740 4.20588 4.36690 4.43263 4.75573 6.49920 6.56665 6.70774
 7.08454 7.08815 7.10108 7.12785 7.21696 7.24084 7.31155 8.48934 8.73337 8.77312
 8.81544 9.01407 15.98938 57.16676
 == 686-th k-point (-0.55277,0.18426,0.55277) occupation: 6==
 -23.85930 -1.46370 -0.67447 -0.05144 -0.00882 0.01787 0.50489 0.62057 0.74153 0.75627
 1.14592 1.28590 1.42109 1.42861 1.71937 1.80343 1.83228 2.34346 2.46109 2.70327
 2.73636 2.85270 3.46691 4.13375 4.24060 4.34408 4.82103 6.48742 6.59701 6.64880
 7.08945 7.09540 7.09679 7.10745 7.18060 7.21097 7.25591 8.55284 8.75855 8.80549
 8.87219 8.97049 16.02049 57.30807
 == 687-th k-point (-0.46064,0.27639,0.46064) occupation: 6==
 -23.85931 -1.46393 -0.67789 -0.05522 0.01541 0.02605 0.45593 0.64348 0.74442 0.75186
 1.25037 1.25969 1.34801 1.40695 1.58327 1.81036 1.89757 2.39874 2.44453 2.66907
 2.73194 2.96681 3.39526 3.98939 4.04164 4.32106 4.87395 6.38874 6.61532 6.77351
 7.08369 7.09576 7.09965 7.11486 7.11608 7.13476 7.29158 8.61331 8.68081 8.80902
 8.84895 8.93392 15.90898 57.42442
 == 688-th k-point (-0.36851,0.36851,0.36851) occupation: 6==
 -23.85932 -1.46407 -0.67973 -0.05514 0.02847 0.02847 0.43659 0.66488 0.74233 0.74233
 1.31090 1.31090 1.33188 1.49994 1.49994 1.73617 1.91342 2.41082 2.41082 2.73019
 2.86881 2.99700 2.99700 3.96574 3.96574 4.17292 4.96302 6.55991 6.55991 6.81475
 7.08359 7.08681 7.08681 7.10188 7.10622 7.10622 7.28767 8.62924 8.62924 8.81390
 8.95486 8.95486 15.10678 57.54396
 == 689-th k-point (-0.27639,0.46064,0.27639) occupation: 6==
 -23.85932 -1.46410 -0.67920 -0.04970 0.01953 0.02382 0.45547 0.64871 0.75410 0.75466
 1.14045 1.32774 1.34496 1.43095 1.51387 1.77773 1.93499 2.38088 2.44675 2.63672
 2.73105 2.93789 3.33502 3.98976 4.08426 4.26867 5.04321 6.35932 6.48708 6.80775
 7.08864 7.09772 7.10014 7.11831 7.13217 7.14037 7.27851 8.59850 8.66442 8.80108
 8.84521 8.93259 15.83960 57.63911
 == 690-th k-point (-0.18426,0.55277,0.18426) occupation: 6==
 -23.85932 -1.46396 -0.67653 -0.04698 0.00241 0.01464 0.50005 0.64105 0.73948 0.77122
 1.00912 1.33114 1.45403 1.49209 1.58717 1.72663 1.91683 2.32632 2.44895 2.67401
 2.71424 2.86068 3.35215 4.00711 4.27883 4.33462 5.04775 6.39553 6.46488 6.76378
 7.08849 7.09483 7.11492 7.11512 7.18472 7.19664 7.24653 8.54951 8.69992 8.79100
 8.88136 8.93263 15.91998 57.63579
 == 691-th k-point (-0.09213,0.64490,0.09213) occupation: 6==
 -23.85932 -1.46373 -0.67289 -0.05930 -0.00062 0.00550 0.54504 0.66193 0.71453 0.78497
 0.90353 1.33130 1.52734 1.59368 1.71096 1.74569 2.03419 2.25606 2.44222 2.61094
 2.72135 2.72176 3.34948 4.03297 4.37190 4.52426 5.03390 6.40487 6.47797 6.87166
 7.08443 7.08934 7.11185 7.17377 7.22142 7.23765 7.25973 8.49398 8.59329 8.75139
 8.80040 8.98307 15.94132 57.53241
 == 692-th k-point (0.00000,0.73703,0.00000) occupation: 6==
 -23.85930 -1.46352 -0.66996 -0.07226 0.00043 0.00043 0.57426 0.69129 0.78981 0.78981
 1.33056 1.53750 1.68731 1.68731 2.00130 2.00130 2.17611 2.19874 2.35141 2.48181
 2.48181 2.53575 3.35626 4.50545 4.68732 4.68732 4.91883 6.50679 6.50679 7.03471
 7.08359 7.08535 7.23533 7.23655 7.23655 7.35175 7.35175 8.43841 8.45488 8.54903
 8.54903 9.00523 15.90890 57.27296
 == 693-th k-point (-0.64490,-0.09213,0.82916) occupation: 6==
 -23.85931 -1.46350 -0.67029 -0.06519 -0.00941 0.00372 0.57389 0.63043 0.69315 0.77465
 0.91194 1.32927 1.44049 1.61198 1.73726 1.93273 2.08815 2.21826 2.47246 2.50314
 2.64024 2.73586 3.46252 4.03800 4.32560 4.56209 4.94317 6.44660 6.54878 6.84713
 7.08485 7.08622 7.09640 7.16735 7.23080 7.23877 7.32137 8.46446 8.60779 8.68202
 8.81438 9.03565 16.03924 57.48341
 == 694-th k-point (-0.55277,-0.00000,0.73703) occupation: 6==
 -23.85932 -1.46343 -0.67007 -0.05727 -0.02283 0.00666 0.58880 0.59427 0.70050 0.76168
 0.99579 1.31638 1.35734 1.53263 1.77061 1.85784 2.12031 2.21601 2.47735 2.51921
 2.70039 2.74609 3.50709 4.09878 4.30107 4.38248 4.93080 6.48947 6.62926 6.67951
 7.08484 7.08827 7.09398 7.12004 7.22758 7.23571 7.31121 8.46195 8.66969 8.77338
 8.82297 9.04798 16.06834 57.50980
 == 695-th k-point (-0.46064,0.09213,0.64490) occupation: 6==
 -23.85931 -1.46356 -0.67236 -0.04565 -0.02671 0.01385 0.54019 0.60355 0.73088 0.75292
 1.12474 1.21798 1.40357 1.46240 1.79813 1.81030 2.06279 2.24930 2.46105 2.57545
 2.71923 2.74818 3.51477 4.12290 4.33181 4.36297 4.89955 6.49146 6.53396 6.74440
 7.08446 7.08935 7.09094 7.09629 7.20089 7.23799 7.28481 8.46977 8.72488 8.79133
 8.81849 9.02886 16.05120 57.48963
 == 696-th k-point (-0.36851,0.18426,0.55277) occupation: 6==
 -23.85931 -1.46382 -0.67597 -0.04997 -0.00256 0.02105 0.48862 0.62671 0.74645 0.75498
 1.15691 1.25417 1.40302 1.44208 1.76491 1.80207 1.86839 2.34283 2.44699 2.70324
 2.73036 2.76685 3.45882 4.05332 4.27511 4.36761 4.91006 6.42511 6.51941 6.81131
 7.08707 7.08877 7.09730 7.10862 7.13525 7.21722 7.25953 8.54380 8.75278 8.79598
 8.82457 8.93935 15.97403 57.47889
 == 697-th k-point (-0.27639,0.27639,0.46064) occupation: 6==
 -23.85932 -1.46410 -0.67920 -0.04970 0.01953 0.02382 0.45547 0.64871 0.75410 0.75466
 1.14045 1.32774 1.34496 1.43095 1.51387 1.77773 1.93499 2.38088 2.44675 2.63672
 2.73105 2.93789 3.33502 3.98976 4.08426 4.26867 5.04321 6.35932 6.48708 6.80775
 7.08864 7.09772 7.10014 7.11831 7.13217 7.14037 7.27851 8.59850 8.66442 8.80108
 8.84521 8.93259 15.83960 57.63911
 == 698-th k-point (-0.18426,0.36851,0.36851) occupation: 6==
 -23.85933 -1.46426 -0.68059 -0.04301 0.01501 0.03014 0.45220 0.64895 0.75761 0.76674
 1.15420 1.30718 1.37457 1.45299 1.54344 1.76173 1.98034 2.38032 2.39667 2.63880
 2.73844 2.96637 3.31013 3.89334 4.09589 4.29486 5.15486 6.32125 6.60372 6.89256
 7.08740 7.09615 7.09678 7.09931 7.10457 7.14284 7.26086 8.61391 8.66707 8.79663
 8.84429 8.92729 15.65255 57.79808
 == 699-th k-point (-0.09213,0.46064,0.27639) occupation: 6==
 -23.85933 -1.46423 -0.67956 -0.03648 0.00274 0.02461 0.47637 0.64307 0.75678 0.77255
 1.07418 1.30238 1.42753 1.50733 1.68257 1.72210 1.98588 2.29771 2.42596 2.66376
 2.71762 2.79433 3.35453 4.12551 4.16155 4.43199 5.16042 6.33056 6.49868 6.90607
 7.09081 7.09233 7.10864 7.11450 7.13185 7.20603 7.23251 8.53204 8.70565 8.77434
 8.81991 8.92381 15.79201 57.81762
 == 700-th k-point (0.00000,0.55277,0.18426) occupation: 6==
 -23.85933 -1.46402 -0.67656 -0.04442 -0.00033 0.01347 0.51144 0.65176 0.73280 0.78042
 0.96731 1.32705 1.50583 1.55554 1.67391 1.74749 2.14020 2.22196 2.42790 2.57632
 2.70508 2.72359 3.37546 4.09546 4.29319 4.54293 5.13184 6.35060 6.45567 6.95602
 7.08647 7.09131 7.09410 7.15370 7.20307 7.21825 7.24881 8.47358 8.59149 8.75879
 8.78711 8.97980 15.90397 57.73846
 == 701-th k-point (0.09213,0.64490,0.09213) occupation: 6==
 -23.85932 -1.46373 -0.67289 -0.05930 -0.00062 0.00550 0.54504 0.66193 0.71453 0.78497
 0.90353 1.33130 1.52734 1.59368 1.71096 1.74569 2.03419 2.25606 2.44222 2.61094
 2.72135 2.72176 3.34948 4.03297 4.37190 4.52426 5.03391 6.40487 6.47797 6.87166
 7.08443 7.08934 7.11185 7.17377 7.22142 7.23765 7.25973 8.49398 8.59329 8.75139
 8.80040 8.98307 15.94132 57.53241
 == 702-th k-point (-0.55277,-0.18426,0.92129) occupation: 6==
 -23.85932 -1.46365 -0.67298 -0.05111 -0.01488 0.01159 0.53755 0.61789 0.72234 0.76423
 1.02431 1.30196 1.41488 1.50367 1.74039 1.85420 2.01192 2.26098 2.46805 2.58643
 2.70615 2.72706 3.47292 4.09088 4.26441 4.48377 4.92636 6.43731 6.52813 6.79759
 7.08490 7.08905 7.09761 7.11914 7.20328 7.23836 7.27861 8.48163 8.70640 8.75344
 8.80614 9.01826 16.00127 57.51005
 == 703-th k-point (-0.46064,-0.09213,0.82916) occupation: 6==
 -23.85932 -1.46345 -0.67060 -0.04629 -0.03292 0.00830 0.57676 0.60001 0.69909 0.75247
 1.09166 1.20072 1.38562 1.48566 1.77030 1.81688 2.15619 2.21717 2.46731 2.51143
 2.73423 2.73679 3.51766 4.15253 4.21306 4.31976 4.93557 6.52663 6.57211 6.69439
 7.08588 7.08906 7.09232 7.09349 7.22884 7.23040 7.29923 8.46316 8.69063 8.80810
 8.81519 9.05208 16.04942 57.55301
 == 704-th k-point (-0.36851,-0.00000,0.73703) occupation: 6==
 -23.85932 -1.46345 -0.67060 -0.04629 -0.03292 0.00830 0.57676 0.60001 0.69909 0.75247
 1.09166 1.20072 1.38562 1.48566 1.77030 1.81688 2.15619 2.21717 2.46731 2.51143
 2.73423 2.73679 3.51766 4.15253 4.21306 4.31976 4.93557 6.52663 6.57211 6.69439
 7.08588 7.08906 7.09232 7.09349 7.22884 7.23040 7.29923 8.46316 8.69063 8.80810
 8.81519 9.05208 16.04942 57.55301
 == 705-th k-point (-0.27639,0.09213,0.64490) occupation: 6==
 -23.85932 -1.46365 -0.67298 -0.05111 -0.01488 0.01159 0.53755 0.61789 0.72234 0.76423
 1.02431 1.30196 1.41488 1.50367 1.74039 1.85420 2.01191 2.26097 2.46805 2.58643
 2.70615 2.72706 3.47292 4.09088 4.26441 4.48377 4.92636 6.43731 6.52813 6.79759
 7.08490 7.08905 7.09761 7.11914 7.20328 7.23836 7.27860 8.48163 8.70640 8.75344
 8.80614 9.01826 16.00127 57.51005
 == 706-th k-point (-0.18426,0.18426,0.55277) occupation: 6==
 -23.85932 -1.46396 -0.67653 -0.04698 0.00241 0.01464 0.50005 0.64105 0.73948 0.77122
 1.00912 1.33114 1.45403 1.49209 1.58717 1.72663 1.91683 2.32632 2.44895 2.67401
 2.71424 2.86068 3.35215 4.00711 4.27883 4.33462 5.04775 6.39553 6.46488 6.76378
 7.08849 7.09483 7.11492 7.11512 7.18472 7.19664 7.24653 8.54951 8.69992 8.79100
 8.88136 8.93263 15.91998 57.63579
 == 707-th k-point (-0.09213,0.27639,0.46064) occupation: 6==
 -23.85933 -1.46423 -0.67956 -0.03648 0.00274 0.02461 0.47637 0.64307 0.75678 0.77255
 1.07418 1.30238 1.42753 1.50733 1.68257 1.72210 1.98588 2.29771 2.42596 2.66376
 2.71762 2.79433 3.35453 4.12551 4.16155 4.43199 5.16042 6.33056 6.49868 6.90607
 7.09081 7.09233 7.10864 7.11450 7.13185 7.20603 7.23251 8.53204 8.70565 8.77434
 8.81991 8.92381 15.79201 57.81762
 == 708-th k-point (0.00000,0.36851,0.36851) occupation: 6==
 -23.85933 -1.46434 -0.68074 -0.02862 -0.00308 0.03067 0.46861 0.63814 0.76909 0.77097
 1.12104 1.27777 1.42474 1.50772 1.74814 1.96448 2.11965 2.19749 2.32518 2.66485
 2.73681 2.90129 3.35303 3.84093 4.37432 4.57373 5.20162 6.31566 6.89433 6.93475
 7.08359 7.08918 7.10401 7.10714 7.16999 7.20611 7.26231 8.45082 8.75019 8.75850
 8.86825 8.87781 15.63963 57.88786
 == 709-th k-point (0.09213,0.46064,0.27639) occupation: 6==
 -23.85933 -1.46423 -0.67956 -0.03648 0.00274 0.02461 0.47637 0.64307 0.75678 0.77255
 1.07418 1.30238 1.42753 1.50733 1.68257 1.72210 1.98588 2.29771 2.42596 2.66376
 2.71762 2.79433 3.35453 4.12551 4.16154 4.43199 5.16042 6.33056 6.49868 6.90607
 7.09081 7.09233 7.10864 7.11450 7.13185 7.20603 7.23251 8.53204 8.70565 8.77434
 8.81991 8.92381 15.79201 57.81762
 == 710-th k-point (0.18426,0.55277,0.18426) occupation: 6==
 -23.85932 -1.46396 -0.67653 -0.04698 0.00241 0.01464 0.50005 0.64105 0.73948 0.77122
 1.00912 1.33114 1.45403 1.49209 1.58717 1.72663 1.91683 2.32632 2.44895 2.67401
 2.71424 2.86068 3.35215 4.00711 4.27883 4.33462 5.04775 6.39553 6.46488 6.76378
 7.08849 7.09483 7.11492 7.11512 7.18472 7.19664 7.24653 8.54951 8.69992 8.79100
 8.88136 8.93263 15.91998 57.63579
 == 711-th k-point (-0.46064,-0.27639,1.01341) occupation: 6==
 -23.85931 -1.46382 -0.67597 -0.04997 -0.00256 0.02105 0.48862 0.62671 0.74645 0.75498
 1.15691 1.25417 1.40302 1.44208 1.76492 1.80207 1.86839 2.34283 2.44699 2.70324
 2.73036 2.76685 3.45882 4.05332 4.27511 4.36761 4.91006 6.42511 6.51941 6.81131
 7.08707 7.08877 7.09730 7.10862 7.13525 7.21722 7.25953 8.54380 8.75278 8.79598
 8.82457 8.93935 15.97403 57.47889
 == 712-th k-point (-0.36851,-0.18426,0.92129) occupation: 6==
 -23.85931 -1.46356 -0.67236 -0.04565 -0.02671 0.01385 0.54019 0.60355 0.73088 0.75292
 1.12474 1.21798 1.40357 1.46240 1.79813 1.81030 2.06279 2.24930 2.46105 2.57545
 2.71923 2.74818 3.51477 4.12290 4.33181 4.36297 4.89955 6.49145 6.53396 6.74440
 7.08446 7.08935 7.09094 7.09629 7.20089 7.23799 7.28481 8.46977 8.72488 8.79133
 8.81849 9.02886 16.05120 57.48963
 == 713-th k-point (-0.27639,-0.09213,0.82916) occupation: 6==
 -23.85932 -1.46343 -0.67007 -0.05727 -0.02283 0.00666 0.58880 0.59427 0.70050 0.76168
 0.99579 1.31638 1.35735 1.53263 1.77061 1.85784 2.12030 2.21601 2.47735 2.51920
 2.70039 2.74609 3.50709 4.09878 4.30107 4.38248 4.93080 6.48947 6.62926 6.67951
 7.08484 7.08827 7.09398 7.12004 7.22758 7.23571 7.31121 8.46195 8.66969 8.77338
 8.82297 9.04798 16.06834 57.50980
 == 714-th k-point (-0.18426,-0.00000,0.73703) occupation: 6==
 -23.85931 -1.46350 -0.67029 -0.06519 -0.00941 0.00372 0.57389 0.63043 0.69315 0.77465
 0.91194 1.32927 1.44049 1.61198 1.73726 1.93273 2.08814 2.21826 2.47246 2.50314
 2.64024 2.73586 3.46252 4.03800 4.32560 4.56209 4.94317 6.44660 6.54878 6.84713
 7.08485 7.08622 7.09640 7.16735 7.23080 7.23877 7.32137 8.46446 8.60779 8.68202
 8.81438 9.03565 16.03924 57.48341
 == 715-th k-point (-0.09213,0.09213,0.64490) occupation: 6==
 -23.85932 -1.46373 -0.67289 -0.05930 -0.00062 0.00550 0.54504 0.66193 0.71453 0.78497
 0.90353 1.33130 1.52734 1.59368 1.71096 1.74569 2.03419 2.25606 2.44222 2.61094
 2.72135 2.72176 3.34948 4.03297 4.37190 4.52426 5.03390 6.40487 6.47797 6.87166
 7.08443 7.08934 7.11185 7.17377 7.22142 7.23765 7.25973 8.49398 8.59329 8.75139
 8.80040 8.98307 15.94132 57.53241
 == 716-th k-point (0.00000,0.18426,0.55277) occupation: 6==
 -23.85933 -1.46402 -0.67656 -0.04442 -0.00033 0.01347 0.51144 0.65176 0.73280 0.78042
 0.96731 1.32705 1.50583 1.55554 1.67391 1.74749 2.14020 2.22196 2.42790 2.57632
 2.70508 2.72359 3.37546 4.09546 4.29319 4.54293 5.13184 6.35060 6.45567 6.95602
 7.08647 7.09131 7.09410 7.15370 7.20307 7.21825 7.24881 8.47358 8.59149 8.75879
 8.78711 8.97980 15.90397 57.73846
 == 717-th k-point (0.09213,0.27639,0.46064) occupation: 6==
 -23.85933 -1.46423 -0.67956 -0.03648 0.00274 0.02461 0.47637 0.64307 0.75678 0.77255
 1.07418 1.30238 1.42753 1.50733 1.68257 1.72210 1.98588 2.29771 2.42596 2.66376
 2.71762 2.79433 3.35453 4.12551 4.16154 4.43199 5.16042 6.33056 6.49868 6.90607
 7.09081 7.09233 7.10864 7.11450 7.13185 7.20603 7.23251 8.53204 8.70565 8.77434
 8.81991 8.92381 15.79201 57.81762
 == 718-th k-point (0.18426,0.36851,0.36851) occupation: 6==
 -23.85933 -1.46426 -0.68059 -0.04301 0.01501 0.03014 0.45220 0.64895 0.75761 0.76674
 1.15420 1.30718 1.37457 1.45299 1.54344 1.76173 1.98034 2.38032 2.39667 2.63880
 2.73844 2.96637 3.31013 3.89334 4.09589 4.29486 5.15486 6.32125 6.60372 6.89256
 7.08740 7.09615 7.09678 7.09931 7.10457 7.14284 7.26086 8.61391 8.66707 8.79663
 8.84429 8.92729 15.65255 57.79808
 == 719-th k-point (0.27639,0.46064,0.27639) occupation: 6==
 -23.85932 -1.46410 -0.67920 -0.04970 0.01953 0.02382 0.45547 0.64871 0.75410 0.75466
 1.14045 1.32774 1.34496 1.43095 1.51387 1.77774 1.93499 2.38088 2.44675 2.63672
 2.73105 2.93789 3.33502 3.98976 4.08426 4.26867 5.04321 6.35932 6.48708 6.80775
 7.08864 7.09772 7.10014 7.11831 7.13217 7.14037 7.27851 8.59850 8.66442 8.80108
 8.84521 8.93259 15.83960 57.63911
 == 720-th k-point (-0.36851,-0.36851,1.10554) occupation: 6==
 -23.85931 -1.46393 -0.67789 -0.05522 0.01541 0.02605 0.45593 0.64348 0.74442 0.75186
 1.25037 1.25969 1.34801 1.40695 1.58327 1.81036 1.89757 2.39874 2.44453 2.66907
 2.73194 2.96681 3.39526 3.98939 4.04164 4.32106 4.87395 6.38874 6.61532 6.77351
 7.08369 7.09576 7.09965 7.11486 7.11608 7.13476 7.29158 8.61331 8.68081 8.80902
 8.84895 8.93392 15.90898 57.42442
 == 721-th k-point (-0.27639,-0.27639,1.01341) occupation: 6==
 -23.85930 -1.46370 -0.67447 -0.05144 -0.00882 0.01787 0.50489 0.62057 0.74153 0.75627
 1.14592 1.28590 1.42109 1.42861 1.71937 1.80343 1.83228 2.34346 2.46109 2.70327
 2.73636 2.85270 3.46691 4.13375 4.24059 4.34408 4.82103 6.48742 6.59701 6.64880
 7.08945 7.09540 7.09679 7.10745 7.18060 7.21097 7.25591 8.55284 8.75855 8.80549
 8.87219 8.97049 16.02049 57.30807
 == 722-th k-point (-0.18426,-0.18426,0.92129) occupation: 6==
 -23.85930 -1.46351 -0.67102 -0.05900 -0.01580 0.00819 0.56295 0.61050 0.71979 0.77155
 1.01539 1.34188 1.40163 1.53977 1.77217 1.85629 1.90020 2.26385 2.48839 2.67478
 2.70921 2.74174 3.43740 4.20588 4.36690 4.43263 4.75573 6.49920 6.56665 6.70774
 7.08454 7.08815 7.10108 7.12785 7.21696 7.24084 7.31155 8.48934 8.73337 8.77312
 8.81544 9.01407 15.98938 57.16676
 == 723-th k-point (-0.09213,-0.09213,0.82916) occupation: 6==
 -23.85929 -1.46344 -0.66921 -0.07204 -0.00592 0.00145 0.58608 0.64604 0.69577 0.78450
 0.89145 1.34121 1.47699 1.66489 1.75368 1.98535 2.03075 2.21624 2.50482 2.50887
 2.55504 2.73547 3.38857 4.07220 4.60632 4.61499 4.67071 6.45676 6.53786 6.91175
 7.08359 7.08615 7.09932 7.19402 7.23379 7.24427 7.37421 8.46200 8.59544 8.60349
 8.81206 9.01315 15.91680 57.09572
 == 724-th k-point (0.00000,-0.00000,0.73703) occupation: 6==
 -23.85930 -1.46352 -0.66996 -0.07226 0.00043 0.00043 0.57426 0.69129 0.78981 0.78981
 1.33056 1.53750 1.68731 1.68731 2.00130 2.00130 2.17611 2.19874 2.35141 2.48181
 2.48181 2.53575 3.35626 4.50545 4.68732 4.68732 4.91883 6.50679 6.50679 7.03471
 7.08359 7.08535 7.23533 7.23655 7.23655 7.35175 7.35175 8.43841 8.45488 8.54903
 8.54903 9.00523 15.90890 57.27296
 == 725-th k-point (0.09213,0.09213,0.64490) occupation: 6==
 -23.85932 -1.46373 -0.67289 -0.05930 -0.00062 0.00550 0.54504 0.66193 0.71453 0.78497
 0.90353 1.33130 1.52734 1.59368 1.71096 1.74569 2.03419 2.25606 2.44222 2.61094
 2.72135 2.72176 3.34948 4.03297 4.37190 4.52426 5.03391 6.40487 6.47797 6.87166
 7.08443 7.08934 7.11185 7.17377 7.22142 7.23765 7.25973 8.49398 8.59329 8.75139
 8.80040 8.98307 15.94132 57.53241
 == 726-th k-point (0.18426,0.18426,0.55277) occupation: 6==
 -23.85932 -1.46396 -0.67653 -0.04698 0.00241 0.01464 0.50005 0.64105 0.73948 0.77122
 1.00912 1.33114 1.45403 1.49209 1.58717 1.72663 1.91683 2.32632 2.44895 2.67401
 2.71424 2.86068 3.35215 4.00711 4.27883 4.33462 5.04775 6.39553 6.46488 6.76378
 7.08849 7.09483 7.11492 7.11512 7.18472 7.19664 7.24653 8.54951 8.69992 8.79100
 8.88136 8.93263 15.91998 57.63579
 == 727-th k-point (0.27639,0.27639,0.46064) occupation: 6==
 -23.85932 -1.46410 -0.67920 -0.04970 0.01953 0.02382 0.45547 0.64871 0.75410 0.75466
 1.14045 1.32774 1.34496 1.43095 1.51387 1.77774 1.93499 2.38088 2.44675 2.63672
 2.73105 2.93789 3.33502 3.98976 4.08426 4.26867 5.04321 6.35932 6.48708 6.80775
 7.08864 7.09772 7.10014 7.11831 7.13217 7.14037 7.27851 8.59850 8.66442 8.80108
 8.84521 8.93259 15.83960 57.63911
 == 728-th k-point (0.36851,0.36851,0.36851) occupation: 6==
 -23.85932 -1.46407 -0.67973 -0.05514 0.02847 0.02847 0.43659 0.66488 0.74233 0.74233
 1.31090 1.31090 1.33188 1.49994 1.49994 1.73617 1.91342 2.41082 2.41082 2.73019
 2.86881 2.99700 2.99700 3.96574 3.96574 4.17292 4.96302 6.55991 6.55991 6.81475
 7.08359 7.08681 7.08681 7.10188 7.10622 7.10622 7.28767 8.62924 8.62924 8.81390
 8.95486 8.95486 15.10678 57.54396
 ---------------------------------------------------------------------------
 VBM is at 364-th k-point with 0.99963 eV
 CBM is at 364-th k-point with 10.16314 eV
 Band gap is 9.16351 eV


           Ground-State Mulliken Net Atomic Charges

      Atom                 Charge (a.u.)          Spin (a.u.)
   --------------------------------------------------------
      1 Li               (0.815770,-0.000000)    (0.000000,0.000000)
      2  F               (-0.815770,0.000000)    (0.000000,0.000000)
   --------------------------------------------------------
  Sum of atomic charges =      (0.000000,-0.000000)
  Sum of spin   charges =       (0.000000,0.000000)



 Total job time:  410.12 s.
 Tue Sep  9 03:15:45 2025


        *************************************************************
        *                                                           *
        *  Thank you very much for using QCPBC. Have a nice day.    *
        *                                                           *
        *************************************************************

Running job 1 of 1
