                  Welcome to Q-Chem
           with Periodic Boundary Condition
     A Quantum Leap Into The Future Of Chemistry

 Adam Rettig, Xintian Feng, Meng-Fu Chen, Hieu Dinh, Stephen Quiton,
 Anton Ni, Paul J. Robinson, Jinghong Zhang, Joonho Lee

Contributors to earlier versions of Q-Chem not listed above:
 Evgeny Epifanovsky, Leo Cunha, Jerome F. Gonthier, Kuan-Yu Liu
 Input file: /n/netscratch/joonholee_lab/Lab/hieudinh//lif_solve_def2tzvp_omega_0.6_777.scratch20250909011546/lif_solve_def2tzvp_omega_0.6_777.0
 Scratch folder: /n/netscratch/joonholee_lab/Lab/hieudinh//lif_solve_def2tzvp_omega_0.6_777.scratch20250909011546
 Auxillary files located at: /n/holylabs/LABS/joonholee_lab/Lab/qchem_base/qcaux
 Q-Chem begins on Tue Sep  9 01:15:47 2025

 -------------------------------------------------------------
 User input:
 -------------------------------------------------------------
 $lattice
 3
 0.000000 2.005000 2.005000
 2.005000 0.000000 2.005000
 2.005000 2.005000 0.000000
 $end
 
 $unitcell
 ABSOLUTE
 0 1
 Li 0.000000 0.000000 0.000000
 F  2.005000 0.000000 0.000000
 $end
 
 $rem
 jobtype = sp
 method = pbe
 scf_convergence = 5
 scf_guess = autosad
 scf_algorithm = gdm
 basis = def2-tzvp
 aux_basis = gen
 input_bohr = false
 symmetry false
 is_basis_uctr true
 rsdf_print_level 1
 
 mp_mesh = [7,7,7]
 
 integral_direct true
 bvk_cgto true
 
 thresh 14
 mem_total 100000
 threads 32
 
 MAX_SCF_CYCLES 400
 madelung = false
 omega 0.6
 do_rij_bigmem true
 automate_g true
 print_level 10
 grid_type_xc 1
 
 thresh_1e2c_sp 1e-14
 thresh_2e3c_bra_ket_sep 1e-10
 thresh_g 1e-12
 $end
 
 $aux_basis
 Li     0
 S   7   1.00
     498.3689730              0.0207908
     162.9342738              0.0542177
      57.3246735              0.1776783
      21.6427314              0.4181150
       8.7345375              0.6535245
       3.7491039              0.5492618
       1.7006754              0.1701425
 S   1   1.00
       0.8090859             -0.0097548
 S   1   1.00
       0.4000933             -0.0050152
 S   1   1.00
       0.2035793              0.0232200
 !S   1   1.00
 !      0.1054201              0.0134535
 !S   1   1.00
 !      0.0549139              0.0006647
 P   2   1.00
      10.7024696              0.0072923
       3.6551543              0.0060940
 P   1   1.00
       1.2464013              0.0172529
 P   1   1.00
       0.4246282             -0.0160026
 P   1   1.00
       0.1446192             -0.0195111
 D   2   1.00
       1.1510647             -0.0014314
       0.6019112              0.0038969
 D   1   1.00
       0.3109573              0.0024683
 D   1   1.00
       0.1600032              0.0036451
 F   2   1.00
       0.5967918              0.0010494
       0.1790687              0.0006468
 G   1   1.00
       1.0460130             -0.0001971
 ****
 F     0
 S   7   1.00
    3514.9201549              0.1805835
    1231.2458815              0.3676084
     454.1367336              1.2707881
     175.8376258              2.8274164
      71.2081775              4.3588226
      30.0316883              2.7180994
      13.1259023             -0.0804726
 S   1   1.00
       5.9126861             -0.0023370
 S   1   1.00
       2.7284431              1.1236274
 S   1   1.00
       1.2813993              0.9999042
 S   1   1.00
       0.6082793              0.3119579
 S   1   1.00
       0.2897894              0.0312295
 P   2   1.00
      49.3740409             -0.0346332
      13.4874956             -0.0096069
 P   1   1.00
       3.9664900              0.0762067
 P   1   1.00
       1.2226629             -0.0103329
 P   1   1.00
       0.3830317              0.0018853
 D   2   1.00
      29.9719140             -0.0113316
       6.7860915             -0.0467639
 D   1   1.00
       1.8137313             -0.0167604
 D   1   1.00
       0.5157840             -0.0050777
 F   2   1.00
       2.8301877              1.0
       0.9155962              1.0
 G   1   1.00
       1.6097500             -0.0005411
 ****
 $end
 -------------------------------------------------------------
 Running PBC job

 Requested Exchange Correlation Functionals: 
  DFT Exchange:  1.00000 pbe_x
  DFT Correlation:  1.00000 pbe_c
 using 32 threads for computing.
 ---------------------------------------------------------------
      Coordinates of Atoms in Central Unit Cell (Angstroms)
    I     Atom         X            Y            Z
 ---------------------------------------------------------------
    1      Li      0.000000     0.000000     0.000000
    2       F      2.005000     0.000000     0.000000
 ---------------------------------------------------------------
 --------------------------------------------------
              Lattice Vectors (Angstroms)
              X            Y            Z
 --------------------------------------------------
   X       0.000000     2.005000     2.005000
   Y       2.005000     0.000000     2.005000
   Z       2.005000     2.005000     0.000000
 --------------------------------------------------
 --------------------------------------------------
       Reciprocal Lattice Vectors (Angstroms^-1)
              X            Y            Z
 --------------------------------------------------
   X      -1.566879     1.566879     1.566879
   Y       1.566879    -1.566879     1.566879
   Z       1.566879     1.566879    -1.566879
 --------------------------------------------------

 Single point calculation requested

 Hamiltonian contributions:
 List of terms in Hamiltonian: kpts_nn, kpts_kinetic, kpts_vnuc_df, kpts_xc, kpts_rij_bigmem

 K-Points calculation started.

 Basis set information about using solid harmonic (1) or Cartesian (0):
  li : 
  f : D(1) D(1) F(1) 

 Basis set information about using solid harmonic (1) or Cartesian (0):
  li : D(1) D(1) D(1) F(1) G(1) 
  f : D(1) D(1) D(1) F(1) G(1) 

 There are 45 basis functions in the central unit cell.
 Print atomic basis of atoms in the central unit cell:
 -------------------------------------------------------------
2 34 34 19

  0.00000000000000e+00  0.00000000000000e+00  0.00000000000000e+00
  3.78890087987467e+00  0.00000000000000e+00  0.00000000000000e+00

  6.26926280100000e+03
  9.40316124310000e+02
  2.14221075280000e+02
  6.07598401840000e+01
  1.99151520320000e+01
  7.31715097970000e+00
  2.97246742160000e+00
  1.26398523140000e+00
  5.14274899530000e-01
  7.70308859010000e-02
  2.89388964330000e-02
  3.32700000000000e+00
  4.00000000000000e-01
  6.00000000000000e-02
  3.54791004410000e+04
  5.31847289830000e+03
  1.21048109750000e+03
  3.42855181400000e+02
  1.12019431810000e+02
  4.07147402480000e+01
  1.60396781110000e+01
  6.50381867400000e+00
  1.54404775090000e+00
  6.12234528620000e-01
  2.40279796980000e-01
  8.02339004830000e+01
  1.85940107430000e+01
  5.68679026530000e+00
  1.95110062940000e+00
  6.69702112980000e-01
  2.16513004100000e-01
  3.10700000000000e+00
  8.55000000000000e-01
  1.91700000000000e+00

  2.60146728801502e-01
  4.85835841940497e-01
  8.34119322504559e-01
  1.32445742735490e+00
  1.88157694810314e+00
  2.19520050299083e+00
  7.26218105813079e-01
  4.94491916459429e-01
  4.32819270028068e-01
  1.04209847805929e-01
  5.00059366529026e-02
  6.40480761295544e+00
  4.53435039044381e-01
  4.23281366783111e-02
  1.03516566506933e+00
  1.93311703276555e+00
  3.30816792488426e+00
  5.19043602286014e+00
  7.14537150961128e+00
  7.78535976400937e+00
  3.61564648527820e+00
  1.16499925171188e+00
  9.87201115801914e-01
  4.93285621447351e-01
  2.44595258796206e-01
  4.21740775922586e+00
  4.71742640820820e+00
  4.08491013761290e+00
  2.29989742214987e+00
  8.63559317399815e-01
  2.10520828359705e-01
  1.19675885449078e+01
  1.25126747832287e+00
  6.36581779142017e+00

0 0 0 0 1 1 1
0 0 
6 0

0 1 1 6 1 1 1
6 0 
2 0

0 2 2 8 1 1 1
8 0 
1 0

0 3 3 9 1 1 1
9 0 
1 0

0 4 4 10 1 1 1
10 0 
1 0

0 5 5 11 1 3 3
11 1 
1 0

0 8 8 12 1 3 3
12 1 
1 0

0 11 11 13 1 3 3
13 1 
1 0

1 14 14 14 1 1 1
14 0 
6 0

1 15 15 20 1 1 1
20 0 
2 0

1 16 16 22 1 1 1
22 0 
1 0

1 17 17 23 1 1 1
23 0 
1 0

1 18 18 24 1 1 1
24 0 
1 0

1 19 19 25 1 3 3
25 1 
4 0

1 22 22 29 1 3 3
29 1 
1 0

1 25 25 30 1 3 3
30 1 
1 0

1 28 28 31 1 5 6
31 2 
1 1

1 33 33 32 1 5 6
32 2 
1 1

1 38 38 33 1 7 10
33 3 
1 1

 -------------------------------------------------------------
 Allocate 134496 B from available memory: 104857600000 B
 There are 6859 image cells after screening.
 There are 10216 image cells for CGTO evaluation after screening.
 Real-Space grid for FFT initialized based on kinetic energy cutoff (eV) = 500.0
 Real-Space grid for FFT: (8,8,8)
 There are 4913 real-space grid points.
 There are 27 batches of real-space grid points. 
 Size of each grid batch is around 128
 Grid for AFT initialized based on kinetic energy cutoff (eV) = 500.0
 Real-Space grid for AFT: (8,8,8)
 There are 4913 real-space grid points.

 There are 5740 atom-centered grid points.

 Spacegroup symmetry group: Fm-3m
 Reducing spacegroup symmetry to symmorphic group: F m -3 m
 Monkhorst-Pack mesh is [7,7,7]
 There are 343 k points.
kpoints in Bohr
-0.3553528831 -0.3553528831 -0.3553528831
-0.2369019221 -0.2369019221 -0.4738038442
-0.1184509610 -0.1184509610 -0.5922548052
-0.0000000000 0.0000000000 -0.7107057663
0.1184509610 0.1184509610 -0.8291567273
0.2369019221 0.2369019221 -0.9476076883
0.3553528831 0.3553528831 -1.0660586494
-0.2369019221 -0.4738038442 -0.2369019221
-0.1184509610 -0.3553528831 -0.3553528831
-0.0000000000 -0.2369019221 -0.4738038442
0.1184509610 -0.1184509610 -0.5922548052
0.2369019221 0.0000000000 -0.7107057663
0.3553528831 0.1184509610 -0.8291567273
0.4738038442 0.2369019221 -0.9476076883
-0.1184509610 -0.5922548052 -0.1184509610
-0.0000000000 -0.4738038442 -0.2369019221
0.1184509610 -0.3553528831 -0.3553528831
0.2369019221 -0.2369019221 -0.4738038442
0.3553528831 -0.1184509610 -0.5922548052
0.4738038442 0.0000000000 -0.7107057663
0.5922548052 0.1184509610 -0.8291567273
-0.0000000000 -0.7107057663 -0.0000000000
0.1184509610 -0.5922548052 -0.1184509610
0.2369019221 -0.4738038442 -0.2369019221
0.3553528831 -0.3553528831 -0.3553528831
0.4738038442 -0.2369019221 -0.4738038442
0.5922548052 -0.1184509610 -0.5922548052
0.7107057663 0.0000000000 -0.7107057663
0.1184509610 -0.8291567273 0.1184509610
0.2369019221 -0.7107057663 -0.0000000000
0.3553528831 -0.5922548052 -0.1184509610
0.4738038442 -0.4738038442 -0.2369019221
0.5922548052 -0.3553528831 -0.3553528831
0.7107057663 -0.2369019221 -0.4738038442
0.8291567273 -0.1184509610 -0.5922548052
0.2369019221 -0.9476076883 0.2369019221
0.3553528831 -0.8291567273 0.1184509610
0.4738038442 -0.7107057663 -0.0000000000
0.5922548052 -0.5922548052 -0.1184509610
0.7107057663 -0.4738038442 -0.2369019221
0.8291567273 -0.3553528831 -0.3553528831
0.9476076883 -0.2369019221 -0.4738038442
0.3553528831 -1.0660586494 0.3553528831
0.4738038442 -0.9476076883 0.2369019221
0.5922548052 -0.8291567273 0.1184509610
0.7107057663 -0.7107057663 -0.0000000000
0.8291567273 -0.5922548052 -0.1184509610
0.9476076883 -0.4738038442 -0.2369019221
1.0660586494 -0.3553528831 -0.3553528831
-0.4738038442 -0.2369019221 -0.2369019221
-0.3553528831 -0.1184509610 -0.3553528831
-0.2369019221 0.0000000000 -0.4738038442
-0.1184509610 0.1184509610 -0.5922548052
-0.0000000000 0.2369019221 -0.7107057663
0.1184509610 0.3553528831 -0.8291567273
0.2369019221 0.4738038442 -0.9476076883
-0.3553528831 -0.3553528831 -0.1184509610
-0.2369019221 -0.2369019221 -0.2369019221
-0.1184509610 -0.1184509610 -0.3553528831
-0.0000000000 0.0000000000 -0.4738038442
0.1184509610 0.1184509610 -0.5922548052
0.2369019221 0.2369019221 -0.7107057663
0.3553528831 0.3553528831 -0.8291567273
-0.2369019221 -0.4738038442 -0.0000000000
-0.1184509610 -0.3553528831 -0.1184509610
-0.0000000000 -0.2369019221 -0.2369019221
0.1184509610 -0.1184509610 -0.3553528831
0.2369019221 0.0000000000 -0.4738038442
0.3553528831 0.1184509610 -0.5922548052
0.4738038442 0.2369019221 -0.7107057663
-0.1184509610 -0.5922548052 0.1184509610
-0.0000000000 -0.4738038442 -0.0000000000
0.1184509610 -0.3553528831 -0.1184509610
0.2369019221 -0.2369019221 -0.2369019221
0.3553528831 -0.1184509610 -0.3553528831
0.4738038442 0.0000000000 -0.4738038442
0.5922548052 0.1184509610 -0.5922548052
0.0000000000 -0.7107057663 0.2369019221
0.1184509610 -0.5922548052 0.1184509610
0.2369019221 -0.4738038442 -0.0000000000
0.3553528831 -0.3553528831 -0.1184509610
0.4738038442 -0.2369019221 -0.2369019221
0.5922548052 -0.1184509610 -0.3553528831
0.7107057663 0.0000000000 -0.4738038442
0.1184509610 -0.8291567273 0.3553528831
0.2369019221 -0.7107057663 0.2369019221
0.3553528831 -0.5922548052 0.1184509610
0.4738038442 -0.4738038442 -0.0000000000
0.5922548052 -0.3553528831 -0.1184509610
0.7107057663 -0.2369019221 -0.2369019221
0.8291567273 -0.1184509610 -0.3553528831
0.2369019221 -0.9476076883 0.4738038442
0.3553528831 -0.8291567273 0.3553528831
0.4738038442 -0.7107057663 0.2369019221
0.5922548052 -0.5922548052 0.1184509610
0.7107057663 -0.4738038442 -0.0000000000
0.8291567273 -0.3553528831 -0.1184509610
0.9476076883 -0.2369019221 -0.2369019221
-0.5922548052 -0.1184509610 -0.1184509610
-0.4738038442 0.0000000000 -0.2369019221
-0.3553528831 0.1184509610 -0.3553528831
-0.2369019221 0.2369019221 -0.4738038442
-0.1184509610 0.3553528831 -0.5922548052
-0.0000000000 0.4738038442 -0.7107057663
0.1184509610 0.5922548052 -0.8291567273
-0.4738038442 -0.2369019221 -0.0000000000
-0.3553528831 -0.1184509610 -0.1184509610
-0.2369019221 0.0000000000 -0.2369019221
-0.1184509610 0.1184509610 -0.3553528831
-0.0000000000 0.2369019221 -0.4738038442
0.1184509610 0.3553528831 -0.5922548052
0.2369019221 0.4738038442 -0.7107057663
-0.3553528831 -0.3553528831 0.1184509610
-0.2369019221 -0.2369019221 -0.0000000000
-0.1184509610 -0.1184509610 -0.1184509610
-0.0000000000 0.0000000000 -0.2369019221
0.1184509610 0.1184509610 -0.3553528831
0.2369019221 0.2369019221 -0.4738038442
0.3553528831 0.3553528831 -0.5922548052
-0.2369019221 -0.4738038442 0.2369019221
-0.1184509610 -0.3553528831 0.1184509610
-0.0000000000 -0.2369019221 -0.0000000000
0.1184509610 -0.1184509610 -0.1184509610
0.2369019221 0.0000000000 -0.2369019221
0.3553528831 0.1184509610 -0.3553528831
0.4738038442 0.2369019221 -0.4738038442
-0.1184509610 -0.5922548052 0.3553528831
0.0000000000 -0.4738038442 0.2369019221
0.1184509610 -0.3553528831 0.1184509610
0.2369019221 -0.2369019221 -0.0000000000
0.3553528831 -0.1184509610 -0.1184509610
0.4738038442 0.0000000000 -0.2369019221
0.5922548052 0.1184509610 -0.3553528831
0.0000000000 -0.7107057663 0.4738038442
0.1184509610 -0.5922548052 0.3553528831
0.2369019221 -0.4738038442 0.2369019221
0.3553528831 -0.3553528831 0.1184509610
0.4738038442 -0.2369019221 -0.0000000000
0.5922548052 -0.1184509610 -0.1184509610
0.7107057663 0.0000000000 -0.2369019221
0.1184509610 -0.8291567273 0.5922548052
0.2369019221 -0.7107057663 0.4738038442
0.3553528831 -0.5922548052 0.3553528831
0.4738038442 -0.4738038442 0.2369019221
0.5922548052 -0.3553528831 0.1184509610
0.7107057663 -0.2369019221 -0.0000000000
0.8291567273 -0.1184509610 -0.1184509610
-0.7107057663 0.0000000000 0.0000000000
-0.5922548052 0.1184509610 -0.1184509610
-0.4738038442 0.2369019221 -0.2369019221
-0.3553528831 0.3553528831 -0.3553528831
-0.2369019221 0.4738038442 -0.4738038442
-0.1184509610 0.5922548052 -0.5922548052
-0.0000000000 0.7107057663 -0.7107057663
-0.5922548052 -0.1184509610 0.1184509610
-0.4738038442 0.0000000000 0.0000000000
-0.3553528831 0.1184509610 -0.1184509610
-0.2369019221 0.2369019221 -0.2369019221
-0.1184509610 0.3553528831 -0.3553528831
-0.0000000000 0.4738038442 -0.4738038442
0.1184509610 0.5922548052 -0.5922548052
-0.4738038442 -0.2369019221 0.2369019221
-0.3553528831 -0.1184509610 0.1184509610
-0.2369019221 0.0000000000 0.0000000000
-0.1184509610 0.1184509610 -0.1184509610
-0.0000000000 0.2369019221 -0.2369019221
0.1184509610 0.3553528831 -0.3553528831
0.2369019221 0.4738038442 -0.4738038442
-0.3553528831 -0.3553528831 0.3553528831
-0.2369019221 -0.2369019221 0.2369019221
-0.1184509610 -0.1184509610 0.1184509610
0.0000000000 0.0000000000 0.0000000000
0.1184509610 0.1184509610 -0.1184509610
0.2369019221 0.2369019221 -0.2369019221
0.3553528831 0.3553528831 -0.3553528831
-0.2369019221 -0.4738038442 0.4738038442
-0.1184509610 -0.3553528831 0.3553528831
0.0000000000 -0.2369019221 0.2369019221
0.1184509610 -0.1184509610 0.1184509610
0.2369019221 -0.0000000000 0.0000000000
0.3553528831 0.1184509610 -0.1184509610
0.4738038442 0.2369019221 -0.2369019221
-0.1184509610 -0.5922548052 0.5922548052
0.0000000000 -0.4738038442 0.4738038442
0.1184509610 -0.3553528831 0.3553528831
0.2369019221 -0.2369019221 0.2369019221
0.3553528831 -0.1184509610 0.1184509610
0.4738038442 -0.0000000000 0.0000000000
0.5922548052 0.1184509610 -0.1184509610
0.0000000000 -0.7107057663 0.7107057663
0.1184509610 -0.5922548052 0.5922548052
0.2369019221 -0.4738038442 0.4738038442
0.3553528831 -0.3553528831 0.3553528831
0.4738038442 -0.2369019221 0.2369019221
0.5922548052 -0.1184509610 0.1184509610
0.7107057663 -0.0000000000 0.0000000000
-0.8291567273 0.1184509610 0.1184509610
-0.7107057663 0.2369019221 0.0000000000
-0.5922548052 0.3553528831 -0.1184509610
-0.4738038442 0.4738038442 -0.2369019221
-0.3553528831 0.5922548052 -0.3553528831
-0.2369019221 0.7107057663 -0.4738038442
-0.1184509610 0.8291567273 -0.5922548052
-0.7107057663 0.0000000000 0.2369019221
-0.5922548052 0.1184509610 0.1184509610
-0.4738038442 0.2369019221 0.0000000000
-0.3553528831 0.3553528831 -0.1184509610
-0.2369019221 0.4738038442 -0.2369019221
-0.1184509610 0.5922548052 -0.3553528831
-0.0000000000 0.7107057663 -0.4738038442
-0.5922548052 -0.1184509610 0.3553528831
-0.4738038442 -0.0000000000 0.2369019221
-0.3553528831 0.1184509610 0.1184509610
-0.2369019221 0.2369019221 0.0000000000
-0.1184509610 0.3553528831 -0.1184509610
-0.0000000000 0.4738038442 -0.2369019221
0.1184509610 0.5922548052 -0.3553528831
-0.4738038442 -0.2369019221 0.4738038442
-0.3553528831 -0.1184509610 0.3553528831
-0.2369019221 -0.0000000000 0.2369019221
-0.1184509610 0.1184509610 0.1184509610
0.0000000000 0.2369019221 0.0000000000
0.1184509610 0.3553528831 -0.1184509610
0.2369019221 0.4738038442 -0.2369019221
-0.3553528831 -0.3553528831 0.5922548052
-0.2369019221 -0.2369019221 0.4738038442
-0.1184509610 -0.1184509610 0.3553528831
0.0000000000 -0.0000000000 0.2369019221
0.1184509610 0.1184509610 0.1184509610
0.2369019221 0.2369019221 0.0000000000
0.3553528831 0.3553528831 -0.1184509610
-0.2369019221 -0.4738038442 0.7107057663
-0.1184509610 -0.3553528831 0.5922548052
0.0000000000 -0.2369019221 0.4738038442
0.1184509610 -0.1184509610 0.3553528831
0.2369019221 -0.0000000000 0.2369019221
0.3553528831 0.1184509610 0.1184509610
0.4738038442 0.2369019221 0.0000000000
-0.1184509610 -0.5922548052 0.8291567273
0.0000000000 -0.4738038442 0.7107057663
0.1184509610 -0.3553528831 0.5922548052
0.2369019221 -0.2369019221 0.4738038442
0.3553528831 -0.1184509610 0.3553528831
0.4738038442 -0.0000000000 0.2369019221
0.5922548052 0.1184509610 0.1184509610
-0.9476076883 0.2369019221 0.2369019221
-0.8291567273 0.3553528831 0.1184509610
-0.7107057663 0.4738038442 0.0000000000
-0.5922548052 0.5922548052 -0.1184509610
-0.4738038442 0.7107057663 -0.2369019221
-0.3553528831 0.8291567273 -0.3553528831
-0.2369019221 0.9476076883 -0.4738038442
-0.8291567273 0.1184509610 0.3553528831
-0.7107057663 0.2369019221 0.2369019221
-0.5922548052 0.3553528831 0.1184509610
-0.4738038442 0.4738038442 0.0000000000
-0.3553528831 0.5922548052 -0.1184509610
-0.2369019221 0.7107057663 -0.2369019221
-0.1184509610 0.8291567273 -0.3553528831
-0.7107057663 -0.0000000000 0.4738038442
-0.5922548052 0.1184509610 0.3553528831
-0.4738038442 0.2369019221 0.2369019221
-0.3553528831 0.3553528831 0.1184509610
-0.2369019221 0.4738038442 0.0000000000
-0.1184509610 0.5922548052 -0.1184509610
0.0000000000 0.7107057663 -0.2369019221
-0.5922548052 -0.1184509610 0.5922548052
-0.4738038442 -0.0000000000 0.4738038442
-0.3553528831 0.1184509610 0.3553528831
-0.2369019221 0.2369019221 0.2369019221
-0.1184509610 0.3553528831 0.1184509610
0.0000000000 0.4738038442 0.0000000000
0.1184509610 0.5922548052 -0.1184509610
-0.4738038442 -0.2369019221 0.7107057663
-0.3553528831 -0.1184509610 0.5922548052
-0.2369019221 -0.0000000000 0.4738038442
-0.1184509610 0.1184509610 0.3553528831
0.0000000000 0.2369019221 0.2369019221
0.1184509610 0.3553528831 0.1184509610
0.2369019221 0.4738038442 0.0000000000
-0.3553528831 -0.3553528831 0.8291567273
-0.2369019221 -0.2369019221 0.7107057663
-0.1184509610 -0.1184509610 0.5922548052
0.0000000000 -0.0000000000 0.4738038442
0.1184509610 0.1184509610 0.3553528831
0.2369019221 0.2369019221 0.2369019221
0.3553528831 0.3553528831 0.1184509610
-0.2369019221 -0.4738038442 0.9476076883
-0.1184509610 -0.3553528831 0.8291567273
0.0000000000 -0.2369019221 0.7107057663
0.1184509610 -0.1184509610 0.5922548052
0.2369019221 -0.0000000000 0.4738038442
0.3553528831 0.1184509610 0.3553528831
0.4738038442 0.2369019221 0.2369019221
-1.0660586494 0.3553528831 0.3553528831
-0.9476076883 0.4738038442 0.2369019221
-0.8291567273 0.5922548052 0.1184509610
-0.7107057663 0.7107057663 0.0000000000
-0.5922548052 0.8291567273 -0.1184509610
-0.4738038442 0.9476076883 -0.2369019221
-0.3553528831 1.0660586494 -0.3553528831
-0.9476076883 0.2369019221 0.4738038442
-0.8291567273 0.3553528831 0.3553528831
-0.7107057663 0.4738038442 0.2369019221
-0.5922548052 0.5922548052 0.1184509610
-0.4738038442 0.7107057663 0.0000000000
-0.3553528831 0.8291567273 -0.1184509610
-0.2369019221 0.9476076883 -0.2369019221
-0.8291567273 0.1184509610 0.5922548052
-0.7107057663 0.2369019221 0.4738038442
-0.5922548052 0.3553528831 0.3553528831
-0.4738038442 0.4738038442 0.2369019221
-0.3553528831 0.5922548052 0.1184509610
-0.2369019221 0.7107057663 0.0000000000
-0.1184509610 0.8291567273 -0.1184509610
-0.7107057663 -0.0000000000 0.7107057663
-0.5922548052 0.1184509610 0.5922548052
-0.4738038442 0.2369019221 0.4738038442
-0.3553528831 0.3553528831 0.3553528831
-0.2369019221 0.4738038442 0.2369019221
-0.1184509610 0.5922548052 0.1184509610
0.0000000000 0.7107057663 0.0000000000
-0.5922548052 -0.1184509610 0.8291567273
-0.4738038442 -0.0000000000 0.7107057663
-0.3553528831 0.1184509610 0.5922548052
-0.2369019221 0.2369019221 0.4738038442
-0.1184509610 0.3553528831 0.3553528831
0.0000000000 0.4738038442 0.2369019221
0.1184509610 0.5922548052 0.1184509610
-0.4738038442 -0.2369019221 0.9476076883
-0.3553528831 -0.1184509610 0.8291567273
-0.2369019221 -0.0000000000 0.7107057663
-0.1184509610 0.1184509610 0.5922548052
0.0000000000 0.2369019221 0.4738038442
0.1184509610 0.3553528831 0.3553528831
0.2369019221 0.4738038442 0.2369019221
-0.3553528831 -0.3553528831 1.0660586494
-0.2369019221 -0.2369019221 0.9476076883
-0.1184509610 -0.1184509610 0.8291567273
0.0000000000 -0.0000000000 0.7107057663
0.1184509610 0.1184509610 0.5922548052
0.2369019221 0.2369019221 0.4738038442
0.3553528831 0.3553528831 0.3553528831
 There are 6 alpha and 6 beta electrons
 Start computing overlap matrix
 Allocate 11113200 B from available memory: 104857465504 B
 Time for computing overlap matrix: 9.2840000000 s
 ====== Initialize compute kernels for all-electron RI-J (kpts) ====== 
 ========================================================== 
 Range-separated parameter omega        = 0.599999999999999978
 Threshold for 1e2c shellpair           = 0.000000000000010000
 Threshold for 2e2c SR integral         = 0.000000000000000001
 Threshold for 2e3c SR integral         = 0.000000000100000000
 Threshold for AFT G-space screening is = 0.000000000001000000
 The exponent cutoff for C/D classification (omega2 / 2) is  = 0.179999999999999993
 ========================================================== 
 === Post process the basis set for RI calculation (exp_cutoff = 0.179999999999999993 ) === 
nshells_b1 before uncontraction = 19
nshells_b1 after uncontraction = 19
nshells_baux before uncontraction = 28
nshells_baux after uncontraction = 28
===============================================
nbsf total   = 45
nbsf compact = 40
nbsf diffuse = 5
naux total   = 96
naux compact = 96
naux diffuse = 0
nshells_bnuc = 2

 Number of unique atoms is 2
 Unique atom #0 (li) has 5 shells.
 Unique atom #1 (f) has 11 shells.

Shell 0 to 4 belongs to atom li
Shell 5 to 15 belongs to atom f

 Number of unique atoms is 2
 Unique atom #0 (li) has 3 shells.
 Unique atom #1 (f) has 0 shells.

Shell 0 to 2 belongs to atom li

 Number of unique atom is 2
 Unique atom #0 (li) has 13 auxiliary shells.
 Unique atom #1 (f) has 15 auxiliary shells.

Auxiliary Shell 0 to 12 belongs to atom li
Auxiliary Shell 13 to 27 belongs to atom f

================= Automatically determine grid size for reciprocal space summation =================
 Range-separated parameter = 0.60000000000000 and G-space screening threshold = 0.00000000000100
The number of grid points along each axis dimension is (5, 5, 5)
Total number of grid points = 1331

Use nonortho shellpair for diffuse density
======== Initializing relevant kernel for RIJ (DD type) ========
There are 6 shellpairs in the reference unit cell
There are 14123 images and we expect to have 84738 in total
There are 9266 shellpairs in the lattice sum after screening
======== Initializing relevant kernel for RIJ (CD type) ========
There are 48 shellpairs in the reference unit cell
There are 8175 images and we expect to have 392400 in total
There are 34349 shellpairs in the lattice sum after screening
****** AFT -> SR ******
Maximum bra distance cutoff is 33.000000000000
Maximum bra ket distance cutoff is 22.202891878476
Maximum bra ket screening distance is 20.843750000000
Number of auxiliary image is 2611
There are 48 shellpairs in the reference unit cell
There are 2611 images and we expect to have 125328 in total
There are 34349 shellpairs in the lattice sum after screening
Available memory per thread for 2e3c calculation is 3.276448510000Gb
Finish initializing 2e3c SR with the lattice sum!
=================================================
======== Initializing relevant kernel for RIJ (CC type) ========
There are 133 shellpairs in the reference unit cell
There are 1825 images and we expect to have 242725 in total
There are 4687 shellpairs in the lattice sum after screening
****** AFT -> SR ******
Maximum bra distance cutoff is 16.000000000000
Maximum bra ket distance cutoff is 22.602246956012
Maximum bra ket screening distance is 19.812500000000
Number of auxiliary image is 1031
There are 133 shellpairs in the reference unit cell
There are 455 images and we expect to have 60515 in total
There are 4687 shellpairs in the lattice sum after screening
Available memory per thread for 2e3c calculation is 3.276448510000Gb
Finish initializing 2e3c SR with the lattice sum!
=================================================
======== Initializing the SR component for Vnuc (CD type) ========
Maximum bra distance cutoff is 33.000000000000
Maximum bra ket distance cutoff is 14.681989198074
Maximum bra ket screening distance is 13.176463479256
Number of auxiliary image is 2611
There are 48 shellpairs in the reference unit cell
There are 2611 images and we expect to have 125328 in total
There are 34349 shellpairs in the lattice sum after screening
Available memory per thread for 2e3c calculation is 3.276448510000Gb
Finish initializing 2e3c SR with the lattice sum!
=================================================
======== Initialize the SR component for Vnuc (CC type) ========
Maximum bra distance cutoff is 16.000000000000
Maximum bra ket distance cutoff is 15.050643957183
Maximum bra ket screening distance is 11.755953252989
Number of auxiliary image is 455
There are 133 shellpairs in the reference unit cell
There are 455 images and we expect to have 60515 in total
There are 4687 shellpairs in the lattice sum after screening
Available memory per thread for 2e3c calculation is 3.276448510000Gb
Finish initializing 2e3c SR with the lattice sum!
=================================================
 Aufbau occupation scheme, occupation determined by eigenvalue
 == 0-th k-point nmo = 44 (-0.35535,-0.35535,-0.35535) ==
 == 1-th k-point nmo = 44 (-0.23690,-0.23690,-0.47380) ==
 == 2-th k-point nmo = 44 (-0.11845,-0.11845,-0.59225) ==
 == 3-th k-point nmo = 44 (-0.00000,0.00000,-0.71071) ==
 == 4-th k-point nmo = 44 (0.11845,0.11845,-0.82916) ==
 == 5-th k-point nmo = 44 (0.23690,0.23690,-0.94761) ==
 == 6-th k-point nmo = 44 (0.35535,0.35535,-1.06606) ==
 == 7-th k-point nmo = 44 (-0.23690,-0.47380,-0.23690) ==
 == 8-th k-point nmo = 44 (-0.11845,-0.35535,-0.35535) ==
 == 9-th k-point nmo = 44 (-0.00000,-0.23690,-0.47380) ==
 == 10-th k-point nmo = 44 (0.11845,-0.11845,-0.59225) ==
 == 11-th k-point nmo = 44 (0.23690,0.00000,-0.71071) ==
 == 12-th k-point nmo = 44 (0.35535,0.11845,-0.82916) ==
 == 13-th k-point nmo = 44 (0.47380,0.23690,-0.94761) ==
 == 14-th k-point nmo = 44 (-0.11845,-0.59225,-0.11845) ==
 == 15-th k-point nmo = 44 (-0.00000,-0.47380,-0.23690) ==
 == 16-th k-point nmo = 44 (0.11845,-0.35535,-0.35535) ==
 == 17-th k-point nmo = 44 (0.23690,-0.23690,-0.47380) ==
 == 18-th k-point nmo = 44 (0.35535,-0.11845,-0.59225) ==
 == 19-th k-point nmo = 44 (0.47380,0.00000,-0.71071) ==
 == 20-th k-point nmo = 44 (0.59225,0.11845,-0.82916) ==
 == 21-th k-point nmo = 44 (-0.00000,-0.71071,-0.00000) ==
 == 22-th k-point nmo = 44 (0.11845,-0.59225,-0.11845) ==
 == 23-th k-point nmo = 44 (0.23690,-0.47380,-0.23690) ==
 == 24-th k-point nmo = 44 (0.35535,-0.35535,-0.35535) ==
 == 25-th k-point nmo = 44 (0.47380,-0.23690,-0.47380) ==
 == 26-th k-point nmo = 44 (0.59225,-0.11845,-0.59225) ==
 == 27-th k-point nmo = 44 (0.71071,0.00000,-0.71071) ==
 == 28-th k-point nmo = 44 (0.11845,-0.82916,0.11845) ==
 == 29-th k-point nmo = 44 (0.23690,-0.71071,-0.00000) ==
 == 30-th k-point nmo = 44 (0.35535,-0.59225,-0.11845) ==
 == 31-th k-point nmo = 44 (0.47380,-0.47380,-0.23690) ==
 == 32-th k-point nmo = 44 (0.59225,-0.35535,-0.35535) ==
 == 33-th k-point nmo = 44 (0.71071,-0.23690,-0.47380) ==
 == 34-th k-point nmo = 44 (0.82916,-0.11845,-0.59225) ==
 == 35-th k-point nmo = 44 (0.23690,-0.94761,0.23690) ==
 == 36-th k-point nmo = 44 (0.35535,-0.82916,0.11845) ==
 == 37-th k-point nmo = 44 (0.47380,-0.71071,-0.00000) ==
 == 38-th k-point nmo = 44 (0.59225,-0.59225,-0.11845) ==
 == 39-th k-point nmo = 44 (0.71071,-0.47380,-0.23690) ==
 == 40-th k-point nmo = 44 (0.82916,-0.35535,-0.35535) ==
 == 41-th k-point nmo = 44 (0.94761,-0.23690,-0.47380) ==
 == 42-th k-point nmo = 44 (0.35535,-1.06606,0.35535) ==
 == 43-th k-point nmo = 44 (0.47380,-0.94761,0.23690) ==
 == 44-th k-point nmo = 44 (0.59225,-0.82916,0.11845) ==
 == 45-th k-point nmo = 44 (0.71071,-0.71071,-0.00000) ==
 == 46-th k-point nmo = 44 (0.82916,-0.59225,-0.11845) ==
 == 47-th k-point nmo = 44 (0.94761,-0.47380,-0.23690) ==
 == 48-th k-point nmo = 44 (1.06606,-0.35535,-0.35535) ==
 == 49-th k-point nmo = 44 (-0.47380,-0.23690,-0.23690) ==
 == 50-th k-point nmo = 44 (-0.35535,-0.11845,-0.35535) ==
 == 51-th k-point nmo = 44 (-0.23690,0.00000,-0.47380) ==
 == 52-th k-point nmo = 44 (-0.11845,0.11845,-0.59225) ==
 == 53-th k-point nmo = 44 (-0.00000,0.23690,-0.71071) ==
 == 54-th k-point nmo = 44 (0.11845,0.35535,-0.82916) ==
 == 55-th k-point nmo = 44 (0.23690,0.47380,-0.94761) ==
 == 56-th k-point nmo = 44 (-0.35535,-0.35535,-0.11845) ==
 == 57-th k-point nmo = 45 (-0.23690,-0.23690,-0.23690) ==
 == 58-th k-point nmo = 44 (-0.11845,-0.11845,-0.35535) ==
 == 59-th k-point nmo = 44 (-0.00000,0.00000,-0.47380) ==
 == 60-th k-point nmo = 44 (0.11845,0.11845,-0.59225) ==
 == 61-th k-point nmo = 44 (0.23690,0.23690,-0.71071) ==
 == 62-th k-point nmo = 44 (0.35535,0.35535,-0.82916) ==
 == 63-th k-point nmo = 44 (-0.23690,-0.47380,-0.00000) ==
 == 64-th k-point nmo = 44 (-0.11845,-0.35535,-0.11845) ==
 == 65-th k-point nmo = 44 (-0.00000,-0.23690,-0.23690) ==
 == 66-th k-point nmo = 44 (0.11845,-0.11845,-0.35535) ==
 == 67-th k-point nmo = 44 (0.23690,0.00000,-0.47380) ==
 == 68-th k-point nmo = 44 (0.35535,0.11845,-0.59225) ==
 == 69-th k-point nmo = 44 (0.47380,0.23690,-0.71071) ==
 == 70-th k-point nmo = 44 (-0.11845,-0.59225,0.11845) ==
 == 71-th k-point nmo = 44 (-0.00000,-0.47380,-0.00000) ==
 == 72-th k-point nmo = 44 (0.11845,-0.35535,-0.11845) ==
 == 73-th k-point nmo = 45 (0.23690,-0.23690,-0.23690) ==
 == 74-th k-point nmo = 44 (0.35535,-0.11845,-0.35535) ==
 == 75-th k-point nmo = 44 (0.47380,0.00000,-0.47380) ==
 == 76-th k-point nmo = 44 (0.59225,0.11845,-0.59225) ==
 == 77-th k-point nmo = 44 (0.00000,-0.71071,0.23690) ==
 == 78-th k-point nmo = 44 (0.11845,-0.59225,0.11845) ==
 == 79-th k-point nmo = 44 (0.23690,-0.47380,-0.00000) ==
 == 80-th k-point nmo = 44 (0.35535,-0.35535,-0.11845) ==
 == 81-th k-point nmo = 44 (0.47380,-0.23690,-0.23690) ==
 == 82-th k-point nmo = 44 (0.59225,-0.11845,-0.35535) ==
 == 83-th k-point nmo = 44 (0.71071,0.00000,-0.47380) ==
 == 84-th k-point nmo = 44 (0.11845,-0.82916,0.35535) ==
 == 85-th k-point nmo = 44 (0.23690,-0.71071,0.23690) ==
 == 86-th k-point nmo = 44 (0.35535,-0.59225,0.11845) ==
 == 87-th k-point nmo = 44 (0.47380,-0.47380,-0.00000) ==
 == 88-th k-point nmo = 44 (0.59225,-0.35535,-0.11845) ==
 == 89-th k-point nmo = 44 (0.71071,-0.23690,-0.23690) ==
 == 90-th k-point nmo = 44 (0.82916,-0.11845,-0.35535) ==
 == 91-th k-point nmo = 44 (0.23690,-0.94761,0.47380) ==
 == 92-th k-point nmo = 44 (0.35535,-0.82916,0.35535) ==
 == 93-th k-point nmo = 44 (0.47380,-0.71071,0.23690) ==
 == 94-th k-point nmo = 44 (0.59225,-0.59225,0.11845) ==
 == 95-th k-point nmo = 44 (0.71071,-0.47380,-0.00000) ==
 == 96-th k-point nmo = 44 (0.82916,-0.35535,-0.11845) ==
 == 97-th k-point nmo = 44 (0.94761,-0.23690,-0.23690) ==
 == 98-th k-point nmo = 44 (-0.59225,-0.11845,-0.11845) ==
 == 99-th k-point nmo = 44 (-0.47380,0.00000,-0.23690) ==
 == 100-th k-point nmo = 44 (-0.35535,0.11845,-0.35535) ==
 == 101-th k-point nmo = 44 (-0.23690,0.23690,-0.47380) ==
 == 102-th k-point nmo = 44 (-0.11845,0.35535,-0.59225) ==
 == 103-th k-point nmo = 44 (-0.00000,0.47380,-0.71071) ==
 == 104-th k-point nmo = 44 (0.11845,0.59225,-0.82916) ==
 == 105-th k-point nmo = 44 (-0.47380,-0.23690,-0.00000) ==
 == 106-th k-point nmo = 44 (-0.35535,-0.11845,-0.11845) ==
 == 107-th k-point nmo = 44 (-0.23690,0.00000,-0.23690) ==
 == 108-th k-point nmo = 44 (-0.11845,0.11845,-0.35535) ==
 == 109-th k-point nmo = 44 (-0.00000,0.23690,-0.47380) ==
 == 110-th k-point nmo = 44 (0.11845,0.35535,-0.59225) ==
 == 111-th k-point nmo = 44 (0.23690,0.47380,-0.71071) ==
 == 112-th k-point nmo = 44 (-0.35535,-0.35535,0.11845) ==
 == 113-th k-point nmo = 44 (-0.23690,-0.23690,-0.00000) ==
 == 114-th k-point nmo = 44 (-0.11845,-0.11845,-0.11845) ==
 == 115-th k-point nmo = 44 (-0.00000,0.00000,-0.23690) ==
 == 116-th k-point nmo = 44 (0.11845,0.11845,-0.35535) ==
 == 117-th k-point nmo = 44 (0.23690,0.23690,-0.47380) ==
 == 118-th k-point nmo = 44 (0.35535,0.35535,-0.59225) ==
 == 119-th k-point nmo = 44 (-0.23690,-0.47380,0.23690) ==
 == 120-th k-point nmo = 44 (-0.11845,-0.35535,0.11845) ==
 == 121-th k-point nmo = 44 (-0.00000,-0.23690,-0.00000) ==
 == 122-th k-point nmo = 44 (0.11845,-0.11845,-0.11845) ==
 == 123-th k-point nmo = 44 (0.23690,0.00000,-0.23690) ==
 == 124-th k-point nmo = 44 (0.35535,0.11845,-0.35535) ==
 == 125-th k-point nmo = 44 (0.47380,0.23690,-0.47380) ==
 == 126-th k-point nmo = 44 (-0.11845,-0.59225,0.35535) ==
 == 127-th k-point nmo = 44 (0.00000,-0.47380,0.23690) ==
 == 128-th k-point nmo = 44 (0.11845,-0.35535,0.11845) ==
 == 129-th k-point nmo = 44 (0.23690,-0.23690,-0.00000) ==
 == 130-th k-point nmo = 44 (0.35535,-0.11845,-0.11845) ==
 == 131-th k-point nmo = 44 (0.47380,0.00000,-0.23690) ==
 == 132-th k-point nmo = 44 (0.59225,0.11845,-0.35535) ==
 == 133-th k-point nmo = 44 (0.00000,-0.71071,0.47380) ==
 == 134-th k-point nmo = 44 (0.11845,-0.59225,0.35535) ==
 == 135-th k-point nmo = 44 (0.23690,-0.47380,0.23690) ==
 == 136-th k-point nmo = 44 (0.35535,-0.35535,0.11845) ==
 == 137-th k-point nmo = 44 (0.47380,-0.23690,-0.00000) ==
 == 138-th k-point nmo = 44 (0.59225,-0.11845,-0.11845) ==
 == 139-th k-point nmo = 44 (0.71071,0.00000,-0.23690) ==
 == 140-th k-point nmo = 44 (0.11845,-0.82916,0.59225) ==
 == 141-th k-point nmo = 44 (0.23690,-0.71071,0.47380) ==
 == 142-th k-point nmo = 44 (0.35535,-0.59225,0.35535) ==
 == 143-th k-point nmo = 44 (0.47380,-0.47380,0.23690) ==
 == 144-th k-point nmo = 44 (0.59225,-0.35535,0.11845) ==
 == 145-th k-point nmo = 44 (0.71071,-0.23690,-0.00000) ==
 == 146-th k-point nmo = 44 (0.82916,-0.11845,-0.11845) ==
 == 147-th k-point nmo = 44 (-0.71071,0.00000,0.00000) ==
 == 148-th k-point nmo = 44 (-0.59225,0.11845,-0.11845) ==
 == 149-th k-point nmo = 44 (-0.47380,0.23690,-0.23690) ==
 == 150-th k-point nmo = 44 (-0.35535,0.35535,-0.35535) ==
 == 151-th k-point nmo = 44 (-0.23690,0.47380,-0.47380) ==
 == 152-th k-point nmo = 44 (-0.11845,0.59225,-0.59225) ==
 == 153-th k-point nmo = 44 (-0.00000,0.71071,-0.71071) ==
 == 154-th k-point nmo = 44 (-0.59225,-0.11845,0.11845) ==
 == 155-th k-point nmo = 44 (-0.47380,0.00000,0.00000) ==
 == 156-th k-point nmo = 44 (-0.35535,0.11845,-0.11845) ==
 == 157-th k-point nmo = 45 (-0.23690,0.23690,-0.23690) ==
 == 158-th k-point nmo = 44 (-0.11845,0.35535,-0.35535) ==
 == 159-th k-point nmo = 44 (-0.00000,0.47380,-0.47380) ==
 == 160-th k-point nmo = 44 (0.11845,0.59225,-0.59225) ==
 == 161-th k-point nmo = 44 (-0.47380,-0.23690,0.23690) ==
 == 162-th k-point nmo = 44 (-0.35535,-0.11845,0.11845) ==
 == 163-th k-point nmo = 44 (-0.23690,0.00000,0.00000) ==
 == 164-th k-point nmo = 44 (-0.11845,0.11845,-0.11845) ==
 == 165-th k-point nmo = 44 (-0.00000,0.23690,-0.23690) ==
 == 166-th k-point nmo = 44 (0.11845,0.35535,-0.35535) ==
 == 167-th k-point nmo = 44 (0.23690,0.47380,-0.47380) ==
 == 168-th k-point nmo = 44 (-0.35535,-0.35535,0.35535) ==
 == 169-th k-point nmo = 45 (-0.23690,-0.23690,0.23690) ==
 == 170-th k-point nmo = 44 (-0.11845,-0.11845,0.11845) ==
 == 171-th k-point nmo = 41 (0.00000,0.00000,0.00000) ==
 == 172-th k-point nmo = 44 (0.11845,0.11845,-0.11845) ==
 == 173-th k-point nmo = 45 (0.23690,0.23690,-0.23690) ==
 == 174-th k-point nmo = 44 (0.35535,0.35535,-0.35535) ==
 == 175-th k-point nmo = 44 (-0.23690,-0.47380,0.47380) ==
 == 176-th k-point nmo = 44 (-0.11845,-0.35535,0.35535) ==
 == 177-th k-point nmo = 44 (0.00000,-0.23690,0.23690) ==
 == 178-th k-point nmo = 44 (0.11845,-0.11845,0.11845) ==
 == 179-th k-point nmo = 44 (0.23690,-0.00000,0.00000) ==
 == 180-th k-point nmo = 44 (0.35535,0.11845,-0.11845) ==
 == 181-th k-point nmo = 44 (0.47380,0.23690,-0.23690) ==
 == 182-th k-point nmo = 44 (-0.11845,-0.59225,0.59225) ==
 == 183-th k-point nmo = 44 (0.00000,-0.47380,0.47380) ==
 == 184-th k-point nmo = 44 (0.11845,-0.35535,0.35535) ==
 == 185-th k-point nmo = 45 (0.23690,-0.23690,0.23690) ==
 == 186-th k-point nmo = 44 (0.35535,-0.11845,0.11845) ==
 == 187-th k-point nmo = 44 (0.47380,-0.00000,0.00000) ==
 == 188-th k-point nmo = 44 (0.59225,0.11845,-0.11845) ==
 == 189-th k-point nmo = 44 (0.00000,-0.71071,0.71071) ==
 == 190-th k-point nmo = 44 (0.11845,-0.59225,0.59225) ==
 == 191-th k-point nmo = 44 (0.23690,-0.47380,0.47380) ==
 == 192-th k-point nmo = 44 (0.35535,-0.35535,0.35535) ==
 == 193-th k-point nmo = 44 (0.47380,-0.23690,0.23690) ==
 == 194-th k-point nmo = 44 (0.59225,-0.11845,0.11845) ==
 == 195-th k-point nmo = 44 (0.71071,-0.00000,0.00000) ==
 == 196-th k-point nmo = 44 (-0.82916,0.11845,0.11845) ==
 == 197-th k-point nmo = 44 (-0.71071,0.23690,0.00000) ==
 == 198-th k-point nmo = 44 (-0.59225,0.35535,-0.11845) ==
 == 199-th k-point nmo = 44 (-0.47380,0.47380,-0.23690) ==
 == 200-th k-point nmo = 44 (-0.35535,0.59225,-0.35535) ==
 == 201-th k-point nmo = 44 (-0.23690,0.71071,-0.47380) ==
 == 202-th k-point nmo = 44 (-0.11845,0.82916,-0.59225) ==
 == 203-th k-point nmo = 44 (-0.71071,0.00000,0.23690) ==
 == 204-th k-point nmo = 44 (-0.59225,0.11845,0.11845) ==
 == 205-th k-point nmo = 44 (-0.47380,0.23690,0.00000) ==
 == 206-th k-point nmo = 44 (-0.35535,0.35535,-0.11845) ==
 == 207-th k-point nmo = 44 (-0.23690,0.47380,-0.23690) ==
 == 208-th k-point nmo = 44 (-0.11845,0.59225,-0.35535) ==
 == 209-th k-point nmo = 44 (-0.00000,0.71071,-0.47380) ==
 == 210-th k-point nmo = 44 (-0.59225,-0.11845,0.35535) ==
 == 211-th k-point nmo = 44 (-0.47380,-0.00000,0.23690) ==
 == 212-th k-point nmo = 44 (-0.35535,0.11845,0.11845) ==
 == 213-th k-point nmo = 44 (-0.23690,0.23690,0.00000) ==
 == 214-th k-point nmo = 44 (-0.11845,0.35535,-0.11845) ==
 == 215-th k-point nmo = 44 (-0.00000,0.47380,-0.23690) ==
 == 216-th k-point nmo = 44 (0.11845,0.59225,-0.35535) ==
 == 217-th k-point nmo = 44 (-0.47380,-0.23690,0.47380) ==
 == 218-th k-point nmo = 44 (-0.35535,-0.11845,0.35535) ==
 == 219-th k-point nmo = 44 (-0.23690,-0.00000,0.23690) ==
 == 220-th k-point nmo = 44 (-0.11845,0.11845,0.11845) ==
 == 221-th k-point nmo = 44 (0.00000,0.23690,0.00000) ==
 == 222-th k-point nmo = 44 (0.11845,0.35535,-0.11845) ==
 == 223-th k-point nmo = 44 (0.23690,0.47380,-0.23690) ==
 == 224-th k-point nmo = 44 (-0.35535,-0.35535,0.59225) ==
 == 225-th k-point nmo = 44 (-0.23690,-0.23690,0.47380) ==
 == 226-th k-point nmo = 44 (-0.11845,-0.11845,0.35535) ==
 == 227-th k-point nmo = 44 (0.00000,-0.00000,0.23690) ==
 == 228-th k-point nmo = 44 (0.11845,0.11845,0.11845) ==
 == 229-th k-point nmo = 44 (0.23690,0.23690,0.00000) ==
 == 230-th k-point nmo = 44 (0.35535,0.35535,-0.11845) ==
 == 231-th k-point nmo = 44 (-0.23690,-0.47380,0.71071) ==
 == 232-th k-point nmo = 44 (-0.11845,-0.35535,0.59225) ==
 == 233-th k-point nmo = 44 (0.00000,-0.23690,0.47380) ==
 == 234-th k-point nmo = 44 (0.11845,-0.11845,0.35535) ==
 == 235-th k-point nmo = 44 (0.23690,-0.00000,0.23690) ==
 == 236-th k-point nmo = 44 (0.35535,0.11845,0.11845) ==
 == 237-th k-point nmo = 44 (0.47380,0.23690,0.00000) ==
 == 238-th k-point nmo = 44 (-0.11845,-0.59225,0.82916) ==
 == 239-th k-point nmo = 44 (0.00000,-0.47380,0.71071) ==
 == 240-th k-point nmo = 44 (0.11845,-0.35535,0.59225) ==
 == 241-th k-point nmo = 44 (0.23690,-0.23690,0.47380) ==
 == 242-th k-point nmo = 44 (0.35535,-0.11845,0.35535) ==
 == 243-th k-point nmo = 44 (0.47380,-0.00000,0.23690) ==
 == 244-th k-point nmo = 44 (0.59225,0.11845,0.11845) ==
 == 245-th k-point nmo = 44 (-0.94761,0.23690,0.23690) ==
 == 246-th k-point nmo = 44 (-0.82916,0.35535,0.11845) ==
 == 247-th k-point nmo = 44 (-0.71071,0.47380,0.00000) ==
 == 248-th k-point nmo = 44 (-0.59225,0.59225,-0.11845) ==
 == 249-th k-point nmo = 44 (-0.47380,0.71071,-0.23690) ==
 == 250-th k-point nmo = 44 (-0.35535,0.82916,-0.35535) ==
 == 251-th k-point nmo = 44 (-0.23690,0.94761,-0.47380) ==
 == 252-th k-point nmo = 44 (-0.82916,0.11845,0.35535) ==
 == 253-th k-point nmo = 44 (-0.71071,0.23690,0.23690) ==
 == 254-th k-point nmo = 44 (-0.59225,0.35535,0.11845) ==
 == 255-th k-point nmo = 44 (-0.47380,0.47380,0.00000) ==
 == 256-th k-point nmo = 44 (-0.35535,0.59225,-0.11845) ==
 == 257-th k-point nmo = 44 (-0.23690,0.71071,-0.23690) ==
 == 258-th k-point nmo = 44 (-0.11845,0.82916,-0.35535) ==
 == 259-th k-point nmo = 44 (-0.71071,-0.00000,0.47380) ==
 == 260-th k-point nmo = 44 (-0.59225,0.11845,0.35535) ==
 == 261-th k-point nmo = 44 (-0.47380,0.23690,0.23690) ==
 == 262-th k-point nmo = 44 (-0.35535,0.35535,0.11845) ==
 == 263-th k-point nmo = 44 (-0.23690,0.47380,0.00000) ==
 == 264-th k-point nmo = 44 (-0.11845,0.59225,-0.11845) ==
 == 265-th k-point nmo = 44 (0.00000,0.71071,-0.23690) ==
 == 266-th k-point nmo = 44 (-0.59225,-0.11845,0.59225) ==
 == 267-th k-point nmo = 44 (-0.47380,-0.00000,0.47380) ==
 == 268-th k-point nmo = 44 (-0.35535,0.11845,0.35535) ==
 == 269-th k-point nmo = 45 (-0.23690,0.23690,0.23690) ==
 == 270-th k-point nmo = 44 (-0.11845,0.35535,0.11845) ==
 == 271-th k-point nmo = 44 (0.00000,0.47380,0.00000) ==
 == 272-th k-point nmo = 44 (0.11845,0.59225,-0.11845) ==
 == 273-th k-point nmo = 44 (-0.47380,-0.23690,0.71071) ==
 == 274-th k-point nmo = 44 (-0.35535,-0.11845,0.59225) ==
 == 275-th k-point nmo = 44 (-0.23690,-0.00000,0.47380) ==
 == 276-th k-point nmo = 44 (-0.11845,0.11845,0.35535) ==
 == 277-th k-point nmo = 44 (0.00000,0.23690,0.23690) ==
 == 278-th k-point nmo = 44 (0.11845,0.35535,0.11845) ==
 == 279-th k-point nmo = 44 (0.23690,0.47380,0.00000) ==
 == 280-th k-point nmo = 44 (-0.35535,-0.35535,0.82916) ==
 == 281-th k-point nmo = 44 (-0.23690,-0.23690,0.71071) ==
 == 282-th k-point nmo = 44 (-0.11845,-0.11845,0.59225) ==
 == 283-th k-point nmo = 44 (0.00000,-0.00000,0.47380) ==
 == 284-th k-point nmo = 44 (0.11845,0.11845,0.35535) ==
 == 285-th k-point nmo = 45 (0.23690,0.23690,0.23690) ==
 == 286-th k-point nmo = 44 (0.35535,0.35535,0.11845) ==
 == 287-th k-point nmo = 44 (-0.23690,-0.47380,0.94761) ==
 == 288-th k-point nmo = 44 (-0.11845,-0.35535,0.82916) ==
 == 289-th k-point nmo = 44 (0.00000,-0.23690,0.71071) ==
 == 290-th k-point nmo = 44 (0.11845,-0.11845,0.59225) ==
 == 291-th k-point nmo = 44 (0.23690,-0.00000,0.47380) ==
 == 292-th k-point nmo = 44 (0.35535,0.11845,0.35535) ==
 == 293-th k-point nmo = 44 (0.47380,0.23690,0.23690) ==
 == 294-th k-point nmo = 44 (-1.06606,0.35535,0.35535) ==
 == 295-th k-point nmo = 44 (-0.94761,0.47380,0.23690) ==
 == 296-th k-point nmo = 44 (-0.82916,0.59225,0.11845) ==
 == 297-th k-point nmo = 44 (-0.71071,0.71071,0.00000) ==
 == 298-th k-point nmo = 44 (-0.59225,0.82916,-0.11845) ==
 == 299-th k-point nmo = 44 (-0.47380,0.94761,-0.23690) ==
 == 300-th k-point nmo = 44 (-0.35535,1.06606,-0.35535) ==
 == 301-th k-point nmo = 44 (-0.94761,0.23690,0.47380) ==
 == 302-th k-point nmo = 44 (-0.82916,0.35535,0.35535) ==
 == 303-th k-point nmo = 44 (-0.71071,0.47380,0.23690) ==
 == 304-th k-point nmo = 44 (-0.59225,0.59225,0.11845) ==
 == 305-th k-point nmo = 44 (-0.47380,0.71071,0.00000) ==
 == 306-th k-point nmo = 44 (-0.35535,0.82916,-0.11845) ==
 == 307-th k-point nmo = 44 (-0.23690,0.94761,-0.23690) ==
 == 308-th k-point nmo = 44 (-0.82916,0.11845,0.59225) ==
 == 309-th k-point nmo = 44 (-0.71071,0.23690,0.47380) ==
 == 310-th k-point nmo = 44 (-0.59225,0.35535,0.35535) ==
 == 311-th k-point nmo = 44 (-0.47380,0.47380,0.23690) ==
 == 312-th k-point nmo = 44 (-0.35535,0.59225,0.11845) ==
 == 313-th k-point nmo = 44 (-0.23690,0.71071,0.00000) ==
 == 314-th k-point nmo = 44 (-0.11845,0.82916,-0.11845) ==
 == 315-th k-point nmo = 44 (-0.71071,-0.00000,0.71071) ==
 == 316-th k-point nmo = 44 (-0.59225,0.11845,0.59225) ==
 == 317-th k-point nmo = 44 (-0.47380,0.23690,0.47380) ==
 == 318-th k-point nmo = 44 (-0.35535,0.35535,0.35535) ==
 == 319-th k-point nmo = 44 (-0.23690,0.47380,0.23690) ==
 == 320-th k-point nmo = 44 (-0.11845,0.59225,0.11845) ==
 == 321-th k-point nmo = 44 (0.00000,0.71071,0.00000) ==
 == 322-th k-point nmo = 44 (-0.59225,-0.11845,0.82916) ==
 == 323-th k-point nmo = 44 (-0.47380,-0.00000,0.71071) ==
 == 324-th k-point nmo = 44 (-0.35535,0.11845,0.59225) ==
 == 325-th k-point nmo = 44 (-0.23690,0.23690,0.47380) ==
 == 326-th k-point nmo = 44 (-0.11845,0.35535,0.35535) ==
 == 327-th k-point nmo = 44 (0.00000,0.47380,0.23690) ==
 == 328-th k-point nmo = 44 (0.11845,0.59225,0.11845) ==
 == 329-th k-point nmo = 44 (-0.47380,-0.23690,0.94761) ==
 == 330-th k-point nmo = 44 (-0.35535,-0.11845,0.82916) ==
 == 331-th k-point nmo = 44 (-0.23690,-0.00000,0.71071) ==
 == 332-th k-point nmo = 44 (-0.11845,0.11845,0.59225) ==
 == 333-th k-point nmo = 44 (0.00000,0.23690,0.47380) ==
 == 334-th k-point nmo = 44 (0.11845,0.35535,0.35535) ==
 == 335-th k-point nmo = 44 (0.23690,0.47380,0.23690) ==
 == 336-th k-point nmo = 44 (-0.35535,-0.35535,1.06606) ==
 == 337-th k-point nmo = 44 (-0.23690,-0.23690,0.94761) ==
 == 338-th k-point nmo = 44 (-0.11845,-0.11845,0.82916) ==
 == 339-th k-point nmo = 44 (0.00000,-0.00000,0.71071) ==
 == 340-th k-point nmo = 44 (0.11845,0.11845,0.59225) ==
 == 341-th k-point nmo = 44 (0.23690,0.23690,0.47380) ==
 == 342-th k-point nmo = 44 (0.35535,0.35535,0.35535) ==

 Generate autoSAD guess
backing up fragment data
Atom # 0: li, charge: 0, multiplicity: 2.000000
Atom # 1: f, charge: 0, multiplicity: 2.000000
writing autosad to fragment context
Settings for isolated fragments: 
  frgm_gamma: TRUE
  frgm_center: FALSE

    Running SCF for isolated atom #0
    Fragment Input file: /n/netscratch/joonholee_lab/Lab/hieudinh//lif_solve_def2tzvp_omega_0.6_777.scratch20250909011546/autosad_frgmt_0/frgmt_input.in
    Fragment Output file: /n/netscratch/joonholee_lab/Lab/hieudinh//lif_solve_def2tzvp_omega_0.6_777.scratch20250909011546/autosad_frgmt_0/frgmt_job.out
    Fragment job begins at Tue Sep  9 01:15:58 2025

 Integrated density by DFT XC:
   Numerical integral  =     2.999999993509
   Relative error      =     0.0000002164 %
Final energy components:
 DFT Correlation            Energy =  -0.05092434039942
 DFT Exchange               Energy =  -1.75140723515056
 Kinetic (alpha)            Energy =   3.83066744044889
 Kinetic (beta)             Energy =   3.58623083148464
 Nuclear Attraction (alpha) Energy =  -9.10958889983068
 Nuclear Attraction (beta)  Energy =  -8.02018991527132
 Nuclear Repulsion          Energy =   0.00000000000000
 SEOQF                      Energy =  -0.00000000000000
 Total Coulomb              Energy =   4.05329323490599
----------------------------------------------
    SCF Energy: -7.4619188838
   Total fragment job time:  0.42 s.
    Running SCF for isolated atom #1
    Fragment Input file: /n/netscratch/joonholee_lab/Lab/hieudinh//lif_solve_def2tzvp_omega_0.6_777.scratch20250909011546/autosad_frgmt_1/frgmt_input.in
    Fragment Output file: /n/netscratch/joonholee_lab/Lab/hieudinh//lif_solve_def2tzvp_omega_0.6_777.scratch20250909011546/autosad_frgmt_1/frgmt_job.out
    Fragment job begins at Tue Sep  9 01:15:58 2025

 Integrated density by DFT XC:
   Numerical integral  =     9.000000032991
   Relative error      =     0.0000003666 %
Final energy components:
 DFT Correlation            Energy =  -0.29005331125227
 DFT Exchange               Energy =  -9.97682915393219
 Kinetic (alpha)            Energy =  51.55991484248817
 Kinetic (beta)             Energy =  47.86189754389153
 Nuclear Attraction (alpha) Energy = -125.32369696155523
 Nuclear Attraction (beta)  Energy = -113.23357709834440
 Nuclear Repulsion          Energy =   0.00000000000000
 SEOQF                      Energy =  -0.00000000020384
 Total Coulomb              Energy =  49.73321880799701
----------------------------------------------
    SCF Energy: -99.6691253309
   Total fragment job time:  0.51 s.
restoring fragment data

 ------------------------------------------------------------------------
 Allocate 89161648 B from available memory: 104846352320 B
 Time for generating SCF guess: 0.97 s

 Allocate 264964 B from available memory: 104757190688 B
 Selected algorithms for each term:
  kpts_kinetic -> @0x14df16791680
  kpts_nn -> @0x14df16791800
  kpts_rij_bigmem -> @0x14df167913e0
  kpts_vnuc_df -> @0x14df16791380
  kpts_xc -> @0x14df167912c0
 Time for computing kinetic matrix is 10.59 s
Start calculating Vnuc DD type!
Start calculating Vnuc CD type!
Start calculating Vnuc CC type!
 Time for computing nuclear attraction matrix is 21.92 s
Compute (P|Q) and use solve on the fly!
Maximum distance between P and Q is 30.17566373239437
Number of images for (P|Qn) is 2041
 Time for computing 2e2c SR integral is 0.12 s
Maximum dynamic memory per thread for 2e3c SR integrals: 0.032 GiB
Batch size for basis function pair is 200 out of 200
 === bvk cell = 0 has 100.000 % of the basis function pairs === 
 === bvk cell = 1 has 100.000 % of the basis function pairs === 
 === bvk cell = 2 has 100.000 % of the basis function pairs === 
 === bvk cell = 3 has 100.000 % of the basis function pairs === 
 === bvk cell = 4 has 100.000 % of the basis function pairs === 
 === bvk cell = 5 has 100.000 % of the basis function pairs === 
 === bvk cell = 6 has 100.000 % of the basis function pairs === 
 === bvk cell = 7 has 100.000 % of the basis function pairs === 
 === bvk cell = 8 has 100.000 % of the basis function pairs === 
 === bvk cell = 9 has 100.000 % of the basis function pairs === 
 === bvk cell = 10 has 100.000 % of the basis function pairs === 
 === bvk cell = 11 has 100.000 % of the basis function pairs === 
 === bvk cell = 12 has 100.000 % of the basis function pairs === 
 === bvk cell = 13 has 100.000 % of the basis function pairs === 
 === bvk cell = 14 has 100.000 % of the basis function pairs === 
 === bvk cell = 15 has 100.000 % of the basis function pairs === 
 === bvk cell = 16 has 100.000 % of the basis function pairs === 
 === bvk cell = 17 has 97.500 % of the basis function pairs === 
 === bvk cell = 18 has 100.000 % of the basis function pairs === 
 === bvk cell = 19 has 100.000 % of the basis function pairs === 
 === bvk cell = 20 has 100.000 % of the basis function pairs === 
 === bvk cell = 21 has 100.000 % of the basis function pairs === 
 === bvk cell = 22 has 100.000 % of the basis function pairs === 
 === bvk cell = 23 has 97.500 % of the basis function pairs === 
 === bvk cell = 24 has 97.500 % of the basis function pairs === 
 === bvk cell = 25 has 100.000 % of the basis function pairs === 
 === bvk cell = 26 has 100.000 % of the basis function pairs === 
 === bvk cell = 27 has 100.000 % of the basis function pairs === 
 === bvk cell = 28 has 100.000 % of the basis function pairs === 
 === bvk cell = 29 has 100.000 % of the basis function pairs === 
 === bvk cell = 30 has 100.000 % of the basis function pairs === 
 === bvk cell = 31 has 100.000 % of the basis function pairs === 
 === bvk cell = 32 has 100.000 % of the basis function pairs === 
 === bvk cell = 33 has 100.000 % of the basis function pairs === 
 === bvk cell = 34 has 100.000 % of the basis function pairs === 
 === bvk cell = 35 has 100.000 % of the basis function pairs === 
 === bvk cell = 36 has 100.000 % of the basis function pairs === 
 === bvk cell = 37 has 100.000 % of the basis function pairs === 
 === bvk cell = 38 has 100.000 % of the basis function pairs === 
 === bvk cell = 39 has 100.000 % of the basis function pairs === 
 === bvk cell = 40 has 86.500 % of the basis function pairs === 
 === bvk cell = 41 has 100.000 % of the basis function pairs === 
 === bvk cell = 42 has 100.000 % of the basis function pairs === 
 === bvk cell = 43 has 100.000 % of the basis function pairs === 
 === bvk cell = 44 has 100.000 % of the basis function pairs === 
 === bvk cell = 45 has 100.000 % of the basis function pairs === 
 === bvk cell = 46 has 100.000 % of the basis function pairs === 
 === bvk cell = 47 has 100.000 % of the basis function pairs === 
 === bvk cell = 48 has 100.000 % of the basis function pairs === 
 === bvk cell = 49 has 100.000 % of the basis function pairs === 
 === bvk cell = 50 has 100.000 % of the basis function pairs === 
 === bvk cell = 51 has 100.000 % of the basis function pairs === 
 === bvk cell = 52 has 100.000 % of the basis function pairs === 
 === bvk cell = 53 has 100.000 % of the basis function pairs === 
 === bvk cell = 54 has 100.000 % of the basis function pairs === 
 === bvk cell = 55 has 100.000 % of the basis function pairs === 
 === bvk cell = 56 has 100.000 % of the basis function pairs === 
 === bvk cell = 57 has 100.000 % of the basis function pairs === 
 === bvk cell = 58 has 100.000 % of the basis function pairs === 
 === bvk cell = 59 has 97.500 % of the basis function pairs === 
 === bvk cell = 60 has 100.000 % of the basis function pairs === 
 === bvk cell = 61 has 100.000 % of the basis function pairs === 
 === bvk cell = 62 has 100.000 % of the basis function pairs === 
 === bvk cell = 63 has 100.000 % of the basis function pairs === 
 === bvk cell = 64 has 100.000 % of the basis function pairs === 
 === bvk cell = 65 has 95.500 % of the basis function pairs === 
 === bvk cell = 66 has 100.000 % of the basis function pairs === 
 === bvk cell = 67 has 100.000 % of the basis function pairs === 
 === bvk cell = 68 has 100.000 % of the basis function pairs === 
 === bvk cell = 69 has 100.000 % of the basis function pairs === 
 === bvk cell = 70 has 100.000 % of the basis function pairs === 
 === bvk cell = 71 has 97.500 % of the basis function pairs === 
 === bvk cell = 72 has 100.000 % of the basis function pairs === 
 === bvk cell = 73 has 97.500 % of the basis function pairs === 
 === bvk cell = 74 has 100.000 % of the basis function pairs === 
 === bvk cell = 75 has 100.000 % of the basis function pairs === 
 === bvk cell = 76 has 100.000 % of the basis function pairs === 
 === bvk cell = 77 has 100.000 % of the basis function pairs === 
 === bvk cell = 78 has 100.000 % of the basis function pairs === 
 === bvk cell = 79 has 100.000 % of the basis function pairs === 
 === bvk cell = 80 has 100.000 % of the basis function pairs === 
 === bvk cell = 81 has 95.000 % of the basis function pairs === 
 === bvk cell = 82 has 97.500 % of the basis function pairs === 
 === bvk cell = 83 has 97.500 % of the basis function pairs === 
 === bvk cell = 84 has 100.000 % of the basis function pairs === 
 === bvk cell = 85 has 100.000 % of the basis function pairs === 
 === bvk cell = 86 has 100.000 % of the basis function pairs === 
 === bvk cell = 87 has 100.000 % of the basis function pairs === 
 === bvk cell = 88 has 97.500 % of the basis function pairs === 
 === bvk cell = 89 has 100.000 % of the basis function pairs === 
 === bvk cell = 90 has 100.000 % of the basis function pairs === 
 === bvk cell = 91 has 100.000 % of the basis function pairs === 
 === bvk cell = 92 has 100.000 % of the basis function pairs === 
 === bvk cell = 93 has 100.000 % of the basis function pairs === 
 === bvk cell = 94 has 100.000 % of the basis function pairs === 
 === bvk cell = 95 has 97.500 % of the basis function pairs === 
 === bvk cell = 96 has 100.000 % of the basis function pairs === 
 === bvk cell = 97 has 100.000 % of the basis function pairs === 
 === bvk cell = 98 has 100.000 % of the basis function pairs === 
 === bvk cell = 99 has 100.000 % of the basis function pairs === 
 === bvk cell = 100 has 100.000 % of the basis function pairs === 
 === bvk cell = 101 has 86.500 % of the basis function pairs === 
 === bvk cell = 102 has 100.000 % of the basis function pairs === 
 === bvk cell = 103 has 100.000 % of the basis function pairs === 
 === bvk cell = 104 has 100.000 % of the basis function pairs === 
 === bvk cell = 105 has 100.000 % of the basis function pairs === 
 === bvk cell = 106 has 100.000 % of the basis function pairs === 
 === bvk cell = 107 has 93.000 % of the basis function pairs === 
 === bvk cell = 108 has 97.500 % of the basis function pairs === 
 === bvk cell = 109 has 100.000 % of the basis function pairs === 
 === bvk cell = 110 has 100.000 % of the basis function pairs === 
 === bvk cell = 111 has 100.000 % of the basis function pairs === 
 === bvk cell = 112 has 100.000 % of the basis function pairs === 
 === bvk cell = 113 has 93.000 % of the basis function pairs === 
 === bvk cell = 114 has 95.500 % of the basis function pairs === 
 === bvk cell = 115 has 97.500 % of the basis function pairs === 
 === bvk cell = 116 has 100.000 % of the basis function pairs === 
 === bvk cell = 117 has 100.000 % of the basis function pairs === 
 === bvk cell = 118 has 100.000 % of the basis function pairs === 
 === bvk cell = 119 has 86.500 % of the basis function pairs === 
 === bvk cell = 120 has 97.500 % of the basis function pairs === 
 === bvk cell = 121 has 97.500 % of the basis function pairs === 
 === bvk cell = 122 has 84.000 % of the basis function pairs === 
 === bvk cell = 123 has 100.000 % of the basis function pairs === 
 === bvk cell = 124 has 100.000 % of the basis function pairs === 
 === bvk cell = 125 has 97.500 % of the basis function pairs === 
 === bvk cell = 126 has 100.000 % of the basis function pairs === 
 === bvk cell = 127 has 100.000 % of the basis function pairs === 
 === bvk cell = 128 has 100.000 % of the basis function pairs === 
 === bvk cell = 129 has 100.000 % of the basis function pairs === 
 === bvk cell = 130 has 44.000 % of the basis function pairs === 
 === bvk cell = 131 has 62.000 % of the basis function pairs === 
 === bvk cell = 132 has 100.000 % of the basis function pairs === 
 === bvk cell = 133 has 100.000 % of the basis function pairs === 
 === bvk cell = 134 has 100.000 % of the basis function pairs === 
 === bvk cell = 135 has 100.000 % of the basis function pairs === 
 === bvk cell = 136 has 100.000 % of the basis function pairs === 
 === bvk cell = 137 has 62.000 % of the basis function pairs === 
 === bvk cell = 138 has 100.000 % of the basis function pairs === 
 === bvk cell = 139 has 100.000 % of the basis function pairs === 
 === bvk cell = 140 has 100.000 % of the basis function pairs === 
 === bvk cell = 141 has 100.000 % of the basis function pairs === 
 === bvk cell = 142 has 100.000 % of the basis function pairs === 
 === bvk cell = 143 has 97.500 % of the basis function pairs === 
 === bvk cell = 144 has 100.000 % of the basis function pairs === 
 === bvk cell = 145 has 100.000 % of the basis function pairs === 
 === bvk cell = 146 has 100.000 % of the basis function pairs === 
 === bvk cell = 147 has 100.000 % of the basis function pairs === 
 === bvk cell = 148 has 100.000 % of the basis function pairs === 
 === bvk cell = 149 has 100.000 % of the basis function pairs === 
 === bvk cell = 150 has 100.000 % of the basis function pairs === 
 === bvk cell = 151 has 100.000 % of the basis function pairs === 
 === bvk cell = 152 has 100.000 % of the basis function pairs === 
 === bvk cell = 153 has 100.000 % of the basis function pairs === 
 === bvk cell = 154 has 100.000 % of the basis function pairs === 
 === bvk cell = 155 has 100.000 % of the basis function pairs === 
 === bvk cell = 156 has 100.000 % of the basis function pairs === 
 === bvk cell = 157 has 100.000 % of the basis function pairs === 
 === bvk cell = 158 has 100.000 % of the basis function pairs === 
 === bvk cell = 159 has 100.000 % of the basis function pairs === 
 === bvk cell = 160 has 100.000 % of the basis function pairs === 
 === bvk cell = 161 has 100.000 % of the basis function pairs === 
 === bvk cell = 162 has 100.000 % of the basis function pairs === 
 === bvk cell = 163 has 100.000 % of the basis function pairs === 
 === bvk cell = 164 has 97.500 % of the basis function pairs === 
 === bvk cell = 165 has 97.500 % of the basis function pairs === 
 === bvk cell = 166 has 100.000 % of the basis function pairs === 
 === bvk cell = 167 has 95.000 % of the basis function pairs === 
 === bvk cell = 168 has 100.000 % of the basis function pairs === 
 === bvk cell = 169 has 100.000 % of the basis function pairs === 
 === bvk cell = 170 has 97.500 % of the basis function pairs === 
 === bvk cell = 171 has 82.000 % of the basis function pairs === 
 === bvk cell = 172 has 54.500 % of the basis function pairs === 
 === bvk cell = 173 has 44.000 % of the basis function pairs === 
 === bvk cell = 174 has 97.500 % of the basis function pairs === 
 === bvk cell = 175 has 100.000 % of the basis function pairs === 
 === bvk cell = 176 has 100.000 % of the basis function pairs === 
 === bvk cell = 177 has 97.500 % of the basis function pairs === 
 === bvk cell = 178 has 54.500 % of the basis function pairs === 
 === bvk cell = 179 has 30.500 % of the basis function pairs === 
 === bvk cell = 180 has 62.000 % of the basis function pairs === 
 === bvk cell = 181 has 97.500 % of the basis function pairs === 
 === bvk cell = 182 has 100.000 % of the basis function pairs === 
 === bvk cell = 183 has 100.000 % of the basis function pairs === 
 === bvk cell = 184 has 100.000 % of the basis function pairs === 
 === bvk cell = 185 has 44.000 % of the basis function pairs === 
 === bvk cell = 186 has 62.000 % of the basis function pairs === 
 === bvk cell = 187 has 100.000 % of the basis function pairs === 
 === bvk cell = 188 has 100.000 % of the basis function pairs === 
 === bvk cell = 189 has 100.000 % of the basis function pairs === 
 === bvk cell = 190 has 100.000 % of the basis function pairs === 
 === bvk cell = 191 has 95.000 % of the basis function pairs === 
 === bvk cell = 192 has 97.500 % of the basis function pairs === 
 === bvk cell = 193 has 97.500 % of the basis function pairs === 
 === bvk cell = 194 has 100.000 % of the basis function pairs === 
 === bvk cell = 195 has 100.000 % of the basis function pairs === 
 === bvk cell = 196 has 100.000 % of the basis function pairs === 
 === bvk cell = 197 has 100.000 % of the basis function pairs === 
 === bvk cell = 198 has 100.000 % of the basis function pairs === 
 === bvk cell = 199 has 100.000 % of the basis function pairs === 
 === bvk cell = 200 has 100.000 % of the basis function pairs === 
 === bvk cell = 201 has 97.500 % of the basis function pairs === 
 === bvk cell = 202 has 97.500 % of the basis function pairs === 
 === bvk cell = 203 has 100.000 % of the basis function pairs === 
 === bvk cell = 204 has 100.000 % of the basis function pairs === 
 === bvk cell = 205 has 100.000 % of the basis function pairs === 
 === bvk cell = 206 has 100.000 % of the basis function pairs === 
 === bvk cell = 207 has 97.500 % of the basis function pairs === 
 === bvk cell = 208 has 84.000 % of the basis function pairs === 
 === bvk cell = 209 has 100.000 % of the basis function pairs === 
 === bvk cell = 210 has 100.000 % of the basis function pairs === 
 === bvk cell = 211 has 100.000 % of the basis function pairs === 
 === bvk cell = 212 has 100.000 % of the basis function pairs === 
 === bvk cell = 213 has 100.000 % of the basis function pairs === 
 === bvk cell = 214 has 82.000 % of the basis function pairs === 
 === bvk cell = 215 has 100.000 % of the basis function pairs === 
 === bvk cell = 216 has 100.000 % of the basis function pairs === 
 === bvk cell = 217 has 100.000 % of the basis function pairs === 
 === bvk cell = 218 has 100.000 % of the basis function pairs === 
 === bvk cell = 219 has 100.000 % of the basis function pairs === 
 === bvk cell = 220 has 92.500 % of the basis function pairs === 
 === bvk cell = 221 has 54.500 % of the basis function pairs === 
 === bvk cell = 222 has 100.000 % of the basis function pairs === 
 === bvk cell = 223 has 100.000 % of the basis function pairs === 
 === bvk cell = 224 has 100.000 % of the basis function pairs === 
 === bvk cell = 225 has 97.500 % of the basis function pairs === 
 === bvk cell = 226 has 82.000 % of the basis function pairs === 
 === bvk cell = 227 has 54.500 % of the basis function pairs === 
 === bvk cell = 228 has 44.000 % of the basis function pairs === 
 === bvk cell = 229 has 97.500 % of the basis function pairs === 
 === bvk cell = 230 has 100.000 % of the basis function pairs === 
 === bvk cell = 231 has 97.500 % of the basis function pairs === 
 === bvk cell = 232 has 84.000 % of the basis function pairs === 
 === bvk cell = 233 has 100.000 % of the basis function pairs === 
 === bvk cell = 234 has 100.000 % of the basis function pairs === 
 === bvk cell = 235 has 97.500 % of the basis function pairs === 
 === bvk cell = 236 has 86.500 % of the basis function pairs === 
 === bvk cell = 237 has 97.500 % of the basis function pairs === 
 === bvk cell = 238 has 97.500 % of the basis function pairs === 
 === bvk cell = 239 has 100.000 % of the basis function pairs === 
 === bvk cell = 240 has 100.000 % of the basis function pairs === 
 === bvk cell = 241 has 100.000 % of the basis function pairs === 
 === bvk cell = 242 has 100.000 % of the basis function pairs === 
 === bvk cell = 243 has 97.500 % of the basis function pairs === 
 === bvk cell = 244 has 100.000 % of the basis function pairs === 
 === bvk cell = 245 has 100.000 % of the basis function pairs === 
 === bvk cell = 246 has 100.000 % of the basis function pairs === 
 === bvk cell = 247 has 100.000 % of the basis function pairs === 
 === bvk cell = 248 has 100.000 % of the basis function pairs === 
 === bvk cell = 249 has 100.000 % of the basis function pairs === 
 === bvk cell = 250 has 97.500 % of the basis function pairs === 
 === bvk cell = 251 has 100.000 % of the basis function pairs === 
 === bvk cell = 252 has 100.000 % of the basis function pairs === 
 === bvk cell = 253 has 100.000 % of the basis function pairs === 
 === bvk cell = 254 has 100.000 % of the basis function pairs === 
 === bvk cell = 255 has 100.000 % of the basis function pairs === 
 === bvk cell = 256 has 97.500 % of the basis function pairs === 
 === bvk cell = 257 has 100.000 % of the basis function pairs === 
 === bvk cell = 258 has 100.000 % of the basis function pairs === 
 === bvk cell = 259 has 100.000 % of the basis function pairs === 
 === bvk cell = 260 has 100.000 % of the basis function pairs === 
 === bvk cell = 261 has 100.000 % of the basis function pairs === 
 === bvk cell = 262 has 100.000 % of the basis function pairs === 
 === bvk cell = 263 has 97.500 % of the basis function pairs === 
 === bvk cell = 264 has 100.000 % of the basis function pairs === 
 === bvk cell = 265 has 100.000 % of the basis function pairs === 
 === bvk cell = 266 has 100.000 % of the basis function pairs === 
 === bvk cell = 267 has 100.000 % of the basis function pairs === 
 === bvk cell = 268 has 100.000 % of the basis function pairs === 
 === bvk cell = 269 has 82.000 % of the basis function pairs === 
 === bvk cell = 270 has 100.000 % of the basis function pairs === 
 === bvk cell = 271 has 100.000 % of the basis function pairs === 
 === bvk cell = 272 has 100.000 % of the basis function pairs === 
 === bvk cell = 273 has 100.000 % of the basis function pairs === 
 === bvk cell = 274 has 97.500 % of the basis function pairs === 
 === bvk cell = 275 has 97.500 % of the basis function pairs === 
 === bvk cell = 276 has 100.000 % of the basis function pairs === 
 === bvk cell = 277 has 95.000 % of the basis function pairs === 
 === bvk cell = 278 has 100.000 % of the basis function pairs === 
 === bvk cell = 279 has 100.000 % of the basis function pairs === 
 === bvk cell = 280 has 97.500 % of the basis function pairs === 
 === bvk cell = 281 has 100.000 % of the basis function pairs === 
 === bvk cell = 282 has 100.000 % of the basis function pairs === 
 === bvk cell = 283 has 100.000 % of the basis function pairs === 
 === bvk cell = 284 has 100.000 % of the basis function pairs === 
 === bvk cell = 285 has 93.000 % of the basis function pairs === 
 === bvk cell = 286 has 95.500 % of the basis function pairs === 
 === bvk cell = 287 has 100.000 % of the basis function pairs === 
 === bvk cell = 288 has 100.000 % of the basis function pairs === 
 === bvk cell = 289 has 100.000 % of the basis function pairs === 
 === bvk cell = 290 has 100.000 % of the basis function pairs === 
 === bvk cell = 291 has 100.000 % of the basis function pairs === 
 === bvk cell = 292 has 95.500 % of the basis function pairs === 
 === bvk cell = 293 has 100.000 % of the basis function pairs === 
 === bvk cell = 294 has 100.000 % of the basis function pairs === 
 === bvk cell = 295 has 100.000 % of the basis function pairs === 
 === bvk cell = 296 has 100.000 % of the basis function pairs === 
 === bvk cell = 297 has 100.000 % of the basis function pairs === 
 === bvk cell = 298 has 100.000 % of the basis function pairs === 
 === bvk cell = 299 has 100.000 % of the basis function pairs === 
 === bvk cell = 300 has 100.000 % of the basis function pairs === 
 === bvk cell = 301 has 100.000 % of the basis function pairs === 
 === bvk cell = 302 has 100.000 % of the basis function pairs === 
 === bvk cell = 303 has 100.000 % of the basis function pairs === 
 === bvk cell = 304 has 100.000 % of the basis function pairs === 
 === bvk cell = 305 has 100.000 % of the basis function pairs === 
 === bvk cell = 306 has 100.000 % of the basis function pairs === 
 === bvk cell = 307 has 100.000 % of the basis function pairs === 
 === bvk cell = 308 has 100.000 % of the basis function pairs === 
 === bvk cell = 309 has 100.000 % of the basis function pairs === 
 === bvk cell = 310 has 100.000 % of the basis function pairs === 
 === bvk cell = 311 has 97.500 % of the basis function pairs === 
 === bvk cell = 312 has 100.000 % of the basis function pairs === 
 === bvk cell = 313 has 100.000 % of the basis function pairs === 
 === bvk cell = 314 has 100.000 % of the basis function pairs === 
 === bvk cell = 315 has 100.000 % of the basis function pairs === 
 === bvk cell = 316 has 100.000 % of the basis function pairs === 
 === bvk cell = 317 has 97.500 % of the basis function pairs === 
 === bvk cell = 318 has 84.000 % of the basis function pairs === 
 === bvk cell = 319 has 100.000 % of the basis function pairs === 
 === bvk cell = 320 has 100.000 % of the basis function pairs === 
 === bvk cell = 321 has 100.000 % of the basis function pairs === 
 === bvk cell = 322 has 100.000 % of the basis function pairs === 
 === bvk cell = 323 has 100.000 % of the basis function pairs === 
 === bvk cell = 324 has 100.000 % of the basis function pairs === 
 === bvk cell = 325 has 100.000 % of the basis function pairs === 
 === bvk cell = 326 has 100.000 % of the basis function pairs === 
 === bvk cell = 327 has 100.000 % of the basis function pairs === 
 === bvk cell = 328 has 100.000 % of the basis function pairs === 
 === bvk cell = 329 has 100.000 % of the basis function pairs === 
 === bvk cell = 330 has 100.000 % of the basis function pairs === 
 === bvk cell = 331 has 100.000 % of the basis function pairs === 
 === bvk cell = 332 has 100.000 % of the basis function pairs === 
 === bvk cell = 333 has 100.000 % of the basis function pairs === 
 === bvk cell = 334 has 93.000 % of the basis function pairs === 
 === bvk cell = 335 has 97.500 % of the basis function pairs === 
 === bvk cell = 336 has 100.000 % of the basis function pairs === 
 === bvk cell = 337 has 100.000 % of the basis function pairs === 
 === bvk cell = 338 has 100.000 % of the basis function pairs === 
 === bvk cell = 339 has 100.000 % of the basis function pairs === 
 === bvk cell = 340 has 100.000 % of the basis function pairs === 
 === bvk cell = 341 has 97.500 % of the basis function pairs === 
 === bvk cell = 342 has 100.000 % of the basis function pairs === 
Static memory requirement for 2e3c SR integrals: 0.048 GB
There are 1 munu batches for computing 2e3c SR integrals with latsum
There are 2 Q batches for computing 2e3c SR integrals with latsum
 Time for computing 2e3c SR integral (CD) is 1.13 s
Maximum dynamic memory per thread for 2e3c SR integrals: 0.013 GiB
Batch size for basis function pair is 871 out of 871
 === bvk cell = 0 has 100.000 % of the basis function pairs === 
 === bvk cell = 1 has 90.586 % of the basis function pairs === 
 === bvk cell = 2 has 30.080 % of the basis function pairs === 
 === bvk cell = 3 has 2.411 % of the basis function pairs === 
 === bvk cell = 4 has 1.378 % of the basis function pairs === 
 === bvk cell = 5 has 18.829 % of the basis function pairs === 
 === bvk cell = 6 has 77.612 % of the basis function pairs === 
 === bvk cell = 7 has 90.586 % of the basis function pairs === 
 === bvk cell = 8 has 39.380 % of the basis function pairs === 
 === bvk cell = 9 has 4.937 % of the basis function pairs === 
 === bvk cell = 10 has 0.000 % of the basis function pairs === 
 === bvk cell = 11 has 1.837 % of the basis function pairs === 
 === bvk cell = 12 has 24.340 % of the basis function pairs === 
 === bvk cell = 13 has 82.778 % of the basis function pairs === 
 === bvk cell = 14 has 30.080 % of the basis function pairs === 
 === bvk cell = 15 has 4.937 % of the basis function pairs === 
 === bvk cell = 16 has 0.000 % of the basis function pairs === 
 === bvk cell = 17 has 0.000 % of the basis function pairs === 
 === bvk cell = 18 has 1.837 % of the basis function pairs === 
 === bvk cell = 19 has 19.518 % of the basis function pairs === 
 === bvk cell = 20 has 33.869 % of the basis function pairs === 
 === bvk cell = 21 has 2.411 % of the basis function pairs === 
 === bvk cell = 22 has 0.000 % of the basis function pairs === 
 === bvk cell = 23 has 0.000 % of the basis function pairs === 
 === bvk cell = 24 has 0.000 % of the basis function pairs === 
 === bvk cell = 25 has 1.033 % of the basis function pairs === 
 === bvk cell = 26 has 2.870 % of the basis function pairs === 
 === bvk cell = 27 has 4.363 % of the basis function pairs === 
 === bvk cell = 28 has 1.378 % of the basis function pairs === 
 === bvk cell = 29 has 1.837 % of the basis function pairs === 
 === bvk cell = 30 has 1.837 % of the basis function pairs === 
 === bvk cell = 31 has 1.033 % of the basis function pairs === 
 === bvk cell = 32 has 0.000 % of the basis function pairs === 
 === bvk cell = 33 has 0.000 % of the basis function pairs === 
 === bvk cell = 34 has 0.000 % of the basis function pairs === 
 === bvk cell = 35 has 18.829 % of the basis function pairs === 
 === bvk cell = 36 has 24.340 % of the basis function pairs === 
 === bvk cell = 37 has 19.518 % of the basis function pairs === 
 === bvk cell = 38 has 2.870 % of the basis function pairs === 
 === bvk cell = 39 has 0.000 % of the basis function pairs === 
 === bvk cell = 40 has 0.000 % of the basis function pairs === 
 === bvk cell = 41 has 2.181 % of the basis function pairs === 
 === bvk cell = 42 has 77.612 % of the basis function pairs === 
 === bvk cell = 43 has 82.778 % of the basis function pairs === 
 === bvk cell = 44 has 33.869 % of the basis function pairs === 
 === bvk cell = 45 has 4.363 % of the basis function pairs === 
 === bvk cell = 46 has 0.000 % of the basis function pairs === 
 === bvk cell = 47 has 2.181 % of the basis function pairs === 
 === bvk cell = 48 has 24.110 % of the basis function pairs === 
 === bvk cell = 49 has 82.778 % of the basis function pairs === 
 === bvk cell = 50 has 33.869 % of the basis function pairs === 
 === bvk cell = 51 has 4.363 % of the basis function pairs === 
 === bvk cell = 52 has 0.000 % of the basis function pairs === 
 === bvk cell = 53 has 2.181 % of the basis function pairs === 
 === bvk cell = 54 has 24.110 % of the basis function pairs === 
 === bvk cell = 55 has 77.612 % of the basis function pairs === 
 === bvk cell = 56 has 33.869 % of the basis function pairs === 
 === bvk cell = 57 has 8.496 % of the basis function pairs === 
 === bvk cell = 58 has 0.000 % of the basis function pairs === 
 === bvk cell = 59 has 0.000 % of the basis function pairs === 
 === bvk cell = 60 has 5.741 % of the basis function pairs === 
 === bvk cell = 61 has 24.340 % of the basis function pairs === 
 === bvk cell = 62 has 52.698 % of the basis function pairs === 
 === bvk cell = 63 has 4.363 % of the basis function pairs === 
 === bvk cell = 64 has 0.000 % of the basis function pairs === 
 === bvk cell = 65 has 0.000 % of the basis function pairs === 
 === bvk cell = 66 has 0.000 % of the basis function pairs === 
 === bvk cell = 67 has 1.837 % of the basis function pairs === 
 === bvk cell = 68 has 17.910 % of the basis function pairs === 
 === bvk cell = 69 has 18.485 % of the basis function pairs === 
 === bvk cell = 70 has 0.000 % of the basis function pairs === 
 === bvk cell = 71 has 0.000 % of the basis function pairs === 
 === bvk cell = 72 has 0.000 % of the basis function pairs === 
 === bvk cell = 73 has 0.000 % of the basis function pairs === 
 === bvk cell = 74 has 0.000 % of the basis function pairs === 
 === bvk cell = 75 has 1.033 % of the basis function pairs === 
 === bvk cell = 76 has 0.000 % of the basis function pairs === 
 === bvk cell = 77 has 2.181 % of the basis function pairs === 
 === bvk cell = 78 has 5.741 % of the basis function pairs === 
 === bvk cell = 79 has 1.837 % of the basis function pairs === 
 === bvk cell = 80 has 0.000 % of the basis function pairs === 
 === bvk cell = 81 has 0.000 % of the basis function pairs === 
[...]
 7.08565 7.08670 7.09492 7.14082 7.22830 7.23403 7.30752 8.46507 8.64850 8.73255
 8.81305 9.03896 16.03664 57.51815
 == 299-th k-point (-0.47380,0.94761,-0.23690) occupation: 6==
 -23.85931 -1.46372 -0.67442 -0.04667 -0.01468 0.01730 0.51411 0.61642 0.73915 0.75612
 1.12117 1.24465 1.42204 1.45481 1.76076 1.83198 1.98012 2.28598 2.45098 2.63624
 2.71524 2.73373 3.48243 4.09663 4.28070 4.43394 4.92155 6.44137 6.50380 6.81858
 7.08489 7.08955 7.09616 7.10082 7.17505 7.24308 7.25783 8.49138 8.74984 8.77617
 8.80214 8.99402 15.98940 57.51173
 == 300-th k-point (-0.35535,1.06606,-0.35535) occupation: 6==
 -23.85930 -1.46388 -0.67712 -0.05366 0.00814 0.02474 0.46740 0.63611 0.74709 0.75109
 1.23470 1.24750 1.36927 1.42236 1.62843 1.80458 1.87493 2.38792 2.44213 2.68398
 2.73342 2.94036 3.43316 4.00854 4.09838 4.34040 4.87134 6.40581 6.63045 6.74555
 7.08472 7.09527 7.10065 7.11426 7.13328 7.14628 7.27948 8.59972 8.71656 8.80612
 8.87827 8.91804 15.95476 57.40770
 == 301-th k-point (-0.94761,0.23690,0.47380) occupation: 6==
 -23.85931 -1.46372 -0.67442 -0.04667 -0.01468 0.01730 0.51411 0.61642 0.73915 0.75612
 1.12117 1.24465 1.42204 1.45481 1.76076 1.83198 1.98012 2.28598 2.45098 2.63624
 2.71524 2.73373 3.48243 4.09663 4.28070 4.43394 4.92155 6.44137 6.50380 6.81858
 7.08489 7.08955 7.09616 7.10082 7.17505 7.24308 7.25783 8.49138 8.74984 8.77617
 8.80214 8.99402 15.98940 57.51173
 == 302-th k-point (-0.82916,0.35535,0.35535) occupation: 6==
 -23.85930 -1.46379 -0.67532 -0.03463 -0.02638 0.02273 0.50950 0.60645 0.75291 0.75583
 1.20056 1.23526 1.45002 1.45024 1.79171 1.85649 2.08366 2.20421 2.41729 2.69358
 2.75403 2.80185 3.48808 3.98604 4.38343 4.45535 4.94739 6.43501 6.73915 6.75599
 7.08359 7.08598 7.09936 7.10080 7.20659 7.21137 7.31212 8.45481 8.77021 8.79563
 8.83638 8.97229 15.94655 57.45503
 == 303-th k-point (-0.71071,0.47380,0.23690) occupation: 6==
 -23.85931 -1.46372 -0.67442 -0.04667 -0.01468 0.01730 0.51411 0.61642 0.73915 0.75612
 1.12117 1.24465 1.42204 1.45481 1.76076 1.83198 1.98012 2.28598 2.45098 2.63624
 2.71524 2.73373 3.48243 4.09663 4.28070 4.43394 4.92155 6.44137 6.50380 6.81858
 7.08489 7.08955 7.09616 7.10082 7.17505 7.24308 7.25783 8.49138 8.74984 8.77617
 8.80214 8.99402 15.98940 57.51173
 == 304-th k-point (-0.59225,0.59225,0.11845) occupation: 6==
 -23.85929 -1.46357 -0.67237 -0.05224 -0.01855 0.01303 0.53843 0.60883 0.73238 0.76315
 1.09810 1.31150 1.39737 1.48313 1.79113 1.82555 1.85489 2.29460 2.47481 2.69783
 2.74443 2.77458 3.47087 4.24713 4.32501 4.35564 4.75785 6.53029 6.59610 6.62971
 7.08595 7.09034 7.10227 7.10707 7.20319 7.24326 7.27757 8.50901 8.76098 8.81286
 8.82436 9.01257 16.02746 57.20250
 == 305-th k-point (-0.47380,0.71071,0.00000) occupation: 6==
 -23.85931 -1.46345 -0.67070 -0.04641 -0.03290 0.00929 0.57609 0.59261 0.70875 0.75328
 1.08109 1.22269 1.38187 1.48673 1.79045 1.80980 2.14217 2.21587 2.47029 2.51902
 2.72312 2.74802 3.52004 4.14526 4.28250 4.29785 4.93020 6.51457 6.59187 6.68048
 7.08536 7.09028 7.09139 7.09458 7.22586 7.23025 7.29983 8.46216 8.69505 8.79990
 8.82258 9.04964 16.06010 57.53648
 == 306-th k-point (-0.35535,0.82916,-0.11845) occupation: 6==
 -23.85931 -1.46345 -0.67070 -0.04641 -0.03290 0.00929 0.57609 0.59261 0.70875 0.75328
 1.08109 1.22269 1.38187 1.48673 1.79045 1.80980 2.14217 2.21587 2.47029 2.51902
 2.72312 2.74802 3.52004 4.14526 4.28250 4.29785 4.93020 6.51457 6.59187 6.68048
 7.08536 7.09028 7.09139 7.09458 7.22586 7.23025 7.29983 8.46216 8.69505 8.79990
 8.82258 9.04964 16.06010 57.53648
 == 307-th k-point (-0.23690,0.94761,-0.23690) occupation: 6==
 -23.85929 -1.46357 -0.67237 -0.05224 -0.01855 0.01303 0.53843 0.60883 0.73238 0.76315
 1.09810 1.31150 1.39737 1.48313 1.79113 1.82555 1.85489 2.29460 2.47481 2.69783
 2.74443 2.77458 3.47087 4.24713 4.32501 4.35564 4.75785 6.53029 6.59610 6.62971
 7.08595 7.09034 7.10227 7.10707 7.20319 7.24326 7.27757 8.50901 8.76098 8.81286
 8.82436 9.01257 16.02746 57.20250
 == 308-th k-point (-0.82916,0.11845,0.59225) occupation: 6==
 -23.85931 -1.46352 -0.67097 -0.05914 -0.01442 0.00622 0.56659 0.62024 0.69975 0.76751
 0.95966 1.32509 1.40345 1.56228 1.73652 1.89262 2.09490 2.21844 2.47415 2.51622
 2.68103 2.73438 3.48052 4.06395 4.28014 4.50084 4.93953 6.45318 6.55545 6.79876
 7.08565 7.08670 7.09492 7.14082 7.22830 7.23403 7.30752 8.46507 8.64850 8.73255
 8.81305 9.03896 16.03664 57.51815
 == 309-th k-point (-0.71071,0.23690,0.47380) occupation: 6==
 -23.85931 -1.46372 -0.67442 -0.04667 -0.01468 0.01730 0.51411 0.61642 0.73915 0.75612
 1.12117 1.24465 1.42204 1.45481 1.76076 1.83198 1.98012 2.28598 2.45098 2.63624
 2.71524 2.73373 3.48243 4.09663 4.28070 4.43394 4.92155 6.44137 6.50380 6.81858
 7.08489 7.08955 7.09616 7.10082 7.17505 7.24308 7.25783 8.49138 8.74984 8.77617
 8.80214 8.99402 15.98940 57.51173
 == 310-th k-point (-0.59225,0.35535,0.35535) occupation: 6==
 -23.85930 -1.46388 -0.67712 -0.05366 0.00814 0.02474 0.46740 0.63611 0.74709 0.75109
 1.23470 1.24750 1.36927 1.42236 1.62843 1.80458 1.87493 2.38792 2.44213 2.68398
 2.73342 2.94036 3.43316 4.00854 4.09838 4.34040 4.87134 6.40581 6.63045 6.74555
 7.08472 7.09527 7.10065 7.11426 7.13328 7.14628 7.27948 8.59972 8.71656 8.80612
 8.87827 8.91804 15.95476 57.40770
 == 311-th k-point (-0.47380,0.47380,0.23690) occupation: 6==
 -23.85930 -1.46388 -0.67712 -0.05366 0.00814 0.02474 0.46740 0.63611 0.74709 0.75109
 1.23470 1.24750 1.36927 1.42236 1.62843 1.80458 1.87493 2.38792 2.44213 2.68398
 2.73342 2.94036 3.43316 4.00854 4.09838 4.34040 4.87134 6.40581 6.63045 6.74555
 7.08472 7.09527 7.10065 7.11426 7.13328 7.14628 7.27948 8.59972 8.71656 8.80612
 8.87827 8.91804 15.95476 57.40770
 == 312-th k-point (-0.35535,0.59225,0.11845) occupation: 6==
 -23.85931 -1.46372 -0.67442 -0.04667 -0.01468 0.01730 0.51411 0.61642 0.73915 0.75612
 1.12117 1.24465 1.42204 1.45481 1.76076 1.83198 1.98012 2.28598 2.45098 2.63624
 2.71524 2.73373 3.48243 4.09663 4.28070 4.43394 4.92155 6.44137 6.50380 6.81858
 7.08489 7.08955 7.09616 7.10082 7.17505 7.24308 7.25783 8.49138 8.74984 8.77617
 8.80214 8.99402 15.98940 57.51173
 == 313-th k-point (-0.23690,0.71071,0.00000) occupation: 6==
 -23.85931 -1.46352 -0.67097 -0.05914 -0.01442 0.00622 0.56659 0.62024 0.69975 0.76751
 0.95966 1.32509 1.40345 1.56228 1.73652 1.89262 2.09490 2.21844 2.47415 2.51622
 2.68103 2.73438 3.48052 4.06395 4.28014 4.50084 4.93953 6.45318 6.55545 6.79876
 7.08565 7.08670 7.09492 7.14082 7.22830 7.23403 7.30752 8.46507 8.64850 8.73255
 8.81305 9.03896 16.03664 57.51815
 == 314-th k-point (-0.11845,0.82916,-0.11845) occupation: 6==
 -23.85928 -1.46343 -0.66940 -0.06951 -0.00906 0.00279 0.58639 0.62890 0.70084 0.78140
 0.92153 1.34467 1.44996 1.63341 1.75978 1.96075 1.98302 2.21560 2.50582 2.56332
 2.60127 2.73869 3.40260 4.10893 4.56247 4.57550 4.65441 6.46833 6.54760 6.85231
 7.08358 7.08675 7.09745 7.17252 7.23180 7.24218 7.36557 8.46161 8.64940 8.65477
 8.81480 9.01483 15.93453 57.08309
 == 315-th k-point (-0.71071,-0.00000,0.71071) occupation: 6==
 -23.85928 -1.46343 -0.66940 -0.06951 -0.00906 0.00279 0.58639 0.62890 0.70084 0.78140
 0.92153 1.34467 1.44996 1.63341 1.75978 1.96075 1.98302 2.21560 2.50582 2.56332
 2.60127 2.73869 3.40260 4.10893 4.56246 4.57550 4.65441 6.46833 6.54760 6.85231
 7.08358 7.08675 7.09745 7.17252 7.23180 7.24218 7.36557 8.46161 8.64940 8.65477
 8.81480 9.01483 15.93453 57.08309
 == 316-th k-point (-0.59225,0.11845,0.59225) occupation: 6==
 -23.85929 -1.46357 -0.67237 -0.05224 -0.01855 0.01303 0.53843 0.60883 0.73238 0.76315
 1.09810 1.31150 1.39737 1.48313 1.79113 1.82555 1.85489 2.29460 2.47481 2.69783
 2.74443 2.77458 3.47087 4.24713 4.32501 4.35564 4.75785 6.53029 6.59610 6.62971
 7.08595 7.09034 7.10227 7.10707 7.20319 7.24326 7.27757 8.50901 8.76098 8.81286
 8.82436 9.01257 16.02746 57.20250
 == 317-th k-point (-0.47380,0.23690,0.47380) occupation: 6==
 -23.85930 -1.46388 -0.67712 -0.05366 0.00814 0.02474 0.46740 0.63611 0.74709 0.75109
 1.23470 1.24750 1.36927 1.42236 1.62843 1.80458 1.87493 2.38792 2.44213 2.68398
 2.73342 2.94036 3.43316 4.00854 4.09838 4.34040 4.87134 6.40581 6.63045 6.74555
 7.08472 7.09527 7.10065 7.11426 7.13328 7.14628 7.27948 8.59972 8.71656 8.80612
 8.87827 8.91804 15.95476 57.40770
 == 318-th k-point (-0.35535,0.35535,0.35535) occupation: 6==
 -23.85931 -1.46411 -0.68006 -0.05355 0.02863 0.02863 0.43658 0.66556 0.74444 0.74444
 1.30995 1.30995 1.32692 1.48987 1.48987 1.71468 1.93985 2.40917 2.40917 2.72734
 2.84818 2.99086 2.99086 3.97505 3.97505 4.15544 5.01170 6.54320 6.54320 6.80120
 7.08359 7.08995 7.08995 7.10657 7.10674 7.10674 7.28101 8.62774 8.62774 8.81271
 8.95291 8.95291 15.07336 57.60252
 == 319-th k-point (-0.23690,0.47380,0.23690) occupation: 6==
 -23.85932 -1.46414 -0.67914 -0.04574 0.01533 0.02135 0.46567 0.64755 0.75357 0.76199
 1.08532 1.33117 1.36949 1.46530 1.51697 1.75299 1.93041 2.36297 2.44031 2.64609
 2.72562 2.91554 3.33361 3.98664 4.14870 4.29951 5.08944 6.35572 6.45572 6.80816
 7.09008 7.09950 7.10007 7.11779 7.14690 7.15751 7.26380 8.58254 8.68379 8.79235
 8.86750 8.92200 15.85542 57.71144
 == 320-th k-point (-0.11845,0.59225,0.11845) occupation: 6==
 -23.85931 -1.46389 -0.67499 -0.05117 0.00093 0.00910 0.52392 0.65515 0.72674 0.78217
 0.93376 1.33270 1.53159 1.53363 1.66047 1.70051 1.99022 2.27969 2.43964 2.64262
 2.71481 2.79733 3.33922 4.01771 4.35169 4.43736 5.07998 6.38832 6.45534 6.82843
 7.08552 7.09179 7.11417 7.14680 7.20926 7.22682 7.23722 8.51265 8.63437 8.79428
 8.82344 8.96192 15.93601 57.65313
 == 321-th k-point (0.00000,0.71071,0.00000) occupation: 6==
 -23.85930 -1.46357 -0.67061 -0.06988 0.00113 0.00113 0.56759 0.69553 0.78994 0.78994
 1.32880 1.54559 1.66977 1.66977 1.95050 1.95050 2.17626 2.19844 2.34067 2.54479
 2.54479 2.54648 3.35081 4.46503 4.67645 4.67645 4.97752 6.49665 6.49665 7.02487
 7.08358 7.08533 7.23274 7.23274 7.23471 7.32505 7.32505 8.43850 8.45471 8.59264
 8.59264 9.00111 15.92050 57.36186
 == 322-th k-point (-0.59225,-0.11845,0.82916) occupation: 6==
 -23.85931 -1.46352 -0.67097 -0.05914 -0.01442 0.00622 0.56659 0.62024 0.69975 0.76751
 0.95966 1.32509 1.40345 1.56228 1.73652 1.89262 2.09490 2.21844 2.47415 2.51622
 2.68103 2.73438 3.48052 4.06395 4.28014 4.50084 4.93953 6.45318 6.55545 6.79876
 7.08565 7.08670 7.09492 7.14082 7.22830 7.23403 7.30752 8.46507 8.64850 8.73255
 8.81305 9.03896 16.03664 57.51815
 == 323-th k-point (-0.47380,-0.00000,0.71071) occupation: 6==
 -23.85931 -1.46345 -0.67070 -0.04641 -0.03290 0.00929 0.57609 0.59261 0.70875 0.75328
 1.08109 1.22269 1.38187 1.48673 1.79045 1.80980 2.14217 2.21587 2.47029 2.51902
 2.72312 2.74802 3.52004 4.14526 4.28250 4.29785 4.93020 6.51457 6.59187 6.68048
 7.08536 7.09028 7.09139 7.09458 7.22586 7.23025 7.29983 8.46216 8.69505 8.79990
 8.82258 9.04964 16.06010 57.53648
 == 324-th k-point (-0.35535,0.11845,0.59225) occupation: 6==
 -23.85931 -1.46372 -0.67442 -0.04667 -0.01468 0.01730 0.51411 0.61642 0.73915 0.75612
 1.12117 1.24465 1.42204 1.45481 1.76076 1.83198 1.98012 2.28598 2.45098 2.63624
 2.71524 2.73373 3.48243 4.09663 4.28070 4.43394 4.92155 6.44137 6.50380 6.81858
 7.08489 7.08955 7.09616 7.10082 7.17505 7.24308 7.25783 8.49138 8.74984 8.77617
 8.80214 8.99402 15.98940 57.51173
 == 325-th k-point (-0.23690,0.23690,0.47380) occupation: 6==
 -23.85932 -1.46414 -0.67914 -0.04574 0.01533 0.02135 0.46567 0.64755 0.75357 0.76199
 1.08532 1.33117 1.36949 1.46530 1.51697 1.75299 1.93041 2.36297 2.44031 2.64609
 2.72562 2.91554 3.33361 3.98664 4.14870 4.29951 5.08944 6.35572 6.45572 6.80816
 7.09008 7.09950 7.10007 7.11779 7.14690 7.15751 7.26380 8.58254 8.68379 8.79235
 8.86750 8.92200 15.85542 57.71144
 == 326-th k-point (-0.11845,0.35535,0.35535) occupation: 6==
 -23.85932 -1.46438 -0.68138 -0.03480 0.00896 0.03112 0.45682 0.64793 0.76680 0.77210
 1.12485 1.29965 1.40760 1.48375 1.64575 1.74824 1.99059 2.33969 2.37375 2.64803
 2.73538 2.94799 3.31680 3.86466 4.23682 4.33876 5.21962 6.30599 6.66284 6.93191
 7.08985 7.09191 7.10231 7.10656 7.11170 7.14786 7.23577 8.58810 8.69673 8.78248
 8.85597 8.90975 15.60509 57.90968
 == 327-th k-point (0.00000,0.47380,0.23690) occupation: 6==
 -23.85932 -1.46427 -0.67958 -0.03338 0.00069 0.02230 0.48357 0.64943 0.75384 0.77865
 1.03852 1.31321 1.46346 1.53018 1.68163 1.74263 2.12660 2.21581 2.42629 2.63776
 2.68391 2.75433 3.35180 4.20228 4.20327 4.51711 5.21626 6.31906 6.47316 6.97283
 7.08753 7.09222 7.10008 7.13030 7.15581 7.21051 7.23886 8.46898 8.65440 8.76838
 8.79616 8.94297 15.81183 57.87628
 == 328-th k-point (0.11845,0.59225,0.11845) occupation: 6==
 -23.85931 -1.46389 -0.67499 -0.05117 0.00093 0.00910 0.52392 0.65515 0.72674 0.78217
 0.93376 1.33270 1.53159 1.53363 1.66047 1.70051 1.99022 2.27969 2.43964 2.64262
 2.71481 2.79733 3.33922 4.01771 4.35169 4.43736 5.07998 6.38832 6.45534 6.82843
 7.08552 7.09179 7.11417 7.14680 7.20926 7.22682 7.23722 8.51265 8.63437 8.79428
 8.82344 8.96192 15.93601 57.65313
 == 329-th k-point (-0.47380,-0.23690,0.94761) occupation: 6==
 -23.85931 -1.46372 -0.67442 -0.04667 -0.01468 0.01730 0.51411 0.61642 0.73915 0.75612
 1.12117 1.24465 1.42204 1.45481 1.76076 1.83198 1.98012 2.28598 2.45098 2.63624
 2.71524 2.73373 3.48243 4.09663 4.28070 4.43394 4.92155 6.44137 6.50380 6.81858
 7.08489 7.08955 7.09616 7.10082 7.17505 7.24308 7.25783 8.49138 8.74984 8.77617
 8.80214 8.99402 15.98940 57.51173
 == 330-th k-point (-0.35535,-0.11845,0.82916) occupation: 6==
 -23.85931 -1.46345 -0.67070 -0.04641 -0.03290 0.00929 0.57609 0.59261 0.70875 0.75328
 1.08109 1.22269 1.38187 1.48673 1.79045 1.80980 2.14217 2.21587 2.47029 2.51902
 2.72312 2.74802 3.52004 4.14526 4.28250 4.29785 4.93020 6.51457 6.59187 6.68048
 7.08536 7.09028 7.09139 7.09458 7.22586 7.23025 7.29983 8.46216 8.69505 8.79990
 8.82258 9.04964 16.06010 57.53648
 == 331-th k-point (-0.23690,-0.00000,0.71071) occupation: 6==
 -23.85931 -1.46352 -0.67097 -0.05914 -0.01442 0.00622 0.56659 0.62024 0.69975 0.76751
 0.95966 1.32509 1.40345 1.56228 1.73652 1.89262 2.09490 2.21844 2.47415 2.51622
 2.68103 2.73438 3.48052 4.06395 4.28014 4.50084 4.93953 6.45318 6.55545 6.79876
 7.08565 7.08670 7.09492 7.14082 7.22830 7.23403 7.30752 8.46507 8.64850 8.73255
 8.81305 9.03896 16.03664 57.51815
 == 332-th k-point (-0.11845,0.11845,0.59225) occupation: 6==
 -23.85931 -1.46389 -0.67499 -0.05117 0.00093 0.00910 0.52392 0.65515 0.72674 0.78217
 0.93376 1.33270 1.53159 1.53363 1.66047 1.70051 1.99022 2.27969 2.43964 2.64262
 2.71481 2.79733 3.33922 4.01771 4.35169 4.43736 5.07998 6.38832 6.45534 6.82843
 7.08552 7.09179 7.11417 7.14680 7.20926 7.22682 7.23722 8.51265 8.63437 8.79428
 8.82344 8.96192 15.93601 57.65313
 == 333-th k-point (0.00000,0.23690,0.47380) occupation: 6==
 -23.85932 -1.46427 -0.67958 -0.03338 0.00069 0.02230 0.48357 0.64943 0.75384 0.77865
 1.03852 1.31321 1.46346 1.53018 1.68163 1.74263 2.12660 2.21581 2.42629 2.63776
 2.68391 2.75433 3.35180 4.20228 4.20327 4.51711 5.21626 6.31906 6.47316 6.97283
 7.08753 7.09222 7.10008 7.13030 7.15581 7.21051 7.23886 8.46898 8.65440 8.76838
 8.79616 8.94297 15.81183 57.87628
 == 334-th k-point (0.11845,0.35535,0.35535) occupation: 6==
 -23.85932 -1.46438 -0.68138 -0.03480 0.00896 0.03112 0.45682 0.64793 0.76680 0.77210
 1.12485 1.29965 1.40760 1.48375 1.64575 1.74824 1.99059 2.33969 2.37375 2.64803
 2.73538 2.94799 3.31680 3.86466 4.23682 4.33876 5.21962 6.30599 6.66284 6.93191
 7.08985 7.09191 7.10231 7.10656 7.11170 7.14786 7.23577 8.58810 8.69673 8.78248
 8.85597 8.90975 15.60509 57.90968
 == 335-th k-point (0.23690,0.47380,0.23690) occupation: 6==
 -23.85932 -1.46414 -0.67914 -0.04574 0.01533 0.02135 0.46567 0.64755 0.75357 0.76199
 1.08532 1.33117 1.36949 1.46530 1.51697 1.75299 1.93041 2.36297 2.44031 2.64609
 2.72562 2.91554 3.33361 3.98664 4.14870 4.29951 5.08944 6.35572 6.45572 6.80816
 7.09008 7.09950 7.10007 7.11779 7.14690 7.15751 7.26380 8.58254 8.68379 8.79235
 8.86750 8.92200 15.85542 57.71144
 == 336-th k-point (-0.35535,-0.35535,1.06606) occupation: 6==
 -23.85930 -1.46388 -0.67712 -0.05366 0.00814 0.02474 0.46740 0.63611 0.74709 0.75109
 1.23470 1.24750 1.36927 1.42236 1.62843 1.80458 1.87493 2.38792 2.44213 2.68398
 2.73342 2.94036 3.43316 4.00854 4.09838 4.34040 4.87134 6.40581 6.63045 6.74555
 7.08472 7.09527 7.10065 7.11426 7.13328 7.14628 7.27948 8.59972 8.71656 8.80612
 8.87827 8.91804 15.95476 57.40770
 == 337-th k-point (-0.23690,-0.23690,0.94761) occupation: 6==
 -23.85929 -1.46357 -0.67237 -0.05224 -0.01855 0.01303 0.53843 0.60883 0.73238 0.76315
 1.09810 1.31150 1.39737 1.48313 1.79113 1.82555 1.85489 2.29460 2.47481 2.69783
 2.74443 2.77458 3.47087 4.24713 4.32501 4.35564 4.75785 6.53029 6.59610 6.62971
 7.08595 7.09034 7.10227 7.10707 7.20319 7.24326 7.27757 8.50901 8.76098 8.81286
 8.82436 9.01257 16.02746 57.20250
 == 338-th k-point (-0.11845,-0.11845,0.82916) occupation: 6==
 -23.85928 -1.46343 -0.66940 -0.06951 -0.00906 0.00279 0.58639 0.62890 0.70084 0.78140
 0.92153 1.34467 1.44996 1.63341 1.75978 1.96075 1.98302 2.21560 2.50582 2.56332
 2.60127 2.73869 3.40260 4.10893 4.56247 4.57550 4.65441 6.46833 6.54760 6.85231
 7.08358 7.08675 7.09745 7.17252 7.23180 7.24218 7.36557 8.46161 8.64940 8.65477
 8.81480 9.01483 15.93453 57.08309
 == 339-th k-point (0.00000,-0.00000,0.71071) occupation: 6==
 -23.85930 -1.46357 -0.67061 -0.06988 0.00113 0.00113 0.56759 0.69553 0.78994 0.78994
 1.32880 1.54559 1.66977 1.66977 1.95050 1.95050 2.17626 2.19844 2.34067 2.54479
 2.54479 2.54648 3.35081 4.46503 4.67645 4.67645 4.97752 6.49665 6.49665 7.02487
 7.08358 7.08533 7.23274 7.23274 7.23471 7.32505 7.32505 8.43850 8.45471 8.59264
 8.59264 9.00111 15.92050 57.36186
 == 340-th k-point (0.11845,0.11845,0.59225) occupation: 6==
 -23.85931 -1.46389 -0.67499 -0.05117 0.00093 0.00910 0.52392 0.65515 0.72674 0.78217
 0.93376 1.33270 1.53159 1.53363 1.66047 1.70051 1.99022 2.27969 2.43964 2.64262
 2.71481 2.79733 3.33922 4.01771 4.35169 4.43736 5.07998 6.38832 6.45534 6.82843
 7.08552 7.09179 7.11417 7.14680 7.20926 7.22682 7.23722 8.51265 8.63437 8.79428
 8.82344 8.96192 15.93601 57.65313
 == 341-th k-point (0.23690,0.23690,0.47380) occupation: 6==
 -23.85932 -1.46414 -0.67914 -0.04574 0.01533 0.02135 0.46567 0.64755 0.75357 0.76199
 1.08532 1.33117 1.36949 1.46530 1.51697 1.75299 1.93041 2.36297 2.44031 2.64609
 2.72562 2.91554 3.33361 3.98664 4.14870 4.29951 5.08944 6.35572 6.45572 6.80816
 7.09008 7.09950 7.10007 7.11779 7.14690 7.15751 7.26380 8.58254 8.68379 8.79235
 8.86750 8.92200 15.85542 57.71144
 == 342-th k-point (0.35535,0.35535,0.35535) occupation: 6==
 -23.85931 -1.46411 -0.68006 -0.05355 0.02863 0.02863 0.43658 0.66556 0.74444 0.74444
 1.30995 1.30995 1.32692 1.48987 1.48987 1.71468 1.93985 2.40917 2.40917 2.72734
 2.84818 2.99086 2.99086 3.97505 3.97505 4.15544 5.01170 6.54320 6.54320 6.80120
 7.08359 7.08995 7.08995 7.10657 7.10674 7.10674 7.28101 8.62774 8.62774 8.81271
 8.95291 8.95291 15.07336 57.60252
 ---------------------------------------------------------------------------
 VBM is at 171-th k-point with 0.99969 eV
 CBM is at 171-th k-point with 10.16326 eV
 Band gap is 9.16357 eV


           Ground-State Mulliken Net Atomic Charges

      Atom                 Charge (a.u.)          Spin (a.u.)
   --------------------------------------------------------
      1 Li                (0.815873,0.000000)    (0.000000,0.000000)
      2  F              (-0.815873,-0.000000)    (0.000000,0.000000)
   --------------------------------------------------------
  Sum of atomic charges =      (0.000000,-0.000000)
  Sum of spin   charges =       (0.000000,0.000000)



 Total job time:  147.22 s.
 Tue Sep  9 01:18:14 2025


        *************************************************************
        *                                                           *
        *  Thank you very much for using QCPBC. Have a nice day.    *
        *                                                           *
        *************************************************************

Running job 1 of 1
