                  Welcome to Q-Chem
           with Periodic Boundary Condition
     A Quantum Leap Into The Future Of Chemistry

 Adam Rettig, Xintian Feng, Meng-Fu Chen, Hieu Dinh, Stephen Quiton,
 Anton Ni, Paul J. Robinson, Jinghong Zhang, Joonho Lee

Contributors to earlier versions of Q-Chem not listed above:
 Evgeny Epifanovsky, Leo Cunha, Jerome F. Gonthier, Kuan-Yu Liu
 Input file: /n/netscratch/joonholee_lab/Lab/hieudinh//lif_solve_def2tzvp_omega_0.9_666.scratch20250909004005/lif_solve_def2tzvp_omega_0.9_666.0
 Scratch folder: /n/netscratch/joonholee_lab/Lab/hieudinh//lif_solve_def2tzvp_omega_0.9_666.scratch20250909004005
 Auxillary files located at: /n/holylabs/LABS/joonholee_lab/Lab/qchem_base/qcaux
 Q-Chem begins on Tue Sep  9 00:40:05 2025

 -------------------------------------------------------------
 User input:
 -------------------------------------------------------------
 $lattice
 3
 0.000000 2.005000 2.005000
 2.005000 0.000000 2.005000
 2.005000 2.005000 0.000000
 $end
 
 $unitcell
 ABSOLUTE
 0 1
 Li 0.000000 0.000000 0.000000
 F  2.005000 0.000000 0.000000
 $end
 
 $rem
 jobtype = sp
 method = pbe
 scf_convergence = 5
 scf_guess = autosad
 scf_algorithm = gdm
 basis = def2-tzvp
 aux_basis = gen
 input_bohr = false
 symmetry false
 is_basis_uctr true
 rsdf_print_level 1
 
 mp_mesh = [6,6,6]
 
 integral_direct true
 bvk_cgto true
 
 thresh 14
 mem_total 100000
 threads 32
 
 MAX_SCF_CYCLES 400
 madelung = false
 omega 0.9
 do_rij_bigmem true
 automate_g true
 print_level 10
 grid_type_xc 1
 
 thresh_1e2c_sp 1e-14
 thresh_2e3c_bra_ket_sep 1e-10
 thresh_g 1e-12
 $end
 
 $aux_basis
 Li     0
 S   7   1.00
     498.3689730              0.0207908
     162.9342738              0.0542177
      57.3246735              0.1776783
      21.6427314              0.4181150
       8.7345375              0.6535245
       3.7491039              0.5492618
       1.7006754              0.1701425
 S   1   1.00
       0.8090859             -0.0097548
 S   1   1.00
       0.4000933             -0.0050152
 S   1   1.00
       0.2035793              0.0232200
 !S   1   1.00
 !      0.1054201              0.0134535
 !S   1   1.00
 !      0.0549139              0.0006647
 P   2   1.00
      10.7024696              0.0072923
       3.6551543              0.0060940
 P   1   1.00
       1.2464013              0.0172529
 P   1   1.00
       0.4246282             -0.0160026
 P   1   1.00
       0.1446192             -0.0195111
 D   2   1.00
       1.1510647             -0.0014314
       0.6019112              0.0038969
 D   1   1.00
       0.3109573              0.0024683
 D   1   1.00
       0.1600032              0.0036451
 F   2   1.00
       0.5967918              0.0010494
       0.1790687              0.0006468
 G   1   1.00
       1.0460130             -0.0001971
 ****
 F     0
 S   7   1.00
    3514.9201549              0.1805835
    1231.2458815              0.3676084
     454.1367336              1.2707881
     175.8376258              2.8274164
      71.2081775              4.3588226
      30.0316883              2.7180994
      13.1259023             -0.0804726
 S   1   1.00
       5.9126861             -0.0023370
 S   1   1.00
       2.7284431              1.1236274
 S   1   1.00
       1.2813993              0.9999042
 S   1   1.00
       0.6082793              0.3119579
 S   1   1.00
       0.2897894              0.0312295
 P   2   1.00
      49.3740409             -0.0346332
      13.4874956             -0.0096069
 P   1   1.00
       3.9664900              0.0762067
 P   1   1.00
       1.2226629             -0.0103329
 P   1   1.00
       0.3830317              0.0018853
 D   2   1.00
      29.9719140             -0.0113316
       6.7860915             -0.0467639
 D   1   1.00
       1.8137313             -0.0167604
 D   1   1.00
       0.5157840             -0.0050777
 F   2   1.00
       2.8301877              1.0
       0.9155962              1.0
 G   1   1.00
       1.6097500             -0.0005411
 ****
 $end
 -------------------------------------------------------------
 Running PBC job

 Requested Exchange Correlation Functionals: 
  DFT Exchange:  1.00000 pbe_x
  DFT Correlation:  1.00000 pbe_c
 using 32 threads for computing.
 ---------------------------------------------------------------
      Coordinates of Atoms in Central Unit Cell (Angstroms)
    I     Atom         X            Y            Z
 ---------------------------------------------------------------
    1      Li      0.000000     0.000000     0.000000
    2       F      2.005000     0.000000     0.000000
 ---------------------------------------------------------------
 --------------------------------------------------
              Lattice Vectors (Angstroms)
              X            Y            Z
 --------------------------------------------------
   X       0.000000     2.005000     2.005000
   Y       2.005000     0.000000     2.005000
   Z       2.005000     2.005000     0.000000
 --------------------------------------------------
 --------------------------------------------------
       Reciprocal Lattice Vectors (Angstroms^-1)
              X            Y            Z
 --------------------------------------------------
   X      -1.566879     1.566879     1.566879
   Y       1.566879    -1.566879     1.566879
   Z       1.566879     1.566879    -1.566879
 --------------------------------------------------

 Single point calculation requested

 Hamiltonian contributions:
 List of terms in Hamiltonian: kpts_nn, kpts_kinetic, kpts_vnuc_df, kpts_xc, kpts_rij_bigmem

 K-Points calculation started.

 Basis set information about using solid harmonic (1) or Cartesian (0):
  li : 
  f : D(1) D(1) F(1) 

 Basis set information about using solid harmonic (1) or Cartesian (0):
  li : D(1) D(1) D(1) F(1) G(1) 
  f : D(1) D(1) D(1) F(1) G(1) 

 There are 45 basis functions in the central unit cell.
 Print atomic basis of atoms in the central unit cell:
 -------------------------------------------------------------
2 34 34 19

  0.00000000000000e+00  0.00000000000000e+00  0.00000000000000e+00
  3.78890087987467e+00  0.00000000000000e+00  0.00000000000000e+00

  6.26926280100000e+03
  9.40316124310000e+02
  2.14221075280000e+02
  6.07598401840000e+01
  1.99151520320000e+01
  7.31715097970000e+00
  2.97246742160000e+00
  1.26398523140000e+00
  5.14274899530000e-01
  7.70308859010000e-02
  2.89388964330000e-02
  3.32700000000000e+00
  4.00000000000000e-01
  6.00000000000000e-02
  3.54791004410000e+04
  5.31847289830000e+03
  1.21048109750000e+03
  3.42855181400000e+02
  1.12019431810000e+02
  4.07147402480000e+01
  1.60396781110000e+01
  6.50381867400000e+00
  1.54404775090000e+00
  6.12234528620000e-01
  2.40279796980000e-01
  8.02339004830000e+01
  1.85940107430000e+01
  5.68679026530000e+00
  1.95110062940000e+00
  6.69702112980000e-01
  2.16513004100000e-01
  3.10700000000000e+00
  8.55000000000000e-01
  1.91700000000000e+00

  2.60146728801502e-01
  4.85835841940497e-01
  8.34119322504559e-01
  1.32445742735490e+00
  1.88157694810314e+00
  2.19520050299083e+00
  7.26218105813079e-01
  4.94491916459429e-01
  4.32819270028068e-01
  1.04209847805929e-01
  5.00059366529026e-02
  6.40480761295544e+00
  4.53435039044381e-01
  4.23281366783111e-02
  1.03516566506933e+00
  1.93311703276555e+00
  3.30816792488426e+00
  5.19043602286014e+00
  7.14537150961128e+00
  7.78535976400937e+00
  3.61564648527820e+00
  1.16499925171188e+00
  9.87201115801914e-01
  4.93285621447351e-01
  2.44595258796206e-01
  4.21740775922586e+00
  4.71742640820820e+00
  4.08491013761290e+00
  2.29989742214987e+00
  8.63559317399815e-01
  2.10520828359705e-01
  1.19675885449078e+01
  1.25126747832287e+00
  6.36581779142017e+00

0 0 0 0 1 1 1
0 0 
6 0

0 1 1 6 1 1 1
6 0 
2 0

0 2 2 8 1 1 1
8 0 
1 0

0 3 3 9 1 1 1
9 0 
1 0

0 4 4 10 1 1 1
10 0 
1 0

0 5 5 11 1 3 3
11 1 
1 0

0 8 8 12 1 3 3
12 1 
1 0

0 11 11 13 1 3 3
13 1 
1 0

1 14 14 14 1 1 1
14 0 
6 0

1 15 15 20 1 1 1
20 0 
2 0

1 16 16 22 1 1 1
22 0 
1 0

1 17 17 23 1 1 1
23 0 
1 0

1 18 18 24 1 1 1
24 0 
1 0

1 19 19 25 1 3 3
25 1 
4 0

1 22 22 29 1 3 3
29 1 
1 0

1 25 25 30 1 3 3
30 1 
1 0

1 28 28 31 1 5 6
31 2 
1 1

1 33 33 32 1 5 6
32 2 
1 1

1 38 38 33 1 7 10
33 3 
1 1

 -------------------------------------------------------------
 Allocate 134496 B from available memory: 104857600000 B
 There are 6859 image cells after screening.
 There are 10216 image cells for CGTO evaluation after screening.
 Real-Space grid for FFT initialized based on kinetic energy cutoff (eV) = 500.0
 Real-Space grid for FFT: (8,8,8)
 There are 4913 real-space grid points.
 There are 27 batches of real-space grid points. 
 Size of each grid batch is around 128
 Grid for AFT initialized based on kinetic energy cutoff (eV) = 500.0
 Real-Space grid for AFT: (8,8,8)
 There are 4913 real-space grid points.

 There are 5740 atom-centered grid points.

 Spacegroup symmetry group: Fm-3m
 Reducing spacegroup symmetry to symmorphic group: F m -3 m
 Monkhorst-Pack mesh is [6,6,6]
 There are 216 k points.
kpoints in Bohr
-0.2763855758 -0.2763855758 -0.2763855758
-0.1381927879 -0.1381927879 -0.4145783636
-0.0000000000 0.0000000000 -0.5527711515
0.1381927879 0.1381927879 -0.6909639394
0.2763855758 0.2763855758 -0.8291567273
0.4145783636 0.4145783636 -0.9673495152
-0.1381927879 -0.4145783636 -0.1381927879
-0.0000000000 -0.2763855758 -0.2763855758
0.1381927879 -0.1381927879 -0.4145783636
0.2763855758 0.0000000000 -0.5527711515
0.4145783636 0.1381927879 -0.6909639394
0.5527711515 0.2763855758 -0.8291567273
-0.0000000000 -0.5527711515 -0.0000000000
0.1381927879 -0.4145783636 -0.1381927879
0.2763855758 -0.2763855758 -0.2763855758
0.4145783636 -0.1381927879 -0.4145783636
0.5527711515 0.0000000000 -0.5527711515
0.6909639394 0.1381927879 -0.6909639394
0.1381927879 -0.6909639394 0.1381927879
0.2763855758 -0.5527711515 -0.0000000000
0.4145783636 -0.4145783636 -0.1381927879
0.5527711515 -0.2763855758 -0.2763855758
0.6909639394 -0.1381927879 -0.4145783636
0.8291567273 0.0000000000 -0.5527711515
0.2763855758 -0.8291567273 0.2763855758
0.4145783636 -0.6909639394 0.1381927879
0.5527711515 -0.5527711515 -0.0000000000
0.6909639394 -0.4145783636 -0.1381927879
0.8291567273 -0.2763855758 -0.2763855758
0.9673495152 -0.1381927879 -0.4145783636
0.4145783636 -0.9673495152 0.4145783636
0.5527711515 -0.8291567273 0.2763855758
0.6909639394 -0.6909639394 0.1381927879
0.8291567273 -0.5527711515 -0.0000000000
0.9673495152 -0.4145783636 -0.1381927879
1.1055423031 -0.2763855758 -0.2763855758
-0.4145783636 -0.1381927879 -0.1381927879
-0.2763855758 0.0000000000 -0.2763855758
-0.1381927879 0.1381927879 -0.4145783636
-0.0000000000 0.2763855758 -0.5527711515
0.1381927879 0.4145783636 -0.6909639394
0.2763855758 0.5527711515 -0.8291567273
-0.2763855758 -0.2763855758 -0.0000000000
-0.1381927879 -0.1381927879 -0.1381927879
-0.0000000000 0.0000000000 -0.2763855758
0.1381927879 0.1381927879 -0.4145783636
0.2763855758 0.2763855758 -0.5527711515
0.4145783636 0.4145783636 -0.6909639394
-0.1381927879 -0.4145783636 0.1381927879
-0.0000000000 -0.2763855758 -0.0000000000
0.1381927879 -0.1381927879 -0.1381927879
0.2763855758 0.0000000000 -0.2763855758
0.4145783636 0.1381927879 -0.4145783636
0.5527711515 0.2763855758 -0.5527711515
0.0000000000 -0.5527711515 0.2763855758
0.1381927879 -0.4145783636 0.1381927879
0.2763855758 -0.2763855758 -0.0000000000
0.4145783636 -0.1381927879 -0.1381927879
0.5527711515 0.0000000000 -0.2763855758
0.6909639394 0.1381927879 -0.4145783636
0.1381927879 -0.6909639394 0.4145783636
0.2763855758 -0.5527711515 0.2763855758
0.4145783636 -0.4145783636 0.1381927879
0.5527711515 -0.2763855758 -0.0000000000
0.6909639394 -0.1381927879 -0.1381927879
0.8291567273 0.0000000000 -0.2763855758
0.2763855758 -0.8291567273 0.5527711515
0.4145783636 -0.6909639394 0.4145783636
0.5527711515 -0.5527711515 0.2763855758
0.6909639394 -0.4145783636 0.1381927879
0.8291567273 -0.2763855758 -0.0000000000
0.9673495152 -0.1381927879 -0.1381927879
-0.5527711515 0.0000000000 0.0000000000
-0.4145783636 0.1381927879 -0.1381927879
-0.2763855758 0.2763855758 -0.2763855758
-0.1381927879 0.4145783636 -0.4145783636
-0.0000000000 0.5527711515 -0.5527711515
0.1381927879 0.6909639394 -0.6909639394
-0.4145783636 -0.1381927879 0.1381927879
-0.2763855758 0.0000000000 0.0000000000
-0.1381927879 0.1381927879 -0.1381927879
-0.0000000000 0.2763855758 -0.2763855758
0.1381927879 0.4145783636 -0.4145783636
0.2763855758 0.5527711515 -0.5527711515
-0.2763855758 -0.2763855758 0.2763855758
-0.1381927879 -0.1381927879 0.1381927879
0.0000000000 0.0000000000 0.0000000000
0.1381927879 0.1381927879 -0.1381927879
0.2763855758 0.2763855758 -0.2763855758
0.4145783636 0.4145783636 -0.4145783636
-0.1381927879 -0.4145783636 0.4145783636
0.0000000000 -0.2763855758 0.2763855758
0.1381927879 -0.1381927879 0.1381927879
0.2763855758 -0.0000000000 0.0000000000
0.4145783636 0.1381927879 -0.1381927879
0.5527711515 0.2763855758 -0.2763855758
0.0000000000 -0.5527711515 0.5527711515
0.1381927879 -0.4145783636 0.4145783636
0.2763855758 -0.2763855758 0.2763855758
0.4145783636 -0.1381927879 0.1381927879
0.5527711515 -0.0000000000 0.0000000000
0.6909639394 0.1381927879 -0.1381927879
0.1381927879 -0.6909639394 0.6909639394
0.2763855758 -0.5527711515 0.5527711515
0.4145783636 -0.4145783636 0.4145783636
0.5527711515 -0.2763855758 0.2763855758
0.6909639394 -0.1381927879 0.1381927879
0.8291567273 -0.0000000000 0.0000000000
-0.6909639394 0.1381927879 0.1381927879
-0.5527711515 0.2763855758 0.0000000000
-0.4145783636 0.4145783636 -0.1381927879
-0.2763855758 0.5527711515 -0.2763855758
-0.1381927879 0.6909639394 -0.4145783636
-0.0000000000 0.8291567273 -0.5527711515
-0.5527711515 -0.0000000000 0.2763855758
-0.4145783636 0.1381927879 0.1381927879
-0.2763855758 0.2763855758 0.0000000000
-0.1381927879 0.4145783636 -0.1381927879
-0.0000000000 0.5527711515 -0.2763855758
0.1381927879 0.6909639394 -0.4145783636
-0.4145783636 -0.1381927879 0.4145783636
-0.2763855758 -0.0000000000 0.2763855758
-0.1381927879 0.1381927879 0.1381927879
0.0000000000 0.2763855758 0.0000000000
0.1381927879 0.4145783636 -0.1381927879
0.2763855758 0.5527711515 -0.2763855758
-0.2763855758 -0.2763855758 0.5527711515
-0.1381927879 -0.1381927879 0.4145783636
0.0000000000 -0.0000000000 0.2763855758
0.1381927879 0.1381927879 0.1381927879
0.2763855758 0.2763855758 0.0000000000
0.4145783636 0.4145783636 -0.1381927879
-0.1381927879 -0.4145783636 0.6909639394
0.0000000000 -0.2763855758 0.5527711515
0.1381927879 -0.1381927879 0.4145783636
0.2763855758 -0.0000000000 0.2763855758
0.4145783636 0.1381927879 0.1381927879
0.5527711515 0.2763855758 0.0000000000
0.0000000000 -0.5527711515 0.8291567273
0.1381927879 -0.4145783636 0.6909639394
0.2763855758 -0.2763855758 0.5527711515
0.4145783636 -0.1381927879 0.4145783636
0.5527711515 -0.0000000000 0.2763855758
0.6909639394 0.1381927879 0.1381927879
-0.8291567273 0.2763855758 0.2763855758
-0.6909639394 0.4145783636 0.1381927879
-0.5527711515 0.5527711515 0.0000000000
-0.4145783636 0.6909639394 -0.1381927879
-0.2763855758 0.8291567273 -0.2763855758
-0.1381927879 0.9673495152 -0.4145783636
-0.6909639394 0.1381927879 0.4145783636
-0.5527711515 0.2763855758 0.2763855758
-0.4145783636 0.4145783636 0.1381927879
-0.2763855758 0.5527711515 0.0000000000
-0.1381927879 0.6909639394 -0.1381927879
0.0000000000 0.8291567273 -0.2763855758
-0.5527711515 -0.0000000000 0.5527711515
-0.4145783636 0.1381927879 0.4145783636
-0.2763855758 0.2763855758 0.2763855758
-0.1381927879 0.4145783636 0.1381927879
0.0000000000 0.5527711515 0.0000000000
0.1381927879 0.6909639394 -0.1381927879
-0.4145783636 -0.1381927879 0.6909639394
-0.2763855758 -0.0000000000 0.5527711515
-0.1381927879 0.1381927879 0.4145783636
0.0000000000 0.2763855758 0.2763855758
0.1381927879 0.4145783636 0.1381927879
0.2763855758 0.5527711515 0.0000000000
-0.2763855758 -0.2763855758 0.8291567273
-0.1381927879 -0.1381927879 0.6909639394
0.0000000000 -0.0000000000 0.5527711515
0.1381927879 0.1381927879 0.4145783636
0.2763855758 0.2763855758 0.2763855758
0.4145783636 0.4145783636 0.1381927879
-0.1381927879 -0.4145783636 0.9673495152
0.0000000000 -0.2763855758 0.8291567273
0.1381927879 -0.1381927879 0.6909639394
0.2763855758 -0.0000000000 0.5527711515
0.4145783636 0.1381927879 0.4145783636
0.5527711515 0.2763855758 0.2763855758
-0.9673495152 0.4145783636 0.4145783636
-0.8291567273 0.5527711515 0.2763855758
-0.6909639394 0.6909639394 0.1381927879
-0.5527711515 0.8291567273 0.0000000000
-0.4145783636 0.9673495152 -0.1381927879
-0.2763855758 1.1055423031 -0.2763855758
-0.8291567273 0.2763855758 0.5527711515
-0.6909639394 0.4145783636 0.4145783636
-0.5527711515 0.5527711515 0.2763855758
-0.4145783636 0.6909639394 0.1381927879
-0.2763855758 0.8291567273 0.0000000000
-0.1381927879 0.9673495152 -0.1381927879
-0.6909639394 0.1381927879 0.6909639394
-0.5527711515 0.2763855758 0.5527711515
-0.4145783636 0.4145783636 0.4145783636
-0.2763855758 0.5527711515 0.2763855758
-0.1381927879 0.6909639394 0.1381927879
0.0000000000 0.8291567273 0.0000000000
-0.5527711515 -0.0000000000 0.8291567273
-0.4145783636 0.1381927879 0.6909639394
-0.2763855758 0.2763855758 0.5527711515
-0.1381927879 0.4145783636 0.4145783636
0.0000000000 0.5527711515 0.2763855758
0.1381927879 0.6909639394 0.1381927879
-0.4145783636 -0.1381927879 0.9673495152
-0.2763855758 -0.0000000000 0.8291567273
-0.1381927879 0.1381927879 0.6909639394
0.0000000000 0.2763855758 0.5527711515
0.1381927879 0.4145783636 0.4145783636
0.2763855758 0.5527711515 0.2763855758
-0.2763855758 -0.2763855758 1.1055423031
-0.1381927879 -0.1381927879 0.9673495152
0.0000000000 -0.0000000000 0.8291567273
0.1381927879 0.1381927879 0.6909639394
0.2763855758 0.2763855758 0.5527711515
0.4145783636 0.4145783636 0.4145783636
 There are 6 alpha and 6 beta electrons
 Start computing overlap matrix
 Allocate 6998400 B from available memory: 104857465504 B
 Time for computing overlap matrix: 9.3010000000 s
 ====== Initialize compute kernels for all-electron RI-J (kpts) ====== 
 ========================================================== 
 Range-separated parameter omega        = 0.900000000000000022
 Threshold for 1e2c shellpair           = 0.000000000000010000
 Threshold for 2e2c SR integral         = 0.000000000000000001
 Threshold for 2e3c SR integral         = 0.000000000100000000
 Threshold for AFT G-space screening is = 0.000000000001000000
 The exponent cutoff for C/D classification (omega2 / 2) is  = 0.405000000000000027
 ========================================================== 
 === Post process the basis set for RI calculation (exp_cutoff = 0.405000000000000027 ) === 
nshells_b1 before uncontraction = 19
nshells_b1 after uncontraction = 19
nshells_baux before uncontraction = 28
nshells_baux after uncontraction = 28
===============================================
nbsf total   = 45
nbsf compact = 33
nbsf diffuse = 12
naux total   = 96
naux compact = 96
naux diffuse = 0
nshells_bnuc = 2

 Number of unique atoms is 2
 Unique atom #0 (li) has 4 shells.
 Unique atom #1 (f) has 9 shells.

Shell 0 to 3 belongs to atom li
Shell 4 to 12 belongs to atom f

 Number of unique atoms is 2
 Unique atom #0 (li) has 4 shells.
 Unique atom #1 (f) has 2 shells.

Shell 0 to 3 belongs to atom li
Shell 4 to 5 belongs to atom f

 Number of unique atom is 2
 Unique atom #0 (li) has 13 auxiliary shells.
 Unique atom #1 (f) has 15 auxiliary shells.

Auxiliary Shell 0 to 12 belongs to atom li
Auxiliary Shell 13 to 27 belongs to atom f

================= Automatically determine grid size for reciprocal space summation =================
 Range-separated parameter = 0.90000000000000 and G-space screening threshold = 0.00000000000100
The number of grid points along each axis dimension is (7, 7, 7)
Total number of grid points = 3375

Use nonortho shellpair for diffuse density
======== Initializing relevant kernel for RIJ (DD type) ========
There are 21 shellpairs in the reference unit cell
There are 14003 images and we expect to have 294063 in total
There are 16705 shellpairs in the lattice sum after screening
======== Initializing relevant kernel for RIJ (CD type) ========
There are 78 shellpairs in the reference unit cell
There are 8175 images and we expect to have 637650 in total
There are 30260 shellpairs in the lattice sum after screening
****** AFT -> SR ******
Maximum bra distance cutoff is 33.000000000000
Maximum bra ket distance cutoff is 17.968770700363
Maximum bra ket screening distance is 17.343750000000
Number of auxiliary image is 2611
There are 78 shellpairs in the reference unit cell
There are 2611 images and we expect to have 203658 in total
There are 30260 shellpairs in the lattice sum after screening
Available memory per thread for 2e3c calculation is 3.276577097000Gb
Finish initializing 2e3c SR with the lattice sum!
=================================================
======== Initializing relevant kernel for RIJ (CC type) ========
There are 88 shellpairs in the reference unit cell
There are 695 images and we expect to have 61160 in total
There are 1337 shellpairs in the lattice sum after screening
****** AFT -> SR ******
Maximum bra distance cutoff is 10.000000000000
Maximum bra ket distance cutoff is 18.593368050563
Maximum bra ket screening distance is 17.000000000000
Number of auxiliary image is 695
There are 88 shellpairs in the reference unit cell
There are 213 images and we expect to have 18744 in total
There are 1337 shellpairs in the lattice sum after screening
Available memory per thread for 2e3c calculation is 3.276577097000Gb
Finish initializing 2e3c SR with the lattice sum!
=================================================
======== Initializing the SR component for Vnuc (CD type) ========
Maximum bra distance cutoff is 33.000000000000
Maximum bra ket distance cutoff is 9.129701720000
Maximum bra ket screening distance is 8.478683757907
Number of auxiliary image is 2611
There are 78 shellpairs in the reference unit cell
There are 2611 images and we expect to have 203658 in total
There are 30260 shellpairs in the lattice sum after screening
Available memory per thread for 2e3c calculation is 3.276577097000Gb
Finish initializing 2e3c SR with the lattice sum!
=================================================
======== Initialize the SR component for Vnuc (CC type) ========
Maximum bra distance cutoff is 10.000000000000
Maximum bra ket distance cutoff is 10.053892184326
Maximum bra ket screening distance is 7.232660986948
Number of auxiliary image is 213
There are 88 shellpairs in the reference unit cell
There are 213 images and we expect to have 18744 in total
There are 1337 shellpairs in the lattice sum after screening
Available memory per thread for 2e3c calculation is 3.276577097000Gb
Finish initializing 2e3c SR with the lattice sum!
=================================================
 Aufbau occupation scheme, occupation determined by eigenvalue
 == 0-th k-point nmo = 45 (-0.27639,-0.27639,-0.27639) ==
 == 1-th k-point nmo = 44 (-0.13819,-0.13819,-0.41458) ==
 == 2-th k-point nmo = 44 (-0.00000,0.00000,-0.55277) ==
 == 3-th k-point nmo = 44 (0.13819,0.13819,-0.69096) ==
 == 4-th k-point nmo = 44 (0.27639,0.27639,-0.82916) ==
 == 5-th k-point nmo = 44 (0.41458,0.41458,-0.96735) ==
 == 6-th k-point nmo = 44 (-0.13819,-0.41458,-0.13819) ==
 == 7-th k-point nmo = 44 (-0.00000,-0.27639,-0.27639) ==
 == 8-th k-point nmo = 44 (0.13819,-0.13819,-0.41458) ==
 == 9-th k-point nmo = 44 (0.27639,0.00000,-0.55277) ==
 == 10-th k-point nmo = 44 (0.41458,0.13819,-0.69096) ==
 == 11-th k-point nmo = 44 (0.55277,0.27639,-0.82916) ==
 == 12-th k-point nmo = 44 (-0.00000,-0.55277,-0.00000) ==
 == 13-th k-point nmo = 44 (0.13819,-0.41458,-0.13819) ==
 == 14-th k-point nmo = 45 (0.27639,-0.27639,-0.27639) ==
 == 15-th k-point nmo = 44 (0.41458,-0.13819,-0.41458) ==
 == 16-th k-point nmo = 44 (0.55277,0.00000,-0.55277) ==
 == 17-th k-point nmo = 44 (0.69096,0.13819,-0.69096) ==
 == 18-th k-point nmo = 44 (0.13819,-0.69096,0.13819) ==
 == 19-th k-point nmo = 44 (0.27639,-0.55277,-0.00000) ==
 == 20-th k-point nmo = 44 (0.41458,-0.41458,-0.13819) ==
 == 21-th k-point nmo = 44 (0.55277,-0.27639,-0.27639) ==
 == 22-th k-point nmo = 44 (0.69096,-0.13819,-0.41458) ==
 == 23-th k-point nmo = 44 (0.82916,0.00000,-0.55277) ==
 == 24-th k-point nmo = 44 (0.27639,-0.82916,0.27639) ==
 == 25-th k-point nmo = 44 (0.41458,-0.69096,0.13819) ==
 == 26-th k-point nmo = 44 (0.55277,-0.55277,-0.00000) ==
 == 27-th k-point nmo = 44 (0.69096,-0.41458,-0.13819) ==
 == 28-th k-point nmo = 44 (0.82916,-0.27639,-0.27639) ==
 == 29-th k-point nmo = 44 (0.96735,-0.13819,-0.41458) ==
 == 30-th k-point nmo = 44 (0.41458,-0.96735,0.41458) ==
 == 31-th k-point nmo = 44 (0.55277,-0.82916,0.27639) ==
 == 32-th k-point nmo = 44 (0.69096,-0.69096,0.13819) ==
 == 33-th k-point nmo = 44 (0.82916,-0.55277,-0.00000) ==
 == 34-th k-point nmo = 44 (0.96735,-0.41458,-0.13819) ==
 == 35-th k-point nmo = 44 (1.10554,-0.27639,-0.27639) ==
 == 36-th k-point nmo = 44 (-0.41458,-0.13819,-0.13819) ==
 == 37-th k-point nmo = 44 (-0.27639,0.00000,-0.27639) ==
 == 38-th k-point nmo = 44 (-0.13819,0.13819,-0.41458) ==
 == 39-th k-point nmo = 44 (-0.00000,0.27639,-0.55277) ==
 == 40-th k-point nmo = 44 (0.13819,0.41458,-0.69096) ==
 == 41-th k-point nmo = 44 (0.27639,0.55277,-0.82916) ==
 == 42-th k-point nmo = 44 (-0.27639,-0.27639,-0.00000) ==
 == 43-th k-point nmo = 45 (-0.13819,-0.13819,-0.13819) ==
 == 44-th k-point nmo = 44 (-0.00000,0.00000,-0.27639) ==
 == 45-th k-point nmo = 44 (0.13819,0.13819,-0.41458) ==
 == 46-th k-point nmo = 44 (0.27639,0.27639,-0.55277) ==
 == 47-th k-point nmo = 44 (0.41458,0.41458,-0.69096) ==
 == 48-th k-point nmo = 44 (-0.13819,-0.41458,0.13819) ==
 == 49-th k-point nmo = 44 (-0.00000,-0.27639,-0.00000) ==
 == 50-th k-point nmo = 45 (0.13819,-0.13819,-0.13819) ==
 == 51-th k-point nmo = 44 (0.27639,0.00000,-0.27639) ==
 == 52-th k-point nmo = 44 (0.41458,0.13819,-0.41458) ==
 == 53-th k-point nmo = 44 (0.55277,0.27639,-0.55277) ==
 == 54-th k-point nmo = 44 (0.00000,-0.55277,0.27639) ==
 == 55-th k-point nmo = 44 (0.13819,-0.41458,0.13819) ==
 == 56-th k-point nmo = 44 (0.27639,-0.27639,-0.00000) ==
 == 57-th k-point nmo = 44 (0.41458,-0.13819,-0.13819) ==
 == 58-th k-point nmo = 44 (0.55277,0.00000,-0.27639) ==
 == 59-th k-point nmo = 44 (0.69096,0.13819,-0.41458) ==
 == 60-th k-point nmo = 44 (0.13819,-0.69096,0.41458) ==
 == 61-th k-point nmo = 44 (0.27639,-0.55277,0.27639) ==
 == 62-th k-point nmo = 44 (0.41458,-0.41458,0.13819) ==
 == 63-th k-point nmo = 44 (0.55277,-0.27639,-0.00000) ==
 == 64-th k-point nmo = 44 (0.69096,-0.13819,-0.13819) ==
 == 65-th k-point nmo = 44 (0.82916,0.00000,-0.27639) ==
 == 66-th k-point nmo = 44 (0.27639,-0.82916,0.55277) ==
 == 67-th k-point nmo = 44 (0.41458,-0.69096,0.41458) ==
 == 68-th k-point nmo = 44 (0.55277,-0.55277,0.27639) ==
 == 69-th k-point nmo = 44 (0.69096,-0.41458,0.13819) ==
 == 70-th k-point nmo = 44 (0.82916,-0.27639,-0.00000) ==
 == 71-th k-point nmo = 44 (0.96735,-0.13819,-0.13819) ==
 == 72-th k-point nmo = 44 (-0.55277,0.00000,0.00000) ==
 == 73-th k-point nmo = 44 (-0.41458,0.13819,-0.13819) ==
 == 74-th k-point nmo = 45 (-0.27639,0.27639,-0.27639) ==
 == 75-th k-point nmo = 44 (-0.13819,0.41458,-0.41458) ==
 == 76-th k-point nmo = 44 (-0.00000,0.55277,-0.55277) ==
 == 77-th k-point nmo = 44 (0.13819,0.69096,-0.69096) ==
 == 78-th k-point nmo = 44 (-0.41458,-0.13819,0.13819) ==
 == 79-th k-point nmo = 44 (-0.27639,0.00000,0.00000) ==
 == 80-th k-point nmo = 45 (-0.13819,0.13819,-0.13819) ==
 == 81-th k-point nmo = 44 (-0.00000,0.27639,-0.27639) ==
 == 82-th k-point nmo = 44 (0.13819,0.41458,-0.41458) ==
 == 83-th k-point nmo = 44 (0.27639,0.55277,-0.55277) ==
 == 84-th k-point nmo = 45 (-0.27639,-0.27639,0.27639) ==
 == 85-th k-point nmo = 45 (-0.13819,-0.13819,0.13819) ==
 == 86-th k-point nmo = 41 (0.00000,0.00000,0.00000) ==
 == 87-th k-point nmo = 45 (0.13819,0.13819,-0.13819) ==
 == 88-th k-point nmo = 45 (0.27639,0.27639,-0.27639) ==
 == 89-th k-point nmo = 44 (0.41458,0.41458,-0.41458) ==
 == 90-th k-point nmo = 44 (-0.13819,-0.41458,0.41458) ==
 == 91-th k-point nmo = 44 (0.00000,-0.27639,0.27639) ==
 == 92-th k-point nmo = 45 (0.13819,-0.13819,0.13819) ==
 == 93-th k-point nmo = 44 (0.27639,-0.00000,0.00000) ==
 == 94-th k-point nmo = 44 (0.41458,0.13819,-0.13819) ==
 == 95-th k-point nmo = 44 (0.55277,0.27639,-0.27639) ==
 == 96-th k-point nmo = 44 (0.00000,-0.55277,0.55277) ==
 == 97-th k-point nmo = 44 (0.13819,-0.41458,0.41458) ==
 == 98-th k-point nmo = 45 (0.27639,-0.27639,0.27639) ==
 == 99-th k-point nmo = 44 (0.41458,-0.13819,0.13819) ==
 == 100-th k-point nmo = 44 (0.55277,-0.00000,0.00000) ==
 == 101-th k-point nmo = 44 (0.69096,0.13819,-0.13819) ==
 == 102-th k-point nmo = 44 (0.13819,-0.69096,0.69096) ==
 == 103-th k-point nmo = 44 (0.27639,-0.55277,0.55277) ==
 == 104-th k-point nmo = 44 (0.41458,-0.41458,0.41458) ==
 == 105-th k-point nmo = 44 (0.55277,-0.27639,0.27639) ==
 == 106-th k-point nmo = 44 (0.69096,-0.13819,0.13819) ==
 == 107-th k-point nmo = 44 (0.82916,-0.00000,0.00000) ==
 == 108-th k-point nmo = 44 (-0.69096,0.13819,0.13819) ==
 == 109-th k-point nmo = 44 (-0.55277,0.27639,0.00000) ==
 == 110-th k-point nmo = 44 (-0.41458,0.41458,-0.13819) ==
 == 111-th k-point nmo = 44 (-0.27639,0.55277,-0.27639) ==
 == 112-th k-point nmo = 44 (-0.13819,0.69096,-0.41458) ==
 == 113-th k-point nmo = 44 (-0.00000,0.82916,-0.55277) ==
 == 114-th k-point nmo = 44 (-0.55277,-0.00000,0.27639) ==
 == 115-th k-point nmo = 44 (-0.41458,0.13819,0.13819) ==
 == 116-th k-point nmo = 44 (-0.27639,0.27639,0.00000) ==
 == 117-th k-point nmo = 44 (-0.13819,0.41458,-0.13819) ==
 == 118-th k-point nmo = 44 (-0.00000,0.55277,-0.27639) ==
 == 119-th k-point nmo = 44 (0.13819,0.69096,-0.41458) ==
 == 120-th k-point nmo = 44 (-0.41458,-0.13819,0.41458) ==
 == 121-th k-point nmo = 44 (-0.27639,-0.00000,0.27639) ==
 == 122-th k-point nmo = 45 (-0.13819,0.13819,0.13819) ==
 == 123-th k-point nmo = 44 (0.00000,0.27639,0.00000) ==
 == 124-th k-point nmo = 44 (0.13819,0.41458,-0.13819) ==
 == 125-th k-point nmo = 44 (0.27639,0.55277,-0.27639) ==
 == 126-th k-point nmo = 44 (-0.27639,-0.27639,0.55277) ==
 == 127-th k-point nmo = 44 (-0.13819,-0.13819,0.41458) ==
 == 128-th k-point nmo = 44 (0.00000,-0.00000,0.27639) ==
 == 129-th k-point nmo = 45 (0.13819,0.13819,0.13819) ==
 == 130-th k-point nmo = 44 (0.27639,0.27639,0.00000) ==
 == 131-th k-point nmo = 44 (0.41458,0.41458,-0.13819) ==
 == 132-th k-point nmo = 44 (-0.13819,-0.41458,0.69096) ==
 == 133-th k-point nmo = 44 (0.00000,-0.27639,0.55277) ==
 == 134-th k-point nmo = 44 (0.13819,-0.13819,0.41458) ==
 == 135-th k-point nmo = 44 (0.27639,-0.00000,0.27639) ==
 == 136-th k-point nmo = 44 (0.41458,0.13819,0.13819) ==
 == 137-th k-point nmo = 44 (0.55277,0.27639,0.00000) ==
 == 138-th k-point nmo = 44 (0.00000,-0.55277,0.82916) ==
 == 139-th k-point nmo = 44 (0.13819,-0.41458,0.69096) ==
 == 140-th k-point nmo = 44 (0.27639,-0.27639,0.55277) ==
 == 141-th k-point nmo = 44 (0.41458,-0.13819,0.41458) ==
 == 142-th k-point nmo = 44 (0.55277,-0.00000,0.27639) ==
 == 143-th k-point nmo = 44 (0.69096,0.13819,0.13819) ==
 == 144-th k-point nmo = 44 (-0.82916,0.27639,0.27639) ==
 == 145-th k-point nmo = 44 (-0.69096,0.41458,0.13819) ==
 == 146-th k-point nmo = 44 (-0.55277,0.55277,0.00000) ==
 == 147-th k-point nmo = 44 (-0.41458,0.69096,-0.13819) ==
 == 148-th k-point nmo = 44 (-0.27639,0.82916,-0.27639) ==
 == 149-th k-point nmo = 44 (-0.13819,0.96735,-0.41458) ==
 == 150-th k-point nmo = 44 (-0.69096,0.13819,0.41458) ==
 == 151-th k-point nmo = 44 (-0.55277,0.27639,0.27639) ==
 == 152-th k-point nmo = 44 (-0.41458,0.41458,0.13819) ==
 == 153-th k-point nmo = 44 (-0.27639,0.55277,0.00000) ==
 == 154-th k-point nmo = 44 (-0.13819,0.69096,-0.13819) ==
 == 155-th k-point nmo = 44 (0.00000,0.82916,-0.27639) ==
 == 156-th k-point nmo = 44 (-0.55277,-0.00000,0.55277) ==
 == 157-th k-point nmo = 44 (-0.41458,0.13819,0.41458) ==
 == 158-th k-point nmo = 45 (-0.27639,0.27639,0.27639) ==
 == 159-th k-point nmo = 44 (-0.13819,0.41458,0.13819) ==
 == 160-th k-point nmo = 44 (0.00000,0.55277,0.00000) ==
 == 161-th k-point nmo = 44 (0.13819,0.69096,-0.13819) ==
 == 162-th k-point nmo = 44 (-0.41458,-0.13819,0.69096) ==
 == 163-th k-point nmo = 44 (-0.27639,-0.00000,0.55277) ==
 == 164-th k-point nmo = 44 (-0.13819,0.13819,0.41458) ==
 == 165-th k-point nmo = 44 (0.00000,0.27639,0.27639) ==
 == 166-th k-point nmo = 44 (0.13819,0.41458,0.13819) ==
 == 167-th k-point nmo = 44 (0.27639,0.55277,0.00000) ==
 == 168-th k-point nmo = 44 (-0.27639,-0.27639,0.82916) ==
 == 169-th k-point nmo = 44 (-0.13819,-0.13819,0.69096) ==
 == 170-th k-point nmo = 44 (0.00000,-0.00000,0.55277) ==
 == 171-th k-point nmo = 44 (0.13819,0.13819,0.41458) ==
 == 172-th k-point nmo = 45 (0.27639,0.27639,0.27639) ==
 == 173-th k-point nmo = 44 (0.41458,0.41458,0.13819) ==
 == 174-th k-point nmo = 44 (-0.13819,-0.41458,0.96735) ==
 == 175-th k-point nmo = 44 (0.00000,-0.27639,0.82916) ==
 == 176-th k-point nmo = 44 (0.13819,-0.13819,0.69096) ==
 == 177-th k-point nmo = 44 (0.27639,-0.00000,0.55277) ==
 == 178-th k-point nmo = 44 (0.41458,0.13819,0.41458) ==
 == 179-th k-point nmo = 44 (0.55277,0.27639,0.27639) ==
 == 180-th k-point nmo = 44 (-0.96735,0.41458,0.41458) ==
 == 181-th k-point nmo = 44 (-0.82916,0.55277,0.27639) ==
 == 182-th k-point nmo = 44 (-0.69096,0.69096,0.13819) ==
 == 183-th k-point nmo = 44 (-0.55277,0.82916,0.00000) ==
 == 184-th k-point nmo = 44 (-0.41458,0.96735,-0.13819) ==
 == 185-th k-point nmo = 44 (-0.27639,1.10554,-0.27639) ==
 == 186-th k-point nmo = 44 (-0.82916,0.27639,0.55277) ==
 == 187-th k-point nmo = 44 (-0.69096,0.41458,0.41458) ==
 == 188-th k-point nmo = 44 (-0.55277,0.55277,0.27639) ==
 == 189-th k-point nmo = 44 (-0.41458,0.69096,0.13819) ==
 == 190-th k-point nmo = 44 (-0.27639,0.82916,0.00000) ==
 == 191-th k-point nmo = 44 (-0.13819,0.96735,-0.13819) ==
 == 192-th k-point nmo = 44 (-0.69096,0.13819,0.69096) ==
 == 193-th k-point nmo = 44 (-0.55277,0.27639,0.55277) ==
 == 194-th k-point nmo = 44 (-0.41458,0.41458,0.41458) ==
 == 195-th k-point nmo = 44 (-0.27639,0.55277,0.27639) ==
 == 196-th k-point nmo = 44 (-0.13819,0.69096,0.13819) ==
 == 197-th k-point nmo = 44 (0.00000,0.82916,0.00000) ==
 == 198-th k-point nmo = 44 (-0.55277,-0.00000,0.82916) ==
 == 199-th k-point nmo = 44 (-0.41458,0.13819,0.69096) ==
 == 200-th k-point nmo = 44 (-0.27639,0.27639,0.55277) ==
 == 201-th k-point nmo = 44 (-0.13819,0.41458,0.41458) ==
 == 202-th k-point nmo = 44 (0.00000,0.55277,0.27639) ==
 == 203-th k-point nmo = 44 (0.13819,0.69096,0.13819) ==
 == 204-th k-point nmo = 44 (-0.41458,-0.13819,0.96735) ==
 == 205-th k-point nmo = 44 (-0.27639,-0.00000,0.82916) ==
 == 206-th k-point nmo = 44 (-0.13819,0.13819,0.69096) ==
 == 207-th k-point nmo = 44 (0.00000,0.27639,0.55277) ==
 == 208-th k-point nmo = 44 (0.13819,0.41458,0.41458) ==
 == 209-th k-point nmo = 44 (0.27639,0.55277,0.27639) ==
 == 210-th k-point nmo = 44 (-0.27639,-0.27639,1.10554) ==
 == 211-th k-point nmo = 44 (-0.13819,-0.13819,0.96735) ==
 == 212-th k-point nmo = 44 (0.00000,-0.00000,0.82916) ==
 == 213-th k-point nmo = 44 (0.13819,0.13819,0.69096) ==
 == 214-th k-point nmo = 44 (0.27639,0.27639,0.55277) ==
 == 215-th k-point nmo = 44 (0.41458,0.41458,0.41458) ==

 Generate autoSAD guess
backing up fragment data
Atom # 0: li, charge: 0, multiplicity: 2.000000
Atom # 1: f, charge: 0, multiplicity: 2.000000
writing autosad to fragment context
Settings for isolated fragments: 
  frgm_gamma: TRUE
  frgm_center: FALSE

    Running SCF for isolated atom #0
    Fragment Input file: /n/netscratch/joonholee_lab/Lab/hieudinh//lif_solve_def2tzvp_omega_0.9_666.scratch20250909004005/autosad_frgmt_0/frgmt_input.in
    Fragment Output file: /n/netscratch/joonholee_lab/Lab/hieudinh//lif_solve_def2tzvp_omega_0.9_666.scratch20250909004005/autosad_frgmt_0/frgmt_job.out
    Fragment job begins at Tue Sep  9 00:40:17 2025

 Integrated density by DFT XC:
   Numerical integral  =     2.999999993509
   Relative error      =     0.0000002164 %
Final energy components:
 DFT Correlation            Energy =  -0.05092434039942
 DFT Exchange               Energy =  -1.75140723515056
 Kinetic (alpha)            Energy =   3.83066744044889
 Kinetic (beta)             Energy =   3.58623083148464
 Nuclear Attraction (alpha) Energy =  -9.10958889983068
 Nuclear Attraction (beta)  Energy =  -8.02018991527132
 Nuclear Repulsion          Energy =   0.00000000000000
 SEOQF                      Energy =  -0.00000000000000
 Total Coulomb              Energy =   4.05329323490599
----------------------------------------------
    SCF Energy: -7.4619188838
   Total fragment job time:  0.48 s.
    Running SCF for isolated atom #1
    Fragment Input file: /n/netscratch/joonholee_lab/Lab/hieudinh//lif_solve_def2tzvp_omega_0.9_666.scratch20250909004005/autosad_frgmt_1/frgmt_input.in
    Fragment Output file: /n/netscratch/joonholee_lab/Lab/hieudinh//lif_solve_def2tzvp_omega_0.9_666.scratch20250909004005/autosad_frgmt_1/frgmt_job.out
    Fragment job begins at Tue Sep  9 00:40:17 2025

 Integrated density by DFT XC:
   Numerical integral  =     9.000000032991
   Relative error      =     0.0000003666 %
Final energy components:
 DFT Correlation            Energy =  -0.29005331125227
 DFT Exchange               Energy =  -9.97682915393219
 Kinetic (alpha)            Energy =  51.55991484248811
 Kinetic (beta)             Energy =  47.86189754389144
 Nuclear Attraction (alpha) Energy = -125.32369696155527
 Nuclear Attraction (beta)  Energy = -113.23357709834426
 Nuclear Repulsion          Energy =   0.00000000000000
 SEOQF                      Energy =  -0.00000000020384
 Total Coulomb              Energy =  49.73321880799701
----------------------------------------------
    SCF Energy: -99.6691253309
   Total fragment job time:  0.52 s.
restoring fragment data

 ------------------------------------------------------------------------
 Allocate 56155536 B from available memory: 104850467104 B
 Time for generating SCF guess: 1.04 s

 Allocate 264964 B from available memory: 104794311584 B
 Selected algorithms for each term:
  kpts_kinetic -> @0x154e91a45680
  kpts_nn -> @0x154e91a45800
  kpts_rij_bigmem -> @0x154e91a453e0
  kpts_vnuc_df -> @0x154e91a45380
  kpts_xc -> @0x154e91a452c0
 Time for computing kinetic matrix is 10.51 s
Start calculating Vnuc DD type!
Start calculating Vnuc CD type!
Start calculating Vnuc CC type!
 Time for computing nuclear attraction matrix is 21.09 s
Compute (P|Q) and use solve on the fly!
Maximum distance between P and Q is 28.75642758820560
Number of images for (P|Qn) is 1873
 Time for computing 2e2c SR integral is 0.10 s
Maximum dynamic memory per thread for 2e3c SR integrals: 0.024 GiB
Batch size for basis function pair is 396 out of 396
 === bvk cell = 0 has 100.000 % of the basis function pairs === 
 === bvk cell = 1 has 100.000 % of the basis function pairs === 
 === bvk cell = 2 has 90.909 % of the basis function pairs === 
 === bvk cell = 3 has 42.424 % of the basis function pairs === 
 === bvk cell = 4 has 75.758 % of the basis function pairs === 
 === bvk cell = 5 has 100.000 % of the basis function pairs === 
 === bvk cell = 6 has 100.000 % of the basis function pairs === 
 === bvk cell = 7 has 97.222 % of the basis function pairs === 
 === bvk cell = 8 has 41.667 % of the basis function pairs === 
 === bvk cell = 9 has 45.707 % of the basis function pairs === 
 === bvk cell = 10 has 78.788 % of the basis function pairs === 
 === bvk cell = 11 has 100.000 % of the basis function pairs === 
 === bvk cell = 12 has 90.909 % of the basis function pairs === 
 === bvk cell = 13 has 41.667 % of the basis function pairs === 
 === bvk cell = 14 has 41.667 % of the basis function pairs === 
 === bvk cell = 15 has 42.424 % of the basis function pairs === 
 === bvk cell = 16 has 75.758 % of the basis function pairs === 
 === bvk cell = 17 has 99.242 % of the basis function pairs === 
 === bvk cell = 18 has 42.424 % of the basis function pairs === 
 === bvk cell = 19 has 45.707 % of the basis function pairs === 
 === bvk cell = 20 has 42.424 % of the basis function pairs === 
 === bvk cell = 21 has 41.667 % of the basis function pairs === 
 === bvk cell = 22 has 41.667 % of the basis function pairs === 
 === bvk cell = 23 has 41.667 % of the basis function pairs === 
 === bvk cell = 24 has 75.758 % of the basis function pairs === 
 === bvk cell = 25 has 78.788 % of the basis function pairs === 
 === bvk cell = 26 has 75.758 % of the basis function pairs === 
 === bvk cell = 27 has 41.667 % of the basis function pairs === 
 === bvk cell = 28 has 41.667 % of the basis function pairs === 
 === bvk cell = 29 has 47.727 % of the basis function pairs === 
 === bvk cell = 30 has 100.000 % of the basis function pairs === 
 === bvk cell = 31 has 100.000 % of the basis function pairs === 
 === bvk cell = 32 has 99.242 % of the basis function pairs === 
 === bvk cell = 33 has 41.667 % of the basis function pairs === 
 === bvk cell = 34 has 47.727 % of the basis function pairs === 
 === bvk cell = 35 has 78.788 % of the basis function pairs === 
 === bvk cell = 36 has 100.000 % of the basis function pairs === 
 === bvk cell = 37 has 99.242 % of the basis function pairs === 
 === bvk cell = 38 has 41.667 % of the basis function pairs === 
 === bvk cell = 39 has 47.727 % of the basis function pairs === 
 === bvk cell = 40 has 78.788 % of the basis function pairs === 
 === bvk cell = 41 has 100.000 % of the basis function pairs === 
 === bvk cell = 42 has 99.242 % of the basis function pairs === 
 === bvk cell = 43 has 49.495 % of the basis function pairs === 
 === bvk cell = 44 has 41.667 % of the basis function pairs === 
 === bvk cell = 45 has 55.556 % of the basis function pairs === 
 === bvk cell = 46 has 78.788 % of the basis function pairs === 
 === bvk cell = 47 has 100.000 % of the basis function pairs === 
 === bvk cell = 48 has 41.667 % of the basis function pairs === 
 === bvk cell = 49 has 41.667 % of the basis function pairs === 
 === bvk cell = 50 has 41.667 % of the basis function pairs === 
 === bvk cell = 51 has 42.424 % of the basis function pairs === 
 === bvk cell = 52 has 72.475 % of the basis function pairs === 
 === bvk cell = 53 has 69.192 % of the basis function pairs === 
 === bvk cell = 54 has 47.727 % of the basis function pairs === 
 === bvk cell = 55 has 55.556 % of the basis function pairs === 
 === bvk cell = 56 has 42.424 % of the basis function pairs === 
 === bvk cell = 57 has 41.667 % of the basis function pairs === 
 === bvk cell = 58 has 41.667 % of the basis function pairs === 
 === bvk cell = 59 has 42.424 % of the basis function pairs === 
 === bvk cell = 60 has 78.788 % of the basis function pairs === 
 === bvk cell = 61 has 78.788 % of the basis function pairs === 
 === bvk cell = 62 has 72.475 % of the basis function pairs === 
 === bvk cell = 63 has 41.667 % of the basis function pairs === 
 === bvk cell = 64 has 45.707 % of the basis function pairs === 
 === bvk cell = 65 has 74.495 % of the basis function pairs === 
 === bvk cell = 66 has 100.000 % of the basis function pairs === 
 === bvk cell = 67 has 100.000 % of the basis function pairs === 
 === bvk cell = 68 has 69.192 % of the basis function pairs === 
 === bvk cell = 69 has 42.424 % of the basis function pairs === 
 === bvk cell = 70 has 74.495 % of the basis function pairs === 
 === bvk cell = 71 has 79.545 % of the basis function pairs === 
 === bvk cell = 72 has 75.758 % of the basis function pairs === 
 === bvk cell = 73 has 41.667 % of the basis function pairs === 
 === bvk cell = 74 has 41.667 % of the basis function pairs === 
 === bvk cell = 75 has 47.727 % of the basis function pairs === 
 === bvk cell = 76 has 75.758 % of the basis function pairs === 
 === bvk cell = 77 has 78.788 % of the basis function pairs === 
 === bvk cell = 78 has 41.667 % of the basis function pairs === 
 === bvk cell = 79 has 41.667 % of the basis function pairs === 
 === bvk cell = 80 has 41.667 % of the basis function pairs === 
 === bvk cell = 81 has 45.707 % of the basis function pairs === 
 === bvk cell = 82 has 74.495 % of the basis function pairs === 
 === bvk cell = 83 has 72.475 % of the basis function pairs === 
 === bvk cell = 84 has 41.667 % of the basis function pairs === 
 === bvk cell = 85 has 41.667 % of the basis function pairs === 
 === bvk cell = 86 has 41.667 % of the basis function pairs === 
 === bvk cell = 87 has 41.667 % of the basis function pairs === 
 === bvk cell = 88 has 41.667 % of the basis function pairs === 
 === bvk cell = 89 has 41.667 % of the basis function pairs === 
 === bvk cell = 90 has 47.727 % of the basis function pairs === 
 === bvk cell = 91 has 45.707 % of the basis function pairs === 
 === bvk cell = 92 has 41.667 % of the basis function pairs === 
 === bvk cell = 93 has 41.667 % of the basis function pairs === 
 === bvk cell = 94 has 41.667 % of the basis function pairs === 
 === bvk cell = 95 has 45.707 % of the basis function pairs === 
 === bvk cell = 96 has 75.758 % of the basis function pairs === 
 === bvk cell = 97 has 74.495 % of the basis function pairs === 
 === bvk cell = 98 has 41.667 % of the basis function pairs === 
 === bvk cell = 99 has 41.667 % of the basis function pairs === 
 === bvk cell = 100 has 47.727 % of the basis function pairs === 
 === bvk cell = 101 has 74.495 % of the basis function pairs === 
 === bvk cell = 102 has 78.788 % of the basis function pairs === 
 === bvk cell = 103 has 72.475 % of the basis function pairs === 
 === bvk cell = 104 has 41.667 % of the basis function pairs === 
 === bvk cell = 105 has 45.707 % of the basis function pairs === 
 === bvk cell = 106 has 74.495 % of the basis function pairs === 
 === bvk cell = 107 has 78.788 % of the basis function pairs === 
 === bvk cell = 108 has 41.667 % of the basis function pairs === 
 === bvk cell = 109 has 41.667 % of the basis function pairs === 
 === bvk cell = 110 has 41.667 % of the basis function pairs === 
 === bvk cell = 111 has 42.424 % of the basis function pairs === 
 === bvk cell = 112 has 45.707 % of the basis function pairs === 
 === bvk cell = 113 has 42.424 % of the basis function pairs === 
 === bvk cell = 114 has 41.667 % of the basis function pairs === 
 === bvk cell = 115 has 49.495 % of the basis function pairs === 
 === bvk cell = 116 has 41.667 % of the basis function pairs === 
 === bvk cell = 117 has 41.667 % of the basis function pairs === 
 === bvk cell = 118 has 41.667 % of the basis function pairs === 
 === bvk cell = 119 has 41.667 % of the basis function pairs === 
 === bvk cell = 120 has 41.667 % of the basis function pairs === 
 === bvk cell = 121 has 41.667 % of the basis function pairs === 
 === bvk cell = 122 has 41.667 % of the basis function pairs === 
 === bvk cell = 123 has 41.667 % of the basis function pairs === 
 === bvk cell = 124 has 41.667 % of the basis function pairs === 
 === bvk cell = 125 has 41.667 % of the basis function pairs === 
 === bvk cell = 126 has 42.424 % of the basis function pairs === 
 === bvk cell = 127 has 41.667 % of the basis function pairs === 
 === bvk cell = 128 has 41.667 % of the basis function pairs === 
 === bvk cell = 129 has 38.636 % of the basis function pairs === 
 === bvk cell = 130 has 41.667 % of the basis function pairs === 
 === bvk cell = 131 has 42.424 % of the basis function pairs === 
 === bvk cell = 132 has 45.707 % of the basis function pairs === 
 === bvk cell = 133 has 41.667 % of the basis function pairs === 
 === bvk cell = 134 has 41.667 % of the basis function pairs === 
 === bvk cell = 135 has 41.667 % of the basis function pairs === 
 === bvk cell = 136 has 45.707 % of the basis function pairs === 
 === bvk cell = 137 has 47.727 % of the basis function pairs === 
 === bvk cell = 138 has 42.424 % of the basis function pairs === 
 === bvk cell = 139 has 41.667 % of the basis function pairs === 
 === bvk cell = 140 has 41.667 % of the basis function pairs === 
 === bvk cell = 141 has 42.424 % of the basis function pairs === 
 === bvk cell = 142 has 47.727 % of the basis function pairs === 
 === bvk cell = 143 has 55.556 % of the basis function pairs === 
 === bvk cell = 144 has 75.758 % of the basis function pairs === 
 === bvk cell = 145 has 99.242 % of the basis function pairs === 
 === bvk cell = 146 has 90.909 % of the basis function pairs === 
 === bvk cell = 147 has 41.667 % of the basis function pairs === 
 === bvk cell = 148 has 41.667 % of the basis function pairs === 
 === bvk cell = 149 has 42.424 % of the basis function pairs === 
 === bvk cell = 150 has 99.242 % of the basis function pairs === 
 === bvk cell = 151 has 97.222 % of the basis function pairs === 
 === bvk cell = 152 has 88.889 % of the basis function pairs === 
 === bvk cell = 153 has 41.667 % of the basis function pairs === 
 === bvk cell = 154 has 41.667 % of the basis function pairs === 
 === bvk cell = 155 has 72.475 % of the basis function pairs === 
 === bvk cell = 156 has 90.909 % of the basis function pairs === 
 === bvk cell = 157 has 88.889 % of the basis function pairs === 
 === bvk cell = 158 has 41.667 % of the basis function pairs === 
 === bvk cell = 159 has 41.667 % of the basis function pairs === 
 === bvk cell = 160 has 41.667 % of the basis function pairs === 
 === bvk cell = 161 has 69.192 % of the basis function pairs === 
 === bvk cell = 162 has 41.667 % of the basis function pairs === 
 === bvk cell = 163 has 41.667 % of the basis function pairs === 
 === bvk cell = 164 has 41.667 % of the basis function pairs === 
 === bvk cell = 165 has 41.667 % of the basis function pairs === 
 === bvk cell = 166 has 41.667 % of the basis function pairs === 
 === bvk cell = 167 has 41.667 % of the basis function pairs === 
 === bvk cell = 168 has 41.667 % of the basis function pairs === 
 === bvk cell = 169 has 41.667 % of the basis function pairs === 
 === bvk cell = 170 has 41.667 % of the basis function pairs === 
 === bvk cell = 171 has 41.667 % of the basis function pairs === 
 === bvk cell = 172 has 41.667 % of the basis function pairs === 
 === bvk cell = 173 has 41.667 % of the basis function pairs === 
 === bvk cell = 174 has 42.424 % of the basis function pairs === 
 === bvk cell = 175 has 72.475 % of the basis function pairs === 
 === bvk cell = 176 has 69.192 % of the basis function pairs === 
 === bvk cell = 177 has 41.667 % of the basis function pairs === 
 === bvk cell = 178 has 41.667 % of the basis function pairs === 
 === bvk cell = 179 has 41.667 % of the basis function pairs === 
 === bvk cell = 180 has 100.000 % of the basis function pairs === 
 === bvk cell = 181 has 100.000 % of the basis function pairs === 
 === bvk cell = 182 has 97.222 % of the basis function pairs === 
 === bvk cell = 183 has 41.667 % of the basis function pairs === 
 === bvk cell = 184 has 45.707 % of the basis function pairs === 
 === bvk cell = 185 has 78.788 % of the basis function pairs === 
 === bvk cell = 186 has 100.000 % of the basis function pairs === 
 === bvk cell = 187 has 100.000 % of the basis function pairs === 
 === bvk cell = 188 has 88.889 % of the basis function pairs === 
 === bvk cell = 189 has 41.667 % of the basis function pairs === 
 === bvk cell = 190 has 74.495 % of the basis function pairs === 
 === bvk cell = 191 has 100.000 % of the basis function pairs === 
 === bvk cell = 192 has 97.222 % of the basis function pairs === 
 === bvk cell = 193 has 88.889 % of the basis function pairs === 
 === bvk cell = 194 has 41.667 % of the basis function pairs === 
 === bvk cell = 195 has 41.667 % of the basis function pairs === 
 === bvk cell = 196 has 72.475 % of the basis function pairs === 
 === bvk cell = 197 has 99.242 % of the basis function pairs === 
 === bvk cell = 198 has 41.667 % of the basis function pairs === 
 === bvk cell = 199 has 41.667 % of the basis function pairs === 
 === bvk cell = 200 has 41.667 % of the basis function pairs === 
 === bvk cell = 201 has 41.667 % of the basis function pairs === 
 === bvk cell = 202 has 41.667 % of the basis function pairs === 
 === bvk cell = 203 has 49.495 % of the basis function pairs === 
 === bvk cell = 204 has 45.707 % of the basis function pairs === 
 === bvk cell = 205 has 74.495 % of the basis function pairs === 
 === bvk cell = 206 has 72.475 % of the basis function pairs === 
 === bvk cell = 207 has 41.667 % of the basis function pairs === 
 === bvk cell = 208 has 41.667 % of the basis function pairs === 
 === bvk cell = 209 has 41.667 % of the basis function pairs === 
 === bvk cell = 210 has 78.788 % of the basis function pairs === 
 === bvk cell = 211 has 100.000 % of the basis function pairs === 
 === bvk cell = 212 has 99.242 % of the basis function pairs === 
 === bvk cell = 213 has 49.495 % of the basis function pairs === 
 === bvk cell = 214 has 41.667 % of the basis function pairs === 
 === bvk cell = 215 has 55.556 % of the basis function pairs === 
Static memory requirement for 2e3c SR integrals: 0.036 GB
There are 1 munu batches for computing 2e3c SR integrals with latsum
There are 2 Q batches for computing 2e3c SR integrals with latsum
 Time for computing 2e3c SR integral (CD) is 0.95 s
Maximum dynamic memory per thread for 2e3c SR integrals: 0.004 GiB
Batch size for basis function pair is 606 out of 606
 === bvk cell = 0 has 100.000 % of the basis function pairs === 
 === bvk cell = 1 has 86.469 % of the basis function pairs === 
 === bvk cell = 2 has 4.455 % of the basis function pairs === 
 === bvk cell = 3 has 0.000 % of the basis function pairs === 
 === bvk cell = 4 has 0.165 % of the basis function pairs === 
 === bvk cell = 5 has 67.822 % of the basis function pairs === 
 === bvk cell = 6 has 86.469 % of the basis function pairs === 
 === bvk cell = 7 has 15.842 % of the basis function pairs === 
 === bvk cell = 8 has 0.000 % of the basis function pairs === 
 === bvk cell = 9 has 0.000 % of the basis function pairs === 
 === bvk cell = 10 has 3.135 % of the basis function pairs === 
 === bvk cell = 11 has 75.248 % of the basis function pairs === 
 === bvk cell = 12 has 4.455 % of the basis function pairs === 
 === bvk cell = 13 has 0.000 % of the basis function pairs === 
 === bvk cell = 14 has 0.000 % of the basis function pairs === 
 === bvk cell = 15 has 0.000 % of the basis function pairs === 
 === bvk cell = 16 has 0.165 % of the basis function pairs === 
 === bvk cell = 17 has 7.426 % of the basis function pairs === 
 === bvk cell = 18 has 0.000 % of the basis function pairs === 
 === bvk cell = 19 has 0.000 % of the basis function pairs === 
 === bvk cell = 20 has 0.000 % of the basis function pairs === 
 === bvk cell = 21 has 0.000 % of the basis function pairs === 
 === bvk cell = 22 has 0.000 % of the basis function pairs === 
 === bvk cell = 23 has 0.000 % of the basis function pairs === 
 === bvk cell = 24 has 0.165 % of the basis function pairs === 
 === bvk cell = 25 has 3.135 % of the basis function pairs === 
 === bvk cell = 26 has 0.165 % of the basis function pairs === 
 === bvk cell = 27 has 0.000 % of the basis function pairs === 
 === bvk cell = 28 has 0.000 % of the basis function pairs === 
 === bvk cell = 29 has 0.000 % of the basis function pairs === 
 === bvk cell = 30 has 67.822 % of the basis function pairs === 
 === bvk cell = 31 has 75.248 % of the basis function pairs === 
 === bvk cell = 32 has 7.426 % of the basis function pairs === 
 === bvk cell = 33 has 0.000 % of the basis function pairs === 
 === bvk cell = 34 has 0.000 % of the basis function pairs === 
 === bvk cell = 35 has 3.630 % of the basis function pairs === 
 === bvk cell = 36 has 75.248 % of the basis function pairs === 
 === bvk cell = 37 has 7.426 % of the basis function pairs === 
 === bvk cell = 38 has 0.000 % of the basis function pairs === 
 === bvk cell = 39 has 0.000 % of the basis function pairs === 
 === bvk cell = 40 has 3.630 % of the basis function pairs === 
 === bvk cell = 41 has 67.822 % of the basis function pairs === 
 === bvk cell = 42 has 7.426 % of the basis function pairs === 
 === bvk cell = 43 has 0.000 % of the basis function pairs === 
 === bvk cell = 44 has 0.000 % of the basis function pairs === 
 === bvk cell = 45 has 0.000 % of the basis function pairs === 
 === bvk cell = 46 has 3.135 % of the basis function pairs === 
 === bvk cell = 47 has 32.013 % of the basis function pairs === 
 === bvk cell = 48 has 0.000 % of the basis function pairs === 
 === bvk cell = 49 has 0.000 % of the basis function pairs === 
 === bvk cell = 50 has 0.000 % of the basis function pairs === 
 === bvk cell = 51 has 0.000 % of the basis function pairs === 
 === bvk cell = 52 has 0.000 % of the basis function pairs === 
 === bvk cell = 53 has 0.000 % of the basis function pairs === 
 === bvk cell = 54 has 0.000 % of the basis function pairs === 
 === bvk cell = 55 has 0.000 % of the basis function pairs === 
 === bvk cell = 56 has 0.000 % of the basis function pairs === 
 === bvk cell = 57 has 0.000 % of the basis function pairs === 
 === bvk cell = 58 has 0.000 % of the basis function pairs === 
 === bvk cell = 59 has 0.000 % of the basis function pairs === 
 === bvk cell = 60 has 3.630 % of the basis function pairs === 
 === bvk cell = 61 has 3.135 % of the basis function pairs === 
 === bvk cell = 62 has 0.000 % of the basis function pairs === 
 === bvk cell = 63 has 0.000 % of the basis function pairs === 
 === bvk cell = 64 has 0.000 % of the basis function pairs === 
 === bvk cell = 65 has 0.000 % of the basis function pairs === 
 === bvk cell = 66 has 67.822 % of the basis function pairs === 
 === bvk cell = 67 has 32.013 % of the basis function pairs === 
 === bvk cell = 68 has 0.000 % of the basis function pairs === 
 === bvk cell = 69 has 0.000 % of the basis function pairs === 
 === bvk cell = 70 has 0.000 % of the basis function pairs === 
 === bvk cell = 71 has 29.208 % of the basis function pairs === 
 === bvk cell = 72 has 0.165 % of the basis function pairs === 
 === bvk cell = 73 has 0.000 % of the basis function pairs === 
 === bvk cell = 74 has 0.000 % of the basis function pairs === 
 === bvk cell = 75 has 0.000 % of the basis function pairs === 
 === bvk cell = 76 has 0.165 % of the basis function pairs === 
 === bvk cell = 77 has 3.135 % of the basis function pairs === 
 === bvk cell = 78 has 0.000 % of the basis function pairs === 
 === bvk cell = 79 has 0.000 % of the basis function pairs === 
 === bvk cell = 80 has 0.000 % of the basis function pairs === 
 === bvk cell = 81 has 0.000 % of the basis function pairs === 
 === bvk cell = 82 has 0.000 % of the basis function pairs === 
 === bvk cell = 83 has 0.000 % of the basis function pairs === 
 === bvk cell = 84 has 0.000 % of the basis function pairs === 
 === bvk cell = 85 has 0.000 % of the basis function pairs === 
 === bvk cell = 86 has 0.000 % of the basis function pairs === 
 === bvk cell = 87 has 0.000 % of the basis function pairs === 
 === bvk cell = 88 has 0.000 % of the basis function pairs === 
 === bvk cell = 89 has 0.000 % of the basis function pairs === 
 === bvk cell = 90 has 0.000 % of the basis function pairs === 
 === bvk cell = 91 has 0.000 % of the basis function pairs === 
 === bvk cell = 92 has 0.000 % of the basis function pairs === 
 === bvk cell = 93 has 0.000 % of the basis function pairs === 
 === bvk cell = 94 has 0.000 % of the basis function pairs === 
 === bvk cell = 95 has 0.000 % of the basis function pairs === 
 === bvk cell = 96 has 0.165 % of the basis function pairs === 
 === bvk cell = 97 has 0.000 % of the basis function pairs === 
 === bvk cell = 98 has 0.000 % of the basis function pairs === 
 === bvk cell = 99 has 0.000 % of the basis function pairs === 
 === bvk cell = 100 has 0.000 % of the basis function pairs === 
 === bvk cell = 101 has 0.000 % of the basis function pairs === 
 === bvk cell = 102 has 3.135 % of the basis function pairs === 
 === bvk cell = 103 has 0.000 % of the basis function pairs === 
 === bvk cell = 104 has 0.000 % of the basis function pairs === 
 === bvk cell = 105 has 0.000 % of the basis function pairs === 
 === bvk cell = 106 has 0.000 % of the basis function pairs === 
 === bvk cell = 107 has 3.630 % of the basis function pairs === 
 === bvk cell = 108 has 0.000 % of the basis function pairs === 
 === bvk cell = 109 has 0.000 % of the basis function pairs === 
 === bvk cell = 110 has 0.000 % of the basis function pairs === 
 === bvk cell = 111 has 0.000 % of the basis function pairs === 
 === bvk cell = 112 has 0.000 % of the basis function pairs === 
 === bvk cell = 113 has 0.000 % of the basis function pairs === 
 === bvk cell = 114 has 0.000 % of the basis function pairs === 
 === bvk cell = 115 has 0.000 % of the basis function pairs === 
 === bvk cell = 116 has 0.000 % of the basis function pairs === 
 === bvk cell = 117 has 0.000 % of the basis function pairs === 
 === bvk cell = 118 has 0.000 % of the basis function pairs === 
 === bvk cell = 119 has 0.000 % of the basis function pairs === 
 === bvk cell = 120 has 0.000 % of the basis function pairs === 
 === bvk cell = 121 has 0.000 % of the basis function pairs === 
 === bvk cell = 122 has 0.000 % of the basis function pairs === 
 === bvk cell = 123 has 0.000 % of the basis function pairs === 
 === bvk cell = 124 has 0.000 % of the basis function pairs === 
 === bvk cell = 125 has 0.000 % of the basis function pairs === 
 === bvk cell = 126 has 0.000 % of the basis function pairs === 
 === bvk cell = 127 has 0.000 % of the basis function pairs === 
 === bvk cell = 128 has 0.000 % of the basis function pairs === 
 === bvk cell = 129 has 0.000 % of the basis function pairs === 
 === bvk cell = 130 has 0.000 % of the basis function pairs === 
 === bvk cell = 131 has 0.000 % of the basis function pairs === 
 === bvk cell = 132 has 0.000 % of the basis function pairs === 
 === bvk cell = 133 has 0.000 % of the basis function pairs === 
 === bvk cell = 134 has 0.000 % of the basis function pairs === 
 === bvk cell = 135 has 0.000 % of the basis function pairs === 
 === bvk cell = 136 has 0.000 % of the basis function pairs === 
 === bvk cell = 137 has 0.000 % of the basis function pairs === 
 === bvk cell = 138 has 0.000 % of the basis function pairs === 
 === bvk cell = 139 has 0.000 % of the basis function pairs === 
 === bvk cell = 140 has 0.000 % of the basis function pairs === 
 === bvk cell = 141 has 0.000 % of the basis function pairs === 
 === bvk cell = 142 has 0.000 % of the basis function pairs === 
 === bvk cell = 143 has 0.000 % of the basis function pairs === 
 === bvk cell = 144 has 0.165 % of the basis function pairs === 
 === bvk cell = 145 has 7.426 % of the basis function pairs === 
 === bvk cell = 146 has 4.455 % of the basis function pairs === 
 === bvk cell = 147 has 0.000 % of the basis function pairs === 
 === bvk cell = 148 has 0.000 % of the basis function pairs === 
 === bvk cell = 149 has 0.000 % of the basis function pairs === 
 === bvk cell = 150 has 7.426 % of the basis function pairs === 
 === bvk cell = 151 has 15.842 % of the basis function pairs === 
 === bvk cell = 152 has 4.290 % of the basis function pairs === 
 === bvk cell = 153 has 0.000 % of the basis function pairs === 
 === bvk cell = 154 has 0.000 % of the basis function pairs === 
 === bvk cell = 155 has 0.000 % of the basis function pairs === 
 === bvk cell = 156 has 4.455 % of the basis function pairs === 
 === bvk cell = 157 has 4.290 % of the basis function pairs === 
 === bvk cell = 158 has 0.000 % of the basis function pairs === 
 === bvk cell = 159 has 0.000 % of the basis function pairs === 
 === bvk cell = 160 has 0.000 % of the basis function pairs === 
 === bvk cell = 161 has 0.000 % of the basis function pairs === 
 === bvk cell = 162 has 0.000 % of the basis function pairs === 
 === bvk cell = 163 has 0.000 % of the basis function pairs === 
 === bvk cell = 164 has 0.000 % of the basis function pairs === 
 === bvk cell = 165 has 0.000 % of the basis function pairs === 
 === bvk cell = 166 has 0.000 % of the basis function pairs === 
 === bvk cell = 167 has 0.000 % of the basis function pairs === 
 === bvk cell = 168 has 0.000 % of the basis function pairs === 
 === bvk cell = 169 has 0.000 % of the basis function pairs === 
 === bvk cell = 170 has 0.000 % of the basis function pairs === 
 === bvk cell = 171 has 0.000 % of the basis function pairs === 
 === bvk cell = 172 has 0.000 % of the basis function pairs === 
 === bvk cell = 173 has 0.000 % of the basis function pairs === 
 === bvk cell = 174 has 0.000 % of the basis function pairs === 
 === bvk cell = 175 has 0.000 % of the basis function pairs === 
 === bvk cell = 176 has 0.000 % of the basis function pairs === 
 === bvk cell = 177 has 0.000 % of the basis function pairs === 
 === bvk cell = 178 has 0.000 % of the basis function pairs === 
 === bvk cell = 179 has 0.000 % of the basis function pairs === 
 === bvk cell = 180 has 75.248 % of the basis function pairs === 
 === bvk cell = 181 has 86.469 % of the basis function pairs === 
 === bvk cell = 182 has 15.842 % of the basis function pairs === 
 === bvk cell = 183 has 0.000 % of the basis function pairs === 
 === bvk cell = 184 has 0.000 % of the basis function pairs === 
 === bvk cell = 185 has 3.135 % of the basis function pairs === 
 === bvk cell = 186 has 86.469 % of the basis function pairs === 
 === bvk cell = 187 has 52.145 % of the basis function pairs === 
 === bvk cell = 188 has 4.290 % of the basis function pairs === 
 === bvk cell = 189 has 0.000 % of the basis function pairs === 
 === bvk cell = 190 has 0.000 % of the basis function pairs === 
 === bvk cell = 191 has 32.013 % of the basis function pairs === 
 === bvk cell = 192 has 15.842 % of the basis function pairs === 
 === bvk cell = 193 has 4.290 % of the basis function pairs === 
 === bvk cell = 194 has 0.000 % of the basis function pairs === 
 === bvk cell = 195 has 0.000 % of the basis function pairs === 
 === bvk cell = 196 has 0.000 % of the basis function pairs === 
 === bvk cell = 197 has 7.426 % of the basis function pairs === 
 === bvk cell = 198 has 0.000 % of the basis function pairs === 
 === bvk cell = 199 has 0.000 % of the basis function pairs === 
 === bvk cell = 200 has 0.000 % of the basis function pairs === 
 === bvk cell = 201 has 0.000 % of the basis function pairs === 
 === bvk cell = 202 has 0.000 % of the basis function pairs === 
 === bvk cell = 203 has 0.000 % of the basis function pairs === 
 === bvk cell = 204 has 0.000 % of the basis function pairs === 
 === bvk cell = 205 has 0.000 % of the basis function pairs === 
 === bvk cell = 206 has 0.000 % of the basis function pairs === 
 === bvk cell = 207 has 0.000 % of the basis function pairs === 
 === bvk cell = 208 has 0.000 % of the basis function pairs === 
 === bvk cell = 209 has 0.000 % of the basis function pairs === 
 === bvk cell = 210 has 3.135 % of the basis function pairs === 
 === bvk cell = 211 has 32.013 % of the basis function pairs === 
 === bvk cell = 212 has 7.426 % of the basis function pairs === 
 === bvk cell = 213 has 0.000 % of the basis function pairs === 
 === bvk cell = 214 has 0.000 % of the basis function pairs === 
 === bvk cell = 215 has 0.000 % of the basis function pairs === 
Static memory requirement for 2e3c SR integrals: 0.006 GB
There are 1 munu batches for computing 2e3c SR integrals with latsum
There are 2 Q batches for computing 2e3c SR integrals with latsum
 Time for computing 2e3c SR integral (CC) is 0.10 s
 Time for RI-J this SCF iteration is 3.33 s
 Time for RI-J this SCF iteration is 2.14 s
 ----------------------------------------------
 Guess energy: -107.3861806148
 ----------------------------------------------
 Guess energy components:
 DFT Correlation    Energy =  -0.39376875950865
 DFT Exchange       Energy = -12.24948025791465
 Kinetic            Energy = 109.18837145777316
 Nuclear Attraction Energy = -202.65491397606499
 Nuclear Repulsion  Energy = -31.10949437582012
 Total Coulomb      Energy =  29.83310529670544
 ----------------------------------------------
  Cycle       Energy        RMS Gradient
 ----------------------------------------------
 Time for RI-J this SCF iteration is 2.14 s
    1    -107.4038335587      2.68e-01   Descent step
 Energy components after cycle 1:
 DFT Correlation    Energy =  -0.39343905917021
 DFT Exchange       Energy = -12.20474193585357
 Kinetic            Energy = 108.85274273656582
 Nuclear Attraction Energy = -202.07087412244934
 Nuclear Repulsion  Energy = -31.10949437582012
 Total Coulomb      Energy =  29.52197319798830
 Time for RI-J this SCF iteration is 2.17 s
    2    -107.4184869677      2.27e-01   Descent step
 Energy components after cycle 2:
 DFT Correlation    Energy =  -0.39316792098604
 DFT Exchange       Energy = -12.16042087811908
 Kinetic            Energy = 108.52043294668485
 Nuclear Attraction Energy = -201.48982244904371
 Nuclear Repulsion  Energy = -31.10949437582012
 Total Coulomb      Energy =  29.21398570960129
 Time for RI-J this SCF iteration is 2.13 s
    3    -107.4302089718      1.87e-01   Descent step
 Energy components after cycle 3:
 DFT Correlation    Energy =  -0.39295196957448
 DFT Exchange       Energy = -12.11650817233379
 Kinetic            Energy = 108.19178124182545
 Nuclear Attraction Energy = -200.91209744303154
 Nuclear Repulsion  Energy = -31.10949437582012
 Total Coulomb      Energy =  28.90906174717939
 Time for RI-J this SCF iteration is 2.15 s
    4    -107.4390554144      1.47e-01   Descent step
 Energy components after cycle 4:
 DFT Correlation    Energy =  -0.39278779606476
 DFT Exchange       Energy = -12.07301446017264
 Kinetic            Energy = 107.86751980236873
 Nuclear Attraction Energy = -200.33853475725422
 Nuclear Repulsion  Energy = -31.10949437582012
 Total Coulomb      Energy =  28.60725617250292
 Time for RI-J this SCF iteration is 2.17 s
    5    -107.4450750730      1.08e-01   Descent step
 Energy components after cycle 5:
 DFT Correlation    Energy =  -0.39267124912496
 DFT Exchange       Energy = -12.02999704538946
 Kinetic            Energy = 107.54931651930875
 Nuclear Attraction Energy = -199.77117398432611
 Nuclear Repulsion  Energy = -31.10949437582012
 Total Coulomb      Energy =  28.30894506233073
 Time for RI-J this SCF iteration is 2.14 s
    6    -107.4483210768      6.92e-02   Descent step
 Energy components after cycle 6:
 DFT Correlation    Energy =  -0.39259492537763
 DFT Exchange       Energy = -11.98768405445584
 Kinetic            Energy = 107.24195025513829
 Nuclear Attraction Energy = -199.21618388781511
 Nuclear Repulsion  Energy = -31.10949437582012
 Total Coulomb      Energy =  28.01568591150033
 Time for RI-J this SCF iteration is 2.13 s
    7    -107.4490988673      3.04e-02   Normal BFGS step
 Energy components after cycle 7:
 DFT Correlation    Energy =  -0.39244169645968
 DFT Exchange       Energy = -11.96078509640680
 Kinetic            Energy = 107.11176901445025
 Nuclear Attraction Energy = -198.92743018127248
 Nuclear Repulsion  Energy = -31.10949437582012
 Total Coulomb      Energy =  27.82928346821997
 Time for RI-J this SCF iteration is 2.17 s
    8    -107.4491002229      5.85e-04   Normal BFGS step
 Energy components after cycle 8:
 DFT Correlation    Energy =  -0.39244935436875
 DFT Exchange       Energy = -11.96085046273882
 Kinetic            Energy = 107.10407641076715
 Nuclear Attraction Energy = -198.92073813889499
 Nuclear Repulsion  Energy = -31.10949437582012
 Total Coulomb      Energy =  27.83035569818823
 Time for RI-J this SCF iteration is 2.13 s
    9    -107.4491002377      4.95e-05   Normal BFGS step
 Energy components after cycle 9:
 DFT Correlation    Energy =  -0.39244866920563
 DFT Exchange       Energy = -11.96093160491356
 Kinetic            Energy = 107.10516580968242
 Nuclear Attraction Energy = -198.92210347270506
 Nuclear Repulsion  Energy = -31.10949437582012
 Total Coulomb      Energy =  27.83071207528159
 Time for RI-J this SCF iteration is 2.13 s
   10    -107.4491002386      1.77e-05   Normal BFGS step
 Energy components after cycle 10:
 DFT Correlation    Energy =  -0.39244857572724
 DFT Exchange       Energy = -11.96092549251646
 Kinetic            Energy = 107.10519467616471
 Nuclear Attraction Energy = -198.92211428609971
 Nuclear Repulsion  Energy = -31.10949437582012
 Total Coulomb      Energy =  27.83068781538955
 Time for RI-J this SCF iteration is 2.13 s
   11    -107.4491002386      1.68e-06   Normal BFGS step
 Energy components after cycle 11:
 DFT Correlation    Energy =  -0.39244860323658
 DFT Exchange       Energy = -11.96092282386890
 Kinetic            Energy = 107.10514955995005
 Nuclear Attraction Energy = -198.92206121199749
 Nuclear Repulsion  Energy = -31.10949437582012
 Total Coulomb      Energy =  27.83067721634600
   11    -107.4491002386      1.68e-06  Convergence criterion met
 ----------------------------------------------
 Final energy components:
 DFT Correlation    Energy =  -0.39244860323658
 DFT Exchange       Energy = -11.96092282386890
 Kinetic            Energy = 107.10514955995005
 Nuclear Attraction Energy = -198.92206121199749
 Nuclear Repulsion  Energy = -31.10949437582012
 Total Coulomb      Energy =  27.83067721634600
 ----------------------------------------------
 Final energy is -107.4491002386

 SCF time:   CPU 2903.80s  wall 136.00s 
 Total wall time for computing Kinetic: 0.00 s (13)
 Total wall time for computing RIJ-BIGMEM: 29.06 s (13)
 Total wall time for computing RSDF Vnuc: 0.03 s (13)
 Total wall time for computing DFT XC: 58.15 s (13)
 ---------------------------------------------------------------------------
                        Orbital Energies (a.u.)
 ---------------------------------------------------------------------------
 == 0-th k-point (-0.27639,-0.27639,-0.27639) occupation: 6==
 -23.85933 -1.46459 -0.68354 -0.03679 0.03027 0.03027 0.43302 0.66869 0.76787 0.76787
 1.09205 1.27911 1.27911 1.42947 1.42947 1.44458 1.81977 2.31589 2.39448 2.39448
 2.73387 2.94678 2.94678 3.35351 4.06872 4.06872 4.22259 5.34198 6.41616 6.41616
 6.95136 7.08359 7.09827 7.09827 7.12176 7.12176 7.16358 7.29849 8.61588 8.61588
 8.79856 8.93697 8.93697 16.23105 58.06803
 == 1-th k-point (-0.13819,-0.13819,-0.41458) occupation: 6==
 -23.85933 -1.46462 -0.68282 -0.02657 0.01880 0.02026 0.45931 0.68067 0.76920 0.78802
 0.99916 1.33907 1.34901 1.55199 1.58588 1.67112 2.03692 2.30699 2.37797 2.62859
 2.71022 2.89384 3.28585 4.01658 4.34103 4.38861 5.30865 6.28827 6.35277 6.94007
 7.08691 7.09948 7.10857 7.11467 7.16195 7.17642 7.23315 8.53797 8.64383 8.76976
 8.87310 8.91340 15.78698 58.07740
 == 2-th k-point (-0.00000,0.00000,-0.55277) occupation: 6==
 -23.85932 -1.46412 -0.67696 -0.04573 0.00844 0.00844 0.51286 0.72974 0.79308 0.79308
 1.33218 1.49525 1.49525 1.62695 1.78995 1.78995 2.17774 2.19538 2.27852 2.60244
 2.79292 2.79292 3.30793 4.36988 4.61933 4.61933 5.26006 6.40592 6.40592 6.98409
 7.08359 7.08535 7.17498 7.17498 7.22643 7.22643 7.23424 8.43933 8.45288 8.81486
 8.81486 8.95852 15.98665 57.91294
 == 3-th k-point (0.13819,0.13819,-0.69096) occupation: 6==
 -23.85929 -1.46358 -0.67157 -0.06116 -0.00776 0.00616 0.55646 0.63262 0.71426 0.77853
 0.94482 1.33737 1.46293 1.57787 1.74349 1.77728 1.95502 2.27365 2.48065 2.64077
 2.70774 2.73162 3.38756 4.08374 4.37145 4.46410 4.89668 6.45073 6.52102 6.78713
 7.08473 7.08823 7.10832 7.15023 7.21859 7.24172 7.28636 8.50251 8.67364 8.75364
 8.80880 8.99596 15.95013 57.32884
 == 4-th k-point (0.27639,0.27639,-0.82916) occupation: 6==
 -23.85928 -1.46355 -0.67235 -0.04367 -0.03016 0.01544 0.54459 0.59434 0.73847 0.75948
 1.17202 1.27364 1.38846 1.48193 1.81545 1.83382 2.02145 2.20888 2.46269 2.70410
 2.74569 2.75467 3.50967 4.23849 4.41767 4.42836 4.70435 6.55243 6.61013 6.66191
 7.08359 7.09391 7.09406 7.09737 7.21725 7.22242 7.33320 8.45760 8.77744 8.81303
 8.81421 9.03176 16.05358 57.17135
 == 5-th k-point (0.41458,0.41458,-0.96735) occupation: 6==
 -23.85931 -1.46405 -0.67845 -0.04355 0.00149 0.02774 0.47176 0.63206 0.75522 0.76066
 1.16799 1.27107 1.40448 1.46736 1.71952 1.77309 1.91589 2.36981 2.39095 2.67071
 2.74290 2.92346 3.40250 3.89610 4.22456 4.33986 5.06039 6.36149 6.70822 6.83880
 7.08197 7.09190 7.10197 7.10709 7.14002 7.15810 7.24844 8.57743 8.72512 8.79395
 8.88147 8.89715 15.81169 57.64841
 == 6-th k-point (-0.13819,-0.41458,-0.13819) occupation: 6==
 -23.85933 -1.46462 -0.68282 -0.02657 0.01880 0.02026 0.45931 0.68067 0.76920 0.78802
 0.99916 1.33907 1.34901 1.55199 1.58588 1.67112 2.03692 2.30699 2.37797 2.62859
 2.71022 2.89384 3.28585 4.01658 4.34103 4.38861 5.30865 6.28827 6.35277 6.94007
 7.08691 7.09948 7.10857 7.11467 7.16195 7.17642 7.23315 8.53797 8.64383 8.76976
 8.87310 8.91340 15.78698 58.07740
 == 7-th k-point (-0.00000,-0.27639,-0.27639) occupation: 6==
 -23.85934 -1.46497 -0.68611 -0.01265 0.01434 0.03480 0.43603 0.68564 0.79408 0.80139
 1.06705 1.35356 1.40645 1.48110 1.72640 2.08753 2.09903 2.19192 2.23474 2.64914
 2.70897 2.98310 3.21906 3.94426 4.41714 4.71447 5.45336 6.24696 6.96337 6.97700
 7.08359 7.11067 7.11205 7.11460 7.13611 7.19894 7.20331 8.44752 8.69227 8.74184
 8.87231 8.91349 15.30491 58.30424
 == 8-th k-point (0.13819,-0.13819,-0.41458) occupation: 6==
 -23.85933 -1.46462 -0.68282 -0.02657 0.01880 0.02026 0.45931 0.68067 0.76920 0.78802
 0.99916 1.33906 1.34901 1.55199 1.58588 1.67112 2.03692 2.30699 2.37797 2.62859
 2.71022 2.89384 3.28585 4.01658 4.34103 4.38861 5.30865 6.28827 6.35277 6.94007
 7.08691 7.09948 7.10857 7.11467 7.16195 7.17642 7.23314 8.53797 8.64383 8.76976
 8.87310 8.91340 15.78698 58.07740
 == 9-th k-point (0.27639,0.00000,-0.55277) occupation: 6==
 -23.85931 -1.46391 -0.67595 -0.04227 -0.01002 0.01733 0.51172 0.62733 0.73753 0.76835
 1.04509 1.29776 1.44432 1.51432 1.70497 1.81617 2.08492 2.21734 2.44704 2.60386
 2.70373 2.71968 3.42936 4.16520 4.19802 4.50842 5.03221 6.37956 6.48869 6.91305
 7.08741 7.08801 7.09616 7.12139 7.19925 7.21612 7.25981 8.46796 8.70686 8.75387
 8.78455 8.98969 15.89530 57.63535
 == 10-th k-point (0.41458,0.13819,-0.69096) occupation: 6==
 -23.85930 -1.46355 -0.67235 -0.04618 -0.02565 0.01326 0.53938 0.60672 0.72778 0.75097
 1.15855 1.17433 1.40971 1.45508 1.78894 1.80803 2.07316 2.25296 2.46051 2.56313
 2.73326 2.73485 3.51374 4.10948 4.32808 4.34728 4.90551 6.49511 6.52495 6.74663
 7.08562 7.08593 7.09053 7.09688 7.19834 7.24170 7.28173 8.47078 8.72042 8.79861
 8.81315 9.02771 16.04736 57.50921
 == 11-th k-point (0.55277,0.27639,-0.82916) occupation: 6==
 -23.85931 -1.46391 -0.67595 -0.04227 -0.01002 0.01733 0.51172 0.62733 0.73753 0.76835
 1.04509 1.29776 1.44432 1.51432 1.70497 1.81616 2.08492 2.21734 2.44704 2.60386
 2.70373 2.71968 3.42936 4.16520 4.19802 4.50842 5.03221 6.37956 6.48869 6.91305
 7.08741 7.08801 7.09616 7.12139 7.19925 7.21612 7.25981 8.46796 8.70686 8.75387
 8.78455 8.98969 15.89530 57.63535
 == 12-th k-point (-0.00000,-0.55277,-0.00000) occupation: 6==
 -23.85932 -1.46412 -0.67696 -0.04573 0.00844 0.00844 0.51286 0.72974 0.79308 0.79308
 1.33218 1.49525 1.49525 1.62695 1.78995 1.78995 2.17774 2.19538 2.27852 2.60244
 2.79292 2.79292 3.30793 4.36988 4.61933 4.61933 5.26006 6.40592 6.40592 6.98409
 7.08359 7.08535 7.17498 7.17498 7.22643 7.22643 7.23424 8.43933 8.45288 8.81486
 8.81486 8.95852 15.98665 57.91294
 == 13-th k-point (0.13819,-0.41458,-0.13819) occupation: 6==
 -23.85933 -1.46462 -0.68282 -0.02657 0.01880 0.02026 0.45931 0.68067 0.76920 0.78802
 0.99916 1.33906 1.34901 1.55199 1.58588 1.67112 2.03692 2.30699 2.37797 2.62859
 2.71022 2.89384 3.28585 4.01658 4.34103 4.38861 5.30865 6.28827 6.35277 6.94007
 7.08691 7.09948 7.10857 7.11467 7.16195 7.17642 7.23314 8.53797 8.64383 8.76976
 8.87310 8.91340 15.78698 58.07740
 == 14-th k-point (0.27639,-0.27639,-0.27639) occupation: 6==
[...]
 7.08691 7.09948 7.10857 7.11467 7.16195 7.17642 7.23315 8.53797 8.64383 8.76976
 8.87310 8.91340 15.78698 58.07740
 == 172-th k-point (0.27639,0.27639,0.27639) occupation: 6==
 -23.85933 -1.46459 -0.68354 -0.03679 0.03027 0.03027 0.43302 0.66869 0.76787 0.76787
 1.09205 1.27911 1.27911 1.42947 1.42947 1.44458 1.81977 2.31589 2.39448 2.39448
 2.73387 2.94678 2.94678 3.35351 4.06872 4.06872 4.22259 5.34198 6.41616 6.41616
 6.95136 7.08359 7.09827 7.09827 7.12176 7.12176 7.16358 7.29849 8.61588 8.61588
 8.79856 8.93697 8.93697 16.23105 58.06803
 == 173-th k-point (0.41458,0.41458,0.13819) occupation: 6==
 -23.85931 -1.46405 -0.67845 -0.04355 0.00149 0.02774 0.47176 0.63206 0.75522 0.76066
 1.16799 1.27107 1.40448 1.46736 1.71952 1.77309 1.91589 2.36981 2.39095 2.67071
 2.74290 2.92346 3.40250 3.89610 4.22456 4.33986 5.06039 6.36149 6.70822 6.83880
 7.08197 7.09190 7.10197 7.10709 7.14002 7.15810 7.24844 8.57743 8.72512 8.79395
 8.88147 8.89715 15.81169 57.64841
 == 174-th k-point (-0.13819,-0.41458,0.96735) occupation: 6==
 -23.85930 -1.46355 -0.67235 -0.04618 -0.02565 0.01326 0.53938 0.60672 0.72778 0.75097
 1.15855 1.17433 1.40971 1.45508 1.78894 1.80803 2.07315 2.25295 2.46051 2.56312
 2.73326 2.73485 3.51374 4.10948 4.32808 4.34728 4.90551 6.49511 6.52495 6.74663
 7.08562 7.08593 7.09053 7.09688 7.19834 7.24170 7.28173 8.47078 8.72042 8.79861
 8.81315 9.02771 16.04736 57.50921
 == 175-th k-point (0.00000,-0.27639,0.82916) occupation: 6==
 -23.85930 -1.46341 -0.66972 -0.05908 -0.02161 0.00499 0.58825 0.60992 0.68504 0.76080
 0.98414 1.31738 1.35300 1.54349 1.75900 1.85922 2.14212 2.21725 2.46771 2.51093
 2.69930 2.74258 3.50653 4.07405 4.29680 4.36555 4.94686 6.49546 6.61464 6.69978
 7.08535 7.08718 7.09478 7.12372 7.23003 7.23847 7.31210 8.46261 8.65687 8.77269
 8.82098 9.05135 16.06553 57.54195
 == 176-th k-point (0.13819,-0.13819,0.69096) occupation: 6==
 -23.85929 -1.46358 -0.67157 -0.06116 -0.00776 0.00616 0.55646 0.63262 0.71426 0.77853
 0.94482 1.33737 1.46293 1.57787 1.74349 1.77728 1.95501 2.27365 2.48065 2.64077
 2.70774 2.73162 3.38756 4.08374 4.37145 4.46410 4.89668 6.45073 6.52102 6.78713
 7.08473 7.08823 7.10832 7.15023 7.21859 7.24172 7.28636 8.50251 8.67364 8.75364
 8.80880 8.99596 15.95013 57.32884
 == 177-th k-point (0.27639,-0.00000,0.55277) occupation: 6==
 -23.85931 -1.46391 -0.67595 -0.04227 -0.01002 0.01733 0.51172 0.62733 0.73753 0.76835
 1.04509 1.29776 1.44432 1.51432 1.70497 1.81616 2.08492 2.21734 2.44704 2.60386
 2.70373 2.71968 3.42936 4.16520 4.19802 4.50842 5.03221 6.37956 6.48869 6.91305
 7.08741 7.08801 7.09616 7.12139 7.19925 7.21612 7.25981 8.46796 8.70686 8.75387
 8.78455 8.98969 15.89530 57.63535
 == 178-th k-point (0.41458,0.13819,0.41458) occupation: 6==
 -23.85931 -1.46405 -0.67845 -0.04355 0.00149 0.02774 0.47176 0.63206 0.75522 0.76066
 1.16799 1.27107 1.40448 1.46736 1.71952 1.77309 1.91589 2.36981 2.39095 2.67071
 2.74290 2.92346 3.40250 3.89610 4.22456 4.33986 5.06039 6.36149 6.70822 6.83880
 7.08197 7.09190 7.10197 7.10709 7.14002 7.15810 7.24844 8.57743 8.72512 8.79395
 8.88147 8.89715 15.81169 57.64841
 == 179-th k-point (0.55277,0.27639,0.27639) occupation: 6==
 -23.85930 -1.46387 -0.67670 -0.05215 0.00627 0.02058 0.47807 0.63553 0.74620 0.75406
 1.13601 1.30425 1.38486 1.43320 1.59834 1.79175 1.86266 2.36845 2.45626 2.68688
 2.72424 2.90814 3.40882 4.04434 4.14144 4.31549 4.91853 6.42014 6.54085 6.71422
 7.09132 7.09653 7.09889 7.11518 7.15698 7.16411 7.26969 8.58296 8.72373 8.80120
 8.90240 8.90991 15.96213 57.45561
 == 180-th k-point (-0.96735,0.41458,0.41458) occupation: 6==
 -23.85931 -1.46405 -0.67845 -0.04355 0.00149 0.02774 0.47176 0.63206 0.75522 0.76066
 1.16799 1.27107 1.40448 1.46736 1.71952 1.77309 1.91589 2.36981 2.39095 2.67071
 2.74290 2.92346 3.40250 3.89610 4.22456 4.33986 5.06039 6.36149 6.70822 6.83880
 7.08197 7.09190 7.10197 7.10709 7.14002 7.15810 7.24844 8.57743 8.72512 8.79395
 8.88147 8.89715 15.81169 57.64841
 == 181-th k-point (-0.82916,0.55277,0.27639) occupation: 6==
 -23.85931 -1.46391 -0.67595 -0.04227 -0.01002 0.01733 0.51172 0.62733 0.73753 0.76835
 1.04509 1.29776 1.44432 1.51432 1.70497 1.81616 2.08492 2.21734 2.44704 2.60386
 2.70373 2.71968 3.42936 4.16520 4.19802 4.50842 5.03221 6.37956 6.48869 6.91305
 7.08741 7.08801 7.09616 7.12139 7.19925 7.21612 7.25981 8.46796 8.70686 8.75387
 8.78455 8.98969 15.89530 57.63535
 == 182-th k-point (-0.69096,0.69096,0.13819) occupation: 6==
 -23.85929 -1.46358 -0.67157 -0.06116 -0.00776 0.00616 0.55646 0.63262 0.71426 0.77853
 0.94482 1.33737 1.46293 1.57787 1.74349 1.77728 1.95501 2.27365 2.48065 2.64077
 2.70774 2.73162 3.38756 4.08374 4.37145 4.46410 4.89668 6.45073 6.52102 6.78713
 7.08473 7.08823 7.10832 7.15023 7.21859 7.24172 7.28636 8.50251 8.67364 8.75364
 8.80880 8.99596 15.95013 57.32884
 == 183-th k-point (-0.55277,0.82916,0.00000) occupation: 6==
 -23.85930 -1.46341 -0.66972 -0.05908 -0.02161 0.00499 0.58825 0.60992 0.68504 0.76080
 0.98414 1.31738 1.35300 1.54349 1.75900 1.85922 2.14212 2.21725 2.46771 2.51093
 2.69930 2.74258 3.50653 4.07405 4.29680 4.36555 4.94686 6.49546 6.61464 6.69978
 7.08535 7.08718 7.09478 7.12372 7.23003 7.23847 7.31210 8.46261 8.65687 8.77269
 8.82098 9.05135 16.06553 57.54195
 == 184-th k-point (-0.41458,0.96735,-0.13819) occupation: 6==
 -23.85930 -1.46355 -0.67235 -0.04618 -0.02565 0.01326 0.53938 0.60672 0.72778 0.75097
 1.15855 1.17433 1.40971 1.45508 1.78894 1.80803 2.07315 2.25295 2.46051 2.56312
 2.73326 2.73485 3.51374 4.10948 4.32808 4.34728 4.90551 6.49511 6.52495 6.74663
 7.08562 7.08593 7.09053 7.09688 7.19834 7.24170 7.28173 8.47078 8.72042 8.79861
 8.81315 9.02771 16.04736 57.50921
 == 185-th k-point (-0.27639,1.10554,-0.27639) occupation: 6==
 -23.85930 -1.46387 -0.67670 -0.05215 0.00627 0.02058 0.47807 0.63553 0.74620 0.75406
 1.13601 1.30425 1.38486 1.43320 1.59834 1.79175 1.86266 2.36845 2.45626 2.68688
 2.72424 2.90814 3.40882 4.04434 4.14144 4.31549 4.91853 6.42014 6.54085 6.71422
 7.09132 7.09653 7.09889 7.11518 7.15698 7.16411 7.26969 8.58296 8.72373 8.80120
 8.90240 8.90991 15.96213 57.45561
 == 186-th k-point (-0.82916,0.27639,0.55277) occupation: 6==
 -23.85931 -1.46391 -0.67595 -0.04227 -0.01002 0.01733 0.51172 0.62733 0.73753 0.76835
 1.04509 1.29776 1.44432 1.51432 1.70497 1.81616 2.08492 2.21734 2.44704 2.60386
 2.70373 2.71968 3.42936 4.16520 4.19802 4.50842 5.03221 6.37956 6.48869 6.91305
 7.08741 7.08801 7.09616 7.12139 7.19925 7.21612 7.25981 8.46796 8.70686 8.75387
 8.78455 8.98969 15.89530 57.63535
 == 187-th k-point (-0.69096,0.41458,0.41458) occupation: 6==
 -23.85931 -1.46405 -0.67845 -0.04355 0.00149 0.02774 0.47176 0.63206 0.75522 0.76066
 1.16799 1.27107 1.40448 1.46736 1.71952 1.77309 1.91589 2.36981 2.39095 2.67071
 2.74290 2.92346 3.40250 3.89610 4.22456 4.33986 5.06039 6.36149 6.70822 6.83880
 7.08197 7.09190 7.10197 7.10709 7.14002 7.15810 7.24844 8.57743 8.72512 8.79395
 8.88147 8.89715 15.81169 57.64841
 == 188-th k-point (-0.55277,0.55277,0.27639) occupation: 6==
 -23.85930 -1.46387 -0.67670 -0.05215 0.00627 0.02058 0.47807 0.63553 0.74620 0.75406
 1.13601 1.30425 1.38486 1.43320 1.59834 1.79175 1.86266 2.36845 2.45626 2.68688
 2.72424 2.90814 3.40882 4.04434 4.14144 4.31549 4.91853 6.42014 6.54085 6.71422
 7.09132 7.09653 7.09889 7.11518 7.15698 7.16411 7.26969 8.58296 8.72373 8.80120
 8.90240 8.90991 15.96213 57.45561
 == 189-th k-point (-0.41458,0.69096,0.13819) occupation: 6==
 -23.85930 -1.46355 -0.67235 -0.04618 -0.02565 0.01326 0.53938 0.60672 0.72778 0.75097
 1.15855 1.17433 1.40971 1.45508 1.78894 1.80803 2.07315 2.25295 2.46051 2.56312
 2.73326 2.73485 3.51374 4.10948 4.32808 4.34728 4.90550 6.49511 6.52495 6.74663
 7.08562 7.08593 7.09053 7.09688 7.19834 7.24170 7.28173 8.47078 8.72042 8.79861
 8.81316 9.02771 16.04736 57.50921
 == 190-th k-point (-0.27639,0.82916,0.00000) occupation: 6==
 -23.85930 -1.46341 -0.66972 -0.05908 -0.02161 0.00499 0.58825 0.60992 0.68504 0.76080
 0.98414 1.31738 1.35300 1.54349 1.75900 1.85922 2.14212 2.21725 2.46771 2.51093
 2.69930 2.74258 3.50653 4.07405 4.29680 4.36555 4.94686 6.49546 6.61464 6.69978
 7.08535 7.08718 7.09478 7.12372 7.23003 7.23847 7.31210 8.46261 8.65687 8.77269
 8.82098 9.05135 16.06553 57.54195
 == 191-th k-point (-0.13819,0.96735,-0.13819) occupation: 6==
 -23.85929 -1.46358 -0.67157 -0.06116 -0.00776 0.00616 0.55646 0.63262 0.71426 0.77853
 0.94482 1.33737 1.46293 1.57787 1.74349 1.77728 1.95501 2.27365 2.48065 2.64077
 2.70774 2.73162 3.38756 4.08374 4.37145 4.46410 4.89668 6.45073 6.52102 6.78713
 7.08473 7.08823 7.10832 7.15023 7.21859 7.24172 7.28636 8.50251 8.67364 8.75364
 8.80880 8.99596 15.95013 57.32884
 == 192-th k-point (-0.69096,0.13819,0.69096) occupation: 6==
 -23.85929 -1.46358 -0.67157 -0.06116 -0.00776 0.00616 0.55646 0.63262 0.71426 0.77853
 0.94482 1.33737 1.46293 1.57787 1.74349 1.77728 1.95501 2.27365 2.48065 2.64077
 2.70774 2.73162 3.38756 4.08374 4.37145 4.46410 4.89668 6.45073 6.52102 6.78713
 7.08473 7.08823 7.10832 7.15023 7.21859 7.24172 7.28636 8.50251 8.67364 8.75364
 8.80880 8.99596 15.95013 57.32884
 == 193-th k-point (-0.55277,0.27639,0.55277) occupation: 6==
 -23.85930 -1.46387 -0.67670 -0.05215 0.00627 0.02058 0.47807 0.63553 0.74620 0.75406
 1.13601 1.30425 1.38486 1.43320 1.59834 1.79175 1.86266 2.36845 2.45626 2.68688
 2.72424 2.90814 3.40882 4.04434 4.14144 4.31549 4.91853 6.42014 6.54085 6.71422
 7.09132 7.09653 7.09889 7.11518 7.15698 7.16411 7.26969 8.58296 8.72373 8.80120
 8.90240 8.90991 15.96213 57.45561
 == 194-th k-point (-0.41458,0.41458,0.41458) occupation: 6==
 -23.85930 -1.46399 -0.67919 -0.05759 0.02824 0.02824 0.43651 0.66402 0.73910 0.73910
 1.31195 1.31195 1.33929 1.51683 1.51684 1.81847 1.82372 2.41356 2.41356 2.73416
 2.90446 3.00751 3.00751 3.95093 3.95093 4.21438 4.87163 6.58821 6.58821 6.83647
 7.08067 7.08067 7.08359 7.09341 7.10571 7.10571 7.29879 8.63182 8.63182 8.81557
 8.95812 8.95812 15.16679 57.44463
 == 195-th k-point (-0.27639,0.55277,0.27639) occupation: 6==
 -23.85930 -1.46387 -0.67670 -0.05215 0.00627 0.02058 0.47807 0.63553 0.74620 0.75406
 1.13601 1.30425 1.38486 1.43320 1.59834 1.79175 1.86266 2.36845 2.45626 2.68688
 2.72424 2.90814 3.40882 4.04434 4.14144 4.31549 4.91853 6.42014 6.54085 6.71422
 7.09132 7.09653 7.09889 7.11518 7.15698 7.16411 7.26969 8.58296 8.72373 8.80120
 8.90240 8.90991 15.96213 57.45561
 == 196-th k-point (-0.13819,0.69096,0.13819) occupation: 6==
 -23.85929 -1.46358 -0.67157 -0.06116 -0.00776 0.00616 0.55646 0.63262 0.71426 0.77853
 0.94482 1.33737 1.46293 1.57787 1.74349 1.77728 1.95501 2.27365 2.48065 2.64077
 2.70774 2.73162 3.38756 4.08374 4.37145 4.46410 4.89668 6.45073 6.52102 6.78713
 7.08473 7.08823 7.10832 7.15023 7.21859 7.24172 7.28636 8.50251 8.67364 8.75364
 8.80880 8.99596 15.95013 57.32884
 == 197-th k-point (0.00000,0.82916,0.00000) occupation: 6==
 -23.85928 -1.46344 -0.66893 -0.07598 -0.00066 -0.00066 0.58574 0.68377 0.78965 0.78965
 1.33482 1.52456 1.71343 1.71343 2.17589 2.19920 2.21725 2.21725 2.24658 2.24658
 2.37302 2.51339 3.36545 4.69092 4.70387 4.70775 4.70775 6.52308 6.52308 7.05343
 7.08359 7.08535 7.23716 7.24250 7.24250 7.40743 7.40743 8.43829 8.45516 8.46261
 8.46261 9.01165 15.88722 57.10956
 == 198-th k-point (-0.55277,-0.00000,0.82916) occupation: 6==
 -23.85930 -1.46341 -0.66972 -0.05908 -0.02161 0.00499 0.58825 0.60992 0.68504 0.76080
 0.98414 1.31738 1.35300 1.54349 1.75900 1.85922 2.14212 2.21725 2.46771 2.51093
 2.69930 2.74258 3.50653 4.07405 4.29680 4.36555 4.94686 6.49546 6.61464 6.69978
 7.08535 7.08718 7.09478 7.12372 7.23003 7.23847 7.31210 8.46261 8.65687 8.77269
 8.82098 9.05135 16.06553 57.54195
 == 199-th k-point (-0.41458,0.13819,0.69096) occupation: 6==
 -23.85930 -1.46355 -0.67235 -0.04618 -0.02565 0.01326 0.53938 0.60672 0.72778 0.75097
 1.15855 1.17433 1.40971 1.45508 1.78894 1.80803 2.07315 2.25295 2.46051 2.56312
 2.73326 2.73485 3.51374 4.10948 4.32808 4.34728 4.90550 6.49511 6.52495 6.74663
 7.08562 7.08593 7.09053 7.09688 7.19834 7.24170 7.28173 8.47078 8.72042 8.79861
 8.81316 9.02771 16.04736 57.50921
 == 200-th k-point (-0.27639,0.27639,0.55277) occupation: 6==
 -23.85930 -1.46387 -0.67670 -0.05215 0.00627 0.02058 0.47807 0.63553 0.74620 0.75406
 1.13601 1.30425 1.38486 1.43320 1.59834 1.79175 1.86266 2.36845 2.45626 2.68688
 2.72424 2.90814 3.40882 4.04434 4.14144 4.31549 4.91853 6.42014 6.54085 6.71422
 7.09132 7.09653 7.09889 7.11518 7.15698 7.16411 7.26969 8.58296 8.72373 8.80120
 8.90240 8.90991 15.96213 57.45561
 == 201-th k-point (-0.13819,0.41458,0.41458) occupation: 6==
 -23.85931 -1.46405 -0.67845 -0.04355 0.00149 0.02774 0.47176 0.63206 0.75522 0.76066
 1.16799 1.27107 1.40448 1.46736 1.71952 1.77309 1.91589 2.36981 2.39095 2.67071
 2.74290 2.92346 3.40250 3.89610 4.22456 4.33986 5.06039 6.36149 6.70822 6.83880
 7.08197 7.09190 7.10197 7.10709 7.14002 7.15810 7.24844 8.57743 8.72512 8.79395
 8.88147 8.89715 15.81169 57.64841
 == 202-th k-point (0.00000,0.55277,0.27639) occupation: 6==
 -23.85931 -1.46391 -0.67595 -0.04227 -0.01002 0.01733 0.51172 0.62733 0.73753 0.76835
 1.04509 1.29776 1.44432 1.51432 1.70497 1.81616 2.08492 2.21734 2.44704 2.60386
 2.70373 2.71968 3.42936 4.16520 4.19802 4.50842 5.03221 6.37956 6.48869 6.91305
 7.08741 7.08801 7.09616 7.12139 7.19925 7.21612 7.25981 8.46796 8.70686 8.75387
 8.78455 8.98969 15.89530 57.63535
 == 203-th k-point (0.13819,0.69096,0.13819) occupation: 6==
 -23.85929 -1.46358 -0.67157 -0.06116 -0.00776 0.00616 0.55646 0.63262 0.71426 0.77853
 0.94482 1.33737 1.46293 1.57787 1.74349 1.77728 1.95501 2.27365 2.48065 2.64077
 2.70774 2.73162 3.38756 4.08374 4.37145 4.46410 4.89668 6.45073 6.52102 6.78713
 7.08473 7.08823 7.10832 7.15023 7.21859 7.24172 7.28636 8.50251 8.67364 8.75364
 8.80880 8.99596 15.95013 57.32884
 == 204-th k-point (-0.41458,-0.13819,0.96735) occupation: 6==
 -23.85930 -1.46355 -0.67235 -0.04618 -0.02565 0.01326 0.53938 0.60672 0.72778 0.75097
 1.15855 1.17433 1.40971 1.45508 1.78894 1.80803 2.07315 2.25295 2.46051 2.56312
 2.73326 2.73485 3.51374 4.10948 4.32808 4.34728 4.90551 6.49511 6.52495 6.74663
 7.08562 7.08593 7.09053 7.09688 7.19834 7.24170 7.28173 8.47078 8.72042 8.79861
 8.81315 9.02771 16.04736 57.50921
 == 205-th k-point (-0.27639,-0.00000,0.82916) occupation: 6==
 -23.85930 -1.46341 -0.66972 -0.05908 -0.02161 0.00499 0.58825 0.60992 0.68504 0.76080
 0.98414 1.31738 1.35300 1.54349 1.75900 1.85922 2.14212 2.21725 2.46771 2.51093
 2.69930 2.74258 3.50653 4.07405 4.29680 4.36555 4.94686 6.49546 6.61464 6.69978
 7.08535 7.08718 7.09478 7.12372 7.23003 7.23847 7.31210 8.46261 8.65687 8.77269
 8.82098 9.05135 16.06553 57.54195
 == 206-th k-point (-0.13819,0.13819,0.69096) occupation: 6==
 -23.85929 -1.46358 -0.67157 -0.06116 -0.00776 0.00616 0.55646 0.63262 0.71426 0.77853
 0.94482 1.33737 1.46293 1.57787 1.74349 1.77728 1.95501 2.27365 2.48065 2.64077
 2.70774 2.73162 3.38756 4.08374 4.37145 4.46410 4.89668 6.45073 6.52102 6.78713
 7.08473 7.08823 7.10832 7.15023 7.21859 7.24172 7.28636 8.50251 8.67364 8.75364
 8.80880 8.99596 15.95013 57.32884
 == 207-th k-point (0.00000,0.27639,0.55277) occupation: 6==
 -23.85931 -1.46391 -0.67595 -0.04227 -0.01002 0.01733 0.51172 0.62733 0.73753 0.76835
 1.04509 1.29776 1.44432 1.51432 1.70497 1.81616 2.08492 2.21734 2.44704 2.60386
 2.70373 2.71968 3.42936 4.16520 4.19802 4.50842 5.03221 6.37956 6.48869 6.91305
 7.08741 7.08801 7.09616 7.12139 7.19925 7.21612 7.25981 8.46796 8.70686 8.75387
 8.78455 8.98969 15.89530 57.63535
 == 208-th k-point (0.13819,0.41458,0.41458) occupation: 6==
 -23.85931 -1.46405 -0.67845 -0.04355 0.00149 0.02774 0.47176 0.63206 0.75522 0.76066
 1.16799 1.27107 1.40448 1.46736 1.71952 1.77309 1.91589 2.36981 2.39095 2.67071
 2.74290 2.92346 3.40250 3.89610 4.22456 4.33986 5.06039 6.36149 6.70822 6.83880
 7.08197 7.09190 7.10197 7.10709 7.14002 7.15810 7.24844 8.57743 8.72512 8.79395
 8.88147 8.89715 15.81169 57.64841
 == 209-th k-point (0.27639,0.55277,0.27639) occupation: 6==
 -23.85930 -1.46387 -0.67670 -0.05215 0.00627 0.02058 0.47807 0.63553 0.74620 0.75406
 1.13601 1.30425 1.38486 1.43320 1.59834 1.79175 1.86266 2.36845 2.45626 2.68688
 2.72424 2.90814 3.40882 4.04434 4.14144 4.31549 4.91853 6.42014 6.54085 6.71422
 7.09132 7.09653 7.09889 7.11518 7.15698 7.16411 7.26969 8.58296 8.72373 8.80120
 8.90240 8.90991 15.96213 57.45561
 == 210-th k-point (-0.27639,-0.27639,1.10554) occupation: 6==
 -23.85930 -1.46387 -0.67670 -0.05215 0.00627 0.02058 0.47807 0.63553 0.74620 0.75406
 1.13601 1.30425 1.38486 1.43320 1.59834 1.79175 1.86266 2.36845 2.45626 2.68688
 2.72424 2.90814 3.40882 4.04434 4.14144 4.31549 4.91853 6.42014 6.54085 6.71422
 7.09132 7.09653 7.09889 7.11518 7.15698 7.16411 7.26969 8.58296 8.72373 8.80120
 8.90240 8.90991 15.96213 57.45561
 == 211-th k-point (-0.13819,-0.13819,0.96735) occupation: 6==
 -23.85929 -1.46358 -0.67157 -0.06116 -0.00776 0.00616 0.55646 0.63262 0.71426 0.77853
 0.94482 1.33737 1.46293 1.57787 1.74349 1.77728 1.95501 2.27365 2.48065 2.64077
 2.70774 2.73162 3.38756 4.08374 4.37145 4.46410 4.89668 6.45073 6.52102 6.78713
 7.08473 7.08823 7.10832 7.15023 7.21859 7.24172 7.28636 8.50251 8.67364 8.75364
 8.80880 8.99596 15.95013 57.32884
 == 212-th k-point (0.00000,-0.00000,0.82916) occupation: 6==
 -23.85928 -1.46344 -0.66893 -0.07598 -0.00066 -0.00066 0.58574 0.68377 0.78965 0.78965
 1.33482 1.52456 1.71343 1.71343 2.17589 2.19920 2.21725 2.21725 2.24658 2.24658
 2.37302 2.51339 3.36545 4.69092 4.70387 4.70775 4.70775 6.52308 6.52308 7.05343
 7.08359 7.08535 7.23716 7.24250 7.24250 7.40743 7.40743 8.43829 8.45516 8.46261
 8.46261 9.01165 15.88722 57.10956
 == 213-th k-point (0.13819,0.13819,0.69096) occupation: 6==
 -23.85929 -1.46358 -0.67157 -0.06116 -0.00776 0.00616 0.55646 0.63262 0.71426 0.77853
 0.94482 1.33737 1.46293 1.57787 1.74349 1.77728 1.95501 2.27365 2.48065 2.64077
 2.70774 2.73162 3.38756 4.08374 4.37145 4.46410 4.89668 6.45073 6.52102 6.78713
 7.08473 7.08823 7.10832 7.15023 7.21859 7.24172 7.28636 8.50251 8.67364 8.75364
 8.80880 8.99596 15.95013 57.32884
 == 214-th k-point (0.27639,0.27639,0.55277) occupation: 6==
 -23.85930 -1.46387 -0.67670 -0.05215 0.00627 0.02058 0.47807 0.63553 0.74620 0.75406
 1.13601 1.30425 1.38486 1.43320 1.59834 1.79175 1.86266 2.36845 2.45626 2.68688
 2.72424 2.90814 3.40882 4.04434 4.14144 4.31549 4.91853 6.42014 6.54085 6.71422
 7.09132 7.09653 7.09889 7.11518 7.15698 7.16411 7.26969 8.58296 8.72373 8.80120
 8.90240 8.90991 15.96213 57.45561
 == 215-th k-point (0.41458,0.41458,0.41458) occupation: 6==
 -23.85930 -1.46399 -0.67919 -0.05759 0.02824 0.02824 0.43651 0.66402 0.73910 0.73910
 1.31195 1.31195 1.33929 1.51684 1.51684 1.81847 1.82372 2.41356 2.41356 2.73416
 2.90446 3.00751 3.00751 3.95093 3.95093 4.21438 4.87163 6.58821 6.58821 6.83647
 7.08067 7.08067 7.08359 7.09341 7.10571 7.10571 7.29879 8.63182 8.63182 8.81557
 8.95812 8.95812 15.16679 57.44463
 ---------------------------------------------------------------------------
 VBM is at 86-th k-point with 0.99969 eV
 CBM is at 86-th k-point with 10.16322 eV
 Band gap is 9.16353 eV


           Ground-State Mulliken Net Atomic Charges

      Atom                 Charge (a.u.)          Spin (a.u.)
   --------------------------------------------------------
      1 Li                (0.816218,0.000000)    (0.000000,0.000000)
      2  F              (-0.816218,-0.000000)    (0.000000,0.000000)
   --------------------------------------------------------
  Sum of atomic charges =      (0.000000,-0.000000)
  Sum of spin   charges =       (0.000000,0.000000)



 Total job time:  136.57 s.
 Tue Sep  9 00:42:22 2025


        *************************************************************
        *                                                           *
        *  Thank you very much for using QCPBC. Have a nice day.    *
        *                                                           *
        *************************************************************

Running job 1 of 1
