                  Welcome to Q-Chem
           with Periodic Boundary Condition
     A Quantum Leap Into The Future Of Chemistry

 Adam Rettig, Xintian Feng, Meng-Fu Chen, Hieu Dinh, Stephen Quiton,
 Anton Ni, Paul J. Robinson, Jinghong Zhang, Joonho Lee

Contributors to earlier versions of Q-Chem not listed above:
 Evgeny Epifanovsky, Leo Cunha, Jerome F. Gonthier, Kuan-Yu Liu
 Input file: /n/netscratch/joonholee_lab/Lab/hieudinh//lif_solve_def2tzvp_omega_0.3_666.scratch20250909003606/lif_solve_def2tzvp_omega_0.3_666.0
 Scratch folder: /n/netscratch/joonholee_lab/Lab/hieudinh//lif_solve_def2tzvp_omega_0.3_666.scratch20250909003606
 Auxillary files located at: /n/holylabs/LABS/joonholee_lab/Lab/qchem_base/qcaux
 Q-Chem begins on Tue Sep  9 00:36:07 2025

 -------------------------------------------------------------
 User input:
 -------------------------------------------------------------
 $lattice
 3
 0.000000 2.005000 2.005000
 2.005000 0.000000 2.005000
 2.005000 2.005000 0.000000
 $end
 
 $unitcell
 ABSOLUTE
 0 1
 Li 0.000000 0.000000 0.000000
 F  2.005000 0.000000 0.000000
 $end
 
 $rem
 jobtype = sp
 method = pbe
 scf_convergence = 5
 scf_guess = autosad
 scf_algorithm = gdm
 basis = def2-tzvp
 aux_basis = gen
 input_bohr = false
 symmetry false
 is_basis_uctr true
 rsdf_print_level 1
 
 mp_mesh = [6,6,6]
 
 integral_direct true
 bvk_cgto true
 
 thresh 14
 mem_total 100000
 threads 32
 
 MAX_SCF_CYCLES 400
 madelung = false
 omega 0.3
 do_rij_bigmem true
 automate_g true
 print_level 10
 grid_type_xc 1
 
 thresh_1e2c_sp 1e-14
 thresh_2e3c_bra_ket_sep 1e-10
 thresh_g 1e-12
 $end
 
 $aux_basis
 Li     0
 S   7   1.00
     498.3689730              0.0207908
     162.9342738              0.0542177
      57.3246735              0.1776783
      21.6427314              0.4181150
       8.7345375              0.6535245
       3.7491039              0.5492618
       1.7006754              0.1701425
 S   1   1.00
       0.8090859             -0.0097548
 S   1   1.00
       0.4000933             -0.0050152
 S   1   1.00
       0.2035793              0.0232200
 !S   1   1.00
 !      0.1054201              0.0134535
 !S   1   1.00
 !      0.0549139              0.0006647
 P   2   1.00
      10.7024696              0.0072923
       3.6551543              0.0060940
 P   1   1.00
       1.2464013              0.0172529
 P   1   1.00
       0.4246282             -0.0160026
 P   1   1.00
       0.1446192             -0.0195111
 D   2   1.00
       1.1510647             -0.0014314
       0.6019112              0.0038969
 D   1   1.00
       0.3109573              0.0024683
 D   1   1.00
       0.1600032              0.0036451
 F   2   1.00
       0.5967918              0.0010494
       0.1790687              0.0006468
 G   1   1.00
       1.0460130             -0.0001971
 ****
 F     0
 S   7   1.00
    3514.9201549              0.1805835
    1231.2458815              0.3676084
     454.1367336              1.2707881
     175.8376258              2.8274164
      71.2081775              4.3588226
      30.0316883              2.7180994
      13.1259023             -0.0804726
 S   1   1.00
       5.9126861             -0.0023370
 S   1   1.00
       2.7284431              1.1236274
 S   1   1.00
       1.2813993              0.9999042
 S   1   1.00
       0.6082793              0.3119579
 S   1   1.00
       0.2897894              0.0312295
 P   2   1.00
      49.3740409             -0.0346332
      13.4874956             -0.0096069
 P   1   1.00
       3.9664900              0.0762067
 P   1   1.00
       1.2226629             -0.0103329
 P   1   1.00
       0.3830317              0.0018853
 D   2   1.00
      29.9719140             -0.0113316
       6.7860915             -0.0467639
 D   1   1.00
       1.8137313             -0.0167604
 D   1   1.00
       0.5157840             -0.0050777
 F   2   1.00
       2.8301877              1.0
       0.9155962              1.0
 G   1   1.00
       1.6097500             -0.0005411
 ****
 $end
 -------------------------------------------------------------
 Running PBC job

 Requested Exchange Correlation Functionals: 
  DFT Exchange:  1.00000 pbe_x
  DFT Correlation:  1.00000 pbe_c
 using 32 threads for computing.
 ---------------------------------------------------------------
      Coordinates of Atoms in Central Unit Cell (Angstroms)
    I     Atom         X            Y            Z
 ---------------------------------------------------------------
    1      Li      0.000000     0.000000     0.000000
    2       F      2.005000     0.000000     0.000000
 ---------------------------------------------------------------
 --------------------------------------------------
              Lattice Vectors (Angstroms)
              X            Y            Z
 --------------------------------------------------
   X       0.000000     2.005000     2.005000
   Y       2.005000     0.000000     2.005000
   Z       2.005000     2.005000     0.000000
 --------------------------------------------------
 --------------------------------------------------
       Reciprocal Lattice Vectors (Angstroms^-1)
              X            Y            Z
 --------------------------------------------------
   X      -1.566879     1.566879     1.566879
   Y       1.566879    -1.566879     1.566879
   Z       1.566879     1.566879    -1.566879
 --------------------------------------------------

 Single point calculation requested

 Hamiltonian contributions:
 List of terms in Hamiltonian: kpts_nn, kpts_kinetic, kpts_vnuc_df, kpts_xc, kpts_rij_bigmem

 K-Points calculation started.

 Basis set information about using solid harmonic (1) or Cartesian (0):
  li : 
  f : D(1) D(1) F(1) 

 Basis set information about using solid harmonic (1) or Cartesian (0):
  li : D(1) D(1) D(1) F(1) G(1) 
  f : D(1) D(1) D(1) F(1) G(1) 

 There are 45 basis functions in the central unit cell.
 Print atomic basis of atoms in the central unit cell:
 -------------------------------------------------------------
2 34 34 19

  0.00000000000000e+00  0.00000000000000e+00  0.00000000000000e+00
  3.78890087987467e+00  0.00000000000000e+00  0.00000000000000e+00

  6.26926280100000e+03
  9.40316124310000e+02
  2.14221075280000e+02
  6.07598401840000e+01
  1.99151520320000e+01
  7.31715097970000e+00
  2.97246742160000e+00
  1.26398523140000e+00
  5.14274899530000e-01
  7.70308859010000e-02
  2.89388964330000e-02
  3.32700000000000e+00
  4.00000000000000e-01
  6.00000000000000e-02
  3.54791004410000e+04
  5.31847289830000e+03
  1.21048109750000e+03
  3.42855181400000e+02
  1.12019431810000e+02
  4.07147402480000e+01
  1.60396781110000e+01
  6.50381867400000e+00
  1.54404775090000e+00
  6.12234528620000e-01
  2.40279796980000e-01
  8.02339004830000e+01
  1.85940107430000e+01
  5.68679026530000e+00
  1.95110062940000e+00
  6.69702112980000e-01
  2.16513004100000e-01
  3.10700000000000e+00
  8.55000000000000e-01
  1.91700000000000e+00

  2.60146728801502e-01
  4.85835841940497e-01
  8.34119322504559e-01
  1.32445742735490e+00
  1.88157694810314e+00
  2.19520050299083e+00
  7.26218105813079e-01
  4.94491916459429e-01
  4.32819270028068e-01
  1.04209847805929e-01
  5.00059366529026e-02
  6.40480761295544e+00
  4.53435039044381e-01
  4.23281366783111e-02
  1.03516566506933e+00
  1.93311703276555e+00
  3.30816792488426e+00
  5.19043602286014e+00
  7.14537150961128e+00
  7.78535976400937e+00
  3.61564648527820e+00
  1.16499925171188e+00
  9.87201115801914e-01
  4.93285621447351e-01
  2.44595258796206e-01
  4.21740775922586e+00
  4.71742640820820e+00
  4.08491013761290e+00
  2.29989742214987e+00
  8.63559317399815e-01
  2.10520828359705e-01
  1.19675885449078e+01
  1.25126747832287e+00
  6.36581779142017e+00

0 0 0 0 1 1 1
0 0 
6 0

0 1 1 6 1 1 1
6 0 
2 0

0 2 2 8 1 1 1
8 0 
1 0

0 3 3 9 1 1 1
9 0 
1 0

0 4 4 10 1 1 1
10 0 
1 0

0 5 5 11 1 3 3
11 1 
1 0

0 8 8 12 1 3 3
12 1 
1 0

0 11 11 13 1 3 3
13 1 
1 0

1 14 14 14 1 1 1
14 0 
6 0

1 15 15 20 1 1 1
20 0 
2 0

1 16 16 22 1 1 1
22 0 
1 0

1 17 17 23 1 1 1
23 0 
1 0

1 18 18 24 1 1 1
24 0 
1 0

1 19 19 25 1 3 3
25 1 
4 0

1 22 22 29 1 3 3
29 1 
1 0

1 25 25 30 1 3 3
30 1 
1 0

1 28 28 31 1 5 6
31 2 
1 1

1 33 33 32 1 5 6
32 2 
1 1

1 38 38 33 1 7 10
33 3 
1 1

 -------------------------------------------------------------
 Allocate 134496 B from available memory: 104857600000 B
 There are 6859 image cells after screening.
 There are 10216 image cells for CGTO evaluation after screening.
 Real-Space grid for FFT initialized based on kinetic energy cutoff (eV) = 500.0
 Real-Space grid for FFT: (8,8,8)
 There are 4913 real-space grid points.
 There are 27 batches of real-space grid points. 
 Size of each grid batch is around 128
 Grid for AFT initialized based on kinetic energy cutoff (eV) = 500.0
 Real-Space grid for AFT: (8,8,8)
 There are 4913 real-space grid points.

 There are 5740 atom-centered grid points.

 Spacegroup symmetry group: Fm-3m
 Reducing spacegroup symmetry to symmorphic group: F m -3 m
 Monkhorst-Pack mesh is [6,6,6]
 There are 216 k points.
kpoints in Bohr
-0.2763855758 -0.2763855758 -0.2763855758
-0.1381927879 -0.1381927879 -0.4145783636
-0.0000000000 0.0000000000 -0.5527711515
0.1381927879 0.1381927879 -0.6909639394
0.2763855758 0.2763855758 -0.8291567273
0.4145783636 0.4145783636 -0.9673495152
-0.1381927879 -0.4145783636 -0.1381927879
-0.0000000000 -0.2763855758 -0.2763855758
0.1381927879 -0.1381927879 -0.4145783636
0.2763855758 0.0000000000 -0.5527711515
0.4145783636 0.1381927879 -0.6909639394
0.5527711515 0.2763855758 -0.8291567273
-0.0000000000 -0.5527711515 -0.0000000000
0.1381927879 -0.4145783636 -0.1381927879
0.2763855758 -0.2763855758 -0.2763855758
0.4145783636 -0.1381927879 -0.4145783636
0.5527711515 0.0000000000 -0.5527711515
0.6909639394 0.1381927879 -0.6909639394
0.1381927879 -0.6909639394 0.1381927879
0.2763855758 -0.5527711515 -0.0000000000
0.4145783636 -0.4145783636 -0.1381927879
0.5527711515 -0.2763855758 -0.2763855758
0.6909639394 -0.1381927879 -0.4145783636
0.8291567273 0.0000000000 -0.5527711515
0.2763855758 -0.8291567273 0.2763855758
0.4145783636 -0.6909639394 0.1381927879
0.5527711515 -0.5527711515 -0.0000000000
0.6909639394 -0.4145783636 -0.1381927879
0.8291567273 -0.2763855758 -0.2763855758
0.9673495152 -0.1381927879 -0.4145783636
0.4145783636 -0.9673495152 0.4145783636
0.5527711515 -0.8291567273 0.2763855758
0.6909639394 -0.6909639394 0.1381927879
0.8291567273 -0.5527711515 -0.0000000000
0.9673495152 -0.4145783636 -0.1381927879
1.1055423031 -0.2763855758 -0.2763855758
-0.4145783636 -0.1381927879 -0.1381927879
-0.2763855758 0.0000000000 -0.2763855758
-0.1381927879 0.1381927879 -0.4145783636
-0.0000000000 0.2763855758 -0.5527711515
0.1381927879 0.4145783636 -0.6909639394
0.2763855758 0.5527711515 -0.8291567273
-0.2763855758 -0.2763855758 -0.0000000000
-0.1381927879 -0.1381927879 -0.1381927879
-0.0000000000 0.0000000000 -0.2763855758
0.1381927879 0.1381927879 -0.4145783636
0.2763855758 0.2763855758 -0.5527711515
0.4145783636 0.4145783636 -0.6909639394
-0.1381927879 -0.4145783636 0.1381927879
-0.0000000000 -0.2763855758 -0.0000000000
0.1381927879 -0.1381927879 -0.1381927879
0.2763855758 0.0000000000 -0.2763855758
0.4145783636 0.1381927879 -0.4145783636
0.5527711515 0.2763855758 -0.5527711515
0.0000000000 -0.5527711515 0.2763855758
0.1381927879 -0.4145783636 0.1381927879
0.2763855758 -0.2763855758 -0.0000000000
0.4145783636 -0.1381927879 -0.1381927879
0.5527711515 0.0000000000 -0.2763855758
0.6909639394 0.1381927879 -0.4145783636
0.1381927879 -0.6909639394 0.4145783636
0.2763855758 -0.5527711515 0.2763855758
0.4145783636 -0.4145783636 0.1381927879
0.5527711515 -0.2763855758 -0.0000000000
0.6909639394 -0.1381927879 -0.1381927879
0.8291567273 0.0000000000 -0.2763855758
0.2763855758 -0.8291567273 0.5527711515
0.4145783636 -0.6909639394 0.4145783636
0.5527711515 -0.5527711515 0.2763855758
0.6909639394 -0.4145783636 0.1381927879
0.8291567273 -0.2763855758 -0.0000000000
0.9673495152 -0.1381927879 -0.1381927879
-0.5527711515 0.0000000000 0.0000000000
-0.4145783636 0.1381927879 -0.1381927879
-0.2763855758 0.2763855758 -0.2763855758
-0.1381927879 0.4145783636 -0.4145783636
-0.0000000000 0.5527711515 -0.5527711515
0.1381927879 0.6909639394 -0.6909639394
-0.4145783636 -0.1381927879 0.1381927879
-0.2763855758 0.0000000000 0.0000000000
-0.1381927879 0.1381927879 -0.1381927879
-0.0000000000 0.2763855758 -0.2763855758
0.1381927879 0.4145783636 -0.4145783636
0.2763855758 0.5527711515 -0.5527711515
-0.2763855758 -0.2763855758 0.2763855758
-0.1381927879 -0.1381927879 0.1381927879
0.0000000000 0.0000000000 0.0000000000
0.1381927879 0.1381927879 -0.1381927879
0.2763855758 0.2763855758 -0.2763855758
0.4145783636 0.4145783636 -0.4145783636
-0.1381927879 -0.4145783636 0.4145783636
0.0000000000 -0.2763855758 0.2763855758
0.1381927879 -0.1381927879 0.1381927879
0.2763855758 -0.0000000000 0.0000000000
0.4145783636 0.1381927879 -0.1381927879
0.5527711515 0.2763855758 -0.2763855758
0.0000000000 -0.5527711515 0.5527711515
0.1381927879 -0.4145783636 0.4145783636
0.2763855758 -0.2763855758 0.2763855758
0.4145783636 -0.1381927879 0.1381927879
0.5527711515 -0.0000000000 0.0000000000
0.6909639394 0.1381927879 -0.1381927879
0.1381927879 -0.6909639394 0.6909639394
0.2763855758 -0.5527711515 0.5527711515
0.4145783636 -0.4145783636 0.4145783636
0.5527711515 -0.2763855758 0.2763855758
0.6909639394 -0.1381927879 0.1381927879
0.8291567273 -0.0000000000 0.0000000000
-0.6909639394 0.1381927879 0.1381927879
-0.5527711515 0.2763855758 0.0000000000
-0.4145783636 0.4145783636 -0.1381927879
-0.2763855758 0.5527711515 -0.2763855758
-0.1381927879 0.6909639394 -0.4145783636
-0.0000000000 0.8291567273 -0.5527711515
-0.5527711515 -0.0000000000 0.2763855758
-0.4145783636 0.1381927879 0.1381927879
-0.2763855758 0.2763855758 0.0000000000
-0.1381927879 0.4145783636 -0.1381927879
-0.0000000000 0.5527711515 -0.2763855758
0.1381927879 0.6909639394 -0.4145783636
-0.4145783636 -0.1381927879 0.4145783636
-0.2763855758 -0.0000000000 0.2763855758
-0.1381927879 0.1381927879 0.1381927879
0.0000000000 0.2763855758 0.0000000000
0.1381927879 0.4145783636 -0.1381927879
0.2763855758 0.5527711515 -0.2763855758
-0.2763855758 -0.2763855758 0.5527711515
-0.1381927879 -0.1381927879 0.4145783636
0.0000000000 -0.0000000000 0.2763855758
0.1381927879 0.1381927879 0.1381927879
0.2763855758 0.2763855758 0.0000000000
0.4145783636 0.4145783636 -0.1381927879
-0.1381927879 -0.4145783636 0.6909639394
0.0000000000 -0.2763855758 0.5527711515
0.1381927879 -0.1381927879 0.4145783636
0.2763855758 -0.0000000000 0.2763855758
0.4145783636 0.1381927879 0.1381927879
0.5527711515 0.2763855758 0.0000000000
0.0000000000 -0.5527711515 0.8291567273
0.1381927879 -0.4145783636 0.6909639394
0.2763855758 -0.2763855758 0.5527711515
0.4145783636 -0.1381927879 0.4145783636
0.5527711515 -0.0000000000 0.2763855758
0.6909639394 0.1381927879 0.1381927879
-0.8291567273 0.2763855758 0.2763855758
-0.6909639394 0.4145783636 0.1381927879
-0.5527711515 0.5527711515 0.0000000000
-0.4145783636 0.6909639394 -0.1381927879
-0.2763855758 0.8291567273 -0.2763855758
-0.1381927879 0.9673495152 -0.4145783636
-0.6909639394 0.1381927879 0.4145783636
-0.5527711515 0.2763855758 0.2763855758
-0.4145783636 0.4145783636 0.1381927879
-0.2763855758 0.5527711515 0.0000000000
-0.1381927879 0.6909639394 -0.1381927879
0.0000000000 0.8291567273 -0.2763855758
-0.5527711515 -0.0000000000 0.5527711515
-0.4145783636 0.1381927879 0.4145783636
-0.2763855758 0.2763855758 0.2763855758
-0.1381927879 0.4145783636 0.1381927879
0.0000000000 0.5527711515 0.0000000000
0.1381927879 0.6909639394 -0.1381927879
-0.4145783636 -0.1381927879 0.6909639394
-0.2763855758 -0.0000000000 0.5527711515
-0.1381927879 0.1381927879 0.4145783636
0.0000000000 0.2763855758 0.2763855758
0.1381927879 0.4145783636 0.1381927879
0.2763855758 0.5527711515 0.0000000000
-0.2763855758 -0.2763855758 0.8291567273
-0.1381927879 -0.1381927879 0.6909639394
0.0000000000 -0.0000000000 0.5527711515
0.1381927879 0.1381927879 0.4145783636
0.2763855758 0.2763855758 0.2763855758
0.4145783636 0.4145783636 0.1381927879
-0.1381927879 -0.4145783636 0.9673495152
0.0000000000 -0.2763855758 0.8291567273
0.1381927879 -0.1381927879 0.6909639394
0.2763855758 -0.0000000000 0.5527711515
0.4145783636 0.1381927879 0.4145783636
0.5527711515 0.2763855758 0.2763855758
-0.9673495152 0.4145783636 0.4145783636
-0.8291567273 0.5527711515 0.2763855758
-0.6909639394 0.6909639394 0.1381927879
-0.5527711515 0.8291567273 0.0000000000
-0.4145783636 0.9673495152 -0.1381927879
-0.2763855758 1.1055423031 -0.2763855758
-0.8291567273 0.2763855758 0.5527711515
-0.6909639394 0.4145783636 0.4145783636
-0.5527711515 0.5527711515 0.2763855758
-0.4145783636 0.6909639394 0.1381927879
-0.2763855758 0.8291567273 0.0000000000
-0.1381927879 0.9673495152 -0.1381927879
-0.6909639394 0.1381927879 0.6909639394
-0.5527711515 0.2763855758 0.5527711515
-0.4145783636 0.4145783636 0.4145783636
-0.2763855758 0.5527711515 0.2763855758
-0.1381927879 0.6909639394 0.1381927879
0.0000000000 0.8291567273 0.0000000000
-0.5527711515 -0.0000000000 0.8291567273
-0.4145783636 0.1381927879 0.6909639394
-0.2763855758 0.2763855758 0.5527711515
-0.1381927879 0.4145783636 0.4145783636
0.0000000000 0.5527711515 0.2763855758
0.1381927879 0.6909639394 0.1381927879
-0.4145783636 -0.1381927879 0.9673495152
-0.2763855758 -0.0000000000 0.8291567273
-0.1381927879 0.1381927879 0.6909639394
0.0000000000 0.2763855758 0.5527711515
0.1381927879 0.4145783636 0.4145783636
0.2763855758 0.5527711515 0.2763855758
-0.2763855758 -0.2763855758 1.1055423031
-0.1381927879 -0.1381927879 0.9673495152
0.0000000000 -0.0000000000 0.8291567273
0.1381927879 0.1381927879 0.6909639394
0.2763855758 0.2763855758 0.5527711515
0.4145783636 0.4145783636 0.4145783636
 There are 6 alpha and 6 beta electrons
 Start computing overlap matrix
 Allocate 6998400 B from available memory: 104857465504 B
 Time for computing overlap matrix: 9.0270000000 s
 ====== Initialize compute kernels for all-electron RI-J (kpts) ====== 
 ========================================================== 
 Range-separated parameter omega        = 0.299999999999999989
 Threshold for 1e2c shellpair           = 0.000000000000010000
 Threshold for 2e2c SR integral         = 0.000000000000000001
 Threshold for 2e3c SR integral         = 0.000000000100000000
 Threshold for AFT G-space screening is = 0.000000000001000000
 The exponent cutoff for C/D classification (omega2 / 2) is  = 0.044999999999999998
 ========================================================== 
 === Post process the basis set for RI calculation (exp_cutoff = 0.044999999999999998 ) === 
nshells_b1 before uncontraction = 19
nshells_b1 after uncontraction = 19
nshells_baux before uncontraction = 28
nshells_baux after uncontraction = 28
===============================================
nbsf total   = 45
nbsf compact = 44
nbsf diffuse = 1
naux total   = 96
naux compact = 96
naux diffuse = 0
nshells_bnuc = 2

 Number of unique atoms is 2
 Unique atom #0 (li) has 7 shells.
 Unique atom #1 (f) has 11 shells.

Shell 0 to 6 belongs to atom li
Shell 7 to 17 belongs to atom f

 Number of unique atoms is 2
 Unique atom #0 (li) has 1 shells.
 Unique atom #1 (f) has 0 shells.

Shell 0 to 0 belongs to atom li

 Number of unique atom is 2
 Unique atom #0 (li) has 13 auxiliary shells.
 Unique atom #1 (f) has 15 auxiliary shells.

Auxiliary Shell 0 to 12 belongs to atom li
Auxiliary Shell 13 to 27 belongs to atom f

================= Automatically determine grid size for reciprocal space summation =================
 Range-separated parameter = 0.30000000000000 and G-space screening threshold = 0.00000000000100
The number of grid points along each axis dimension is (3, 3, 3)
Total number of grid points = 343

Use nonortho shellpair for diffuse density
======== Initializing relevant kernel for RIJ (DD type) ========
There are 1 shellpairs in the reference unit cell
There are 14123 images and we expect to have 14123 in total
There are 3043 shellpairs in the lattice sum after screening
======== Initializing relevant kernel for RIJ (CD type) ========
There are 18 shellpairs in the reference unit cell
There are 10889 images and we expect to have 196002 in total
There are 24851 shellpairs in the lattice sum after screening
****** AFT -> SR ******
Maximum bra distance cutoff is 36.000000000000
Maximum bra ket distance cutoff is 34.263081562852
Maximum bra ket screening distance is 30.968750000000
Number of auxiliary image is 3307
There are 18 shellpairs in the reference unit cell
There are 3307 images and we expect to have 59526 in total
There are 24851 shellpairs in the lattice sum after screening
Available memory per thread for 2e3c calculation is 3.276577097000Gb
Finish initializing 2e3c SR with the lattice sum!
=================================================
======== Initializing relevant kernel for RIJ (CC type) ========
There are 168 shellpairs in the reference unit cell
There are 7119 images and we expect to have 1195992 in total
There are 20408 shellpairs in the lattice sum after screening
****** AFT -> SR ******
Maximum bra distance cutoff is 29.000000000000
Maximum bra ket distance cutoff is 35.843750000000
Maximum bra ket screening distance is 30.062500000000
Number of auxiliary image is 3163
There are 168 shellpairs in the reference unit cell
There are 1897 images and we expect to have 318696 in total
There are 20408 shellpairs in the lattice sum after screening
Available memory per thread for 2e3c calculation is 3.276577097000Gb
Finish initializing 2e3c SR with the lattice sum!
=================================================
======== Initializing the SR component for Vnuc (CD type) ========
Maximum bra distance cutoff is 36.000000000000
Maximum bra ket distance cutoff is 27.875618137235
Maximum bra ket screening distance is 24.517983484978
Number of auxiliary image is 3307
There are 18 shellpairs in the reference unit cell
There are 3307 images and we expect to have 59526 in total
There are 24851 shellpairs in the lattice sum after screening
Available memory per thread for 2e3c calculation is 3.276577097000Gb
Finish initializing 2e3c SR with the lattice sum!
=================================================
======== Initialize the SR component for Vnuc (CC type) ========
Maximum bra distance cutoff is 29.000000000000
Maximum bra ket distance cutoff is 29.402830256687
Maximum bra ket screening distance is 23.518898877708
Number of auxiliary image is 1897
There are 168 shellpairs in the reference unit cell
There are 1897 images and we expect to have 318696 in total
There are 20408 shellpairs in the lattice sum after screening
Available memory per thread for 2e3c calculation is 3.276577097000Gb
Finish initializing 2e3c SR with the lattice sum!
=================================================
 Aufbau occupation scheme, occupation determined by eigenvalue
 == 0-th k-point nmo = 45 (-0.27639,-0.27639,-0.27639) ==
 == 1-th k-point nmo = 44 (-0.13819,-0.13819,-0.41458) ==
 == 2-th k-point nmo = 44 (-0.00000,0.00000,-0.55277) ==
 == 3-th k-point nmo = 44 (0.13819,0.13819,-0.69096) ==
 == 4-th k-point nmo = 44 (0.27639,0.27639,-0.82916) ==
 == 5-th k-point nmo = 44 (0.41458,0.41458,-0.96735) ==
 == 6-th k-point nmo = 44 (-0.13819,-0.41458,-0.13819) ==
 == 7-th k-point nmo = 44 (-0.00000,-0.27639,-0.27639) ==
 == 8-th k-point nmo = 44 (0.13819,-0.13819,-0.41458) ==
 == 9-th k-point nmo = 44 (0.27639,0.00000,-0.55277) ==
 == 10-th k-point nmo = 44 (0.41458,0.13819,-0.69096) ==
 == 11-th k-point nmo = 44 (0.55277,0.27639,-0.82916) ==
 == 12-th k-point nmo = 44 (-0.00000,-0.55277,-0.00000) ==
 == 13-th k-point nmo = 44 (0.13819,-0.41458,-0.13819) ==
 == 14-th k-point nmo = 45 (0.27639,-0.27639,-0.27639) ==
 == 15-th k-point nmo = 44 (0.41458,-0.13819,-0.41458) ==
 == 16-th k-point nmo = 44 (0.55277,0.00000,-0.55277) ==
 == 17-th k-point nmo = 44 (0.69096,0.13819,-0.69096) ==
 == 18-th k-point nmo = 44 (0.13819,-0.69096,0.13819) ==
 == 19-th k-point nmo = 44 (0.27639,-0.55277,-0.00000) ==
 == 20-th k-point nmo = 44 (0.41458,-0.41458,-0.13819) ==
 == 21-th k-point nmo = 44 (0.55277,-0.27639,-0.27639) ==
 == 22-th k-point nmo = 44 (0.69096,-0.13819,-0.41458) ==
 == 23-th k-point nmo = 44 (0.82916,0.00000,-0.55277) ==
 == 24-th k-point nmo = 44 (0.27639,-0.82916,0.27639) ==
 == 25-th k-point nmo = 44 (0.41458,-0.69096,0.13819) ==
 == 26-th k-point nmo = 44 (0.55277,-0.55277,-0.00000) ==
 == 27-th k-point nmo = 44 (0.69096,-0.41458,-0.13819) ==
 == 28-th k-point nmo = 44 (0.82916,-0.27639,-0.27639) ==
 == 29-th k-point nmo = 44 (0.96735,-0.13819,-0.41458) ==
 == 30-th k-point nmo = 44 (0.41458,-0.96735,0.41458) ==
 == 31-th k-point nmo = 44 (0.55277,-0.82916,0.27639) ==
 == 32-th k-point nmo = 44 (0.69096,-0.69096,0.13819) ==
 == 33-th k-point nmo = 44 (0.82916,-0.55277,-0.00000) ==
 == 34-th k-point nmo = 44 (0.96735,-0.41458,-0.13819) ==
 == 35-th k-point nmo = 44 (1.10554,-0.27639,-0.27639) ==
 == 36-th k-point nmo = 44 (-0.41458,-0.13819,-0.13819) ==
 == 37-th k-point nmo = 44 (-0.27639,0.00000,-0.27639) ==
 == 38-th k-point nmo = 44 (-0.13819,0.13819,-0.41458) ==
 == 39-th k-point nmo = 44 (-0.00000,0.27639,-0.55277) ==
 == 40-th k-point nmo = 44 (0.13819,0.41458,-0.69096) ==
 == 41-th k-point nmo = 44 (0.27639,0.55277,-0.82916) ==
 == 42-th k-point nmo = 44 (-0.27639,-0.27639,-0.00000) ==
 == 43-th k-point nmo = 45 (-0.13819,-0.13819,-0.13819) ==
 == 44-th k-point nmo = 44 (-0.00000,0.00000,-0.27639) ==
 == 45-th k-point nmo = 44 (0.13819,0.13819,-0.41458) ==
 == 46-th k-point nmo = 44 (0.27639,0.27639,-0.55277) ==
 == 47-th k-point nmo = 44 (0.41458,0.41458,-0.69096) ==
 == 48-th k-point nmo = 44 (-0.13819,-0.41458,0.13819) ==
 == 49-th k-point nmo = 44 (-0.00000,-0.27639,-0.00000) ==
 == 50-th k-point nmo = 45 (0.13819,-0.13819,-0.13819) ==
 == 51-th k-point nmo = 44 (0.27639,0.00000,-0.27639) ==
 == 52-th k-point nmo = 44 (0.41458,0.13819,-0.41458) ==
 == 53-th k-point nmo = 44 (0.55277,0.27639,-0.55277) ==
 == 54-th k-point nmo = 44 (0.00000,-0.55277,0.27639) ==
 == 55-th k-point nmo = 44 (0.13819,-0.41458,0.13819) ==
 == 56-th k-point nmo = 44 (0.27639,-0.27639,-0.00000) ==
 == 57-th k-point nmo = 44 (0.41458,-0.13819,-0.13819) ==
 == 58-th k-point nmo = 44 (0.55277,0.00000,-0.27639) ==
 == 59-th k-point nmo = 44 (0.69096,0.13819,-0.41458) ==
 == 60-th k-point nmo = 44 (0.13819,-0.69096,0.41458) ==
 == 61-th k-point nmo = 44 (0.27639,-0.55277,0.27639) ==
 == 62-th k-point nmo = 44 (0.41458,-0.41458,0.13819) ==
 == 63-th k-point nmo = 44 (0.55277,-0.27639,-0.00000) ==
 == 64-th k-point nmo = 44 (0.69096,-0.13819,-0.13819) ==
 == 65-th k-point nmo = 44 (0.82916,0.00000,-0.27639) ==
 == 66-th k-point nmo = 44 (0.27639,-0.82916,0.55277) ==
 == 67-th k-point nmo = 44 (0.41458,-0.69096,0.41458) ==
 == 68-th k-point nmo = 44 (0.55277,-0.55277,0.27639) ==
 == 69-th k-point nmo = 44 (0.69096,-0.41458,0.13819) ==
 == 70-th k-point nmo = 44 (0.82916,-0.27639,-0.00000) ==
 == 71-th k-point nmo = 44 (0.96735,-0.13819,-0.13819) ==
 == 72-th k-point nmo = 44 (-0.55277,0.00000,0.00000) ==
 == 73-th k-point nmo = 44 (-0.41458,0.13819,-0.13819) ==
 == 74-th k-point nmo = 45 (-0.27639,0.27639,-0.27639) ==
 == 75-th k-point nmo = 44 (-0.13819,0.41458,-0.41458) ==
 == 76-th k-point nmo = 44 (-0.00000,0.55277,-0.55277) ==
 == 77-th k-point nmo = 44 (0.13819,0.69096,-0.69096) ==
 == 78-th k-point nmo = 44 (-0.41458,-0.13819,0.13819) ==
 == 79-th k-point nmo = 44 (-0.27639,0.00000,0.00000) ==
 == 80-th k-point nmo = 45 (-0.13819,0.13819,-0.13819) ==
 == 81-th k-point nmo = 44 (-0.00000,0.27639,-0.27639) ==
 == 82-th k-point nmo = 44 (0.13819,0.41458,-0.41458) ==
 == 83-th k-point nmo = 44 (0.27639,0.55277,-0.55277) ==
 == 84-th k-point nmo = 45 (-0.27639,-0.27639,0.27639) ==
 == 85-th k-point nmo = 45 (-0.13819,-0.13819,0.13819) ==
 == 86-th k-point nmo = 41 (0.00000,0.00000,0.00000) ==
 == 87-th k-point nmo = 45 (0.13819,0.13819,-0.13819) ==
 == 88-th k-point nmo = 45 (0.27639,0.27639,-0.27639) ==
 == 89-th k-point nmo = 44 (0.41458,0.41458,-0.41458) ==
 == 90-th k-point nmo = 44 (-0.13819,-0.41458,0.41458) ==
 == 91-th k-point nmo = 44 (0.00000,-0.27639,0.27639) ==
 == 92-th k-point nmo = 45 (0.13819,-0.13819,0.13819) ==
 == 93-th k-point nmo = 44 (0.27639,-0.00000,0.00000) ==
 == 94-th k-point nmo = 44 (0.41458,0.13819,-0.13819) ==
 == 95-th k-point nmo = 44 (0.55277,0.27639,-0.27639) ==
 == 96-th k-point nmo = 44 (0.00000,-0.55277,0.55277) ==
 == 97-th k-point nmo = 44 (0.13819,-0.41458,0.41458) ==
 == 98-th k-point nmo = 45 (0.27639,-0.27639,0.27639) ==
 == 99-th k-point nmo = 44 (0.41458,-0.13819,0.13819) ==
 == 100-th k-point nmo = 44 (0.55277,-0.00000,0.00000) ==
 == 101-th k-point nmo = 44 (0.69096,0.13819,-0.13819) ==
 == 102-th k-point nmo = 44 (0.13819,-0.69096,0.69096) ==
 == 103-th k-point nmo = 44 (0.27639,-0.55277,0.55277) ==
 == 104-th k-point nmo = 44 (0.41458,-0.41458,0.41458) ==
 == 105-th k-point nmo = 44 (0.55277,-0.27639,0.27639) ==
 == 106-th k-point nmo = 44 (0.69096,-0.13819,0.13819) ==
 == 107-th k-point nmo = 44 (0.82916,-0.00000,0.00000) ==
 == 108-th k-point nmo = 44 (-0.69096,0.13819,0.13819) ==
 == 109-th k-point nmo = 44 (-0.55277,0.27639,0.00000) ==
 == 110-th k-point nmo = 44 (-0.41458,0.41458,-0.13819) ==
 == 111-th k-point nmo = 44 (-0.27639,0.55277,-0.27639) ==
 == 112-th k-point nmo = 44 (-0.13819,0.69096,-0.41458) ==
 == 113-th k-point nmo = 44 (-0.00000,0.82916,-0.55277) ==
 == 114-th k-point nmo = 44 (-0.55277,-0.00000,0.27639) ==
 == 115-th k-point nmo = 44 (-0.41458,0.13819,0.13819) ==
 == 116-th k-point nmo = 44 (-0.27639,0.27639,0.00000) ==
 == 117-th k-point nmo = 44 (-0.13819,0.41458,-0.13819) ==
 == 118-th k-point nmo = 44 (-0.00000,0.55277,-0.27639) ==
 == 119-th k-point nmo = 44 (0.13819,0.69096,-0.41458) ==
 == 120-th k-point nmo = 44 (-0.41458,-0.13819,0.41458) ==
 == 121-th k-point nmo = 44 (-0.27639,-0.00000,0.27639) ==
 == 122-th k-point nmo = 45 (-0.13819,0.13819,0.13819) ==
 == 123-th k-point nmo = 44 (0.00000,0.27639,0.00000) ==
 == 124-th k-point nmo = 44 (0.13819,0.41458,-0.13819) ==
 == 125-th k-point nmo = 44 (0.27639,0.55277,-0.27639) ==
 == 126-th k-point nmo = 44 (-0.27639,-0.27639,0.55277) ==
 == 127-th k-point nmo = 44 (-0.13819,-0.13819,0.41458) ==
 == 128-th k-point nmo = 44 (0.00000,-0.00000,0.27639) ==
 == 129-th k-point nmo = 45 (0.13819,0.13819,0.13819) ==
 == 130-th k-point nmo = 44 (0.27639,0.27639,0.00000) ==
 == 131-th k-point nmo = 44 (0.41458,0.41458,-0.13819) ==
 == 132-th k-point nmo = 44 (-0.13819,-0.41458,0.69096) ==
 == 133-th k-point nmo = 44 (0.00000,-0.27639,0.55277) ==
 == 134-th k-point nmo = 44 (0.13819,-0.13819,0.41458) ==
 == 135-th k-point nmo = 44 (0.27639,-0.00000,0.27639) ==
 == 136-th k-point nmo = 44 (0.41458,0.13819,0.13819) ==
 == 137-th k-point nmo = 44 (0.55277,0.27639,0.00000) ==
 == 138-th k-point nmo = 44 (0.00000,-0.55277,0.82916) ==
 == 139-th k-point nmo = 44 (0.13819,-0.41458,0.69096) ==
 == 140-th k-point nmo = 44 (0.27639,-0.27639,0.55277) ==
 == 141-th k-point nmo = 44 (0.41458,-0.13819,0.41458) ==
 == 142-th k-point nmo = 44 (0.55277,-0.00000,0.27639) ==
 == 143-th k-point nmo = 44 (0.69096,0.13819,0.13819) ==
 == 144-th k-point nmo = 44 (-0.82916,0.27639,0.27639) ==
 == 145-th k-point nmo = 44 (-0.69096,0.41458,0.13819) ==
 == 146-th k-point nmo = 44 (-0.55277,0.55277,0.00000) ==
 == 147-th k-point nmo = 44 (-0.41458,0.69096,-0.13819) ==
 == 148-th k-point nmo = 44 (-0.27639,0.82916,-0.27639) ==
 == 149-th k-point nmo = 44 (-0.13819,0.96735,-0.41458) ==
 == 150-th k-point nmo = 44 (-0.69096,0.13819,0.41458) ==
 == 151-th k-point nmo = 44 (-0.55277,0.27639,0.27639) ==
 == 152-th k-point nmo = 44 (-0.41458,0.41458,0.13819) ==
 == 153-th k-point nmo = 44 (-0.27639,0.55277,0.00000) ==
 == 154-th k-point nmo = 44 (-0.13819,0.69096,-0.13819) ==
 == 155-th k-point nmo = 44 (0.00000,0.82916,-0.27639) ==
 == 156-th k-point nmo = 44 (-0.55277,-0.00000,0.55277) ==
 == 157-th k-point nmo = 44 (-0.41458,0.13819,0.41458) ==
 == 158-th k-point nmo = 45 (-0.27639,0.27639,0.27639) ==
 == 159-th k-point nmo = 44 (-0.13819,0.41458,0.13819) ==
 == 160-th k-point nmo = 44 (0.00000,0.55277,0.00000) ==
 == 161-th k-point nmo = 44 (0.13819,0.69096,-0.13819) ==
 == 162-th k-point nmo = 44 (-0.41458,-0.13819,0.69096) ==
 == 163-th k-point nmo = 44 (-0.27639,-0.00000,0.55277) ==
 == 164-th k-point nmo = 44 (-0.13819,0.13819,0.41458) ==
 == 165-th k-point nmo = 44 (0.00000,0.27639,0.27639) ==
 == 166-th k-point nmo = 44 (0.13819,0.41458,0.13819) ==
 == 167-th k-point nmo = 44 (0.27639,0.55277,0.00000) ==
 == 168-th k-point nmo = 44 (-0.27639,-0.27639,0.82916) ==
 == 169-th k-point nmo = 44 (-0.13819,-0.13819,0.69096) ==
 == 170-th k-point nmo = 44 (0.00000,-0.00000,0.55277) ==
 == 171-th k-point nmo = 44 (0.13819,0.13819,0.41458) ==
 == 172-th k-point nmo = 45 (0.27639,0.27639,0.27639) ==
 == 173-th k-point nmo = 44 (0.41458,0.41458,0.13819) ==
 == 174-th k-point nmo = 44 (-0.13819,-0.41458,0.96735) ==
 == 175-th k-point nmo = 44 (0.00000,-0.27639,0.82916) ==
 == 176-th k-point nmo = 44 (0.13819,-0.13819,0.69096) ==
 == 177-th k-point nmo = 44 (0.27639,-0.00000,0.55277) ==
 == 178-th k-point nmo = 44 (0.41458,0.13819,0.41458) ==
 == 179-th k-point nmo = 44 (0.55277,0.27639,0.27639) ==
 == 180-th k-point nmo = 44 (-0.96735,0.41458,0.41458) ==
 == 181-th k-point nmo = 44 (-0.82916,0.55277,0.27639) ==
 == 182-th k-point nmo = 44 (-0.69096,0.69096,0.13819) ==
 == 183-th k-point nmo = 44 (-0.55277,0.82916,0.00000) ==
 == 184-th k-point nmo = 44 (-0.41458,0.96735,-0.13819) ==
 == 185-th k-point nmo = 44 (-0.27639,1.10554,-0.27639) ==
 == 186-th k-point nmo = 44 (-0.82916,0.27639,0.55277) ==
 == 187-th k-point nmo = 44 (-0.69096,0.41458,0.41458) ==
 == 188-th k-point nmo = 44 (-0.55277,0.55277,0.27639) ==
 == 189-th k-point nmo = 44 (-0.41458,0.69096,0.13819) ==
 == 190-th k-point nmo = 44 (-0.27639,0.82916,0.00000) ==
 == 191-th k-point nmo = 44 (-0.13819,0.96735,-0.13819) ==
 == 192-th k-point nmo = 44 (-0.69096,0.13819,0.69096) ==
 == 193-th k-point nmo = 44 (-0.55277,0.27639,0.55277) ==
 == 194-th k-point nmo = 44 (-0.41458,0.41458,0.41458) ==
 == 195-th k-point nmo = 44 (-0.27639,0.55277,0.27639) ==
 == 196-th k-point nmo = 44 (-0.13819,0.69096,0.13819) ==
 == 197-th k-point nmo = 44 (0.00000,0.82916,0.00000) ==
 == 198-th k-point nmo = 44 (-0.55277,-0.00000,0.82916) ==
 == 199-th k-point nmo = 44 (-0.41458,0.13819,0.69096) ==
 == 200-th k-point nmo = 44 (-0.27639,0.27639,0.55277) ==
 == 201-th k-point nmo = 44 (-0.13819,0.41458,0.41458) ==
 == 202-th k-point nmo = 44 (0.00000,0.55277,0.27639) ==
 == 203-th k-point nmo = 44 (0.13819,0.69096,0.13819) ==
 == 204-th k-point nmo = 44 (-0.41458,-0.13819,0.96735) ==
 == 205-th k-point nmo = 44 (-0.27639,-0.00000,0.82916) ==
 == 206-th k-point nmo = 44 (-0.13819,0.13819,0.69096) ==
 == 207-th k-point nmo = 44 (0.00000,0.27639,0.55277) ==
 == 208-th k-point nmo = 44 (0.13819,0.41458,0.41458) ==
 == 209-th k-point nmo = 44 (0.27639,0.55277,0.27639) ==
 == 210-th k-point nmo = 44 (-0.27639,-0.27639,1.10554) ==
 == 211-th k-point nmo = 44 (-0.13819,-0.13819,0.96735) ==
 == 212-th k-point nmo = 44 (0.00000,-0.00000,0.82916) ==
 == 213-th k-point nmo = 44 (0.13819,0.13819,0.69096) ==
 == 214-th k-point nmo = 44 (0.27639,0.27639,0.55277) ==
 == 215-th k-point nmo = 44 (0.41458,0.41458,0.41458) ==

 Generate autoSAD guess
backing up fragment data
Atom # 0: li, charge: 0, multiplicity: 2.000000
Atom # 1: f, charge: 0, multiplicity: 2.000000
writing autosad to fragment context
Settings for isolated fragments: 
  frgm_gamma: TRUE
  frgm_center: FALSE

    Running SCF for isolated atom #0
    Fragment Input file: /n/netscratch/joonholee_lab/Lab/hieudinh//lif_solve_def2tzvp_omega_0.3_666.scratch20250909003606/autosad_frgmt_0/frgmt_input.in
    Fragment Output file: /n/netscratch/joonholee_lab/Lab/hieudinh//lif_solve_def2tzvp_omega_0.3_666.scratch20250909003606/autosad_frgmt_0/frgmt_job.out
    Fragment job begins at Tue Sep  9 00:36:18 2025

 Integrated density by DFT XC:
   Numerical integral  =     2.999999993509
   Relative error      =     0.0000002164 %
Final energy components:
 DFT Correlation            Energy =  -0.05092434039942
 DFT Exchange               Energy =  -1.75140723515056
 Kinetic (alpha)            Energy =   3.83066744044889
 Kinetic (beta)             Energy =   3.58623083148463
 Nuclear Attraction (alpha) Energy =  -9.10958889983069
 Nuclear Attraction (beta)  Energy =  -8.02018991527131
 Nuclear Repulsion          Energy =   0.00000000000000
 SEOQF                      Energy =  -0.00000000000000
 Total Coulomb              Energy =   4.05329323490599
----------------------------------------------
    SCF Energy: -7.4619188838
   Total fragment job time:  0.41 s.
    Running SCF for isolated atom #1
    Fragment Input file: /n/netscratch/joonholee_lab/Lab/hieudinh//lif_solve_def2tzvp_omega_0.3_666.scratch20250909003606/autosad_frgmt_1/frgmt_input.in
    Fragment Output file: /n/netscratch/joonholee_lab/Lab/hieudinh//lif_solve_def2tzvp_omega_0.3_666.scratch20250909003606/autosad_frgmt_1/frgmt_job.out
    Fragment job begins at Tue Sep  9 00:36:19 2025

 Integrated density by DFT XC:
   Numerical integral  =     9.000000032991
   Relative error      =     0.0000003666 %
Final energy components:
 DFT Correlation            Energy =  -0.29005331125227
 DFT Exchange               Energy =  -9.97682915393220
 Kinetic (alpha)            Energy =  51.55991484248809
 Kinetic (beta)             Energy =  47.86189754389155
 Nuclear Attraction (alpha) Energy = -125.32369696155517
 Nuclear Attraction (beta)  Energy = -113.23357709834445
 Nuclear Repulsion          Energy =   0.00000000000000
 SEOQF                      Energy =  -0.00000000020384
 Total Coulomb              Energy =  49.73321880799708
----------------------------------------------
    SCF Energy: -99.6691253309
   Total fragment job time:  0.59 s.
restoring fragment data

 ------------------------------------------------------------------------
 Allocate 56155536 B from available memory: 104850467104 B
 Time for generating SCF guess: 1.04 s

 Allocate 264964 B from available memory: 104794311584 B
 Selected algorithms for each term:
  kpts_kinetic -> @0x152d49b4e680
  kpts_nn -> @0x152d49b4e800
  kpts_rij_bigmem -> @0x152d49b4e3e0
  kpts_vnuc_df -> @0x152d49b4e380
  kpts_xc -> @0x152d49b4e2c0
 Time for computing kinetic matrix is 10.35 s
Start calculating Vnuc DD type!
Start calculating Vnuc CD type!
Start calculating Vnuc CC type!
 Time for computing nuclear attraction matrix is 20.34 s
Compute (P|Q) and use solve on the fly!
Maximum distance between P and Q is 37.07317869796985
Number of images for (P|Qn) is 3451
 Time for computing 2e2c SR integral is 0.16 s
Maximum dynamic memory per thread for 2e3c SR integrals: 0.005 GiB
Batch size for basis function pair is 44 out of 44
 === bvk cell = 0 has 100.000 % of the basis function pairs === 
 === bvk cell = 1 has 100.000 % of the basis function pairs === 
 === bvk cell = 2 has 100.000 % of the basis function pairs === 
 === bvk cell = 3 has 100.000 % of the basis function pairs === 
 === bvk cell = 4 has 100.000 % of the basis function pairs === 
 === bvk cell = 5 has 100.000 % of the basis function pairs === 
 === bvk cell = 6 has 100.000 % of the basis function pairs === 
 === bvk cell = 7 has 100.000 % of the basis function pairs === 
 === bvk cell = 8 has 100.000 % of the basis function pairs === 
 === bvk cell = 9 has 100.000 % of the basis function pairs === 
 === bvk cell = 10 has 100.000 % of the basis function pairs === 
 === bvk cell = 11 has 100.000 % of the basis function pairs === 
 === bvk cell = 12 has 100.000 % of the basis function pairs === 
 === bvk cell = 13 has 100.000 % of the basis function pairs === 
 === bvk cell = 14 has 100.000 % of the basis function pairs === 
 === bvk cell = 15 has 100.000 % of the basis function pairs === 
 === bvk cell = 16 has 100.000 % of the basis function pairs === 
 === bvk cell = 17 has 100.000 % of the basis function pairs === 
 === bvk cell = 18 has 100.000 % of the basis function pairs === 
 === bvk cell = 19 has 100.000 % of the basis function pairs === 
 === bvk cell = 20 has 100.000 % of the basis function pairs === 
 === bvk cell = 21 has 100.000 % of the basis function pairs === 
 === bvk cell = 22 has 100.000 % of the basis function pairs === 
 === bvk cell = 23 has 100.000 % of the basis function pairs === 
 === bvk cell = 24 has 100.000 % of the basis function pairs === 
 === bvk cell = 25 has 100.000 % of the basis function pairs === 
 === bvk cell = 26 has 100.000 % of the basis function pairs === 
 === bvk cell = 27 has 100.000 % of the basis function pairs === 
 === bvk cell = 28 has 100.000 % of the basis function pairs === 
 === bvk cell = 29 has 100.000 % of the basis function pairs === 
 === bvk cell = 30 has 100.000 % of the basis function pairs === 
 === bvk cell = 31 has 100.000 % of the basis function pairs === 
 === bvk cell = 32 has 100.000 % of the basis function pairs === 
 === bvk cell = 33 has 100.000 % of the basis function pairs === 
 === bvk cell = 34 has 100.000 % of the basis function pairs === 
 === bvk cell = 35 has 100.000 % of the basis function pairs === 
 === bvk cell = 36 has 100.000 % of the basis function pairs === 
 === bvk cell = 37 has 100.000 % of the basis function pairs === 
 === bvk cell = 38 has 100.000 % of the basis function pairs === 
 === bvk cell = 39 has 100.000 % of the basis function pairs === 
 === bvk cell = 40 has 100.000 % of the basis function pairs === 
 === bvk cell = 41 has 100.000 % of the basis function pairs === 
 === bvk cell = 42 has 100.000 % of the basis function pairs === 
 === bvk cell = 43 has 100.000 % of the basis function pairs === 
 === bvk cell = 44 has 100.000 % of the basis function pairs === 
 === bvk cell = 45 has 100.000 % of the basis function pairs === 
 === bvk cell = 46 has 100.000 % of the basis function pairs === 
 === bvk cell = 47 has 100.000 % of the basis function pairs === 
 === bvk cell = 48 has 100.000 % of the basis function pairs === 
 === bvk cell = 49 has 100.000 % of the basis function pairs === 
 === bvk cell = 50 has 100.000 % of the basis function pairs === 
 === bvk cell = 51 has 100.000 % of the basis function pairs === 
 === bvk cell = 52 has 100.000 % of the basis function pairs === 
 === bvk cell = 53 has 100.000 % of the basis function pairs === 
 === bvk cell = 54 has 100.000 % of the basis function pairs === 
 === bvk cell = 55 has 100.000 % of the basis function pairs === 
 === bvk cell = 56 has 100.000 % of the basis function pairs === 
 === bvk cell = 57 has 100.000 % of the basis function pairs === 
 === bvk cell = 58 has 100.000 % of the basis function pairs === 
 === bvk cell = 59 has 100.000 % of the basis function pairs === 
 === bvk cell = 60 has 100.000 % of the basis function pairs === 
 === bvk cell = 61 has 100.000 % of the basis function pairs === 
 === bvk cell = 62 has 100.000 % of the basis function pairs === 
 === bvk cell = 63 has 100.000 % of the basis function pairs === 
 === bvk cell = 64 has 100.000 % of the basis function pairs === 
 === bvk cell = 65 has 100.000 % of the basis function pairs === 
 === bvk cell = 66 has 100.000 % of the basis function pairs === 
 === bvk cell = 67 has 100.000 % of the basis function pairs === 
 === bvk cell = 68 has 100.000 % of the basis function pairs === 
 === bvk cell = 69 has 100.000 % of the basis function pairs === 
 === bvk cell = 70 has 100.000 % of the basis function pairs === 
 === bvk cell = 71 has 100.000 % of the basis function pairs === 
 === bvk cell = 72 has 100.000 % of the basis function pairs === 
 === bvk cell = 73 has 100.000 % of the basis function pairs === 
 === bvk cell = 74 has 100.000 % of the basis function pairs === 
 === bvk cell = 75 has 100.000 % of the basis function pairs === 
 === bvk cell = 76 has 100.000 % of the basis function pairs === 
 === bvk cell = 77 has 100.000 % of the basis function pairs === 
 === bvk cell = 78 has 100.000 % of the basis function pairs === 
 === bvk cell = 79 has 100.000 % of the basis function pairs === 
 === bvk cell = 80 has 100.000 % of the basis function pairs === 
 === bvk cell = 81 has 100.000 % of the basis function pairs === 
 === bvk cell = 82 has 100.000 % of the basis function pairs === 
 === bvk cell = 83 has 100.000 % of the basis function pairs === 
 === bvk cell = 84 has 100.000 % of the basis function pairs === 
 === bvk cell = 85 has 100.000 % of the basis function pairs === 
 === bvk cell = 86 has 100.000 % of the basis function pairs === 
 === bvk cell = 87 has 100.000 % of the basis function pairs === 
 === bvk cell = 88 has 100.000 % of the basis function pairs === 
 === bvk cell = 89 has 100.000 % of the basis function pairs === 
 === bvk cell = 90 has 100.000 % of the basis function pairs === 
 === bvk cell = 91 has 100.000 % of the basis function pairs === 
 === bvk cell = 92 has 100.000 % of the basis function pairs === 
 === bvk cell = 93 has 100.000 % of the basis function pairs === 
 === bvk cell = 94 has 100.000 % of the basis function pairs === 
 === bvk cell = 95 has 100.000 % of the basis function pairs === 
 === bvk cell = 96 has 100.000 % of the basis function pairs === 
 === bvk cell = 97 has 100.000 % of the basis function pairs === 
 === bvk cell = 98 has 100.000 % of the basis function pairs === 
 === bvk cell = 99 has 100.000 % of the basis function pairs === 
 === bvk cell = 100 has 100.000 % of the basis function pairs === 
 === bvk cell = 101 has 100.000 % of the basis function pairs === 
 === bvk cell = 102 has 100.000 % of the basis function pairs === 
 === bvk cell = 103 has 100.000 % of the basis function pairs === 
 === bvk cell = 104 has 100.000 % of the basis function pairs === 
 === bvk cell = 105 has 100.000 % of the basis function pairs === 
 === bvk cell = 106 has 100.000 % of the basis function pairs === 
 === bvk cell = 107 has 100.000 % of the basis function pairs === 
 === bvk cell = 108 has 100.000 % of the basis function pairs === 
 === bvk cell = 109 has 100.000 % of the basis function pairs === 
 === bvk cell = 110 has 100.000 % of the basis function pairs === 
 === bvk cell = 111 has 100.000 % of the basis function pairs === 
 === bvk cell = 112 has 100.000 % of the basis function pairs === 
 === bvk cell = 113 has 100.000 % of the basis function pairs === 
 === bvk cell = 114 has 100.000 % of the basis function pairs === 
 === bvk cell = 115 has 100.000 % of the basis function pairs === 
 === bvk cell = 116 has 100.000 % of the basis function pairs === 
 === bvk cell = 117 has 100.000 % of the basis function pairs === 
 === bvk cell = 118 has 100.000 % of the basis function pairs === 
 === bvk cell = 119 has 100.000 % of the basis function pairs === 
 === bvk cell = 120 has 100.000 % of the basis function pairs === 
 === bvk cell = 121 has 100.000 % of the basis function pairs === 
 === bvk cell = 122 has 100.000 % of the basis function pairs === 
 === bvk cell = 123 has 100.000 % of the basis function pairs === 
 === bvk cell = 124 has 100.000 % of the basis function pairs === 
 === bvk cell = 125 has 100.000 % of the basis function pairs === 
 === bvk cell = 126 has 100.000 % of the basis function pairs === 
 === bvk cell = 127 has 100.000 % of the basis function pairs === 
 === bvk cell = 128 has 100.000 % of the basis function pairs === 
 === bvk cell = 129 has 100.000 % of the basis function pairs === 
 === bvk cell = 130 has 100.000 % of the basis function pairs === 
 === bvk cell = 131 has 100.000 % of the basis function pairs === 
 === bvk cell = 132 has 100.000 % of the basis function pairs === 
 === bvk cell = 133 has 100.000 % of the basis function pairs === 
 === bvk cell = 134 has 100.000 % of the basis function pairs === 
 === bvk cell = 135 has 100.000 % of the basis function pairs === 
 === bvk cell = 136 has 100.000 % of the basis function pairs === 
 === bvk cell = 137 has 100.000 % of the basis function pairs === 
 === bvk cell = 138 has 100.000 % of the basis function pairs === 
 === bvk cell = 139 has 100.000 % of the basis function pairs === 
 === bvk cell = 140 has 100.000 % of the basis function pairs === 
 === bvk cell = 141 has 100.000 % of the basis function pairs === 
 === bvk cell = 142 has 100.000 % of the basis function pairs === 
 === bvk cell = 143 has 100.000 % of the basis function pairs === 
 === bvk cell = 144 has 100.000 % of the basis function pairs === 
 === bvk cell = 145 has 100.000 % of the basis function pairs === 
 === bvk cell = 146 has 100.000 % of the basis function pairs === 
 === bvk cell = 147 has 100.000 % of the basis function pairs === 
 === bvk cell = 148 has 100.000 % of the basis function pairs === 
 === bvk cell = 149 has 100.000 % of the basis function pairs === 
 === bvk cell = 150 has 100.000 % of the basis function pairs === 
 === bvk cell = 151 has 100.000 % of the basis function pairs === 
 === bvk cell = 152 has 100.000 % of the basis function pairs === 
 === bvk cell = 153 has 100.000 % of the basis function pairs === 
 === bvk cell = 154 has 100.000 % of the basis function pairs === 
 === bvk cell = 155 has 100.000 % of the basis function pairs === 
 === bvk cell = 156 has 100.000 % of the basis function pairs === 
 === bvk cell = 157 has 100.000 % of the basis function pairs === 
 === bvk cell = 158 has 100.000 % of the basis function pairs === 
 === bvk cell = 159 has 100.000 % of the basis function pairs === 
 === bvk cell = 160 has 100.000 % of the basis function pairs === 
 === bvk cell = 161 has 100.000 % of the basis function pairs === 
 === bvk cell = 162 has 100.000 % of the basis function pairs === 
 === bvk cell = 163 has 100.000 % of the basis function pairs === 
 === bvk cell = 164 has 100.000 % of the basis function pairs === 
 === bvk cell = 165 has 100.000 % of the basis function pairs === 
 === bvk cell = 166 has 100.000 % of the basis function pairs === 
 === bvk cell = 167 has 100.000 % of the basis function pairs === 
 === bvk cell = 168 has 100.000 % of the basis function pairs === 
 === bvk cell = 169 has 100.000 % of the basis function pairs === 
 === bvk cell = 170 has 100.000 % of the basis function pairs === 
 === bvk cell = 171 has 100.000 % of the basis function pairs === 
 === bvk cell = 172 has 100.000 % of the basis function pairs === 
 === bvk cell = 173 has 100.000 % of the basis function pairs === 
 === bvk cell = 174 has 100.000 % of the basis function pairs === 
 === bvk cell = 175 has 100.000 % of the basis function pairs === 
 === bvk cell = 176 has 100.000 % of the basis function pairs === 
 === bvk cell = 177 has 100.000 % of the basis function pairs === 
 === bvk cell = 178 has 100.000 % of the basis function pairs === 
 === bvk cell = 179 has 100.000 % of the basis function pairs === 
 === bvk cell = 180 has 100.000 % of the basis function pairs === 
 === bvk cell = 181 has 100.000 % of the basis function pairs === 
 === bvk cell = 182 has 100.000 % of the basis function pairs === 
 === bvk cell = 183 has 100.000 % of the basis function pairs === 
 === bvk cell = 184 has 100.000 % of the basis function pairs === 
 === bvk cell = 185 has 100.000 % of the basis function pairs === 
 === bvk cell = 186 has 100.000 % of the basis function pairs === 
 === bvk cell = 187 has 100.000 % of the basis function pairs === 
 === bvk cell = 188 has 100.000 % of the basis function pairs === 
 === bvk cell = 189 has 100.000 % of the basis function pairs === 
 === bvk cell = 190 has 100.000 % of the basis function pairs === 
 === bvk cell = 191 has 100.000 % of the basis function pairs === 
 === bvk cell = 192 has 100.000 % of the basis function pairs === 
 === bvk cell = 193 has 100.000 % of the basis function pairs === 
 === bvk cell = 194 has 100.000 % of the basis function pairs === 
 === bvk cell = 195 has 100.000 % of the basis function pairs === 
 === bvk cell = 196 has 100.000 % of the basis function pairs === 
 === bvk cell = 197 has 100.000 % of the basis function pairs === 
 === bvk cell = 198 has 100.000 % of the basis function pairs === 
 === bvk cell = 199 has 100.000 % of the basis function pairs === 
 === bvk cell = 200 has 100.000 % of the basis function pairs === 
 === bvk cell = 201 has 100.000 % of the basis function pairs === 
 === bvk cell = 202 has 100.000 % of the basis function pairs === 
 === bvk cell = 203 has 100.000 % of the basis function pairs === 
 === bvk cell = 204 has 100.000 % of the basis function pairs === 
 === bvk cell = 205 has 100.000 % of the basis function pairs === 
 === bvk cell = 206 has 100.000 % of the basis function pairs === 
 === bvk cell = 207 has 100.000 % of the basis function pairs === 
 === bvk cell = 208 has 100.000 % of the basis function pairs === 
 === bvk cell = 209 has 100.000 % of the basis function pairs === 
 === bvk cell = 210 has 100.000 % of the basis function pairs === 
 === bvk cell = 211 has 100.000 % of the basis function pairs === 
 === bvk cell = 212 has 100.000 % of the basis function pairs === 
 === bvk cell = 213 has 100.000 % of the basis function pairs === 
 === bvk cell = 214 has 100.000 % of the basis function pairs === 
 === bvk cell = 215 has 100.000 % of the basis function pairs === 
Static memory requirement for 2e3c SR integrals: 0.007 GB
There are 1 munu batches for computing 2e3c SR integrals with latsum
There are 2 Q batches for computing 2e3c SR integrals with latsum
 Time for computing 2e3c SR integral (CD) is 1.06 s
Maximum dynamic memory per thread for 2e3c SR integrals: 0.031 GiB
Batch size for basis function pair is 1044 out of 1044
 === bvk cell = 0 has 100.000 % of the basis function pairs === 
 === bvk cell = 1 has 92.146 % of the basis function pairs === 
 === bvk cell = 2 has 41.667 % of the basis function pairs === 
 === bvk cell = 3 has 18.870 % of the basis function pairs === 
 === bvk cell = 4 has 32.280 % of the basis function pairs === 
 === bvk cell = 5 has 81.322 % of the basis function pairs === 
 === bvk cell = 6 has 92.146 % of the basis function pairs === 
 === bvk cell = 7 has 49.425 % of the basis function pairs === 
 === bvk cell = 8 has 20.690 % of the basis function pairs === 
 === bvk cell = 9 has 18.103 % of the basis function pairs === 
 === bvk cell = 10 has 36.877 % of the basis function pairs === 
 === bvk cell = 11 has 85.632 % of the basis function pairs === 
 === bvk cell = 12 has 41.667 % of the basis function pairs === 
 === bvk cell = 13 has 20.690 % of the basis function pairs === 
 === bvk cell = 14 has 16.571 % of the basis function pairs === 
 === bvk cell = 15 has 18.103 % of the basis function pairs === 
 === bvk cell = 16 has 32.854 % of the basis function pairs === 
 === bvk cell = 17 has 44.828 % of the basis function pairs === 
 === bvk cell = 18 has 18.870 % of the basis function pairs === 
 === bvk cell = 19 has 18.103 % of the basis function pairs === 
 === bvk cell = 20 has 18.103 % of the basis function pairs === 
 === bvk cell = 21 has 17.433 % of the basis function pairs === 
 === bvk cell = 22 has 18.966 % of the basis function pairs === 
 === bvk cell = 23 has 20.211 % of the basis function pairs === 
 === bvk cell = 24 has 32.280 % of the basis function pairs === 
 === bvk cell = 25 has 36.877 % of the basis function pairs === 
 === bvk cell = 26 has 32.854 % of the basis function pairs === 
 === bvk cell = 27 has 18.966 % of the basis function pairs === 
 === bvk cell = 28 has 16.571 % of the basis function pairs === 
 === bvk cell = 29 has 18.391 % of the basis function pairs === 
 === bvk cell = 30 has 81.322 % of the basis function pairs === 
 === bvk cell = 31 has 85.632 % of the basis function pairs === 
 === bvk cell = 32 has 44.828 % of the basis function pairs === 
 === bvk cell = 33 has 20.211 % of the basis function pairs === 
 === bvk cell = 34 has 18.391 % of the basis function pairs === 
 === bvk cell = 35 has 36.686 % of the basis function pairs === 
 === bvk cell = 36 has 85.632 % of the basis function pairs === 
 === bvk cell = 37 has 44.828 % of the basis function pairs === 
 === bvk cell = 38 has 20.211 % of the basis function pairs === 
 === bvk cell = 39 has 18.391 % of the basis function pairs === 
 === bvk cell = 40 has 36.686 % of the basis function pairs === 
 === bvk cell = 41 has 81.322 % of the basis function pairs === 
 === bvk cell = 42 has 44.828 % of the basis function pairs === 
 === bvk cell = 43 has 23.659 % of the basis function pairs === 
 === bvk cell = 44 has 16.571 % of the basis function pairs === 
 === bvk cell = 45 has 21.360 % of the basis function pairs === 
 === bvk cell = 46 has 36.877 % of the basis function pairs === 
 === bvk cell = 47 has 60.536 % of the basis function pairs === 
 === bvk cell = 48 has 20.211 % of the basis function pairs === 
 === bvk cell = 49 has 16.571 % of the basis function pairs === 
 === bvk cell = 50 has 16.571 % of the basis function pairs === 
 === bvk cell = 51 has 18.103 % of the basis function pairs === 
 === bvk cell = 52 has 31.513 % of the basis function pairs === 
 === bvk cell = 53 has 31.992 % of the basis function pairs === 
 === bvk cell = 54 has 18.391 % of the basis function pairs === 
 === bvk cell = 55 has 21.360 % of the basis function pairs === 
 === bvk cell = 56 has 18.103 % of the basis function pairs === 
 === bvk cell = 57 has 16.571 % of the basis function pairs === 
 === bvk cell = 58 has 17.433 % of the basis function pairs === 
 === bvk cell = 59 has 16.858 % of the basis function pairs === 
 === bvk cell = 60 has 36.686 % of the basis function pairs === 
 === bvk cell = 61 has 36.877 % of the basis function pairs === 
 === bvk cell = 62 has 31.513 % of the basis function pairs === 
 === bvk cell = 63 has 17.433 % of the basis function pairs === 
 === bvk cell = 64 has 17.720 % of the basis function pairs === 
 === bvk cell = 65 has 30.556 % of the basis function pairs === 
 === bvk cell = 66 has 81.322 % of the basis function pairs === 
 === bvk cell = 67 has 60.536 % of the basis function pairs === 
 === bvk cell = 68 has 31.992 % of the basis function pairs === 
 === bvk cell = 69 has 16.858 % of the basis function pairs === 
 === bvk cell = 70 has 30.556 % of the basis function pairs === 
 === bvk cell = 71 has 52.299 % of the basis function pairs === 
 === bvk cell = 72 has 32.854 % of the basis function pairs === 
 === bvk cell = 73 has 18.966 % of the basis function pairs === 
 === bvk cell = 74 has 16.571 % of the basis function pairs === 
 === bvk cell = 75 has 18.391 % of the basis function pairs === 
 === bvk cell = 76 has 32.280 % of the basis function pairs === 
 === bvk cell = 77 has 36.877 % of the basis function pairs === 
 === bvk cell = 78 has 18.966 % of the basis function pairs === 
 === bvk cell = 79 has 16.571 % of the basis function pairs === 
 === bvk cell = 80 has 16.571 % of the basis function pairs === 
 === bvk cell = 81 has 18.103 % of the basis function pairs === 
 === bvk cell = 82 has 30.556 % of the basis function pairs === 
 === bvk cell = 83 has 31.513 % of the basis function pairs === 
 === bvk cell = 84 has 16.571 % of the basis function pairs === 
 === bvk cell = 85 has 16.571 % of the basis function pairs === 
 === bvk cell = 86 has 16.571 % of the basis function pairs === 
 === bvk cell = 87 has 17.433 % of the basis function pairs === 
 === bvk cell = 88 has 17.816 % of the basis function pairs === 
 === bvk cell = 89 has 17.433 % of the basis function pairs === 
 === bvk cell = 90 has 18.391 % of the basis function pairs === 
 === bvk cell = 91 has 18.103 % of the basis function pairs === 
 === bvk cell = 92 has 17.433 % of the basis function pairs === 
 === bvk cell = 93 has 16.571 % of the basis function pairs === 
 === bvk cell = 94 has 16.571 % of the basis function pairs === 
 === bvk cell = 95 has 17.720 % of the basis function pairs === 
 === bvk cell = 96 has 32.280 % of the basis function pairs === 
 === bvk cell = 97 has 30.556 % of the basis function pairs === 
 === bvk cell = 98 has 17.816 % of the basis function pairs === 
 === bvk cell = 99 has 16.571 % of the basis function pairs === 
 === bvk cell = 100 has 18.391 % of the basis function pairs === 
 === bvk cell = 101 has 30.556 % of the basis function pairs === 
 === bvk cell = 102 has 36.877 % of the basis function pairs === 
 === bvk cell = 103 has 31.513 % of the basis function pairs === 
 === bvk cell = 104 has 17.433 % of the basis function pairs === 
 === bvk cell = 105 has 17.720 % of the basis function pairs === 
 === bvk cell = 106 has 30.556 % of the basis function pairs === 
 === bvk cell = 107 has 36.686 % of the basis function pairs === 
 === bvk cell = 108 has 17.433 % of the basis function pairs === 
 === bvk cell = 109 has 18.966 % of the basis function pairs === 
 === bvk cell = 110 has 20.211 % of the basis function pairs === 
 === bvk cell = 111 has 18.870 % of the basis function pairs === 
 === bvk cell = 112 has 18.103 % of the basis function pairs === 
 === bvk cell = 113 has 18.103 % of the basis function pairs === 
 === bvk cell = 114 has 18.966 % of the basis function pairs === 
 === bvk cell = 115 has 23.659 % of the basis function pairs === 
 === bvk cell = 116 has 20.690 % of the basis function pairs === 
 === bvk cell = 117 has 17.720 % of the basis function pairs === 
 === bvk cell = 118 has 17.433 % of the basis function pairs === 
 === bvk cell = 119 has 16.571 % of the basis function pairs === 
 === bvk cell = 120 has 20.211 % of the basis function pairs === 
 === bvk cell = 121 has 20.690 % of the basis function pairs === 
 === bvk cell = 122 has 19.828 % of the basis function pairs === 
 === bvk cell = 123 has 16.571 % of the basis function pairs === 
 === bvk cell = 124 has 16.571 % of the basis function pairs === 
 === bvk cell = 125 has 17.433 % of the basis function pairs === 
 === bvk cell = 126 has 18.870 % of the basis function pairs === 
 === bvk cell = 127 has 17.720 % of the basis function pairs === 
 === bvk cell = 128 has 16.571 % of the basis function pairs === 
 === bvk cell = 129 has 15.134 % of the basis function pairs === 
 === bvk cell = 130 has 16.571 % of the basis function pairs === 
 === bvk cell = 131 has 16.858 % of the basis function pairs === 
 === bvk cell = 132 has 18.103 % of the basis function pairs === 
 === bvk cell = 133 has 17.433 % of the basis function pairs === 
 === bvk cell = 134 has 16.571 % of the basis function pairs === 
 === bvk cell = 135 has 16.571 % of the basis function pairs === 
 === bvk cell = 136 has 17.720 % of the basis function pairs === 
 === bvk cell = 137 has 18.391 % of the basis function pairs === 
 === bvk cell = 138 has 18.103 % of the basis function pairs === 
 === bvk cell = 139 has 16.571 % of the basis function pairs === 
 === bvk cell = 140 has 17.433 % of the basis function pairs === 
 === bvk cell = 141 has 16.858 % of the basis function pairs === 
 === bvk cell = 142 has 18.391 % of the basis function pairs === 
 === bvk cell = 143 has 21.360 % of the basis function pairs === 
 === bvk cell = 144 has 32.854 % of the basis function pairs === 
 === bvk cell = 145 has 44.828 % of the basis function pairs === 
 === bvk cell = 146 has 41.667 % of the basis function pairs === 
 === bvk cell = 147 has 20.690 % of the basis function pairs === 
 === bvk cell = 148 has 16.571 % of the basis function pairs === 
 === bvk cell = 149 has 18.103 % of the basis function pairs === 
 === bvk cell = 150 has 44.828 % of the basis function pairs === 
 === bvk cell = 151 has 49.425 % of the basis function pairs === 
 === bvk cell = 152 has 40.805 % of the basis function pairs === 
 === bvk cell = 153 has 19.828 % of the basis function pairs === 
 === bvk cell = 154 has 17.433 % of the basis function pairs === 
 === bvk cell = 155 has 31.513 % of the basis function pairs === 
 === bvk cell = 156 has 41.667 % of the basis function pairs === 
 === bvk cell = 157 has 40.805 % of the basis function pairs === 
 === bvk cell = 158 has 20.690 % of the basis function pairs === 
 === bvk cell = 159 has 16.571 % of the basis function pairs === 
 === bvk cell = 160 has 17.816 % of the basis function pairs === 
 === bvk cell = 161 has 31.992 % of the basis function pairs === 
 === bvk cell = 162 has 20.690 % of the basis function pairs === 
 === bvk cell = 163 has 19.828 % of the basis function pairs === 
 === bvk cell = 164 has 16.571 % of the basis function pairs === 
 === bvk cell = 165 has 16.571 % of the basis function pairs === 
 === bvk cell = 166 has 17.433 % of the basis function pairs === 
 === bvk cell = 167 has 20.211 % of the basis function pairs === 
 === bvk cell = 168 has 16.571 % of the basis function pairs === 
 === bvk cell = 169 has 17.433 % of the basis function pairs === 
 === bvk cell = 170 has 17.816 % of the basis function pairs === 
 === bvk cell = 171 has 17.433 % of the basis function pairs === 
 === bvk cell = 172 has 16.571 % of the basis function pairs === 
 === bvk cell = 173 has 16.571 % of the basis function pairs === 
 === bvk cell = 174 has 18.103 % of the basis function pairs === 
 === bvk cell = 175 has 31.513 % of the basis function pairs === 
 === bvk cell = 176 has 31.992 % of the basis function pairs === 
 === bvk cell = 177 has 20.211 % of the basis function pairs === 
 === bvk cell = 178 has 16.571 % of the basis function pairs === 
 === bvk cell = 179 has 16.571 % of the basis function pairs === 
 === bvk cell = 180 has 85.632 % of the basis function pairs === 
 === bvk cell = 181 has 92.146 % of the basis function pairs === 
 === bvk cell = 182 has 49.425 % of the basis function pairs === 
 === bvk cell = 183 has 20.690 % of the basis function pairs === 
 === bvk cell = 184 has 18.103 % of the basis function pairs === 
 === bvk cell = 185 has 36.877 % of the basis function pairs === 
 === bvk cell = 186 has 92.146 % of the basis function pairs === 
 === bvk cell = 187 has 71.073 % of the basis function pairs === 
 === bvk cell = 188 has 40.805 % of the basis function pairs === 
 === bvk cell = 189 has 17.720 % of the basis function pairs === 
 === bvk cell = 190 has 30.556 % of the basis function pairs === 
 === bvk cell = 191 has 60.536 % of the basis function pairs === 
 === bvk cell = 192 has 49.425 % of the basis function pairs === 
 === bvk cell = 193 has 40.805 % of the basis function pairs === 
 === bvk cell = 194 has 19.828 % of the basis function pairs === 
 === bvk cell = 195 has 17.433 % of the basis function pairs === 
 === bvk cell = 196 has 31.513 % of the basis function pairs === 
 === bvk cell = 197 has 44.828 % of the basis function pairs === 
 === bvk cell = 198 has 20.690 % of the basis function pairs === 
 === bvk cell = 199 has 17.720 % of the basis function pairs === 
 === bvk cell = 200 has 17.433 % of the basis function pairs === 
 === bvk cell = 201 has 16.571 % of the basis function pairs === 
 === bvk cell = 202 has 18.966 % of the basis function pairs === 
 === bvk cell = 203 has 23.659 % of the basis function pairs === 
 === bvk cell = 204 has 18.103 % of the basis function pairs === 
 === bvk cell = 205 has 30.556 % of the basis function pairs === 
 === bvk cell = 206 has 31.513 % of the basis function pairs === 
 === bvk cell = 207 has 18.966 % of the basis function pairs === 
 === bvk cell = 208 has 16.571 % of the basis function pairs === 
 === bvk cell = 209 has 16.571 % of the basis function pairs === 
 === bvk cell = 210 has 36.877 % of the basis function pairs === 
 === bvk cell = 211 has 60.536 % of the basis function pairs === 
 === bvk cell = 212 has 44.828 % of the basis function pairs === 
 === bvk cell = 213 has 23.659 % of the basis function pairs === 
 === bvk cell = 214 has 16.571 % of the basis function pairs === 
 === bvk cell = 215 has 21.360 % of the basis function pairs === 
Static memory requirement for 2e3c SR integrals: 0.046 GB
There are 1 munu batches for computing 2e3c SR integrals with latsum
There are 2 Q batches for computing 2e3c SR integrals with latsum
 Time for computing 2e3c SR integral (CC) is 1.62 s
 Time for RI-J this SCF iteration is 3.02 s
 Time for RI-J this SCF iteration is 0.17 s
 ----------------------------------------------
 Guess energy: -107.3861838373
 ----------------------------------------------
 Guess energy components:
 DFT Correlation    Energy =  -0.39376866858418
 DFT Exchange       Energy = -12.24947119722702
 Kinetic            Energy = 109.18831490070448
 Nuclear Attraction Energy = -202.65481212419283
 Nuclear Repulsion  Energy = -31.10949437582012
 Total Coulomb      Energy =  29.83304762780914
 ----------------------------------------------
  Cycle       Energy        RMS Gradient
 ----------------------------------------------
 Time for RI-J this SCF iteration is 0.17 s
    1    -107.4038362193      2.68e-01   Descent step
 Energy components after cycle 1:
 DFT Correlation    Energy =  -0.39343898962716
 DFT Exchange       Energy = -12.20473280886328
 Kinetic            Energy = 108.85268332621153
 Nuclear Attraction Energy = -202.07076905360836
 Nuclear Repulsion  Energy = -31.10949437582012
 Total Coulomb      Energy =  29.52191568239242
 Time for RI-J this SCF iteration is 0.21 s
    2    -107.4184890822      2.27e-01   Descent step
 Energy components after cycle 2:
 DFT Correlation    Energy =  -0.39316787263878
 DFT Exchange       Energy = -12.16041165306920
 Kinetic            Energy = 108.52037006079574
 Nuclear Attraction Energy = -201.48971351461796
 Nuclear Repulsion  Energy = -31.10949437582012
 Total Coulomb      Energy =  29.21392827316385
 Time for RI-J this SCF iteration is 0.17 s
    3    -107.4302105528      1.87e-01   Descent step
 Energy components after cycle 3:
 DFT Correlation    Energy =  -0.39295194253829
 DFT Exchange       Energy = -12.11649880845138
 Kinetic            Energy = 108.19171406699473
 Nuclear Attraction Energy = -200.91198380043929
 Nuclear Repulsion  Energy = -31.10949437582012
 Total Coulomb      Energy =  28.90900430747905
 Time for RI-J this SCF iteration is 0.26 s
    4    -107.4390564720      1.47e-01   Descent step
 Energy components after cycle 4:
 DFT Correlation    Energy =  -0.39278779088596
 DFT Exchange       Energy = -12.07300490167453
 Kinetic            Energy = 107.86744721303555
 Nuclear Attraction Energy = -200.33841525147605
 Nuclear Repulsion  Energy = -31.10949437582012
 Total Coulomb      Energy =  28.60719863479513
 Time for RI-J this SCF iteration is 0.22 s
    5    -107.4450756155      1.08e-01   Descent step
 Energy components after cycle 5:
 DFT Correlation    Energy =  -0.39267126707019
 DFT Exchange       Energy = -12.02998721022594
 Kinetic            Energy = 107.54923683723223
 Nuclear Attraction Energy = -199.77104692897623
 Nuclear Repulsion  Energy = -31.10949437582012
 Total Coulomb      Energy =  28.30888732936619
 Time for RI-J this SCF iteration is 0.16 s
    6    -107.4483211134      6.92e-02   Descent step
 Energy components after cycle 6:
 DFT Correlation    Energy =  -0.39259496915469
 DFT Exchange       Energy = -11.98767381868142
 Kinetic            Energy = 107.24186076034290
 Nuclear Attraction Energy = -199.21604676023156
 Nuclear Repulsion  Energy = -31.10949437582012
 Total Coulomb      Energy =  28.01562805015204
 Time for RI-J this SCF iteration is 0.20 s
    7    -107.4490985434      3.03e-02   Normal BFGS step
 Energy components after cycle 7:
 DFT Correlation    Energy =  -0.39244182385361
 DFT Exchange       Energy = -11.96078040779218
 Kinetic            Energy = 107.11168313263953
 Nuclear Attraction Energy = -198.92734044195535
 Nuclear Repulsion  Energy = -31.10949437582012
 Total Coulomb      Energy =  27.82927537334143
 Time for RI-J this SCF iteration is 0.16 s
    8    -107.4490998986      5.85e-04   Normal BFGS step
 Energy components after cycle 8:
 DFT Correlation    Energy =  -0.39244948422373
 DFT Exchange       Energy = -11.96084585305342
 Kinetic            Energy = 107.10399185208507
 Nuclear Attraction Energy = -198.92064929658207
 Nuclear Repulsion  Energy = -31.10949437582012
 Total Coulomb      Energy =  27.83034725895464
 Time for RI-J this SCF iteration is 0.16 s
    9    -107.4490999135      4.96e-05   Normal BFGS step
 Energy components after cycle 9:
 DFT Correlation    Energy =  -0.39244879919101
 DFT Exchange       Energy = -11.96092697630842
 Kinetic            Energy = 107.10508099792999
 Nuclear Attraction Energy = -198.92201440029885
 Nuclear Repulsion  Energy = -31.10949437582012
 Total Coulomb      Energy =  27.83070364022718
 Time for RI-J this SCF iteration is 0.19 s
   10    -107.4490999144      1.77e-05   Normal BFGS step
 Energy components after cycle 10:
 DFT Correlation    Energy =  -0.39244870558063
 DFT Exchange       Energy = -11.96092086779939
 Kinetic            Energy = 107.10510999757241
 Nuclear Attraction Energy = -198.92202534488450
 Nuclear Repulsion  Energy = -31.10949437582012
 Total Coulomb      Energy =  27.83067938212053
 Time for RI-J this SCF iteration is 0.17 s
   11    -107.4490999144      1.69e-06   Normal BFGS step
 Energy components after cycle 11:
 DFT Correlation    Energy =  -0.39244873310064
 DFT Exchange       Energy = -11.96091819912334
 Kinetic            Energy = 107.10506487210260
 Nuclear Attraction Energy = -198.92197226165433
 Nuclear Repulsion  Energy = -31.10949437582012
 Total Coulomb      Energy =  27.83066878318641
   11    -107.4490999144      1.69e-06  Convergence criterion met
 ----------------------------------------------
 Final energy components:
 DFT Correlation    Energy =  -0.39244873310064
 DFT Exchange       Energy = -11.96091819912334
 Kinetic            Energy = 107.10506487210260
 Nuclear Attraction Energy = -198.92197226165433
 Nuclear Repulsion  Energy = -31.10949437582012
 Total Coulomb      Energy =  27.83066878318641
 ----------------------------------------------
 Final energy is -107.4490999144

 SCF time:   CPU 2114.99s  wall 112.00s 
 Total wall time for computing Kinetic: 0.02 s (13)
 Total wall time for computing RIJ-BIGMEM: 5.25 s (13)
 Total wall time for computing RSDF Vnuc: 0.04 s (13)
 Total wall time for computing DFT XC: 58.35 s (13)
 ---------------------------------------------------------------------------
                        Orbital Energies (a.u.)
 ---------------------------------------------------------------------------
 == 0-th k-point (-0.27639,-0.27639,-0.27639) occupation: 6==
 -23.85933 -1.46459 -0.68354 -0.03679 0.03027 0.03027 0.43302 0.66869 0.76787 0.76787
 1.09206 1.27908 1.27908 1.42946 1.42946 1.44458 1.81973 2.31584 2.39448 2.39448
 2.73386 2.94676 2.94676 3.35339 4.06873 4.06873 4.22257 5.34184 6.41613 6.41613
 6.95128 7.08359 7.09827 7.09827 7.12176 7.12176 7.16356 7.29847 8.61589 8.61589
 8.79856 8.93697 8.93697 16.23106 58.06803
 == 1-th k-point (-0.13819,-0.13819,-0.41458) occupation: 6==
 -23.85933 -1.46462 -0.68282 -0.02657 0.01880 0.02026 0.45931 0.68067 0.76920 0.78802
 0.99916 1.33902 1.34901 1.55200 1.58586 1.67111 2.03687 2.30699 2.37795 2.62858
 2.71021 2.89382 3.28580 4.01658 4.34104 4.38863 5.30856 6.28825 6.35274 6.94000
 7.08690 7.09947 7.10857 7.11466 7.16193 7.17642 7.23313 8.53798 8.64383 8.76977
 8.87310 8.91340 15.78700 58.07739
 == 2-th k-point (-0.00000,0.00000,-0.55277) occupation: 6==
 -23.85932 -1.46412 -0.67696 -0.04573 0.00844 0.00844 0.51286 0.72974 0.79308 0.79308
 1.33218 1.49521 1.49521 1.62693 1.78996 1.78996 2.17774 2.19538 2.27846 2.60244
 2.79291 2.79291 3.30791 4.36990 4.61936 4.61936 5.25999 6.40589 6.40589 6.98401
 7.08359 7.08534 7.17498 7.17498 7.22642 7.22642 7.23424 8.43933 8.45288 8.81486
 8.81486 8.95852 15.98668 57.91294
 == 3-th k-point (0.13819,0.13819,-0.69096) occupation: 6==
 -23.85929 -1.46359 -0.67157 -0.06116 -0.00776 0.00616 0.55646 0.63262 0.71426 0.77853
 0.94482 1.33737 1.46292 1.57785 1.74346 1.77728 1.95498 2.27364 2.48066 2.64076
 2.70775 2.73162 3.38756 4.08373 4.37147 4.46413 4.89665 6.45070 6.52100 6.78709
 7.08473 7.08822 7.10831 7.15023 7.21858 7.24171 7.28635 8.50251 8.67363 8.75365
 8.80880 8.99596 15.95017 57.32885
 == 4-th k-point (0.27639,0.27639,-0.82916) occupation: 6==
 -23.85928 -1.46355 -0.67235 -0.04367 -0.03016 0.01544 0.54459 0.59434 0.73847 0.75948
 1.17202 1.27363 1.38846 1.48192 1.81542 1.83379 2.02144 2.20889 2.46270 2.70410
 2.74571 2.75467 3.50967 4.23849 4.41766 4.42840 4.70434 6.55240 6.61010 6.66189
 7.08359 7.09389 7.09406 7.09737 7.21725 7.22241 7.33319 8.45760 8.77744 8.81303
 8.81422 9.03176 16.05361 57.17136
 == 5-th k-point (0.41458,0.41458,-0.96735) occupation: 6==
 -23.85931 -1.46405 -0.67845 -0.04355 0.00149 0.02774 0.47176 0.63206 0.75522 0.76065
 1.16798 1.27107 1.40448 1.46734 1.71946 1.77307 1.91584 2.36980 2.39094 2.67071
 2.74289 2.92342 3.40246 3.89608 4.22457 4.33985 5.06034 6.36146 6.70818 6.83875
 7.08198 7.09190 7.10197 7.10708 7.14001 7.15809 7.24843 8.57743 8.72512 8.79395
 8.88148 8.89715 15.81171 57.64841
 == 6-th k-point (-0.13819,-0.41458,-0.13819) occupation: 6==
 -23.85933 -1.46462 -0.68282 -0.02657 0.01880 0.02026 0.45931 0.68067 0.76920 0.78802
 0.99916 1.33902 1.34901 1.55200 1.58586 1.67111 2.03687 2.30699 2.37795 2.62858
 2.71021 2.89382 3.28580 4.01658 4.34104 4.38863 5.30856 6.28825 6.35274 6.94000
 7.08690 7.09947 7.10857 7.11466 7.16193 7.17642 7.23313 8.53798 8.64383 8.76977
 8.87310 8.91340 15.78700 58.07739
 == 7-th k-point (-0.00000,-0.27639,-0.27639) occupation: 6==
 -23.85934 -1.46497 -0.68611 -0.01265 0.01434 0.03480 0.43603 0.68564 0.79408 0.80138
 1.06704 1.35355 1.40642 1.48107 1.72640 2.08735 2.09900 2.19192 2.23473 2.64914
 2.70893 2.98288 3.21899 3.94424 4.41716 4.71441 5.45323 6.24694 6.96328 6.97689
 7.08359 7.11065 7.11204 7.11460 7.13612 7.19885 7.20331 8.44752 8.69226 8.74184
 8.87231 8.91346 15.30494 58.30423
 == 8-th k-point (0.13819,-0.13819,-0.41458) occupation: 6==
 -23.85933 -1.46462 -0.68282 -0.02657 0.01880 0.02026 0.45931 0.68067 0.76920 0.78802
 0.99916 1.33902 1.34901 1.55200 1.58586 1.67111 2.03687 2.30699 2.37795 2.62858
 2.71021 2.89382 3.28580 4.01658 4.34104 4.38863 5.30856 6.28825 6.35274 6.94000
 7.08690 7.09947 7.10857 7.11466 7.16193 7.17642 7.23313 8.53798 8.64383 8.76977
 8.87310 8.91340 15.78700 58.07739
 == 9-th k-point (0.27639,0.00000,-0.55277) occupation: 6==
 -23.85931 -1.46391 -0.67595 -0.04227 -0.01002 0.01733 0.51172 0.62733 0.73753 0.76835
 1.04509 1.29775 1.44433 1.51430 1.70494 1.81614 2.08487 2.21734 2.44704 2.60386
 2.70374 2.71967 3.42935 4.16520 4.19803 4.50840 5.03218 6.37953 6.48866 6.91300
 7.08740 7.08800 7.09615 7.12139 7.19923 7.21612 7.25980 8.46796 8.70686 8.75387
 8.78455 8.98969 15.89533 57.63536
 == 10-th k-point (0.41458,0.13819,-0.69096) occupation: 6==
 -23.85930 -1.46355 -0.67235 -0.04618 -0.02565 0.01326 0.53938 0.60672 0.72778 0.75097
 1.15854 1.17432 1.40970 1.45507 1.78890 1.80800 2.07312 2.25295 2.46052 2.56312
 2.73327 2.73485 3.51375 4.10948 4.32806 4.34728 4.90552 6.49508 6.52492 6.74659
 7.08562 7.08593 7.09052 7.09687 7.19834 7.24170 7.28172 8.47078 8.72043 8.79861
 8.81316 9.02771 16.04740 57.50922
 == 11-th k-point (0.55277,0.27639,-0.82916) occupation: 6==
 -23.85931 -1.46391 -0.67595 -0.04227 -0.01002 0.01733 0.51172 0.62733 0.73753 0.76835
 1.04509 1.29775 1.44433 1.51430 1.70494 1.81614 2.08487 2.21734 2.44704 2.60386
 2.70374 2.71967 3.42935 4.16520 4.19803 4.50840 5.03218 6.37953 6.48866 6.91300
 7.08740 7.08800 7.09615 7.12139 7.19923 7.21612 7.25980 8.46796 8.70686 8.75387
 8.78455 8.98969 15.89533 57.63536
 == 12-th k-point (-0.00000,-0.55277,-0.00000) occupation: 6==
 -23.85932 -1.46412 -0.67696 -0.04573 0.00844 0.00844 0.51286 0.72974 0.79308 0.79308
 1.33218 1.49521 1.49521 1.62693 1.78996 1.78996 2.17774 2.19538 2.27846 2.60244
 2.79291 2.79291 3.30791 4.36990 4.61936 4.61936 5.25999 6.40589 6.40589 6.98401
 7.08359 7.08534 7.17498 7.17498 7.22642 7.22642 7.23424 8.43933 8.45288 8.81486
 8.81486 8.95852 15.98668 57.91294
 == 13-th k-point (0.13819,-0.41458,-0.13819) occupation: 6==
 -23.85933 -1.46462 -0.68282 -0.02657 0.01880 0.02026 0.45931 0.68067 0.76920 0.78802
[...]
 7.08690 7.09947 7.10857 7.11466 7.16193 7.17642 7.23313 8.53798 8.64383 8.76977
 8.87310 8.91340 15.78700 58.07739
 == 172-th k-point (0.27639,0.27639,0.27639) occupation: 6==
 -23.85933 -1.46459 -0.68354 -0.03679 0.03027 0.03027 0.43302 0.66869 0.76787 0.76787
 1.09206 1.27908 1.27908 1.42946 1.42946 1.44458 1.81973 2.31584 2.39448 2.39448
 2.73386 2.94676 2.94676 3.35339 4.06873 4.06873 4.22257 5.34184 6.41613 6.41613
 6.95128 7.08359 7.09827 7.09827 7.12176 7.12176 7.16356 7.29847 8.61589 8.61589
 8.79856 8.93697 8.93697 16.23106 58.06803
 == 173-th k-point (0.41458,0.41458,0.13819) occupation: 6==
 -23.85931 -1.46405 -0.67845 -0.04355 0.00149 0.02774 0.47176 0.63206 0.75522 0.76065
 1.16798 1.27107 1.40448 1.46734 1.71946 1.77307 1.91584 2.36980 2.39094 2.67071
 2.74289 2.92342 3.40246 3.89608 4.22457 4.33985 5.06034 6.36146 6.70818 6.83875
 7.08198 7.09190 7.10197 7.10708 7.14001 7.15809 7.24843 8.57743 8.72512 8.79395
 8.88148 8.89715 15.81171 57.64841
 == 174-th k-point (-0.13819,-0.41458,0.96735) occupation: 6==
 -23.85930 -1.46355 -0.67235 -0.04618 -0.02565 0.01326 0.53938 0.60672 0.72778 0.75097
 1.15854 1.17432 1.40970 1.45507 1.78890 1.80800 2.07312 2.25295 2.46052 2.56312
 2.73327 2.73485 3.51375 4.10948 4.32806 4.34728 4.90552 6.49508 6.52492 6.74659
 7.08562 7.08593 7.09052 7.09687 7.19834 7.24170 7.28172 8.47078 8.72043 8.79861
 8.81316 9.02771 16.04740 57.50922
 == 175-th k-point (0.00000,-0.27639,0.82916) occupation: 6==
 -23.85930 -1.46341 -0.66972 -0.05908 -0.02161 0.00499 0.58825 0.60992 0.68504 0.76080
 0.98414 1.31738 1.35299 1.54348 1.75896 1.85918 2.14207 2.21725 2.46771 2.51093
 2.69930 2.74258 3.50655 4.07404 4.29681 4.36553 4.94687 6.49543 6.61461 6.69974
 7.08534 7.08717 7.09477 7.12372 7.23002 7.23846 7.31210 8.46260 8.65688 8.77269
 8.82099 9.05136 16.06556 57.54196
 == 176-th k-point (0.13819,-0.13819,0.69096) occupation: 6==
 -23.85929 -1.46359 -0.67157 -0.06116 -0.00776 0.00616 0.55646 0.63262 0.71426 0.77853
 0.94482 1.33737 1.46292 1.57785 1.74346 1.77728 1.95498 2.27364 2.48066 2.64076
 2.70775 2.73162 3.38756 4.08373 4.37147 4.46413 4.89665 6.45070 6.52100 6.78709
 7.08473 7.08822 7.10831 7.15023 7.21858 7.24171 7.28635 8.50251 8.67363 8.75365
 8.80880 8.99596 15.95017 57.32885
 == 177-th k-point (0.27639,-0.00000,0.55277) occupation: 6==
 -23.85931 -1.46391 -0.67595 -0.04227 -0.01002 0.01733 0.51172 0.62733 0.73753 0.76835
 1.04509 1.29775 1.44433 1.51430 1.70494 1.81614 2.08487 2.21734 2.44704 2.60386
 2.70374 2.71967 3.42935 4.16520 4.19803 4.50840 5.03218 6.37953 6.48866 6.91300
 7.08740 7.08800 7.09615 7.12139 7.19923 7.21612 7.25980 8.46796 8.70686 8.75387
 8.78455 8.98969 15.89533 57.63536
 == 178-th k-point (0.41458,0.13819,0.41458) occupation: 6==
 -23.85931 -1.46405 -0.67845 -0.04355 0.00149 0.02774 0.47176 0.63206 0.75522 0.76065
 1.16798 1.27107 1.40448 1.46734 1.71946 1.77307 1.91584 2.36980 2.39094 2.67071
 2.74289 2.92342 3.40246 3.89608 4.22457 4.33985 5.06034 6.36146 6.70818 6.83875
 7.08198 7.09190 7.10197 7.10708 7.14001 7.15809 7.24843 8.57743 8.72512 8.79395
 8.88148 8.89715 15.81171 57.64841
 == 179-th k-point (0.55277,0.27639,0.27639) occupation: 6==
 -23.85930 -1.46387 -0.67670 -0.05215 0.00627 0.02058 0.47807 0.63554 0.74620 0.75405
 1.13601 1.30424 1.38485 1.43320 1.59830 1.79172 1.86261 2.36844 2.45626 2.68687
 2.72424 2.90812 3.40879 4.04434 4.14145 4.31545 4.91851 6.42011 6.54083 6.71419
 7.09132 7.09652 7.09889 7.11517 7.15697 7.16411 7.26968 8.58296 8.72373 8.80120
 8.90241 8.90991 15.96215 57.45561
 == 180-th k-point (-0.96735,0.41458,0.41458) occupation: 6==
 -23.85931 -1.46405 -0.67845 -0.04355 0.00149 0.02774 0.47176 0.63206 0.75522 0.76065
 1.16798 1.27107 1.40448 1.46734 1.71946 1.77307 1.91584 2.36980 2.39094 2.67071
 2.74289 2.92342 3.40246 3.89608 4.22457 4.33985 5.06034 6.36146 6.70818 6.83875
 7.08198 7.09190 7.10197 7.10708 7.14001 7.15809 7.24843 8.57743 8.72512 8.79395
 8.88148 8.89715 15.81171 57.64841
 == 181-th k-point (-0.82916,0.55277,0.27639) occupation: 6==
 -23.85931 -1.46391 -0.67595 -0.04227 -0.01002 0.01733 0.51172 0.62733 0.73753 0.76835
 1.04509 1.29775 1.44433 1.51430 1.70494 1.81614 2.08487 2.21734 2.44704 2.60386
 2.70374 2.71967 3.42935 4.16520 4.19803 4.50840 5.03218 6.37953 6.48866 6.91300
 7.08740 7.08800 7.09615 7.12139 7.19923 7.21612 7.25980 8.46796 8.70686 8.75387
 8.78455 8.98969 15.89533 57.63536
 == 182-th k-point (-0.69096,0.69096,0.13819) occupation: 6==
 -23.85929 -1.46359 -0.67157 -0.06116 -0.00776 0.00616 0.55646 0.63262 0.71426 0.77853
 0.94482 1.33737 1.46292 1.57785 1.74346 1.77728 1.95498 2.27364 2.48066 2.64076
 2.70775 2.73162 3.38756 4.08373 4.37147 4.46413 4.89665 6.45070 6.52100 6.78709
 7.08473 7.08822 7.10831 7.15023 7.21858 7.24171 7.28635 8.50251 8.67363 8.75365
 8.80880 8.99596 15.95017 57.32885
 == 183-th k-point (-0.55277,0.82916,0.00000) occupation: 6==
 -23.85930 -1.46341 -0.66972 -0.05908 -0.02161 0.00499 0.58825 0.60992 0.68504 0.76080
 0.98414 1.31738 1.35299 1.54348 1.75896 1.85918 2.14207 2.21725 2.46771 2.51093
 2.69930 2.74258 3.50655 4.07404 4.29681 4.36553 4.94687 6.49543 6.61461 6.69974
 7.08534 7.08717 7.09477 7.12372 7.23002 7.23846 7.31210 8.46260 8.65688 8.77269
 8.82099 9.05136 16.06556 57.54196
 == 184-th k-point (-0.41458,0.96735,-0.13819) occupation: 6==
 -23.85930 -1.46355 -0.67235 -0.04618 -0.02565 0.01326 0.53938 0.60672 0.72778 0.75097
 1.15854 1.17432 1.40970 1.45507 1.78890 1.80800 2.07312 2.25295 2.46052 2.56312
 2.73327 2.73485 3.51375 4.10948 4.32806 4.34728 4.90552 6.49508 6.52492 6.74659
 7.08562 7.08593 7.09052 7.09687 7.19834 7.24170 7.28172 8.47078 8.72043 8.79861
 8.81316 9.02771 16.04740 57.50922
 == 185-th k-point (-0.27639,1.10554,-0.27639) occupation: 6==
 -23.85930 -1.46387 -0.67670 -0.05215 0.00627 0.02058 0.47807 0.63554 0.74620 0.75405
 1.13601 1.30424 1.38485 1.43320 1.59830 1.79172 1.86261 2.36844 2.45626 2.68687
 2.72424 2.90812 3.40879 4.04434 4.14145 4.31545 4.91851 6.42011 6.54083 6.71419
 7.09132 7.09652 7.09889 7.11517 7.15697 7.16411 7.26968 8.58296 8.72373 8.80120
 8.90241 8.90991 15.96215 57.45561
 == 186-th k-point (-0.82916,0.27639,0.55277) occupation: 6==
 -23.85931 -1.46391 -0.67595 -0.04227 -0.01002 0.01733 0.51172 0.62733 0.73753 0.76835
 1.04509 1.29775 1.44433 1.51430 1.70494 1.81614 2.08487 2.21734 2.44704 2.60386
 2.70374 2.71967 3.42935 4.16520 4.19803 4.50840 5.03218 6.37953 6.48866 6.91300
 7.08740 7.08800 7.09615 7.12139 7.19923 7.21612 7.25980 8.46796 8.70686 8.75387
 8.78455 8.98969 15.89533 57.63536
 == 187-th k-point (-0.69096,0.41458,0.41458) occupation: 6==
 -23.85931 -1.46405 -0.67845 -0.04355 0.00149 0.02774 0.47176 0.63206 0.75522 0.76065
 1.16798 1.27107 1.40448 1.46734 1.71946 1.77307 1.91584 2.36980 2.39094 2.67071
 2.74289 2.92342 3.40246 3.89608 4.22457 4.33985 5.06034 6.36146 6.70818 6.83875
 7.08198 7.09190 7.10197 7.10708 7.14001 7.15809 7.24843 8.57743 8.72512 8.79395
 8.88148 8.89715 15.81171 57.64841
 == 188-th k-point (-0.55277,0.55277,0.27639) occupation: 6==
 -23.85930 -1.46387 -0.67670 -0.05215 0.00627 0.02058 0.47807 0.63554 0.74620 0.75405
 1.13601 1.30424 1.38485 1.43320 1.59830 1.79172 1.86261 2.36844 2.45626 2.68687
 2.72424 2.90812 3.40879 4.04434 4.14145 4.31545 4.91851 6.42011 6.54083 6.71419
 7.09132 7.09652 7.09889 7.11517 7.15697 7.16411 7.26968 8.58296 8.72373 8.80120
 8.90241 8.90991 15.96215 57.45561
 == 189-th k-point (-0.41458,0.69096,0.13819) occupation: 6==
 -23.85930 -1.46355 -0.67235 -0.04618 -0.02565 0.01326 0.53938 0.60672 0.72778 0.75097
 1.15854 1.17432 1.40970 1.45507 1.78890 1.80800 2.07312 2.25295 2.46052 2.56312
 2.73327 2.73485 3.51375 4.10948 4.32806 4.34728 4.90552 6.49508 6.52492 6.74659
 7.08562 7.08593 7.09052 7.09687 7.19834 7.24170 7.28172 8.47078 8.72043 8.79861
 8.81316 9.02771 16.04740 57.50922
 == 190-th k-point (-0.27639,0.82916,0.00000) occupation: 6==
 -23.85930 -1.46341 -0.66972 -0.05908 -0.02161 0.00499 0.58825 0.60992 0.68504 0.76080
 0.98414 1.31738 1.35299 1.54348 1.75896 1.85918 2.14207 2.21725 2.46771 2.51093
 2.69930 2.74258 3.50655 4.07404 4.29681 4.36553 4.94687 6.49543 6.61461 6.69974
 7.08534 7.08717 7.09477 7.12372 7.23002 7.23846 7.31210 8.46260 8.65688 8.77269
 8.82099 9.05136 16.06556 57.54196
 == 191-th k-point (-0.13819,0.96735,-0.13819) occupation: 6==
 -23.85929 -1.46359 -0.67157 -0.06116 -0.00776 0.00616 0.55646 0.63262 0.71426 0.77853
 0.94482 1.33737 1.46292 1.57785 1.74346 1.77728 1.95498 2.27364 2.48066 2.64076
 2.70775 2.73162 3.38756 4.08373 4.37147 4.46413 4.89665 6.45070 6.52100 6.78709
 7.08473 7.08822 7.10831 7.15023 7.21858 7.24171 7.28635 8.50251 8.67363 8.75365
 8.80880 8.99596 15.95017 57.32885
 == 192-th k-point (-0.69096,0.13819,0.69096) occupation: 6==
 -23.85929 -1.46359 -0.67157 -0.06116 -0.00776 0.00616 0.55646 0.63262 0.71426 0.77853
 0.94482 1.33737 1.46292 1.57785 1.74346 1.77728 1.95498 2.27364 2.48066 2.64076
 2.70775 2.73162 3.38756 4.08373 4.37147 4.46413 4.89665 6.45070 6.52100 6.78709
 7.08473 7.08822 7.10831 7.15023 7.21858 7.24171 7.28635 8.50251 8.67363 8.75365
 8.80880 8.99596 15.95017 57.32885
 == 193-th k-point (-0.55277,0.27639,0.55277) occupation: 6==
 -23.85930 -1.46387 -0.67670 -0.05215 0.00627 0.02058 0.47807 0.63554 0.74620 0.75405
 1.13601 1.30424 1.38485 1.43320 1.59830 1.79172 1.86261 2.36844 2.45626 2.68687
 2.72424 2.90812 3.40879 4.04434 4.14145 4.31545 4.91851 6.42011 6.54083 6.71419
 7.09132 7.09652 7.09889 7.11517 7.15697 7.16411 7.26968 8.58296 8.72373 8.80120
 8.90241 8.90991 15.96215 57.45561
 == 194-th k-point (-0.41458,0.41458,0.41458) occupation: 6==
 -23.85930 -1.46399 -0.67919 -0.05759 0.02824 0.02824 0.43651 0.66402 0.73910 0.73910
 1.31196 1.31196 1.33929 1.51682 1.51682 1.81845 1.82368 2.41356 2.41356 2.73416
 2.90434 3.00751 3.00751 3.95094 3.95094 4.21424 4.87163 6.58818 6.58818 6.83642
 7.08068 7.08068 7.08359 7.09340 7.10571 7.10571 7.29877 8.63182 8.63182 8.81557
 8.95813 8.95813 15.16681 57.44463
 == 195-th k-point (-0.27639,0.55277,0.27639) occupation: 6==
 -23.85930 -1.46387 -0.67670 -0.05215 0.00627 0.02058 0.47807 0.63554 0.74620 0.75405
 1.13601 1.30424 1.38485 1.43320 1.59830 1.79172 1.86261 2.36844 2.45626 2.68687
 2.72424 2.90812 3.40879 4.04434 4.14145 4.31545 4.91851 6.42011 6.54083 6.71419
 7.09132 7.09652 7.09889 7.11517 7.15697 7.16411 7.26968 8.58296 8.72373 8.80120
 8.90241 8.90991 15.96215 57.45561
 == 196-th k-point (-0.13819,0.69096,0.13819) occupation: 6==
 -23.85929 -1.46359 -0.67157 -0.06116 -0.00776 0.00616 0.55646 0.63262 0.71426 0.77853
 0.94482 1.33737 1.46292 1.57785 1.74346 1.77728 1.95498 2.27364 2.48066 2.64076
 2.70775 2.73162 3.38756 4.08373 4.37147 4.46413 4.89665 6.45070 6.52100 6.78709
 7.08473 7.08822 7.10831 7.15023 7.21858 7.24171 7.28635 8.50251 8.67363 8.75365
 8.80880 8.99596 15.95017 57.32885
 == 197-th k-point (0.00000,0.82916,0.00000) occupation: 6==
 -23.85928 -1.46344 -0.66893 -0.07598 -0.00066 -0.00066 0.58574 0.68377 0.78965 0.78965
 1.33482 1.52453 1.71338 1.71338 2.17589 2.19920 2.21725 2.21725 2.24662 2.24662
 2.37297 2.51339 3.36546 4.69094 4.70381 4.70779 4.70779 6.52306 6.52306 7.05337
 7.08358 7.08534 7.23715 7.24250 7.24250 7.40743 7.40743 8.43829 8.45517 8.46260
 8.46260 9.01166 15.88725 57.10957
 == 198-th k-point (-0.55277,-0.00000,0.82916) occupation: 6==
 -23.85930 -1.46341 -0.66972 -0.05908 -0.02161 0.00499 0.58825 0.60992 0.68504 0.76080
 0.98414 1.31738 1.35299 1.54348 1.75896 1.85918 2.14207 2.21725 2.46771 2.51093
 2.69930 2.74258 3.50655 4.07404 4.29681 4.36553 4.94687 6.49543 6.61461 6.69974
 7.08534 7.08717 7.09477 7.12372 7.23002 7.23846 7.31210 8.46260 8.65688 8.77269
 8.82099 9.05136 16.06556 57.54196
 == 199-th k-point (-0.41458,0.13819,0.69096) occupation: 6==
 -23.85930 -1.46355 -0.67235 -0.04618 -0.02565 0.01326 0.53938 0.60672 0.72778 0.75097
 1.15854 1.17432 1.40970 1.45507 1.78890 1.80800 2.07312 2.25295 2.46052 2.56312
 2.73327 2.73485 3.51375 4.10948 4.32806 4.34728 4.90552 6.49508 6.52492 6.74659
 7.08562 7.08593 7.09052 7.09687 7.19834 7.24170 7.28172 8.47078 8.72043 8.79861
 8.81316 9.02771 16.04740 57.50922
 == 200-th k-point (-0.27639,0.27639,0.55277) occupation: 6==
 -23.85930 -1.46387 -0.67670 -0.05215 0.00627 0.02058 0.47807 0.63554 0.74620 0.75405
 1.13601 1.30424 1.38485 1.43320 1.59830 1.79172 1.86261 2.36844 2.45626 2.68687
 2.72424 2.90812 3.40879 4.04434 4.14145 4.31545 4.91851 6.42011 6.54083 6.71419
 7.09132 7.09652 7.09889 7.11517 7.15697 7.16411 7.26968 8.58296 8.72373 8.80120
 8.90241 8.90991 15.96215 57.45561
 == 201-th k-point (-0.13819,0.41458,0.41458) occupation: 6==
 -23.85931 -1.46405 -0.67845 -0.04355 0.00149 0.02774 0.47176 0.63206 0.75522 0.76065
 1.16798 1.27107 1.40448 1.46734 1.71946 1.77307 1.91584 2.36980 2.39094 2.67071
 2.74289 2.92342 3.40246 3.89608 4.22457 4.33985 5.06034 6.36146 6.70818 6.83875
 7.08198 7.09190 7.10197 7.10708 7.14001 7.15809 7.24843 8.57743 8.72512 8.79395
 8.88148 8.89715 15.81171 57.64841
 == 202-th k-point (0.00000,0.55277,0.27639) occupation: 6==
 -23.85931 -1.46391 -0.67595 -0.04227 -0.01002 0.01733 0.51172 0.62733 0.73753 0.76835
 1.04509 1.29775 1.44433 1.51430 1.70494 1.81614 2.08487 2.21734 2.44704 2.60386
 2.70374 2.71967 3.42935 4.16520 4.19803 4.50840 5.03218 6.37953 6.48866 6.91300
 7.08740 7.08800 7.09615 7.12139 7.19923 7.21612 7.25980 8.46796 8.70686 8.75387
 8.78455 8.98969 15.89533 57.63536
 == 203-th k-point (0.13819,0.69096,0.13819) occupation: 6==
 -23.85929 -1.46359 -0.67157 -0.06116 -0.00776 0.00616 0.55646 0.63262 0.71426 0.77853
 0.94482 1.33737 1.46292 1.57785 1.74346 1.77728 1.95498 2.27364 2.48066 2.64076
 2.70775 2.73162 3.38756 4.08373 4.37147 4.46413 4.89665 6.45070 6.52100 6.78709
 7.08473 7.08822 7.10831 7.15023 7.21858 7.24171 7.28635 8.50251 8.67363 8.75365
 8.80880 8.99596 15.95017 57.32885
 == 204-th k-point (-0.41458,-0.13819,0.96735) occupation: 6==
 -23.85930 -1.46355 -0.67235 -0.04618 -0.02565 0.01326 0.53938 0.60672 0.72778 0.75097
 1.15854 1.17432 1.40970 1.45507 1.78890 1.80800 2.07312 2.25295 2.46052 2.56312
 2.73327 2.73485 3.51375 4.10948 4.32806 4.34728 4.90552 6.49508 6.52492 6.74659
 7.08562 7.08593 7.09052 7.09687 7.19834 7.24170 7.28172 8.47078 8.72043 8.79861
 8.81316 9.02771 16.04740 57.50922
 == 205-th k-point (-0.27639,-0.00000,0.82916) occupation: 6==
 -23.85930 -1.46341 -0.66972 -0.05908 -0.02161 0.00499 0.58825 0.60992 0.68504 0.76080
 0.98414 1.31738 1.35299 1.54348 1.75896 1.85918 2.14207 2.21725 2.46771 2.51093
 2.69930 2.74258 3.50655 4.07404 4.29681 4.36553 4.94687 6.49543 6.61461 6.69974
 7.08534 7.08717 7.09477 7.12372 7.23002 7.23846 7.31210 8.46260 8.65688 8.77269
 8.82099 9.05136 16.06556 57.54196
 == 206-th k-point (-0.13819,0.13819,0.69096) occupation: 6==
 -23.85929 -1.46359 -0.67157 -0.06116 -0.00776 0.00616 0.55646 0.63262 0.71426 0.77853
 0.94482 1.33737 1.46292 1.57785 1.74346 1.77728 1.95498 2.27364 2.48066 2.64076
 2.70775 2.73162 3.38756 4.08373 4.37147 4.46413 4.89665 6.45070 6.52100 6.78709
 7.08473 7.08822 7.10831 7.15023 7.21858 7.24171 7.28635 8.50251 8.67363 8.75365
 8.80880 8.99596 15.95017 57.32885
 == 207-th k-point (0.00000,0.27639,0.55277) occupation: 6==
 -23.85931 -1.46391 -0.67595 -0.04227 -0.01002 0.01733 0.51172 0.62733 0.73753 0.76835
 1.04509 1.29775 1.44433 1.51430 1.70494 1.81614 2.08487 2.21734 2.44704 2.60386
 2.70374 2.71967 3.42935 4.16520 4.19803 4.50840 5.03218 6.37953 6.48866 6.91300
 7.08740 7.08800 7.09615 7.12139 7.19923 7.21612 7.25980 8.46796 8.70686 8.75387
 8.78455 8.98969 15.89533 57.63536
 == 208-th k-point (0.13819,0.41458,0.41458) occupation: 6==
 -23.85931 -1.46405 -0.67845 -0.04355 0.00149 0.02774 0.47176 0.63206 0.75522 0.76065
 1.16798 1.27107 1.40448 1.46734 1.71946 1.77307 1.91584 2.36980 2.39094 2.67071
 2.74289 2.92342 3.40246 3.89608 4.22457 4.33985 5.06034 6.36146 6.70818 6.83875
 7.08198 7.09190 7.10197 7.10708 7.14001 7.15809 7.24843 8.57743 8.72512 8.79395
 8.88148 8.89715 15.81171 57.64841
 == 209-th k-point (0.27639,0.55277,0.27639) occupation: 6==
 -23.85930 -1.46387 -0.67670 -0.05215 0.00627 0.02058 0.47807 0.63554 0.74620 0.75405
 1.13601 1.30424 1.38485 1.43320 1.59830 1.79172 1.86261 2.36844 2.45626 2.68687
 2.72424 2.90812 3.40879 4.04434 4.14145 4.31545 4.91851 6.42011 6.54083 6.71419
 7.09132 7.09652 7.09889 7.11517 7.15697 7.16411 7.26968 8.58296 8.72373 8.80120
 8.90241 8.90991 15.96215 57.45561
 == 210-th k-point (-0.27639,-0.27639,1.10554) occupation: 6==
 -23.85930 -1.46387 -0.67670 -0.05215 0.00627 0.02058 0.47807 0.63554 0.74620 0.75405
 1.13601 1.30424 1.38485 1.43320 1.59830 1.79172 1.86261 2.36844 2.45626 2.68687
 2.72424 2.90812 3.40879 4.04434 4.14145 4.31545 4.91851 6.42011 6.54083 6.71419
 7.09132 7.09652 7.09889 7.11517 7.15697 7.16411 7.26968 8.58296 8.72373 8.80120
 8.90241 8.90991 15.96215 57.45561
 == 211-th k-point (-0.13819,-0.13819,0.96735) occupation: 6==
 -23.85929 -1.46359 -0.67157 -0.06116 -0.00776 0.00616 0.55646 0.63262 0.71426 0.77853
 0.94482 1.33737 1.46292 1.57785 1.74346 1.77728 1.95498 2.27364 2.48066 2.64076
 2.70775 2.73162 3.38756 4.08373 4.37147 4.46413 4.89665 6.45070 6.52100 6.78709
 7.08473 7.08822 7.10831 7.15023 7.21858 7.24171 7.28635 8.50251 8.67363 8.75365
 8.80880 8.99596 15.95017 57.32885
 == 212-th k-point (0.00000,-0.00000,0.82916) occupation: 6==
 -23.85928 -1.46344 -0.66893 -0.07598 -0.00066 -0.00066 0.58574 0.68377 0.78965 0.78965
 1.33482 1.52453 1.71338 1.71338 2.17589 2.19920 2.21725 2.21725 2.24662 2.24662
 2.37297 2.51339 3.36546 4.69094 4.70381 4.70779 4.70779 6.52306 6.52306 7.05337
 7.08358 7.08534 7.23715 7.24250 7.24250 7.40743 7.40743 8.43829 8.45517 8.46260
 8.46260 9.01166 15.88725 57.10957
 == 213-th k-point (0.13819,0.13819,0.69096) occupation: 6==
 -23.85929 -1.46359 -0.67157 -0.06116 -0.00776 0.00616 0.55646 0.63262 0.71426 0.77853
 0.94482 1.33737 1.46292 1.57785 1.74346 1.77728 1.95498 2.27364 2.48066 2.64076
 2.70775 2.73162 3.38756 4.08373 4.37147 4.46413 4.89665 6.45070 6.52100 6.78709
 7.08473 7.08822 7.10831 7.15023 7.21858 7.24171 7.28635 8.50251 8.67363 8.75365
 8.80880 8.99596 15.95017 57.32885
 == 214-th k-point (0.27639,0.27639,0.55277) occupation: 6==
 -23.85930 -1.46387 -0.67670 -0.05215 0.00627 0.02058 0.47807 0.63554 0.74620 0.75405
 1.13601 1.30424 1.38485 1.43320 1.59830 1.79172 1.86261 2.36844 2.45626 2.68687
 2.72424 2.90812 3.40879 4.04434 4.14145 4.31545 4.91851 6.42011 6.54083 6.71419
 7.09132 7.09652 7.09889 7.11517 7.15697 7.16411 7.26968 8.58296 8.72373 8.80120
 8.90241 8.90991 15.96215 57.45561
 == 215-th k-point (0.41458,0.41458,0.41458) occupation: 6==
 -23.85930 -1.46399 -0.67919 -0.05759 0.02824 0.02824 0.43651 0.66402 0.73910 0.73910
 1.31196 1.31196 1.33929 1.51682 1.51682 1.81845 1.82368 2.41356 2.41356 2.73416
 2.90434 3.00751 3.00751 3.95094 3.95094 4.21424 4.87163 6.58818 6.58818 6.83642
 7.08068 7.08068 7.08359 7.09340 7.10571 7.10571 7.29877 8.63182 8.63182 8.81557
 8.95813 8.95813 15.16681 57.44463
 ---------------------------------------------------------------------------
 VBM is at 86-th k-point with 0.99970 eV
 CBM is at 86-th k-point with 10.16322 eV
 Band gap is 9.16352 eV


           Ground-State Mulliken Net Atomic Charges

      Atom                 Charge (a.u.)          Spin (a.u.)
   --------------------------------------------------------
      1 Li                (0.816228,0.000000)    (0.000000,0.000000)
      2  F              (-0.816228,-0.000000)    (0.000000,0.000000)
   --------------------------------------------------------
  Sum of atomic charges =     (-0.000000,-0.000000)
  Sum of spin   charges =       (0.000000,0.000000)



 Total job time:  112.19 s.
 Tue Sep  9 00:37:59 2025


        *************************************************************
        *                                                           *
        *  Thank you very much for using QCPBC. Have a nice day.    *
        *                                                           *
        *************************************************************

Running job 1 of 1
