                  Welcome to Q-Chem
           with Periodic Boundary Condition
     A Quantum Leap Into The Future Of Chemistry

 Adam Rettig, Xintian Feng, Meng-Fu Chen, Hieu Dinh, Stephen Quiton,
 Anton Ni, Paul J. Robinson, Jinghong Zhang, Joonho Lee

Contributors to earlier versions of Q-Chem not listed above:
 Evgeny Epifanovsky, Leo Cunha, Jerome F. Gonthier, Kuan-Yu Liu
 Input file: /n/netscratch/joonholee_lab/Lab/hieudinh//lif_solve_def2tzvp_omega_0.9_444.scratch20250908235054/lif_solve_def2tzvp_omega_0.9_444.0
 Scratch folder: /n/netscratch/joonholee_lab/Lab/hieudinh//lif_solve_def2tzvp_omega_0.9_444.scratch20250908235054
 Auxillary files located at: /n/holylabs/LABS/joonholee_lab/Lab/qchem_base/qcaux
 Q-Chem begins on Mon Sep  8 23:50:55 2025

 -------------------------------------------------------------
 User input:
 -------------------------------------------------------------
 $lattice
 3
 0.000000 2.005000 2.005000
 2.005000 0.000000 2.005000
 2.005000 2.005000 0.000000
 $end
 
 $unitcell
 ABSOLUTE
 0 1
 Li 0.000000 0.000000 0.000000
 F  2.005000 0.000000 0.000000
 $end
 
 $rem
 jobtype = sp
 method = pbe
 scf_convergence = 5
 scf_guess = autosad
 scf_algorithm = gdm
 basis = def2-tzvp
 aux_basis = gen
 input_bohr = false
 symmetry false
 is_basis_uctr true
 rsdf_print_level 1
 
 mp_mesh = [4,4,4]
 
 integral_direct true
 bvk_cgto true
 
 thresh 14
 mem_total 100000
 threads 32
 
 MAX_SCF_CYCLES 400
 madelung = false
 omega 0.9
 do_rij_bigmem true
 automate_g true
 print_level 10
 grid_type_xc 1
 
 thresh_1e2c_sp 1e-14
 thresh_2e3c_bra_ket_sep 1e-10
 thresh_g 1e-12
 $end
 
 $aux_basis
 Li     0
 S   7   1.00
     498.3689730              0.0207908
     162.9342738              0.0542177
      57.3246735              0.1776783
      21.6427314              0.4181150
       8.7345375              0.6535245
       3.7491039              0.5492618
       1.7006754              0.1701425
 S   1   1.00
       0.8090859             -0.0097548
 S   1   1.00
       0.4000933             -0.0050152
 S   1   1.00
       0.2035793              0.0232200
 !S   1   1.00
 !      0.1054201              0.0134535
 !S   1   1.00
 !      0.0549139              0.0006647
 P   2   1.00
      10.7024696              0.0072923
       3.6551543              0.0060940
 P   1   1.00
       1.2464013              0.0172529
 P   1   1.00
       0.4246282             -0.0160026
 P   1   1.00
       0.1446192             -0.0195111
 D   2   1.00
       1.1510647             -0.0014314
       0.6019112              0.0038969
 D   1   1.00
       0.3109573              0.0024683
 D   1   1.00
       0.1600032              0.0036451
 F   2   1.00
       0.5967918              0.0010494
       0.1790687              0.0006468
 G   1   1.00
       1.0460130             -0.0001971
 ****
 F     0
 S   7   1.00
    3514.9201549              0.1805835
    1231.2458815              0.3676084
     454.1367336              1.2707881
     175.8376258              2.8274164
      71.2081775              4.3588226
      30.0316883              2.7180994
      13.1259023             -0.0804726
 S   1   1.00
       5.9126861             -0.0023370
 S   1   1.00
       2.7284431              1.1236274
 S   1   1.00
       1.2813993              0.9999042
 S   1   1.00
       0.6082793              0.3119579
 S   1   1.00
       0.2897894              0.0312295
 P   2   1.00
      49.3740409             -0.0346332
      13.4874956             -0.0096069
 P   1   1.00
       3.9664900              0.0762067
 P   1   1.00
       1.2226629             -0.0103329
 P   1   1.00
       0.3830317              0.0018853
 D   2   1.00
      29.9719140             -0.0113316
       6.7860915             -0.0467639
 D   1   1.00
       1.8137313             -0.0167604
 D   1   1.00
       0.5157840             -0.0050777
 F   2   1.00
       2.8301877              1.0
       0.9155962              1.0
 G   1   1.00
       1.6097500             -0.0005411
 ****
 $end
 -------------------------------------------------------------
 Running PBC job

 Requested Exchange Correlation Functionals: 
  DFT Exchange:  1.00000 pbe_x
  DFT Correlation:  1.00000 pbe_c
 using 32 threads for computing.
 ---------------------------------------------------------------
      Coordinates of Atoms in Central Unit Cell (Angstroms)
    I     Atom         X            Y            Z
 ---------------------------------------------------------------
    1      Li      0.000000     0.000000     0.000000
    2       F      2.005000     0.000000     0.000000
 ---------------------------------------------------------------
 --------------------------------------------------
              Lattice Vectors (Angstroms)
              X            Y            Z
 --------------------------------------------------
   X       0.000000     2.005000     2.005000
   Y       2.005000     0.000000     2.005000
   Z       2.005000     2.005000     0.000000
 --------------------------------------------------
 --------------------------------------------------
       Reciprocal Lattice Vectors (Angstroms^-1)
              X            Y            Z
 --------------------------------------------------
   X      -1.566879     1.566879     1.566879
   Y       1.566879    -1.566879     1.566879
   Z       1.566879     1.566879    -1.566879
 --------------------------------------------------

 Single point calculation requested

 Hamiltonian contributions:
 List of terms in Hamiltonian: kpts_nn, kpts_kinetic, kpts_vnuc_df, kpts_xc, kpts_rij_bigmem

 K-Points calculation started.

 Basis set information about using solid harmonic (1) or Cartesian (0):
  li : 
  f : D(1) D(1) F(1) 

 Basis set information about using solid harmonic (1) or Cartesian (0):
  li : D(1) D(1) D(1) F(1) G(1) 
  f : D(1) D(1) D(1) F(1) G(1) 

 There are 45 basis functions in the central unit cell.
 Print atomic basis of atoms in the central unit cell:
 -------------------------------------------------------------
2 34 34 19

  0.00000000000000e+00  0.00000000000000e+00  0.00000000000000e+00
  3.78890087987467e+00  0.00000000000000e+00  0.00000000000000e+00

  6.26926280100000e+03
  9.40316124310000e+02
  2.14221075280000e+02
  6.07598401840000e+01
  1.99151520320000e+01
  7.31715097970000e+00
  2.97246742160000e+00
  1.26398523140000e+00
  5.14274899530000e-01
  7.70308859010000e-02
  2.89388964330000e-02
  3.32700000000000e+00
  4.00000000000000e-01
  6.00000000000000e-02
  3.54791004410000e+04
  5.31847289830000e+03
  1.21048109750000e+03
  3.42855181400000e+02
  1.12019431810000e+02
  4.07147402480000e+01
  1.60396781110000e+01
  6.50381867400000e+00
  1.54404775090000e+00
  6.12234528620000e-01
  2.40279796980000e-01
  8.02339004830000e+01
  1.85940107430000e+01
  5.68679026530000e+00
  1.95110062940000e+00
  6.69702112980000e-01
  2.16513004100000e-01
  3.10700000000000e+00
  8.55000000000000e-01
  1.91700000000000e+00

  2.60146728801502e-01
  4.85835841940497e-01
  8.34119322504559e-01
  1.32445742735490e+00
  1.88157694810314e+00
  2.19520050299083e+00
  7.26218105813079e-01
  4.94491916459429e-01
  4.32819270028068e-01
  1.04209847805929e-01
  5.00059366529026e-02
  6.40480761295544e+00
  4.53435039044381e-01
  4.23281366783111e-02
  1.03516566506933e+00
  1.93311703276555e+00
  3.30816792488426e+00
  5.19043602286014e+00
  7.14537150961128e+00
  7.78535976400937e+00
  3.61564648527820e+00
  1.16499925171188e+00
  9.87201115801914e-01
  4.93285621447351e-01
  2.44595258796206e-01
  4.21740775922586e+00
  4.71742640820820e+00
  4.08491013761290e+00
  2.29989742214987e+00
  8.63559317399815e-01
  2.10520828359705e-01
  1.19675885449078e+01
  1.25126747832287e+00
  6.36581779142017e+00

0 0 0 0 1 1 1
0 0 
6 0

0 1 1 6 1 1 1
6 0 
2 0

0 2 2 8 1 1 1
8 0 
1 0

0 3 3 9 1 1 1
9 0 
1 0

0 4 4 10 1 1 1
10 0 
1 0

0 5 5 11 1 3 3
11 1 
1 0

0 8 8 12 1 3 3
12 1 
1 0

0 11 11 13 1 3 3
13 1 
1 0

1 14 14 14 1 1 1
14 0 
6 0

1 15 15 20 1 1 1
20 0 
2 0

1 16 16 22 1 1 1
22 0 
1 0

1 17 17 23 1 1 1
23 0 
1 0

1 18 18 24 1 1 1
24 0 
1 0

1 19 19 25 1 3 3
25 1 
4 0

1 22 22 29 1 3 3
29 1 
1 0

1 25 25 30 1 3 3
30 1 
1 0

1 28 28 31 1 5 6
31 2 
1 1

1 33 33 32 1 5 6
32 2 
1 1

1 38 38 33 1 7 10
33 3 
1 1

 -------------------------------------------------------------
 Allocate 134496 B from available memory: 104857600000 B
 There are 6859 image cells after screening.
 There are 10216 image cells for CGTO evaluation after screening.
 Real-Space grid for FFT initialized based on kinetic energy cutoff (eV) = 500.0
 Real-Space grid for FFT: (8,8,8)
 There are 4913 real-space grid points.
 There are 27 batches of real-space grid points. 
 Size of each grid batch is around 128
 Grid for AFT initialized based on kinetic energy cutoff (eV) = 500.0
 Real-Space grid for AFT: (8,8,8)
 There are 4913 real-space grid points.

 There are 5740 atom-centered grid points.

 Spacegroup symmetry group: Fm-3m
 Reducing spacegroup symmetry to symmorphic group: F m -3 m
 Monkhorst-Pack mesh is [4,4,4]
 There are 64 k points.
kpoints in Bohr
-0.2072891818 -0.2072891818 -0.2072891818
-0.0000000000 0.0000000000 -0.4145783636
0.2072891818 0.2072891818 -0.6218675455
0.4145783636 0.4145783636 -0.8291567273
-0.0000000000 -0.4145783636 -0.0000000000
0.2072891818 -0.2072891818 -0.2072891818
0.4145783636 0.0000000000 -0.4145783636
0.6218675455 0.2072891818 -0.6218675455
0.2072891818 -0.6218675455 0.2072891818
0.4145783636 -0.4145783636 -0.0000000000
0.6218675455 -0.2072891818 -0.2072891818
0.8291567273 0.0000000000 -0.4145783636
0.4145783636 -0.8291567273 0.4145783636
0.6218675455 -0.6218675455 0.2072891818
0.8291567273 -0.4145783636 -0.0000000000
1.0364459091 -0.2072891818 -0.2072891818
-0.4145783636 0.0000000000 0.0000000000
-0.2072891818 0.2072891818 -0.2072891818
-0.0000000000 0.4145783636 -0.4145783636
0.2072891818 0.6218675455 -0.6218675455
-0.2072891818 -0.2072891818 0.2072891818
0.0000000000 0.0000000000 0.0000000000
0.2072891818 0.2072891818 -0.2072891818
0.4145783636 0.4145783636 -0.4145783636
0.0000000000 -0.4145783636 0.4145783636
0.2072891818 -0.2072891818 0.2072891818
0.4145783636 -0.0000000000 0.0000000000
0.6218675455 0.2072891818 -0.2072891818
0.2072891818 -0.6218675455 0.6218675455
0.4145783636 -0.4145783636 0.4145783636
0.6218675455 -0.2072891818 0.2072891818
0.8291567273 -0.0000000000 0.0000000000
-0.6218675455 0.2072891818 0.2072891818
-0.4145783636 0.4145783636 0.0000000000
-0.2072891818 0.6218675455 -0.2072891818
-0.0000000000 0.8291567273 -0.4145783636
-0.4145783636 -0.0000000000 0.4145783636
-0.2072891818 0.2072891818 0.2072891818
0.0000000000 0.4145783636 0.0000000000
0.2072891818 0.6218675455 -0.2072891818
-0.2072891818 -0.2072891818 0.6218675455
0.0000000000 -0.0000000000 0.4145783636
0.2072891818 0.2072891818 0.2072891818
0.4145783636 0.4145783636 0.0000000000
0.0000000000 -0.4145783636 0.8291567273
0.2072891818 -0.2072891818 0.6218675455
0.4145783636 -0.0000000000 0.4145783636
0.6218675455 0.2072891818 0.2072891818
-0.8291567273 0.4145783636 0.4145783636
-0.6218675455 0.6218675455 0.2072891818
-0.4145783636 0.8291567273 0.0000000000
-0.2072891818 1.0364459091 -0.2072891818
-0.6218675455 0.2072891818 0.6218675455
-0.4145783636 0.4145783636 0.4145783636
-0.2072891818 0.6218675455 0.2072891818
0.0000000000 0.8291567273 0.0000000000
-0.4145783636 -0.0000000000 0.8291567273
-0.2072891818 0.2072891818 0.6218675455
0.0000000000 0.4145783636 0.4145783636
0.2072891818 0.6218675455 0.2072891818
-0.2072891818 -0.2072891818 1.0364459091
0.0000000000 -0.0000000000 0.8291567273
0.2072891818 0.2072891818 0.6218675455
0.4145783636 0.4145783636 0.4145783636
 There are 6 alpha and 6 beta electrons
 Start computing overlap matrix
 Allocate 2073600 B from available memory: 104857465504 B
 Time for computing overlap matrix: 10.3210000000 s
 ====== Initialize compute kernels for all-electron RI-J (kpts) ====== 
 ========================================================== 
 Range-separated parameter omega        = 0.900000000000000022
 Threshold for 1e2c shellpair           = 0.000000000000010000
 Threshold for 2e2c SR integral         = 0.000000000000000001
 Threshold for 2e3c SR integral         = 0.000000000100000000
 Threshold for AFT G-space screening is = 0.000000000001000000
 The exponent cutoff for C/D classification (omega2 / 2) is  = 0.405000000000000027
 ========================================================== 
 === Post process the basis set for RI calculation (exp_cutoff = 0.405000000000000027 ) === 
nshells_b1 before uncontraction = 19
nshells_b1 after uncontraction = 19
nshells_baux before uncontraction = 28
nshells_baux after uncontraction = 28
===============================================
nbsf total   = 45
nbsf compact = 33
nbsf diffuse = 12
naux total   = 96
naux compact = 96
naux diffuse = 0
nshells_bnuc = 2

 Number of unique atoms is 2
 Unique atom #0 (li) has 4 shells.
 Unique atom #1 (f) has 9 shells.

Shell 0 to 3 belongs to atom li
Shell 4 to 12 belongs to atom f

 Number of unique atoms is 2
 Unique atom #0 (li) has 4 shells.
 Unique atom #1 (f) has 2 shells.

Shell 0 to 3 belongs to atom li
Shell 4 to 5 belongs to atom f

 Number of unique atom is 2
 Unique atom #0 (li) has 13 auxiliary shells.
 Unique atom #1 (f) has 15 auxiliary shells.

Auxiliary Shell 0 to 12 belongs to atom li
Auxiliary Shell 13 to 27 belongs to atom f

================= Automatically determine grid size for reciprocal space summation =================
 Range-separated parameter = 0.90000000000000 and G-space screening threshold = 0.00000000000100
The number of grid points along each axis dimension is (7, 7, 7)
Total number of grid points = 3375

Use nonortho shellpair for diffuse density
======== Initializing relevant kernel for RIJ (DD type) ========
There are 21 shellpairs in the reference unit cell
There are 14003 images and we expect to have 294063 in total
There are 16705 shellpairs in the lattice sum after screening
======== Initializing relevant kernel for RIJ (CD type) ========
There are 78 shellpairs in the reference unit cell
There are 8175 images and we expect to have 637650 in total
There are 30260 shellpairs in the lattice sum after screening
****** AFT -> SR ******
Maximum bra distance cutoff is 33.000000000000
Maximum bra ket distance cutoff is 17.968770700363
Maximum bra ket screening distance is 17.343750000000
Number of auxiliary image is 2611
There are 78 shellpairs in the reference unit cell
There are 2611 images and we expect to have 203658 in total
There are 30260 shellpairs in the lattice sum after screening
Available memory per thread for 2e3c calculation is 3.276730997000Gb
Finish initializing 2e3c SR with the lattice sum!
=================================================
======== Initializing relevant kernel for RIJ (CC type) ========
There are 88 shellpairs in the reference unit cell
There are 695 images and we expect to have 61160 in total
There are 1337 shellpairs in the lattice sum after screening
****** AFT -> SR ******
Maximum bra distance cutoff is 10.000000000000
Maximum bra ket distance cutoff is 18.593368050563
Maximum bra ket screening distance is 17.000000000000
Number of auxiliary image is 695
There are 88 shellpairs in the reference unit cell
There are 213 images and we expect to have 18744 in total
There are 1337 shellpairs in the lattice sum after screening
Available memory per thread for 2e3c calculation is 3.276730997000Gb
Finish initializing 2e3c SR with the lattice sum!
=================================================
======== Initializing the SR component for Vnuc (CD type) ========
Maximum bra distance cutoff is 33.000000000000
Maximum bra ket distance cutoff is 9.129701720000
Maximum bra ket screening distance is 8.478683757907
Number of auxiliary image is 2611
There are 78 shellpairs in the reference unit cell
There are 2611 images and we expect to have 203658 in total
There are 30260 shellpairs in the lattice sum after screening
Available memory per thread for 2e3c calculation is 3.276730997000Gb
Finish initializing 2e3c SR with the lattice sum!
=================================================
======== Initialize the SR component for Vnuc (CC type) ========
Maximum bra distance cutoff is 10.000000000000
Maximum bra ket distance cutoff is 10.053892184326
Maximum bra ket screening distance is 7.232660986948
Number of auxiliary image is 213
There are 88 shellpairs in the reference unit cell
There are 213 images and we expect to have 18744 in total
There are 1337 shellpairs in the lattice sum after screening
Available memory per thread for 2e3c calculation is 3.276730997000Gb
Finish initializing 2e3c SR with the lattice sum!
=================================================
 Aufbau occupation scheme, occupation determined by eigenvalue
 == 0-th k-point nmo = 45 (-0.20729,-0.20729,-0.20729) ==
 == 1-th k-point nmo = 44 (-0.00000,0.00000,-0.41458) ==
 == 2-th k-point nmo = 44 (0.20729,0.20729,-0.62187) ==
 == 3-th k-point nmo = 44 (0.41458,0.41458,-0.82916) ==
 == 4-th k-point nmo = 44 (-0.00000,-0.41458,-0.00000) ==
 == 5-th k-point nmo = 45 (0.20729,-0.20729,-0.20729) ==
 == 6-th k-point nmo = 44 (0.41458,0.00000,-0.41458) ==
 == 7-th k-point nmo = 44 (0.62187,0.20729,-0.62187) ==
 == 8-th k-point nmo = 44 (0.20729,-0.62187,0.20729) ==
 == 9-th k-point nmo = 44 (0.41458,-0.41458,-0.00000) ==
 == 10-th k-point nmo = 44 (0.62187,-0.20729,-0.20729) ==
 == 11-th k-point nmo = 44 (0.82916,0.00000,-0.41458) ==
 == 12-th k-point nmo = 44 (0.41458,-0.82916,0.41458) ==
 == 13-th k-point nmo = 44 (0.62187,-0.62187,0.20729) ==
 == 14-th k-point nmo = 44 (0.82916,-0.41458,-0.00000) ==
 == 15-th k-point nmo = 44 (1.03645,-0.20729,-0.20729) ==
 == 16-th k-point nmo = 44 (-0.41458,0.00000,0.00000) ==
 == 17-th k-point nmo = 45 (-0.20729,0.20729,-0.20729) ==
 == 18-th k-point nmo = 44 (-0.00000,0.41458,-0.41458) ==
 == 19-th k-point nmo = 44 (0.20729,0.62187,-0.62187) ==
 == 20-th k-point nmo = 45 (-0.20729,-0.20729,0.20729) ==
 == 21-th k-point nmo = 41 (0.00000,0.00000,0.00000) ==
 == 22-th k-point nmo = 45 (0.20729,0.20729,-0.20729) ==
 == 23-th k-point nmo = 44 (0.41458,0.41458,-0.41458) ==
 == 24-th k-point nmo = 44 (0.00000,-0.41458,0.41458) ==
 == 25-th k-point nmo = 45 (0.20729,-0.20729,0.20729) ==
 == 26-th k-point nmo = 44 (0.41458,-0.00000,0.00000) ==
 == 27-th k-point nmo = 44 (0.62187,0.20729,-0.20729) ==
 == 28-th k-point nmo = 44 (0.20729,-0.62187,0.62187) ==
 == 29-th k-point nmo = 44 (0.41458,-0.41458,0.41458) ==
 == 30-th k-point nmo = 44 (0.62187,-0.20729,0.20729) ==
 == 31-th k-point nmo = 44 (0.82916,-0.00000,0.00000) ==
 == 32-th k-point nmo = 44 (-0.62187,0.20729,0.20729) ==
 == 33-th k-point nmo = 44 (-0.41458,0.41458,0.00000) ==
 == 34-th k-point nmo = 44 (-0.20729,0.62187,-0.20729) ==
 == 35-th k-point nmo = 44 (-0.00000,0.82916,-0.41458) ==
 == 36-th k-point nmo = 44 (-0.41458,-0.00000,0.41458) ==
 == 37-th k-point nmo = 45 (-0.20729,0.20729,0.20729) ==
 == 38-th k-point nmo = 44 (0.00000,0.41458,0.00000) ==
 == 39-th k-point nmo = 44 (0.20729,0.62187,-0.20729) ==
 == 40-th k-point nmo = 44 (-0.20729,-0.20729,0.62187) ==
 == 41-th k-point nmo = 44 (0.00000,-0.00000,0.41458) ==
 == 42-th k-point nmo = 45 (0.20729,0.20729,0.20729) ==
 == 43-th k-point nmo = 44 (0.41458,0.41458,0.00000) ==
 == 44-th k-point nmo = 44 (0.00000,-0.41458,0.82916) ==
 == 45-th k-point nmo = 44 (0.20729,-0.20729,0.62187) ==
 == 46-th k-point nmo = 44 (0.41458,-0.00000,0.41458) ==
 == 47-th k-point nmo = 44 (0.62187,0.20729,0.20729) ==
 == 48-th k-point nmo = 44 (-0.82916,0.41458,0.41458) ==
 == 49-th k-point nmo = 44 (-0.62187,0.62187,0.20729) ==
 == 50-th k-point nmo = 44 (-0.41458,0.82916,0.00000) ==
 == 51-th k-point nmo = 44 (-0.20729,1.03645,-0.20729) ==
 == 52-th k-point nmo = 44 (-0.62187,0.20729,0.62187) ==
 == 53-th k-point nmo = 44 (-0.41458,0.41458,0.41458) ==
 == 54-th k-point nmo = 44 (-0.20729,0.62187,0.20729) ==
 == 55-th k-point nmo = 44 (0.00000,0.82916,0.00000) ==
 == 56-th k-point nmo = 44 (-0.41458,-0.00000,0.82916) ==
 == 57-th k-point nmo = 44 (-0.20729,0.20729,0.62187) ==
 == 58-th k-point nmo = 44 (0.00000,0.41458,0.41458) ==
 == 59-th k-point nmo = 44 (0.20729,0.62187,0.20729) ==
 == 60-th k-point nmo = 44 (-0.20729,-0.20729,1.03645) ==
 == 61-th k-point nmo = 44 (0.00000,-0.00000,0.82916) ==
 == 62-th k-point nmo = 44 (0.20729,0.20729,0.62187) ==
 == 63-th k-point nmo = 44 (0.41458,0.41458,0.41458) ==

 Generate autoSAD guess
backing up fragment data
Atom # 0: li, charge: 0, multiplicity: 2.000000
Atom # 1: f, charge: 0, multiplicity: 2.000000
writing autosad to fragment context
Settings for isolated fragments: 
  frgm_gamma: TRUE
  frgm_center: FALSE

    Running SCF for isolated atom #0
    Fragment Input file: /n/netscratch/joonholee_lab/Lab/hieudinh//lif_solve_def2tzvp_omega_0.9_444.scratch20250908235054/autosad_frgmt_0/frgmt_input.in
    Fragment Output file: /n/netscratch/joonholee_lab/Lab/hieudinh//lif_solve_def2tzvp_omega_0.9_444.scratch20250908235054/autosad_frgmt_0/frgmt_job.out
    Fragment job begins at Mon Sep  8 23:51:07 2025

 Integrated density by DFT XC:
   Numerical integral  =     2.999999993509
   Relative error      =     0.0000002164 %
Final energy components:
 DFT Correlation            Energy =  -0.05092434039942
 DFT Exchange               Energy =  -1.75140723515056
 Kinetic (alpha)            Energy =   3.83066744044889
 Kinetic (beta)             Energy =   3.58623083148463
 Nuclear Attraction (alpha) Energy =  -9.10958889983068
 Nuclear Attraction (beta)  Energy =  -8.02018991527132
 Nuclear Repulsion          Energy =   0.00000000000000
 SEOQF                      Energy =  -0.00000000000000
 Total Coulomb              Energy =   4.05329323490599
----------------------------------------------
    SCF Energy: -7.4619188838
   Total fragment job time:  0.48 s.
    Running SCF for isolated atom #1
    Fragment Input file: /n/netscratch/joonholee_lab/Lab/hieudinh//lif_solve_def2tzvp_omega_0.9_444.scratch20250908235054/autosad_frgmt_1/frgmt_input.in
    Fragment Output file: /n/netscratch/joonholee_lab/Lab/hieudinh//lif_solve_def2tzvp_omega_0.9_444.scratch20250908235054/autosad_frgmt_1/frgmt_job.out
    Fragment job begins at Mon Sep  8 23:51:07 2025

 Integrated density by DFT XC:
   Numerical integral  =     9.000000032991
   Relative error      =     0.0000003666 %
Final energy components:
 DFT Correlation            Energy =  -0.29005331125227
 DFT Exchange               Energy =  -9.97682915393220
 Kinetic (alpha)            Energy =  51.55991484248813
 Kinetic (beta)             Energy =  47.86189754389160
 Nuclear Attraction (alpha) Energy = -125.32369696155519
 Nuclear Attraction (beta)  Energy = -113.23357709834461
 Nuclear Repulsion          Energy =   0.00000000000000
 SEOQF                      Energy =  -0.00000000020384
 Total Coulomb              Energy =  49.73321880799705
----------------------------------------------
    SCF Energy: -99.6691253309
   Total fragment job time:  0.48 s.
restoring fragment data

 ------------------------------------------------------------------------
 Allocate 16639504 B from available memory: 104855391904 B
 Time for generating SCF guess: 0.99 s

 Allocate 264964 B from available memory: 104838752416 B
 Selected algorithms for each term:
  kpts_kinetic -> @0x15208ba8a680
  kpts_nn -> @0x15208ba8a800
  kpts_rij_bigmem -> @0x15208ba8a3e0
  kpts_vnuc_df -> @0x15208ba8a380
  kpts_xc -> @0x15208ba8a2c0
 Time for computing kinetic matrix is 11.47 s
Start calculating Vnuc DD type!
Start calculating Vnuc CD type!
Start calculating Vnuc CC type!
 Time for computing nuclear attraction matrix is 21.24 s
Compute (P|Q) and use solve on the fly!
Maximum distance between P and Q is 28.75642758820560
Number of images for (P|Qn) is 1873
 Time for computing 2e2c SR integral is 0.10 s
Maximum dynamic memory per thread for 2e3c SR integrals: 0.011 GiB
Batch size for basis function pair is 396 out of 396
 === bvk cell = 0 has 100.000 % of the basis function pairs === 
 === bvk cell = 1 has 100.000 % of the basis function pairs === 
 === bvk cell = 2 has 96.212 % of the basis function pairs === 
 === bvk cell = 3 has 100.000 % of the basis function pairs === 
 === bvk cell = 4 has 100.000 % of the basis function pairs === 
 === bvk cell = 5 has 97.222 % of the basis function pairs === 
 === bvk cell = 6 has 78.788 % of the basis function pairs === 
 === bvk cell = 7 has 100.000 % of the basis function pairs === 
 === bvk cell = 8 has 96.212 % of the basis function pairs === 
 === bvk cell = 9 has 78.788 % of the basis function pairs === 
 === bvk cell = 10 has 75.758 % of the basis function pairs === 
 === bvk cell = 11 has 99.242 % of the basis function pairs === 
 === bvk cell = 12 has 100.000 % of the basis function pairs === 
 === bvk cell = 13 has 100.000 % of the basis function pairs === 
 === bvk cell = 14 has 99.242 % of the basis function pairs === 
 === bvk cell = 15 has 78.788 % of the basis function pairs === 
 === bvk cell = 16 has 100.000 % of the basis function pairs === 
 === bvk cell = 17 has 99.242 % of the basis function pairs === 
 === bvk cell = 18 has 78.788 % of the basis function pairs === 
 === bvk cell = 19 has 100.000 % of the basis function pairs === 
 === bvk cell = 20 has 99.242 % of the basis function pairs === 
 === bvk cell = 21 has 55.556 % of the basis function pairs === 
 === bvk cell = 22 has 78.788 % of the basis function pairs === 
 === bvk cell = 23 has 100.000 % of the basis function pairs === 
 === bvk cell = 24 has 78.788 % of the basis function pairs === 
 === bvk cell = 25 has 78.788 % of the basis function pairs === 
 === bvk cell = 26 has 72.475 % of the basis function pairs === 
 === bvk cell = 27 has 74.495 % of the basis function pairs === 
 === bvk cell = 28 has 100.000 % of the basis function pairs === 
 === bvk cell = 29 has 100.000 % of the basis function pairs === 
 === bvk cell = 30 has 74.495 % of the basis function pairs === 
 === bvk cell = 31 has 79.545 % of the basis function pairs === 
 === bvk cell = 32 has 75.758 % of the basis function pairs === 
 === bvk cell = 33 has 99.242 % of the basis function pairs === 
 === bvk cell = 34 has 96.212 % of the basis function pairs === 
 === bvk cell = 35 has 78.788 % of the basis function pairs === 
 === bvk cell = 36 has 99.242 % of the basis function pairs === 
 === bvk cell = 37 has 97.222 % of the basis function pairs === 
 === bvk cell = 38 has 94.949 % of the basis function pairs === 
 === bvk cell = 39 has 72.475 % of the basis function pairs === 
 === bvk cell = 40 has 96.212 % of the basis function pairs === 
 === bvk cell = 41 has 94.949 % of the basis function pairs === 
 === bvk cell = 42 has 47.727 % of the basis function pairs === 
 === bvk cell = 43 has 74.495 % of the basis function pairs === 
 === bvk cell = 44 has 78.788 % of the basis function pairs === 
 === bvk cell = 45 has 72.475 % of the basis function pairs === 
 === bvk cell = 46 has 74.495 % of the basis function pairs === 
 === bvk cell = 47 has 78.788 % of the basis function pairs === 
 === bvk cell = 48 has 100.000 % of the basis function pairs === 
 === bvk cell = 49 has 100.000 % of the basis function pairs === 
 === bvk cell = 50 has 97.222 % of the basis function pairs === 
 === bvk cell = 51 has 78.788 % of the basis function pairs === 
 === bvk cell = 52 has 100.000 % of the basis function pairs === 
 === bvk cell = 53 has 100.000 % of the basis function pairs === 
 === bvk cell = 54 has 94.949 % of the basis function pairs === 
 === bvk cell = 55 has 100.000 % of the basis function pairs === 
 === bvk cell = 56 has 97.222 % of the basis function pairs === 
 === bvk cell = 57 has 94.949 % of the basis function pairs === 
 === bvk cell = 58 has 72.475 % of the basis function pairs === 
 === bvk cell = 59 has 99.242 % of the basis function pairs === 
 === bvk cell = 60 has 78.788 % of the basis function pairs === 
 === bvk cell = 61 has 100.000 % of the basis function pairs === 
 === bvk cell = 62 has 99.242 % of the basis function pairs === 
 === bvk cell = 63 has 55.556 % of the basis function pairs === 
Static memory requirement for 2e3c SR integrals: 0.016 GB
There are 1 munu batches for computing 2e3c SR integrals with latsum
There are 2 Q batches for computing 2e3c SR integrals with latsum
 Time for computing 2e3c SR integral (CD) is 0.84 s
Maximum dynamic memory per thread for 2e3c SR integrals: 0.004 GiB
Batch size for basis function pair is 606 out of 606
 === bvk cell = 0 has 100.000 % of the basis function pairs === 
 === bvk cell = 1 has 86.469 % of the basis function pairs === 
 === bvk cell = 2 has 4.455 % of the basis function pairs === 
 === bvk cell = 3 has 67.822 % of the basis function pairs === 
 === bvk cell = 4 has 86.469 % of the basis function pairs === 
 === bvk cell = 5 has 15.842 % of the basis function pairs === 
 === bvk cell = 6 has 3.135 % of the basis function pairs === 
 === bvk cell = 7 has 75.248 % of the basis function pairs === 
 === bvk cell = 8 has 4.455 % of the basis function pairs === 
 === bvk cell = 9 has 3.135 % of the basis function pairs === 
 === bvk cell = 10 has 0.165 % of the basis function pairs === 
 === bvk cell = 11 has 7.426 % of the basis function pairs === 
 === bvk cell = 12 has 67.822 % of the basis function pairs === 
 === bvk cell = 13 has 75.248 % of the basis function pairs === 
 === bvk cell = 14 has 7.426 % of the basis function pairs === 
 === bvk cell = 15 has 3.630 % of the basis function pairs === 
 === bvk cell = 16 has 75.248 % of the basis function pairs === 
 === bvk cell = 17 has 7.426 % of the basis function pairs === 
 === bvk cell = 18 has 3.630 % of the basis function pairs === 
 === bvk cell = 19 has 67.822 % of the basis function pairs === 
 === bvk cell = 20 has 7.426 % of the basis function pairs === 
 === bvk cell = 21 has 0.000 % of the basis function pairs === 
 === bvk cell = 22 has 3.135 % of the basis function pairs === 
 === bvk cell = 23 has 32.013 % of the basis function pairs === 
 === bvk cell = 24 has 3.630 % of the basis function pairs === 
 === bvk cell = 25 has 3.135 % of the basis function pairs === 
 === bvk cell = 26 has 0.000 % of the basis function pairs === 
 === bvk cell = 27 has 0.000 % of the basis function pairs === 
 === bvk cell = 28 has 67.822 % of the basis function pairs === 
 === bvk cell = 29 has 32.013 % of the basis function pairs === 
 === bvk cell = 30 has 0.000 % of the basis function pairs === 
 === bvk cell = 31 has 29.208 % of the basis function pairs === 
 === bvk cell = 32 has 0.165 % of the basis function pairs === 
 === bvk cell = 33 has 7.426 % of the basis function pairs === 
 === bvk cell = 34 has 4.455 % of the basis function pairs === 
 === bvk cell = 35 has 3.135 % of the basis function pairs === 
 === bvk cell = 36 has 7.426 % of the basis function pairs === 
 === bvk cell = 37 has 15.842 % of the basis function pairs === 
 === bvk cell = 38 has 4.290 % of the basis function pairs === 
 === bvk cell = 39 has 0.000 % of the basis function pairs === 
 === bvk cell = 40 has 4.455 % of the basis function pairs === 
 === bvk cell = 41 has 4.290 % of the basis function pairs === 
 === bvk cell = 42 has 0.000 % of the basis function pairs === 
 === bvk cell = 43 has 0.000 % of the basis function pairs === 
 === bvk cell = 44 has 3.135 % of the basis function pairs === 
 === bvk cell = 45 has 0.000 % of the basis function pairs === 
 === bvk cell = 46 has 0.000 % of the basis function pairs === 
 === bvk cell = 47 has 3.630 % of the basis function pairs === 
 === bvk cell = 48 has 75.248 % of the basis function pairs === 
 === bvk cell = 49 has 86.469 % of the basis function pairs === 
 === bvk cell = 50 has 15.842 % of the basis function pairs === 
 === bvk cell = 51 has 3.135 % of the basis function pairs === 
 === bvk cell = 52 has 86.469 % of the basis function pairs === 
 === bvk cell = 53 has 52.145 % of the basis function pairs === 
 === bvk cell = 54 has 4.290 % of the basis function pairs === 
 === bvk cell = 55 has 32.013 % of the basis function pairs === 
 === bvk cell = 56 has 15.842 % of the basis function pairs === 
 === bvk cell = 57 has 4.290 % of the basis function pairs === 
 === bvk cell = 58 has 0.000 % of the basis function pairs === 
 === bvk cell = 59 has 7.426 % of the basis function pairs === 
 === bvk cell = 60 has 3.135 % of the basis function pairs === 
 === bvk cell = 61 has 32.013 % of the basis function pairs === 
 === bvk cell = 62 has 7.426 % of the basis function pairs === 
 === bvk cell = 63 has 0.000 % of the basis function pairs === 
Static memory requirement for 2e3c SR integrals: 0.006 GB
There are 1 munu batches for computing 2e3c SR integrals with latsum
There are 2 Q batches for computing 2e3c SR integrals with latsum
 Time for computing 2e3c SR integral (CC) is 0.09 s
 Time for RI-J this SCF iteration is 3.16 s
 Time for RI-J this SCF iteration is 2.12 s
 ----------------------------------------------
 Guess energy: -107.3872537223
 ----------------------------------------------
 Guess energy components:
 DFT Correlation    Energy =  -0.39374219113416
 DFT Exchange       Energy = -12.24671898251607
 Kinetic            Energy = 109.17240415352801
 Nuclear Attraction Energy = -202.62575829533827
 Nuclear Repulsion  Energy = -31.10949437582012
 Total Coulomb      Energy =  29.81605596895393
 ----------------------------------------------
  Cycle       Energy        RMS Gradient
 ----------------------------------------------
 Time for RI-J this SCF iteration is 2.11 s
    1    -107.4171554398      2.63e-01   Descent step
 Energy components after cycle 1:
 DFT Correlation    Energy =  -0.39318855352208
 DFT Exchange       Energy = -12.16458032703215
 Kinetic            Energy = 108.55586449689174
 Nuclear Attraction Energy = -201.55064060035244
 Nuclear Repulsion  Energy = -31.10949437582012
 Total Coulomb      Energy =  29.24488392008396
 Time for RI-J this SCF iteration is 2.14 s
    2    -107.4370360833      1.88e-01   Descent step
 Energy components after cycle 2:
 DFT Correlation    Energy =  -0.39282465528929
 DFT Exchange       Energy = -12.08390346198123
 Kinetic            Energy = 107.95126223394209
 Nuclear Attraction Energy = -200.48663662450562
 Nuclear Repulsion  Energy = -31.10949437582012
 Total Coulomb      Energy =  28.68456080034197
 Time for RI-J this SCF iteration is 2.11 s
    3    -107.4472597719      1.16e-01   Descent step
 Energy components after cycle 3:
 DFT Correlation    Energy =  -0.39262764702776
 DFT Exchange       Energy = -12.00477272414235
 Kinetic            Energy = 107.36354956980631
 Nuclear Attraction Energy = -199.43939343773329
 Nuclear Repulsion  Energy = -31.10949437582012
 Total Coulomb      Energy =  28.13547884306359
 Time for RI-J this SCF iteration is 2.14 s
    4    -107.4490464826      4.51e-02   Normal BFGS step
 Energy components after cycle 4:
 DFT Correlation    Energy =  -0.39242526414481
 DFT Exchange       Energy = -11.96045955444001
 Kinetic            Energy = 107.11206189186044
 Nuclear Attraction Energy = -198.92563716146844
 Nuclear Repulsion  Energy = -31.10949437582012
 Total Coulomb      Energy =  27.82690798139810
 Time for RI-J this SCF iteration is 2.11 s
    5    -107.4490505378      1.32e-03   Normal BFGS step
 Energy components after cycle 5:
 DFT Correlation    Energy =  -0.39243570005907
 DFT Exchange       Energy = -11.96106952871339
 Kinetic            Energy = 107.10451493829538
 Nuclear Attraction Energy = -198.92239623275907
 Nuclear Repulsion  Energy = -31.10949437582012
 Total Coulomb      Energy =  27.83183036123216
 Time for RI-J this SCF iteration is 2.11 s
    6    -107.4490505702      7.59e-05   Normal BFGS step
 Energy components after cycle 6:
 DFT Correlation    Energy =  -0.39243434326268
 DFT Exchange       Energy = -11.96118072647012
 Kinetic            Energy = 107.10616475809246
 Nuclear Attraction Energy = -198.92437975493030
 Nuclear Repulsion  Energy = -31.10949437582012
 Total Coulomb      Energy =  27.83227387215065
 Time for RI-J this SCF iteration is 2.13 s
    7    -107.4490505721      2.53e-05   Normal BFGS step
 Energy components after cycle 7:
 DFT Correlation    Energy =  -0.39243423615752
 DFT Exchange       Energy = -11.96116573167563
 Kinetic            Energy = 107.10612205063302
 Nuclear Attraction Energy = -198.92428749813473
 Nuclear Repulsion  Energy = -31.10949437582012
 Total Coulomb      Energy =  27.83220921905568
 Time for RI-J this SCF iteration is 2.11 s
    8    -107.4490505721      2.99e-06   Normal BFGS step
 Energy components after cycle 8:
 DFT Correlation    Energy =  -0.39243428117761
 DFT Exchange       Energy = -11.96116257271353
 Kinetic            Energy = 107.10606190924257
 Nuclear Attraction Energy = -198.92421934938508
 Nuclear Repulsion  Energy = -31.10949437582012
 Total Coulomb      Energy =  27.83219809771117
    8    -107.4490505721      2.99e-06  Convergence criterion met
 ----------------------------------------------
 Final energy components:
 DFT Correlation    Energy =  -0.39243428117761
 DFT Exchange       Energy = -11.96116257271353
 Kinetic            Energy = 107.10606190924257
 Nuclear Attraction Energy = -198.92421934938508
 Nuclear Repulsion  Energy = -31.10949437582012
 Total Coulomb      Energy =  27.83219809771117
 ----------------------------------------------
 Final energy is -107.4490505721

 SCF time:   CPU 1951.56s  wall 82.00s 
 Total wall time for computing Kinetic: 0.00 s (10)
 Total wall time for computing RIJ-BIGMEM: 22.24 s (10)
 Total wall time for computing RSDF Vnuc: 0.00 s (10)
 Total wall time for computing DFT XC: 13.38 s (10)
 ---------------------------------------------------------------------------
                        Orbital Energies (a.u.)
 ---------------------------------------------------------------------------
 == 0-th k-point (-0.20729,-0.20729,-0.20729) occupation: 6==
 -23.85907 -1.46517 -0.68760 -0.01444 0.03248 0.03248 0.42045 0.70128 0.80228 0.80228
 1.04868 1.19914 1.19914 1.44914 1.44914 1.52695 1.81444 2.37124 2.37124 2.38228
 2.70880 2.91918 2.91918 3.35719 4.20091 4.20091 4.30859 5.62120 6.32312 6.32312
 7.05367 7.08371 7.09489 7.09489 7.14085 7.14085 7.14998 7.31106 8.59847 8.59847
 8.78688 8.92362 8.92362 16.13902 58.49649
 == 1-th k-point (-0.00000,0.00000,-0.41458) occupation: 6==
 -23.85906 -1.46484 -0.68389 -0.01673 0.01782 0.01782 0.46013 0.77192 0.80355 0.80355
 1.32519 1.32520 1.35648 1.73194 1.74953 1.74953 2.17966 2.19161 2.24942 2.62284
 2.87236 2.87236 3.27638 4.45361 4.61554 4.61554 5.47305 6.32108 6.32108 7.00363
 7.08371 7.08546 7.12318 7.12318 7.20941 7.20941 7.22917 8.44052 8.45075 8.89626
 8.89626 8.90219 16.01401 58.26919
 == 2-th k-point (0.20729,0.20729,-0.62187) occupation: 6==
 -23.85902 -1.46374 -0.67404 -0.05188 -0.00673 0.01335 0.51849 0.62682 0.73345 0.76678
 1.03814 1.32548 1.44470 1.46973 1.67441 1.75825 1.88111 2.32400 2.46804 2.68794
 2.72578 2.82741 3.40567 4.08040 4.29378 4.32485 4.92235 6.45749 6.52509 6.69385
 7.08811 7.09219 7.11134 7.11337 7.19305 7.22396 7.24864 8.54236 8.72964 8.80286
 8.85582 8.96852 15.97009 57.42081
 == 3-th k-point (0.41458,0.41458,-0.82916) occupation: 6==
 -23.85903 -1.46407 -0.67808 -0.03290 -0.01294 0.02769 0.48593 0.62175 0.76037 0.76269
 1.15346 1.25708 1.43473 1.49222 1.76532 1.90834 2.11386 2.20050 2.36958 2.67766
 2.74654 2.85454 3.41713 3.86915 4.37248 4.51204 5.09353 6.36241 6.83621 6.85304
 7.08371 7.08486 7.10352 7.10394 7.18930 7.20819 7.28819 8.45273 8.75873 8.77765
 8.85155 8.91145 15.78778 57.69837
 == 4-th k-point (-0.00000,-0.41458,-0.00000) occupation: 6==
 -23.85906 -1.46484 -0.68389 -0.01673 0.01782 0.01782 0.46013 0.77192 0.80355 0.80355
 1.32519 1.32520 1.35648 1.73194 1.74953 1.74953 2.17966 2.19161 2.24942 2.62284
 2.87236 2.87236 3.27638 4.45361 4.61554 4.61554 5.47305 6.32108 6.32108 7.00363
 7.08371 7.08546 7.12318 7.12318 7.20941 7.20941 7.22917 8.44052 8.45075 8.89626
 8.89626 8.90219 16.01401 58.26919
 == 5-th k-point (0.20729,-0.20729,-0.20729) occupation: 6==
 -23.85907 -1.46517 -0.68760 -0.01444 0.03248 0.03248 0.42045 0.70128 0.80228 0.80228
 1.04868 1.19914 1.19915 1.44914 1.44914 1.52695 1.81444 2.37124 2.37124 2.38227
 2.70880 2.91918 2.91919 3.35719 4.20091 4.20091 4.30859 5.62120 6.32312 6.32312
 7.05367 7.08371 7.09489 7.09489 7.14085 7.14085 7.14998 7.31106 8.59847 8.59847
 8.78688 8.92362 8.92362 16.13902 58.49649
 == 6-th k-point (0.41458,0.00000,-0.41458) occupation: 6==
 -23.85903 -1.46407 -0.67808 -0.03290 -0.01294 0.02769 0.48593 0.62175 0.76037 0.76269
 1.15346 1.25708 1.43473 1.49222 1.76532 1.90834 2.11386 2.20050 2.36958 2.67766
 2.74654 2.85453 3.41713 3.86915 4.37248 4.51203 5.09353 6.36241 6.83620 6.85304
 7.08371 7.08486 7.10352 7.10394 7.18930 7.20819 7.28818 8.45273 8.75873 8.77765
 8.85155 8.91145 15.78778 57.69837
 == 7-th k-point (0.62187,0.20729,-0.62187) occupation: 6==
 -23.85902 -1.46374 -0.67404 -0.05188 -0.00673 0.01335 0.51849 0.62682 0.73345 0.76679
 1.03813 1.32548 1.44470 1.46973 1.67442 1.75825 1.88111 2.32400 2.46804 2.68794
 2.72578 2.82741 3.40567 4.08040 4.29378 4.32485 4.92235 6.45749 6.52509 6.69385
 7.08811 7.09219 7.11134 7.11337 7.19305 7.22396 7.24864 8.54236 8.72964 8.80286
 8.85582 8.96852 15.97009 57.42081
 == 8-th k-point (0.20729,-0.62187,0.20729) occupation: 6==
 -23.85902 -1.46374 -0.67404 -0.05188 -0.00673 0.01335 0.51849 0.62682 0.73345 0.76678
 1.03814 1.32548 1.44470 1.46973 1.67441 1.75825 1.88111 2.32400 2.46804 2.68794
 2.72578 2.82741 3.40567 4.08040 4.29378 4.32485 4.92235 6.45749 6.52509 6.69385
 7.08811 7.09219 7.11134 7.11337 7.19305 7.22396 7.24864 8.54236 8.72964 8.80286
 8.85582 8.96852 15.97009 57.42081
 == 9-th k-point (0.41458,-0.41458,-0.00000) occupation: 6==
 -23.85903 -1.46407 -0.67808 -0.03290 -0.01294 0.02769 0.48593 0.62175 0.76037 0.76269
 1.15346 1.25708 1.43473 1.49222 1.76532 1.90834 2.11386 2.20050 2.36958 2.67766
 2.74654 2.85453 3.41713 3.86915 4.37248 4.51203 5.09353 6.36241 6.83620 6.85304
 7.08371 7.08486 7.10352 7.10394 7.18930 7.20819 7.28818 8.45273 8.75873 8.77765
 8.85155 8.91145 15.78778 57.69837
 == 10-th k-point (0.62187,-0.20729,-0.20729) occupation: 6==
 -23.85902 -1.46374 -0.67404 -0.05188 -0.00673 0.01335 0.51849 0.62682 0.73345 0.76678
 1.03814 1.32548 1.44470 1.46973 1.67441 1.75825 1.88111 2.32400 2.46804 2.68794
 2.72578 2.82741 3.40567 4.08040 4.29378 4.32485 4.92235 6.45749 6.52509 6.69385
 7.08811 7.09219 7.11134 7.11337 7.19305 7.22396 7.24864 8.54236 8.72964 8.80286
 8.85582 8.96852 15.97009 57.42081
 == 11-th k-point (0.82916,0.00000,-0.41458) occupation: 6==
 -23.85903 -1.46341 -0.66986 -0.04093 -0.04093 0.00702 0.59493 0.59493 0.68577 0.75112
 1.13955 1.13955 1.38190 1.48266 1.79012 1.79012 2.18021 2.21731 2.47122 2.49960
 2.73800 2.73800 3.52204 4.18324 4.18324 4.27299 4.93981 6.57429 6.57429 6.65535
 7.08546 7.08881 7.09120 7.09120 7.23209 7.23209 7.30329 8.46276 8.68844 8.81676
 8.81676 9.05732 16.05293 57.56472
 == 12-th k-point (0.41458,-0.82916,0.41458) occupation: 6==
 -23.85903 -1.46407 -0.67808 -0.03290 -0.01294 0.02769 0.48593 0.62175 0.76037 0.76269
 1.15346 1.25708 1.43473 1.49222 1.76532 1.90834 2.11386 2.20050 2.36958 2.67766
 2.74654 2.85454 3.41713 3.86915 4.37248 4.51204 5.09353 6.36241 6.83621 6.85304
 7.08371 7.08486 7.10352 7.10394 7.18930 7.20819 7.28819 8.45273 8.75873 8.77765
 8.85155 8.91145 15.78778 57.69837
 == 13-th k-point (0.62187,-0.62187,0.20729) occupation: 6==
 -23.85902 -1.46374 -0.67404 -0.05188 -0.00673 0.01335 0.51849 0.62682 0.73345 0.76679
 1.03813 1.32548 1.44470 1.46973 1.67442 1.75825 1.88111 2.32400 2.46804 2.68794
 2.72578 2.82741 3.40567 4.08040 4.29378 4.32485 4.92235 6.45749 6.52509 6.69385
 7.08811 7.09219 7.11134 7.11337 7.19305 7.22396 7.24864 8.54236 8.72964 8.80286
 8.85582 8.96852 15.97009 57.42081
 == 14-th k-point (0.82916,-0.41458,-0.00000) occupation: 6==
 -23.85903 -1.46341 -0.66986 -0.04093 -0.04093 0.00702 0.59493 0.59493 0.68577 0.75112
 1.13955 1.13955 1.38190 1.48266 1.79012 1.79012 2.18021 2.21731 2.47122 2.49960
 2.73800 2.73800 3.52204 4.18324 4.18324 4.27299 4.93981 6.57429 6.57429 6.65535
 7.08546 7.08881 7.09120 7.09120 7.23209 7.23209 7.30329 8.46276 8.68844 8.81676
 8.81676 9.05732 16.05293 57.56472
 == 15-th k-point (1.03645,-0.20729,-0.20729) occupation: 6==
 -23.85902 -1.46374 -0.67404 -0.05188 -0.00673 0.01335 0.51849 0.62682 0.73345 0.76678
 1.03814 1.32548 1.44470 1.46973 1.67441 1.75825 1.88111 2.32400 2.46804 2.68794
 2.72578 2.82741 3.40567 4.08040 4.29378 4.32485 4.92235 6.45749 6.52509 6.69385
 7.08811 7.09219 7.11134 7.11337 7.19305 7.22396 7.24864 8.54236 8.72964 8.80286
 8.85582 8.96852 15.97009 57.42081
 == 16-th k-point (-0.41458,0.00000,0.00000) occupation: 6==
 -23.85906 -1.46484 -0.68389 -0.01673 0.01782 0.01782 0.46013 0.77192 0.80355 0.80355
 1.32519 1.32520 1.35648 1.73194 1.74953 1.74953 2.17966 2.19161 2.24942 2.62284
 2.87236 2.87236 3.27638 4.45361 4.61554 4.61554 5.47305 6.32108 6.32108 7.00363
 7.08371 7.08546 7.12318 7.12318 7.20941 7.20941 7.22917 8.44052 8.45075 8.89626
 8.89626 8.90219 16.01401 58.26919
 == 17-th k-point (-0.20729,0.20729,-0.20729) occupation: 6==
 -23.85907 -1.46517 -0.68760 -0.01444 0.03248 0.03248 0.42045 0.70128 0.80228 0.80228
 1.04868 1.19914 1.19915 1.44914 1.44914 1.52695 1.81444 2.37124 2.37124 2.38227
 2.70880 2.91918 2.91919 3.35719 4.20091 4.20091 4.30859 5.62120 6.32312 6.32312
 7.05367 7.08371 7.09489 7.09489 7.14085 7.14085 7.14998 7.31106 8.59847 8.59847
 8.78688 8.92362 8.92362 16.13902 58.49649
 == 18-th k-point (-0.00000,0.41458,-0.41458) occupation: 6==
 -23.85903 -1.46407 -0.67808 -0.03290 -0.01294 0.02769 0.48593 0.62175 0.76037 0.76269
 1.15346 1.25708 1.43473 1.49222 1.76532 1.90834 2.11386 2.20050 2.36958 2.67766
 2.74654 2.85453 3.41713 3.86915 4.37248 4.51203 5.09353 6.36241 6.83620 6.85304
 7.08371 7.08486 7.10352 7.10394 7.18930 7.20819 7.28818 8.45273 8.75873 8.77765
 8.85155 8.91145 15.78778 57.69837
 == 19-th k-point (0.20729,0.62187,-0.62187) occupation: 6==
 -23.85902 -1.46374 -0.67404 -0.05188 -0.00673 0.01335 0.51849 0.62682 0.73345 0.76679
 1.03813 1.32548 1.44470 1.46973 1.67442 1.75825 1.88111 2.32400 2.46804 2.68794
 2.72578 2.82741 3.40567 4.08040 4.29378 4.32485 4.92235 6.45749 6.52509 6.69385
 7.08811 7.09219 7.11134 7.11337 7.19305 7.22396 7.24864 8.54236 8.72964 8.80286
 8.85582 8.96852 15.97009 57.42081
 == 20-th k-point (-0.20729,-0.20729,0.20729) occupation: 6==
 -23.85907 -1.46517 -0.68760 -0.01444 0.03248 0.03248 0.42045 0.70128 0.80228 0.80228
 1.04868 1.19914 1.19915 1.44914 1.44914 1.52695 1.81444 2.37124 2.37124 2.38227
 2.70880 2.91918 2.91919 3.35719 4.20091 4.20091 4.30859 5.62120 6.32312 6.32312
 7.05367 7.08371 7.09489 7.09489 7.14085 7.14085 7.14998 7.31106 8.59847 8.59847
 8.78688 8.92362 8.92362 16.13902 58.49649
 == 21-th k-point (0.00000,0.00000,0.00000) occupation: 6==
 -23.85908 -1.46630 -0.69551 0.03686 0.03686 0.03686 0.37357 0.93366 0.93366 0.93366
 1.75497 1.75497 1.75497 2.14838 2.18337 2.18337 2.18337 2.18398 2.18398 2.57592
 4.75751 4.75751 4.75751 6.06110 6.17043 6.17043 6.17043 7.08371 7.08371 7.08371
 7.08546 7.20018 7.20018 7.20018 8.44261 8.44261 8.44261 8.44621 8.44621 14.92292
 58.84269
 == 22-th k-point (0.20729,0.20729,-0.20729) occupation: 6==
 -23.85907 -1.46517 -0.68760 -0.01444 0.03248 0.03248 0.42045 0.70128 0.80228 0.80228
 1.04868 1.19914 1.19915 1.44914 1.44914 1.52695 1.81444 2.37124 2.37124 2.38227
 2.70880 2.91918 2.91919 3.35719 4.20091 4.20091 4.30859 5.62120 6.32312 6.32312
 7.05367 7.08371 7.09489 7.09489 7.14085 7.14085 7.14998 7.31106 8.59847 8.59847
 8.78688 8.92362 8.92362 16.13902 58.49649
 == 23-th k-point (0.41458,0.41458,-0.41458) occupation: 6==
 -23.85902 -1.46400 -0.67907 -0.05749 0.02836 0.02836 0.43658 0.66412 0.73913 0.73913
 1.31202 1.31202 1.33933 1.51687 1.51687 1.81849 1.82374 2.41362 2.41362 2.73425
 2.90453 3.00761 3.00761 3.95106 3.95106 4.21450 4.87174 6.58821 6.58821 6.83646
 7.08079 7.08079 7.08371 7.09353 7.10583 7.10583 7.29891 8.63197 8.63197 8.81572
 8.95828 8.95828 15.16678 57.44488
 == 24-th k-point (0.00000,-0.41458,0.41458) occupation: 6==
 -23.85903 -1.46407 -0.67808 -0.03290 -0.01294 0.02769 0.48593 0.62175 0.76037 0.76269
 1.15346 1.25708 1.43473 1.49222 1.76532 1.90834 2.11386 2.20050 2.36958 2.67766
 2.74654 2.85453 3.41713 3.86915 4.37248 4.51203 5.09353 6.36241 6.83620 6.85304
 7.08371 7.08486 7.10352 7.10394 7.18930 7.20819 7.28818 8.45273 8.75873 8.77765
 8.85155 8.91145 15.78778 57.69837
 == 25-th k-point (0.20729,-0.20729,0.20729) occupation: 6==
 -23.85907 -1.46517 -0.68760 -0.01444 0.03248 0.03248 0.42045 0.70128 0.80228 0.80228
 1.04868 1.19914 1.19915 1.44914 1.44914 1.52695 1.81444 2.37124 2.37124 2.38227
 2.70880 2.91918 2.91919 3.35719 4.20091 4.20091 4.30859 5.62120 6.32312 6.32312
 7.05367 7.08371 7.09489 7.09489 7.14085 7.14085 7.14998 7.31106 8.59847 8.59847
 8.78688 8.92362 8.92362 16.13902 58.49649
 == 26-th k-point (0.41458,-0.00000,0.00000) occupation: 6==
 -23.85906 -1.46484 -0.68389 -0.01673 0.01782 0.01782 0.46013 0.77192 0.80355 0.80355
 1.32519 1.32520 1.35648 1.73194 1.74953 1.74953 2.17966 2.19161 2.24942 2.62284
 2.87236 2.87236 3.27638 4.45361 4.61554 4.61554 5.47305 6.32108 6.32108 7.00363
 7.08371 7.08546 7.12318 7.12318 7.20941 7.20941 7.22917 8.44052 8.45075 8.89626
 8.89626 8.90219 16.01401 58.26919
 == 27-th k-point (0.62187,0.20729,-0.20729) occupation: 6==
 -23.85902 -1.46374 -0.67404 -0.05188 -0.00673 0.01335 0.51849 0.62682 0.73345 0.76679
 1.03813 1.32548 1.44470 1.46973 1.67442 1.75825 1.88111 2.32400 2.46804 2.68794
 2.72578 2.82741 3.40567 4.08040 4.29378 4.32485 4.92235 6.45749 6.52509 6.69385
 7.08811 7.09219 7.11134 7.11337 7.19305 7.22396 7.24864 8.54236 8.72964 8.80286
 8.85582 8.96852 15.97009 57.42081
 == 28-th k-point (0.20729,-0.62187,0.62187) occupation: 6==
 -23.85902 -1.46374 -0.67404 -0.05188 -0.00673 0.01335 0.51849 0.62682 0.73345 0.76679
 1.03813 1.32548 1.44470 1.46973 1.67442 1.75825 1.88111 2.32400 2.46804 2.68794
 2.72578 2.82741 3.40567 4.08040 4.29378 4.32485 4.92235 6.45749 6.52509 6.69385
 7.08811 7.09219 7.11134 7.11337 7.19305 7.22396 7.24864 8.54236 8.72964 8.80286
 8.85582 8.96852 15.97009 57.42081
 == 29-th k-point (0.41458,-0.41458,0.41458) occupation: 6==
 -23.85902 -1.46400 -0.67907 -0.05749 0.02836 0.02836 0.43658 0.66412 0.73913 0.73913
 1.31202 1.31202 1.33933 1.51687 1.51687 1.81849 1.82374 2.41362 2.41362 2.73425
 2.90453 3.00761 3.00761 3.95106 3.95106 4.21450 4.87174 6.58821 6.58821 6.83646
 7.08079 7.08079 7.08371 7.09353 7.10583 7.10583 7.29891 8.63197 8.63197 8.81572
 8.95828 8.95828 15.16678 57.44488
 == 30-th k-point (0.62187,-0.20729,0.20729) occupation: 6==
 -23.85902 -1.46374 -0.67404 -0.05188 -0.00673 0.01335 0.51849 0.62682 0.73345 0.76679
 1.03813 1.32548 1.44470 1.46973 1.67442 1.75825 1.88111 2.32400 2.46804 2.68794
 2.72578 2.82741 3.40567 4.08040 4.29378 4.32485 4.92235 6.45749 6.52509 6.69385
 7.08811 7.09219 7.11134 7.11337 7.19305 7.22396 7.24864 8.54236 8.72964 8.80286
 8.85582 8.96852 15.97009 57.42081
 == 31-th k-point (0.82916,-0.00000,0.00000) occupation: 6==
 -23.85900 -1.46345 -0.66880 -0.07588 -0.00055 -0.00055 0.58584 0.68381 0.78971 0.78971
 1.33484 1.52458 1.71347 1.71347 2.17595 2.19926 2.21731 2.21731 2.24663 2.24663
 2.37308 2.51342 3.36552 4.69102 4.70399 4.70786 4.70786 6.52309 6.52309 7.05346
 7.08371 7.08546 7.23725 7.24261 7.24261 7.40754 7.40755 8.43845 8.45532 8.46276
 8.46276 9.01180 15.88720 57.10981
 == 32-th k-point (-0.62187,0.20729,0.20729) occupation: 6==
 -23.85902 -1.46374 -0.67404 -0.05188 -0.00673 0.01335 0.51849 0.62682 0.73345 0.76678
 1.03814 1.32548 1.44470 1.46973 1.67441 1.75825 1.88111 2.32400 2.46804 2.68794
 2.72578 2.82741 3.40567 4.08040 4.29378 4.32485 4.92235 6.45749 6.52509 6.69385
 7.08811 7.09219 7.11134 7.11337 7.19305 7.22396 7.24864 8.54236 8.72964 8.80286
 8.85582 8.96852 15.97009 57.42081
 == 33-th k-point (-0.41458,0.41458,0.00000) occupation: 6==
 -23.85903 -1.46407 -0.67808 -0.03290 -0.01294 0.02769 0.48593 0.62175 0.76037 0.76269
 1.15346 1.25708 1.43473 1.49222 1.76532 1.90834 2.11386 2.20050 2.36958 2.67766
 2.74654 2.85453 3.41713 3.86915 4.37248 4.51203 5.09353 6.36241 6.83620 6.85304
 7.08371 7.08486 7.10352 7.10394 7.18930 7.20819 7.28818 8.45273 8.75873 8.77765
 8.85155 8.91145 15.78778 57.69837
 == 34-th k-point (-0.20729,0.62187,-0.20729) occupation: 6==
 -23.85902 -1.46374 -0.67404 -0.05188 -0.00673 0.01335 0.51849 0.62682 0.73345 0.76678
 1.03814 1.32548 1.44470 1.46973 1.67441 1.75825 1.88111 2.32400 2.46804 2.68794
 2.72578 2.82741 3.40567 4.08040 4.29378 4.32485 4.92235 6.45749 6.52509 6.69385
 7.08811 7.09219 7.11134 7.11337 7.19305 7.22396 7.24864 8.54236 8.72964 8.80286
 8.85582 8.96852 15.97009 57.42081
 == 35-th k-point (-0.00000,0.82916,-0.41458) occupation: 6==
 -23.85903 -1.46341 -0.66986 -0.04093 -0.04093 0.00702 0.59493 0.59493 0.68577 0.75112
 1.13955 1.13955 1.38190 1.48266 1.79012 1.79012 2.18021 2.21731 2.47122 2.49960
 2.73800 2.73800 3.52204 4.18324 4.18324 4.27299 4.93981 6.57429 6.57429 6.65535
 7.08546 7.08881 7.09120 7.09120 7.23209 7.23209 7.30329 8.46276 8.68844 8.81676
 8.81676 9.05732 16.05293 57.56472
 == 36-th k-point (-0.41458,-0.00000,0.41458) occupation: 6==
 -23.85903 -1.46407 -0.67808 -0.03290 -0.01294 0.02769 0.48593 0.62175 0.76037 0.76269
 1.15346 1.25708 1.43473 1.49222 1.76532 1.90834 2.11386 2.20050 2.36958 2.67766
 2.74654 2.85453 3.41713 3.86915 4.37248 4.51203 5.09353 6.36241 6.83620 6.85304
 7.08371 7.08486 7.10352 7.10394 7.18930 7.20819 7.28818 8.45273 8.75873 8.77765
 8.85155 8.91145 15.78778 57.69837
 == 37-th k-point (-0.20729,0.20729,0.20729) occupation: 6==
 -23.85907 -1.46517 -0.68760 -0.01444 0.03248 0.03248 0.42045 0.70128 0.80228 0.80228
 1.04868 1.19914 1.19915 1.44914 1.44914 1.52695 1.81444 2.37124 2.37124 2.38227
 2.70880 2.91918 2.91919 3.35719 4.20091 4.20091 4.30859 5.62120 6.32312 6.32312
 7.05367 7.08371 7.09489 7.09489 7.14085 7.14085 7.14998 7.31106 8.59847 8.59847
 8.78688 8.92362 8.92362 16.13902 58.49649
 == 38-th k-point (0.00000,0.41458,0.00000) occupation: 6==
 -23.85906 -1.46484 -0.68389 -0.01673 0.01782 0.01782 0.46013 0.77192 0.80355 0.80355
 1.32519 1.32520 1.35648 1.73194 1.74953 1.74953 2.17966 2.19161 2.24942 2.62284
 2.87236 2.87236 3.27638 4.45361 4.61554 4.61554 5.47305 6.32108 6.32108 7.00363
 7.08371 7.08546 7.12318 7.12318 7.20941 7.20941 7.22917 8.44052 8.45075 8.89626
 8.89626 8.90219 16.01401 58.26919
 == 39-th k-point (0.20729,0.62187,-0.20729) occupation: 6==
 -23.85902 -1.46374 -0.67404 -0.05188 -0.00673 0.01335 0.51849 0.62682 0.73345 0.76679
 1.03813 1.32548 1.44470 1.46973 1.67442 1.75825 1.88111 2.32400 2.46804 2.68794
 2.72578 2.82741 3.40567 4.08040 4.29378 4.32485 4.92235 6.45749 6.52509 6.69385
 7.08811 7.09219 7.11134 7.11337 7.19305 7.22396 7.24864 8.54236 8.72964 8.80286
 8.85582 8.96852 15.97009 57.42081
 == 40-th k-point (-0.20729,-0.20729,0.62187) occupation: 6==
 -23.85902 -1.46374 -0.67404 -0.05188 -0.00673 0.01335 0.51849 0.62682 0.73345 0.76678
 1.03814 1.32548 1.44470 1.46973 1.67441 1.75825 1.88111 2.32400 2.46804 2.68794
 2.72578 2.82741 3.40567 4.08040 4.29378 4.32485 4.92235 6.45749 6.52509 6.69385
 7.08811 7.09219 7.11134 7.11337 7.19305 7.22396 7.24864 8.54236 8.72964 8.80286
 8.85582 8.96852 15.97009 57.42081
 == 41-th k-point (0.00000,-0.00000,0.41458) occupation: 6==
 -23.85906 -1.46484 -0.68389 -0.01673 0.01782 0.01782 0.46013 0.77192 0.80355 0.80355
 1.32519 1.32520 1.35648 1.73194 1.74953 1.74953 2.17966 2.19161 2.24942 2.62284
 2.87236 2.87236 3.27638 4.45361 4.61554 4.61554 5.47305 6.32108 6.32108 7.00363
 7.08371 7.08546 7.12318 7.12318 7.20941 7.20941 7.22917 8.44052 8.45075 8.89626
 8.89626 8.90219 16.01401 58.26919
 == 42-th k-point (0.20729,0.20729,0.20729) occupation: 6==
 -23.85907 -1.46517 -0.68760 -0.01444 0.03248 0.03248 0.42045 0.70128 0.80228 0.80228
 1.04868 1.19914 1.19914 1.44914 1.44914 1.52695 1.81444 2.37124 2.37124 2.38228
 2.70880 2.91918 2.91918 3.35719 4.20091 4.20091 4.30859 5.62120 6.32312 6.32312
 7.05367 7.08371 7.09489 7.09489 7.14085 7.14085 7.14998 7.31106 8.59847 8.59847
 8.78688 8.92362 8.92362 16.13902 58.49649
 == 43-th k-point (0.41458,0.41458,0.00000) occupation: 6==
 -23.85903 -1.46407 -0.67808 -0.03290 -0.01294 0.02769 0.48593 0.62175 0.76037 0.76269
 1.15346 1.25708 1.43473 1.49222 1.76532 1.90834 2.11386 2.20050 2.36958 2.67766
 2.74654 2.85454 3.41713 3.86915 4.37248 4.51204 5.09353 6.36241 6.83621 6.85304
 7.08371 7.08486 7.10352 7.10394 7.18930 7.20819 7.28819 8.45273 8.75873 8.77765
 8.85155 8.91145 15.78778 57.69837
 == 44-th k-point (0.00000,-0.41458,0.82916) occupation: 6==
 -23.85903 -1.46341 -0.66986 -0.04093 -0.04093 0.00702 0.59493 0.59493 0.68577 0.75112
 1.13955 1.13955 1.38190 1.48266 1.79012 1.79012 2.18021 2.21731 2.47122 2.49960
 2.73800 2.73800 3.52204 4.18324 4.18324 4.27299 4.93981 6.57429 6.57429 6.65535
 7.08546 7.08881 7.09120 7.09120 7.23209 7.23209 7.30329 8.46276 8.68844 8.81676
 8.81676 9.05732 16.05293 57.56472
 == 45-th k-point (0.20729,-0.20729,0.62187) occupation: 6==
 -23.85902 -1.46374 -0.67404 -0.05188 -0.00673 0.01335 0.51849 0.62682 0.73345 0.76679
 1.03813 1.32548 1.44470 1.46973 1.67442 1.75825 1.88111 2.32400 2.46804 2.68794
 2.72578 2.82741 3.40567 4.08040 4.29378 4.32485 4.92235 6.45749 6.52509 6.69385
 7.08811 7.09219 7.11134 7.11337 7.19305 7.22396 7.24864 8.54236 8.72964 8.80286
 8.85582 8.96852 15.97009 57.42081
 == 46-th k-point (0.41458,-0.00000,0.41458) occupation: 6==
 -23.85903 -1.46407 -0.67808 -0.03290 -0.01294 0.02769 0.48593 0.62175 0.76037 0.76269
 1.15346 1.25708 1.43473 1.49222 1.76532 1.90834 2.11386 2.20050 2.36958 2.67766
 2.74654 2.85454 3.41713 3.86915 4.37248 4.51204 5.09353 6.36241 6.83621 6.85304
 7.08371 7.08486 7.10352 7.10394 7.18930 7.20819 7.28819 8.45273 8.75873 8.77765
 8.85155 8.91145 15.78778 57.69837
 == 47-th k-point (0.62187,0.20729,0.20729) occupation: 6==
 -23.85902 -1.46374 -0.67404 -0.05188 -0.00673 0.01335 0.51849 0.62682 0.73345 0.76678
 1.03814 1.32548 1.44470 1.46973 1.67441 1.75825 1.88111 2.32400 2.46804 2.68794
 2.72578 2.82741 3.40567 4.08040 4.29378 4.32485 4.92235 6.45749 6.52509 6.69385
 7.08811 7.09219 7.11134 7.11337 7.19305 7.22396 7.24864 8.54236 8.72964 8.80286
 8.85582 8.96852 15.97009 57.42081
 == 48-th k-point (-0.82916,0.41458,0.41458) occupation: 6==
 -23.85903 -1.46407 -0.67808 -0.03290 -0.01294 0.02769 0.48593 0.62175 0.76037 0.76269
 1.15346 1.25708 1.43473 1.49222 1.76532 1.90834 2.11386 2.20050 2.36958 2.67766
 2.74654 2.85454 3.41713 3.86915 4.37248 4.51204 5.09353 6.36241 6.83621 6.85304
 7.08371 7.08486 7.10352 7.10394 7.18930 7.20819 7.28819 8.45273 8.75873 8.77765
 8.85155 8.91145 15.78778 57.69837
 == 49-th k-point (-0.62187,0.62187,0.20729) occupation: 6==
 -23.85902 -1.46374 -0.67404 -0.05188 -0.00673 0.01335 0.51849 0.62682 0.73345 0.76679
 1.03813 1.32548 1.44470 1.46973 1.67442 1.75825 1.88111 2.32400 2.46804 2.68794
 2.72578 2.82741 3.40567 4.08040 4.29378 4.32485 4.92235 6.45749 6.52509 6.69385
 7.08811 7.09219 7.11134 7.11337 7.19305 7.22396 7.24864 8.54236 8.72964 8.80286
 8.85582 8.96852 15.97009 57.42081
 == 50-th k-point (-0.41458,0.82916,0.00000) occupation: 6==
 -23.85903 -1.46341 -0.66986 -0.04093 -0.04093 0.00702 0.59493 0.59493 0.68577 0.75112
 1.13955 1.13955 1.38190 1.48266 1.79012 1.79012 2.18021 2.21731 2.47122 2.49960
 2.73800 2.73800 3.52204 4.18324 4.18324 4.27299 4.93981 6.57429 6.57429 6.65535
 7.08546 7.08881 7.09120 7.09120 7.23209 7.23209 7.30329 8.46276 8.68844 8.81676
 8.81676 9.05732 16.05293 57.56472
 == 51-th k-point (-0.20729,1.03645,-0.20729) occupation: 6==
 -23.85902 -1.46374 -0.67404 -0.05188 -0.00673 0.01335 0.51849 0.62682 0.73345 0.76678
 1.03814 1.32548 1.44470 1.46973 1.67441 1.75825 1.88111 2.32400 2.46804 2.68794
 2.72578 2.82741 3.40567 4.08040 4.29378 4.32485 4.92235 6.45749 6.52509 6.69385
 7.08811 7.09219 7.11134 7.11337 7.19305 7.22396 7.24864 8.54236 8.72964 8.80286
 8.85582 8.96852 15.97009 57.42081
 == 52-th k-point (-0.62187,0.20729,0.62187) occupation: 6==
 -23.85902 -1.46374 -0.67404 -0.05188 -0.00673 0.01335 0.51849 0.62682 0.73345 0.76679
 1.03813 1.32548 1.44470 1.46973 1.67442 1.75825 1.88111 2.32400 2.46804 2.68794
 2.72578 2.82741 3.40567 4.08040 4.29378 4.32485 4.92235 6.45749 6.52509 6.69385
 7.08811 7.09219 7.11134 7.11337 7.19305 7.22396 7.24864 8.54236 8.72964 8.80286
 8.85582 8.96852 15.97009 57.42081
 == 53-th k-point (-0.41458,0.41458,0.41458) occupation: 6==
 -23.85902 -1.46400 -0.67907 -0.05749 0.02836 0.02836 0.43658 0.66412 0.73913 0.73913
 1.31202 1.31202 1.33933 1.51687 1.51687 1.81849 1.82374 2.41362 2.41362 2.73425
 2.90453 3.00761 3.00761 3.95106 3.95106 4.21450 4.87174 6.58821 6.58821 6.83646
 7.08079 7.08079 7.08371 7.09353 7.10583 7.10583 7.29891 8.63197 8.63197 8.81572
 8.95828 8.95828 15.16678 57.44488
 == 54-th k-point (-0.20729,0.62187,0.20729) occupation: 6==
 -23.85902 -1.46374 -0.67404 -0.05188 -0.00673 0.01335 0.51849 0.62682 0.73345 0.76679
 1.03813 1.32548 1.44470 1.46973 1.67442 1.75825 1.88111 2.32400 2.46804 2.68794
 2.72578 2.82741 3.40567 4.08040 4.29378 4.32485 4.92235 6.45749 6.52509 6.69385
 7.08811 7.09219 7.11134 7.11337 7.19305 7.22396 7.24864 8.54236 8.72964 8.80286
 8.85582 8.96852 15.97009 57.42081
 == 55-th k-point (0.00000,0.82916,0.00000) occupation: 6==
 -23.85900 -1.46345 -0.66880 -0.07588 -0.00055 -0.00055 0.58584 0.68381 0.78971 0.78971
 1.33484 1.52458 1.71347 1.71347 2.17595 2.19926 2.21731 2.21731 2.24663 2.24663
 2.37308 2.51342 3.36552 4.69102 4.70399 4.70786 4.70786 6.52309 6.52309 7.05346
 7.08371 7.08546 7.23725 7.24261 7.24261 7.40754 7.40755 8.43845 8.45532 8.46276
 8.46276 9.01180 15.88720 57.10981
 == 56-th k-point (-0.41458,-0.00000,0.82916) occupation: 6==
 -23.85903 -1.46341 -0.66986 -0.04093 -0.04093 0.00702 0.59493 0.59493 0.68577 0.75112
 1.13955 1.13955 1.38190 1.48266 1.79012 1.79012 2.18021 2.21731 2.47122 2.49960
 2.73800 2.73800 3.52204 4.18324 4.18324 4.27299 4.93981 6.57429 6.57429 6.65535
 7.08546 7.08881 7.09120 7.09120 7.23209 7.23209 7.30329 8.46276 8.68844 8.81676
 8.81676 9.05732 16.05293 57.56472
 == 57-th k-point (-0.20729,0.20729,0.62187) occupation: 6==
 -23.85902 -1.46374 -0.67404 -0.05188 -0.00673 0.01335 0.51849 0.62682 0.73345 0.76679
 1.03813 1.32548 1.44470 1.46973 1.67442 1.75825 1.88111 2.32400 2.46804 2.68794
 2.72578 2.82741 3.40567 4.08040 4.29378 4.32485 4.92235 6.45749 6.52509 6.69385
 7.08811 7.09219 7.11134 7.11337 7.19305 7.22396 7.24864 8.54236 8.72964 8.80286
 8.85582 8.96852 15.97009 57.42081
 == 58-th k-point (0.00000,0.41458,0.41458) occupation: 6==
 -23.85903 -1.46407 -0.67808 -0.03290 -0.01294 0.02769 0.48593 0.62175 0.76037 0.76269
 1.15346 1.25708 1.43473 1.49222 1.76532 1.90834 2.11386 2.20050 2.36958 2.67766
 2.74654 2.85454 3.41713 3.86915 4.37248 4.51204 5.09353 6.36241 6.83621 6.85304
 7.08371 7.08486 7.10352 7.10394 7.18930 7.20819 7.28819 8.45273 8.75873 8.77765
 8.85155 8.91145 15.78778 57.69837
 == 59-th k-point (0.20729,0.62187,0.20729) occupation: 6==
 -23.85902 -1.46374 -0.67404 -0.05188 -0.00673 0.01335 0.51849 0.62682 0.73345 0.76678
 1.03814 1.32548 1.44470 1.46973 1.67441 1.75825 1.88111 2.32400 2.46804 2.68794
 2.72578 2.82741 3.40567 4.08040 4.29378 4.32485 4.92235 6.45749 6.52509 6.69385
 7.08811 7.09219 7.11134 7.11337 7.19305 7.22396 7.24864 8.54236 8.72964 8.80286
 8.85582 8.96852 15.97009 57.42081
 == 60-th k-point (-0.20729,-0.20729,1.03645) occupation: 6==
 -23.85902 -1.46374 -0.67404 -0.05188 -0.00673 0.01335 0.51849 0.62682 0.73345 0.76678
 1.03814 1.32548 1.44470 1.46973 1.67441 1.75825 1.88111 2.32400 2.46804 2.68794
 2.72578 2.82741 3.40567 4.08040 4.29378 4.32485 4.92235 6.45749 6.52509 6.69385
 7.08811 7.09219 7.11134 7.11337 7.19305 7.22396 7.24864 8.54236 8.72964 8.80286
 8.85582 8.96852 15.97009 57.42081
 == 61-th k-point (0.00000,-0.00000,0.82916) occupation: 6==
 -23.85900 -1.46345 -0.66880 -0.07588 -0.00055 -0.00055 0.58584 0.68381 0.78971 0.78971
 1.33484 1.52458 1.71347 1.71347 2.17595 2.19926 2.21731 2.21731 2.24663 2.24663
 2.37308 2.51342 3.36552 4.69102 4.70399 4.70786 4.70786 6.52309 6.52309 7.05346
 7.08371 7.08546 7.23725 7.24261 7.24261 7.40754 7.40755 8.43845 8.45532 8.46276
 8.46276 9.01180 15.88720 57.10981
 == 62-th k-point (0.20729,0.20729,0.62187) occupation: 6==
 -23.85902 -1.46374 -0.67404 -0.05188 -0.00673 0.01335 0.51849 0.62682 0.73345 0.76678
 1.03814 1.32548 1.44470 1.46973 1.67441 1.75825 1.88111 2.32400 2.46804 2.68794
 2.72578 2.82741 3.40567 4.08040 4.29378 4.32485 4.92235 6.45749 6.52509 6.69385
 7.08811 7.09219 7.11134 7.11337 7.19305 7.22396 7.24864 8.54236 8.72964 8.80286
 8.85582 8.96852 15.97009 57.42081
 == 63-th k-point (0.41458,0.41458,0.41458) occupation: 6==
 -23.85902 -1.46400 -0.67907 -0.05749 0.02836 0.02836 0.43658 0.66412 0.73913 0.73913
 1.31202 1.31202 1.33933 1.51687 1.51687 1.81849 1.82374 2.41362 2.41362 2.73425
 2.90453 3.00761 3.00761 3.95106 3.95106 4.21450 4.87174 6.58821 6.58821 6.83646
 7.08079 7.08079 7.08371 7.09353 7.10583 7.10583 7.29891 8.63197 8.63197 8.81572
 8.95828 8.95828 15.16678 57.44488
 ---------------------------------------------------------------------------
 VBM is at 21-th k-point with 1.00303 eV
 CBM is at 21-th k-point with 10.16543 eV
 Band gap is 9.16240 eV


           Ground-State Mulliken Net Atomic Charges

      Atom                 Charge (a.u.)          Spin (a.u.)
   --------------------------------------------------------
      1 Li               (0.820774,-0.000000)    (0.000000,0.000000)
      2  F               (-0.820774,0.000000)    (0.000000,0.000000)
   --------------------------------------------------------
  Sum of atomic charges =     (-0.000000,-0.000000)
  Sum of spin   charges =       (0.000000,0.000000)



 Total job time:  82.94 s.
 Mon Sep  8 23:52:18 2025


        *************************************************************
        *                                                           *
        *  Thank you very much for using QCPBC. Have a nice day.    *
        *                                                           *
        *************************************************************

Running job 1 of 1
