                  Welcome to Q-Chem
           with Periodic Boundary Condition
     A Quantum Leap Into The Future Of Chemistry

 Adam Rettig, Xintian Feng, Meng-Fu Chen, Hieu Dinh, Stephen Quiton,
 Anton Ni, Paul J. Robinson, Jinghong Zhang, Joonho Lee

Contributors to earlier versions of Q-Chem not listed above:
 Evgeny Epifanovsky, Leo Cunha, Jerome F. Gonthier, Kuan-Yu Liu
 Input file: /n/netscratch/joonholee_lab/Lab/hieudinh//lif_solve_def2tzvp_omega_0.9_888.scratch20250909020548/lif_solve_def2tzvp_omega_0.9_888.0
 Scratch folder: /n/netscratch/joonholee_lab/Lab/hieudinh//lif_solve_def2tzvp_omega_0.9_888.scratch20250909020548
 Auxillary files located at: /n/holylabs/LABS/joonholee_lab/Lab/qchem_base/qcaux
 Q-Chem begins on Tue Sep  9 02:05:49 2025

 -------------------------------------------------------------
 User input:
 -------------------------------------------------------------
 $lattice
 3
 0.000000 2.005000 2.005000
 2.005000 0.000000 2.005000
 2.005000 2.005000 0.000000
 $end
 
 $unitcell
 ABSOLUTE
 0 1
 Li 0.000000 0.000000 0.000000
 F  2.005000 0.000000 0.000000
 $end
 
 $rem
 jobtype = sp
 method = pbe
 scf_convergence = 5
 scf_guess = autosad
 scf_algorithm = gdm
 basis = def2-tzvp
 aux_basis = gen
 input_bohr = false
 symmetry false
 is_basis_uctr true
 rsdf_print_level 1
 
 mp_mesh = [8,8,8]
 
 integral_direct true
 bvk_cgto true
 
 thresh 14
 mem_total 100000
 threads 32
 
 MAX_SCF_CYCLES 400
 madelung = false
 omega 0.9
 do_rij_bigmem true
 automate_g true
 print_level 10
 grid_type_xc 1
 
 thresh_1e2c_sp 1e-14
 thresh_2e3c_bra_ket_sep 1e-10
 thresh_g 1e-12
 $end
 
 $aux_basis
 Li     0
 S   7   1.00
     498.3689730              0.0207908
     162.9342738              0.0542177
      57.3246735              0.1776783
      21.6427314              0.4181150
       8.7345375              0.6535245
       3.7491039              0.5492618
       1.7006754              0.1701425
 S   1   1.00
       0.8090859             -0.0097548
 S   1   1.00
       0.4000933             -0.0050152
 S   1   1.00
       0.2035793              0.0232200
 !S   1   1.00
 !      0.1054201              0.0134535
 !S   1   1.00
 !      0.0549139              0.0006647
 P   2   1.00
      10.7024696              0.0072923
       3.6551543              0.0060940
 P   1   1.00
       1.2464013              0.0172529
 P   1   1.00
       0.4246282             -0.0160026
 P   1   1.00
       0.1446192             -0.0195111
 D   2   1.00
       1.1510647             -0.0014314
       0.6019112              0.0038969
 D   1   1.00
       0.3109573              0.0024683
 D   1   1.00
       0.1600032              0.0036451
 F   2   1.00
       0.5967918              0.0010494
       0.1790687              0.0006468
 G   1   1.00
       1.0460130             -0.0001971
 ****
 F     0
 S   7   1.00
    3514.9201549              0.1805835
    1231.2458815              0.3676084
     454.1367336              1.2707881
     175.8376258              2.8274164
      71.2081775              4.3588226
      30.0316883              2.7180994
      13.1259023             -0.0804726
 S   1   1.00
       5.9126861             -0.0023370
 S   1   1.00
       2.7284431              1.1236274
 S   1   1.00
       1.2813993              0.9999042
 S   1   1.00
       0.6082793              0.3119579
 S   1   1.00
       0.2897894              0.0312295
 P   2   1.00
      49.3740409             -0.0346332
      13.4874956             -0.0096069
 P   1   1.00
       3.9664900              0.0762067
 P   1   1.00
       1.2226629             -0.0103329
 P   1   1.00
       0.3830317              0.0018853
 D   2   1.00
      29.9719140             -0.0113316
       6.7860915             -0.0467639
 D   1   1.00
       1.8137313             -0.0167604
 D   1   1.00
       0.5157840             -0.0050777
 F   2   1.00
       2.8301877              1.0
       0.9155962              1.0
 G   1   1.00
       1.6097500             -0.0005411
 ****
 $end
 -------------------------------------------------------------
 Running PBC job

 Requested Exchange Correlation Functionals: 
  DFT Exchange:  1.00000 pbe_x
  DFT Correlation:  1.00000 pbe_c
 using 32 threads for computing.
 ---------------------------------------------------------------
      Coordinates of Atoms in Central Unit Cell (Angstroms)
    I     Atom         X            Y            Z
 ---------------------------------------------------------------
    1      Li      0.000000     0.000000     0.000000
    2       F      2.005000     0.000000     0.000000
 ---------------------------------------------------------------
 --------------------------------------------------
              Lattice Vectors (Angstroms)
              X            Y            Z
 --------------------------------------------------
   X       0.000000     2.005000     2.005000
   Y       2.005000     0.000000     2.005000
   Z       2.005000     2.005000     0.000000
 --------------------------------------------------
 --------------------------------------------------
       Reciprocal Lattice Vectors (Angstroms^-1)
              X            Y            Z
 --------------------------------------------------
   X      -1.566879     1.566879     1.566879
   Y       1.566879    -1.566879     1.566879
   Z       1.566879     1.566879    -1.566879
 --------------------------------------------------

 Single point calculation requested

 Hamiltonian contributions:
 List of terms in Hamiltonian: kpts_nn, kpts_kinetic, kpts_vnuc_df, kpts_xc, kpts_rij_bigmem

 K-Points calculation started.

 Basis set information about using solid harmonic (1) or Cartesian (0):
  li : 
  f : D(1) D(1) F(1) 

 Basis set information about using solid harmonic (1) or Cartesian (0):
  li : D(1) D(1) D(1) F(1) G(1) 
  f : D(1) D(1) D(1) F(1) G(1) 

 There are 45 basis functions in the central unit cell.
 Print atomic basis of atoms in the central unit cell:
 -------------------------------------------------------------
2 34 34 19

  0.00000000000000e+00  0.00000000000000e+00  0.00000000000000e+00
  3.78890087987467e+00  0.00000000000000e+00  0.00000000000000e+00

  6.26926280100000e+03
  9.40316124310000e+02
  2.14221075280000e+02
  6.07598401840000e+01
  1.99151520320000e+01
  7.31715097970000e+00
  2.97246742160000e+00
  1.26398523140000e+00
  5.14274899530000e-01
  7.70308859010000e-02
  2.89388964330000e-02
  3.32700000000000e+00
  4.00000000000000e-01
  6.00000000000000e-02
  3.54791004410000e+04
  5.31847289830000e+03
  1.21048109750000e+03
  3.42855181400000e+02
  1.12019431810000e+02
  4.07147402480000e+01
  1.60396781110000e+01
  6.50381867400000e+00
  1.54404775090000e+00
  6.12234528620000e-01
  2.40279796980000e-01
  8.02339004830000e+01
  1.85940107430000e+01
  5.68679026530000e+00
  1.95110062940000e+00
  6.69702112980000e-01
  2.16513004100000e-01
  3.10700000000000e+00
  8.55000000000000e-01
  1.91700000000000e+00

  2.60146728801502e-01
  4.85835841940497e-01
  8.34119322504559e-01
  1.32445742735490e+00
  1.88157694810314e+00
  2.19520050299083e+00
  7.26218105813079e-01
  4.94491916459429e-01
  4.32819270028068e-01
  1.04209847805929e-01
  5.00059366529026e-02
  6.40480761295544e+00
  4.53435039044381e-01
  4.23281366783111e-02
  1.03516566506933e+00
  1.93311703276555e+00
  3.30816792488426e+00
  5.19043602286014e+00
  7.14537150961128e+00
  7.78535976400937e+00
  3.61564648527820e+00
  1.16499925171188e+00
  9.87201115801914e-01
  4.93285621447351e-01
  2.44595258796206e-01
  4.21740775922586e+00
  4.71742640820820e+00
  4.08491013761290e+00
  2.29989742214987e+00
  8.63559317399815e-01
  2.10520828359705e-01
  1.19675885449078e+01
  1.25126747832287e+00
  6.36581779142017e+00

0 0 0 0 1 1 1
0 0 
6 0

0 1 1 6 1 1 1
6 0 
2 0

0 2 2 8 1 1 1
8 0 
1 0

0 3 3 9 1 1 1
9 0 
1 0

0 4 4 10 1 1 1
10 0 
1 0

0 5 5 11 1 3 3
11 1 
1 0

0 8 8 12 1 3 3
12 1 
1 0

0 11 11 13 1 3 3
13 1 
1 0

1 14 14 14 1 1 1
14 0 
6 0

1 15 15 20 1 1 1
20 0 
2 0

1 16 16 22 1 1 1
22 0 
1 0

1 17 17 23 1 1 1
23 0 
1 0

1 18 18 24 1 1 1
24 0 
1 0

1 19 19 25 1 3 3
25 1 
4 0

1 22 22 29 1 3 3
29 1 
1 0

1 25 25 30 1 3 3
30 1 
1 0

1 28 28 31 1 5 6
31 2 
1 1

1 33 33 32 1 5 6
32 2 
1 1

1 38 38 33 1 7 10
33 3 
1 1

 -------------------------------------------------------------
 Allocate 134496 B from available memory: 104857600000 B
 There are 6859 image cells after screening.
 There are 10216 image cells for CGTO evaluation after screening.
 Real-Space grid for FFT initialized based on kinetic energy cutoff (eV) = 500.0
 Real-Space grid for FFT: (8,8,8)
 There are 4913 real-space grid points.
 There are 27 batches of real-space grid points. 
 Size of each grid batch is around 128
 Grid for AFT initialized based on kinetic energy cutoff (eV) = 500.0
 Real-Space grid for AFT: (8,8,8)
 There are 4913 real-space grid points.

 There are 5740 atom-centered grid points.

 Spacegroup symmetry group: Fm-3m
 Reducing spacegroup symmetry to symmorphic group: F m -3 m
 Monkhorst-Pack mesh is [8,8,8]
 There are 512 k points.
kpoints in Bohr
-0.3109337727 -0.3109337727 -0.3109337727
-0.2072891818 -0.2072891818 -0.4145783636
-0.1036445909 -0.1036445909 -0.5182229546
-0.0000000000 0.0000000000 -0.6218675455
0.1036445909 0.1036445909 -0.7255121364
0.2072891818 0.2072891818 -0.8291567273
0.3109337727 0.3109337727 -0.9328013182
0.4145783636 0.4145783636 -1.0364459091
-0.2072891818 -0.4145783636 -0.2072891818
-0.1036445909 -0.3109337727 -0.3109337727
-0.0000000000 -0.2072891818 -0.4145783636
0.1036445909 -0.1036445909 -0.5182229546
0.2072891818 0.0000000000 -0.6218675455
0.3109337727 0.1036445909 -0.7255121364
0.4145783636 0.2072891818 -0.8291567273
0.5182229546 0.3109337727 -0.9328013182
-0.1036445909 -0.5182229546 -0.1036445909
-0.0000000000 -0.4145783636 -0.2072891818
0.1036445909 -0.3109337727 -0.3109337727
0.2072891818 -0.2072891818 -0.4145783636
0.3109337727 -0.1036445909 -0.5182229546
0.4145783636 0.0000000000 -0.6218675455
0.5182229546 0.1036445909 -0.7255121364
0.6218675455 0.2072891818 -0.8291567273
-0.0000000000 -0.6218675455 -0.0000000000
0.1036445909 -0.5182229546 -0.1036445909
0.2072891818 -0.4145783636 -0.2072891818
0.3109337727 -0.3109337727 -0.3109337727
0.4145783636 -0.2072891818 -0.4145783636
0.5182229546 -0.1036445909 -0.5182229546
0.6218675455 0.0000000000 -0.6218675455
0.7255121364 0.1036445909 -0.7255121364
0.1036445909 -0.7255121364 0.1036445909
0.2072891818 -0.6218675455 -0.0000000000
0.3109337727 -0.5182229546 -0.1036445909
0.4145783636 -0.4145783636 -0.2072891818
0.5182229546 -0.3109337727 -0.3109337727
0.6218675455 -0.2072891818 -0.4145783636
0.7255121364 -0.1036445909 -0.5182229546
0.8291567273 0.0000000000 -0.6218675455
0.2072891818 -0.8291567273 0.2072891818
0.3109337727 -0.7255121364 0.1036445909
0.4145783636 -0.6218675455 -0.0000000000
0.5182229546 -0.5182229546 -0.1036445909
0.6218675455 -0.4145783636 -0.2072891818
0.7255121364 -0.3109337727 -0.3109337727
0.8291567273 -0.2072891818 -0.4145783636
0.9328013182 -0.1036445909 -0.5182229546
0.3109337727 -0.9328013182 0.3109337727
0.4145783636 -0.8291567273 0.2072891818
0.5182229546 -0.7255121364 0.1036445909
0.6218675455 -0.6218675455 -0.0000000000
0.7255121364 -0.5182229546 -0.1036445909
0.8291567273 -0.4145783636 -0.2072891818
0.9328013182 -0.3109337727 -0.3109337727
1.0364459091 -0.2072891818 -0.4145783636
0.4145783636 -1.0364459091 0.4145783636
0.5182229546 -0.9328013182 0.3109337727
0.6218675455 -0.8291567273 0.2072891818
0.7255121364 -0.7255121364 0.1036445909
0.8291567273 -0.6218675455 -0.0000000000
0.9328013182 -0.5182229546 -0.1036445909
1.0364459091 -0.4145783636 -0.2072891818
1.1400905000 -0.3109337727 -0.3109337727
-0.4145783636 -0.2072891818 -0.2072891818
-0.3109337727 -0.1036445909 -0.3109337727
-0.2072891818 0.0000000000 -0.4145783636
-0.1036445909 0.1036445909 -0.5182229546
-0.0000000000 0.2072891818 -0.6218675455
0.1036445909 0.3109337727 -0.7255121364
0.2072891818 0.4145783636 -0.8291567273
0.3109337727 0.5182229546 -0.9328013182
-0.3109337727 -0.3109337727 -0.1036445909
-0.2072891818 -0.2072891818 -0.2072891818
-0.1036445909 -0.1036445909 -0.3109337727
-0.0000000000 0.0000000000 -0.4145783636
0.1036445909 0.1036445909 -0.5182229546
0.2072891818 0.2072891818 -0.6218675455
0.3109337727 0.3109337727 -0.7255121364
0.4145783636 0.4145783636 -0.8291567273
-0.2072891818 -0.4145783636 -0.0000000000
-0.1036445909 -0.3109337727 -0.1036445909
-0.0000000000 -0.2072891818 -0.2072891818
0.1036445909 -0.1036445909 -0.3109337727
0.2072891818 0.0000000000 -0.4145783636
0.3109337727 0.1036445909 -0.5182229546
0.4145783636 0.2072891818 -0.6218675455
0.5182229546 0.3109337727 -0.7255121364
-0.1036445909 -0.5182229546 0.1036445909
-0.0000000000 -0.4145783636 -0.0000000000
0.1036445909 -0.3109337727 -0.1036445909
0.2072891818 -0.2072891818 -0.2072891818
0.3109337727 -0.1036445909 -0.3109337727
0.4145783636 0.0000000000 -0.4145783636
0.5182229546 0.1036445909 -0.5182229546
0.6218675455 0.2072891818 -0.6218675455
0.0000000000 -0.6218675455 0.2072891818
0.1036445909 -0.5182229546 0.1036445909
0.2072891818 -0.4145783636 -0.0000000000
0.3109337727 -0.3109337727 -0.1036445909
0.4145783636 -0.2072891818 -0.2072891818
0.5182229546 -0.1036445909 -0.3109337727
0.6218675455 0.0000000000 -0.4145783636
0.7255121364 0.1036445909 -0.5182229546
0.1036445909 -0.7255121364 0.3109337727
0.2072891818 -0.6218675455 0.2072891818
0.3109337727 -0.5182229546 0.1036445909
0.4145783636 -0.4145783636 -0.0000000000
0.5182229546 -0.3109337727 -0.1036445909
0.6218675455 -0.2072891818 -0.2072891818
0.7255121364 -0.1036445909 -0.3109337727
0.8291567273 0.0000000000 -0.4145783636
0.2072891818 -0.8291567273 0.4145783636
0.3109337727 -0.7255121364 0.3109337727
0.4145783636 -0.6218675455 0.2072891818
0.5182229546 -0.5182229546 0.1036445909
0.6218675455 -0.4145783636 -0.0000000000
0.7255121364 -0.3109337727 -0.1036445909
0.8291567273 -0.2072891818 -0.2072891818
0.9328013182 -0.1036445909 -0.3109337727
0.3109337727 -0.9328013182 0.5182229546
0.4145783636 -0.8291567273 0.4145783636
0.5182229546 -0.7255121364 0.3109337727
0.6218675455 -0.6218675455 0.2072891818
0.7255121364 -0.5182229546 0.1036445909
0.8291567273 -0.4145783636 -0.0000000000
0.9328013182 -0.3109337727 -0.1036445909
1.0364459091 -0.2072891818 -0.2072891818
-0.5182229546 -0.1036445909 -0.1036445909
-0.4145783636 0.0000000000 -0.2072891818
-0.3109337727 0.1036445909 -0.3109337727
-0.2072891818 0.2072891818 -0.4145783636
-0.1036445909 0.3109337727 -0.5182229546
-0.0000000000 0.4145783636 -0.6218675455
0.1036445909 0.5182229546 -0.7255121364
0.2072891818 0.6218675455 -0.8291567273
-0.4145783636 -0.2072891818 -0.0000000000
-0.3109337727 -0.1036445909 -0.1036445909
-0.2072891818 0.0000000000 -0.2072891818
-0.1036445909 0.1036445909 -0.3109337727
-0.0000000000 0.2072891818 -0.4145783636
0.1036445909 0.3109337727 -0.5182229546
0.2072891818 0.4145783636 -0.6218675455
0.3109337727 0.5182229546 -0.7255121364
-0.3109337727 -0.3109337727 0.1036445909
-0.2072891818 -0.2072891818 -0.0000000000
-0.1036445909 -0.1036445909 -0.1036445909
-0.0000000000 0.0000000000 -0.2072891818
0.1036445909 0.1036445909 -0.3109337727
0.2072891818 0.2072891818 -0.4145783636
0.3109337727 0.3109337727 -0.5182229546
0.4145783636 0.4145783636 -0.6218675455
-0.2072891818 -0.4145783636 0.2072891818
-0.1036445909 -0.3109337727 0.1036445909
-0.0000000000 -0.2072891818 -0.0000000000
0.1036445909 -0.1036445909 -0.1036445909
0.2072891818 0.0000000000 -0.2072891818
0.3109337727 0.1036445909 -0.3109337727
0.4145783636 0.2072891818 -0.4145783636
0.5182229546 0.3109337727 -0.5182229546
-0.1036445909 -0.5182229546 0.3109337727
0.0000000000 -0.4145783636 0.2072891818
0.1036445909 -0.3109337727 0.1036445909
0.2072891818 -0.2072891818 -0.0000000000
0.3109337727 -0.1036445909 -0.1036445909
0.4145783636 0.0000000000 -0.2072891818
0.5182229546 0.1036445909 -0.3109337727
0.6218675455 0.2072891818 -0.4145783636
0.0000000000 -0.6218675455 0.4145783636
0.1036445909 -0.5182229546 0.3109337727
0.2072891818 -0.4145783636 0.2072891818
0.3109337727 -0.3109337727 0.1036445909
0.4145783636 -0.2072891818 -0.0000000000
0.5182229546 -0.1036445909 -0.1036445909
0.6218675455 0.0000000000 -0.2072891818
0.7255121364 0.1036445909 -0.3109337727
0.1036445909 -0.7255121364 0.5182229546
0.2072891818 -0.6218675455 0.4145783636
0.3109337727 -0.5182229546 0.3109337727
0.4145783636 -0.4145783636 0.2072891818
0.5182229546 -0.3109337727 0.1036445909
0.6218675455 -0.2072891818 -0.0000000000
0.7255121364 -0.1036445909 -0.1036445909
0.8291567273 0.0000000000 -0.2072891818
0.2072891818 -0.8291567273 0.6218675455
0.3109337727 -0.7255121364 0.5182229546
0.4145783636 -0.6218675455 0.4145783636
0.5182229546 -0.5182229546 0.3109337727
0.6218675455 -0.4145783636 0.2072891818
0.7255121364 -0.3109337727 0.1036445909
0.8291567273 -0.2072891818 -0.0000000000
0.9328013182 -0.1036445909 -0.1036445909
-0.6218675455 0.0000000000 0.0000000000
-0.5182229546 0.1036445909 -0.1036445909
-0.4145783636 0.2072891818 -0.2072891818
-0.3109337727 0.3109337727 -0.3109337727
-0.2072891818 0.4145783636 -0.4145783636
-0.1036445909 0.5182229546 -0.5182229546
-0.0000000000 0.6218675455 -0.6218675455
0.1036445909 0.7255121364 -0.7255121364
-0.5182229546 -0.1036445909 0.1036445909
-0.4145783636 0.0000000000 0.0000000000
-0.3109337727 0.1036445909 -0.1036445909
-0.2072891818 0.2072891818 -0.2072891818
-0.1036445909 0.3109337727 -0.3109337727
-0.0000000000 0.4145783636 -0.4145783636
0.1036445909 0.5182229546 -0.5182229546
0.2072891818 0.6218675455 -0.6218675455
-0.4145783636 -0.2072891818 0.2072891818
-0.3109337727 -0.1036445909 0.1036445909
-0.2072891818 0.0000000000 0.0000000000
-0.1036445909 0.1036445909 -0.1036445909
-0.0000000000 0.2072891818 -0.2072891818
0.1036445909 0.3109337727 -0.3109337727
0.2072891818 0.4145783636 -0.4145783636
0.3109337727 0.5182229546 -0.5182229546
-0.3109337727 -0.3109337727 0.3109337727
-0.2072891818 -0.2072891818 0.2072891818
-0.1036445909 -0.1036445909 0.1036445909
0.0000000000 0.0000000000 0.0000000000
0.1036445909 0.1036445909 -0.1036445909
0.2072891818 0.2072891818 -0.2072891818
0.3109337727 0.3109337727 -0.3109337727
0.4145783636 0.4145783636 -0.4145783636
-0.2072891818 -0.4145783636 0.4145783636
-0.1036445909 -0.3109337727 0.3109337727
0.0000000000 -0.2072891818 0.2072891818
0.1036445909 -0.1036445909 0.1036445909
0.2072891818 -0.0000000000 0.0000000000
0.3109337727 0.1036445909 -0.1036445909
0.4145783636 0.2072891818 -0.2072891818
0.5182229546 0.3109337727 -0.3109337727
-0.1036445909 -0.5182229546 0.5182229546
0.0000000000 -0.4145783636 0.4145783636
0.1036445909 -0.3109337727 0.3109337727
0.2072891818 -0.2072891818 0.2072891818
0.3109337727 -0.1036445909 0.1036445909
0.4145783636 -0.0000000000 0.0000000000
0.5182229546 0.1036445909 -0.1036445909
0.6218675455 0.2072891818 -0.2072891818
0.0000000000 -0.6218675455 0.6218675455
0.1036445909 -0.5182229546 0.5182229546
0.2072891818 -0.4145783636 0.4145783636
0.3109337727 -0.3109337727 0.3109337727
0.4145783636 -0.2072891818 0.2072891818
0.5182229546 -0.1036445909 0.1036445909
0.6218675455 -0.0000000000 0.0000000000
0.7255121364 0.1036445909 -0.1036445909
0.1036445909 -0.7255121364 0.7255121364
0.2072891818 -0.6218675455 0.6218675455
0.3109337727 -0.5182229546 0.5182229546
0.4145783636 -0.4145783636 0.4145783636
0.5182229546 -0.3109337727 0.3109337727
0.6218675455 -0.2072891818 0.2072891818
0.7255121364 -0.1036445909 0.1036445909
0.8291567273 -0.0000000000 0.0000000000
-0.7255121364 0.1036445909 0.1036445909
-0.6218675455 0.2072891818 0.0000000000
-0.5182229546 0.3109337727 -0.1036445909
-0.4145783636 0.4145783636 -0.2072891818
-0.3109337727 0.5182229546 -0.3109337727
-0.2072891818 0.6218675455 -0.4145783636
-0.1036445909 0.7255121364 -0.5182229546
-0.0000000000 0.8291567273 -0.6218675455
-0.6218675455 0.0000000000 0.2072891818
-0.5182229546 0.1036445909 0.1036445909
-0.4145783636 0.2072891818 0.0000000000
-0.3109337727 0.3109337727 -0.1036445909
-0.2072891818 0.4145783636 -0.2072891818
-0.1036445909 0.5182229546 -0.3109337727
-0.0000000000 0.6218675455 -0.4145783636
0.1036445909 0.7255121364 -0.5182229546
-0.5182229546 -0.1036445909 0.3109337727
-0.4145783636 -0.0000000000 0.2072891818
-0.3109337727 0.1036445909 0.1036445909
-0.2072891818 0.2072891818 0.0000000000
-0.1036445909 0.3109337727 -0.1036445909
-0.0000000000 0.4145783636 -0.2072891818
0.1036445909 0.5182229546 -0.3109337727
0.2072891818 0.6218675455 -0.4145783636
-0.4145783636 -0.2072891818 0.4145783636
-0.3109337727 -0.1036445909 0.3109337727
-0.2072891818 -0.0000000000 0.2072891818
-0.1036445909 0.1036445909 0.1036445909
0.0000000000 0.2072891818 0.0000000000
0.1036445909 0.3109337727 -0.1036445909
0.2072891818 0.4145783636 -0.2072891818
0.3109337727 0.5182229546 -0.3109337727
-0.3109337727 -0.3109337727 0.5182229546
-0.2072891818 -0.2072891818 0.4145783636
-0.1036445909 -0.1036445909 0.3109337727
0.0000000000 -0.0000000000 0.2072891818
0.1036445909 0.1036445909 0.1036445909
0.2072891818 0.2072891818 0.0000000000
0.3109337727 0.3109337727 -0.1036445909
0.4145783636 0.4145783636 -0.2072891818
-0.2072891818 -0.4145783636 0.6218675455
-0.1036445909 -0.3109337727 0.5182229546
0.0000000000 -0.2072891818 0.4145783636
0.1036445909 -0.1036445909 0.3109337727
0.2072891818 -0.0000000000 0.2072891818
0.3109337727 0.1036445909 0.1036445909
0.4145783636 0.2072891818 0.0000000000
0.5182229546 0.3109337727 -0.1036445909
-0.1036445909 -0.5182229546 0.7255121364
0.0000000000 -0.4145783636 0.6218675455
0.1036445909 -0.3109337727 0.5182229546
0.2072891818 -0.2072891818 0.4145783636
0.3109337727 -0.1036445909 0.3109337727
0.4145783636 -0.0000000000 0.2072891818
0.5182229546 0.1036445909 0.1036445909
0.6218675455 0.2072891818 0.0000000000
0.0000000000 -0.6218675455 0.8291567273
0.1036445909 -0.5182229546 0.7255121364
0.2072891818 -0.4145783636 0.6218675455
0.3109337727 -0.3109337727 0.5182229546
0.4145783636 -0.2072891818 0.4145783636
0.5182229546 -0.1036445909 0.3109337727
0.6218675455 -0.0000000000 0.2072891818
0.7255121364 0.1036445909 0.1036445909
-0.8291567273 0.2072891818 0.2072891818
-0.7255121364 0.3109337727 0.1036445909
-0.6218675455 0.4145783636 0.0000000000
-0.5182229546 0.5182229546 -0.1036445909
-0.4145783636 0.6218675455 -0.2072891818
-0.3109337727 0.7255121364 -0.3109337727
-0.2072891818 0.8291567273 -0.4145783636
-0.1036445909 0.9328013182 -0.5182229546
-0.7255121364 0.1036445909 0.3109337727
-0.6218675455 0.2072891818 0.2072891818
-0.5182229546 0.3109337727 0.1036445909
-0.4145783636 0.4145783636 0.0000000000
-0.3109337727 0.5182229546 -0.1036445909
-0.2072891818 0.6218675455 -0.2072891818
-0.1036445909 0.7255121364 -0.3109337727
-0.0000000000 0.8291567273 -0.4145783636
-0.6218675455 0.0000000000 0.4145783636
-0.5182229546 0.1036445909 0.3109337727
-0.4145783636 0.2072891818 0.2072891818
-0.3109337727 0.3109337727 0.1036445909
-0.2072891818 0.4145783636 0.0000000000
-0.1036445909 0.5182229546 -0.1036445909
0.0000000000 0.6218675455 -0.2072891818
0.1036445909 0.7255121364 -0.3109337727
-0.5182229546 -0.1036445909 0.5182229546
-0.4145783636 -0.0000000000 0.4145783636
-0.3109337727 0.1036445909 0.3109337727
-0.2072891818 0.2072891818 0.2072891818
-0.1036445909 0.3109337727 0.1036445909
0.0000000000 0.4145783636 0.0000000000
0.1036445909 0.5182229546 -0.1036445909
0.2072891818 0.6218675455 -0.2072891818
-0.4145783636 -0.2072891818 0.6218675455
-0.3109337727 -0.1036445909 0.5182229546
-0.2072891818 -0.0000000000 0.4145783636
-0.1036445909 0.1036445909 0.3109337727
0.0000000000 0.2072891818 0.2072891818
0.1036445909 0.3109337727 0.1036445909
0.2072891818 0.4145783636 0.0000000000
0.3109337727 0.5182229546 -0.1036445909
-0.3109337727 -0.3109337727 0.7255121364
-0.2072891818 -0.2072891818 0.6218675455
-0.1036445909 -0.1036445909 0.5182229546
0.0000000000 -0.0000000000 0.4145783636
0.1036445909 0.1036445909 0.3109337727
0.2072891818 0.2072891818 0.2072891818
0.3109337727 0.3109337727 0.1036445909
0.4145783636 0.4145783636 0.0000000000
-0.2072891818 -0.4145783636 0.8291567273
-0.1036445909 -0.3109337727 0.7255121364
0.0000000000 -0.2072891818 0.6218675455
0.1036445909 -0.1036445909 0.5182229546
0.2072891818 -0.0000000000 0.4145783636
0.3109337727 0.1036445909 0.3109337727
0.4145783636 0.2072891818 0.2072891818
0.5182229546 0.3109337727 0.1036445909
-0.1036445909 -0.5182229546 0.9328013182
0.0000000000 -0.4145783636 0.8291567273
0.1036445909 -0.3109337727 0.7255121364
0.2072891818 -0.2072891818 0.6218675455
0.3109337727 -0.1036445909 0.5182229546
0.4145783636 -0.0000000000 0.4145783636
0.5182229546 0.1036445909 0.3109337727
0.6218675455 0.2072891818 0.2072891818
-0.9328013182 0.3109337727 0.3109337727
-0.8291567273 0.4145783636 0.2072891818
-0.7255121364 0.5182229546 0.1036445909
-0.6218675455 0.6218675455 0.0000000000
-0.5182229546 0.7255121364 -0.1036445909
-0.4145783636 0.8291567273 -0.2072891818
-0.3109337727 0.9328013182 -0.3109337727
-0.2072891818 1.0364459091 -0.4145783636
-0.8291567273 0.2072891818 0.4145783636
-0.7255121364 0.3109337727 0.3109337727
-0.6218675455 0.4145783636 0.2072891818
-0.5182229546 0.5182229546 0.1036445909
-0.4145783636 0.6218675455 0.0000000000
-0.3109337727 0.7255121364 -0.1036445909
-0.2072891818 0.8291567273 -0.2072891818
-0.1036445909 0.9328013182 -0.3109337727
-0.7255121364 0.1036445909 0.5182229546
-0.6218675455 0.2072891818 0.4145783636
-0.5182229546 0.3109337727 0.3109337727
-0.4145783636 0.4145783636 0.2072891818
-0.3109337727 0.5182229546 0.1036445909
-0.2072891818 0.6218675455 0.0000000000
-0.1036445909 0.7255121364 -0.1036445909
0.0000000000 0.8291567273 -0.2072891818
-0.6218675455 -0.0000000000 0.6218675455
-0.5182229546 0.1036445909 0.5182229546
-0.4145783636 0.2072891818 0.4145783636
-0.3109337727 0.3109337727 0.3109337727
-0.2072891818 0.4145783636 0.2072891818
-0.1036445909 0.5182229546 0.1036445909
0.0000000000 0.6218675455 0.0000000000
0.1036445909 0.7255121364 -0.1036445909
-0.5182229546 -0.1036445909 0.7255121364
-0.4145783636 -0.0000000000 0.6218675455
-0.3109337727 0.1036445909 0.5182229546
-0.2072891818 0.2072891818 0.4145783636
-0.1036445909 0.3109337727 0.3109337727
0.0000000000 0.4145783636 0.2072891818
0.1036445909 0.5182229546 0.1036445909
0.2072891818 0.6218675455 0.0000000000
-0.4145783636 -0.2072891818 0.8291567273
-0.3109337727 -0.1036445909 0.7255121364
-0.2072891818 -0.0000000000 0.6218675455
-0.1036445909 0.1036445909 0.5182229546
0.0000000000 0.2072891818 0.4145783636
0.1036445909 0.3109337727 0.3109337727
0.2072891818 0.4145783636 0.2072891818
0.3109337727 0.5182229546 0.1036445909
-0.3109337727 -0.3109337727 0.9328013182
-0.2072891818 -0.2072891818 0.8291567273
-0.1036445909 -0.1036445909 0.7255121364
0.0000000000 -0.0000000000 0.6218675455
0.1036445909 0.1036445909 0.5182229546
0.2072891818 0.2072891818 0.4145783636
0.3109337727 0.3109337727 0.3109337727
0.4145783636 0.4145783636 0.2072891818
-0.2072891818 -0.4145783636 1.0364459091
-0.1036445909 -0.3109337727 0.9328013182
0.0000000000 -0.2072891818 0.8291567273
0.1036445909 -0.1036445909 0.7255121364
0.2072891818 -0.0000000000 0.6218675455
0.3109337727 0.1036445909 0.5182229546
0.4145783636 0.2072891818 0.4145783636
0.5182229546 0.3109337727 0.3109337727
-1.0364459091 0.4145783636 0.4145783636
-0.9328013182 0.5182229546 0.3109337727
-0.8291567273 0.6218675455 0.2072891818
-0.7255121364 0.7255121364 0.1036445909
-0.6218675455 0.8291567273 0.0000000000
-0.5182229546 0.9328013182 -0.1036445909
-0.4145783636 1.0364459091 -0.2072891818
-0.3109337727 1.1400905000 -0.3109337727
-0.9328013182 0.3109337727 0.5182229546
-0.8291567273 0.4145783636 0.4145783636
-0.7255121364 0.5182229546 0.3109337727
-0.6218675455 0.6218675455 0.2072891818
-0.5182229546 0.7255121364 0.1036445909
-0.4145783636 0.8291567273 0.0000000000
-0.3109337727 0.9328013182 -0.1036445909
-0.2072891818 1.0364459091 -0.2072891818
-0.8291567273 0.2072891818 0.6218675455
-0.7255121364 0.3109337727 0.5182229546
-0.6218675455 0.4145783636 0.4145783636
-0.5182229546 0.5182229546 0.3109337727
-0.4145783636 0.6218675455 0.2072891818
-0.3109337727 0.7255121364 0.1036445909
-0.2072891818 0.8291567273 0.0000000000
-0.1036445909 0.9328013182 -0.1036445909
-0.7255121364 0.1036445909 0.7255121364
-0.6218675455 0.2072891818 0.6218675455
-0.5182229546 0.3109337727 0.5182229546
-0.4145783636 0.4145783636 0.4145783636
-0.3109337727 0.5182229546 0.3109337727
-0.2072891818 0.6218675455 0.2072891818
-0.1036445909 0.7255121364 0.1036445909
0.0000000000 0.8291567273 0.0000000000
-0.6218675455 -0.0000000000 0.8291567273
-0.5182229546 0.1036445909 0.7255121364
-0.4145783636 0.2072891818 0.6218675455
-0.3109337727 0.3109337727 0.5182229546
-0.2072891818 0.4145783636 0.4145783636
-0.1036445909 0.5182229546 0.3109337727
0.0000000000 0.6218675455 0.2072891818
0.1036445909 0.7255121364 0.1036445909
-0.5182229546 -0.1036445909 0.9328013182
-0.4145783636 -0.0000000000 0.8291567273
-0.3109337727 0.1036445909 0.7255121364
-0.2072891818 0.2072891818 0.6218675455
-0.1036445909 0.3109337727 0.5182229546
0.0000000000 0.4145783636 0.4145783636
0.1036445909 0.5182229546 0.3109337727
0.2072891818 0.6218675455 0.2072891818
-0.4145783636 -0.2072891818 1.0364459091
-0.3109337727 -0.1036445909 0.9328013182
-0.2072891818 -0.0000000000 0.8291567273
-0.1036445909 0.1036445909 0.7255121364
0.0000000000 0.2072891818 0.6218675455
0.1036445909 0.3109337727 0.5182229546
0.2072891818 0.4145783636 0.4145783636
0.3109337727 0.5182229546 0.3109337727
-0.3109337727 -0.3109337727 1.1400905000
-0.2072891818 -0.2072891818 1.0364459091
-0.1036445909 -0.1036445909 0.9328013182
0.0000000000 -0.0000000000 0.8291567273
0.1036445909 0.1036445909 0.7255121364
0.2072891818 0.2072891818 0.6218675455
0.3109337727 0.3109337727 0.5182229546
0.4145783636 0.4145783636 0.4145783636
 There are 6 alpha and 6 beta electrons
 Start computing overlap matrix
 Allocate 16588800 B from available memory: 104857465504 B
 Time for computing overlap matrix: 10.3620000000 s
 ====== Initialize compute kernels for all-electron RI-J (kpts) ====== 
 ========================================================== 
 Range-separated parameter omega        = 0.900000000000000022
 Threshold for 1e2c shellpair           = 0.000000000000010000
 Threshold for 2e2c SR integral         = 0.000000000000000001
 Threshold for 2e3c SR integral         = 0.000000000100000000
 Threshold for AFT G-space screening is = 0.000000000001000000
 The exponent cutoff for C/D classification (omega2 / 2) is  = 0.405000000000000027
 ========================================================== 
 === Post process the basis set for RI calculation (exp_cutoff = 0.405000000000000027 ) === 
nshells_b1 before uncontraction = 19
nshells_b1 after uncontraction = 19
nshells_baux before uncontraction = 28
nshells_baux after uncontraction = 28
===============================================
nbsf total   = 45
nbsf compact = 33
nbsf diffuse = 12
naux total   = 96
naux compact = 96
naux diffuse = 0
nshells_bnuc = 2

 Number of unique atoms is 2
 Unique atom #0 (li) has 4 shells.
 Unique atom #1 (f) has 9 shells.

Shell 0 to 3 belongs to atom li
Shell 4 to 12 belongs to atom f

 Number of unique atoms is 2
 Unique atom #0 (li) has 4 shells.
 Unique atom #1 (f) has 2 shells.

Shell 0 to 3 belongs to atom li
Shell 4 to 5 belongs to atom f

 Number of unique atom is 2
 Unique atom #0 (li) has 13 auxiliary shells.
 Unique atom #1 (f) has 15 auxiliary shells.

Auxiliary Shell 0 to 12 belongs to atom li
Auxiliary Shell 13 to 27 belongs to atom f

================= Automatically determine grid size for reciprocal space summation =================
 Range-separated parameter = 0.90000000000000 and G-space screening threshold = 0.00000000000100
The number of grid points along each axis dimension is (7, 7, 7)
Total number of grid points = 3375

Use nonortho shellpair for diffuse density
======== Initializing relevant kernel for RIJ (DD type) ========
There are 21 shellpairs in the reference unit cell
There are 14003 images and we expect to have 294063 in total
There are 16705 shellpairs in the lattice sum after screening
======== Initializing relevant kernel for RIJ (CD type) ========
There are 78 shellpairs in the reference unit cell
There are 8175 images and we expect to have 637650 in total
There are 30260 shellpairs in the lattice sum after screening
****** AFT -> SR ******
Maximum bra distance cutoff is 33.000000000000
Maximum bra ket distance cutoff is 17.968770700363
Maximum bra ket screening distance is 17.343750000000
Number of auxiliary image is 2611
There are 78 shellpairs in the reference unit cell
There are 2611 images and we expect to have 203658 in total
There are 30260 shellpairs in the lattice sum after screening
Available memory per thread for 2e3c calculation is 3.276277397000Gb
Finish initializing 2e3c SR with the lattice sum!
=================================================
======== Initializing relevant kernel for RIJ (CC type) ========
There are 88 shellpairs in the reference unit cell
There are 695 images and we expect to have 61160 in total
There are 1337 shellpairs in the lattice sum after screening
****** AFT -> SR ******
Maximum bra distance cutoff is 10.000000000000
Maximum bra ket distance cutoff is 18.593368050563
Maximum bra ket screening distance is 17.000000000000
Number of auxiliary image is 695
There are 88 shellpairs in the reference unit cell
There are 213 images and we expect to have 18744 in total
There are 1337 shellpairs in the lattice sum after screening
Available memory per thread for 2e3c calculation is 3.276277397000Gb
Finish initializing 2e3c SR with the lattice sum!
=================================================
======== Initializing the SR component for Vnuc (CD type) ========
Maximum bra distance cutoff is 33.000000000000
Maximum bra ket distance cutoff is 9.129701720000
Maximum bra ket screening distance is 8.478683757907
Number of auxiliary image is 2611
There are 78 shellpairs in the reference unit cell
There are 2611 images and we expect to have 203658 in total
There are 30260 shellpairs in the lattice sum after screening
Available memory per thread for 2e3c calculation is 3.276277397000Gb
Finish initializing 2e3c SR with the lattice sum!
=================================================
======== Initialize the SR component for Vnuc (CC type) ========
Maximum bra distance cutoff is 10.000000000000
Maximum bra ket distance cutoff is 10.053892184326
Maximum bra ket screening distance is 7.232660986948
Number of auxiliary image is 213
There are 88 shellpairs in the reference unit cell
There are 213 images and we expect to have 18744 in total
There are 1337 shellpairs in the lattice sum after screening
Available memory per thread for 2e3c calculation is 3.276277397000Gb
Finish initializing 2e3c SR with the lattice sum!
=================================================
 Aufbau occupation scheme, occupation determined by eigenvalue
 == 0-th k-point nmo = 45 (-0.31093,-0.31093,-0.31093) ==
 == 1-th k-point nmo = 44 (-0.20729,-0.20729,-0.41458) ==
 == 2-th k-point nmo = 44 (-0.10364,-0.10364,-0.51822) ==
 == 3-th k-point nmo = 44 (-0.00000,0.00000,-0.62187) ==
 == 4-th k-point nmo = 44 (0.10364,0.10364,-0.72551) ==
 == 5-th k-point nmo = 44 (0.20729,0.20729,-0.82916) ==
 == 6-th k-point nmo = 44 (0.31093,0.31093,-0.93280) ==
 == 7-th k-point nmo = 44 (0.41458,0.41458,-1.03645) ==
 == 8-th k-point nmo = 44 (-0.20729,-0.41458,-0.20729) ==
 == 9-th k-point nmo = 44 (-0.10364,-0.31093,-0.31093) ==
 == 10-th k-point nmo = 44 (-0.00000,-0.20729,-0.41458) ==
 == 11-th k-point nmo = 44 (0.10364,-0.10364,-0.51822) ==
 == 12-th k-point nmo = 44 (0.20729,0.00000,-0.62187) ==
 == 13-th k-point nmo = 44 (0.31093,0.10364,-0.72551) ==
 == 14-th k-point nmo = 44 (0.41458,0.20729,-0.82916) ==
 == 15-th k-point nmo = 44 (0.51822,0.31093,-0.93280) ==
 == 16-th k-point nmo = 44 (-0.10364,-0.51822,-0.10364) ==
 == 17-th k-point nmo = 44 (-0.00000,-0.41458,-0.20729) ==
 == 18-th k-point nmo = 44 (0.10364,-0.31093,-0.31093) ==
 == 19-th k-point nmo = 44 (0.20729,-0.20729,-0.41458) ==
 == 20-th k-point nmo = 44 (0.31093,-0.10364,-0.51822) ==
 == 21-th k-point nmo = 44 (0.41458,0.00000,-0.62187) ==
 == 22-th k-point nmo = 44 (0.51822,0.10364,-0.72551) ==
 == 23-th k-point nmo = 44 (0.62187,0.20729,-0.82916) ==
 == 24-th k-point nmo = 44 (-0.00000,-0.62187,-0.00000) ==
 == 25-th k-point nmo = 44 (0.10364,-0.51822,-0.10364) ==
 == 26-th k-point nmo = 44 (0.20729,-0.41458,-0.20729) ==
 == 27-th k-point nmo = 45 (0.31093,-0.31093,-0.31093) ==
 == 28-th k-point nmo = 44 (0.41458,-0.20729,-0.41458) ==
 == 29-th k-point nmo = 44 (0.51822,-0.10364,-0.51822) ==
 == 30-th k-point nmo = 44 (0.62187,0.00000,-0.62187) ==
 == 31-th k-point nmo = 44 (0.72551,0.10364,-0.72551) ==
 == 32-th k-point nmo = 44 (0.10364,-0.72551,0.10364) ==
 == 33-th k-point nmo = 44 (0.20729,-0.62187,-0.00000) ==
 == 34-th k-point nmo = 44 (0.31093,-0.51822,-0.10364) ==
 == 35-th k-point nmo = 44 (0.41458,-0.41458,-0.20729) ==
 == 36-th k-point nmo = 44 (0.51822,-0.31093,-0.31093) ==
 == 37-th k-point nmo = 44 (0.62187,-0.20729,-0.41458) ==
 == 38-th k-point nmo = 44 (0.72551,-0.10364,-0.51822) ==
 == 39-th k-point nmo = 44 (0.82916,0.00000,-0.62187) ==
 == 40-th k-point nmo = 44 (0.20729,-0.82916,0.20729) ==
 == 41-th k-point nmo = 44 (0.31093,-0.72551,0.10364) ==
 == 42-th k-point nmo = 44 (0.41458,-0.62187,-0.00000) ==
 == 43-th k-point nmo = 44 (0.51822,-0.51822,-0.10364) ==
 == 44-th k-point nmo = 44 (0.62187,-0.41458,-0.20729) ==
 == 45-th k-point nmo = 44 (0.72551,-0.31093,-0.31093) ==
 == 46-th k-point nmo = 44 (0.82916,-0.20729,-0.41458) ==
 == 47-th k-point nmo = 44 (0.93280,-0.10364,-0.51822) ==
 == 48-th k-point nmo = 44 (0.31093,-0.93280,0.31093) ==
 == 49-th k-point nmo = 44 (0.41458,-0.82916,0.20729) ==
 == 50-th k-point nmo = 44 (0.51822,-0.72551,0.10364) ==
 == 51-th k-point nmo = 44 (0.62187,-0.62187,-0.00000) ==
 == 52-th k-point nmo = 44 (0.72551,-0.51822,-0.10364) ==
 == 53-th k-point nmo = 44 (0.82916,-0.41458,-0.20729) ==
 == 54-th k-point nmo = 44 (0.93280,-0.31093,-0.31093) ==
 == 55-th k-point nmo = 44 (1.03645,-0.20729,-0.41458) ==
 == 56-th k-point nmo = 44 (0.41458,-1.03645,0.41458) ==
 == 57-th k-point nmo = 44 (0.51822,-0.93280,0.31093) ==
 == 58-th k-point nmo = 44 (0.62187,-0.82916,0.20729) ==
 == 59-th k-point nmo = 44 (0.72551,-0.72551,0.10364) ==
 == 60-th k-point nmo = 44 (0.82916,-0.62187,-0.00000) ==
 == 61-th k-point nmo = 44 (0.93280,-0.51822,-0.10364) ==
 == 62-th k-point nmo = 44 (1.03645,-0.41458,-0.20729) ==
 == 63-th k-point nmo = 44 (1.14009,-0.31093,-0.31093) ==
 == 64-th k-point nmo = 44 (-0.41458,-0.20729,-0.20729) ==
 == 65-th k-point nmo = 44 (-0.31093,-0.10364,-0.31093) ==
 == 66-th k-point nmo = 44 (-0.20729,0.00000,-0.41458) ==
 == 67-th k-point nmo = 44 (-0.10364,0.10364,-0.51822) ==
 == 68-th k-point nmo = 44 (-0.00000,0.20729,-0.62187) ==
 == 69-th k-point nmo = 44 (0.10364,0.31093,-0.72551) ==
 == 70-th k-point nmo = 44 (0.20729,0.41458,-0.82916) ==
 == 71-th k-point nmo = 44 (0.31093,0.51822,-0.93280) ==
 == 72-th k-point nmo = 44 (-0.31093,-0.31093,-0.10364) ==
 == 73-th k-point nmo = 45 (-0.20729,-0.20729,-0.20729) ==
 == 74-th k-point nmo = 44 (-0.10364,-0.10364,-0.31093) ==
 == 75-th k-point nmo = 44 (-0.00000,0.00000,-0.41458) ==
 == 76-th k-point nmo = 44 (0.10364,0.10364,-0.51822) ==
 == 77-th k-point nmo = 44 (0.20729,0.20729,-0.62187) ==
 == 78-th k-point nmo = 44 (0.31093,0.31093,-0.72551) ==
 == 79-th k-point nmo = 44 (0.41458,0.41458,-0.82916) ==
 == 80-th k-point nmo = 44 (-0.20729,-0.41458,-0.00000) ==
 == 81-th k-point nmo = 44 (-0.10364,-0.31093,-0.10364) ==
 == 82-th k-point nmo = 43 (-0.00000,-0.20729,-0.20729) ==
 == 83-th k-point nmo = 44 (0.10364,-0.10364,-0.31093) ==
 == 84-th k-point nmo = 44 (0.20729,0.00000,-0.41458) ==
 == 85-th k-point nmo = 44 (0.31093,0.10364,-0.51822) ==
 == 86-th k-point nmo = 44 (0.41458,0.20729,-0.62187) ==
 == 87-th k-point nmo = 44 (0.51822,0.31093,-0.72551) ==
 == 88-th k-point nmo = 44 (-0.10364,-0.51822,0.10364) ==
 == 89-th k-point nmo = 44 (-0.00000,-0.41458,-0.00000) ==
 == 90-th k-point nmo = 44 (0.10364,-0.31093,-0.10364) ==
 == 91-th k-point nmo = 45 (0.20729,-0.20729,-0.20729) ==
 == 92-th k-point nmo = 44 (0.31093,-0.10364,-0.31093) ==
 == 93-th k-point nmo = 44 (0.41458,0.00000,-0.41458) ==
 == 94-th k-point nmo = 44 (0.51822,0.10364,-0.51822) ==
 == 95-th k-point nmo = 44 (0.62187,0.20729,-0.62187) ==
 == 96-th k-point nmo = 44 (0.00000,-0.62187,0.20729) ==
 == 97-th k-point nmo = 44 (0.10364,-0.51822,0.10364) ==
 == 98-th k-point nmo = 44 (0.20729,-0.41458,-0.00000) ==
 == 99-th k-point nmo = 44 (0.31093,-0.31093,-0.10364) ==
 == 100-th k-point nmo = 44 (0.41458,-0.20729,-0.20729) ==
 == 101-th k-point nmo = 44 (0.51822,-0.10364,-0.31093) ==
 == 102-th k-point nmo = 44 (0.62187,0.00000,-0.41458) ==
 == 103-th k-point nmo = 44 (0.72551,0.10364,-0.51822) ==
 == 104-th k-point nmo = 44 (0.10364,-0.72551,0.31093) ==
 == 105-th k-point nmo = 44 (0.20729,-0.62187,0.20729) ==
 == 106-th k-point nmo = 44 (0.31093,-0.51822,0.10364) ==
 == 107-th k-point nmo = 44 (0.41458,-0.41458,-0.00000) ==
 == 108-th k-point nmo = 44 (0.51822,-0.31093,-0.10364) ==
 == 109-th k-point nmo = 44 (0.62187,-0.20729,-0.20729) ==
 == 110-th k-point nmo = 44 (0.72551,-0.10364,-0.31093) ==
 == 111-th k-point nmo = 44 (0.82916,0.00000,-0.41458) ==
 == 112-th k-point nmo = 44 (0.20729,-0.82916,0.41458) ==
 == 113-th k-point nmo = 44 (0.31093,-0.72551,0.31093) ==
 == 114-th k-point nmo = 44 (0.41458,-0.62187,0.20729) ==
 == 115-th k-point nmo = 44 (0.51822,-0.51822,0.10364) ==
 == 116-th k-point nmo = 44 (0.62187,-0.41458,-0.00000) ==
 == 117-th k-point nmo = 44 (0.72551,-0.31093,-0.10364) ==
 == 118-th k-point nmo = 44 (0.82916,-0.20729,-0.20729) ==
 == 119-th k-point nmo = 44 (0.93280,-0.10364,-0.31093) ==
 == 120-th k-point nmo = 44 (0.31093,-0.93280,0.51822) ==
 == 121-th k-point nmo = 44 (0.41458,-0.82916,0.41458) ==
 == 122-th k-point nmo = 44 (0.51822,-0.72551,0.31093) ==
 == 123-th k-point nmo = 44 (0.62187,-0.62187,0.20729) ==
 == 124-th k-point nmo = 44 (0.72551,-0.51822,0.10364) ==
 == 125-th k-point nmo = 44 (0.82916,-0.41458,-0.00000) ==
 == 126-th k-point nmo = 44 (0.93280,-0.31093,-0.10364) ==
 == 127-th k-point nmo = 44 (1.03645,-0.20729,-0.20729) ==
 == 128-th k-point nmo = 44 (-0.51822,-0.10364,-0.10364) ==
 == 129-th k-point nmo = 44 (-0.41458,0.00000,-0.20729) ==
 == 130-th k-point nmo = 44 (-0.31093,0.10364,-0.31093) ==
 == 131-th k-point nmo = 44 (-0.20729,0.20729,-0.41458) ==
 == 132-th k-point nmo = 44 (-0.10364,0.31093,-0.51822) ==
 == 133-th k-point nmo = 44 (-0.00000,0.41458,-0.62187) ==
 == 134-th k-point nmo = 44 (0.10364,0.51822,-0.72551) ==
 == 135-th k-point nmo = 44 (0.20729,0.62187,-0.82916) ==
 == 136-th k-point nmo = 44 (-0.41458,-0.20729,-0.00000) ==
 == 137-th k-point nmo = 44 (-0.31093,-0.10364,-0.10364) ==
 == 138-th k-point nmo = 43 (-0.20729,0.00000,-0.20729) ==
 == 139-th k-point nmo = 44 (-0.10364,0.10364,-0.31093) ==
 == 140-th k-point nmo = 44 (-0.00000,0.20729,-0.41458) ==
 == 141-th k-point nmo = 44 (0.10364,0.31093,-0.51822) ==
 == 142-th k-point nmo = 44 (0.20729,0.41458,-0.62187) ==
 == 143-th k-point nmo = 44 (0.31093,0.51822,-0.72551) ==
 == 144-th k-point nmo = 44 (-0.31093,-0.31093,0.10364) ==
 == 145-th k-point nmo = 43 (-0.20729,-0.20729,-0.00000) ==
 == 146-th k-point nmo = 44 (-0.10364,-0.10364,-0.10364) ==
 == 147-th k-point nmo = 44 (-0.00000,0.00000,-0.20729) ==
 == 148-th k-point nmo = 44 (0.10364,0.10364,-0.31093) ==
 == 149-th k-point nmo = 44 (0.20729,0.20729,-0.41458) ==
 == 150-th k-point nmo = 44 (0.31093,0.31093,-0.51822) ==
 == 151-th k-point nmo = 44 (0.41458,0.41458,-0.62187) ==
 == 152-th k-point nmo = 44 (-0.20729,-0.41458,0.20729) ==
 == 153-th k-point nmo = 44 (-0.10364,-0.31093,0.10364) ==
 == 154-th k-point nmo = 44 (-0.00000,-0.20729,-0.00000) ==
 == 155-th k-point nmo = 44 (0.10364,-0.10364,-0.10364) ==
 == 156-th k-point nmo = 43 (0.20729,0.00000,-0.20729) ==
 == 157-th k-point nmo = 44 (0.31093,0.10364,-0.31093) ==
 == 158-th k-point nmo = 44 (0.41458,0.20729,-0.41458) ==
 == 159-th k-point nmo = 44 (0.51822,0.31093,-0.51822) ==
 == 160-th k-point nmo = 44 (-0.10364,-0.51822,0.31093) ==
 == 161-th k-point nmo = 44 (0.00000,-0.41458,0.20729) ==
 == 162-th k-point nmo = 44 (0.10364,-0.31093,0.10364) ==
 == 163-th k-point nmo = 43 (0.20729,-0.20729,-0.00000) ==
 == 164-th k-point nmo = 44 (0.31093,-0.10364,-0.10364) ==
 == 165-th k-point nmo = 44 (0.41458,0.00000,-0.20729) ==
 == 166-th k-point nmo = 44 (0.51822,0.10364,-0.31093) ==
 == 167-th k-point nmo = 44 (0.62187,0.20729,-0.41458) ==
 == 168-th k-point nmo = 44 (0.00000,-0.62187,0.41458) ==
 == 169-th k-point nmo = 44 (0.10364,-0.51822,0.31093) ==
 == 170-th k-point nmo = 44 (0.20729,-0.41458,0.20729) ==
 == 171-th k-point nmo = 44 (0.31093,-0.31093,0.10364) ==
 == 172-th k-point nmo = 44 (0.41458,-0.20729,-0.00000) ==
 == 173-th k-point nmo = 44 (0.51822,-0.10364,-0.10364) ==
 == 174-th k-point nmo = 44 (0.62187,0.00000,-0.20729) ==
 == 175-th k-point nmo = 44 (0.72551,0.10364,-0.31093) ==
 == 176-th k-point nmo = 44 (0.10364,-0.72551,0.51822) ==
 == 177-th k-point nmo = 44 (0.20729,-0.62187,0.41458) ==
 == 178-th k-point nmo = 44 (0.31093,-0.51822,0.31093) ==
 == 179-th k-point nmo = 44 (0.41458,-0.41458,0.20729) ==
 == 180-th k-point nmo = 44 (0.51822,-0.31093,0.10364) ==
 == 181-th k-point nmo = 44 (0.62187,-0.20729,-0.00000) ==
 == 182-th k-point nmo = 44 (0.72551,-0.10364,-0.10364) ==
 == 183-th k-point nmo = 44 (0.82916,0.00000,-0.20729) ==
 == 184-th k-point nmo = 44 (0.20729,-0.82916,0.62187) ==
 == 185-th k-point nmo = 44 (0.31093,-0.72551,0.51822) ==
 == 186-th k-point nmo = 44 (0.41458,-0.62187,0.41458) ==
 == 187-th k-point nmo = 44 (0.51822,-0.51822,0.31093) ==
 == 188-th k-point nmo = 44 (0.62187,-0.41458,0.20729) ==
 == 189-th k-point nmo = 44 (0.72551,-0.31093,0.10364) ==
 == 190-th k-point nmo = 44 (0.82916,-0.20729,-0.00000) ==
 == 191-th k-point nmo = 44 (0.93280,-0.10364,-0.10364) ==
 == 192-th k-point nmo = 44 (-0.62187,0.00000,0.00000) ==
 == 193-th k-point nmo = 44 (-0.51822,0.10364,-0.10364) ==
 == 194-th k-point nmo = 44 (-0.41458,0.20729,-0.20729) ==
 == 195-th k-point nmo = 45 (-0.31093,0.31093,-0.31093) ==
 == 196-th k-point nmo = 44 (-0.20729,0.41458,-0.41458) ==
 == 197-th k-point nmo = 44 (-0.10364,0.51822,-0.51822) ==
 == 198-th k-point nmo = 44 (-0.00000,0.62187,-0.62187) ==
 == 199-th k-point nmo = 44 (0.10364,0.72551,-0.72551) ==
 == 200-th k-point nmo = 44 (-0.51822,-0.10364,0.10364) ==
 == 201-th k-point nmo = 44 (-0.41458,0.00000,0.00000) ==
 == 202-th k-point nmo = 44 (-0.31093,0.10364,-0.10364) ==
 == 203-th k-point nmo = 45 (-0.20729,0.20729,-0.20729) ==
 == 204-th k-point nmo = 44 (-0.10364,0.31093,-0.31093) ==
 == 205-th k-point nmo = 44 (-0.00000,0.41458,-0.41458) ==
 == 206-th k-point nmo = 44 (0.10364,0.51822,-0.51822) ==
 == 207-th k-point nmo = 44 (0.20729,0.62187,-0.62187) ==
 == 208-th k-point nmo = 44 (-0.41458,-0.20729,0.20729) ==
 == 209-th k-point nmo = 44 (-0.31093,-0.10364,0.10364) ==
 == 210-th k-point nmo = 44 (-0.20729,0.00000,0.00000) ==
 == 211-th k-point nmo = 44 (-0.10364,0.10364,-0.10364) ==
 == 212-th k-point nmo = 43 (-0.00000,0.20729,-0.20729) ==
 == 213-th k-point nmo = 44 (0.10364,0.31093,-0.31093) ==
 == 214-th k-point nmo = 44 (0.20729,0.41458,-0.41458) ==
 == 215-th k-point nmo = 44 (0.31093,0.51822,-0.51822) ==
 == 216-th k-point nmo = 45 (-0.31093,-0.31093,0.31093) ==
 == 217-th k-point nmo = 45 (-0.20729,-0.20729,0.20729) ==
 == 218-th k-point nmo = 44 (-0.10364,-0.10364,0.10364) ==
 == 219-th k-point nmo = 41 (0.00000,0.00000,0.00000) ==
 == 220-th k-point nmo = 44 (0.10364,0.10364,-0.10364) ==
 == 221-th k-point nmo = 45 (0.20729,0.20729,-0.20729) ==
 == 222-th k-point nmo = 45 (0.31093,0.31093,-0.31093) ==
 == 223-th k-point nmo = 44 (0.41458,0.41458,-0.41458) ==
 == 224-th k-point nmo = 44 (-0.20729,-0.41458,0.41458) ==
 == 225-th k-point nmo = 44 (-0.10364,-0.31093,0.31093) ==
 == 226-th k-point nmo = 43 (0.00000,-0.20729,0.20729) ==
 == 227-th k-point nmo = 44 (0.10364,-0.10364,0.10364) ==
 == 228-th k-point nmo = 44 (0.20729,-0.00000,0.00000) ==
 == 229-th k-point nmo = 44 (0.31093,0.10364,-0.10364) ==
 == 230-th k-point nmo = 44 (0.41458,0.20729,-0.20729) ==
 == 231-th k-point nmo = 44 (0.51822,0.31093,-0.31093) ==
 == 232-th k-point nmo = 44 (-0.10364,-0.51822,0.51822) ==
 == 233-th k-point nmo = 44 (0.00000,-0.41458,0.41458) ==
 == 234-th k-point nmo = 44 (0.10364,-0.31093,0.31093) ==
 == 235-th k-point nmo = 45 (0.20729,-0.20729,0.20729) ==
 == 236-th k-point nmo = 44 (0.31093,-0.10364,0.10364) ==
 == 237-th k-point nmo = 44 (0.41458,-0.00000,0.00000) ==
 == 238-th k-point nmo = 44 (0.51822,0.10364,-0.10364) ==
 == 239-th k-point nmo = 44 (0.62187,0.20729,-0.20729) ==
 == 240-th k-point nmo = 44 (0.00000,-0.62187,0.62187) ==
 == 241-th k-point nmo = 44 (0.10364,-0.51822,0.51822) ==
 == 242-th k-point nmo = 44 (0.20729,-0.41458,0.41458) ==
 == 243-th k-point nmo = 45 (0.31093,-0.31093,0.31093) ==
 == 244-th k-point nmo = 44 (0.41458,-0.20729,0.20729) ==
 == 245-th k-point nmo = 44 (0.51822,-0.10364,0.10364) ==
 == 246-th k-point nmo = 44 (0.62187,-0.00000,0.00000) ==
 == 247-th k-point nmo = 44 (0.72551,0.10364,-0.10364) ==
 == 248-th k-point nmo = 44 (0.10364,-0.72551,0.72551) ==
 == 249-th k-point nmo = 44 (0.20729,-0.62187,0.62187) ==
 == 250-th k-point nmo = 44 (0.31093,-0.51822,0.51822) ==
 == 251-th k-point nmo = 44 (0.41458,-0.41458,0.41458) ==
 == 252-th k-point nmo = 44 (0.51822,-0.31093,0.31093) ==
 == 253-th k-point nmo = 44 (0.62187,-0.20729,0.20729) ==
 == 254-th k-point nmo = 44 (0.72551,-0.10364,0.10364) ==
 == 255-th k-point nmo = 44 (0.82916,-0.00000,0.00000) ==
 == 256-th k-point nmo = 44 (-0.72551,0.10364,0.10364) ==
 == 257-th k-point nmo = 44 (-0.62187,0.20729,0.00000) ==
 == 258-th k-point nmo = 44 (-0.51822,0.31093,-0.10364) ==
 == 259-th k-point nmo = 44 (-0.41458,0.41458,-0.20729) ==
 == 260-th k-point nmo = 44 (-0.31093,0.51822,-0.31093) ==
 == 261-th k-point nmo = 44 (-0.20729,0.62187,-0.41458) ==
 == 262-th k-point nmo = 44 (-0.10364,0.72551,-0.51822) ==
 == 263-th k-point nmo = 44 (-0.00000,0.82916,-0.62187) ==
 == 264-th k-point nmo = 44 (-0.62187,0.00000,0.20729) ==
 == 265-th k-point nmo = 44 (-0.51822,0.10364,0.10364) ==
 == 266-th k-point nmo = 44 (-0.41458,0.20729,0.00000) ==
 == 267-th k-point nmo = 44 (-0.31093,0.31093,-0.10364) ==
 == 268-th k-point nmo = 44 (-0.20729,0.41458,-0.20729) ==
 == 269-th k-point nmo = 44 (-0.10364,0.51822,-0.31093) ==
 == 270-th k-point nmo = 44 (-0.00000,0.62187,-0.41458) ==
 == 271-th k-point nmo = 44 (0.10364,0.72551,-0.51822) ==
 == 272-th k-point nmo = 44 (-0.51822,-0.10364,0.31093) ==
 == 273-th k-point nmo = 44 (-0.41458,-0.00000,0.20729) ==
 == 274-th k-point nmo = 44 (-0.31093,0.10364,0.10364) ==
 == 275-th k-point nmo = 43 (-0.20729,0.20729,0.00000) ==
 == 276-th k-point nmo = 44 (-0.10364,0.31093,-0.10364) ==
 == 277-th k-point nmo = 44 (-0.00000,0.41458,-0.20729) ==
 == 278-th k-point nmo = 44 (0.10364,0.51822,-0.31093) ==
 == 279-th k-point nmo = 44 (0.20729,0.62187,-0.41458) ==
 == 280-th k-point nmo = 44 (-0.41458,-0.20729,0.41458) ==
 == 281-th k-point nmo = 44 (-0.31093,-0.10364,0.31093) ==
 == 282-th k-point nmo = 43 (-0.20729,-0.00000,0.20729) ==
 == 283-th k-point nmo = 44 (-0.10364,0.10364,0.10364) ==
 == 284-th k-point nmo = 44 (0.00000,0.20729,0.00000) ==
 == 285-th k-point nmo = 44 (0.10364,0.31093,-0.10364) ==
 == 286-th k-point nmo = 44 (0.20729,0.41458,-0.20729) ==
 == 287-th k-point nmo = 44 (0.31093,0.51822,-0.31093) ==
 == 288-th k-point nmo = 44 (-0.31093,-0.31093,0.51822) ==
 == 289-th k-point nmo = 44 (-0.20729,-0.20729,0.41458) ==
 == 290-th k-point nmo = 44 (-0.10364,-0.10364,0.31093) ==
 == 291-th k-point nmo = 44 (0.00000,-0.00000,0.20729) ==
 == 292-th k-point nmo = 44 (0.10364,0.10364,0.10364) ==
 == 293-th k-point nmo = 43 (0.20729,0.20729,0.00000) ==
 == 294-th k-point nmo = 44 (0.31093,0.31093,-0.10364) ==
 == 295-th k-point nmo = 44 (0.41458,0.41458,-0.20729) ==
 == 296-th k-point nmo = 44 (-0.20729,-0.41458,0.62187) ==
 == 297-th k-point nmo = 44 (-0.10364,-0.31093,0.51822) ==
 == 298-th k-point nmo = 44 (0.00000,-0.20729,0.41458) ==
 == 299-th k-point nmo = 44 (0.10364,-0.10364,0.31093) ==
 == 300-th k-point nmo = 43 (0.20729,-0.00000,0.20729) ==
 == 301-th k-point nmo = 44 (0.31093,0.10364,0.10364) ==
 == 302-th k-point nmo = 44 (0.41458,0.20729,0.00000) ==
 == 303-th k-point nmo = 44 (0.51822,0.31093,-0.10364) ==
 == 304-th k-point nmo = 44 (-0.10364,-0.51822,0.72551) ==
 == 305-th k-point nmo = 44 (0.00000,-0.41458,0.62187) ==
 == 306-th k-point nmo = 44 (0.10364,-0.31093,0.51822) ==
 == 307-th k-point nmo = 44 (0.20729,-0.20729,0.41458) ==
 == 308-th k-point nmo = 44 (0.31093,-0.10364,0.31093) ==
 == 309-th k-point nmo = 44 (0.41458,-0.00000,0.20729) ==
 == 310-th k-point nmo = 44 (0.51822,0.10364,0.10364) ==
 == 311-th k-point nmo = 44 (0.62187,0.20729,0.00000) ==
 == 312-th k-point nmo = 44 (0.00000,-0.62187,0.82916) ==
 == 313-th k-point nmo = 44 (0.10364,-0.51822,0.72551) ==
 == 314-th k-point nmo = 44 (0.20729,-0.41458,0.62187) ==
 == 315-th k-point nmo = 44 (0.31093,-0.31093,0.51822) ==
 == 316-th k-point nmo = 44 (0.41458,-0.20729,0.41458) ==
 == 317-th k-point nmo = 44 (0.51822,-0.10364,0.31093) ==
 == 318-th k-point nmo = 44 (0.62187,-0.00000,0.20729) ==
 == 319-th k-point nmo = 44 (0.72551,0.10364,0.10364) ==
 == 320-th k-point nmo = 44 (-0.82916,0.20729,0.20729) ==
 == 321-th k-point nmo = 44 (-0.72551,0.31093,0.10364) ==
 == 322-th k-point nmo = 44 (-0.62187,0.41458,0.00000) ==
 == 323-th k-point nmo = 44 (-0.51822,0.51822,-0.10364) ==
 == 324-th k-point nmo = 44 (-0.41458,0.62187,-0.20729) ==
 == 325-th k-point nmo = 44 (-0.31093,0.72551,-0.31093) ==
 == 326-th k-point nmo = 44 (-0.20729,0.82916,-0.41458) ==
 == 327-th k-point nmo = 44 (-0.10364,0.93280,-0.51822) ==
 == 328-th k-point nmo = 44 (-0.72551,0.10364,0.31093) ==
 == 329-th k-point nmo = 44 (-0.62187,0.20729,0.20729) ==
 == 330-th k-point nmo = 44 (-0.51822,0.31093,0.10364) ==
 == 331-th k-point nmo = 44 (-0.41458,0.41458,0.00000) ==
 == 332-th k-point nmo = 44 (-0.31093,0.51822,-0.10364) ==
 == 333-th k-point nmo = 44 (-0.20729,0.62187,-0.20729) ==
 == 334-th k-point nmo = 44 (-0.10364,0.72551,-0.31093) ==
 == 335-th k-point nmo = 44 (-0.00000,0.82916,-0.41458) ==
 == 336-th k-point nmo = 44 (-0.62187,0.00000,0.41458) ==
 == 337-th k-point nmo = 44 (-0.51822,0.10364,0.31093) ==
 == 338-th k-point nmo = 44 (-0.41458,0.20729,0.20729) ==
 == 339-th k-point nmo = 44 (-0.31093,0.31093,0.10364) ==
 == 340-th k-point nmo = 44 (-0.20729,0.41458,0.00000) ==
 == 341-th k-point nmo = 44 (-0.10364,0.51822,-0.10364) ==
 == 342-th k-point nmo = 44 (0.00000,0.62187,-0.20729) ==
 == 343-th k-point nmo = 44 (0.10364,0.72551,-0.31093) ==
 == 344-th k-point nmo = 44 (-0.51822,-0.10364,0.51822) ==
 == 345-th k-point nmo = 44 (-0.41458,-0.00000,0.41458) ==
 == 346-th k-point nmo = 44 (-0.31093,0.10364,0.31093) ==
 == 347-th k-point nmo = 45 (-0.20729,0.20729,0.20729) ==
 == 348-th k-point nmo = 44 (-0.10364,0.31093,0.10364) ==
 == 349-th k-point nmo = 44 (0.00000,0.41458,0.00000) ==
 == 350-th k-point nmo = 44 (0.10364,0.51822,-0.10364) ==
 == 351-th k-point nmo = 44 (0.20729,0.62187,-0.20729) ==
 == 352-th k-point nmo = 44 (-0.41458,-0.20729,0.62187) ==
 == 353-th k-point nmo = 44 (-0.31093,-0.10364,0.51822) ==
 == 354-th k-point nmo = 44 (-0.20729,-0.00000,0.41458) ==
 == 355-th k-point nmo = 44 (-0.10364,0.10364,0.31093) ==
 == 356-th k-point nmo = 43 (0.00000,0.20729,0.20729) ==
 == 357-th k-point nmo = 44 (0.10364,0.31093,0.10364) ==
 == 358-th k-point nmo = 44 (0.20729,0.41458,0.00000) ==
 == 359-th k-point nmo = 44 (0.31093,0.51822,-0.10364) ==
 == 360-th k-point nmo = 44 (-0.31093,-0.31093,0.72551) ==
 == 361-th k-point nmo = 44 (-0.20729,-0.20729,0.62187) ==
 == 362-th k-point nmo = 44 (-0.10364,-0.10364,0.51822) ==
 == 363-th k-point nmo = 44 (0.00000,-0.00000,0.41458) ==
 == 364-th k-point nmo = 44 (0.10364,0.10364,0.31093) ==
 == 365-th k-point nmo = 45 (0.20729,0.20729,0.20729) ==
 == 366-th k-point nmo = 44 (0.31093,0.31093,0.10364) ==
 == 367-th k-point nmo = 44 (0.41458,0.41458,0.00000) ==
 == 368-th k-point nmo = 44 (-0.20729,-0.41458,0.82916) ==
 == 369-th k-point nmo = 44 (-0.10364,-0.31093,0.72551) ==
 == 370-th k-point nmo = 44 (0.00000,-0.20729,0.62187) ==
 == 371-th k-point nmo = 44 (0.10364,-0.10364,0.51822) ==
 == 372-th k-point nmo = 44 (0.20729,-0.00000,0.41458) ==
 == 373-th k-point nmo = 44 (0.31093,0.10364,0.31093) ==
 == 374-th k-point nmo = 44 (0.41458,0.20729,0.20729) ==
 == 375-th k-point nmo = 44 (0.51822,0.31093,0.10364) ==
 == 376-th k-point nmo = 44 (-0.10364,-0.51822,0.93280) ==
 == 377-th k-point nmo = 44 (0.00000,-0.41458,0.82916) ==
 == 378-th k-point nmo = 44 (0.10364,-0.31093,0.72551) ==
 == 379-th k-point nmo = 44 (0.20729,-0.20729,0.62187) ==
 == 380-th k-point nmo = 44 (0.31093,-0.10364,0.51822) ==
 == 381-th k-point nmo = 44 (0.41458,-0.00000,0.41458) ==
 == 382-th k-point nmo = 44 (0.51822,0.10364,0.31093) ==
 == 383-th k-point nmo = 44 (0.62187,0.20729,0.20729) ==
 == 384-th k-point nmo = 44 (-0.93280,0.31093,0.31093) ==
 == 385-th k-point nmo = 44 (-0.82916,0.41458,0.20729) ==
 == 386-th k-point nmo = 44 (-0.72551,0.51822,0.10364) ==
 == 387-th k-point nmo = 44 (-0.62187,0.62187,0.00000) ==
 == 388-th k-point nmo = 44 (-0.51822,0.72551,-0.10364) ==
 == 389-th k-point nmo = 44 (-0.41458,0.82916,-0.20729) ==
 == 390-th k-point nmo = 44 (-0.31093,0.93280,-0.31093) ==
 == 391-th k-point nmo = 44 (-0.20729,1.03645,-0.41458) ==
 == 392-th k-point nmo = 44 (-0.82916,0.20729,0.41458) ==
 == 393-th k-point nmo = 44 (-0.72551,0.31093,0.31093) ==
 == 394-th k-point nmo = 44 (-0.62187,0.41458,0.20729) ==
 == 395-th k-point nmo = 44 (-0.51822,0.51822,0.10364) ==
 == 396-th k-point nmo = 44 (-0.41458,0.62187,0.00000) ==
 == 397-th k-point nmo = 44 (-0.31093,0.72551,-0.10364) ==
 == 398-th k-point nmo = 44 (-0.20729,0.82916,-0.20729) ==
 == 399-th k-point nmo = 44 (-0.10364,0.93280,-0.31093) ==
 == 400-th k-point nmo = 44 (-0.72551,0.10364,0.51822) ==
 == 401-th k-point nmo = 44 (-0.62187,0.20729,0.41458) ==
 == 402-th k-point nmo = 44 (-0.51822,0.31093,0.31093) ==
 == 403-th k-point nmo = 44 (-0.41458,0.41458,0.20729) ==
 == 404-th k-point nmo = 44 (-0.31093,0.51822,0.10364) ==
 == 405-th k-point nmo = 44 (-0.20729,0.62187,0.00000) ==
 == 406-th k-point nmo = 44 (-0.10364,0.72551,-0.10364) ==
 == 407-th k-point nmo = 44 (0.00000,0.82916,-0.20729) ==
 == 408-th k-point nmo = 44 (-0.62187,-0.00000,0.62187) ==
 == 409-th k-point nmo = 44 (-0.51822,0.10364,0.51822) ==
 == 410-th k-point nmo = 44 (-0.41458,0.20729,0.41458) ==
 == 411-th k-point nmo = 45 (-0.31093,0.31093,0.31093) ==
 == 412-th k-point nmo = 44 (-0.20729,0.41458,0.20729) ==
 == 413-th k-point nmo = 44 (-0.10364,0.51822,0.10364) ==
 == 414-th k-point nmo = 44 (0.00000,0.62187,0.00000) ==
 == 415-th k-point nmo = 44 (0.10364,0.72551,-0.10364) ==
 == 416-th k-point nmo = 44 (-0.51822,-0.10364,0.72551) ==
 == 417-th k-point nmo = 44 (-0.41458,-0.00000,0.62187) ==
 == 418-th k-point nmo = 44 (-0.31093,0.10364,0.51822) ==
 == 419-th k-point nmo = 44 (-0.20729,0.20729,0.41458) ==
 == 420-th k-point nmo = 44 (-0.10364,0.31093,0.31093) ==
 == 421-th k-point nmo = 44 (0.00000,0.41458,0.20729) ==
 == 422-th k-point nmo = 44 (0.10364,0.51822,0.10364) ==
 == 423-th k-point nmo = 44 (0.20729,0.62187,0.00000) ==
 == 424-th k-point nmo = 44 (-0.41458,-0.20729,0.82916) ==
 == 425-th k-point nmo = 44 (-0.31093,-0.10364,0.72551) ==
 == 426-th k-point nmo = 44 (-0.20729,-0.00000,0.62187) ==
 == 427-th k-point nmo = 44 (-0.10364,0.10364,0.51822) ==
 == 428-th k-point nmo = 44 (0.00000,0.20729,0.41458) ==
 == 429-th k-point nmo = 44 (0.10364,0.31093,0.31093) ==
 == 430-th k-point nmo = 44 (0.20729,0.41458,0.20729) ==
 == 431-th k-point nmo = 44 (0.31093,0.51822,0.10364) ==
 == 432-th k-point nmo = 44 (-0.31093,-0.31093,0.93280) ==
 == 433-th k-point nmo = 44 (-0.20729,-0.20729,0.82916) ==
 == 434-th k-point nmo = 44 (-0.10364,-0.10364,0.72551) ==
 == 435-th k-point nmo = 44 (0.00000,-0.00000,0.62187) ==
 == 436-th k-point nmo = 44 (0.10364,0.10364,0.51822) ==
 == 437-th k-point nmo = 44 (0.20729,0.20729,0.41458) ==
 == 438-th k-point nmo = 45 (0.31093,0.31093,0.31093) ==
 == 439-th k-point nmo = 44 (0.41458,0.41458,0.20729) ==
 == 440-th k-point nmo = 44 (-0.20729,-0.41458,1.03645) ==
 == 441-th k-point nmo = 44 (-0.10364,-0.31093,0.93280) ==
 == 442-th k-point nmo = 44 (0.00000,-0.20729,0.82916) ==
 == 443-th k-point nmo = 44 (0.10364,-0.10364,0.72551) ==
 == 444-th k-point nmo = 44 (0.20729,-0.00000,0.62187) ==
 == 445-th k-point nmo = 44 (0.31093,0.10364,0.51822) ==
 == 446-th k-point nmo = 44 (0.41458,0.20729,0.41458) ==
 == 447-th k-point nmo = 44 (0.51822,0.31093,0.31093) ==
 == 448-th k-point nmo = 44 (-1.03645,0.41458,0.41458) ==
 == 449-th k-point nmo = 44 (-0.93280,0.51822,0.31093) ==
 == 450-th k-point nmo = 44 (-0.82916,0.62187,0.20729) ==
 == 451-th k-point nmo = 44 (-0.72551,0.72551,0.10364) ==
 == 452-th k-point nmo = 44 (-0.62187,0.82916,0.00000) ==
 == 453-th k-point nmo = 44 (-0.51822,0.93280,-0.10364) ==
 == 454-th k-point nmo = 44 (-0.41458,1.03645,-0.20729) ==
 == 455-th k-point nmo = 44 (-0.31093,1.14009,-0.31093) ==
 == 456-th k-point nmo = 44 (-0.93280,0.31093,0.51822) ==
 == 457-th k-point nmo = 44 (-0.82916,0.41458,0.41458) ==
 == 458-th k-point nmo = 44 (-0.72551,0.51822,0.31093) ==
 == 459-th k-point nmo = 44 (-0.62187,0.62187,0.20729) ==
 == 460-th k-point nmo = 44 (-0.51822,0.72551,0.10364) ==
 == 461-th k-point nmo = 44 (-0.41458,0.82916,0.00000) ==
 == 462-th k-point nmo = 44 (-0.31093,0.93280,-0.10364) ==
 == 463-th k-point nmo = 44 (-0.20729,1.03645,-0.20729) ==
 == 464-th k-point nmo = 44 (-0.82916,0.20729,0.62187) ==
 == 465-th k-point nmo = 44 (-0.72551,0.31093,0.51822) ==
 == 466-th k-point nmo = 44 (-0.62187,0.41458,0.41458) ==
 == 467-th k-point nmo = 44 (-0.51822,0.51822,0.31093) ==
 == 468-th k-point nmo = 44 (-0.41458,0.62187,0.20729) ==
 == 469-th k-point nmo = 44 (-0.31093,0.72551,0.10364) ==
 == 470-th k-point nmo = 44 (-0.20729,0.82916,0.00000) ==
 == 471-th k-point nmo = 44 (-0.10364,0.93280,-0.10364) ==
 == 472-th k-point nmo = 44 (-0.72551,0.10364,0.72551) ==
 == 473-th k-point nmo = 44 (-0.62187,0.20729,0.62187) ==
 == 474-th k-point nmo = 44 (-0.51822,0.31093,0.51822) ==
 == 475-th k-point nmo = 44 (-0.41458,0.41458,0.41458) ==
 == 476-th k-point nmo = 44 (-0.31093,0.51822,0.31093) ==
 == 477-th k-point nmo = 44 (-0.20729,0.62187,0.20729) ==
 == 478-th k-point nmo = 44 (-0.10364,0.72551,0.10364) ==
 == 479-th k-point nmo = 44 (0.00000,0.82916,0.00000) ==
 == 480-th k-point nmo = 44 (-0.62187,-0.00000,0.82916) ==
 == 481-th k-point nmo = 44 (-0.51822,0.10364,0.72551) ==
 == 482-th k-point nmo = 44 (-0.41458,0.20729,0.62187) ==
 == 483-th k-point nmo = 44 (-0.31093,0.31093,0.51822) ==
 == 484-th k-point nmo = 44 (-0.20729,0.41458,0.41458) ==
 == 485-th k-point nmo = 44 (-0.10364,0.51822,0.31093) ==
 == 486-th k-point nmo = 44 (0.00000,0.62187,0.20729) ==
 == 487-th k-point nmo = 44 (0.10364,0.72551,0.10364) ==
 == 488-th k-point nmo = 44 (-0.51822,-0.10364,0.93280) ==
 == 489-th k-point nmo = 44 (-0.41458,-0.00000,0.82916) ==
 == 490-th k-point nmo = 44 (-0.31093,0.10364,0.72551) ==
 == 491-th k-point nmo = 44 (-0.20729,0.20729,0.62187) ==
 == 492-th k-point nmo = 44 (-0.10364,0.31093,0.51822) ==
 == 493-th k-point nmo = 44 (0.00000,0.41458,0.41458) ==
 == 494-th k-point nmo = 44 (0.10364,0.51822,0.31093) ==
 == 495-th k-point nmo = 44 (0.20729,0.62187,0.20729) ==
 == 496-th k-point nmo = 44 (-0.41458,-0.20729,1.03645) ==
 == 497-th k-point nmo = 44 (-0.31093,-0.10364,0.93280) ==
 == 498-th k-point nmo = 44 (-0.20729,-0.00000,0.82916) ==
 == 499-th k-point nmo = 44 (-0.10364,0.10364,0.72551) ==
 == 500-th k-point nmo = 44 (0.00000,0.20729,0.62187) ==
 == 501-th k-point nmo = 44 (0.10364,0.31093,0.51822) ==
 == 502-th k-point nmo = 44 (0.20729,0.41458,0.41458) ==
 == 503-th k-point nmo = 44 (0.31093,0.51822,0.31093) ==
 == 504-th k-point nmo = 44 (-0.31093,-0.31093,1.14009) ==
 == 505-th k-point nmo = 44 (-0.20729,-0.20729,1.03645) ==
 == 506-th k-point nmo = 44 (-0.10364,-0.10364,0.93280) ==
 == 507-th k-point nmo = 44 (0.00000,-0.00000,0.82916) ==
 == 508-th k-point nmo = 44 (0.10364,0.10364,0.72551) ==
 == 509-th k-point nmo = 44 (0.20729,0.20729,0.62187) ==
 == 510-th k-point nmo = 44 (0.31093,0.31093,0.51822) ==
 == 511-th k-point nmo = 44 (0.41458,0.41458,0.41458) ==

 Generate autoSAD guess
backing up fragment data
Atom # 0: li, charge: 0, multiplicity: 2.000000
Atom # 1: f, charge: 0, multiplicity: 2.000000
writing autosad to fragment context
Settings for isolated fragments: 
  frgm_gamma: TRUE
  frgm_center: FALSE

    Running SCF for isolated atom #0
    Fragment Input file: /n/netscratch/joonholee_lab/Lab/hieudinh//lif_solve_def2tzvp_omega_0.9_888.scratch20250909020548/autosad_frgmt_0/frgmt_input.in
    Fragment Output file: /n/netscratch/joonholee_lab/Lab/hieudinh//lif_solve_def2tzvp_omega_0.9_888.scratch20250909020548/autosad_frgmt_0/frgmt_job.out
    Fragment job begins at Tue Sep  9 02:06:01 2025

 Integrated density by DFT XC:
   Numerical integral  =     2.999999993509
   Relative error      =     0.0000002164 %
Final energy components:
 DFT Correlation            Energy =  -0.05092434039942
 DFT Exchange               Energy =  -1.75140723515056
 Kinetic (alpha)            Energy =   3.83066744044889
 Kinetic (beta)             Energy =   3.58623083148464
 Nuclear Attraction (alpha) Energy =  -9.10958889983067
 Nuclear Attraction (beta)  Energy =  -8.02018991527133
 Nuclear Repulsion          Energy =   0.00000000000000
 SEOQF                      Energy =  -0.00000000000000
 Total Coulomb              Energy =   4.05329323490599
----------------------------------------------
    SCF Energy: -7.4619188838
   Total fragment job time:  0.42 s.
    Running SCF for isolated atom #1
    Fragment Input file: /n/netscratch/joonholee_lab/Lab/hieudinh//lif_solve_def2tzvp_omega_0.9_888.scratch20250909020548/autosad_frgmt_1/frgmt_input.in
    Fragment Output file: /n/netscratch/joonholee_lab/Lab/hieudinh//lif_solve_def2tzvp_omega_0.9_888.scratch20250909020548/autosad_frgmt_1/frgmt_job.out
    Fragment job begins at Tue Sep  9 02:06:02 2025

 Integrated density by DFT XC:
   Numerical integral  =     9.000000032991
   Relative error      =     0.0000003666 %
Final energy components:
 DFT Correlation            Energy =  -0.29005331125227
 DFT Exchange               Energy =  -9.97682915393220
 Kinetic (alpha)            Energy =  51.55991484248796
 Kinetic (beta)             Energy =  47.86189754389164
 Nuclear Attraction (alpha) Energy = -125.32369696155490
 Nuclear Attraction (beta)  Energy = -113.23357709834465
 Nuclear Repulsion          Energy =   0.00000000000000
 SEOQF                      Energy =  -0.00000000020384
 Total Coulomb              Energy =  49.73321880799708
----------------------------------------------
    SCF Energy: -99.6691253309
   Total fragment job time:  0.53 s.
restoring fragment data

 ------------------------------------------------------------------------
 Allocate 133087952 B from available memory: 104840876704 B
 Time for generating SCF guess: 1.00 s

 Allocate 264964 B from available memory: 104707788768 B
 Selected algorithms for each term:
  kpts_kinetic -> @0x1542687fe680
  kpts_nn -> @0x1542687fe800
  kpts_rij_bigmem -> @0x1542687fe3e0
  kpts_vnuc_df -> @0x1542687fe380
  kpts_xc -> @0x1542687fe2c0
 Time for computing kinetic matrix is 10.57 s
Start calculating Vnuc DD type!
Start calculating Vnuc CD type!
Start calculating Vnuc CC type!
 Time for computing nuclear attraction matrix is 21.94 s
Compute (P|Q) and use solve on the fly!
Maximum distance between P and Q is 28.75642758820560
Number of images for (P|Qn) is 1873
 Time for computing 2e2c SR integral is 0.13 s
Maximum dynamic memory per thread for 2e3c SR integrals: 0.041 GiB
Batch size for basis function pair is 396 out of 396
 === bvk cell = 0 has 100.000 % of the basis function pairs === 
 === bvk cell = 1 has 100.000 % of the basis function pairs === 
 === bvk cell = 2 has 90.909 % of the basis function pairs === 
 === bvk cell = 3 has 41.667 % of the basis function pairs === 
 === bvk cell = 4 has 40.152 % of the basis function pairs === 
 === bvk cell = 5 has 42.424 % of the basis function pairs === 
 === bvk cell = 6 has 75.758 % of the basis function pairs === 
 === bvk cell = 7 has 100.000 % of the basis function pairs === 
 === bvk cell = 8 has 100.000 % of the basis function pairs === 
 === bvk cell = 9 has 97.222 % of the basis function pairs === 
 === bvk cell = 10 has 41.667 % of the basis function pairs === 
 === bvk cell = 11 has 41.667 % of the basis function pairs === 
 === bvk cell = 12 has 34.848 % of the basis function pairs === 
 === bvk cell = 13 has 45.707 % of the basis function pairs === 
 === bvk cell = 14 has 78.788 % of the basis function pairs === 
 === bvk cell = 15 has 100.000 % of the basis function pairs === 
 === bvk cell = 16 has 90.909 % of the basis function pairs === 
 === bvk cell = 17 has 41.667 % of the basis function pairs === 
 === bvk cell = 18 has 41.667 % of the basis function pairs === 
 === bvk cell = 19 has 34.343 % of the basis function pairs === 
 === bvk cell = 20 has 40.404 % of the basis function pairs === 
 === bvk cell = 21 has 42.424 % of the basis function pairs === 
 === bvk cell = 22 has 75.758 % of the basis function pairs === 
 === bvk cell = 23 has 99.242 % of the basis function pairs === 
 === bvk cell = 24 has 41.667 % of the basis function pairs === 
 === bvk cell = 25 has 41.667 % of the basis function pairs === 
 === bvk cell = 26 has 34.343 % of the basis function pairs === 
 === bvk cell = 27 has 8.333 % of the basis function pairs === 
 === bvk cell = 28 has 40.404 % of the basis function pairs === 
 === bvk cell = 29 has 41.667 % of the basis function pairs === 
 === bvk cell = 30 has 41.667 % of the basis function pairs === 
 === bvk cell = 31 has 41.667 % of the basis function pairs === 
 === bvk cell = 32 has 40.152 % of the basis function pairs === 
 === bvk cell = 33 has 34.848 % of the basis function pairs === 
 === bvk cell = 34 has 40.404 % of the basis function pairs === 
 === bvk cell = 35 has 40.404 % of the basis function pairs === 
 === bvk cell = 36 has 33.333 % of the basis function pairs === 
 === bvk cell = 37 has 41.667 % of the basis function pairs === 
 === bvk cell = 38 has 41.667 % of the basis function pairs === 
 === bvk cell = 39 has 41.667 % of the basis function pairs === 
 === bvk cell = 40 has 42.424 % of the basis function pairs === 
 === bvk cell = 41 has 45.707 % of the basis function pairs === 
 === bvk cell = 42 has 42.424 % of the basis function pairs === 
 === bvk cell = 43 has 41.667 % of the basis function pairs === 
 === bvk cell = 44 has 41.667 % of the basis function pairs === 
 === bvk cell = 45 has 28.788 % of the basis function pairs === 
 === bvk cell = 46 has 28.788 % of the basis function pairs === 
 === bvk cell = 47 has 34.848 % of the basis function pairs === 
 === bvk cell = 48 has 75.758 % of the basis function pairs === 
 === bvk cell = 49 has 78.788 % of the basis function pairs === 
 === bvk cell = 50 has 75.758 % of the basis function pairs === 
 === bvk cell = 51 has 41.667 % of the basis function pairs === 
 === bvk cell = 52 has 41.667 % of the basis function pairs === 
 === bvk cell = 53 has 28.788 % of the basis function pairs === 
 === bvk cell = 54 has 34.848 % of the basis function pairs === 
 === bvk cell = 55 has 47.727 % of the basis function pairs === 
 === bvk cell = 56 has 100.000 % of the basis function pairs === 
 === bvk cell = 57 has 100.000 % of the basis function pairs === 
 === bvk cell = 58 has 99.242 % of the basis function pairs === 
 === bvk cell = 59 has 41.667 % of the basis function pairs === 
 === bvk cell = 60 has 41.667 % of the basis function pairs === 
 === bvk cell = 61 has 34.848 % of the basis function pairs === 
 === bvk cell = 62 has 47.727 % of the basis function pairs === 
 === bvk cell = 63 has 78.788 % of the basis function pairs === 
 === bvk cell = 64 has 100.000 % of the basis function pairs === 
 === bvk cell = 65 has 99.242 % of the basis function pairs === 
 === bvk cell = 66 has 41.667 % of the basis function pairs === 
 === bvk cell = 67 has 41.667 % of the basis function pairs === 
 === bvk cell = 68 has 34.848 % of the basis function pairs === 
 === bvk cell = 69 has 47.727 % of the basis function pairs === 
 === bvk cell = 70 has 78.788 % of the basis function pairs === 
 === bvk cell = 71 has 100.000 % of the basis function pairs === 
 === bvk cell = 72 has 99.242 % of the basis function pairs === 
 === bvk cell = 73 has 49.495 % of the basis function pairs === 
 === bvk cell = 74 has 41.667 % of the basis function pairs === 
 === bvk cell = 75 has 37.374 % of the basis function pairs === 
 === bvk cell = 76 has 40.404 % of the basis function pairs === 
 === bvk cell = 77 has 55.556 % of the basis function pairs === 
 === bvk cell = 78 has 78.788 % of the basis function pairs === 
 === bvk cell = 79 has 100.000 % of the basis function pairs === 
 === bvk cell = 80 has 41.667 % of the basis function pairs === 
 === bvk cell = 81 has 41.667 % of the basis function pairs === 
 === bvk cell = 82 has 40.152 % of the basis function pairs === 
 === bvk cell = 83 has 12.879 % of the basis function pairs === 
 === bvk cell = 84 has 41.667 % of the basis function pairs === 
 === bvk cell = 85 has 42.424 % of the basis function pairs === 
 === bvk cell = 86 has 72.475 % of the basis function pairs === 
 === bvk cell = 87 has 69.192 % of the basis function pairs === 
 === bvk cell = 88 has 41.667 % of the basis function pairs === 
 === bvk cell = 89 has 37.374 % of the basis function pairs === 
 === bvk cell = 90 has 12.879 % of the basis function pairs === 
 === bvk cell = 91 has 11.364 % of the basis function pairs === 
 === bvk cell = 92 has 40.404 % of the basis function pairs === 
 === bvk cell = 93 has 41.667 % of the basis function pairs === 
 === bvk cell = 94 has 41.667 % of the basis function pairs === 
 === bvk cell = 95 has 41.667 % of the basis function pairs === 
 === bvk cell = 96 has 34.848 % of the basis function pairs === 
 === bvk cell = 97 has 40.404 % of the basis function pairs === 
 === bvk cell = 98 has 41.667 % of the basis function pairs === 
 === bvk cell = 99 has 40.404 % of the basis function pairs === 
 === bvk cell = 100 has 33.333 % of the basis function pairs === 
 === bvk cell = 101 has 39.141 % of the basis function pairs === 
 === bvk cell = 102 has 40.404 % of the basis function pairs === 
 === bvk cell = 103 has 38.889 % of the basis function pairs === 
 === bvk cell = 104 has 47.727 % of the basis function pairs === 
 === bvk cell = 105 has 55.556 % of the basis function pairs === 
 === bvk cell = 106 has 42.424 % of the basis function pairs === 
 === bvk cell = 107 has 41.667 % of the basis function pairs === 
 === bvk cell = 108 has 39.141 % of the basis function pairs === 
 === bvk cell = 109 has 8.333 % of the basis function pairs === 
 === bvk cell = 110 has 13.131 % of the basis function pairs === 
 === bvk cell = 111 has 41.162 % of the basis function pairs === 
 === bvk cell = 112 has 78.788 % of the basis function pairs === 
 === bvk cell = 113 has 78.788 % of the basis function pairs === 
 === bvk cell = 114 has 72.475 % of the basis function pairs === 
 === bvk cell = 115 has 41.667 % of the basis function pairs === 
 === bvk cell = 116 has 40.404 % of the basis function pairs === 
 === bvk cell = 117 has 13.131 % of the basis function pairs === 
 === bvk cell = 118 has 45.707 % of the basis function pairs === 
 === bvk cell = 119 has 74.495 % of the basis function pairs === 
 === bvk cell = 120 has 100.000 % of the basis function pairs === 
 === bvk cell = 121 has 100.000 % of the basis function pairs === 
 === bvk cell = 122 has 69.192 % of the basis function pairs === 
 === bvk cell = 123 has 41.667 % of the basis function pairs === 
 === bvk cell = 124 has 38.889 % of the basis function pairs === 
 === bvk cell = 125 has 41.162 % of the basis function pairs === 
 === bvk cell = 126 has 74.495 % of the basis function pairs === 
 === bvk cell = 127 has 79.545 % of the basis function pairs === 
 === bvk cell = 128 has 75.758 % of the basis function pairs === 
 === bvk cell = 129 has 41.667 % of the basis function pairs === 
 === bvk cell = 130 has 41.667 % of the basis function pairs === 
 === bvk cell = 131 has 28.788 % of the basis function pairs === 
 === bvk cell = 132 has 34.848 % of the basis function pairs === 
 === bvk cell = 133 has 47.727 % of the basis function pairs === 
 === bvk cell = 134 has 75.758 % of the basis function pairs === 
 === bvk cell = 135 has 78.788 % of the basis function pairs === 
 === bvk cell = 136 has 41.667 % of the basis function pairs === 
 === bvk cell = 137 has 41.667 % of the basis function pairs === 
 === bvk cell = 138 has 38.889 % of the basis function pairs === 
 === bvk cell = 139 has 12.879 % of the basis function pairs === 
 === bvk cell = 140 has 40.404 % of the basis function pairs === 
 === bvk cell = 141 has 45.707 % of the basis function pairs === 
 === bvk cell = 142 has 74.495 % of the basis function pairs === 
 === bvk cell = 143 has 72.475 % of the basis function pairs === 
 === bvk cell = 144 has 41.667 % of the basis function pairs === 
 === bvk cell = 145 has 38.889 % of the basis function pairs === 
 === bvk cell = 146 has 8.333 % of the basis function pairs === 
 === bvk cell = 147 has 12.879 % of the basis function pairs === 
 === bvk cell = 148 has 40.404 % of the basis function pairs === 
 === bvk cell = 149 has 41.667 % of the basis function pairs === 
 === bvk cell = 150 has 41.667 % of the basis function pairs === 
 === bvk cell = 151 has 41.667 % of the basis function pairs === 
 === bvk cell = 152 has 28.788 % of the basis function pairs === 
 === bvk cell = 153 has 12.879 % of the basis function pairs === 
 === bvk cell = 154 has 12.879 % of the basis function pairs === 
 === bvk cell = 155 has 8.333 % of the basis function pairs === 
 === bvk cell = 156 has 33.586 % of the basis function pairs === 
 === bvk cell = 157 has 41.667 % of the basis function pairs === 
 === bvk cell = 158 has 41.667 % of the basis function pairs === 
 === bvk cell = 159 has 40.404 % of the basis function pairs === 
 === bvk cell = 160 has 34.848 % of the basis function pairs === 
 === bvk cell = 161 has 40.404 % of the basis function pairs === 
 === bvk cell = 162 has 40.404 % of the basis function pairs === 
 === bvk cell = 163 has 33.586 % of the basis function pairs === 
 === bvk cell = 164 has 8.333 % of the basis function pairs === 
 === bvk cell = 165 has 17.424 % of the basis function pairs === 
 === bvk cell = 166 has 17.424 % of the basis function pairs === 
 === bvk cell = 167 has 13.131 % of the basis function pairs === 
 === bvk cell = 168 has 47.727 % of the basis function pairs === 
 === bvk cell = 169 has 45.707 % of the basis function pairs === 
 === bvk cell = 170 has 41.667 % of the basis function pairs === 
 === bvk cell = 171 has 41.667 % of the basis function pairs === 
 === bvk cell = 172 has 17.424 % of the basis function pairs === 
 === bvk cell = 173 has 8.333 % of the basis function pairs === 
 === bvk cell = 174 has 23.485 % of the basis function pairs === 
 === bvk cell = 175 has 45.707 % of the basis function pairs === 
 === bvk cell = 176 has 75.758 % of the basis function pairs === 
 === bvk cell = 177 has 74.495 % of the basis function pairs === 
 === bvk cell = 178 has 41.667 % of the basis function pairs === 
 === bvk cell = 179 has 41.667 % of the basis function pairs === 
 === bvk cell = 180 has 17.424 % of the basis function pairs === 
[...]
 7.08850 7.09603 7.10022 7.12093 7.13558 7.13680 7.28499 8.60157 8.69121 8.80577
 8.86032 8.92860 15.93058 57.45713
 == 468-th k-point (-0.41458,0.62187,0.20729) occupation: 6==
 -23.85931 -1.46371 -0.67468 -0.05047 -0.00921 0.01874 0.50148 0.62031 0.74466 0.75089
 1.18251 1.21176 1.41718 1.42900 1.79758 1.81058 1.90668 2.32578 2.45191 2.69696
 2.72253 2.72869 3.49121 4.05932 4.34714 4.39640 4.85490 6.47133 6.49117 6.79601
 7.08415 7.08599 7.09578 7.10475 7.15282 7.24069 7.25717 8.51774 8.77312 8.77842
 8.81375 8.96920 16.02715 57.44150
 == 469-th k-point (-0.31093,0.72551,0.10364) occupation: 6==
 -23.85931 -1.46350 -0.67123 -0.05164 -0.02403 0.00949 0.56077 0.60494 0.71263 0.75805
 1.04160 1.27392 1.38443 1.49944 1.76782 1.84201 2.09156 2.23527 2.47194 2.53788
 2.71511 2.74094 3.50709 4.10790 4.27708 4.39837 4.91844 6.48228 6.57821 6.71843
 7.08526 7.08789 7.09514 7.10710 7.21547 7.23782 7.29704 8.46678 8.69250 8.78348
 8.81786 9.04044 16.05251 57.51134
 == 470-th k-point (-0.20729,0.82916,0.00000) occupation: 6==
 -23.85931 -1.46342 -0.66946 -0.06621 -0.01311 0.00309 0.58683 0.62236 0.68448 0.77055
 0.92243 1.33615 1.40052 1.60098 1.75126 1.92075 2.10466 2.21725 2.46192 2.51826
 2.65040 2.74092 3.48447 4.04212 4.33089 4.47907 4.95086 6.46953 6.57961 6.78820
 7.08535 7.08556 7.09642 7.15719 7.23144 7.24200 7.32339 8.46260 8.61871 8.71389
 8.81913 9.04421 16.06644 57.50174
 == 471-th k-point (-0.10364,0.93280,-0.10364) occupation: 6==
 -23.85930 -1.46353 -0.67049 -0.06694 -0.00543 0.00330 0.56998 0.64504 0.70409 0.78322
 0.90475 1.33703 1.48338 1.63199 1.74188 1.85126 2.01018 2.24953 2.48264 2.59701
 2.62083 2.73219 3.37950 4.06627 4.43387 4.55117 4.86923 6.44435 6.52129 6.86525
 7.08398 7.08715 7.10592 7.17843 7.22747 7.24211 7.31942 8.48546 8.62070 8.67428
 8.80940 9.00336 15.93303 57.26275
 == 472-th k-point (-0.72551,0.10364,0.72551) occupation: 6==
 -23.85930 -1.46353 -0.67049 -0.06694 -0.00543 0.00330 0.56998 0.64504 0.70409 0.78322
 0.90475 1.33703 1.48338 1.63199 1.74188 1.85126 2.01018 2.24953 2.48264 2.59701
 2.62083 2.73219 3.37951 4.06627 4.43387 4.55117 4.86923 6.44435 6.52129 6.86525
 7.08398 7.08715 7.10592 7.17843 7.22747 7.24211 7.31942 8.48546 8.62070 8.67428
 8.80940 9.00336 15.93303 57.26275
 == 473-th k-point (-0.62187,0.20729,0.62187) occupation: 6==
 -23.85931 -1.46373 -0.67417 -0.05199 -0.00684 0.01323 0.51840 0.62673 0.73340 0.76674
 1.03809 1.32544 1.44467 1.46968 1.67438 1.75821 1.88108 2.32393 2.46799 2.68786
 2.72569 2.82732 3.40559 4.08026 4.29365 4.32473 4.92224 6.45748 6.52507 6.69382
 7.08799 7.09207 7.11121 7.11325 7.19295 7.22385 7.24853 8.54220 8.72948 8.80270
 8.85566 8.96836 15.97010 57.42055
 == 474-th k-point (-0.51822,0.31093,0.51822) occupation: 6==
 -23.85931 -1.46393 -0.67774 -0.05407 0.01452 0.02371 0.46105 0.64249 0.74832 0.74993
 1.18493 1.29922 1.35363 1.41489 1.56690 1.80407 1.88721 2.38661 2.45395 2.66832
 2.72819 2.94275 3.39108 4.01820 4.07261 4.30459 4.90681 6.39457 6.55424 6.75180
 7.08850 7.09603 7.10022 7.12093 7.13558 7.13680 7.28499 8.60157 8.69121 8.80577
 8.86032 8.92860 15.93058 57.45713
 == 475-th k-point (-0.41458,0.41458,0.41458) occupation: 6==
 -23.85931 -1.46400 -0.67919 -0.05759 0.02823 0.02823 0.43651 0.66402 0.73910 0.73910
 1.31195 1.31195 1.33930 1.51683 1.51683 1.81847 1.82372 2.41356 2.41356 2.73416
 2.90446 3.00751 3.00751 3.95093 3.95093 4.21438 4.87163 6.58821 6.58821 6.83646
 7.08067 7.08067 7.08359 7.09341 7.10571 7.10571 7.29879 8.63182 8.63182 8.81556
 8.95812 8.95812 15.16678 57.44462
 == 476-th k-point (-0.31093,0.51822,0.31093) occupation: 6==
 -23.85931 -1.46393 -0.67774 -0.05407 0.01452 0.02371 0.46105 0.64249 0.74832 0.74993
 1.18493 1.29922 1.35363 1.41489 1.56690 1.80407 1.88721 2.38661 2.45395 2.66832
 2.72819 2.94275 3.39108 4.01820 4.07261 4.30459 4.90681 6.39457 6.55424 6.75180
 7.08850 7.09603 7.10022 7.12093 7.13558 7.13680 7.28499 8.60157 8.69121 8.80577
 8.86032 8.92860 15.93058 57.45713
 == 477-th k-point (-0.20729,0.62187,0.20729) occupation: 6==
 -23.85931 -1.46373 -0.67417 -0.05199 -0.00684 0.01323 0.51840 0.62673 0.73340 0.76674
 1.03809 1.32544 1.44467 1.46968 1.67438 1.75821 1.88108 2.32393 2.46799 2.68786
 2.72569 2.82732 3.40559 4.08026 4.29365 4.32473 4.92224 6.45748 6.52507 6.69382
 7.08799 7.09207 7.11121 7.11325 7.19295 7.22385 7.24853 8.54220 8.72948 8.80270
 8.85566 8.96836 15.97010 57.42055
 == 478-th k-point (-0.10364,0.72551,0.10364) occupation: 6==
 -23.85930 -1.46353 -0.67049 -0.06694 -0.00543 0.00330 0.56998 0.64504 0.70409 0.78322
 0.90475 1.33703 1.48338 1.63199 1.74188 1.85126 2.01018 2.24953 2.48264 2.59701
 2.62083 2.73219 3.37951 4.06627 4.43387 4.55117 4.86923 6.44435 6.52129 6.86525
 7.08398 7.08715 7.10592 7.17843 7.22747 7.24211 7.31942 8.48546 8.62070 8.67428
 8.80940 9.00336 15.93303 57.26275
 == 479-th k-point (0.00000,0.82916,0.00000) occupation: 6==
 -23.85929 -1.46344 -0.66893 -0.07598 -0.00066 -0.00066 0.58573 0.68377 0.78965 0.78965
 1.33482 1.52456 1.71342 1.71343 2.17589 2.19920 2.21725 2.21725 2.24657 2.24658
 2.37302 2.51338 3.36544 4.69092 4.70386 4.70774 4.70775 6.52308 6.52308 7.05342
 7.08358 7.08535 7.23715 7.24250 7.24250 7.40743 7.40743 8.43829 8.45516 8.46260
 8.46260 9.01164 15.88721 57.10955
 == 480-th k-point (-0.62187,-0.00000,0.82916) occupation: 6==
 -23.85931 -1.46342 -0.66946 -0.06621 -0.01311 0.00309 0.58683 0.62236 0.68448 0.77055
 0.92243 1.33615 1.40052 1.60098 1.75126 1.92075 2.10466 2.21725 2.46192 2.51826
 2.65040 2.74092 3.48447 4.04212 4.33089 4.47907 4.95086 6.46953 6.57961 6.78820
 7.08535 7.08556 7.09642 7.15719 7.23144 7.24200 7.32339 8.46260 8.61871 8.71389
 8.81913 9.04421 16.06644 57.50174
 == 481-th k-point (-0.51822,0.10364,0.72551) occupation: 6==
 -23.85931 -1.46350 -0.67123 -0.05164 -0.02403 0.00949 0.56077 0.60494 0.71263 0.75805
 1.04160 1.27392 1.38443 1.49944 1.76782 1.84201 2.09156 2.23527 2.47194 2.53788
 2.71511 2.74094 3.50709 4.10790 4.27708 4.39837 4.91844 6.48228 6.57821 6.71843
 7.08526 7.08789 7.09514 7.10710 7.21547 7.23782 7.29704 8.46678 8.69250 8.78348
 8.81786 9.04044 16.05251 57.51134
 == 482-th k-point (-0.41458,0.20729,0.62187) occupation: 6==
 -23.85931 -1.46371 -0.67468 -0.05047 -0.00921 0.01874 0.50148 0.62031 0.74466 0.75089
 1.18251 1.21176 1.41718 1.42900 1.79758 1.81058 1.90668 2.32578 2.45191 2.69696
 2.72253 2.72869 3.49121 4.05932 4.34714 4.39640 4.85490 6.47133 6.49117 6.79601
 7.08415 7.08599 7.09578 7.10475 7.15282 7.24069 7.25717 8.51774 8.77312 8.77842
 8.81375 8.96920 16.02715 57.44150
 == 483-th k-point (-0.31093,0.31093,0.51822) occupation: 6==
 -23.85931 -1.46393 -0.67774 -0.05407 0.01452 0.02371 0.46105 0.64249 0.74832 0.74993
 1.18493 1.29922 1.35363 1.41489 1.56690 1.80407 1.88721 2.38661 2.45395 2.66832
 2.72819 2.94275 3.39108 4.01820 4.07261 4.30459 4.90681 6.39457 6.55424 6.75180
 7.08850 7.09603 7.10022 7.12093 7.13558 7.13680 7.28499 8.60157 8.69121 8.80577
 8.86032 8.92860 15.93058 57.45713
 == 484-th k-point (-0.20729,0.41458,0.41458) occupation: 6==
 -23.85932 -1.46404 -0.67870 -0.04952 0.01155 0.02790 0.45915 0.64110 0.74987 0.75837
 1.19106 1.28428 1.36910 1.43821 1.60145 1.78548 1.92548 2.39547 2.41280 2.66003
 2.73927 2.96161 3.37783 3.92506 4.08842 4.30749 5.01555 6.35970 6.64668 6.82821
 7.08162 7.09606 7.10016 7.10822 7.10876 7.14379 7.27303 8.60954 8.68913 8.80295
 8.85384 8.92446 15.81903 57.59003
 == 485-th k-point (-0.10364,0.51822,0.31093) occupation: 6==
 -23.85932 -1.46397 -0.67704 -0.04264 -0.00490 0.02130 0.49317 0.62890 0.74711 0.76484
 1.09330 1.28425 1.42408 1.48612 1.73081 1.78015 1.95036 2.29974 2.43921 2.68690
 2.71938 2.73262 3.41753 4.10862 4.20656 4.43083 5.03653 6.37804 6.50724 6.87340
 7.08840 7.09144 7.10350 7.10783 7.15029 7.22675 7.23883 8.51631 8.74083 8.78471
 8.78974 8.95310 15.87922 57.63578
 == 486-th k-point (0.00000,0.62187,0.20729) occupation: 6==
 -23.85932 -1.46376 -0.67366 -0.05284 -0.00694 0.00968 0.53674 0.63502 0.71783 0.77445
 0.95866 1.32429 1.46603 1.56331 1.70235 1.83935 2.09907 2.22057 2.46371 2.53980
 2.68617 2.71965 3.43000 4.07296 4.27837 4.56918 4.99450 6.39784 6.49775 6.89835
 7.08515 7.08942 7.09405 7.15063 7.22181 7.22528 7.28143 8.46970 8.63311 8.71568
 8.79972 9.01173 15.96084 57.57196
 == 487-th k-point (0.10364,0.72551,0.10364) occupation: 6==
 -23.85930 -1.46353 -0.67049 -0.06694 -0.00543 0.00330 0.56998 0.64504 0.70409 0.78322
 0.90475 1.33703 1.48338 1.63199 1.74188 1.85126 2.01018 2.24953 2.48264 2.59701
 2.62083 2.73219 3.37950 4.06627 4.43387 4.55117 4.86923 6.44435 6.52129 6.86525
 7.08398 7.08715 7.10592 7.17843 7.22747 7.24211 7.31942 8.48546 8.62070 8.67428
 8.80940 9.00336 15.93303 57.26275
 == 488-th k-point (-0.51822,-0.10364,0.93280) occupation: 6==
 -23.85931 -1.46350 -0.67123 -0.05164 -0.02403 0.00949 0.56077 0.60494 0.71263 0.75805
 1.04160 1.27392 1.38443 1.49944 1.76782 1.84201 2.09156 2.23527 2.47194 2.53788
 2.71511 2.74094 3.50709 4.10790 4.27708 4.39837 4.91844 6.48228 6.57821 6.71843
 7.08526 7.08789 7.09514 7.10710 7.21547 7.23782 7.29704 8.46678 8.69250 8.78348
 8.81786 9.04044 16.05251 57.51134
 == 489-th k-point (-0.41458,-0.00000,0.82916) occupation: 6==
 -23.85932 -1.46340 -0.66999 -0.04104 -0.04104 0.00690 0.59483 0.59483 0.68573 0.75106
 1.13952 1.13952 1.38187 1.48262 1.79008 1.79008 2.18015 2.21725 2.47118 2.49952
 2.73791 2.73791 3.52195 4.18311 4.18311 4.27288 4.93970 6.57427 6.57427 6.65534
 7.08535 7.08869 7.09108 7.09108 7.23198 7.23198 7.30318 8.46260 8.68829 8.81660
 8.81660 9.05716 16.05293 57.56445
 == 490-th k-point (-0.31093,0.10364,0.72551) occupation: 6==
 -23.85931 -1.46350 -0.67123 -0.05164 -0.02403 0.00949 0.56077 0.60494 0.71263 0.75805
 1.04160 1.27392 1.38443 1.49944 1.76782 1.84201 2.09156 2.23527 2.47194 2.53788
 2.71511 2.74094 3.50709 4.10790 4.27708 4.39837 4.91844 6.48228 6.57821 6.71843
 7.08526 7.08789 7.09514 7.10710 7.21547 7.23782 7.29704 8.46678 8.69250 8.78348
 8.81786 9.04044 16.05251 57.51134
 == 491-th k-point (-0.20729,0.20729,0.62187) occupation: 6==
 -23.85931 -1.46373 -0.67417 -0.05199 -0.00684 0.01323 0.51840 0.62673 0.73340 0.76674
 1.03809 1.32544 1.44467 1.46968 1.67438 1.75821 1.88108 2.32393 2.46799 2.68786
 2.72569 2.82732 3.40559 4.08026 4.29365 4.32473 4.92224 6.45748 6.52507 6.69382
 7.08799 7.09207 7.11121 7.11325 7.19295 7.22385 7.24853 8.54220 8.72948 8.80270
 8.85566 8.96836 15.97010 57.42055
 == 492-th k-point (-0.10364,0.31093,0.51822) occupation: 6==
 -23.85932 -1.46397 -0.67704 -0.04264 -0.00490 0.02130 0.49317 0.62890 0.74711 0.76484
 1.09330 1.28425 1.42408 1.48612 1.73081 1.78015 1.95036 2.29974 2.43921 2.68690
 2.71938 2.73262 3.41753 4.10862 4.20656 4.43083 5.03653 6.37804 6.50724 6.87340
 7.08840 7.09144 7.10350 7.10783 7.15029 7.22675 7.23883 8.51631 8.74083 8.78471
 8.78974 8.95310 15.87922 57.63578
 == 493-th k-point (0.00000,0.41458,0.41458) occupation: 6==
 -23.85932 -1.46406 -0.67820 -0.03301 -0.01305 0.02756 0.48584 0.62167 0.76034 0.76264
 1.15344 1.25703 1.43467 1.49219 1.76527 1.90832 2.11383 2.20044 2.36954 2.67757
 2.74645 2.85444 3.41705 3.86902 4.37235 4.51192 5.09342 6.36240 6.83617 6.85302
 7.08359 7.08474 7.10340 7.10382 7.18920 7.20808 7.28809 8.45257 8.75857 8.77749
 8.85139 8.91129 15.78779 57.69810
 == 494-th k-point (0.10364,0.51822,0.31093) occupation: 6==
 -23.85932 -1.46397 -0.67704 -0.04264 -0.00490 0.02130 0.49317 0.62890 0.74711 0.76484
 1.09330 1.28425 1.42408 1.48612 1.73081 1.78016 1.95036 2.29974 2.43921 2.68690
 2.71938 2.73262 3.41753 4.10862 4.20656 4.43083 5.03653 6.37804 6.50724 6.87340
 7.08840 7.09144 7.10350 7.10783 7.15029 7.22675 7.23883 8.51631 8.74083 8.78471
 8.78974 8.95310 15.87922 57.63578
 == 495-th k-point (0.20729,0.62187,0.20729) occupation: 6==
 -23.85931 -1.46373 -0.67417 -0.05199 -0.00684 0.01323 0.51840 0.62673 0.73340 0.76674
 1.03809 1.32544 1.44467 1.46968 1.67438 1.75821 1.88108 2.32393 2.46799 2.68786
 2.72569 2.82732 3.40559 4.08026 4.29365 4.32473 4.92224 6.45748 6.52507 6.69382
 7.08799 7.09207 7.11121 7.11325 7.19295 7.22384 7.24853 8.54220 8.72948 8.80270
 8.85566 8.96836 15.97010 57.42055
 == 496-th k-point (-0.41458,-0.20729,1.03645) occupation: 6==
 -23.85931 -1.46371 -0.67468 -0.05047 -0.00921 0.01874 0.50148 0.62031 0.74466 0.75089
 1.18251 1.21176 1.41718 1.42900 1.79759 1.81058 1.90668 2.32579 2.45191 2.69697
 2.72253 2.72869 3.49121 4.05932 4.34714 4.39640 4.85490 6.47133 6.49117 6.79601
 7.08415 7.08599 7.09578 7.10475 7.15282 7.24069 7.25717 8.51774 8.77312 8.77842
 8.81375 8.96920 16.02715 57.44150
 == 497-th k-point (-0.31093,-0.10364,0.93280) occupation: 6==
 -23.85931 -1.46350 -0.67123 -0.05164 -0.02403 0.00949 0.56077 0.60494 0.71263 0.75805
 1.04160 1.27392 1.38443 1.49944 1.76782 1.84201 2.09156 2.23527 2.47194 2.53788
 2.71511 2.74094 3.50709 4.10790 4.27708 4.39837 4.91844 6.48228 6.57821 6.71843
 7.08526 7.08789 7.09514 7.10710 7.21547 7.23782 7.29704 8.46678 8.69250 8.78348
 8.81786 9.04044 16.05251 57.51134
 == 498-th k-point (-0.20729,-0.00000,0.82916) occupation: 6==
 -23.85931 -1.46342 -0.66946 -0.06621 -0.01311 0.00309 0.58683 0.62236 0.68448 0.77055
 0.92243 1.33615 1.40052 1.60098 1.75126 1.92075 2.10466 2.21725 2.46192 2.51826
 2.65040 2.74092 3.48447 4.04212 4.33089 4.47907 4.95086 6.46953 6.57961 6.78820
 7.08535 7.08556 7.09642 7.15719 7.23144 7.24200 7.32339 8.46260 8.61871 8.71389
 8.81913 9.04421 16.06644 57.50174
 == 499-th k-point (-0.10364,0.10364,0.72551) occupation: 6==
 -23.85930 -1.46353 -0.67049 -0.06694 -0.00543 0.00330 0.56998 0.64504 0.70409 0.78322
 0.90475 1.33703 1.48338 1.63199 1.74188 1.85126 2.01018 2.24953 2.48264 2.59701
 2.62083 2.73219 3.37951 4.06627 4.43387 4.55117 4.86923 6.44435 6.52129 6.86525
 7.08398 7.08715 7.10592 7.17843 7.22747 7.24211 7.31942 8.48546 8.62070 8.67428
 8.80940 9.00336 15.93303 57.26275
 == 500-th k-point (0.00000,0.20729,0.62187) occupation: 6==
 -23.85932 -1.46376 -0.67366 -0.05284 -0.00694 0.00968 0.53674 0.63502 0.71783 0.77445
 0.95866 1.32429 1.46603 1.56331 1.70235 1.83935 2.09907 2.22057 2.46371 2.53980
 2.68617 2.71965 3.43000 4.07296 4.27837 4.56918 4.99450 6.39784 6.49775 6.89835
 7.08515 7.08942 7.09405 7.15063 7.22181 7.22528 7.28143 8.46970 8.63311 8.71568
 8.79972 9.01173 15.96084 57.57196
 == 501-th k-point (0.10364,0.31093,0.51822) occupation: 6==
 -23.85932 -1.46397 -0.67704 -0.04264 -0.00490 0.02130 0.49317 0.62890 0.74711 0.76484
 1.09330 1.28425 1.42408 1.48612 1.73081 1.78016 1.95036 2.29974 2.43921 2.68690
 2.71938 2.73262 3.41753 4.10862 4.20656 4.43083 5.03653 6.37804 6.50724 6.87340
 7.08840 7.09144 7.10350 7.10783 7.15029 7.22675 7.23883 8.51631 8.74083 8.78471
 8.78974 8.95310 15.87922 57.63578
 == 502-th k-point (0.20729,0.41458,0.41458) occupation: 6==
 -23.85932 -1.46404 -0.67870 -0.04952 0.01155 0.02790 0.45915 0.64110 0.74987 0.75837
 1.19106 1.28428 1.36910 1.43821 1.60145 1.78547 1.92548 2.39547 2.41280 2.66003
 2.73927 2.96161 3.37783 3.92506 4.08842 4.30749 5.01555 6.35970 6.64668 6.82821
 7.08162 7.09606 7.10016 7.10822 7.10876 7.14379 7.27303 8.60954 8.68913 8.80295
 8.85384 8.92446 15.81903 57.59003
 == 503-th k-point (0.31093,0.51822,0.31093) occupation: 6==
 -23.85931 -1.46393 -0.67774 -0.05407 0.01452 0.02371 0.46105 0.64249 0.74832 0.74993
 1.18493 1.29922 1.35363 1.41489 1.56690 1.80407 1.88721 2.38661 2.45395 2.66832
 2.72819 2.94275 3.39108 4.01820 4.07261 4.30459 4.90681 6.39457 6.55424 6.75180
 7.08850 7.09603 7.10022 7.12093 7.13558 7.13680 7.28499 8.60157 8.69121 8.80577
 8.86032 8.92860 15.93058 57.45713
 == 504-th k-point (-0.31093,-0.31093,1.14009) occupation: 6==
 -23.85931 -1.46393 -0.67774 -0.05407 0.01452 0.02371 0.46105 0.64249 0.74832 0.74993
 1.18493 1.29922 1.35363 1.41489 1.56690 1.80407 1.88721 2.38661 2.45395 2.66832
 2.72819 2.94275 3.39108 4.01820 4.07261 4.30459 4.90681 6.39457 6.55424 6.75180
 7.08850 7.09603 7.10022 7.12093 7.13558 7.13680 7.28499 8.60157 8.69121 8.80577
 8.86032 8.92860 15.93058 57.45713
 == 505-th k-point (-0.20729,-0.20729,1.03645) occupation: 6==
 -23.85931 -1.46373 -0.67417 -0.05199 -0.00684 0.01323 0.51840 0.62673 0.73340 0.76674
 1.03809 1.32544 1.44467 1.46968 1.67438 1.75821 1.88108 2.32393 2.46799 2.68786
 2.72569 2.82732 3.40559 4.08026 4.29365 4.32473 4.92224 6.45748 6.52507 6.69382
 7.08799 7.09207 7.11121 7.11325 7.19295 7.22384 7.24853 8.54220 8.72948 8.80270
 8.85566 8.96836 15.97010 57.42055
 == 506-th k-point (-0.10364,-0.10364,0.93280) occupation: 6==
 -23.85930 -1.46353 -0.67049 -0.06694 -0.00543 0.00330 0.56998 0.64504 0.70409 0.78322
 0.90475 1.33703 1.48338 1.63199 1.74188 1.85126 2.01018 2.24953 2.48264 2.59701
 2.62083 2.73219 3.37950 4.06627 4.43387 4.55117 4.86923 6.44435 6.52129 6.86525
 7.08398 7.08715 7.10592 7.17843 7.22747 7.24211 7.31942 8.48546 8.62070 8.67428
 8.80940 9.00336 15.93303 57.26275
 == 507-th k-point (0.00000,-0.00000,0.82916) occupation: 6==
 -23.85929 -1.46344 -0.66893 -0.07598 -0.00066 -0.00066 0.58573 0.68377 0.78965 0.78965
 1.33482 1.52456 1.71342 1.71343 2.17589 2.19920 2.21725 2.21725 2.24657 2.24658
 2.37302 2.51338 3.36544 4.69092 4.70386 4.70774 4.70775 6.52308 6.52308 7.05342
 7.08358 7.08535 7.23715 7.24250 7.24250 7.40743 7.40743 8.43829 8.45516 8.46260
 8.46260 9.01164 15.88721 57.10955
 == 508-th k-point (0.10364,0.10364,0.72551) occupation: 6==
 -23.85930 -1.46353 -0.67049 -0.06694 -0.00543 0.00330 0.56998 0.64504 0.70409 0.78322
 0.90475 1.33703 1.48338 1.63199 1.74188 1.85126 2.01018 2.24953 2.48264 2.59701
 2.62083 2.73219 3.37950 4.06627 4.43387 4.55117 4.86923 6.44435 6.52129 6.86525
 7.08398 7.08715 7.10592 7.17843 7.22747 7.24211 7.31942 8.48546 8.62070 8.67428
 8.80940 9.00336 15.93303 57.26275
 == 509-th k-point (0.20729,0.20729,0.62187) occupation: 6==
 -23.85931 -1.46373 -0.67417 -0.05199 -0.00684 0.01323 0.51840 0.62673 0.73340 0.76674
 1.03809 1.32544 1.44467 1.46968 1.67438 1.75821 1.88108 2.32393 2.46799 2.68786
 2.72569 2.82732 3.40559 4.08026 4.29365 4.32473 4.92224 6.45748 6.52507 6.69382
 7.08799 7.09207 7.11121 7.11325 7.19295 7.22384 7.24853 8.54220 8.72948 8.80270
 8.85566 8.96836 15.97010 57.42055
 == 510-th k-point (0.31093,0.31093,0.51822) occupation: 6==
 -23.85931 -1.46393 -0.67774 -0.05407 0.01452 0.02371 0.46105 0.64249 0.74832 0.74993
 1.18493 1.29922 1.35363 1.41489 1.56690 1.80407 1.88721 2.38661 2.45395 2.66832
 2.72819 2.94275 3.39108 4.01820 4.07261 4.30459 4.90681 6.39457 6.55424 6.75180
 7.08850 7.09603 7.10022 7.12093 7.13558 7.13680 7.28499 8.60157 8.69121 8.80577
 8.86032 8.92860 15.93058 57.45713
 == 511-th k-point (0.41458,0.41458,0.41458) occupation: 6==
 -23.85931 -1.46400 -0.67919 -0.05759 0.02823 0.02823 0.43651 0.66402 0.73910 0.73910
 1.31195 1.31195 1.33930 1.51683 1.51683 1.81847 1.82372 2.41356 2.41356 2.73416
 2.90446 3.00751 3.00751 3.95093 3.95093 4.21438 4.87163 6.58821 6.58821 6.83646
 7.08067 7.08067 7.08359 7.09341 7.10571 7.10571 7.29879 8.63182 8.63182 8.81556
 8.95812 8.95812 15.16678 57.44462
 ---------------------------------------------------------------------------
 VBM is at 219-th k-point with 0.99960 eV
 CBM is at 219-th k-point with 10.16313 eV
 Band gap is 9.16352 eV


           Ground-State Mulliken Net Atomic Charges

      Atom                 Charge (a.u.)          Spin (a.u.)
   --------------------------------------------------------
      1 Li               (0.815832,-0.000000)    (0.000000,0.000000)
      2  F               (-0.815832,0.000000)    (0.000000,0.000000)
   --------------------------------------------------------
  Sum of atomic charges =      (0.000000,-0.000000)
  Sum of spin   charges =       (0.000000,0.000000)



 Total job time:  195.97 s.
 Tue Sep  9 02:09:05 2025


        *************************************************************
        *                                                           *
        *  Thank you very much for using QCPBC. Have a nice day.    *
        *                                                           *
        *************************************************************

Running job 1 of 1
