                  Welcome to Q-Chem
           with Periodic Boundary Condition
     A Quantum Leap Into The Future Of Chemistry

 Adam Rettig, Xintian Feng, Meng-Fu Chen, Hieu Dinh, Stephen Quiton,
 Anton Ni, Paul J. Robinson, Jinghong Zhang, Joonho Lee

Contributors to earlier versions of Q-Chem not listed above:
 Evgeny Epifanovsky, Leo Cunha, Jerome F. Gonthier, Kuan-Yu Liu
 Input file: /n/home02/hieudinh/rsdf_test_full_J/benchmark_pyscf/mgo_co/qcpbc/mgo_slab_def2svp.in
 Scratch folder: /n/netscratch/joonholee_lab/Lab/hieudinh//nhome02hieudinhrsdf_test_full_Jbenchmark_pyscfmgo_coqcpbcmgo_slab_def2svp.scratch20250913235207
 Auxillary files located at: /n/home02/hieudinh/qcpbc/qcaux
 Q-Chem begins on Sat Sep 13 23:52:08 2025

 -------------------------------------------------------------
 User input:
 -------------------------------------------------------------
 $lattice
 3
 11.9443159104 0.0000000000 0.0000000000
 0.0000000000 11.9443159104 0.0000000000
 0.0000000000 0.0000000000 21.6602222298
 $end
 
 $unitcell
 ABSOLUTE
 0 1
 C   1.4930428341    1.4930432491    5.5284856213
 Mg   0.0000000000    0.0000000000    1.0000000000
 Mg   8.9582369328    5.9721579552    1.0000000000
 Mg   2.9860789776    5.9721579552    1.0000000000
 Mg   2.9860789776    8.9582369328    1.0000000000
 Mg   5.9721579552    0.0000000000    1.0000000000
 Mg   5.9721579552    2.9860789776    1.0000000000
 Mg   5.9721579552    5.9721579552    1.0000000000
 Mg   8.9582369328    2.9860789776    1.0000000000
 Mg   5.9721579552    8.9582369328    1.0000000000
 Mg   8.9582369328    0.0000000000    1.0000000000
 Mg   2.9860789776    2.9860789776    1.0000000000
 Mg   8.9582369328    8.9582369328    1.0000000000
 Mg   0.0000000000    8.9582369328    1.0000000000
 Mg   0.0000000000    2.9860789776    1.0000000000
 Mg   0.0000000000    5.9721579552    1.0000000000
 Mg   2.9860789776    0.0000000000    1.0000000000
 Mg   1.4930343349    1.4930374153    3.1511187175
 Mg   7.4651977897   10.4517004415    3.1114386205
 Mg   7.4651969790    7.4651968898    3.1112699448
 Mg   1.4930327857    4.4811832720    3.1056362779
 Mg   7.4651966404    4.4786922443    3.1114383107
 Mg   4.4811624032    1.4930368520    3.1056318890
 Mg  10.4496839597    4.4807048989    3.1095898700
 Mg   1.4930399629    7.4651963524    3.1116080311
 Mg  10.4496925734   10.4496968378    3.1095846708
 Mg   4.4807088948   10.4496904623    3.1095885984
 Mg   4.4786954624    7.4651978298    3.1114386978
 Mg   1.4930424686   10.4492084126    3.1056383774
 Mg  10.4516980458    7.4651970662    3.1114406695
 Mg   4.4807013212    4.4807040921    3.1095854125
 Mg   7.4651986133    1.4930389816    3.1116104730
 Mg  10.4492249714    1.4930441995    3.1056280117
 O  10.4512759328    1.4930390000    1.0000000000
 O   4.4791179776   10.4512759328    1.0000000000
 O   7.4651969552    1.4930390000    1.0000000000
 O   4.4791179776    4.4791179776    1.0000000000
 O  10.4512759328    4.4791179776    1.0000000000
 O   7.4651969552    7.4651969552    1.0000000000
 O   7.4651969552   10.4512759328    1.0000000000
 O   7.4651969552    4.4791179776    1.0000000000
 O   4.4791179776    7.4651969552    1.0000000000
 O   1.4930390000   10.4512759328    1.0000000000
 O  10.4512759328    7.4651969552    1.0000000000
 O   1.4930390000    4.4791179776    1.0000000000
 O   1.4930390000    7.4651969552    1.0000000000
 O   1.4930390000    1.4930390000    1.0000000000
 O   4.4791179776    1.4930390000    1.0000000000
 O  10.4512759328   10.4512759328    1.0000000000
 O   8.9580238897    5.9723685818    3.1594644112
 O   8.9570961456    2.9857717252    3.1600752389
 O   8.9570985067    0.0003085838    3.1600738373
 O   2.9857747423    8.9570945142    3.1600737733
 O   5.9723690642    5.9723696033    3.1594610725
 O   5.9732960489    2.9857717265    3.1600713997
 O   5.9732976356    0.0003062885    3.1600713024
 O   2.9857711850    5.9732998192    3.1600740469
 O   2.9950544541    2.9950623702    3.1548459568
 O   2.9950599166   -0.0089867212    3.1548507549
 O   0.0003060319    8.9570959750    3.1600745678
 O   0.0003045736    5.9732996331    3.1600758940
 O  -0.0089879078    2.9950667318    3.1548429191
 O  -0.0089805134   -0.0089799254    3.1548482730
 O   5.9723706153    8.9580251994    3.1594625961
 O   8.9580250454    8.9580263132    3.1594616543
 O   1.4930495812    1.4930407413    6.6690780399
 $end
 
 $rem
 jobtype = sp
 method = pbe
 dft_d = 6
 scf_convergence = 5
 scf_guess = autosad
 scf_algorithm = gdm
 basis = gen !def2-svp
 aux_basis = gen !rij-def2-svp
 input_bohr = false
 is_basis_uctr = true
 
 mp_mesh = [1,1,1]
 
 integral_direct true
 bvk_cgto true
 symmetry false
 rsdf_print_level 1
 do_nonortho true
 
 thresh 14
 mem_total 500000
 threads 32
 
 MAX_SCF_CYCLES 500
 madelung = false
 omega 0.4
 do_rij_bigmem true
 automate_g true
 print_level 10
 grid_type_xc 1
 
 thresh_1e2c_sp 1e-14
 thresh_2e3c_bra_ket_sep 1e-10
 thresh_g 1e-12
 $end
 
 $rem_autosad
 incfock 1000
 scf_algorithm gdm_ls
 $end
 
 
 $basis
 C     0
 S   5   1.00
    1238.4016938              0.54568832082D-02
     186.29004992             0.40638409211D-01
      42.251176346            0.18025593888
      11.676557932            0.46315121755
       3.5930506482           0.44087173314
 S   1   1.00
       0.40245147363          1.0000000
 S   1   1.00
       0.13090182668          1.0000000
 P   3   1.00
       9.4680970621           0.38387871728D-01
       2.0103545142           0.21117025112
       0.54771004707          0.51328172114
 P   1   1.00
       0.15268613795          1.0000000
 D   1   1.00
       0.8000000              1.0000000
 ****
 O     0
 S   5   1.00
    2266.1767785             -0.53431809926D-02
     340.87010191            -0.39890039230D-01
      77.363135167           -0.17853911985
      21.479644940           -0.46427684959
       6.6589433124          -0.44309745172
 S   1   1.00
       0.80975975668          1.0000000
 S   1   1.00
       0.25530772234          1.0000000
 P   3   1.00
      17.721504317            0.43394573193D-01
       3.8635505440           0.23094120765
       1.0480920883           0.51375311064
 P   1   1.00
       0.27641544411          1.0000000
 D   1   1.00
       1.2000000              1.0000000
 ****
 Mg     0
 S   5   1.00
    4953.8339196             -0.57778967498D-02
     745.18044154            -0.43124761082D-01
     169.21604972            -0.19268216987
      47.300672019           -0.48641439116
      14.461336973           -0.42550894077
 S   3   1.00
      24.768174789            0.87956969984D-01
       2.4940945349          -0.55165058128
       0.87807584533         -0.53443294833
 S   1   1.00
       0.87212782497D-01      1.0000000
 S   1   1.00
       0.33599293780D-01      1.0000000
 P   5   1.00
      98.053010494           -0.14480564601D-01
      22.586932277           -0.95495750787D-01
       6.8391509842          -0.30787672651
       2.2332843818          -0.49936292886
       0.71606599387         -0.31503476213
 P   1   1.00
       0.18914796195          1.0000000
 P   1   1.00
       0.53768755187D-01      1.0000000
 D   1   1.00
       0.1010000              1.0000000
 ****
 $end
 
 $aux_basis
 C     0
 S   7   1.00
    1861.0916331              0.0744171
     642.9939764              0.1653957
     235.1105725              0.5576484
      90.7028894              1.3108298
      36.7794552              2.1694681
      15.6046273              1.7668846
       6.8907294              0.2930769
 S   1   1.00
       3.1478850             -0.1708702
 S   1   1.00
       1.4777287              0.1641553
 S   1   1.00
       0.7076466              0.4149941
 S   1   1.00
       0.3430122              0.1624366
 S   1   1.00
       0.1669453              0.0207675
 P   2   1.00
      13.5472892             -0.0206477
       5.4669419             -0.0115282
 P   1   1.00
       2.1751721              0.0455914
 P   1   1.00
       0.8582194              0.0028360
 P   1   1.00
       0.3376720              0.0181875
 D   2   1.00
       5.9287253             -0.0225948
       1.9809209             -0.0476827
 D   1   1.00
       0.8055417             -0.0365372
 D   1   1.00
       0.3531244             -0.0145417
 F   2   1.00
       1.6755626              0.0088798
       0.5997536              0.0069903
 G   1   1.00
       1.0024600             -0.0022192
 ****
 O     0
 S   7   1.00
    2876.8216605              0.1443558
    1004.7443032              0.2920041
     369.7579954              1.0258517
     142.9442404              2.2875516
      57.8366425              3.6080237
      24.3864983              2.3737865
      10.6622662              0.0489414
 S   1   1.00
       4.8070437             -0.1295186
 S   1   1.00
       2.2210770              0.7747158
 S   1   1.00
       1.0447795              0.7647816
 S   1   1.00
       0.4968425              0.2369803
 S   1   1.00
       0.2371384              0.0208099
 P   2   1.00
      64.2613382             -0.0126659
      16.3006076             -0.0378744
 P   1   1.00
       4.3550542              0.0638078
 P   1   1.00
       1.2019554              0.0169516
 P   1   1.00
       0.3354196              0.0065743
 D   2   1.00
       9.2146611             -0.0597914
       2.8435251             -0.0846724
 D   1   1.00
       0.9955759             -0.0466066
 D   1   1.00
       0.3649441             -0.0096978
 F   2   1.00
       2.6420115              1.0
       0.7345613              1.0
 G   1   1.00
       1.3931000             -0.0016533
 ****
 Mg     0
 S   7   1.00
    4618.7144348              0.4062037
    1715.8572368              0.7248204
     660.3662172              2.4015050
     262.7772421              5.0268089
     107.8796646              6.8807535
      45.5809298              3.0930185
      19.7676678             -0.8061330
 S   1   1.00
       8.7738606              1.2834607
 S   1   1.00
       3.9730763              2.9682392
 S   1   1.00
       1.8294222              1.2081584
 S   1   1.00
       0.8535432             -0.0228789
 S   1   1.00
       0.4020431              0.0060268
 S   1   1.00
       0.1904672              0.0852479
 S   1   1.00
       0.0904075              0.0238626
 P   2   1.00
       4.2335270             -0.0089796
       1.3598327              0.0169486
 P   1   1.00
       0.5026752             -0.0127300
 P   1   1.00
       0.2043109              0.0127291
 P   1   1.00
       0.0858908              0.0069646
 D   2   1.00
      15.3639340              0.0072298
       3.9275269              0.0022521
 D   1   1.00
       1.1824901             -0.0081411
 D   1   1.00
       0.3985299              0.0134364
 D   1   1.00
       0.1398822              0.0062003
 F   2   1.00
       2.2586461             -0.0009518
       0.4740262              0.0022316
 G   1   1.00
       0.8087604             -0.0004005
 ****
 $end
 
 -------------------------------------------------------------
 Running PBC job

 Requested Exchange Correlation Functionals: 
  DFT Exchange:  1.00000 pbe_x
  DFT Correlation:  1.00000 pbe_c
 using 32 threads for computing.
 ---------------------------------------------------------------
      Coordinates of Atoms in Central Unit Cell (Angstroms)
    I     Atom         X            Y            Z
 ---------------------------------------------------------------
    1       C      1.493043     1.493043     5.528486
    2      Mg      0.000000     0.000000     1.000000
    3      Mg      8.958237     5.972158     1.000000
    4      Mg      2.986079     5.972158     1.000000
    5      Mg      2.986079     8.958237     1.000000
    6      Mg      5.972158     0.000000     1.000000
    7      Mg      5.972158     2.986079     1.000000
    8      Mg      5.972158     5.972158     1.000000
    9      Mg      8.958237     2.986079     1.000000
   10      Mg      5.972158     8.958237     1.000000
   11      Mg      8.958237     0.000000     1.000000
   12      Mg      2.986079     2.986079     1.000000
   13      Mg      8.958237     8.958237     1.000000
   14      Mg      0.000000     8.958237     1.000000
   15      Mg      0.000000     2.986079     1.000000
   16      Mg      0.000000     5.972158     1.000000
   17      Mg      2.986079     0.000000     1.000000
   18      Mg      1.493034     1.493037     3.151119
   19      Mg      7.465198    10.451700     3.111439
   20      Mg      7.465197     7.465197     3.111270
   21      Mg      1.493033     4.481183     3.105636
   22      Mg      7.465197     4.478692     3.111438
   23      Mg      4.481162     1.493037     3.105632
   24      Mg     10.449684     4.480705     3.109590
   25      Mg      1.493040     7.465196     3.111608
   26      Mg     10.449693    10.449697     3.109585
   27      Mg      4.480709    10.449690     3.109589
   28      Mg      4.478695     7.465198     3.111439
   29      Mg      1.493042    10.449208     3.105638
   30      Mg     10.451698     7.465197     3.111441
   31      Mg      4.480701     4.480704     3.109585
   32      Mg      7.465199     1.493039     3.111610
   33      Mg     10.449225     1.493044     3.105628
   34       O     10.451276     1.493039     1.000000
   35       O      4.479118    10.451276     1.000000
   36       O      7.465197     1.493039     1.000000
   37       O      4.479118     4.479118     1.000000
   38       O     10.451276     4.479118     1.000000
   39       O      7.465197     7.465197     1.000000
   40       O      7.465197    10.451276     1.000000
   41       O      7.465197     4.479118     1.000000
   42       O      4.479118     7.465197     1.000000
   43       O      1.493039    10.451276     1.000000
   44       O     10.451276     7.465197     1.000000
   45       O      1.493039     4.479118     1.000000
   46       O      1.493039     7.465197     1.000000
   47       O      1.493039     1.493039     1.000000
   48       O      4.479118     1.493039     1.000000
   49       O     10.451276    10.451276     1.000000
   50       O      8.958024     5.972369     3.159464
   51       O      8.957096     2.985772     3.160075
   52       O      8.957099     0.000309     3.160074
   53       O      2.985775     8.957095     3.160074
   54       O      5.972369     5.972370     3.159461
   55       O      5.973296     2.985772     3.160071
   56       O      5.973298     0.000306     3.160071
   57       O      2.985771     5.973300     3.160074
   58       O      2.995054     2.995062     3.154846
   59       O      2.995060    -0.008987     3.154851
   60       O      0.000306     8.957096     3.160075
   61       O      0.000305     5.973300     3.160076
   62       O     -0.008988     2.995067     3.154843
   63       O     -0.008981    -0.008980     3.154848
   64       O      5.972371     8.958025     3.159463
   65       O      8.958025     8.958026     3.159462
   66       O      1.493050     1.493041     6.669078
 ---------------------------------------------------------------
 --------------------------------------------------
              Lattice Vectors (Angstroms)
              X            Y            Z
 --------------------------------------------------
   X      11.944316     0.000000     0.000000
   Y       0.000000    11.944316     0.000000
   Z       0.000000     0.000000    21.660222
 --------------------------------------------------
 --------------------------------------------------
       Reciprocal Lattice Vectors (Angstroms^-1)
              X            Y            Z
 --------------------------------------------------
   X       0.526040     0.000000     0.000000
   Y       0.000000     0.526040     0.000000
   Z       0.000000     0.000000     0.290079
 --------------------------------------------------

 Single point calculation requested

 Hamiltonian contributions:
 List of terms in Hamiltonian: kpts_nn, kpts_kinetic, kpts_vnuc_df, kpts_xc, kpts_rij_bigmem, kpts_dftd3

 K-Points calculation started.

 Basis set information about using solid harmonic (1) or Cartesian (0):
  c : D(1) 
  o : D(1) 
  mg : D(1) 

 Basis set information about using solid harmonic (1) or Cartesian (0):
  c : D(1) D(1) D(1) F(1) G(1) 
  o : D(1) D(1) D(1) F(1) G(1) 
  mg : D(1) D(1) D(1) D(1) F(1) G(1) 

 There are 1052 basis functions in the central unit cell.
 Print atomic basis of atoms in the central unit cell:
 -------------------------------------------------------------
66 984 984 460

  2.82144204878407e+00  2.82144283302041e+00  1.04473237081885e+01
  0.00000000000000e+00  0.00000000000000e+00  1.88972612462577e+00
  1.69286143624996e+01  1.12857429083331e+01  1.88972612462577e+00
  5.64287145416653e+00  1.12857429083331e+01  1.88972612462577e+00
  5.64287145416653e+00  1.69286143624996e+01  1.88972612462577e+00
  1.12857429083331e+01  0.00000000000000e+00  1.88972612462577e+00
  1.12857429083331e+01  5.64287145416653e+00  1.88972612462577e+00
  1.12857429083331e+01  1.12857429083331e+01  1.88972612462577e+00
  1.69286143624996e+01  5.64287145416653e+00  1.88972612462577e+00
  1.12857429083331e+01  1.69286143624996e+01  1.88972612462577e+00
  1.69286143624996e+01  0.00000000000000e+00  1.88972612462577e+00
  5.64287145416653e+00  5.64287145416653e+00  1.88972612462577e+00
  1.69286143624996e+01  1.69286143624996e+01  1.88972612462577e+00
  0.00000000000000e+00  1.69286143624996e+01  1.88972612462577e+00
  0.00000000000000e+00  5.64287145416653e+00  1.88972612462577e+00
  0.00000000000000e+00  1.12857429083331e+01  1.88972612462577e+00
  5.64287145416653e+00  0.00000000000000e+00  1.88972612462577e+00
  2.82142598762379e+00  2.82143180873615e+00  5.95475136225700e+00
  1.41071792886946e+01  1.97508513710652e+01  5.87976684632842e+00
  1.41071777566937e+01  1.41071775881301e+01  5.87944809545154e+00
  2.82142306006008e+00  8.46820909833439e+00  5.86880200793317e+00
  1.41071771168324e+01  8.46350173821253e+00  5.87976626089126e+00
  8.46816966201784e+00  2.82143074425342e+00  5.86879371411418e+00
  1.97470407727280e+01  8.46730510419000e+00  5.87627321421065e+00
  2.82143662300242e+00  1.41071765725913e+01  5.88008698596503e+00
  1.97470570502619e+01  1.97470651088100e+01  5.87626338914658e+00
  8.46731265534662e+00  1.97470530608611e+01  5.87627081123491e+00
  8.46350781954017e+00  1.41071793644727e+01  5.87976699240425e+00
  2.82144135808917e+00  1.97461421189496e+01  5.86880597541317e+00
  1.97508468438484e+01  1.41071779214778e+01  5.87977071837725e+00
  8.46729834331684e+00  8.46730357955896e+00  5.87626479075645e+00
  1.41071808450731e+01  2.82143476861417e+00  5.88009160048725e+00
  1.97461734105465e+01  2.82144462901612e+00  5.86878638707908e+00
  1.97500491658847e+01  2.82143480338514e+00  1.88972612462577e+00
  8.46430625755166e+00  1.97500491658847e+01  1.88972612462577e+00
  1.41071777117182e+01  2.82143480338514e+00  1.88972612462577e+00
  8.46430625755166e+00  8.46430625755166e+00  1.88972612462577e+00
  1.97500491658847e+01  8.46430625755166e+00  1.88972612462577e+00
  1.41071777117182e+01  1.41071777117182e+01  1.88972612462577e+00
  1.41071777117182e+01  1.97500491658847e+01  1.88972612462577e+00
  1.41071777117182e+01  8.46430625755166e+00  1.88972612462577e+00
  8.46430625755166e+00  1.41071777117182e+01  1.88972612462577e+00
  2.82143480338514e+00  1.97500491658847e+01  1.88972612462577e+00
  1.97500491658847e+01  1.41071777117182e+01  1.88972612462577e+00
  2.82143480338514e+00  8.46430625755166e+00  1.88972612462577e+00
  2.82143480338514e+00  1.41071777117182e+01  1.88972612462577e+00
  2.82143480338514e+00  2.82143480338514e+00  1.88972612462577e+00
  8.46430625755166e+00  2.82143480338514e+00  1.88972612462577e+00
  1.97500491658847e+01  1.97500491658847e+01  1.88972612462577e+00
  1.69282117693878e+01  1.12861409349216e+01  5.97052243767002e+00
  1.69264585871251e+01  5.64229083127940e+00  5.97167673473235e+00
  1.69264630489575e+01  5.83138868496294e-04  5.97167408609222e+00
  5.64229653277209e+00  1.69264555042259e+01  5.97167396514974e+00
  1.12861418465255e+01  1.12861428652769e+01  5.97051612844141e+00
  1.12878935937302e+01  5.64229083373604e+00  5.97166947969581e+00
  1.12878965921587e+01  5.78801380122440e-04  5.97166929582546e+00
  5.64228981044934e+00  1.12879007185646e+01  5.97167448217881e+00
  5.65983264658954e+00  5.65984760585052e+00  5.96179482373494e+00
  5.65984296921850e+00 -1.69824418263683e-02  5.96180389082986e+00
  5.78316476398861e-04  1.69264582647378e+01  5.97167546653715e+00
  5.75560688791319e-04  1.12879003668866e+01  5.97167797269194e+00
 -1.69846841753877e-02  5.65985584807999e+00  5.96178908331389e+00
 -1.69707107845318e-02 -1.69695996255705e-02  5.96179920071859e+00
  1.12861447776797e+01  1.69282142443622e+01  5.97051900762813e+00
  1.69282139533443e+01  1.69282163491391e+01  5.97051722788406e+00
  2.82145479895521e+00  2.82143809396524e+00  1.26027309991671e+01

  1.23840169380000e+03
  1.86290049920000e+02
  4.22511763460000e+01
  1.16765579320000e+01
  3.59305064820000e+00
  4.02451473630000e-01
  1.30901826680000e-01
  9.46809706210000e+00
  2.01035451420000e+00
  5.47710047070000e-01
  1.52686137950000e-01
  8.00000000000000e-01
  4.95383391960000e+03
  7.45180441540000e+02
  1.69216049720000e+02
  4.73006720190000e+01
  1.44613369730000e+01
  2.47681747890000e+01
  2.49409453490000e+00
  8.78075845330000e-01
  8.72127824970000e-02
  3.35992937800000e-02
  9.80530104940000e+01
  2.25869322770000e+01
  6.83915098420000e+00
  2.23328438180000e+00
  7.16065993870000e-01
  1.89147961950000e-01
  5.37687551870000e-02
  1.01000000000000e-01
  4.95383391960000e+03
  7.45180441540000e+02
  1.69216049720000e+02
  4.73006720190000e+01
  1.44613369730000e+01
  2.47681747890000e+01
  2.49409453490000e+00
  8.78075845330000e-01
  8.72127824970000e-02
  3.35992937800000e-02
  9.80530104940000e+01
  2.25869322770000e+01
  6.83915098420000e+00
  2.23328438180000e+00
  7.16065993870000e-01
  1.89147961950000e-01
  5.37687551870000e-02
  1.01000000000000e-01
  4.95383391960000e+03
  7.45180441540000e+02
  1.69216049720000e+02
  4.73006720190000e+01
  1.44613369730000e+01
  2.47681747890000e+01
  2.49409453490000e+00
  8.78075845330000e-01
  8.72127824970000e-02
  3.35992937800000e-02
  9.80530104940000e+01
  2.25869322770000e+01
  6.83915098420000e+00
  2.23328438180000e+00
  7.16065993870000e-01
  1.89147961950000e-01
  5.37687551870000e-02
  1.01000000000000e-01
  4.95383391960000e+03
  7.45180441540000e+02
  1.69216049720000e+02
  4.73006720190000e+01
  1.44613369730000e+01
  2.47681747890000e+01
  2.49409453490000e+00
  8.78075845330000e-01
  8.72127824970000e-02
  3.35992937800000e-02
  9.80530104940000e+01
  2.25869322770000e+01
  6.83915098420000e+00
  2.23328438180000e+00
  7.16065993870000e-01
  1.89147961950000e-01
  5.37687551870000e-02
  1.01000000000000e-01
  4.95383391960000e+03
  7.45180441540000e+02
  1.69216049720000e+02
  4.73006720190000e+01
  1.44613369730000e+01
  2.47681747890000e+01
  2.49409453490000e+00
  8.78075845330000e-01
  8.72127824970000e-02
  3.35992937800000e-02
  9.80530104940000e+01
  2.25869322770000e+01
  6.83915098420000e+00
  2.23328438180000e+00
  7.16065993870000e-01
  1.89147961950000e-01
  5.37687551870000e-02
  1.01000000000000e-01
  4.95383391960000e+03
  7.45180441540000e+02
  1.69216049720000e+02
  4.73006720190000e+01
  1.44613369730000e+01
  2.47681747890000e+01
  2.49409453490000e+00
  8.78075845330000e-01
  8.72127824970000e-02
  3.35992937800000e-02
  9.80530104940000e+01
  2.25869322770000e+01
  6.83915098420000e+00
  2.23328438180000e+00
  7.16065993870000e-01
  1.89147961950000e-01
  5.37687551870000e-02
  1.01000000000000e-01
  4.95383391960000e+03
  7.45180441540000e+02
  1.69216049720000e+02
  4.73006720190000e+01
  1.44613369730000e+01
  2.47681747890000e+01
  2.49409453490000e+00
  8.78075845330000e-01
  8.72127824970000e-02
  3.35992937800000e-02
  9.80530104940000e+01
  2.25869322770000e+01
  6.83915098420000e+00
  2.23328438180000e+00
  7.16065993870000e-01
  1.89147961950000e-01
  5.37687551870000e-02
  1.01000000000000e-01
  4.95383391960000e+03
  7.45180441540000e+02
  1.69216049720000e+02
  4.73006720190000e+01
  1.44613369730000e+01
  2.47681747890000e+01
  2.49409453490000e+00
  8.78075845330000e-01
  8.72127824970000e-02
  3.35992937800000e-02
  9.80530104940000e+01
  2.25869322770000e+01
  6.83915098420000e+00
  2.23328438180000e+00
  7.16065993870000e-01
  1.89147961950000e-01
  5.37687551870000e-02
  1.01000000000000e-01
  4.95383391960000e+03
  7.45180441540000e+02
  1.69216049720000e+02
  4.73006720190000e+01
  1.44613369730000e+01
  2.47681747890000e+01
  2.49409453490000e+00
  8.78075845330000e-01
  8.72127824970000e-02
  3.35992937800000e-02
  9.80530104940000e+01
  2.25869322770000e+01
  6.83915098420000e+00
  2.23328438180000e+00
  7.16065993870000e-01
  1.89147961950000e-01
  5.37687551870000e-02
  1.01000000000000e-01
  4.95383391960000e+03
  7.45180441540000e+02
  1.69216049720000e+02
  4.73006720190000e+01
  1.44613369730000e+01
  2.47681747890000e+01
  2.49409453490000e+00
  8.78075845330000e-01
  8.72127824970000e-02
  3.35992937800000e-02
  9.80530104940000e+01
  2.25869322770000e+01
  6.83915098420000e+00
  2.23328438180000e+00
  7.16065993870000e-01
  1.89147961950000e-01
  5.37687551870000e-02
  1.01000000000000e-01
  4.95383391960000e+03
  7.45180441540000e+02
  1.69216049720000e+02
  4.73006720190000e+01
  1.44613369730000e+01
  2.47681747890000e+01
  2.49409453490000e+00
  8.78075845330000e-01
  8.72127824970000e-02
  3.35992937800000e-02
  9.80530104940000e+01
  2.25869322770000e+01
  6.83915098420000e+00
  2.23328438180000e+00
  7.16065993870000e-01
  1.89147961950000e-01
  5.37687551870000e-02
  1.01000000000000e-01
  4.95383391960000e+03
  7.45180441540000e+02
  1.69216049720000e+02
  4.73006720190000e+01
  1.44613369730000e+01
  2.47681747890000e+01
  2.49409453490000e+00
  8.78075845330000e-01
  8.72127824970000e-02
  3.35992937800000e-02
  9.80530104940000e+01
  2.25869322770000e+01
  6.83915098420000e+00
  2.23328438180000e+00
  7.16065993870000e-01
  1.89147961950000e-01
  5.37687551870000e-02
  1.01000000000000e-01
  4.95383391960000e+03
  7.45180441540000e+02
  1.69216049720000e+02
  4.73006720190000e+01
  1.44613369730000e+01
  2.47681747890000e+01
  2.49409453490000e+00
  8.78075845330000e-01
  8.72127824970000e-02
  3.35992937800000e-02
  9.80530104940000e+01
  2.25869322770000e+01
  6.83915098420000e+00
  2.23328438180000e+00
  7.16065993870000e-01
  1.89147961950000e-01
  5.37687551870000e-02
  1.01000000000000e-01
  4.95383391960000e+03
  7.45180441540000e+02
  1.69216049720000e+02
  4.73006720190000e+01
  1.44613369730000e+01
  2.47681747890000e+01
  2.49409453490000e+00
  8.78075845330000e-01
  8.72127824970000e-02
  3.35992937800000e-02
  9.80530104940000e+01
  2.25869322770000e+01
  6.83915098420000e+00
  2.23328438180000e+00
  7.16065993870000e-01
  1.89147961950000e-01
  5.37687551870000e-02
  1.01000000000000e-01
  4.95383391960000e+03
  7.45180441540000e+02
  1.69216049720000e+02
  4.73006720190000e+01
  1.44613369730000e+01
  2.47681747890000e+01
  2.49409453490000e+00
  8.78075845330000e-01
  8.72127824970000e-02
  3.35992937800000e-02
  9.80530104940000e+01
  2.25869322770000e+01
  6.83915098420000e+00
  2.23328438180000e+00
  7.16065993870000e-01
  1.89147961950000e-01
  5.37687551870000e-02
  1.01000000000000e-01
  4.95383391960000e+03
  7.45180441540000e+02
  1.69216049720000e+02
  4.73006720190000e+01
  1.44613369730000e+01
  2.47681747890000e+01
  2.49409453490000e+00
  8.78075845330000e-01
  8.72127824970000e-02
  3.35992937800000e-02
  9.80530104940000e+01
  2.25869322770000e+01
  6.83915098420000e+00
  2.23328438180000e+00
  7.16065993870000e-01
  1.89147961950000e-01
  5.37687551870000e-02
  1.01000000000000e-01
  4.95383391960000e+03
  7.45180441540000e+02
  1.69216049720000e+02
  4.73006720190000e+01
  1.44613369730000e+01
  2.47681747890000e+01
  2.49409453490000e+00
  8.78075845330000e-01
  8.72127824970000e-02
  3.35992937800000e-02
  9.80530104940000e+01
  2.25869322770000e+01
  6.83915098420000e+00
  2.23328438180000e+00
  7.16065993870000e-01
  1.89147961950000e-01
  5.37687551870000e-02
  1.01000000000000e-01
  4.95383391960000e+03
  7.45180441540000e+02
  1.69216049720000e+02
  4.73006720190000e+01
  1.44613369730000e+01
  2.47681747890000e+01
  2.49409453490000e+00
  8.78075845330000e-01
  8.72127824970000e-02
  3.35992937800000e-02
  9.80530104940000e+01
  2.25869322770000e+01
  6.83915098420000e+00
  2.23328438180000e+00
  7.16065993870000e-01
  1.89147961950000e-01
  5.37687551870000e-02
  1.01000000000000e-01
  4.95383391960000e+03
  7.45180441540000e+02
  1.69216049720000e+02
  4.73006720190000e+01
  1.44613369730000e+01
  2.47681747890000e+01
  2.49409453490000e+00
  8.78075845330000e-01
  8.72127824970000e-02
  3.35992937800000e-02
  9.80530104940000e+01
  2.25869322770000e+01
  6.83915098420000e+00
  2.23328438180000e+00
  7.16065993870000e-01
  1.89147961950000e-01
  5.37687551870000e-02
  1.01000000000000e-01
  4.95383391960000e+03
  7.45180441540000e+02
  1.69216049720000e+02
  4.73006720190000e+01
  1.44613369730000e+01
  2.47681747890000e+01
  2.49409453490000e+00
  8.78075845330000e-01
  8.72127824970000e-02
  3.35992937800000e-02
  9.80530104940000e+01
  2.25869322770000e+01
  6.83915098420000e+00
  2.23328438180000e+00
  7.16065993870000e-01
  1.89147961950000e-01
  5.37687551870000e-02
  1.01000000000000e-01
  4.95383391960000e+03
  7.45180441540000e+02
  1.69216049720000e+02
  4.73006720190000e+01
  1.44613369730000e+01
  2.47681747890000e+01
  2.49409453490000e+00
  8.78075845330000e-01
  8.72127824970000e-02
  3.35992937800000e-02
  9.80530104940000e+01
  2.25869322770000e+01
  6.83915098420000e+00
  2.23328438180000e+00
  7.16065993870000e-01
  1.89147961950000e-01
  5.37687551870000e-02
  1.01000000000000e-01
  4.95383391960000e+03
  7.45180441540000e+02
  1.69216049720000e+02
  4.73006720190000e+01
  1.44613369730000e+01
  2.47681747890000e+01
  2.49409453490000e+00
  8.78075845330000e-01
  8.72127824970000e-02
  3.35992937800000e-02
  9.80530104940000e+01
  2.25869322770000e+01
  6.83915098420000e+00
  2.23328438180000e+00
  7.16065993870000e-01
  1.89147961950000e-01
  5.37687551870000e-02
  1.01000000000000e-01
  4.95383391960000e+03
  7.45180441540000e+02
  1.69216049720000e+02
  4.73006720190000e+01
  1.44613369730000e+01
  2.47681747890000e+01
  2.49409453490000e+00
  8.78075845330000e-01
  8.72127824970000e-02
  3.35992937800000e-02
  9.80530104940000e+01
  2.25869322770000e+01
  6.83915098420000e+00
  2.23328438180000e+00
  7.16065993870000e-01
  1.89147961950000e-01
  5.37687551870000e-02
  1.01000000000000e-01
  4.95383391960000e+03
  7.45180441540000e+02
  1.69216049720000e+02
  4.73006720190000e+01
  1.44613369730000e+01
  2.47681747890000e+01
  2.49409453490000e+00
  8.78075845330000e-01
  8.72127824970000e-02
  3.35992937800000e-02
  9.80530104940000e+01
  2.25869322770000e+01
  6.83915098420000e+00
  2.23328438180000e+00
  7.16065993870000e-01
  1.89147961950000e-01
  5.37687551870000e-02
  1.01000000000000e-01
  4.95383391960000e+03
  7.45180441540000e+02
  1.69216049720000e+02
  4.73006720190000e+01
  1.44613369730000e+01
  2.47681747890000e+01
  2.49409453490000e+00
  8.78075845330000e-01
  8.72127824970000e-02
  3.35992937800000e-02
  9.80530104940000e+01
  2.25869322770000e+01
  6.83915098420000e+00
  2.23328438180000e+00
  7.16065993870000e-01
  1.89147961950000e-01
  5.37687551870000e-02
  1.01000000000000e-01
  4.95383391960000e+03
  7.45180441540000e+02
  1.69216049720000e+02
  4.73006720190000e+01
  1.44613369730000e+01
  2.47681747890000e+01
  2.49409453490000e+00
  8.78075845330000e-01
  8.72127824970000e-02
  3.35992937800000e-02
  9.80530104940000e+01
  2.25869322770000e+01
  6.83915098420000e+00
  2.23328438180000e+00
  7.16065993870000e-01
  1.89147961950000e-01
  5.37687551870000e-02
  1.01000000000000e-01
  4.95383391960000e+03
  7.45180441540000e+02
  1.69216049720000e+02
  4.73006720190000e+01
  1.44613369730000e+01
  2.47681747890000e+01
  2.49409453490000e+00
  8.78075845330000e-01
  8.72127824970000e-02
  3.35992937800000e-02
  9.80530104940000e+01
  2.25869322770000e+01
  6.83915098420000e+00
  2.23328438180000e+00
  7.16065993870000e-01
  1.89147961950000e-01
  5.37687551870000e-02
  1.01000000000000e-01
  4.95383391960000e+03
  7.45180441540000e+02
  1.69216049720000e+02
  4.73006720190000e+01
  1.44613369730000e+01
  2.47681747890000e+01
  2.49409453490000e+00
  8.78075845330000e-01
  8.72127824970000e-02
  3.35992937800000e-02
  9.80530104940000e+01
  2.25869322770000e+01
  6.83915098420000e+00
  2.23328438180000e+00
  7.16065993870000e-01
  1.89147961950000e-01
  5.37687551870000e-02
  1.01000000000000e-01
  4.95383391960000e+03
  7.45180441540000e+02
  1.69216049720000e+02
  4.73006720190000e+01
  1.44613369730000e+01
  2.47681747890000e+01
  2.49409453490000e+00
  8.78075845330000e-01
  8.72127824970000e-02
  3.35992937800000e-02
  9.80530104940000e+01
  2.25869322770000e+01
  6.83915098420000e+00
  2.23328438180000e+00
  7.16065993870000e-01
  1.89147961950000e-01
  5.37687551870000e-02
  1.01000000000000e-01
  4.95383391960000e+03
  7.45180441540000e+02
  1.69216049720000e+02
  4.73006720190000e+01
  1.44613369730000e+01
  2.47681747890000e+01
  2.49409453490000e+00
  8.78075845330000e-01
  8.72127824970000e-02
  3.35992937800000e-02
  9.80530104940000e+01
  2.25869322770000e+01
  6.83915098420000e+00
  2.23328438180000e+00
  7.16065993870000e-01
  1.89147961950000e-01
  5.37687551870000e-02
  1.01000000000000e-01
  4.95383391960000e+03
  7.45180441540000e+02
  1.69216049720000e+02
  4.73006720190000e+01
  1.44613369730000e+01
  2.47681747890000e+01
  2.49409453490000e+00
  8.78075845330000e-01
  8.72127824970000e-02
  3.35992937800000e-02
  9.80530104940000e+01
  2.25869322770000e+01
  6.83915098420000e+00
  2.23328438180000e+00
  7.16065993870000e-01
  1.89147961950000e-01
  5.37687551870000e-02
  1.01000000000000e-01
  4.95383391960000e+03
  7.45180441540000e+02
  1.69216049720000e+02
  4.73006720190000e+01
  1.44613369730000e+01
  2.47681747890000e+01
  2.49409453490000e+00
  8.78075845330000e-01
  8.72127824970000e-02
  3.35992937800000e-02
  9.80530104940000e+01
  2.25869322770000e+01
  6.83915098420000e+00
  2.23328438180000e+00
  7.16065993870000e-01
  1.89147961950000e-01
  5.37687551870000e-02
  1.01000000000000e-01
  2.26617677850000e+03
  3.40870101910000e+02
  7.73631351670000e+01
  2.14796449400000e+01
  6.65894331240000e+00
  8.09759756680000e-01
  2.55307722340000e-01
  1.77215043170000e+01
  3.86355054400000e+00
  1.04809208830000e+00
  2.76415444110000e-01
  1.20000000000000e+00
  2.26617677850000e+03
  3.40870101910000e+02
  7.73631351670000e+01
  2.14796449400000e+01
  6.65894331240000e+00
  8.09759756680000e-01
  2.55307722340000e-01
  1.77215043170000e+01
  3.86355054400000e+00
  1.04809208830000e+00
  2.76415444110000e-01
  1.20000000000000e+00
  2.26617677850000e+03
  3.40870101910000e+02
  7.73631351670000e+01
  2.14796449400000e+01
  6.65894331240000e+00
  8.09759756680000e-01
  2.55307722340000e-01
  1.77215043170000e+01
  3.86355054400000e+00
  1.04809208830000e+00
  2.76415444110000e-01
  1.20000000000000e+00
  2.26617677850000e+03
  3.40870101910000e+02
  7.73631351670000e+01
  2.14796449400000e+01
  6.65894331240000e+00
  8.09759756680000e-01
  2.55307722340000e-01
  1.77215043170000e+01
  3.86355054400000e+00
  1.04809208830000e+00
  2.76415444110000e-01
  1.20000000000000e+00
  2.26617677850000e+03
  3.40870101910000e+02
  7.73631351670000e+01
  2.14796449400000e+01
  6.65894331240000e+00
  8.09759756680000e-01
  2.55307722340000e-01
  1.77215043170000e+01
  3.86355054400000e+00
  1.04809208830000e+00
  2.76415444110000e-01
  1.20000000000000e+00
  2.26617677850000e+03
  3.40870101910000e+02
  7.73631351670000e+01
  2.14796449400000e+01
  6.65894331240000e+00
  8.09759756680000e-01
  2.55307722340000e-01
  1.77215043170000e+01
  3.86355054400000e+00
  1.04809208830000e+00
  2.76415444110000e-01
  1.20000000000000e+00
  2.26617677850000e+03
  3.40870101910000e+02
  7.73631351670000e+01
  2.14796449400000e+01
  6.65894331240000e+00
  8.09759756680000e-01
  2.55307722340000e-01
  1.77215043170000e+01
  3.86355054400000e+00
  1.04809208830000e+00
  2.76415444110000e-01
  1.20000000000000e+00
  2.26617677850000e+03
  3.40870101910000e+02
  7.73631351670000e+01
  2.14796449400000e+01
  6.65894331240000e+00
  8.09759756680000e-01
  2.55307722340000e-01
  1.77215043170000e+01
  3.86355054400000e+00
  1.04809208830000e+00
  2.76415444110000e-01
  1.20000000000000e+00
  2.26617677850000e+03
  3.40870101910000e+02
  7.73631351670000e+01
  2.14796449400000e+01
  6.65894331240000e+00
  8.09759756680000e-01
  2.55307722340000e-01
  1.77215043170000e+01
  3.86355054400000e+00
  1.04809208830000e+00
  2.76415444110000e-01
  1.20000000000000e+00
  2.26617677850000e+03
  3.40870101910000e+02
  7.73631351670000e+01
  2.14796449400000e+01
  6.65894331240000e+00
  8.09759756680000e-01
  2.55307722340000e-01
  1.77215043170000e+01
  3.86355054400000e+00
  1.04809208830000e+00
  2.76415444110000e-01
  1.20000000000000e+00
  2.26617677850000e+03
  3.40870101910000e+02
  7.73631351670000e+01
  2.14796449400000e+01
  6.65894331240000e+00
  8.09759756680000e-01
  2.55307722340000e-01
  1.77215043170000e+01
  3.86355054400000e+00
  1.04809208830000e+00
  2.76415444110000e-01
  1.20000000000000e+00
  2.26617677850000e+03
  3.40870101910000e+02
  7.73631351670000e+01
  2.14796449400000e+01
  6.65894331240000e+00
  8.09759756680000e-01
  2.55307722340000e-01
  1.77215043170000e+01
  3.86355054400000e+00
  1.04809208830000e+00
  2.76415444110000e-01
  1.20000000000000e+00
  2.26617677850000e+03
  3.40870101910000e+02
  7.73631351670000e+01
  2.14796449400000e+01
  6.65894331240000e+00
  8.09759756680000e-01
  2.55307722340000e-01
  1.77215043170000e+01
  3.86355054400000e+00
  1.04809208830000e+00
  2.76415444110000e-01
  1.20000000000000e+00
  2.26617677850000e+03
  3.40870101910000e+02
  7.73631351670000e+01
  2.14796449400000e+01
  6.65894331240000e+00
  8.09759756680000e-01
  2.55307722340000e-01
  1.77215043170000e+01
  3.86355054400000e+00
  1.04809208830000e+00
  2.76415444110000e-01
  1.20000000000000e+00
  2.26617677850000e+03
  3.40870101910000e+02
  7.73631351670000e+01
  2.14796449400000e+01
  6.65894331240000e+00
  8.09759756680000e-01
  2.55307722340000e-01
  1.77215043170000e+01
  3.86355054400000e+00
  1.04809208830000e+00
  2.76415444110000e-01
  1.20000000000000e+00
  2.26617677850000e+03
  3.40870101910000e+02
  7.73631351670000e+01
  2.14796449400000e+01
  6.65894331240000e+00
  8.09759756680000e-01
  2.55307722340000e-01
  1.77215043170000e+01
  3.86355054400000e+00
  1.04809208830000e+00
  2.76415444110000e-01
  1.20000000000000e+00
  2.26617677850000e+03
  3.40870101910000e+02
  7.73631351670000e+01
  2.14796449400000e+01
  6.65894331240000e+00
  8.09759756680000e-01
  2.55307722340000e-01
  1.77215043170000e+01
  3.86355054400000e+00
  1.04809208830000e+00
  2.76415444110000e-01
  1.20000000000000e+00
  2.26617677850000e+03
  3.40870101910000e+02
  7.73631351670000e+01
  2.14796449400000e+01
  6.65894331240000e+00
  8.09759756680000e-01
  2.55307722340000e-01
  1.77215043170000e+01
  3.86355054400000e+00
  1.04809208830000e+00
  2.76415444110000e-01
  1.20000000000000e+00
  2.26617677850000e+03
  3.40870101910000e+02
  7.73631351670000e+01
  2.14796449400000e+01
  6.65894331240000e+00
  8.09759756680000e-01
  2.55307722340000e-01
  1.77215043170000e+01
  3.86355054400000e+00
  1.04809208830000e+00
  2.76415444110000e-01
  1.20000000000000e+00
  2.26617677850000e+03
  3.40870101910000e+02
  7.73631351670000e+01
  2.14796449400000e+01
  6.65894331240000e+00
  8.09759756680000e-01
  2.55307722340000e-01
  1.77215043170000e+01
  3.86355054400000e+00
  1.04809208830000e+00
  2.76415444110000e-01
  1.20000000000000e+00
  2.26617677850000e+03
  3.40870101910000e+02
  7.73631351670000e+01
  2.14796449400000e+01
  6.65894331240000e+00
  8.09759756680000e-01
  2.55307722340000e-01
  1.77215043170000e+01
  3.86355054400000e+00
  1.04809208830000e+00
  2.76415444110000e-01
  1.20000000000000e+00
  2.26617677850000e+03
  3.40870101910000e+02
  7.73631351670000e+01
  2.14796449400000e+01
  6.65894331240000e+00
  8.09759756680000e-01
  2.55307722340000e-01
  1.77215043170000e+01
  3.86355054400000e+00
  1.04809208830000e+00
  2.76415444110000e-01
  1.20000000000000e+00
  2.26617677850000e+03
  3.40870101910000e+02
  7.73631351670000e+01
  2.14796449400000e+01
  6.65894331240000e+00
  8.09759756680000e-01
  2.55307722340000e-01
  1.77215043170000e+01
  3.86355054400000e+00
  1.04809208830000e+00
  2.76415444110000e-01
  1.20000000000000e+00
  2.26617677850000e+03
  3.40870101910000e+02
  7.73631351670000e+01
  2.14796449400000e+01
  6.65894331240000e+00
  8.09759756680000e-01
  2.55307722340000e-01
  1.77215043170000e+01
  3.86355054400000e+00
  1.04809208830000e+00
  2.76415444110000e-01
  1.20000000000000e+00
  2.26617677850000e+03
  3.40870101910000e+02
  7.73631351670000e+01
  2.14796449400000e+01
  6.65894331240000e+00
  8.09759756680000e-01
  2.55307722340000e-01
  1.77215043170000e+01
  3.86355054400000e+00
  1.04809208830000e+00
  2.76415444110000e-01
  1.20000000000000e+00
  2.26617677850000e+03
  3.40870101910000e+02
  7.73631351670000e+01
  2.14796449400000e+01
  6.65894331240000e+00
  8.09759756680000e-01
  2.55307722340000e-01
  1.77215043170000e+01
  3.86355054400000e+00
  1.04809208830000e+00
  2.76415444110000e-01
  1.20000000000000e+00
  2.26617677850000e+03
  3.40870101910000e+02
  7.73631351670000e+01
  2.14796449400000e+01
  6.65894331240000e+00
  8.09759756680000e-01
  2.55307722340000e-01
  1.77215043170000e+01
  3.86355054400000e+00
  1.04809208830000e+00
  2.76415444110000e-01
  1.20000000000000e+00
  2.26617677850000e+03
  3.40870101910000e+02
  7.73631351670000e+01
  2.14796449400000e+01
  6.65894331240000e+00
  8.09759756680000e-01
  2.55307722340000e-01
  1.77215043170000e+01
  3.86355054400000e+00
  1.04809208830000e+00
  2.76415444110000e-01
  1.20000000000000e+00
  2.26617677850000e+03
  3.40870101910000e+02
  7.73631351670000e+01
  2.14796449400000e+01
  6.65894331240000e+00
  8.09759756680000e-01
  2.55307722340000e-01
  1.77215043170000e+01
  3.86355054400000e+00
  1.04809208830000e+00
  2.76415444110000e-01
  1.20000000000000e+00
  2.26617677850000e+03
  3.40870101910000e+02
  7.73631351670000e+01
  2.14796449400000e+01
  6.65894331240000e+00
  8.09759756680000e-01
  2.55307722340000e-01
  1.77215043170000e+01
  3.86355054400000e+00
  1.04809208830000e+00
  2.76415444110000e-01
  1.20000000000000e+00
  2.26617677850000e+03
  3.40870101910000e+02
  7.73631351670000e+01
  2.14796449400000e+01
  6.65894331240000e+00
  8.09759756680000e-01
  2.55307722340000e-01
  1.77215043170000e+01
  3.86355054400000e+00
  1.04809208830000e+00
  2.76415444110000e-01
  1.20000000000000e+00
  2.26617677850000e+03
  3.40870101910000e+02
  7.73631351670000e+01
  2.14796449400000e+01
  6.65894331240000e+00
  8.09759756680000e-01
  2.55307722340000e-01
  1.77215043170000e+01
  3.86355054400000e+00
  1.04809208830000e+00
  2.76415444110000e-01
  1.20000000000000e+00
  2.26617677850000e+03
  3.40870101910000e+02
  7.73631351670000e+01
  2.14796449400000e+01
  6.65894331240000e+00
  8.09759756680000e-01
  2.55307722340000e-01
  1.77215043170000e+01
  3.86355054400000e+00
  1.04809208830000e+00
  2.76415444110000e-01
  1.20000000000000e+00

  8.20895669410958e-01
  1.47664498991869e+00
  2.15261240541564e+00
  2.10817224619016e+00
  8.29099993344712e-01
  3.60118335141541e-01
  1.55102705167793e-01
  1.34676451509605e+00
  1.06780709307136e+00
  5.10873571389181e-01
  1.36047197699030e-01
  1.11382492806461e+00
 -2.41155510664628e+00
 -4.34754533639739e+00
 -6.38989945415292e+00
 -6.20123558645160e+00
 -2.23041848741379e+00
  6.89329009754862e-01
 -7.72831038735158e-01
 -3.42198452089929e-01
  1.14378711358884e-01
  5.59316593651876e-02
 -6.36871403187631e+00
 -6.70263696777189e+00
 -4.85366376571172e+00
 -1.94328465977958e+00
 -2.95794352475873e-01
  1.77804263529115e-01
  3.69064748804282e-02
  2.97832344563160e-02
 -2.41155510664628e+00
 -4.34754533639739e+00
 -6.38989945415292e+00
 -6.20123558645160e+00
 -2.23041848741379e+00
  6.89329009754862e-01
 -7.72831038735158e-01
 -3.42198452089929e-01
  1.14378711358884e-01
  5.59316593651876e-02
 -6.36871403187631e+00
 -6.70263696777189e+00
 -4.85366376571172e+00
 -1.94328465977958e+00
 -2.95794352475873e-01
  1.77804263529115e-01
  3.69064748804282e-02
  2.97832344563160e-02
 -2.41155510664628e+00
 -4.34754533639739e+00
 -6.38989945415292e+00
 -6.20123558645160e+00
 -2.23041848741379e+00
  6.89329009754862e-01
 -7.72831038735158e-01
 -3.42198452089929e-01
  1.14378711358884e-01
  5.59316593651876e-02
 -6.36871403187631e+00
 -6.70263696777189e+00
 -4.85366376571172e+00
 -1.94328465977958e+00
 -2.95794352475873e-01
  1.77804263529115e-01
  3.69064748804282e-02
  2.97832344563160e-02
 -2.41155510664628e+00
 -4.34754533639739e+00
 -6.38989945415292e+00
 -6.20123558645160e+00
 -2.23041848741379e+00
  6.89329009754862e-01
 -7.72831038735158e-01
 -3.42198452089929e-01
  1.14378711358884e-01
  5.59316593651876e-02
 -6.36871403187631e+00
 -6.70263696777189e+00
 -4.85366376571172e+00
 -1.94328465977958e+00
 -2.95794352475873e-01
  1.77804263529115e-01
  3.69064748804282e-02
  2.97832344563160e-02
 -2.41155510664628e+00
 -4.34754533639739e+00
 -6.38989945415292e+00
 -6.20123558645160e+00
 -2.23041848741379e+00
  6.89329009754862e-01
 -7.72831038735158e-01
 -3.42198452089929e-01
  1.14378711358884e-01
  5.59316593651876e-02
 -6.36871403187631e+00
 -6.70263696777189e+00
 -4.85366376571172e+00
 -1.94328465977958e+00
 -2.95794352475873e-01
  1.77804263529115e-01
  3.69064748804282e-02
  2.97832344563160e-02
 -2.41155510664628e+00
 -4.34754533639739e+00
 -6.38989945415292e+00
 -6.20123558645160e+00
 -2.23041848741379e+00
  6.89329009754862e-01
 -7.72831038735158e-01
 -3.42198452089929e-01
  1.14378711358884e-01
  5.59316593651876e-02
 -6.36871403187631e+00
 -6.70263696777189e+00
 -4.85366376571172e+00
 -1.94328465977958e+00
 -2.95794352475873e-01
  1.77804263529115e-01
  3.69064748804282e-02
  2.97832344563160e-02
 -2.41155510664628e+00
 -4.34754533639739e+00
 -6.38989945415292e+00
 -6.20123558645160e+00
 -2.23041848741379e+00
  6.89329009754862e-01
 -7.72831038735158e-01
 -3.42198452089929e-01
  1.14378711358884e-01
  5.59316593651876e-02
 -6.36871403187631e+00
 -6.70263696777189e+00
 -4.85366376571172e+00
 -1.94328465977958e+00
 -2.95794352475873e-01
  1.77804263529115e-01
  3.69064748804282e-02
  2.97832344563160e-02
 -2.41155510664628e+00
 -4.34754533639739e+00
 -6.38989945415292e+00
 -6.20123558645160e+00
 -2.23041848741379e+00
  6.89329009754862e-01
 -7.72831038735158e-01
 -3.42198452089929e-01
  1.14378711358884e-01
  5.59316593651876e-02
 -6.36871403187631e+00
 -6.70263696777189e+00
 -4.85366376571172e+00
 -1.94328465977958e+00
 -2.95794352475873e-01
  1.77804263529115e-01
  3.69064748804282e-02
  2.97832344563160e-02
 -2.41155510664628e+00
 -4.34754533639739e+00
 -6.38989945415292e+00
 -6.20123558645160e+00
 -2.23041848741379e+00
  6.89329009754862e-01
 -7.72831038735158e-01
 -3.42198452089929e-01
  1.14378711358884e-01
  5.59316593651876e-02
 -6.36871403187631e+00
 -6.70263696777189e+00
 -4.85366376571172e+00
 -1.94328465977958e+00
 -2.95794352475873e-01
  1.77804263529115e-01
  3.69064748804282e-02
  2.97832344563160e-02
 -2.41155510664628e+00
 -4.34754533639739e+00
 -6.38989945415292e+00
 -6.20123558645160e+00
 -2.23041848741379e+00
  6.89329009754862e-01
 -7.72831038735158e-01
 -3.42198452089929e-01
  1.14378711358884e-01
  5.59316593651876e-02
 -6.36871403187631e+00
 -6.70263696777189e+00
 -4.85366376571172e+00
 -1.94328465977958e+00
 -2.95794352475873e-01
  1.77804263529115e-01
  3.69064748804282e-02
  2.97832344563160e-02
 -2.41155510664628e+00
 -4.34754533639739e+00
 -6.38989945415292e+00
 -6.20123558645160e+00
 -2.23041848741379e+00
  6.89329009754862e-01
 -7.72831038735158e-01
 -3.42198452089929e-01
  1.14378711358884e-01
  5.59316593651876e-02
 -6.36871403187631e+00
 -6.70263696777189e+00
 -4.85366376571172e+00
 -1.94328465977958e+00
 -2.95794352475873e-01
  1.77804263529115e-01
  3.69064748804282e-02
  2.97832344563160e-02
 -2.41155510664628e+00
 -4.34754533639739e+00
 -6.38989945415292e+00
 -6.20123558645160e+00
 -2.23041848741379e+00
  6.89329009754862e-01
 -7.72831038735158e-01
 -3.42198452089929e-01
  1.14378711358884e-01
  5.59316593651876e-02
 -6.36871403187631e+00
 -6.70263696777189e+00
 -4.85366376571172e+00
 -1.94328465977958e+00
 -2.95794352475873e-01
  1.77804263529115e-01
  3.69064748804282e-02
  2.97832344563160e-02
 -2.41155510664628e+00
 -4.34754533639739e+00
 -6.38989945415292e+00
 -6.20123558645160e+00
 -2.23041848741379e+00
  6.89329009754862e-01
 -7.72831038735158e-01
 -3.42198452089929e-01
  1.14378711358884e-01
  5.59316593651876e-02
 -6.36871403187631e+00
 -6.70263696777189e+00
 -4.85366376571172e+00
 -1.94328465977958e+00
 -2.95794352475873e-01
  1.77804263529115e-01
  3.69064748804282e-02
  2.97832344563160e-02
 -2.41155510664628e+00
 -4.34754533639739e+00
 -6.38989945415292e+00
 -6.20123558645160e+00
 -2.23041848741379e+00
  6.89329009754862e-01
 -7.72831038735158e-01
 -3.42198452089929e-01
  1.14378711358884e-01
  5.59316593651876e-02
 -6.36871403187631e+00
 -6.70263696777189e+00
 -4.85366376571172e+00
 -1.94328465977958e+00
 -2.95794352475873e-01
  1.77804263529115e-01
  3.69064748804282e-02
  2.97832344563160e-02
 -2.41155510664628e+00
 -4.34754533639739e+00
 -6.38989945415292e+00
 -6.20123558645160e+00
 -2.23041848741379e+00
  6.89329009754862e-01
 -7.72831038735158e-01
 -3.42198452089929e-01
  1.14378711358884e-01
  5.59316593651876e-02
 -6.36871403187631e+00
 -6.70263696777189e+00
 -4.85366376571172e+00
 -1.94328465977958e+00
 -2.95794352475873e-01
  1.77804263529115e-01
  3.69064748804282e-02
  2.97832344563160e-02
 -2.41155510664628e+00
 -4.34754533639739e+00
 -6.38989945415292e+00
 -6.20123558645160e+00
 -2.23041848741379e+00
  6.89329009754862e-01
 -7.72831038735158e-01
 -3.42198452089929e-01
  1.14378711358884e-01
  5.59316593651876e-02
 -6.36871403187631e+00
 -6.70263696777189e+00
 -4.85366376571172e+00
 -1.94328465977958e+00
 -2.95794352475873e-01
  1.77804263529115e-01
  3.69064748804282e-02
  2.97832344563160e-02
 -2.41155510664628e+00
 -4.34754533639739e+00
 -6.38989945415292e+00
 -6.20123558645160e+00
 -2.23041848741379e+00
  6.89329009754862e-01
 -7.72831038735158e-01
 -3.42198452089929e-01
  1.14378711358884e-01
  5.59316593651876e-02
 -6.36871403187631e+00
 -6.70263696777189e+00
 -4.85366376571172e+00
 -1.94328465977958e+00
 -2.95794352475873e-01
  1.77804263529115e-01
  3.69064748804282e-02
  2.97832344563160e-02
 -2.41155510664628e+00
 -4.34754533639739e+00
 -6.38989945415292e+00
 -6.20123558645160e+00
 -2.23041848741379e+00
  6.89329009754862e-01
 -7.72831038735158e-01
 -3.42198452089929e-01
  1.14378711358884e-01
  5.59316593651876e-02
 -6.36871403187631e+00
 -6.70263696777189e+00
 -4.85366376571172e+00
 -1.94328465977958e+00
 -2.95794352475873e-01
  1.77804263529115e-01
  3.69064748804282e-02
  2.97832344563160e-02
 -2.41155510664628e+00
 -4.34754533639739e+00
 -6.38989945415292e+00
 -6.20123558645160e+00
 -2.23041848741379e+00
  6.89329009754862e-01
 -7.72831038735158e-01
 -3.42198452089929e-01
  1.14378711358884e-01
  5.59316593651876e-02
 -6.36871403187631e+00
 -6.70263696777189e+00
 -4.85366376571172e+00
 -1.94328465977958e+00
 -2.95794352475873e-01
  1.77804263529115e-01
  3.69064748804282e-02
  2.97832344563160e-02
 -2.41155510664628e+00
 -4.34754533639739e+00
 -6.38989945415292e+00
 -6.20123558645160e+00
 -2.23041848741379e+00
  6.89329009754862e-01
 -7.72831038735158e-01
 -3.42198452089929e-01
  1.14378711358884e-01
  5.59316593651876e-02
 -6.36871403187631e+00
 -6.70263696777189e+00
 -4.85366376571172e+00
 -1.94328465977958e+00
 -2.95794352475873e-01
  1.77804263529115e-01
  3.69064748804282e-02
  2.97832344563160e-02
 -2.41155510664628e+00
 -4.34754533639739e+00
 -6.38989945415292e+00
 -6.20123558645160e+00
 -2.23041848741379e+00
  6.89329009754862e-01
 -7.72831038735158e-01
 -3.42198452089929e-01
  1.14378711358884e-01
  5.59316593651876e-02
 -6.36871403187631e+00
 -6.70263696777189e+00
 -4.85366376571172e+00
 -1.94328465977958e+00
 -2.95794352475873e-01
  1.77804263529115e-01
  3.69064748804282e-02
  2.97832344563160e-02
 -2.41155510664628e+00
 -4.34754533639739e+00
 -6.38989945415292e+00
 -6.20123558645160e+00
 -2.23041848741379e+00
  6.89329009754862e-01
 -7.72831038735158e-01
 -3.42198452089929e-01
  1.14378711358884e-01
  5.59316593651876e-02
 -6.36871403187631e+00
 -6.70263696777189e+00
 -4.85366376571172e+00
 -1.94328465977958e+00
 -2.95794352475873e-01
  1.77804263529115e-01
  3.69064748804282e-02
  2.97832344563160e-02
 -2.41155510664628e+00
 -4.34754533639739e+00
 -6.38989945415292e+00
 -6.20123558645160e+00
 -2.23041848741379e+00
  6.89329009754862e-01
 -7.72831038735158e-01
 -3.42198452089929e-01
  1.14378711358884e-01
  5.59316593651876e-02
 -6.36871403187631e+00
 -6.70263696777189e+00
 -4.85366376571172e+00
 -1.94328465977958e+00
 -2.95794352475873e-01
  1.77804263529115e-01
  3.69064748804282e-02
  2.97832344563160e-02
 -2.41155510664628e+00
 -4.34754533639739e+00
 -6.38989945415292e+00
 -6.20123558645160e+00
 -2.23041848741379e+00
  6.89329009754862e-01
 -7.72831038735158e-01
 -3.42198452089929e-01
  1.14378711358884e-01
  5.59316593651876e-02
 -6.36871403187631e+00
 -6.70263696777189e+00
 -4.85366376571172e+00
 -1.94328465977958e+00
 -2.95794352475873e-01
  1.77804263529115e-01
  3.69064748804282e-02
  2.97832344563160e-02
 -2.41155510664628e+00
 -4.34754533639739e+00
 -6.38989945415292e+00
 -6.20123558645160e+00
 -2.23041848741379e+00
  6.89329009754862e-01
 -7.72831038735158e-01
 -3.42198452089929e-01
  1.14378711358884e-01
  5.59316593651876e-02
 -6.36871403187631e+00
 -6.70263696777189e+00
 -4.85366376571172e+00
 -1.94328465977958e+00
 -2.95794352475873e-01
  1.77804263529115e-01
  3.69064748804282e-02
  2.97832344563160e-02
 -2.41155510664628e+00
 -4.34754533639739e+00
 -6.38989945415292e+00
 -6.20123558645160e+00
 -2.23041848741379e+00
  6.89329009754862e-01
 -7.72831038735158e-01
 -3.42198452089929e-01
  1.14378711358884e-01
  5.59316593651876e-02
 -6.36871403187631e+00
 -6.70263696777189e+00
 -4.85366376571172e+00
 -1.94328465977958e+00
 -2.95794352475873e-01
  1.77804263529115e-01
  3.69064748804282e-02
  2.97832344563160e-02
 -2.41155510664628e+00
 -4.34754533639739e+00
 -6.38989945415292e+00
 -6.20123558645160e+00
 -2.23041848741379e+00
  6.89329009754862e-01
 -7.72831038735158e-01
 -3.42198452089929e-01
  1.14378711358884e-01
  5.59316593651876e-02
 -6.36871403187631e+00
 -6.70263696777189e+00
 -4.85366376571172e+00
 -1.94328465977958e+00
 -2.95794352475873e-01
  1.77804263529115e-01
  3.69064748804282e-02
  2.97832344563160e-02
 -2.41155510664628e+00
 -4.34754533639739e+00
 -6.38989945415292e+00
 -6.20123558645160e+00
 -2.23041848741379e+00
  6.89329009754862e-01
 -7.72831038735158e-01
 -3.42198452089929e-01
  1.14378711358884e-01
  5.59316593651876e-02
 -6.36871403187631e+00
 -6.70263696777189e+00
 -4.85366376571172e+00
 -1.94328465977958e+00
 -2.95794352475873e-01
  1.77804263529115e-01
  3.69064748804282e-02
  2.97832344563160e-02
 -2.41155510664628e+00
 -4.34754533639739e+00
 -6.38989945415292e+00
 -6.20123558645160e+00
 -2.23041848741379e+00
  6.89329009754862e-01
 -7.72831038735158e-01
 -3.42198452089929e-01
  1.14378711358884e-01
  5.59316593651876e-02
 -6.36871403187631e+00
 -6.70263696777189e+00
 -4.85366376571172e+00
 -1.94328465977958e+00
 -2.95794352475873e-01
  1.77804263529115e-01
  3.69064748804282e-02
  2.97832344563160e-02
 -2.41155510664628e+00
 -4.34754533639739e+00
 -6.38989945415292e+00
 -6.20123558645160e+00
 -2.23041848741379e+00
  6.89329009754862e-01
 -7.72831038735158e-01
 -3.42198452089929e-01
  1.14378711358884e-01
  5.59316593651876e-02
 -6.36871403187631e+00
 -6.70263696777189e+00
 -4.85366376571172e+00
 -1.94328465977958e+00
 -2.95794352475873e-01
  1.77804263529115e-01
  3.69064748804282e-02
  2.97832344563160e-02
 -2.41155510664628e+00
 -4.34754533639739e+00
 -6.38989945415292e+00
 -6.20123558645160e+00
 -2.23041848741379e+00
  6.89329009754862e-01
 -7.72831038735158e-01
 -3.42198452089929e-01
  1.14378711358884e-01
  5.59316593651876e-02
 -6.36871403187631e+00
 -6.70263696777189e+00
 -4.85366376571172e+00
 -1.94328465977958e+00
 -2.95794352475873e-01
  1.77804263529115e-01
  3.69064748804282e-02
  2.97832344563160e-02
 -2.41155510664628e+00
 -4.34754533639739e+00
 -6.38989945415292e+00
 -6.20123558645160e+00
 -2.23041848741379e+00
  6.89329009754862e-01
 -7.72831038735158e-01
 -3.42198452089929e-01
  1.14378711358884e-01
  5.59316593651876e-02
 -6.36871403187631e+00
 -6.70263696777189e+00
 -4.85366376571172e+00
 -1.94328465977958e+00
 -2.95794352475873e-01
  1.77804263529115e-01
  3.69064748804282e-02
  2.97832344563160e-02
 -1.26158597249017e+00
 -2.27485004274182e+00
 -3.34796232864976e+00
 -3.32999805309706e+00
 -1.32038282889920e+00
  6.08383230068131e-01
  2.55981191146438e-01
  3.24601076418758e+00
  2.57349591726613e+00
  1.12083728924890e+00
  2.85688638066086e-01
  2.26452248250699e+00
 -1.26158597249017e+00
 -2.27485004274182e+00
 -3.34796232864976e+00
 -3.32999805309706e+00
 -1.32038282889920e+00
  6.08383230068131e-01
  2.55981191146438e-01
  3.24601076418758e+00
  2.57349591726613e+00
  1.12083728924890e+00
  2.85688638066086e-01
  2.26452248250699e+00
 -1.26158597249017e+00
 -2.27485004274182e+00
 -3.34796232864976e+00
 -3.32999805309706e+00
 -1.32038282889920e+00
  6.08383230068131e-01
  2.55981191146438e-01
  3.24601076418758e+00
  2.57349591726613e+00
  1.12083728924890e+00
  2.85688638066086e-01
  2.26452248250699e+00
 -1.26158597249017e+00
 -2.27485004274182e+00
 -3.34796232864976e+00
 -3.32999805309706e+00
 -1.32038282889920e+00
  6.08383230068131e-01
  2.55981191146438e-01
  3.24601076418758e+00
  2.57349591726613e+00
  1.12083728924890e+00
  2.85688638066086e-01
  2.26452248250699e+00
 -1.26158597249017e+00
 -2.27485004274182e+00
 -3.34796232864976e+00
 -3.32999805309706e+00
 -1.32038282889920e+00
  6.08383230068131e-01
  2.55981191146438e-01
  3.24601076418758e+00
  2.57349591726613e+00
  1.12083728924890e+00
  2.85688638066086e-01
  2.26452248250699e+00
 -1.26158597249017e+00
 -2.27485004274182e+00
 -3.34796232864976e+00
 -3.32999805309706e+00
 -1.32038282889920e+00
  6.08383230068131e-01
  2.55981191146438e-01
  3.24601076418758e+00
  2.57349591726613e+00
  1.12083728924890e+00
  2.85688638066086e-01
  2.26452248250699e+00
 -1.26158597249017e+00
 -2.27485004274182e+00
 -3.34796232864976e+00
 -3.32999805309706e+00
 -1.32038282889920e+00
  6.08383230068131e-01
  2.55981191146438e-01
  3.24601076418758e+00
  2.57349591726613e+00
  1.12083728924890e+00
  2.85688638066086e-01
  2.26452248250699e+00
 -1.26158597249017e+00
 -2.27485004274182e+00
 -3.34796232864976e+00
 -3.32999805309706e+00
 -1.32038282889920e+00
  6.08383230068131e-01
  2.55981191146438e-01
  3.24601076418758e+00
  2.57349591726613e+00
  1.12083728924890e+00
  2.85688638066086e-01
  2.26452248250699e+00
 -1.26158597249017e+00
 -2.27485004274182e+00
 -3.34796232864976e+00
 -3.32999805309706e+00
 -1.32038282889920e+00
  6.08383230068131e-01
  2.55981191146438e-01
  3.24601076418758e+00
  2.57349591726613e+00
  1.12083728924890e+00
  2.85688638066086e-01
  2.26452248250699e+00
 -1.26158597249017e+00
 -2.27485004274182e+00
 -3.34796232864976e+00
 -3.32999805309706e+00
 -1.32038282889920e+00
  6.08383230068131e-01
  2.55981191146438e-01
  3.24601076418758e+00
  2.57349591726613e+00
  1.12083728924890e+00
  2.85688638066086e-01
  2.26452248250699e+00
 -1.26158597249017e+00
 -2.27485004274182e+00
 -3.34796232864976e+00
 -3.32999805309706e+00
 -1.32038282889920e+00
  6.08383230068131e-01
  2.55981191146438e-01
  3.24601076418758e+00
  2.57349591726613e+00
  1.12083728924890e+00
  2.85688638066086e-01
  2.26452248250699e+00
 -1.26158597249017e+00
 -2.27485004274182e+00
 -3.34796232864976e+00
 -3.32999805309706e+00
 -1.32038282889920e+00
  6.08383230068131e-01
  2.55981191146438e-01
  3.24601076418758e+00
  2.57349591726613e+00
  1.12083728924890e+00
  2.85688638066086e-01
  2.26452248250699e+00
 -1.26158597249017e+00
 -2.27485004274182e+00
 -3.34796232864976e+00
 -3.32999805309706e+00
 -1.32038282889920e+00
  6.08383230068131e-01
  2.55981191146438e-01
  3.24601076418758e+00
  2.57349591726613e+00
  1.12083728924890e+00
  2.85688638066086e-01
  2.26452248250699e+00
 -1.26158597249017e+00
 -2.27485004274182e+00
 -3.34796232864976e+00
 -3.32999805309706e+00
 -1.32038282889920e+00
  6.08383230068131e-01
  2.55981191146438e-01
  3.24601076418758e+00
  2.57349591726613e+00
  1.12083728924890e+00
  2.85688638066086e-01
  2.26452248250699e+00
 -1.26158597249017e+00
 -2.27485004274182e+00
 -3.34796232864976e+00
 -3.32999805309706e+00
 -1.32038282889920e+00
  6.08383230068131e-01
  2.55981191146438e-01
  3.24601076418758e+00
  2.57349591726613e+00
  1.12083728924890e+00
  2.85688638066086e-01
  2.26452248250699e+00
 -1.26158597249017e+00
 -2.27485004274182e+00
 -3.34796232864976e+00
 -3.32999805309706e+00
 -1.32038282889920e+00
  6.08383230068131e-01
  2.55981191146438e-01
  3.24601076418758e+00
  2.57349591726613e+00
  1.12083728924890e+00
  2.85688638066086e-01
  2.26452248250699e+00
 -1.26158597249017e+00
 -2.27485004274182e+00
 -3.34796232864976e+00
 -3.32999805309706e+00
 -1.32038282889920e+00
  6.08383230068131e-01
  2.55981191146438e-01
  3.24601076418758e+00
  2.57349591726613e+00
  1.12083728924890e+00
  2.85688638066086e-01
  2.26452248250699e+00
 -1.26158597249017e+00
 -2.27485004274182e+00
 -3.34796232864976e+00
 -3.32999805309706e+00
 -1.32038282889920e+00
  6.08383230068131e-01
  2.55981191146438e-01
  3.24601076418758e+00
  2.57349591726613e+00
  1.12083728924890e+00
  2.85688638066086e-01
  2.26452248250699e+00
 -1.26158597249017e+00
 -2.27485004274182e+00
 -3.34796232864976e+00
 -3.32999805309706e+00
 -1.32038282889920e+00
  6.08383230068131e-01
  2.55981191146438e-01
  3.24601076418758e+00
  2.57349591726613e+00
  1.12083728924890e+00
  2.85688638066086e-01
  2.26452248250699e+00
 -1.26158597249017e+00
 -2.27485004274182e+00
 -3.34796232864976e+00
 -3.32999805309706e+00
 -1.32038282889920e+00
  6.08383230068131e-01
  2.55981191146438e-01
  3.24601076418758e+00
  2.57349591726613e+00
  1.12083728924890e+00
  2.85688638066086e-01
  2.26452248250699e+00
 -1.26158597249017e+00
 -2.27485004274182e+00
 -3.34796232864976e+00
 -3.32999805309706e+00
 -1.32038282889920e+00
  6.08383230068131e-01
  2.55981191146438e-01
  3.24601076418758e+00
  2.57349591726613e+00
  1.12083728924890e+00
  2.85688638066086e-01
  2.26452248250699e+00
 -1.26158597249017e+00
 -2.27485004274182e+00
 -3.34796232864976e+00
 -3.32999805309706e+00
 -1.32038282889920e+00
  6.08383230068131e-01
  2.55981191146438e-01
  3.24601076418758e+00
  2.57349591726613e+00
  1.12083728924890e+00
  2.85688638066086e-01
  2.26452248250699e+00
 -1.26158597249017e+00
 -2.27485004274182e+00
 -3.34796232864976e+00
 -3.32999805309706e+00
 -1.32038282889920e+00
  6.08383230068131e-01
  2.55981191146438e-01
  3.24601076418758e+00
  2.57349591726613e+00
  1.12083728924890e+00
  2.85688638066086e-01
  2.26452248250699e+00
 -1.26158597249017e+00
 -2.27485004274182e+00
 -3.34796232864976e+00
 -3.32999805309706e+00
 -1.32038282889920e+00
  6.08383230068131e-01
  2.55981191146438e-01
  3.24601076418758e+00
  2.57349591726613e+00
  1.12083728924890e+00
  2.85688638066086e-01
  2.26452248250699e+00
 -1.26158597249017e+00
 -2.27485004274182e+00
 -3.34796232864976e+00
 -3.32999805309706e+00
 -1.32038282889920e+00
  6.08383230068131e-01
  2.55981191146438e-01
  3.24601076418758e+00
  2.57349591726613e+00
  1.12083728924890e+00
  2.85688638066086e-01
  2.26452248250699e+00
 -1.26158597249017e+00
 -2.27485004274182e+00
 -3.34796232864976e+00
 -3.32999805309706e+00
 -1.32038282889920e+00
  6.08383230068131e-01
  2.55981191146438e-01
  3.24601076418758e+00
  2.57349591726613e+00
  1.12083728924890e+00
  2.85688638066086e-01
  2.26452248250699e+00
 -1.26158597249017e+00
 -2.27485004274182e+00
 -3.34796232864976e+00
 -3.32999805309706e+00
 -1.32038282889920e+00
  6.08383230068131e-01
  2.55981191146438e-01
  3.24601076418758e+00
  2.57349591726613e+00
  1.12083728924890e+00
  2.85688638066086e-01
  2.26452248250699e+00
 -1.26158597249017e+00
 -2.27485004274182e+00
 -3.34796232864976e+00
 -3.32999805309706e+00
 -1.32038282889920e+00
  6.08383230068131e-01
  2.55981191146438e-01
  3.24601076418758e+00
  2.57349591726613e+00
  1.12083728924890e+00
  2.85688638066086e-01
  2.26452248250699e+00
 -1.26158597249017e+00
 -2.27485004274182e+00
 -3.34796232864976e+00
 -3.32999805309706e+00
 -1.32038282889920e+00
  6.08383230068131e-01
  2.55981191146438e-01
  3.24601076418758e+00
  2.57349591726613e+00
  1.12083728924890e+00
  2.85688638066086e-01
  2.26452248250699e+00
 -1.26158597249017e+00
 -2.27485004274182e+00
 -3.34796232864976e+00
 -3.32999805309706e+00
 -1.32038282889920e+00
  6.08383230068131e-01
  2.55981191146438e-01
  3.24601076418758e+00
  2.57349591726613e+00
  1.12083728924890e+00
  2.85688638066086e-01
  2.26452248250699e+00
 -1.26158597249017e+00
 -2.27485004274182e+00
 -3.34796232864976e+00
 -3.32999805309706e+00
 -1.32038282889920e+00
  6.08383230068131e-01
  2.55981191146438e-01
  3.24601076418758e+00
  2.57349591726613e+00
  1.12083728924890e+00
  2.85688638066086e-01
  2.26452248250699e+00
 -1.26158597249017e+00
 -2.27485004274182e+00
 -3.34796232864976e+00
 -3.32999805309706e+00
 -1.32038282889920e+00
  6.08383230068131e-01
  2.55981191146438e-01
  3.24601076418758e+00
  2.57349591726613e+00
  1.12083728924890e+00
  2.85688638066086e-01
  2.26452248250699e+00
 -1.26158597249017e+00
 -2.27485004274182e+00
 -3.34796232864976e+00
 -3.32999805309706e+00
 -1.32038282889920e+00
  6.08383230068131e-01
  2.55981191146438e-01
  3.24601076418758e+00
  2.57349591726613e+00
  1.12083728924890e+00
  2.85688638066086e-01
  2.26452248250699e+00

0 0 0 0 1 1 1
0 0 
5 0

0 1 1 5 1 1 1
5 0 
1 0

0 2 2 6 1 1 1
6 0 
1 0

0 3 3 7 1 3 3
7 1 
3 0

0 6 6 10 1 3 3
10 1 
1 0

0 9 9 11 1 5 6
11 2 
1 1

1 14 14 12 1 1 1
12 0 
5 0

1 15 15 17 1 1 1
17 0 
3 0

1 16 16 20 1 1 1
20 0 
1 0

1 17 17 21 1 1 1
21 0 
1 0

1 18 18 22 1 3 3
22 1 
5 0

1 21 21 27 1 3 3
27 1 
1 0

1 24 24 28 1 3 3
28 1 
1 0

1 27 27 29 1 5 6
29 2 
1 1

2 32 32 30 1 1 1
30 0 
5 0

2 33 33 35 1 1 1
35 0 
3 0

2 34 34 38 1 1 1
38 0 
1 0

2 35 35 39 1 1 1
39 0 
1 0

2 36 36 40 1 3 3
40 1 
5 0

2 39 39 45 1 3 3
45 1 
1 0

2 42 42 46 1 3 3
46 1 
1 0

2 45 45 47 1 5 6
47 2 
1 1

3 50 50 48 1 1 1
48 0 
5 0

3 51 51 53 1 1 1
53 0 
3 0

3 52 52 56 1 1 1
56 0 
1 0

3 53 53 57 1 1 1
57 0 
1 0

3 54 54 58 1 3 3
58 1 
5 0

3 57 57 63 1 3 3
63 1 
1 0

3 60 60 64 1 3 3
64 1 
1 0

3 63 63 65 1 5 6
65 2 
1 1

4 68 68 66 1 1 1
66 0 
5 0

4 69 69 71 1 1 1
71 0 
3 0

4 70 70 74 1 1 1
74 0 
1 0

4 71 71 75 1 1 1
75 0 
1 0

4 72 72 76 1 3 3
76 1 
5 0

4 75 75 81 1 3 3
81 1 
1 0

4 78 78 82 1 3 3
82 1 
1 0

4 81 81 83 1 5 6
83 2 
1 1

5 86 86 84 1 1 1
84 0 
5 0

5 87 87 89 1 1 1
89 0 
3 0

5 88 88 92 1 1 1
92 0 
1 0

5 89 89 93 1 1 1
93 0 
1 0

5 90 90 94 1 3 3
94 1 
5 0

5 93 93 99 1 3 3
99 1 
1 0

5 96 96 100 1 3 3
100 1 
1 0

5 99 99 101 1 5 6
101 2 
1 1

6 104 104 102 1 1 1
102 0 
5 0

6 105 105 107 1 1 1
107 0 
3 0

6 106 106 110 1 1 1
110 0 
1 0

6 107 107 111 1 1 1
111 0 
1 0

6 108 108 112 1 3 3
112 1 
5 0

6 111 111 117 1 3 3
117 1 
1 0

6 114 114 118 1 3 3
118 1 
1 0

6 117 117 119 1 5 6
119 2 
1 1

7 122 122 120 1 1 1
120 0 
5 0

7 123 123 125 1 1 1
125 0 
3 0

7 124 124 128 1 1 1
128 0 
1 0

7 125 125 129 1 1 1
129 0 
1 0

7 126 126 130 1 3 3
130 1 
5 0

7 129 129 135 1 3 3
135 1 
1 0

7 132 132 136 1 3 3
136 1 
1 0

7 135 135 137 1 5 6
137 2 
1 1

8 140 140 138 1 1 1
138 0 
5 0

8 141 141 143 1 1 1
143 0 
3 0

8 142 142 146 1 1 1
146 0 
1 0

8 143 143 147 1 1 1
147 0 
1 0

8 144 144 148 1 3 3
148 1 
5 0

8 147 147 153 1 3 3
153 1 
1 0

8 150 150 154 1 3 3
154 1 
1 0

8 153 153 155 1 5 6
155 2 
1 1

9 158 158 156 1 1 1
156 0 
5 0

9 159 159 161 1 1 1
161 0 
3 0

9 160 160 164 1 1 1
164 0 
1 0

9 161 161 165 1 1 1
165 0 
1 0

9 162 162 166 1 3 3
166 1 
5 0

9 165 165 171 1 3 3
171 1 
1 0

9 168 168 172 1 3 3
172 1 
1 0

9 171 171 173 1 5 6
173 2 
1 1

10 176 176 174 1 1 1
174 0 
5 0

10 177 177 179 1 1 1
179 0 
3 0

10 178 178 182 1 1 1
182 0 
1 0

10 179 179 183 1 1 1
183 0 
1 0

10 180 180 184 1 3 3
184 1 
5 0

10 183 183 189 1 3 3
189 1 
1 0

10 186 186 190 1 3 3
190 1 
1 0

10 189 189 191 1 5 6
191 2 
1 1

11 194 194 192 1 1 1
192 0 
5 0

11 195 195 197 1 1 1
197 0 
3 0

11 196 196 200 1 1 1
200 0 
1 0

11 197 197 201 1 1 1
201 0 
1 0

11 198 198 202 1 3 3
202 1 
5 0

11 201 201 207 1 3 3
207 1 
1 0

11 204 204 208 1 3 3
208 1 
1 0

11 207 207 209 1 5 6
209 2 
1 1

12 212 212 210 1 1 1
210 0 
5 0

12 213 213 215 1 1 1
215 0 
3 0

12 214 214 218 1 1 1
218 0 
1 0

12 215 215 219 1 1 1
219 0 
1 0

12 216 216 220 1 3 3
220 1 
5 0

12 219 219 225 1 3 3
225 1 
1 0

12 222 222 226 1 3 3
226 1 
1 0

12 225 225 227 1 5 6
227 2 
1 1

13 230 230 228 1 1 1
228 0 
5 0

13 231 231 233 1 1 1
233 0 
3 0

13 232 232 236 1 1 1
236 0 
1 0

13 233 233 237 1 1 1
237 0 
1 0

13 234 234 238 1 3 3
238 1 
5 0

13 237 237 243 1 3 3
243 1 
1 0

13 240 240 244 1 3 3
244 1 
1 0

13 243 243 245 1 5 6
245 2 
1 1

14 248 248 246 1 1 1
246 0 
5 0

14 249 249 251 1 1 1
251 0 
3 0

14 250 250 254 1 1 1
254 0 
1 0

14 251 251 255 1 1 1
255 0 
1 0

14 252 252 256 1 3 3
256 1 
5 0

14 255 255 261 1 3 3
261 1 
1 0

14 258 258 262 1 3 3
262 1 
1 0

14 261 261 263 1 5 6
263 2 
1 1

15 266 266 264 1 1 1
264 0 
5 0

15 267 267 269 1 1 1
269 0 
3 0

15 268 268 272 1 1 1
272 0 
1 0

15 269 269 273 1 1 1
273 0 
1 0

15 270 270 274 1 3 3
274 1 
5 0

15 273 273 279 1 3 3
279 1 
1 0

15 276 276 280 1 3 3
280 1 
1 0

15 279 279 281 1 5 6
281 2 
1 1

16 284 284 282 1 1 1
282 0 
5 0

16 285 285 287 1 1 1
287 0 
3 0

16 286 286 290 1 1 1
290 0 
1 0

16 287 287 291 1 1 1
291 0 
1 0

16 288 288 292 1 3 3
292 1 
5 0

16 291 291 297 1 3 3
297 1 
1 0

16 294 294 298 1 3 3
298 1 
1 0

16 297 297 299 1 5 6
299 2 
1 1

17 302 302 300 1 1 1
300 0 
5 0

17 303 303 305 1 1 1
305 0 
3 0

17 304 304 308 1 1 1
308 0 
1 0

17 305 305 309 1 1 1
309 0 
1 0

17 306 306 310 1 3 3
310 1 
5 0

17 309 309 315 1 3 3
315 1 
1 0

17 312 312 316 1 3 3
316 1 
1 0

17 315 315 317 1 5 6
317 2 
1 1

18 320 320 318 1 1 1
318 0 
5 0

18 321 321 323 1 1 1
323 0 
3 0

18 322 322 326 1 1 1
326 0 
1 0

18 323 323 327 1 1 1
327 0 
1 0

18 324 324 328 1 3 3
328 1 
5 0

18 327 327 333 1 3 3
333 1 
1 0

18 330 330 334 1 3 3
334 1 
1 0

18 333 333 335 1 5 6
335 2 
1 1

19 338 338 336 1 1 1
336 0 
5 0

19 339 339 341 1 1 1
341 0 
3 0

19 340 340 344 1 1 1
344 0 
1 0

19 341 341 345 1 1 1
345 0 
1 0

19 342 342 346 1 3 3
346 1 
5 0

19 345 345 351 1 3 3
351 1 
1 0

19 348 348 352 1 3 3
352 1 
1 0

19 351 351 353 1 5 6
353 2 
1 1

20 356 356 354 1 1 1
354 0 
5 0

20 357 357 359 1 1 1
359 0 
3 0

20 358 358 362 1 1 1
362 0 
1 0

20 359 359 363 1 1 1
363 0 
1 0

20 360 360 364 1 3 3
364 1 
5 0

20 363 363 369 1 3 3
369 1 
1 0

20 366 366 370 1 3 3
370 1 
1 0

20 369 369 371 1 5 6
371 2 
1 1

21 374 374 372 1 1 1
372 0 
5 0

21 375 375 377 1 1 1
377 0 
3 0

21 376 376 380 1 1 1
380 0 
1 0

21 377 377 381 1 1 1
381 0 
1 0

21 378 378 382 1 3 3
382 1 
5 0

21 381 381 387 1 3 3
387 1 
1 0

21 384 384 388 1 3 3
388 1 
1 0

21 387 387 389 1 5 6
389 2 
1 1

22 392 392 390 1 1 1
390 0 
5 0

22 393 393 395 1 1 1
395 0 
3 0

22 394 394 398 1 1 1
398 0 
1 0

22 395 395 399 1 1 1
399 0 
1 0

22 396 396 400 1 3 3
400 1 
5 0

22 399 399 405 1 3 3
405 1 
1 0

22 402 402 406 1 3 3
406 1 
1 0

22 405 405 407 1 5 6
407 2 
1 1

23 410 410 408 1 1 1
408 0 
5 0

23 411 411 413 1 1 1
413 0 
3 0

23 412 412 416 1 1 1
416 0 
1 0

23 413 413 417 1 1 1
417 0 
1 0

23 414 414 418 1 3 3
418 1 
5 0

23 417 417 423 1 3 3
423 1 
1 0

23 420 420 424 1 3 3
424 1 
1 0

23 423 423 425 1 5 6
425 2 
1 1

24 428 428 426 1 1 1
426 0 
5 0

24 429 429 431 1 1 1
431 0 
3 0

24 430 430 434 1 1 1
434 0 
1 0

24 431 431 435 1 1 1
435 0 
1 0

24 432 432 436 1 3 3
436 1 
5 0

24 435 435 441 1 3 3
441 1 
1 0

24 438 438 442 1 3 3
442 1 
1 0

24 441 441 443 1 5 6
443 2 
1 1

25 446 446 444 1 1 1
444 0 
5 0

25 447 447 449 1 1 1
449 0 
3 0

25 448 448 452 1 1 1
452 0 
1 0

25 449 449 453 1 1 1
453 0 
1 0

25 450 450 454 1 3 3
454 1 
5 0

25 453 453 459 1 3 3
459 1 
1 0

25 456 456 460 1 3 3
460 1 
1 0

25 459 459 461 1 5 6
461 2 
1 1

26 464 464 462 1 1 1
462 0 
5 0

26 465 465 467 1 1 1
467 0 
3 0

26 466 466 470 1 1 1
470 0 
1 0

26 467 467 471 1 1 1
471 0 
1 0

26 468 468 472 1 3 3
472 1 
5 0

26 471 471 477 1 3 3
477 1 
1 0

26 474 474 478 1 3 3
478 1 
1 0

26 477 477 479 1 5 6
479 2 
1 1

27 482 482 480 1 1 1
480 0 
5 0

27 483 483 485 1 1 1
485 0 
3 0

27 484 484 488 1 1 1
488 0 
1 0

27 485 485 489 1 1 1
489 0 
1 0

27 486 486 490 1 3 3
490 1 
5 0

27 489 489 495 1 3 3
495 1 
1 0

27 492 492 496 1 3 3
496 1 
1 0

27 495 495 497 1 5 6
497 2 
1 1

28 500 500 498 1 1 1
498 0 
5 0

28 501 501 503 1 1 1
503 0 
3 0

28 502 502 506 1 1 1
506 0 
1 0

28 503 503 507 1 1 1
507 0 
1 0

28 504 504 508 1 3 3
508 1 
5 0

28 507 507 513 1 3 3
513 1 
1 0

28 510 510 514 1 3 3
514 1 
1 0

28 513 513 515 1 5 6
515 2 
1 1

29 518 518 516 1 1 1
516 0 
5 0

29 519 519 521 1 1 1
521 0 
3 0

29 520 520 524 1 1 1
524 0 
1 0

29 521 521 525 1 1 1
525 0 
1 0

29 522 522 526 1 3 3
526 1 
5 0

29 525 525 531 1 3 3
531 1 
1 0

29 528 528 532 1 3 3
532 1 
1 0

29 531 531 533 1 5 6
533 2 
1 1

30 536 536 534 1 1 1
534 0 
5 0

30 537 537 539 1 1 1
539 0 
3 0

30 538 538 542 1 1 1
542 0 
1 0

30 539 539 543 1 1 1
543 0 
1 0

30 540 540 544 1 3 3
544 1 
5 0

30 543 543 549 1 3 3
549 1 
1 0

30 546 546 550 1 3 3
550 1 
1 0

30 549 549 551 1 5 6
551 2 
1 1

31 554 554 552 1 1 1
552 0 
5 0

31 555 555 557 1 1 1
557 0 
3 0

31 556 556 560 1 1 1
560 0 
1 0

31 557 557 561 1 1 1
561 0 
1 0

31 558 558 562 1 3 3
562 1 
5 0

31 561 561 567 1 3 3
567 1 
1 0

31 564 564 568 1 3 3
568 1 
1 0

31 567 567 569 1 5 6
569 2 
1 1

32 572 572 570 1 1 1
570 0 
5 0

32 573 573 575 1 1 1
575 0 
3 0

32 574 574 578 1 1 1
578 0 
1 0

32 575 575 579 1 1 1
579 0 
1 0

32 576 576 580 1 3 3
580 1 
5 0

32 579 579 585 1 3 3
585 1 
1 0

32 582 582 586 1 3 3
586 1 
1 0

32 585 585 587 1 5 6
587 2 
1 1

33 590 590 588 1 1 1
588 0 
5 0

33 591 591 593 1 1 1
593 0 
1 0

33 592 592 594 1 1 1
594 0 
1 0

33 593 593 595 1 3 3
595 1 
3 0

33 596 596 598 1 3 3
598 1 
1 0

33 599 599 599 1 5 6
599 2 
1 1

34 604 604 600 1 1 1
600 0 
5 0

34 605 605 605 1 1 1
605 0 
1 0

34 606 606 606 1 1 1
606 0 
1 0

34 607 607 607 1 3 3
607 1 
3 0

34 610 610 610 1 3 3
610 1 
1 0

34 613 613 611 1 5 6
611 2 
1 1

35 618 618 612 1 1 1
612 0 
5 0

35 619 619 617 1 1 1
617 0 
1 0

35 620 620 618 1 1 1
618 0 
1 0

35 621 621 619 1 3 3
619 1 
3 0

35 624 624 622 1 3 3
622 1 
1 0

35 627 627 623 1 5 6
623 2 
1 1

36 632 632 624 1 1 1
624 0 
5 0

36 633 633 629 1 1 1
629 0 
1 0

36 634 634 630 1 1 1
630 0 
1 0

36 635 635 631 1 3 3
631 1 
3 0

36 638 638 634 1 3 3
634 1 
1 0

36 641 641 635 1 5 6
635 2 
1 1

37 646 646 636 1 1 1
636 0 
5 0

37 647 647 641 1 1 1
641 0 
1 0

37 648 648 642 1 1 1
642 0 
1 0

37 649 649 643 1 3 3
643 1 
3 0

37 652 652 646 1 3 3
646 1 
1 0

37 655 655 647 1 5 6
647 2 
1 1

38 660 660 648 1 1 1
648 0 
5 0

38 661 661 653 1 1 1
653 0 
1 0

38 662 662 654 1 1 1
654 0 
1 0

38 663 663 655 1 3 3
655 1 
3 0

38 666 666 658 1 3 3
658 1 
1 0

38 669 669 659 1 5 6
659 2 
1 1

39 674 674 660 1 1 1
660 0 
5 0

39 675 675 665 1 1 1
665 0 
1 0

39 676 676 666 1 1 1
666 0 
1 0

39 677 677 667 1 3 3
667 1 
3 0

39 680 680 670 1 3 3
670 1 
1 0

39 683 683 671 1 5 6
671 2 
1 1

40 688 688 672 1 1 1
672 0 
5 0

40 689 689 677 1 1 1
677 0 
1 0

40 690 690 678 1 1 1
678 0 
1 0

40 691 691 679 1 3 3
679 1 
3 0

40 694 694 682 1 3 3
682 1 
1 0

40 697 697 683 1 5 6
683 2 
1 1

41 702 702 684 1 1 1
684 0 
5 0

41 703 703 689 1 1 1
689 0 
1 0

41 704 704 690 1 1 1
690 0 
1 0

41 705 705 691 1 3 3
691 1 
3 0

41 708 708 694 1 3 3
694 1 
1 0

41 711 711 695 1 5 6
695 2 
1 1

42 716 716 696 1 1 1
696 0 
5 0

42 717 717 701 1 1 1
701 0 
1 0

42 718 718 702 1 1 1
702 0 
1 0

42 719 719 703 1 3 3
703 1 
3 0

42 722 722 706 1 3 3
706 1 
1 0

42 725 725 707 1 5 6
707 2 
1 1

43 730 730 708 1 1 1
708 0 
5 0

43 731 731 713 1 1 1
713 0 
1 0

43 732 732 714 1 1 1
714 0 
1 0

43 733 733 715 1 3 3
715 1 
3 0

43 736 736 718 1 3 3
718 1 
1 0

43 739 739 719 1 5 6
719 2 
1 1

44 744 744 720 1 1 1
720 0 
5 0

44 745 745 725 1 1 1
725 0 
1 0

44 746 746 726 1 1 1
726 0 
1 0

44 747 747 727 1 3 3
727 1 
3 0

44 750 750 730 1 3 3
730 1 
1 0

44 753 753 731 1 5 6
731 2 
1 1

45 758 758 732 1 1 1
732 0 
5 0

45 759 759 737 1 1 1
737 0 
1 0

45 760 760 738 1 1 1
738 0 
1 0

45 761 761 739 1 3 3
739 1 
3 0

45 764 764 742 1 3 3
742 1 
1 0

45 767 767 743 1 5 6
743 2 
1 1

46 772 772 744 1 1 1
744 0 
5 0

46 773 773 749 1 1 1
749 0 
1 0

46 774 774 750 1 1 1
750 0 
1 0

46 775 775 751 1 3 3
751 1 
3 0

46 778 778 754 1 3 3
754 1 
1 0

46 781 781 755 1 5 6
755 2 
1 1

47 786 786 756 1 1 1
756 0 
5 0

47 787 787 761 1 1 1
761 0 
1 0

47 788 788 762 1 1 1
762 0 
1 0

47 789 789 763 1 3 3
763 1 
3 0

47 792 792 766 1 3 3
766 1 
1 0

47 795 795 767 1 5 6
767 2 
1 1

48 800 800 768 1 1 1
768 0 
5 0

48 801 801 773 1 1 1
773 0 
1 0

48 802 802 774 1 1 1
774 0 
1 0

48 803 803 775 1 3 3
775 1 
3 0

48 806 806 778 1 3 3
778 1 
1 0

48 809 809 779 1 5 6
779 2 
1 1

49 814 814 780 1 1 1
780 0 
5 0

49 815 815 785 1 1 1
785 0 
1 0

49 816 816 786 1 1 1
786 0 
1 0

49 817 817 787 1 3 3
787 1 
3 0

49 820 820 790 1 3 3
790 1 
1 0

49 823 823 791 1 5 6
791 2 
1 1

50 828 828 792 1 1 1
792 0 
5 0

50 829 829 797 1 1 1
797 0 
1 0

50 830 830 798 1 1 1
798 0 
1 0

50 831 831 799 1 3 3
799 1 
3 0

50 834 834 802 1 3 3
802 1 
1 0

50 837 837 803 1 5 6
803 2 
1 1

51 842 842 804 1 1 1
804 0 
5 0

51 843 843 809 1 1 1
809 0 
1 0

51 844 844 810 1 1 1
810 0 
1 0

51 845 845 811 1 3 3
811 1 
3 0

51 848 848 814 1 3 3
814 1 
1 0

51 851 851 815 1 5 6
815 2 
1 1

52 856 856 816 1 1 1
816 0 
5 0

52 857 857 821 1 1 1
821 0 
1 0

52 858 858 822 1 1 1
822 0 
1 0

52 859 859 823 1 3 3
823 1 
3 0

52 862 862 826 1 3 3
826 1 
1 0

52 865 865 827 1 5 6
827 2 
1 1

53 870 870 828 1 1 1
828 0 
5 0

53 871 871 833 1 1 1
833 0 
1 0

53 872 872 834 1 1 1
834 0 
1 0

53 873 873 835 1 3 3
835 1 
3 0

53 876 876 838 1 3 3
838 1 
1 0

53 879 879 839 1 5 6
839 2 
1 1

54 884 884 840 1 1 1
840 0 
5 0

54 885 885 845 1 1 1
845 0 
1 0

54 886 886 846 1 1 1
846 0 
1 0

54 887 887 847 1 3 3
847 1 
3 0

54 890 890 850 1 3 3
850 1 
1 0

54 893 893 851 1 5 6
851 2 
1 1

55 898 898 852 1 1 1
852 0 
5 0

55 899 899 857 1 1 1
857 0 
1 0

55 900 900 858 1 1 1
858 0 
1 0

55 901 901 859 1 3 3
859 1 
3 0

55 904 904 862 1 3 3
862 1 
1 0

55 907 907 863 1 5 6
863 2 
1 1

56 912 912 864 1 1 1
864 0 
5 0

56 913 913 869 1 1 1
869 0 
1 0

56 914 914 870 1 1 1
870 0 
1 0

56 915 915 871 1 3 3
871 1 
3 0

56 918 918 874 1 3 3
874 1 
1 0

56 921 921 875 1 5 6
875 2 
1 1

57 926 926 876 1 1 1
876 0 
5 0

57 927 927 881 1 1 1
881 0 
1 0

57 928 928 882 1 1 1
882 0 
1 0

57 929 929 883 1 3 3
883 1 
3 0

57 932 932 886 1 3 3
886 1 
1 0

57 935 935 887 1 5 6
887 2 
1 1

58 940 940 888 1 1 1
888 0 
5 0

58 941 941 893 1 1 1
893 0 
1 0

58 942 942 894 1 1 1
894 0 
1 0

58 943 943 895 1 3 3
895 1 
3 0

58 946 946 898 1 3 3
898 1 
1 0

58 949 949 899 1 5 6
899 2 
1 1

59 954 954 900 1 1 1
900 0 
5 0

59 955 955 905 1 1 1
905 0 
1 0

59 956 956 906 1 1 1
906 0 
1 0

59 957 957 907 1 3 3
907 1 
3 0

59 960 960 910 1 3 3
910 1 
1 0

59 963 963 911 1 5 6
911 2 
1 1

60 968 968 912 1 1 1
912 0 
5 0

60 969 969 917 1 1 1
917 0 
1 0

60 970 970 918 1 1 1
918 0 
1 0

60 971 971 919 1 3 3
919 1 
3 0

[...]
 Energy components after cycle 11:
 D3 correction      Energy =  -0.37163756227835
 DFT Correlation    Energy = -23.60114110088022
 DFT Exchange       Energy = -789.85372399953280
 Kinetic            Energy = 8860.53061577960943
 Nuclear Attraction Energy = -40479.39460936062824
 Nuclear Repulsion  Energy = 9554.80820245332143
 Total Coulomb      Energy = 13959.66283388482589
 Time for RI-J this SCF iteration is 7.29 s
   12   -8918.2195221097      4.87e-03  Line search: overstep
 Energy components after cycle 12:
 D3 correction      Energy =  -0.37163756227835
 DFT Correlation    Energy = -23.60132646982019
 DFT Exchange       Energy = -789.87095002404283
 Kinetic            Energy = 8860.62213153020457
 Nuclear Attraction Energy = -40479.48300185408880
 Nuclear Repulsion  Energy = 9554.80820245332143
 Total Coulomb      Energy = 13959.67705981696781
 Time for RI-J this SCF iteration is 7.30 s
   13   -8918.2195203397      3.27e-04   Normal BFGS step
 Energy components after cycle 13:
 D3 correction      Energy =  -0.37163756227835
 DFT Correlation    Energy = -23.60141800282898
 DFT Exchange       Energy = -789.86888775970976
 Kinetic            Energy = 8860.61048311159902
 Nuclear Attraction Energy = -40479.49076193042856
 Nuclear Repulsion  Energy = 9554.80820245332143
 Total Coulomb      Energy = 13959.69449935066041
 Time for RI-J this SCF iteration is 7.31 s
   14   -8918.2195231900      8.47e-04  Line search: overstep
 Energy components after cycle 14:
 D3 correction      Energy =  -0.37163756227835
 DFT Correlation    Energy = -23.60135496329249
 DFT Exchange       Energy = -789.87030800014236
 Kinetic            Energy = 8860.61850455040440
 Nuclear Attraction Energy = -40479.48542510144034
 Nuclear Repulsion  Energy = 9554.80820245332143
 Total Coulomb      Energy = 13959.68249543344245
 Time for RI-J this SCF iteration is 7.29 s
   15   -8918.2195234635      9.29e-05   Normal BFGS step
 Energy components after cycle 15:
 D3 correction      Energy =  -0.37163756227835
 DFT Correlation    Energy = -23.60143318175936
 DFT Exchange       Energy = -789.86901703412423
 Kinetic            Energy = 8860.61034302900043
 Nuclear Attraction Energy = -40479.50832909092424
 Nuclear Repulsion  Energy = 9554.80820245332143
 Total Coulomb      Energy = 13959.71234792329051
 Time for RI-J this SCF iteration is 7.29 s
   16   -8918.2195236434      6.05e-05   Normal BFGS step
 Energy components after cycle 16:
 D3 correction      Energy =  -0.37163756227835
 DFT Correlation    Energy = -23.60140379165931
 DFT Exchange       Energy = -789.86940411719149
 Kinetic            Energy = 8860.61288921522646
 Nuclear Attraction Energy = -40479.49976426531066
 Nuclear Repulsion  Energy = 9554.80820245332143
 Total Coulomb      Energy = 13959.70159442452314
 Time for RI-J this SCF iteration is 7.31 s
   17   -8918.2195236264      1.97e-05   Normal BFGS step
 Energy components after cycle 17:
 D3 correction      Energy =  -0.37163756227835
 DFT Correlation    Energy = -23.60139572547672
 DFT Exchange       Energy = -789.86948049324167
 Kinetic            Energy = 8860.61335924601372
 Nuclear Attraction Energy = -40479.49691148234706
 Nuclear Repulsion  Energy = 9554.80820245332143
 Total Coulomb      Energy = 13959.69833993756401
  GDM::WARNING energy changes are now smaller than effective accuracy.
  GDM::        calculation will continue, but THRESH should be increased
  GDM::        or SCF_CONVERGENCE decreased. 
  GDM::        effective_thresh = 0.00000004741500
 Time for RI-J this SCF iteration is 7.29 s
   18   -8918.2195236518      2.19e-05   Normal BFGS step
 Energy components after cycle 18:
 D3 correction      Energy =  -0.37163756227835
 DFT Correlation    Energy = -23.60140127744997
 DFT Exchange       Energy = -789.86941635196217
 Kinetic            Energy = 8860.61295375119334
 Nuclear Attraction Energy = -40479.49856066169014
 Nuclear Repulsion  Energy = 9554.80820245332143
 Total Coulomb      Energy = 13959.70033599705675
 Time for RI-J this SCF iteration is 7.29 s
   19   -8918.2195236476      7.71e-06   Normal BFGS step
 Energy components after cycle 19:
 D3 correction      Energy =  -0.37163756227835
 DFT Correlation    Energy = -23.60140445610801
 DFT Exchange       Energy = -789.86938818997589
 Kinetic            Energy = 8860.61279124414614
 Nuclear Attraction Energy = -40479.49980162460270
 Nuclear Repulsion  Energy = 9554.80820245332143
 Total Coulomb      Energy = 13959.70171448793553
   19   -8918.2195236476      7.71e-06  Convergence criterion met
 ----------------------------------------------
 Final energy components:
 D3 correction      Energy =  -0.37163756227835
 DFT Correlation    Energy = -23.60140445610801
 DFT Exchange       Energy = -789.86938818997589
 Kinetic            Energy = 8860.61279124414614
 Nuclear Attraction Energy = -40479.49980162460270
 Nuclear Repulsion  Energy = 9554.80820245332143
 Total Coulomb      Energy = 13959.70171448793553
 ----------------------------------------------
 Final energy is -8918.2195236476

 SCF time:   CPU 9533.52s  wall 314.00s 
 Total wall time for computing Kinetic: 0.03 s (21)
 Total wall time for computing RIJ-BIGMEM: 174.81 s (21)
 Total wall time for computing RSDF Vnuc: 0.05 s (21)
 Total wall time for computing DFT XC: 53.57 s (21)
 ---------------------------------------------------------------------------
                        Orbital Energies (a.u.)
 ---------------------------------------------------------------------------
 == 0-th k-point (0.00000,0.00000,0.00000) occupation: 327==
 -46.07660 -46.07660 -46.07651 -46.07650 -46.07645 -46.07645 -46.07638 -46.07636 -46.07636 -46.07635
 -46.07632 -46.07618 -46.07549 -46.07549 -46.07549 -46.07532 -46.06663 -46.06660 -46.06645 -46.06645
 -46.06639 -46.06624 -46.06615 -46.06609 -46.06609 -46.06607 -46.06602 -46.06546 -46.06546 -46.06542
 -46.06539 -46.05955 -18.77569 -18.59106 -18.59101 -18.59101 -18.59101 -18.59095 -18.59094 -18.59091
 -18.59077 -18.59075 -18.59075 -18.59072 -18.59072 -18.59072 -18.59064 -18.59064 -18.58908 -18.58198
 -18.58195 -18.58194 -18.58194 -18.58169 -18.58165 -18.58165 -18.58164 -18.58163 -18.58160 -18.58158
 -18.58158 -18.58095 -18.58089 -18.58088 -18.58088 -9.92243 -2.77780 -2.77780 -2.77780 -2.77777
 -2.77773 -2.77773 -2.77773 -2.77772 -2.77772 -2.77772 -2.77771 -2.77769 -2.77683 -2.77683
 -2.77683 -2.77680 -2.76831 -2.76823 -2.76820 -2.76820 -2.76820 -2.76790 -2.76789 -2.76788
 -2.76788 -2.76784 -2.76784 -2.76732 -2.76731 -2.76731 -2.76730 -2.76117 -1.57365 -1.57358
 -1.57358 -1.57356 -1.57353 -1.57351 -1.57349 -1.57349 -1.57346 -1.57346 -1.57341 -1.57338
 -1.57265 -1.57258 -1.57258 -1.57250 -1.57092 -1.57092 -1.57078 -1.57078 -1.57062 -1.57062
 -1.57049 -1.57049 -1.57018 -1.57018 -1.57018 -1.57016 -1.57008 -1.57005 -1.57005 -1.57004
 -1.56989 -1.56989 -1.56977 -1.56977 -1.56949 -1.56944 -1.56944 -1.56943 -1.56934 -1.56934
 -1.56934 -1.56934 -1.56874 -1.56874 -1.56867 -1.56861 -1.56412 -1.56399 -1.56399 -1.56399
 -1.56398 -1.56371 -1.56369 -1.56367 -1.56367 -1.56361 -1.56360 -1.56311 -1.56311 -1.56311
 -1.56310 -1.56122 -1.56122 -1.56087 -1.56087 -1.56086 -1.56084 -1.56068 -1.56068 -1.56055
 -1.56053 -1.56046 -1.56046 -1.56034 -1.56031 -1.56029 -1.56028 -1.56024 -1.56021 -1.55973
 -1.55973 -1.55972 -1.55972 -1.55966 -1.55965 -1.55965 -1.55959 -1.55925 -1.55920 -1.55920
 -1.55919 -1.55619 -1.55384 -1.55384 -0.96503 -0.68164 -0.66875 -0.66874 -0.66874 -0.66819
 -0.65832 -0.65832 -0.65828 -0.65772 -0.65100 -0.65059 -0.64943 -0.64503 -0.64498 -0.64498
 -0.64434 -0.64355 -0.64352 -0.64352 -0.64313 -0.64055 -0.64055 -0.63838 -0.63831 -0.63827
 -0.63827 -0.63784 -0.63466 -0.63459 -0.63450 -0.63450 -0.62802 -0.41641 -0.33626 -0.33626
 -0.26685 -0.22697 -0.22697 -0.21918 -0.21749 -0.21421 -0.21413 -0.21389 -0.21389 -0.20971
 -0.20971 -0.20674 -0.20670 -0.20670 -0.20479 -0.18946 -0.18724 -0.18718 -0.18718 -0.18640
 -0.18634 -0.18617 -0.18617 -0.18560 -0.18503 -0.18503 -0.18490 -0.18400 -0.17137 -0.17137
 -0.17136 -0.17104 -0.17075 -0.17059 -0.17059 -0.16947 -0.15968 -0.15968 -0.14892 -0.14872
 -0.14872 -0.14867 -0.14309 -0.14309 -0.14293 -0.14131 -0.13964 -0.13939 -0.13939 -0.13933
 -0.13846 -0.13846 -0.13824 -0.13457 -0.13000 -0.12967 -0.12967 -0.12967 -0.12454 -0.12381
 -0.12255 -0.11897 -0.11897 -0.11865 -0.11811 -0.11807 -0.11807 -0.11681 -0.11548 -0.11548
 -0.11375 -0.11372 -0.11348 -0.11348 -0.10970 -0.10970 -0.10970 -0.10949 -0.10828 -0.10622
 -0.10622 -0.10490 -0.10490 -0.10456 -0.10289 -0.09639 -0.09639 -0.09627 -0.09620 -0.09606
 -0.09546 -0.09393 -0.09393 -0.09389 -0.09380 -0.09290 -0.09290 0.01780 0.01780 0.03075
 0.06524 0.07674 0.07705 0.07705 0.07714 0.09338 0.09568 0.09568 0.10250 0.11140
 0.11147 0.11147 0.11162 0.12730 0.13091 0.13091 0.14031 0.14970 0.14970 0.15656
 0.16162 0.16203 0.17362 0.17567 0.17578 0.17578 0.17581 0.17965 0.18116 0.18138
 0.18138 0.19041 0.19292 0.19312 0.19312 0.19543 0.19543 0.19739 0.20477 0.20522
 0.21658 0.22053 0.22053 0.22220 0.22279 0.22279 0.22289 0.22310 0.23603 0.23603
 0.23616 0.23695 0.24725 0.24843 0.24843 0.24851 0.24854 0.25565 0.25588 0.25588
 0.25989 0.26308 0.27011 0.27011 0.27031 0.27582 0.27582 0.27621 0.28453 0.28463
 0.28559 0.28778 0.28778 0.29036 0.29162 0.29162 0.30405 0.30509 0.30884 0.30892
 0.30899 0.30899 0.30995 0.31009 0.31182 0.31258 0.31258 0.31358 0.31358 0.32186
 0.32186 0.32260 0.32265 0.32873 0.32873 0.32875 0.32893 0.33265 0.33420 0.33420
 0.33792 0.33888 0.33888 0.34181 0.34187 0.34212 0.34212 0.34512 0.35786 0.35800
 0.35845 0.35845 0.36253 0.36594 0.36595 0.36597 0.36597 0.36711 0.36711 0.36713
 0.37035 0.37035 0.37868 0.38010 0.38098 0.38098 0.38107 0.38446 0.38756 0.38862
 0.38862 0.39524 0.39734 0.40038 0.40163 0.40163 0.40643 0.40839 0.40859 0.40859
 0.40873 0.40887 0.41126 0.41126 0.41225 0.41580 0.41588 0.41780 0.41781 0.41819
 0.41872 0.41973 0.41973 0.42138 0.42256 0.42517 0.42517 0.42541 0.42861 0.42861
 0.43077 0.43127 0.43519 0.43519 0.43616 0.44188 0.44489 0.44736 0.44772 0.44772
 0.44838 0.47890 0.48329 0.48329 0.48353 0.48669 0.48669 0.48713 0.48835 0.49208
 0.49208 0.49220 0.49247 0.50775 0.50853 0.50853 0.50993 0.51031 0.51254 0.51398
 0.51407 0.51407 0.51535 0.51819 0.51819 0.52178 0.52733 0.52754 0.53019 0.53270
 0.53607 0.53607 0.53758 0.53758 0.53827 0.53883 0.53968 0.53968 0.54220 0.54342
 0.54404 0.54404 0.54571 0.54571 0.54636 0.54636 0.54721 0.54742 0.54753 0.54753
 0.54853 0.55116 0.55116 0.55239 0.57032 0.57032 0.57085 0.57121 0.57696 0.58035
 0.58093 0.58126 0.58126 0.58129 0.58773 0.58773 0.58900 0.59197 0.59395 0.59395
 0.59671 0.59833 0.59901 0.59901 0.60314 0.60408 0.60408 0.60554 0.60671 0.60866
 0.60866 0.60970 0.60983 0.61771 0.61771 0.63861 0.63861 0.64141 0.64404 0.64404
 0.64436 0.65001 0.65051 0.65051 0.65247 0.65484 0.65649 0.66682 0.67123 0.67123
 0.67228 0.67741 0.67741 0.68832 0.69038 0.69038 0.69191 0.69232 0.69466 0.69609
 0.69609 0.70004 0.70019 0.70176 0.70214 0.70214 0.70689 0.70839 0.70920 0.71118
 0.71226 0.71301 0.71301 0.71688 0.71724 0.71724 0.72128 0.72128 0.72520 0.72520
 0.72784 0.72870 0.72950 0.73064 0.73064 0.73088 0.73385 0.73460 0.73460 0.74090
 0.75202 0.75202 0.75328 0.75707 0.75995 0.75995 0.76115 0.76194 0.76779 0.76779
 0.76891 0.76893 0.77718 0.77740 0.78301 0.78301 0.78360 0.78578 0.78657 0.78657
 0.78948 0.80492 0.80521 0.80521 0.81378 0.81614 0.81614 0.82554 0.82554 0.82588
 0.82654 0.82839 0.83133 0.83540 0.85300 0.85300 0.85404 0.85532 0.85738 0.85738
 0.85889 0.86429 0.86872 0.86878 0.86878 0.87108 0.87134 0.87134 0.87260 0.87723
 0.87788 0.87832 0.87873 0.87875 0.87875 0.87988 0.87988 0.89245 0.89577 0.89577
 0.89724 0.89740 0.89740 0.89845 0.89882 0.90019 0.90019 0.90098 0.90310 0.90680
 0.91001 0.91001 0.91044 0.93185 0.93659 0.93659 0.93761 0.94191 0.94191 0.95252
 0.95699 0.95769 0.95769 0.96339 0.96365 0.96626 0.96626 0.97398 0.97398 0.97553
 0.97560 0.97715 0.97817 0.98080 0.98080 0.98117 0.98281 0.98638 0.98854 0.98855
 0.98893 0.99200 0.99808 0.99808 1.03348 1.05120 1.05120 1.10005 1.14430 1.14491
 1.16939 1.16939 1.21671 1.29014 1.33153 1.33909 1.33909 1.36952 1.42006 1.42977
 1.43605 1.43605 1.47075 1.47075 1.47347 1.48043 1.48073 1.48073 1.48420 1.48568
 1.48658 1.48785 1.49240 1.49240 1.49638 1.50209 1.50870 1.50870 1.51860 1.51860
 1.52259 1.52285 1.52285 1.53208 1.53604 1.54479 1.55791 1.55791 1.55794 1.55801
 1.56333 1.57543 1.57543 1.58088 1.59485 1.59512 1.59512 1.59518 1.59830 1.61032
 1.62214 1.62214 1.62239 1.62563 1.62645 1.62645 1.62677 1.65454 1.66205 1.66205
 1.66369 1.66564 1.66564 1.67633 1.67703 1.67703 1.68529 1.68715 1.68715 1.69049
 1.69708 1.69974 1.72996 1.73664 1.73739 1.73884 1.73884 1.74977 1.75415 1.75415
 1.76226 1.76233 1.78448 1.78684 1.80289 1.80289 1.80521 1.80652 1.80652 1.81018
 1.81018 1.81098 1.81136 1.81447 1.82015 1.82376 1.82410 1.82549 1.82549 1.83236
 1.83236 1.85114 1.86793 1.86793 1.87667 1.88414 1.88414 1.90066 1.90471 1.92773
 1.93002 1.93002 2.01803 2.01901 2.01901 2.01956 2.01965 2.01965 2.01973 2.02951
 2.03089 2.03177 2.03177 2.03538 2.05034 2.06918 2.07074 2.07296 2.07296 2.10629
 2.10629 2.15696 2.15776 2.15777 2.16008 2.23573 2.45800 2.59074 2.59642 2.69442
 2.69753 2.69784 2.69831 2.69831 2.69851 2.70052 2.70204 2.70281 2.70378 2.70378
 2.70482 2.70835 2.70835 2.72671 2.72671 2.74373 2.74418 2.74418 2.74589 2.74691
 2.74834 2.74834 2.74907 2.74910 2.75087 2.75087 2.76140 2.76384 2.76636 2.76636
 2.76861 2.76923 2.76923 2.77055 2.77199 2.77564 2.77564 2.80192 2.80192 2.80206
 2.80276 2.80546 2.80860 2.80860 2.80892 2.81578 2.82010 2.82499 2.82645 2.82645
 2.82759 2.84058 2.84124 2.84134 2.84134 2.84144 2.84144 2.84346 2.84459 2.84696
 2.85351 2.85351 2.85388 2.85396 2.85460 2.85512 2.85512 2.85586 2.85594 2.85619
 2.85643 2.85643 2.85756 2.86027 2.86027 2.86042 2.86076 2.86076 2.86124 2.86147
 2.86187 2.86212 2.86294 2.86294 2.86296 2.86357 2.86406 2.86406 2.86414 2.86432
 2.86525 2.86554 2.86554 2.86616 2.86732 2.87090 2.87306 2.87306 2.87307 2.87353
 2.87486 2.87508 2.87508 2.87571 2.87571 2.87601 2.87638 2.87671 2.87671 2.87686
 2.87801 2.87827 2.87858 2.87858 2.88521 2.88692 2.88697 2.88697 2.88874 2.88874
 2.88926 2.89013 2.89157 2.89400 2.89400 2.89426 2.89879 2.90023 2.90023 2.90096
 2.90114 2.90403 2.90876 2.91147 2.91226 2.91228 2.91228 2.91328 2.91328 2.91509
 2.91521 2.91521 2.92248 2.92765 2.92796 2.92796 2.93299 2.93299 2.95922 2.96013
 2.96080 2.96080 2.97112 2.98732 2.98842 2.98954 2.98954 3.08587 3.10560 3.16447
 3.16447 3.69442
 ---------------------------------------------------------------------------
 VBM is at 0-th k-point with -2.52800 eV
 CBM is at 0-th k-point with 0.48429 eV
 Band gap is 3.01229 eV


           Ground-State Mulliken Net Atomic Charges

      Atom                 Charge (a.u.)          Spin (a.u.)
   --------------------------------------------------------
      1  C               (0.209334,-0.000000)    (0.000000,0.000000)
      2 Mg               (0.705731,-0.000000)    (0.000000,0.000000)
      3 Mg               (0.706819,-0.000000)    (0.000000,0.000000)
      4 Mg               (0.689248,-0.000000)    (0.000000,0.000000)
      5 Mg               (0.689249,-0.000000)    (0.000000,0.000000)
      6 Mg               (0.689248,-0.000000)    (0.000000,0.000000)
      7 Mg               (0.689247,-0.000000)    (0.000000,0.000000)
      8 Mg               (0.706815,-0.000000)    (0.000000,0.000000)
      9 Mg               (0.689247,-0.000000)    (0.000000,0.000000)
     10 Mg               (0.706819,-0.000000)    (0.000000,0.000000)
     11 Mg               (0.689246,-0.000000)    (0.000000,0.000000)
     12 Mg               (0.705729,-0.000000)    (0.000000,0.000000)
     13 Mg               (0.706813,-0.000000)    (0.000000,0.000000)
     14 Mg               (0.689251,-0.000000)    (0.000000,0.000000)
     15 Mg               (0.705733,-0.000000)    (0.000000,0.000000)
     16 Mg               (0.689249,-0.000000)    (0.000000,0.000000)
     17 Mg               (0.705730,-0.000000)    (0.000000,0.000000)
     18 Mg               (0.624880,-0.000000)    (0.000000,0.000000)
     19 Mg               (0.761725,-0.000000)    (0.000000,0.000000)
     20 Mg               (0.682105,-0.000000)    (0.000000,0.000000)
     21 Mg               (0.831520,-0.000000)    (0.000000,0.000000)
     22 Mg               (0.761728,-0.000000)    (0.000000,0.000000)
     23 Mg               (0.831525,-0.000000)    (0.000000,0.000000)
     24 Mg               (0.664138,-0.000000)    (0.000000,0.000000)
     25 Mg               (0.647235,-0.000000)    (0.000000,0.000000)
     26 Mg               (0.664125,-0.000000)    (0.000000,0.000000)
     27 Mg               (0.664140,-0.000000)    (0.000000,0.000000)
     28 Mg               (0.761716,-0.000000)    (0.000000,0.000000)
     29 Mg               (0.831517,-0.000000)    (0.000000,0.000000)
     30 Mg               (0.761703,-0.000000)    (0.000000,0.000000)
     31 Mg               (0.664125,-0.000000)    (0.000000,0.000000)
     32 Mg               (0.647183,-0.000000)    (0.000000,0.000000)
     33 Mg               (0.831565,-0.000000)    (0.000000,0.000000)
     34  O              (-0.729546,-0.000000)    (0.000000,0.000000)
     35  O              (-0.728040,-0.000000)    (0.000000,0.000000)
     36  O              (-0.728353,-0.000000)    (0.000000,0.000000)
     37  O              (-0.728041,-0.000000)    (0.000000,0.000000)
     38  O              (-0.728039,-0.000000)    (0.000000,0.000000)
     39  O              (-0.728244,-0.000000)    (0.000000,0.000000)
     40  O              (-0.728280,-0.000000)    (0.000000,0.000000)
     41  O              (-0.728280,-0.000000)    (0.000000,0.000000)
     42  O              (-0.728280,-0.000000)    (0.000000,0.000000)
     43  O              (-0.729544,-0.000000)    (0.000000,0.000000)
     44  O              (-0.728280,-0.000000)    (0.000000,0.000000)
     45  O              (-0.729545,-0.000000)    (0.000000,0.000000)
     46  O              (-0.728353,-0.000000)    (0.000000,0.000000)
     47  O              (-0.694237,-0.000000)    (0.000000,0.000000)
     48  O              (-0.729546,-0.000000)    (0.000000,0.000000)
     49  O              (-0.728041,-0.000000)    (0.000000,0.000000)
     50  O              (-0.716134,-0.000000)    (0.000000,0.000000)
     51  O              (-0.714612,-0.000000)    (0.000000,0.000000)
     52  O              (-0.714611,-0.000000)    (0.000000,0.000000)
     53  O              (-0.714613,-0.000000)    (0.000000,0.000000)
     54  O              (-0.716133,-0.000000)    (0.000000,0.000000)
     55  O              (-0.714610,-0.000000)    (0.000000,0.000000)
     56  O              (-0.714612,-0.000000)    (0.000000,0.000000)
     57  O              (-0.714613,-0.000000)    (0.000000,0.000000)
     58  O              (-0.704017,-0.000000)    (0.000000,0.000000)
     59  O              (-0.704018,-0.000000)    (0.000000,0.000000)
     60  O              (-0.714612,-0.000000)    (0.000000,0.000000)
     61  O              (-0.714613,-0.000000)    (0.000000,0.000000)
     62  O              (-0.704020,-0.000000)    (0.000000,0.000000)
     63  O              (-0.704018,-0.000000)    (0.000000,0.000000)
     64  O              (-0.716134,-0.000000)    (0.000000,0.000000)
     65  O              (-0.716132,-0.000000)    (0.000000,0.000000)
     66  O               (0.015710,-0.000000)    (0.000000,0.000000)
   --------------------------------------------------------
  Sum of atomic charges =     (-0.000000,-0.000000)
  Sum of spin   charges =       (0.000000,0.000000)



 Total job time:  314.60 s.
 Sat Sep 13 23:57:23 2025


        *************************************************************
        *                                                           *
        *  Thank you very much for using QCPBC. Have a nice day.    *
        *                                                           *
        *************************************************************

