                  Welcome to Q-Chem
           with Periodic Boundary Condition
     A Quantum Leap Into The Future Of Chemistry

 Adam Rettig, Xintian Feng, Meng-Fu Chen, Hieu Dinh, Stephen Quiton,
 Anton Ni, Paul J. Robinson, Jinghong Zhang, Joonho Lee

Contributors to earlier versions of Q-Chem not listed above:
 Evgeny Epifanovsky, Leo Cunha, Jerome F. Gonthier, Kuan-Yu Liu
 Input file: /n/netscratch/joonholee_lab/Lab/hieudinh//benzene_crystal_ccpvtz_omega_0.4_333.scratch20250917094835/benzene_crystal_ccpvtz_omega_0.4_333.0
 Scratch folder: /n/netscratch/joonholee_lab/Lab/hieudinh//benzene_crystal_ccpvtz_omega_0.4_333.scratch20250917094835
 Auxillary files located at: /n/home02/hieudinh/qcpbc/qcaux
 Q-Chem begins on Wed Sep 17 09:48:36 2025

 -------------------------------------------------------------
 User input:
 -------------------------------------------------------------
 $lattice
 3
 6.8100000000 	0.0000000000 	0.0000000000
 0.0000000000 	7.3900000000 	0.0000000000
 0.0000000000 	0.0000000000 	9.4200000000
 $end
 
 $unitcell
 ABSOLUTE
 0 1
  C 	6.7630110000 	6.9414270000 	1.3122060000
  C 	6.7630110000 	4.1435730000 	6.0222060000
  C 	3.3580110000 	6.9414270000 	3.3977940000
  C 	3.3580110000 	4.1435730000 	8.1077940000
  C 	0.0469890000 	0.4485730000 	8.1077940000
  C 	0.0469890000 	3.2464270000 	3.3977940000
  C 	3.4519890000 	0.4485730000 	6.0222060000
  C 	3.4519890000 	3.2464270000 	1.3122060000
  C 	0.8580600000 	6.3723970000 	0.4210740000
  C 	0.8580600000 	4.7126030000 	5.1310740000
  C 	4.2630600000 	6.3723970000 	4.2889260000
  C 	4.2630600000 	4.7126030000 	8.9989260000
  C 	5.9519400000 	1.0176030000 	8.9989260000
  C 	5.9519400000 	2.6773970000 	4.2889260000
  C 	2.5469400000 	1.0176030000 	5.1310740000
  C 	2.5469400000 	2.6773970000 	0.4210740000
  C 	5.9076750000 	0.5690300000 	0.9024360000
  C 	5.9076750000 	3.1259700000 	5.6124360000
  C 	2.5026750000 	0.5690300000 	3.8075640000
  C 	2.5026750000 	3.1259700000 	8.5175640000
  C 	0.9023250000 	6.8209700000 	8.5175640000
  C 	0.9023250000 	4.2640300000 	3.8075640000
  C 	4.3073250000 	6.8209700000 	5.6124360000
  C 	4.3073250000 	4.2640300000 	0.9024360000
  H 	6.7262370000 	6.6170060000 	2.3568840000
  H 	6.7262370000 	4.4679940000 	7.0668840000
  H 	3.3212370000 	6.6170060000 	2.3531160000
  H 	3.3212370000 	4.4679940000 	7.0631160000
  H 	0.0837630000 	0.7729940000 	7.0631160000
  H 	0.0837630000 	2.9220060000 	2.3531160000
  H 	3.4887630000 	0.7729940000 	7.0668840000
  H 	3.4887630000 	2.9220060000 	2.3568840000
  H 	1.5261210000 	5.5735380000 	0.7357020000
  H 	1.5261210000 	5.5114620000 	5.4457020000
  H 	4.9311210000 	5.5735380000 	3.9742980000
  H 	4.9311210000 	5.5114620000 	8.6842980000
  H 	5.2838790000 	1.8164620000 	8.6842980000
  H 	5.2838790000 	1.8785380000 	3.9742980000
  H 	1.8788790000 	1.8164620000 	5.4457020000
  H 	1.8788790000 	1.8785380000 	0.7357020000
  H 	5.2028400000 	1.0131690000 	1.5835020000
  H 	5.2028400000 	2.6818310000 	6.2935020000
  H 	1.7978400000 	1.0131690000 	3.1264980000
  H 	1.7978400000 	2.6818310000 	7.8364980000
  H 	1.6071600000 	6.3768310000 	7.8364980000
  H 	1.6071600000 	4.7081690000 	3.1264980000
  H 	5.0121600000 	6.3768310000 	6.2935020000
  H 	5.0121600000 	4.7081690000 	1.5835020000
 $end
 
 $rem
 jobtype = sp
 method = pbe
 dft_d = 6
 scf_convergence = 5
 scf_guess = autosad
 scf_algorithm = gdm
 basis = cc-pvtz
 aux_basis = cc-pvtz-jk
 input_bohr = false
 symmetry = false
 rsdf_print_level 1
 is_basis_uctr true
 do_nonortho true
 
 mp_mesh = [3,3,3]
 
 integral_direct true
 bvk_cgto true
 
 thresh 14
 mem_total 1000000
 threads 32
 
 MAX_SCF_CYCLES 500
 madelung = false
 omega 0.4
 do_rij_bigmem true
 automate_g true
 print_level 10
 grid_type_xc 1
 
 thresh_1e2c_sp 1e-14
 thresh_2e3c_bra_ket_sep 1e-10
 thresh_g 1e-12
 $end
 
 $rem_autosad
 incfock 1000
 scf_algorithm gdm_ls
 $end
 
 -------------------------------------------------------------
 Running PBC job

 Requested Exchange Correlation Functionals: 
  DFT Exchange:  1.00000 pbe_x
  DFT Correlation:  1.00000 pbe_c
 using 32 threads for computing.
 ---------------------------------------------------------------
      Coordinates of Atoms in Central Unit Cell (Angstroms)
    I     Atom         X            Y            Z
 ---------------------------------------------------------------
    1       C      6.763011     6.941427     1.312206
    2       C      6.763011     4.143573     6.022206
    3       C      3.358011     6.941427     3.397794
    4       C      3.358011     4.143573     8.107794
    5       C      0.046989     0.448573     8.107794
    6       C      0.046989     3.246427     3.397794
    7       C      3.451989     0.448573     6.022206
    8       C      3.451989     3.246427     1.312206
    9       C      0.858060     6.372397     0.421074
   10       C      0.858060     4.712603     5.131074
   11       C      4.263060     6.372397     4.288926
   12       C      4.263060     4.712603     8.998926
   13       C      5.951940     1.017603     8.998926
   14       C      5.951940     2.677397     4.288926
   15       C      2.546940     1.017603     5.131074
   16       C      2.546940     2.677397     0.421074
   17       C      5.907675     0.569030     0.902436
   18       C      5.907675     3.125970     5.612436
   19       C      2.502675     0.569030     3.807564
   20       C      2.502675     3.125970     8.517564
   21       C      0.902325     6.820970     8.517564
   22       C      0.902325     4.264030     3.807564
   23       C      4.307325     6.820970     5.612436
   24       C      4.307325     4.264030     0.902436
   25       H      6.726237     6.617006     2.356884
   26       H      6.726237     4.467994     7.066884
   27       H      3.321237     6.617006     2.353116
   28       H      3.321237     4.467994     7.063116
   29       H      0.083763     0.772994     7.063116
   30       H      0.083763     2.922006     2.353116
   31       H      3.488763     0.772994     7.066884
   32       H      3.488763     2.922006     2.356884
   33       H      1.526121     5.573538     0.735702
   34       H      1.526121     5.511462     5.445702
   35       H      4.931121     5.573538     3.974298
   36       H      4.931121     5.511462     8.684298
   37       H      5.283879     1.816462     8.684298
   38       H      5.283879     1.878538     3.974298
   39       H      1.878879     1.816462     5.445702
   40       H      1.878879     1.878538     0.735702
   41       H      5.202840     1.013169     1.583502
   42       H      5.202840     2.681831     6.293502
   43       H      1.797840     1.013169     3.126498
   44       H      1.797840     2.681831     7.836498
   45       H      1.607160     6.376831     7.836498
   46       H      1.607160     4.708169     3.126498
   47       H      5.012160     6.376831     6.293502
   48       H      5.012160     4.708169     1.583502
 ---------------------------------------------------------------
 --------------------------------------------------
              Lattice Vectors (Angstroms)
              X            Y            Z
 --------------------------------------------------
   X       6.810000     0.000000     0.000000
   Y       0.000000     7.390000     0.000000
   Z       0.000000     0.000000     9.420000
 --------------------------------------------------
 --------------------------------------------------
       Reciprocal Lattice Vectors (Angstroms^-1)
              X            Y            Z
 --------------------------------------------------
   X       0.922641     0.000000     0.000000
   Y       0.000000     0.850228     0.000000
   Z       0.000000     0.000000     0.667005
 --------------------------------------------------

 Single point calculation requested

 Hamiltonian contributions:
 List of terms in Hamiltonian: kpts_nn, kpts_kinetic, kpts_vnuc_df, kpts_xc, kpts_rij_bigmem, kpts_dftd3

 K-Points calculation started.

 Basis set information about using solid harmonic (1) or Cartesian (0):
  h : D(1) 
  c : D(1) D(1) F(1) 

 Basis set information about using solid harmonic (1) or Cartesian (0):
  h : D(1) D(1) F(1) 
  c : D(1) D(1) D(1) D(1) D(1) F(1) F(1) G(1) 

 There are 1056 basis functions in the central unit cell.
 Print atomic basis of atoms in the central unit cell:
 -------------------------------------------------------------
48 768 768 384

  1.27802385678315e+01  1.31173959440827e+01  2.47970995909068e+00
  1.27802385678315e+01  7.83021814739398e+00  1.13803200060781e+01
  6.34572111348071e+00  1.31173959440827e+01  6.42090008789669e+00
  6.34572111348071e+00  7.83021814739398e+00  1.53215101348841e+01
  8.87963408700403e-02  8.47680116901756e-01  1.53215101348841e+01
  8.87963408700403e-02  6.13485791359047e+00  6.42090008789669e+00
  6.52331379522079e+00  8.47680116901756e-01  1.13803200060781e+01
  6.52331379522079e+00  6.13485791359047e+00  2.47970995909068e+00
  1.62149839849639e+00  1.20420850873869e+01  7.95714538200672e-01
  1.62149839849639e+00  8.90552900408978e+00  9.69632458518805e+00
  8.05601585284714e+00  1.20420850873869e+01  8.10489550878671e+00
  8.05601585284714e+00  8.90552900408978e+00  1.70055055557741e+01
  1.12475365102051e+01  1.92299097359756e+00  1.70055055557741e+01
  1.12475365102051e+01  5.05954705689466e+00  8.10489550878671e+00
  4.81301905585436e+00  1.92299097359756e+00  9.69632458518805e+00
  4.81301905585436e+00  5.05954705689466e+00  7.95714538200672e-01
  1.11638877832985e+01  1.07531085669580e+00  1.70535688500278e+00
  1.11638877832985e+01  5.90722717379642e+00  1.06059669319902e+01
  4.72937032894780e+00  1.07531085669580e+00  7.19525316198460e+00
  4.72937032894780e+00  5.90722717379642e+00  1.60958632089720e+01
  1.70514712540295e+00  1.28897652042886e+01  1.60958632089720e+01
  1.70514712540295e+00  8.05784888718802e+00  7.19525316198460e+00
  8.13966457975370e+00  1.28897652042886e+01  1.06059669319902e+01
  8.13966457975370e+00  8.05784888718802e+00  1.70535688500278e+00
  1.27107457793245e+01  1.25043291050055e+01  4.45386526751248e+00
  1.27107457793245e+01  8.44328498647119e+00  1.33544753144999e+01
  6.27622832497372e+00  1.25043291050055e+01  4.44674477947489e+00
  6.27622832497372e+00  8.44328498647119e+00  1.33473548264623e+01
  1.58289129377028e-01  1.46074695597897e+00  1.33473548264623e+01
  1.58289129377028e-01  5.52179107451325e+00  4.44674477947489e+00
  6.59280658372778e+00  1.46074695597897e+00  1.33544753144999e+01
  6.59280658372778e+00  5.52179107451325e+00  4.45386526751248e+00
  2.88395072304001e+00  1.05324603651945e+01  1.39027528933943e+00
  2.88395072304001e+00  1.04151537262822e+01  1.02908853363268e+01
  9.31846817739075e+00  1.05324603651945e+01  7.51033475764795e+00
  9.31846817739075e+00  1.04151537262822e+01  1.64109448046353e+01
  9.98508418566149e+00  3.43261569578998e+00  1.64109448046353e+01
  9.98508418566149e+00  3.54992233470225e+00  7.51033475764795e+00
  3.55056673131074e+00  3.43261569578998e+00  1.02908853363268e+01
  3.55056673131074e+00  3.54992233470225e+00  1.39027528933943e+00
  9.83194267024794e+00  1.91461192796097e+00  2.99238509779716e+00
  9.83194267024794e+00  5.06792610253125e+00  1.18929951447845e+01
  3.39742521589719e+00  1.91461192796097e+00  5.90822494919022e+00
  3.39742521589719e+00  5.06792610253125e+00  1.48088349961776e+01
  3.03709223845355e+00  1.20504641330235e+01  1.48088349961776e+01
  3.03709223845355e+00  8.89714995845319e+00  5.90822494919022e+00
  9.47160969280430e+00  1.20504641330235e+01  1.18929951447845e+01
  9.47160969280430e+00  8.89714995845319e+00  2.99238509779716e+00

  8.23600000000000e+03
  1.23500000000000e+03
  2.80800000000000e+02
  7.92700000000000e+01
  2.55900000000000e+01
  8.99700000000000e+00
  3.31900000000000e+00
  8.23600000000000e+03
  1.23500000000000e+03
  7.92700000000000e+01
  2.55900000000000e+01
  8.99700000000000e+00
  3.31900000000000e+00
  3.64300000000000e-01
  9.05900000000000e-01
  1.28500000000000e-01
  1.87100000000000e+01
  4.13300000000000e+00
  1.20000000000000e+00
  3.82700000000000e-01
  1.20900000000000e-01
  1.09700000000000e+00
  3.18000000000000e-01
  7.61000000000000e-01
  8.23600000000000e+03
  1.23500000000000e+03
  2.80800000000000e+02
  7.92700000000000e+01
  2.55900000000000e+01
  8.99700000000000e+00
  3.31900000000000e+00
  8.23600000000000e+03
  1.23500000000000e+03
  7.92700000000000e+01
  2.55900000000000e+01
  8.99700000000000e+00
  3.31900000000000e+00
  3.64300000000000e-01
  9.05900000000000e-01
  1.28500000000000e-01
  1.87100000000000e+01
  4.13300000000000e+00
  1.20000000000000e+00
  3.82700000000000e-01
  1.20900000000000e-01
  1.09700000000000e+00
  3.18000000000000e-01
  7.61000000000000e-01
  8.23600000000000e+03
  1.23500000000000e+03
  2.80800000000000e+02
  7.92700000000000e+01
  2.55900000000000e+01
  8.99700000000000e+00
  3.31900000000000e+00
  8.23600000000000e+03
  1.23500000000000e+03
  7.92700000000000e+01
  2.55900000000000e+01
  8.99700000000000e+00
  3.31900000000000e+00
  3.64300000000000e-01
  9.05900000000000e-01
  1.28500000000000e-01
  1.87100000000000e+01
  4.13300000000000e+00
  1.20000000000000e+00
  3.82700000000000e-01
  1.20900000000000e-01
  1.09700000000000e+00
  3.18000000000000e-01
  7.61000000000000e-01
  8.23600000000000e+03
  1.23500000000000e+03
  2.80800000000000e+02
  7.92700000000000e+01
  2.55900000000000e+01
  8.99700000000000e+00
  3.31900000000000e+00
  8.23600000000000e+03
  1.23500000000000e+03
  7.92700000000000e+01
  2.55900000000000e+01
  8.99700000000000e+00
  3.31900000000000e+00
  3.64300000000000e-01
  9.05900000000000e-01
  1.28500000000000e-01
  1.87100000000000e+01
  4.13300000000000e+00
  1.20000000000000e+00
  3.82700000000000e-01
  1.20900000000000e-01
  1.09700000000000e+00
  3.18000000000000e-01
  7.61000000000000e-01
  8.23600000000000e+03
  1.23500000000000e+03
  2.80800000000000e+02
  7.92700000000000e+01
  2.55900000000000e+01
  8.99700000000000e+00
  3.31900000000000e+00
  8.23600000000000e+03
  1.23500000000000e+03
  7.92700000000000e+01
  2.55900000000000e+01
  8.99700000000000e+00
  3.31900000000000e+00
  3.64300000000000e-01
  9.05900000000000e-01
  1.28500000000000e-01
  1.87100000000000e+01
  4.13300000000000e+00
  1.20000000000000e+00
  3.82700000000000e-01
  1.20900000000000e-01
  1.09700000000000e+00
  3.18000000000000e-01
  7.61000000000000e-01
  8.23600000000000e+03
  1.23500000000000e+03
  2.80800000000000e+02
  7.92700000000000e+01
  2.55900000000000e+01
  8.99700000000000e+00
  3.31900000000000e+00
  8.23600000000000e+03
  1.23500000000000e+03
  7.92700000000000e+01
  2.55900000000000e+01
  8.99700000000000e+00
  3.31900000000000e+00
  3.64300000000000e-01
  9.05900000000000e-01
  1.28500000000000e-01
  1.87100000000000e+01
  4.13300000000000e+00
  1.20000000000000e+00
  3.82700000000000e-01
  1.20900000000000e-01
  1.09700000000000e+00
  3.18000000000000e-01
  7.61000000000000e-01
  8.23600000000000e+03
  1.23500000000000e+03
  2.80800000000000e+02
  7.92700000000000e+01
  2.55900000000000e+01
  8.99700000000000e+00
  3.31900000000000e+00
  8.23600000000000e+03
  1.23500000000000e+03
  7.92700000000000e+01
  2.55900000000000e+01
  8.99700000000000e+00
  3.31900000000000e+00
  3.64300000000000e-01
  9.05900000000000e-01
  1.28500000000000e-01
  1.87100000000000e+01
  4.13300000000000e+00
  1.20000000000000e+00
  3.82700000000000e-01
  1.20900000000000e-01
  1.09700000000000e+00
  3.18000000000000e-01
  7.61000000000000e-01
  8.23600000000000e+03
  1.23500000000000e+03
  2.80800000000000e+02
  7.92700000000000e+01
  2.55900000000000e+01
  8.99700000000000e+00
  3.31900000000000e+00
  8.23600000000000e+03
  1.23500000000000e+03
  7.92700000000000e+01
  2.55900000000000e+01
  8.99700000000000e+00
  3.31900000000000e+00
  3.64300000000000e-01
  9.05900000000000e-01
  1.28500000000000e-01
  1.87100000000000e+01
  4.13300000000000e+00
  1.20000000000000e+00
  3.82700000000000e-01
  1.20900000000000e-01
  1.09700000000000e+00
  3.18000000000000e-01
  7.61000000000000e-01
  8.23600000000000e+03
  1.23500000000000e+03
  2.80800000000000e+02
  7.92700000000000e+01
  2.55900000000000e+01
  8.99700000000000e+00
  3.31900000000000e+00
  8.23600000000000e+03
  1.23500000000000e+03
  7.92700000000000e+01
  2.55900000000000e+01
  8.99700000000000e+00
  3.31900000000000e+00
  3.64300000000000e-01
  9.05900000000000e-01
  1.28500000000000e-01
  1.87100000000000e+01
  4.13300000000000e+00
  1.20000000000000e+00
  3.82700000000000e-01
  1.20900000000000e-01
  1.09700000000000e+00
  3.18000000000000e-01
  7.61000000000000e-01
  8.23600000000000e+03
  1.23500000000000e+03
  2.80800000000000e+02
  7.92700000000000e+01
  2.55900000000000e+01
  8.99700000000000e+00
  3.31900000000000e+00
  8.23600000000000e+03
  1.23500000000000e+03
  7.92700000000000e+01
  2.55900000000000e+01
  8.99700000000000e+00
  3.31900000000000e+00
  3.64300000000000e-01
  9.05900000000000e-01
  1.28500000000000e-01
  1.87100000000000e+01
  4.13300000000000e+00
  1.20000000000000e+00
  3.82700000000000e-01
  1.20900000000000e-01
  1.09700000000000e+00
  3.18000000000000e-01
  7.61000000000000e-01
  8.23600000000000e+03
  1.23500000000000e+03
  2.80800000000000e+02
  7.92700000000000e+01
  2.55900000000000e+01
  8.99700000000000e+00
  3.31900000000000e+00
  8.23600000000000e+03
  1.23500000000000e+03
  7.92700000000000e+01
  2.55900000000000e+01
  8.99700000000000e+00
  3.31900000000000e+00
  3.64300000000000e-01
  9.05900000000000e-01
  1.28500000000000e-01
  1.87100000000000e+01
  4.13300000000000e+00
  1.20000000000000e+00
  3.82700000000000e-01
  1.20900000000000e-01
  1.09700000000000e+00
  3.18000000000000e-01
  7.61000000000000e-01
  8.23600000000000e+03
  1.23500000000000e+03
  2.80800000000000e+02
  7.92700000000000e+01
  2.55900000000000e+01
  8.99700000000000e+00
  3.31900000000000e+00
  8.23600000000000e+03
  1.23500000000000e+03
  7.92700000000000e+01
  2.55900000000000e+01
  8.99700000000000e+00
  3.31900000000000e+00
  3.64300000000000e-01
  9.05900000000000e-01
  1.28500000000000e-01
  1.87100000000000e+01
  4.13300000000000e+00
  1.20000000000000e+00
  3.82700000000000e-01
  1.20900000000000e-01
  1.09700000000000e+00
  3.18000000000000e-01
  7.61000000000000e-01
  8.23600000000000e+03
  1.23500000000000e+03
  2.80800000000000e+02
  7.92700000000000e+01
  2.55900000000000e+01
  8.99700000000000e+00
  3.31900000000000e+00
  8.23600000000000e+03
  1.23500000000000e+03
  7.92700000000000e+01
  2.55900000000000e+01
  8.99700000000000e+00
  3.31900000000000e+00
  3.64300000000000e-01
  9.05900000000000e-01
  1.28500000000000e-01
  1.87100000000000e+01
  4.13300000000000e+00
  1.20000000000000e+00
  3.82700000000000e-01
  1.20900000000000e-01
  1.09700000000000e+00
  3.18000000000000e-01
  7.61000000000000e-01
  8.23600000000000e+03
  1.23500000000000e+03
  2.80800000000000e+02
  7.92700000000000e+01
  2.55900000000000e+01
  8.99700000000000e+00
  3.31900000000000e+00
  8.23600000000000e+03
  1.23500000000000e+03
  7.92700000000000e+01
  2.55900000000000e+01
  8.99700000000000e+00
  3.31900000000000e+00
  3.64300000000000e-01
  9.05900000000000e-01
  1.28500000000000e-01
  1.87100000000000e+01
  4.13300000000000e+00
  1.20000000000000e+00
  3.82700000000000e-01
  1.20900000000000e-01
  1.09700000000000e+00
  3.18000000000000e-01
  7.61000000000000e-01
  8.23600000000000e+03
  1.23500000000000e+03
  2.80800000000000e+02
  7.92700000000000e+01
  2.55900000000000e+01
  8.99700000000000e+00
  3.31900000000000e+00
  8.23600000000000e+03
  1.23500000000000e+03
  7.92700000000000e+01
  2.55900000000000e+01
  8.99700000000000e+00
  3.31900000000000e+00
  3.64300000000000e-01
  9.05900000000000e-01
  1.28500000000000e-01
  1.87100000000000e+01
  4.13300000000000e+00
  1.20000000000000e+00
  3.82700000000000e-01
  1.20900000000000e-01
  1.09700000000000e+00
  3.18000000000000e-01
  7.61000000000000e-01
  8.23600000000000e+03
  1.23500000000000e+03
  2.80800000000000e+02
  7.92700000000000e+01
  2.55900000000000e+01
  8.99700000000000e+00
  3.31900000000000e+00
  8.23600000000000e+03
  1.23500000000000e+03
  7.92700000000000e+01
  2.55900000000000e+01
  8.99700000000000e+00
  3.31900000000000e+00
  3.64300000000000e-01
  9.05900000000000e-01
  1.28500000000000e-01
  1.87100000000000e+01
  4.13300000000000e+00
  1.20000000000000e+00
  3.82700000000000e-01
  1.20900000000000e-01
  1.09700000000000e+00
  3.18000000000000e-01
  7.61000000000000e-01
  8.23600000000000e+03
  1.23500000000000e+03
  2.80800000000000e+02
  7.92700000000000e+01
  2.55900000000000e+01
  8.99700000000000e+00
  3.31900000000000e+00
  8.23600000000000e+03
  1.23500000000000e+03
  7.92700000000000e+01
  2.55900000000000e+01
  8.99700000000000e+00
  3.31900000000000e+00
  3.64300000000000e-01
  9.05900000000000e-01
  1.28500000000000e-01
  1.87100000000000e+01
  4.13300000000000e+00
  1.20000000000000e+00
  3.82700000000000e-01
  1.20900000000000e-01
  1.09700000000000e+00
  3.18000000000000e-01
  7.61000000000000e-01
  8.23600000000000e+03
  1.23500000000000e+03
  2.80800000000000e+02
  7.92700000000000e+01
  2.55900000000000e+01
  8.99700000000000e+00
  3.31900000000000e+00
  8.23600000000000e+03
  1.23500000000000e+03
  7.92700000000000e+01
  2.55900000000000e+01
  8.99700000000000e+00
  3.31900000000000e+00
  3.64300000000000e-01
  9.05900000000000e-01
  1.28500000000000e-01
  1.87100000000000e+01
  4.13300000000000e+00
  1.20000000000000e+00
  3.82700000000000e-01
  1.20900000000000e-01
  1.09700000000000e+00
  3.18000000000000e-01
  7.61000000000000e-01
  8.23600000000000e+03
  1.23500000000000e+03
  2.80800000000000e+02
  7.92700000000000e+01
  2.55900000000000e+01
  8.99700000000000e+00
  3.31900000000000e+00
  8.23600000000000e+03
  1.23500000000000e+03
  7.92700000000000e+01
  2.55900000000000e+01
  8.99700000000000e+00
  3.31900000000000e+00
  3.64300000000000e-01
  9.05900000000000e-01
  1.28500000000000e-01
  1.87100000000000e+01
  4.13300000000000e+00
  1.20000000000000e+00
  3.82700000000000e-01
  1.20900000000000e-01
  1.09700000000000e+00
  3.18000000000000e-01
  7.61000000000000e-01
  8.23600000000000e+03
  1.23500000000000e+03
  2.80800000000000e+02
  7.92700000000000e+01
  2.55900000000000e+01
  8.99700000000000e+00
  3.31900000000000e+00
  8.23600000000000e+03
  1.23500000000000e+03
  7.92700000000000e+01
  2.55900000000000e+01
  8.99700000000000e+00
  3.31900000000000e+00
  3.64300000000000e-01
  9.05900000000000e-01
  1.28500000000000e-01
  1.87100000000000e+01
  4.13300000000000e+00
  1.20000000000000e+00
  3.82700000000000e-01
  1.20900000000000e-01
  1.09700000000000e+00
  3.18000000000000e-01
  7.61000000000000e-01
  8.23600000000000e+03
  1.23500000000000e+03
  2.80800000000000e+02
  7.92700000000000e+01
  2.55900000000000e+01
  8.99700000000000e+00
  3.31900000000000e+00
  8.23600000000000e+03
  1.23500000000000e+03
  7.92700000000000e+01
  2.55900000000000e+01
  8.99700000000000e+00
  3.31900000000000e+00
  3.64300000000000e-01
  9.05900000000000e-01
  1.28500000000000e-01
  1.87100000000000e+01
  4.13300000000000e+00
  1.20000000000000e+00
  3.82700000000000e-01
  1.20900000000000e-01
  1.09700000000000e+00
  3.18000000000000e-01
  7.61000000000000e-01
  8.23600000000000e+03
  1.23500000000000e+03
  2.80800000000000e+02
  7.92700000000000e+01
  2.55900000000000e+01
  8.99700000000000e+00
  3.31900000000000e+00
  8.23600000000000e+03
  1.23500000000000e+03
  7.92700000000000e+01
  2.55900000000000e+01
  8.99700000000000e+00
  3.31900000000000e+00
  3.64300000000000e-01
  9.05900000000000e-01
  1.28500000000000e-01
  1.87100000000000e+01
  4.13300000000000e+00
  1.20000000000000e+00
  3.82700000000000e-01
  1.20900000000000e-01
  1.09700000000000e+00
  3.18000000000000e-01
  7.61000000000000e-01
  8.23600000000000e+03
  1.23500000000000e+03
  2.80800000000000e+02
  7.92700000000000e+01
  2.55900000000000e+01
  8.99700000000000e+00
  3.31900000000000e+00
  8.23600000000000e+03
  1.23500000000000e+03
  7.92700000000000e+01
  2.55900000000000e+01
  8.99700000000000e+00
  3.31900000000000e+00
  3.64300000000000e-01
  9.05900000000000e-01
  1.28500000000000e-01
  1.87100000000000e+01
  4.13300000000000e+00
  1.20000000000000e+00
  3.82700000000000e-01
  1.20900000000000e-01
  1.09700000000000e+00
  3.18000000000000e-01
  7.61000000000000e-01
  8.23600000000000e+03
  1.23500000000000e+03
  2.80800000000000e+02
  7.92700000000000e+01
  2.55900000000000e+01
  8.99700000000000e+00
  3.31900000000000e+00
  8.23600000000000e+03
  1.23500000000000e+03
  7.92700000000000e+01
  2.55900000000000e+01
  8.99700000000000e+00
  3.31900000000000e+00
  3.64300000000000e-01
  9.05900000000000e-01
  1.28500000000000e-01
  1.87100000000000e+01
  4.13300000000000e+00
  1.20000000000000e+00
  3.82700000000000e-01
  1.20900000000000e-01
  1.09700000000000e+00
  3.18000000000000e-01
  7.61000000000000e-01
  3.38700000000000e+01
  5.09500000000000e+00
  1.15900000000000e+00
  3.25800000000000e-01
  1.02700000000000e-01
  1.40700000000000e+00
  3.88000000000000e-01
  1.05700000000000e+00
  3.38700000000000e+01
  5.09500000000000e+00
  1.15900000000000e+00
  3.25800000000000e-01
  1.02700000000000e-01
  1.40700000000000e+00
  3.88000000000000e-01
  1.05700000000000e+00
  3.38700000000000e+01
  5.09500000000000e+00
  1.15900000000000e+00
  3.25800000000000e-01
  1.02700000000000e-01
  1.40700000000000e+00
  3.88000000000000e-01
  1.05700000000000e+00
  3.38700000000000e+01
  5.09500000000000e+00
  1.15900000000000e+00
  3.25800000000000e-01
  1.02700000000000e-01
  1.40700000000000e+00
  3.88000000000000e-01
  1.05700000000000e+00
  3.38700000000000e+01
  5.09500000000000e+00
  1.15900000000000e+00
  3.25800000000000e-01
  1.02700000000000e-01
  1.40700000000000e+00
  3.88000000000000e-01
  1.05700000000000e+00
  3.38700000000000e+01
  5.09500000000000e+00
  1.15900000000000e+00
  3.25800000000000e-01
  1.02700000000000e-01
  1.40700000000000e+00
  3.88000000000000e-01
  1.05700000000000e+00
  3.38700000000000e+01
  5.09500000000000e+00
  1.15900000000000e+00
  3.25800000000000e-01
  1.02700000000000e-01
  1.40700000000000e+00
  3.88000000000000e-01
  1.05700000000000e+00
  3.38700000000000e+01
  5.09500000000000e+00
  1.15900000000000e+00
  3.25800000000000e-01
  1.02700000000000e-01
  1.40700000000000e+00
  3.88000000000000e-01
  1.05700000000000e+00
  3.38700000000000e+01
  5.09500000000000e+00
  1.15900000000000e+00
  3.25800000000000e-01
  1.02700000000000e-01
  1.40700000000000e+00
  3.88000000000000e-01
  1.05700000000000e+00
  3.38700000000000e+01
  5.09500000000000e+00
  1.15900000000000e+00
  3.25800000000000e-01
  1.02700000000000e-01
  1.40700000000000e+00
  3.88000000000000e-01
  1.05700000000000e+00
  3.38700000000000e+01
  5.09500000000000e+00
  1.15900000000000e+00
  3.25800000000000e-01
  1.02700000000000e-01
  1.40700000000000e+00
  3.88000000000000e-01
  1.05700000000000e+00
  3.38700000000000e+01
  5.09500000000000e+00
  1.15900000000000e+00
  3.25800000000000e-01
  1.02700000000000e-01
  1.40700000000000e+00
  3.88000000000000e-01
  1.05700000000000e+00
  3.38700000000000e+01
  5.09500000000000e+00
  1.15900000000000e+00
  3.25800000000000e-01
  1.02700000000000e-01
  1.40700000000000e+00
  3.88000000000000e-01
  1.05700000000000e+00
  3.38700000000000e+01
  5.09500000000000e+00
  1.15900000000000e+00
  3.25800000000000e-01
  1.02700000000000e-01
  1.40700000000000e+00
  3.88000000000000e-01
  1.05700000000000e+00
  3.38700000000000e+01
  5.09500000000000e+00
  1.15900000000000e+00
  3.25800000000000e-01
  1.02700000000000e-01
  1.40700000000000e+00
  3.88000000000000e-01
  1.05700000000000e+00
  3.38700000000000e+01
  5.09500000000000e+00
  1.15900000000000e+00
  3.25800000000000e-01
  1.02700000000000e-01
  1.40700000000000e+00
  3.88000000000000e-01
  1.05700000000000e+00
  3.38700000000000e+01
  5.09500000000000e+00
  1.15900000000000e+00
  3.25800000000000e-01
  1.02700000000000e-01
  1.40700000000000e+00
  3.88000000000000e-01
  1.05700000000000e+00
  3.38700000000000e+01
  5.09500000000000e+00
  1.15900000000000e+00
  3.25800000000000e-01
  1.02700000000000e-01
  1.40700000000000e+00
  3.88000000000000e-01
  1.05700000000000e+00
  3.38700000000000e+01
  5.09500000000000e+00
  1.15900000000000e+00
  3.25800000000000e-01
  1.02700000000000e-01
  1.40700000000000e+00
  3.88000000000000e-01
  1.05700000000000e+00
  3.38700000000000e+01
  5.09500000000000e+00
  1.15900000000000e+00
  3.25800000000000e-01
  1.02700000000000e-01
  1.40700000000000e+00
  3.88000000000000e-01
  1.05700000000000e+00
  3.38700000000000e+01
  5.09500000000000e+00
  1.15900000000000e+00
  3.25800000000000e-01
  1.02700000000000e-01
  1.40700000000000e+00
  3.88000000000000e-01
  1.05700000000000e+00
  3.38700000000000e+01
  5.09500000000000e+00
  1.15900000000000e+00
  3.25800000000000e-01
  1.02700000000000e-01
  1.40700000000000e+00
  3.88000000000000e-01
  1.05700000000000e+00
  3.38700000000000e+01
  5.09500000000000e+00
  1.15900000000000e+00
  3.25800000000000e-01
  1.02700000000000e-01
  1.40700000000000e+00
  3.88000000000000e-01
  1.05700000000000e+00
  3.38700000000000e+01
  5.09500000000000e+00
  1.15900000000000e+00
  3.25800000000000e-01
  1.02700000000000e-01
  1.40700000000000e+00
  3.88000000000000e-01
  1.05700000000000e+00

  3.33945329699303e-01
  6.22547446698276e-01
  1.05218920946014e+00
  1.58163648610788e+00
  1.94275715851415e+00
  1.63961854174412e+00
  6.16539390604916e-01
  1.46174282413811e-03
  1.72069387457792e-03
 -1.73621540030168e-02
 -7.58521053508670e-02
 -2.22062510987470e-01
 -3.01869042573189e-01
  3.58462876731022e-01
  6.61790131839668e-01
  1.52963368174496e-01
  2.18685155893849e+00
  2.05031234128050e+00
  1.45994452971031e+00
  4.29055195884351e-01
  1.01618543054798e-01
  1.93540141597197e+00
  2.21644478159161e-01
  7.96287553418135e-01
  3.33945329699303e-01
  6.22547446698276e-01
  1.05218920946014e+00
  1.58163648610788e+00
  1.94275715851415e+00
  1.63961854174412e+00
  6.16539390604916e-01
  1.46174282413811e-03
  1.72069387457792e-03
 -1.73621540030168e-02
 -7.58521053508670e-02
 -2.22062510987470e-01
 -3.01869042573189e-01
  3.58462876731022e-01
  6.61790131839668e-01
  1.52963368174496e-01
  2.18685155893849e+00
  2.05031234128050e+00
  1.45994452971031e+00
  4.29055195884351e-01
  1.01618543054798e-01
  1.93540141597197e+00
  2.21644478159161e-01
  7.96287553418135e-01
  3.33945329699303e-01
  6.22547446698276e-01
  1.05218920946014e+00
  1.58163648610788e+00
  1.94275715851415e+00
  1.63961854174412e+00
  6.16539390604916e-01
  1.46174282413811e-03
  1.72069387457792e-03
 -1.73621540030168e-02
 -7.58521053508670e-02
 -2.22062510987470e-01
 -3.01869042573189e-01
  3.58462876731022e-01
  6.61790131839668e-01
  1.52963368174496e-01
  2.18685155893849e+00
  2.05031234128050e+00
  1.45994452971031e+00
  4.29055195884351e-01
  1.01618543054798e-01
  1.93540141597197e+00
  2.21644478159161e-01
  7.96287553418135e-01
  3.33945329699303e-01
  6.22547446698276e-01
  1.05218920946014e+00
  1.58163648610788e+00
  1.94275715851415e+00
  1.63961854174412e+00
  6.16539390604916e-01
  1.46174282413811e-03
  1.72069387457792e-03
 -1.73621540030168e-02
 -7.58521053508670e-02
 -2.22062510987470e-01
 -3.01869042573189e-01
  3.58462876731022e-01
  6.61790131839668e-01
  1.52963368174496e-01
  2.18685155893849e+00
  2.05031234128050e+00
  1.45994452971031e+00
  4.29055195884351e-01
  1.01618543054798e-01
  1.93540141597197e+00
  2.21644478159161e-01
  7.96287553418135e-01
  3.33945329699303e-01
  6.22547446698276e-01
  1.05218920946014e+00
  1.58163648610788e+00
  1.94275715851415e+00
  1.63961854174412e+00
  6.16539390604916e-01
  1.46174282413811e-03
  1.72069387457792e-03
 -1.73621540030168e-02
 -7.58521053508670e-02
 -2.22062510987470e-01
 -3.01869042573189e-01
  3.58462876731022e-01
  6.61790131839668e-01
  1.52963368174496e-01
  2.18685155893849e+00
  2.05031234128050e+00
  1.45994452971031e+00
  4.29055195884351e-01
  1.01618543054798e-01
  1.93540141597197e+00
  2.21644478159161e-01
  7.96287553418135e-01
  3.33945329699303e-01
  6.22547446698276e-01
  1.05218920946014e+00
  1.58163648610788e+00
  1.94275715851415e+00
  1.63961854174412e+00
  6.16539390604916e-01
  1.46174282413811e-03
  1.72069387457792e-03
 -1.73621540030168e-02
 -7.58521053508670e-02
 -2.22062510987470e-01
 -3.01869042573189e-01
  3.58462876731022e-01
  6.61790131839668e-01
  1.52963368174496e-01
  2.18685155893849e+00
  2.05031234128050e+00
  1.45994452971031e+00
  4.29055195884351e-01
  1.01618543054798e-01
  1.93540141597197e+00
  2.21644478159161e-01
  7.96287553418135e-01
  3.33945329699303e-01
  6.22547446698276e-01
  1.05218920946014e+00
  1.58163648610788e+00
  1.94275715851415e+00
  1.63961854174412e+00
  6.16539390604916e-01
  1.46174282413811e-03
  1.72069387457792e-03
 -1.73621540030168e-02
 -7.58521053508670e-02
 -2.22062510987470e-01
 -3.01869042573189e-01
  3.58462876731022e-01
  6.61790131839668e-01
  1.52963368174496e-01
  2.18685155893849e+00
  2.05031234128050e+00
  1.45994452971031e+00
  4.29055195884351e-01
  1.01618543054798e-01
  1.93540141597197e+00
  2.21644478159161e-01
  7.96287553418135e-01
  3.33945329699303e-01
  6.22547446698276e-01
  1.05218920946014e+00
  1.58163648610788e+00
  1.94275715851415e+00
  1.63961854174412e+00
  6.16539390604916e-01
  1.46174282413811e-03
  1.72069387457792e-03
 -1.73621540030168e-02
 -7.58521053508670e-02
 -2.22062510987470e-01
 -3.01869042573189e-01
  3.58462876731022e-01
  6.61790131839668e-01
  1.52963368174496e-01
  2.18685155893849e+00
  2.05031234128050e+00
  1.45994452971031e+00
  4.29055195884351e-01
  1.01618543054798e-01
  1.93540141597197e+00
  2.21644478159161e-01
  7.96287553418135e-01
  3.33945329699303e-01
  6.22547446698276e-01
  1.05218920946014e+00
  1.58163648610788e+00
  1.94275715851415e+00
  1.63961854174412e+00
  6.16539390604916e-01
  1.46174282413811e-03
  1.72069387457792e-03
 -1.73621540030168e-02
 -7.58521053508670e-02
 -2.22062510987470e-01
 -3.01869042573189e-01
  3.58462876731022e-01
  6.61790131839668e-01
  1.52963368174496e-01
  2.18685155893849e+00
  2.05031234128050e+00
  1.45994452971031e+00
  4.29055195884351e-01
  1.01618543054798e-01
  1.93540141597197e+00
  2.21644478159161e-01
  7.96287553418135e-01
  3.33945329699303e-01
  6.22547446698276e-01
  1.05218920946014e+00
  1.58163648610788e+00
  1.94275715851415e+00
  1.63961854174412e+00
  6.16539390604916e-01
  1.46174282413811e-03
  1.72069387457792e-03
 -1.73621540030168e-02
 -7.58521053508670e-02
 -2.22062510987470e-01
 -3.01869042573189e-01
  3.58462876731022e-01
  6.61790131839668e-01
  1.52963368174496e-01
  2.18685155893849e+00
  2.05031234128050e+00
  1.45994452971031e+00
  4.29055195884351e-01
  1.01618543054798e-01
  1.93540141597197e+00
  2.21644478159161e-01
  7.96287553418135e-01
  3.33945329699303e-01
  6.22547446698276e-01
  1.05218920946014e+00
  1.58163648610788e+00
  1.94275715851415e+00
  1.63961854174412e+00
  6.16539390604916e-01
  1.46174282413811e-03
  1.72069387457792e-03
 -1.73621540030168e-02
 -7.58521053508670e-02
 -2.22062510987470e-01
 -3.01869042573189e-01
  3.58462876731022e-01
  6.61790131839668e-01
  1.52963368174496e-01
  2.18685155893849e+00
  2.05031234128050e+00
  1.45994452971031e+00
  4.29055195884351e-01
  1.01618543054798e-01
  1.93540141597197e+00
  2.21644478159161e-01
  7.96287553418135e-01
  3.33945329699303e-01
  6.22547446698276e-01
  1.05218920946014e+00
  1.58163648610788e+00
  1.94275715851415e+00
  1.63961854174412e+00
  6.16539390604916e-01
  1.46174282413811e-03
  1.72069387457792e-03
 -1.73621540030168e-02
 -7.58521053508670e-02
 -2.22062510987470e-01
 -3.01869042573189e-01
  3.58462876731022e-01
  6.61790131839668e-01
  1.52963368174496e-01
  2.18685155893849e+00
  2.05031234128050e+00
  1.45994452971031e+00
  4.29055195884351e-01
  1.01618543054798e-01
  1.93540141597197e+00
  2.21644478159161e-01
  7.96287553418135e-01
  3.33945329699303e-01
  6.22547446698276e-01
  1.05218920946014e+00
  1.58163648610788e+00
  1.94275715851415e+00
  1.63961854174412e+00
  6.16539390604916e-01
  1.46174282413811e-03
  1.72069387457792e-03
 -1.73621540030168e-02
 -7.58521053508670e-02
 -2.22062510987470e-01
 -3.01869042573189e-01
  3.58462876731022e-01
  6.61790131839668e-01
  1.52963368174496e-01
  2.18685155893849e+00
  2.05031234128050e+00
  1.45994452971031e+00
  4.29055195884351e-01
  1.01618543054798e-01
  1.93540141597197e+00
  2.21644478159161e-01
  7.96287553418135e-01
  3.33945329699303e-01
  6.22547446698276e-01
  1.05218920946014e+00
  1.58163648610788e+00
  1.94275715851415e+00
  1.63961854174412e+00
  6.16539390604916e-01
  1.46174282413811e-03
  1.72069387457792e-03
 -1.73621540030168e-02
 -7.58521053508670e-02
 -2.22062510987470e-01
 -3.01869042573189e-01
  3.58462876731022e-01
  6.61790131839668e-01
  1.52963368174496e-01
  2.18685155893849e+00
  2.05031234128050e+00
  1.45994452971031e+00
  4.29055195884351e-01
  1.01618543054798e-01
  1.93540141597197e+00
  2.21644478159161e-01
  7.96287553418135e-01
  3.33945329699303e-01
  6.22547446698276e-01
  1.05218920946014e+00
  1.58163648610788e+00
  1.94275715851415e+00
  1.63961854174412e+00
  6.16539390604916e-01
  1.46174282413811e-03
  1.72069387457792e-03
 -1.73621540030168e-02
 -7.58521053508670e-02
 -2.22062510987470e-01
 -3.01869042573189e-01
  3.58462876731022e-01
  6.61790131839668e-01
  1.52963368174496e-01
  2.18685155893849e+00
  2.05031234128050e+00
  1.45994452971031e+00
  4.29055195884351e-01
  1.01618543054798e-01
  1.93540141597197e+00
  2.21644478159161e-01
  7.96287553418135e-01
  3.33945329699303e-01
  6.22547446698276e-01
  1.05218920946014e+00
  1.58163648610788e+00
  1.94275715851415e+00
  1.63961854174412e+00
  6.16539390604916e-01
  1.46174282413811e-03
  1.72069387457792e-03
 -1.73621540030168e-02
 -7.58521053508670e-02
 -2.22062510987470e-01
 -3.01869042573189e-01
  3.58462876731022e-01
  6.61790131839668e-01
  1.52963368174496e-01
  2.18685155893849e+00
  2.05031234128050e+00
  1.45994452971031e+00
  4.29055195884351e-01
  1.01618543054798e-01
  1.93540141597197e+00
  2.21644478159161e-01
  7.96287553418135e-01
  3.33945329699303e-01
  6.22547446698276e-01
  1.05218920946014e+00
  1.58163648610788e+00
  1.94275715851415e+00
  1.63961854174412e+00
  6.16539390604916e-01
  1.46174282413811e-03
  1.72069387457792e-03
 -1.73621540030168e-02
 -7.58521053508670e-02
 -2.22062510987470e-01
 -3.01869042573189e-01
  3.58462876731022e-01
  6.61790131839668e-01
  1.52963368174496e-01
  2.18685155893849e+00
  2.05031234128050e+00
  1.45994452971031e+00
  4.29055195884351e-01
  1.01618543054798e-01
  1.93540141597197e+00
  2.21644478159161e-01
  7.96287553418135e-01
  3.33945329699303e-01
  6.22547446698276e-01
  1.05218920946014e+00
  1.58163648610788e+00
  1.94275715851415e+00
  1.63961854174412e+00
  6.16539390604916e-01
  1.46174282413811e-03
  1.72069387457792e-03
 -1.73621540030168e-02
 -7.58521053508670e-02
 -2.22062510987470e-01
 -3.01869042573189e-01
  3.58462876731022e-01
  6.61790131839668e-01
  1.52963368174496e-01
  2.18685155893849e+00
  2.05031234128050e+00
  1.45994452971031e+00
  4.29055195884351e-01
  1.01618543054798e-01
  1.93540141597197e+00
  2.21644478159161e-01
  7.96287553418135e-01
  3.33945329699303e-01
  6.22547446698276e-01
  1.05218920946014e+00
  1.58163648610788e+00
  1.94275715851415e+00
  1.63961854174412e+00
  6.16539390604916e-01
  1.46174282413811e-03
  1.72069387457792e-03
 -1.73621540030168e-02
 -7.58521053508670e-02
 -2.22062510987470e-01
 -3.01869042573189e-01
  3.58462876731022e-01
  6.61790131839668e-01
  1.52963368174496e-01
  2.18685155893849e+00
  2.05031234128050e+00
  1.45994452971031e+00
  4.29055195884351e-01
  1.01618543054798e-01
  1.93540141597197e+00
  2.21644478159161e-01
  7.96287553418135e-01
  3.33945329699303e-01
  6.22547446698276e-01
  1.05218920946014e+00
  1.58163648610788e+00
  1.94275715851415e+00
  1.63961854174412e+00
  6.16539390604916e-01
  1.46174282413811e-03
  1.72069387457792e-03
 -1.73621540030168e-02
 -7.58521053508670e-02
 -2.22062510987470e-01
 -3.01869042573189e-01
  3.58462876731022e-01
  6.61790131839668e-01
  1.52963368174496e-01
  2.18685155893849e+00
  2.05031234128050e+00
  1.45994452971031e+00
  4.29055195884351e-01
  1.01618543054798e-01
  1.93540141597197e+00
  2.21644478159161e-01
  7.96287553418135e-01
  3.33945329699303e-01
  6.22547446698276e-01
  1.05218920946014e+00
  1.58163648610788e+00
  1.94275715851415e+00
  1.63961854174412e+00
  6.16539390604916e-01
  1.46174282413811e-03
  1.72069387457792e-03
 -1.73621540030168e-02
 -7.58521053508670e-02
 -2.22062510987470e-01
 -3.01869042573189e-01
  3.58462876731022e-01
  6.61790131839668e-01
  1.52963368174496e-01
  2.18685155893849e+00
  2.05031234128050e+00
  1.45994452971031e+00
  4.29055195884351e-01
  1.01618543054798e-01
  1.93540141597197e+00
  2.21644478159161e-01
  7.96287553418135e-01
  3.33945329699303e-01
  6.22547446698276e-01
  1.05218920946014e+00
  1.58163648610788e+00
  1.94275715851415e+00
  1.63961854174412e+00
  6.16539390604916e-01
  1.46174282413811e-03
  1.72069387457792e-03
 -1.73621540030168e-02
 -7.58521053508670e-02
 -2.22062510987470e-01
 -3.01869042573189e-01
  3.58462876731022e-01
  6.61790131839668e-01
  1.52963368174496e-01
  2.18685155893849e+00
  2.05031234128050e+00
  1.45994452971031e+00
  4.29055195884351e-01
  1.01618543054798e-01
  1.93540141597197e+00
  2.21644478159161e-01
  7.96287553418135e-01
  3.33945329699303e-01
  6.22547446698276e-01
  1.05218920946014e+00
  1.58163648610788e+00
  1.94275715851415e+00
  1.63961854174412e+00
  6.16539390604916e-01
  1.46174282413811e-03
  1.72069387457792e-03
 -1.73621540030168e-02
 -7.58521053508670e-02
 -2.22062510987470e-01
 -3.01869042573189e-01
  3.58462876731022e-01
  6.61790131839668e-01
  1.52963368174496e-01
  2.18685155893849e+00
  2.05031234128050e+00
  1.45994452971031e+00
  4.29055195884351e-01
  1.01618543054798e-01
  1.93540141597197e+00
  2.21644478159161e-01
  7.96287553418135e-01
  3.33945329699303e-01
  6.22547446698276e-01
  1.05218920946014e+00
  1.58163648610788e+00
  1.94275715851415e+00
  1.63961854174412e+00
  6.16539390604916e-01
  1.46174282413811e-03
  1.72069387457792e-03
 -1.73621540030168e-02
 -7.58521053508670e-02
 -2.22062510987470e-01
 -3.01869042573189e-01
  3.58462876731022e-01
  6.61790131839668e-01
  1.52963368174496e-01
  2.18685155893849e+00
  2.05031234128050e+00
  1.45994452971031e+00
  4.29055195884351e-01
  1.01618543054798e-01
  1.93540141597197e+00
  2.21644478159161e-01
  7.96287553418135e-01
  2.55108057741981e-01
  4.60097888065188e-01
  6.78414067127930e-01
  3.07343053830611e-01
  1.29296844174819e-01
  2.18427698452683e+00
  4.36495473997198e-01
  1.81359656261779e+00
  2.55108057741981e-01
  4.60097888065188e-01
  6.78414067127930e-01
  3.07343053830611e-01
  1.29296844174819e-01
  2.18427698452683e+00
  4.36495473997198e-01
  1.81359656261779e+00
  2.55108057741981e-01
  4.60097888065188e-01
  6.78414067127930e-01
  3.07343053830611e-01
  1.29296844174819e-01
  2.18427698452683e+00
  4.36495473997198e-01
  1.81359656261779e+00
  2.55108057741981e-01
  4.60097888065188e-01
  6.78414067127930e-01
  3.07343053830611e-01
  1.29296844174819e-01
  2.18427698452683e+00
  4.36495473997198e-01
  1.81359656261779e+00
  2.55108057741981e-01
  4.60097888065188e-01
  6.78414067127930e-01
  3.07343053830611e-01
  1.29296844174819e-01
  2.18427698452683e+00
  4.36495473997198e-01
  1.81359656261779e+00
  2.55108057741981e-01
  4.60097888065188e-01
  6.78414067127930e-01
  3.07343053830611e-01
  1.29296844174819e-01
  2.18427698452683e+00
  4.36495473997198e-01
  1.81359656261779e+00
  2.55108057741981e-01
  4.60097888065188e-01
  6.78414067127930e-01
  3.07343053830611e-01
  1.29296844174819e-01
  2.18427698452683e+00
  4.36495473997198e-01
  1.81359656261779e+00
  2.55108057741981e-01
  4.60097888065188e-01
  6.78414067127930e-01
  3.07343053830611e-01
  1.29296844174819e-01
  2.18427698452683e+00
  4.36495473997198e-01
  1.81359656261779e+00
  2.55108057741981e-01
  4.60097888065188e-01
  6.78414067127930e-01
  3.07343053830611e-01
  1.29296844174819e-01
  2.18427698452683e+00
  4.36495473997198e-01
  1.81359656261779e+00
  2.55108057741981e-01
  4.60097888065188e-01
  6.78414067127930e-01
  3.07343053830611e-01
  1.29296844174819e-01
  2.18427698452683e+00
  4.36495473997198e-01
  1.81359656261779e+00
  2.55108057741981e-01
  4.60097888065188e-01
  6.78414067127930e-01
  3.07343053830611e-01
  1.29296844174819e-01
  2.18427698452683e+00
  4.36495473997198e-01
  1.81359656261779e+00
  2.55108057741981e-01
  4.60097888065188e-01
  6.78414067127930e-01
  3.07343053830611e-01
  1.29296844174819e-01
  2.18427698452683e+00
  4.36495473997198e-01
  1.81359656261779e+00
  2.55108057741981e-01
  4.60097888065188e-01
  6.78414067127930e-01
  3.07343053830611e-01
  1.29296844174819e-01
  2.18427698452683e+00
  4.36495473997198e-01
  1.81359656261779e+00
  2.55108057741981e-01
  4.60097888065188e-01
  6.78414067127930e-01
  3.07343053830611e-01
  1.29296844174819e-01
  2.18427698452683e+00
  4.36495473997198e-01
  1.81359656261779e+00
  2.55108057741981e-01
  4.60097888065188e-01
  6.78414067127930e-01
  3.07343053830611e-01
  1.29296844174819e-01
  2.18427698452683e+00
  4.36495473997198e-01
  1.81359656261779e+00
  2.55108057741981e-01
  4.60097888065188e-01
  6.78414067127930e-01
  3.07343053830611e-01
  1.29296844174819e-01
  2.18427698452683e+00
  4.36495473997198e-01
  1.81359656261779e+00
  2.55108057741981e-01
  4.60097888065188e-01
  6.78414067127930e-01
  3.07343053830611e-01
  1.29296844174819e-01
  2.18427698452683e+00
  4.36495473997198e-01
  1.81359656261779e+00
  2.55108057741981e-01
  4.60097888065188e-01
  6.78414067127930e-01
  3.07343053830611e-01
  1.29296844174819e-01
  2.18427698452683e+00
  4.36495473997198e-01
  1.81359656261779e+00
  2.55108057741981e-01
  4.60097888065188e-01
  6.78414067127930e-01
  3.07343053830611e-01
  1.29296844174819e-01
  2.18427698452683e+00
  4.36495473997198e-01
  1.81359656261779e+00
  2.55108057741981e-01
  4.60097888065188e-01
  6.78414067127930e-01
  3.07343053830611e-01
  1.29296844174819e-01
  2.18427698452683e+00
  4.36495473997198e-01
  1.81359656261779e+00
  2.55108057741981e-01
  4.60097888065188e-01
  6.78414067127930e-01
  3.07343053830611e-01
  1.29296844174819e-01
  2.18427698452683e+00
  4.36495473997198e-01
  1.81359656261779e+00
  2.55108057741981e-01
  4.60097888065188e-01
  6.78414067127930e-01
  3.07343053830611e-01
  1.29296844174819e-01
  2.18427698452683e+00
  4.36495473997198e-01
  1.81359656261779e+00
  2.55108057741981e-01
  4.60097888065188e-01
  6.78414067127930e-01
  3.07343053830611e-01
  1.29296844174819e-01
  2.18427698452683e+00
  4.36495473997198e-01
  1.81359656261779e+00
  2.55108057741981e-01
  4.60097888065188e-01
  6.78414067127930e-01
  3.07343053830611e-01
  1.29296844174819e-01
  2.18427698452683e+00
  4.36495473997198e-01
  1.81359656261779e+00

0 0 0 0 1 1 1
0 0 
7 0

0 1 1 7 1 1 1
7 0 
7 0

0 2 2 14 1 1 1
14 0 
1 0

0 3 3 15 1 1 1
15 0 
1 0

0 4 4 16 1 3 3
16 1 
3 0

0 7 7 19 1 3 3
19 1 
1 0

0 10 10 20 1 3 3
20 1 
1 0

0 13 13 21 1 5 6
21 2 
1 1

0 18 18 22 1 5 6
22 2 
1 1

0 23 23 23 1 7 10
23 3 
1 1

1 30 30 24 1 1 1
24 0 
7 0

1 31 31 31 1 1 1
31 0 
7 0

1 32 32 38 1 1 1
38 0 
1 0

1 33 33 39 1 1 1
39 0 
1 0

1 34 34 40 1 3 3
40 1 
3 0

1 37 37 43 1 3 3
43 1 
1 0

1 40 40 44 1 3 3
44 1 
1 0

1 43 43 45 1 5 6
45 2 
1 1

1 48 48 46 1 5 6
46 2 
1 1

1 53 53 47 1 7 10
47 3 
1 1

2 60 60 48 1 1 1
48 0 
7 0

2 61 61 55 1 1 1
55 0 
7 0

2 62 62 62 1 1 1
62 0 
1 0

2 63 63 63 1 1 1
63 0 
1 0

2 64 64 64 1 3 3
64 1 
3 0

2 67 67 67 1 3 3
67 1 
1 0

2 70 70 68 1 3 3
68 1 
1 0

2 73 73 69 1 5 6
69 2 
1 1

2 78 78 70 1 5 6
70 2 
1 1

2 83 83 71 1 7 10
71 3 
1 1

3 90 90 72 1 1 1
72 0 
7 0

3 91 91 79 1 1 1
79 0 
7 0

3 92 92 86 1 1 1
86 0 
1 0

3 93 93 87 1 1 1
87 0 
1 0

3 94 94 88 1 3 3
88 1 
3 0

3 97 97 91 1 3 3
91 1 
1 0

3 100 100 92 1 3 3
92 1 
1 0

3 103 103 93 1 5 6
93 2 
1 1

3 108 108 94 1 5 6
94 2 
1 1

3 113 113 95 1 7 10
95 3 
1 1

4 120 120 96 1 1 1
96 0 
7 0

4 121 121 103 1 1 1
103 0 
7 0

4 122 122 110 1 1 1
110 0 
1 0

4 123 123 111 1 1 1
111 0 
1 0

4 124 124 112 1 3 3
112 1 
3 0

4 127 127 115 1 3 3
115 1 
1 0

4 130 130 116 1 3 3
116 1 
1 0

4 133 133 117 1 5 6
117 2 
1 1

4 138 138 118 1 5 6
118 2 
1 1

4 143 143 119 1 7 10
119 3 
1 1

5 150 150 120 1 1 1
120 0 
7 0

5 151 151 127 1 1 1
127 0 
7 0

5 152 152 134 1 1 1
134 0 
1 0

5 153 153 135 1 1 1
135 0 
1 0

5 154 154 136 1 3 3
136 1 
3 0

5 157 157 139 1 3 3
139 1 
1 0

5 160 160 140 1 3 3
140 1 
1 0

5 163 163 141 1 5 6
141 2 
1 1

5 168 168 142 1 5 6
142 2 
1 1

5 173 173 143 1 7 10
143 3 
1 1

6 180 180 144 1 1 1
144 0 
7 0

6 181 181 151 1 1 1
151 0 
7 0

6 182 182 158 1 1 1
158 0 
1 0

6 183 183 159 1 1 1
159 0 
1 0

6 184 184 160 1 3 3
160 1 
3 0

6 187 187 163 1 3 3
163 1 
1 0

6 190 190 164 1 3 3
164 1 
1 0

6 193 193 165 1 5 6
165 2 
1 1

6 198 198 166 1 5 6
166 2 
1 1

6 203 203 167 1 7 10
167 3 
1 1

7 210 210 168 1 1 1
168 0 
7 0

7 211 211 175 1 1 1
175 0 
7 0

7 212 212 182 1 1 1
182 0 
1 0

7 213 213 183 1 1 1
183 0 
1 0

7 214 214 184 1 3 3
184 1 
3 0

7 217 217 187 1 3 3
187 1 
1 0

7 220 220 188 1 3 3
188 1 
1 0

7 223 223 189 1 5 6
189 2 
1 1

7 228 228 190 1 5 6
190 2 
1 1

7 233 233 191 1 7 10
191 3 
1 1

8 240 240 192 1 1 1
192 0 
7 0

8 241 241 199 1 1 1
199 0 
7 0

8 242 242 206 1 1 1
206 0 
1 0

8 243 243 207 1 1 1
207 0 
1 0

8 244 244 208 1 3 3
208 1 
3 0

8 247 247 211 1 3 3
211 1 
1 0

8 250 250 212 1 3 3
212 1 
1 0

8 253 253 213 1 5 6
213 2 
1 1

8 258 258 214 1 5 6
214 2 
1 1

8 263 263 215 1 7 10
215 3 
1 1

9 270 270 216 1 1 1
216 0 
7 0

9 271 271 223 1 1 1
223 0 
7 0

9 272 272 230 1 1 1
230 0 
1 0

9 273 273 231 1 1 1
231 0 
1 0

9 274 274 232 1 3 3
232 1 
3 0

9 277 277 235 1 3 3
235 1 
1 0

9 280 280 236 1 3 3
236 1 
1 0

9 283 283 237 1 5 6
237 2 
1 1

9 288 288 238 1 5 6
238 2 
1 1

9 293 293 239 1 7 10
239 3 
1 1

10 300 300 240 1 1 1
240 0 
7 0

10 301 301 247 1 1 1
247 0 
7 0

10 302 302 254 1 1 1
254 0 
1 0

10 303 303 255 1 1 1
255 0 
1 0

10 304 304 256 1 3 3
256 1 
3 0

10 307 307 259 1 3 3
259 1 
1 0

10 310 310 260 1 3 3
260 1 
1 0

10 313 313 261 1 5 6
261 2 
1 1

10 318 318 262 1 5 6
262 2 
1 1

10 323 323 263 1 7 10
263 3 
1 1

11 330 330 264 1 1 1
264 0 
7 0

11 331 331 271 1 1 1
271 0 
7 0

11 332 332 278 1 1 1
278 0 
1 0

11 333 333 279 1 1 1
279 0 
1 0

11 334 334 280 1 3 3
280 1 
3 0

11 337 337 283 1 3 3
283 1 
1 0

11 340 340 284 1 3 3
284 1 
1 0

11 343 343 285 1 5 6
285 2 
1 1

11 348 348 286 1 5 6
286 2 
1 1

11 353 353 287 1 7 10
287 3 
1 1

12 360 360 288 1 1 1
288 0 
7 0

12 361 361 295 1 1 1
295 0 
7 0

12 362 362 302 1 1 1
302 0 
1 0

12 363 363 303 1 1 1
303 0 
1 0

12 364 364 304 1 3 3
304 1 
3 0

12 367 367 307 1 3 3
307 1 
1 0

12 370 370 308 1 3 3
308 1 
1 0

12 373 373 309 1 5 6
309 2 
1 1

12 378 378 310 1 5 6
310 2 
1 1

12 383 383 311 1 7 10
311 3 
1 1

13 390 390 312 1 1 1
312 0 
7 0

13 391 391 319 1 1 1
319 0 
7 0

13 392 392 326 1 1 1
326 0 
1 0

13 393 393 327 1 1 1
327 0 
1 0

13 394 394 328 1 3 3
328 1 
3 0

13 397 397 331 1 3 3
331 1 
1 0

13 400 400 332 1 3 3
332 1 
1 0

13 403 403 333 1 5 6
333 2 
1 1

13 408 408 334 1 5 6
334 2 
1 1

13 413 413 335 1 7 10
335 3 
1 1

14 420 420 336 1 1 1
336 0 
7 0

14 421 421 343 1 1 1
343 0 
7 0

14 422 422 350 1 1 1
350 0 
1 0

14 423 423 351 1 1 1
351 0 
1 0

14 424 424 352 1 3 3
352 1 
3 0

14 427 427 355 1 3 3
355 1 
1 0

14 430 430 356 1 3 3
356 1 
1 0

14 433 433 357 1 5 6
357 2 
1 1

14 438 438 358 1 5 6
358 2 
1 1

14 443 443 359 1 7 10
359 3 
1 1

15 450 450 360 1 1 1
360 0 
7 0

15 451 451 367 1 1 1
367 0 
7 0

15 452 452 374 1 1 1
374 0 
1 0

15 453 453 375 1 1 1
375 0 
1 0

15 454 454 376 1 3 3
376 1 
3 0

15 457 457 379 1 3 3
379 1 
1 0

15 460 460 380 1 3 3
380 1 
1 0

15 463 463 381 1 5 6
381 2 
1 1

15 468 468 382 1 5 6
382 2 
1 1

15 473 473 383 1 7 10
383 3 
1 1

16 480 480 384 1 1 1
384 0 
7 0

16 481 481 391 1 1 1
391 0 
7 0

16 482 482 398 1 1 1
398 0 
1 0

16 483 483 399 1 1 1
399 0 
1 0

16 484 484 400 1 3 3
400 1 
3 0

16 487 487 403 1 3 3
403 1 
1 0

16 490 490 404 1 3 3
404 1 
1 0

16 493 493 405 1 5 6
405 2 
1 1

16 498 498 406 1 5 6
406 2 
1 1

16 503 503 407 1 7 10
407 3 
1 1

17 510 510 408 1 1 1
408 0 
7 0

17 511 511 415 1 1 1
415 0 
7 0

17 512 512 422 1 1 1
422 0 
1 0

17 513 513 423 1 1 1
423 0 
1 0

17 514 514 424 1 3 3
424 1 
3 0

17 517 517 427 1 3 3
427 1 
1 0

17 520 520 428 1 3 3
428 1 
1 0

17 523 523 429 1 5 6
429 2 
1 1

17 528 528 430 1 5 6
430 2 
1 1

17 533 533 431 1 7 10
431 3 
1 1

18 540 540 432 1 1 1
432 0 
7 0

18 541 541 439 1 1 1
439 0 
7 0

18 542 542 446 1 1 1
446 0 
1 0

18 543 543 447 1 1 1
447 0 
1 0

18 544 544 448 1 3 3
448 1 
3 0

18 547 547 451 1 3 3
451 1 
1 0

18 550 550 452 1 3 3
452 1 
1 0

18 553 553 453 1 5 6
453 2 
1 1

18 558 558 454 1 5 6
454 2 
1 1

18 563 563 455 1 7 10
455 3 
1 1

19 570 570 456 1 1 1
456 0 
7 0

19 571 571 463 1 1 1
463 0 
7 0

19 572 572 470 1 1 1
470 0 
1 0

19 573 573 471 1 1 1
471 0 
1 0

19 574 574 472 1 3 3
472 1 
3 0

19 577 577 475 1 3 3
475 1 
1 0

19 580 580 476 1 3 3
476 1 
1 0

19 583 583 477 1 5 6
477 2 
1 1

19 588 588 478 1 5 6
478 2 
1 1

19 593 593 479 1 7 10
479 3 
1 1

20 600 600 480 1 1 1
480 0 
7 0

20 601 601 487 1 1 1
487 0 
7 0

20 602 602 494 1 1 1
494 0 
1 0

20 603 603 495 1 1 1
495 0 
1 0

20 604 604 496 1 3 3
496 1 
3 0

20 607 607 499 1 3 3
499 1 
1 0

20 610 610 500 1 3 3
500 1 
1 0

20 613 613 501 1 5 6
501 2 
1 1

20 618 618 502 1 5 6
502 2 
1 1

20 623 623 503 1 7 10
503 3 
1 1

21 630 630 504 1 1 1
504 0 
7 0

21 631 631 511 1 1 1
511 0 
7 0

21 632 632 518 1 1 1
518 0 
1 0

21 633 633 519 1 1 1
519 0 
1 0

21 634 634 520 1 3 3
520 1 
3 0

21 637 637 523 1 3 3
523 1 
1 0

21 640 640 524 1 3 3
524 1 
1 0

21 643 643 525 1 5 6
525 2 
1 1

21 648 648 526 1 5 6
526 2 
1 1

21 653 653 527 1 7 10
527 3 
1 1

22 660 660 528 1 1 1
528 0 
7 0

22 661 661 535 1 1 1
535 0 
7 0

22 662 662 542 1 1 1
542 0 
1 0

22 663 663 543 1 1 1
543 0 
1 0

22 664 664 544 1 3 3
544 1 
3 0

22 667 667 547 1 3 3
547 1 
1 0

22 670 670 548 1 3 3
548 1 
1 0

22 673 673 549 1 5 6
549 2 
1 1

22 678 678 550 1 5 6
550 2 
1 1

22 683 683 551 1 7 10
551 3 
1 1

23 690 690 552 1 1 1
552 0 
7 0

23 691 691 559 1 1 1
559 0 
7 0

23 692 692 566 1 1 1
566 0 
1 0

23 693 693 567 1 1 1
567 0 
1 0

23 694 694 568 1 3 3
568 1 
3 0

23 697 697 571 1 3 3
571 1 
1 0

23 700 700 572 1 3 3
572 1 
1 0

23 703 703 573 1 5 6
573 2 
1 1

23 708 708 574 1 5 6
574 2 
1 1

23 713 713 575 1 7 10
575 3 
1 1

24 720 720 576 1 1 1
576 0 
3 0

24 721 721 579 1 1 1
579 0 
1 0

24 722 722 580 1 1 1
580 0 
1 0

24 723 723 581 1 3 3
581 1 
1 0

24 726 726 582 1 3 3
582 1 
1 0

24 729 729 583 1 5 6
583 2 
1 1

25 734 734 584 1 1 1
584 0 
3 0

25 735 735 587 1 1 1
587 0 
1 0

25 736 736 588 1 1 1
588 0 
1 0

25 737 737 589 1 3 3
589 1 
1 0

25 740 740 590 1 3 3
590 1 
1 0

25 743 743 591 1 5 6
591 2 
1 1

26 748 748 592 1 1 1
592 0 
3 0

26 749 749 595 1 1 1
595 0 
1 0

26 750 750 596 1 1 1
596 0 
1 0

26 751 751 597 1 3 3
597 1 
1 0

26 754 754 598 1 3 3
598 1 
1 0

26 757 757 599 1 5 6
599 2 
1 1

27 762 762 600 1 1 1
600 0 
3 0

27 763 763 603 1 1 1
603 0 
1 0

27 764 764 604 1 1 1
604 0 
1 0

27 765 765 605 1 3 3
605 1 
1 0

27 768 768 606 1 3 3
606 1 
1 0

27 771 771 607 1 5 6
607 2 
1 1

28 776 776 608 1 1 1
608 0 
3 0

28 777 777 611 1 1 1
611 0 
1 0

28 778 778 612 1 1 1
612 0 
1 0

28 779 779 613 1 3 3
613 1 
1 0

28 782 782 614 1 3 3
614 1 
1 0

28 785 785 615 1 5 6
615 2 
1 1

29 790 790 616 1 1 1
616 0 
3 0

29 791 791 619 1 1 1
619 0 
1 0

29 792 792 620 1 1 1
620 0 
1 0

29 793 793 621 1 3 3
621 1 
1 0

29 796 796 622 1 3 3
622 1 
1 0

29 799 799 623 1 5 6
623 2 
1 1

30 804 804 624 1 1 1
624 0 
3 0

30 805 805 627 1 1 1
627 0 
1 0

30 806 806 628 1 1 1
628 0 
1 0

30 807 807 629 1 3 3
629 1 
1 0

30 810 810 630 1 3 3
630 1 
1 0

30 813 813 631 1 5 6
631 2 
1 1

31 818 818 632 1 1 1
632 0 
3 0

31 819 819 635 1 1 1
635 0 
1 0

31 820 820 636 1 1 1
636 0 
1 0

31 821 821 637 1 3 3
637 1 
1 0

31 824 824 638 1 3 3
638 1 
1 0

31 827 827 639 1 5 6
639 2 
1 1

32 832 832 640 1 1 1
640 0 
3 0

32 833 833 643 1 1 1
643 0 
1 0

32 834 834 644 1 1 1
644 0 
1 0

32 835 835 645 1 3 3
645 1 
1 0

32 838 838 646 1 3 3
646 1 
1 0

32 841 841 647 1 5 6
647 2 
1 1

33 846 846 648 1 1 1
648 0 
3 0

33 847 847 651 1 1 1
651 0 
1 0

33 848 848 652 1 1 1
652 0 
1 0

33 849 849 653 1 3 3
653 1 
1 0

33 852 852 654 1 3 3
654 1 
1 0

33 855 855 655 1 5 6
655 2 
1 1

34 860 860 656 1 1 1
656 0 
3 0

34 861 861 659 1 1 1
659 0 
1 0

34 862 862 660 1 1 1
660 0 
1 0

34 863 863 661 1 3 3
661 1 
1 0

34 866 866 662 1 3 3
662 1 
1 0

34 869 869 663 1 5 6
663 2 
1 1

35 874 874 664 1 1 1
664 0 
3 0

35 875 875 667 1 1 1
667 0 
1 0

35 876 876 668 1 1 1
668 0 
1 0

35 877 877 669 1 3 3
669 1 
1 0

35 880 880 670 1 3 3
670 1 
1 0

35 883 883 671 1 5 6
671 2 
1 1

36 888 888 672 1 1 1
672 0 
3 0

36 889 889 675 1 1 1
675 0 
1 0

36 890 890 676 1 1 1
676 0 
1 0

36 891 891 677 1 3 3
677 1 
1 0

36 894 894 678 1 3 3
678 1 
1 0

36 897 897 679 1 5 6
679 2 
1 1

37 902 902 680 1 1 1
680 0 
3 0

37 903 903 683 1 1 1
683 0 
1 0

37 904 904 684 1 1 1
684 0 
1 0

37 905 905 685 1 3 3
685 1 
1 0

37 908 908 686 1 3 3
686 1 
1 0

37 911 911 687 1 5 6
687 2 
1 1

38 916 916 688 1 1 1
688 0 
3 0

38 917 917 691 1 1 1
691 0 
1 0

38 918 918 692 1 1 1
692 0 
1 0

38 919 919 693 1 3 3
693 1 
1 0

38 922 922 694 1 3 3
694 1 
1 0

38 925 925 695 1 5 6
695 2 
1 1

39 930 930 696 1 1 1
696 0 
3 0

39 931 931 699 1 1 1
699 0 
1 0

39 932 932 700 1 1 1
700 0 
1 0

39 933 933 701 1 3 3
701 1 
1 0

39 936 936 702 1 3 3
702 1 
1 0

39 939 939 703 1 5 6
703 2 
1 1

40 944 944 704 1 1 1
704 0 
3 0

40 945 945 707 1 1 1
707 0 
1 0

40 946 946 708 1 1 1
708 0 
1 0

40 947 947 709 1 3 3
709 1 
1 0

40 950 950 710 1 3 3
710 1 
1 0

40 953 953 711 1 5 6
711 2 
1 1

41 958 958 712 1 1 1
712 0 
3 0

41 959 959 715 1 1 1
715 0 
1 0

41 960 960 716 1 1 1
716 0 
1 0

41 961 961 717 1 3 3
717 1 
1 0

41 964 964 718 1 3 3
718 1 
1 0

41 967 967 719 1 5 6
719 2 
1 1

42 972 972 720 1 1 1
720 0 
3 0

42 973 973 723 1 1 1
723 0 
1 0

42 974 974 724 1 1 1
724 0 
1 0

42 975 975 725 1 3 3
725 1 
1 0

42 978 978 726 1 3 3
726 1 
1 0

42 981 981 727 1 5 6
727 2 
1 1

43 986 986 728 1 1 1
728 0 
3 0

43 987 987 731 1 1 1
731 0 
1 0

43 988 988 732 1 1 1
732 0 
1 0

43 989 989 733 1 3 3
733 1 
1 0

43 992 992 734 1 3 3
734 1 
1 0

43 995 995 735 1 5 6
735 2 
1 1

44 1000 1000 736 1 1 1
736 0 
3 0

44 1001 1001 739 1 1 1
739 0 
1 0

44 1002 1002 740 1 1 1
740 0 
1 0

44 1003 1003 741 1 3 3
741 1 
1 0

44 1006 1006 742 1 3 3
742 1 
1 0

44 1009 1009 743 1 5 6
743 2 
1 1

45 1014 1014 744 1 1 1
744 0 
3 0

45 1015 1015 747 1 1 1
747 0 
1 0

45 1016 1016 748 1 1 1
748 0 
1 0

45 1017 1017 749 1 3 3
749 1 
1 0

45 1020 1020 750 1 3 3
750 1 
1 0

45 1023 1023 751 1 5 6
751 2 
1 1

46 1028 1028 752 1 1 1
752 0 
3 0

46 1029 1029 755 1 1 1
755 0 
1 0

46 1030 1030 756 1 1 1
756 0 
1 0

46 1031 1031 757 1 3 3
757 1 
1 0

46 1034 1034 758 1 3 3
758 1 
1 0

46 1037 1037 759 1 5 6
759 2 
1 1

47 1042 1042 760 1 1 1
760 0 
3 0

47 1043 1043 763 1 1 1
763 0 
1 0

47 1044 1044 764 1 1 1
764 0 
1 0

47 1045 1045 765 1 3 3
765 1 
1 0

47 1048 1048 766 1 3 3
766 1 
1 0

47 1051 1051 767 1 5 6
767 2 
1 1

 -------------------------------------------------------------
 Allocate 3841336 B from available memory: 1048576000000 B
 There are 343 image cells after screening.
 There are 187 image cells for CGTO evaluation after screening.
 Real-Space grid for FFT initialized based on kinetic energy cutoff (eV) = 500.0
 Real-Space grid for FFT: (18,20,25)
 There are 77367 real-space grid points.
 There are 512 batches of real-space grid points. 
 Size of each grid batch is around 128
 Grid for AFT initialized based on kinetic energy cutoff (eV) = 500.0
 Real-Space grid for AFT: (18,20,25)
 There are 77367 real-space grid points.

 There are 142416 atom-centered grid points.

 Adding empirical dispersion correction 
 ----------------------------------------------------------------
 Doing -D3(BJ) with
 s6  =   1.00000e+00
 s8  =   7.87500e-01
 a1  =   4.28900e-01
 a2  =   4.44070e+00
 ----------------------------------------------------------------
 Spacegroup symmetry group: Pbca
 Reducing spacegroup symmetry to symmorphic group: P -1
 Monkhorst-Pack mesh is [3,3,3]
 There are 27 k points.
kpoints in Bohr
-0.1627468662 -0.1499737698 -0.1176545816
-0.1627468662 -0.1499737698 0.0000000000
-0.1627468662 -0.1499737698 0.1176545816
-0.1627468662 0.0000000000 -0.1176545816
-0.1627468662 0.0000000000 0.0000000000
-0.1627468662 0.0000000000 0.1176545816
-0.1627468662 0.1499737698 -0.1176545816
-0.1627468662 0.1499737698 0.0000000000
-0.1627468662 0.1499737698 0.1176545816
0.0000000000 -0.1499737698 -0.1176545816
0.0000000000 -0.1499737698 0.0000000000
0.0000000000 -0.1499737698 0.1176545816
0.0000000000 0.0000000000 -0.1176545816
0.0000000000 0.0000000000 0.0000000000
0.0000000000 0.0000000000 0.1176545816
0.0000000000 0.1499737698 -0.1176545816
0.0000000000 0.1499737698 0.0000000000
0.0000000000 0.1499737698 0.1176545816
0.1627468662 -0.1499737698 -0.1176545816
0.1627468662 -0.1499737698 0.0000000000
0.1627468662 -0.1499737698 0.1176545816
0.1627468662 0.0000000000 -0.1176545816
0.1627468662 0.0000000000 0.0000000000
0.1627468662 0.0000000000 0.1176545816
0.1627468662 0.1499737698 -0.1176545816
0.1627468662 0.1499737698 0.0000000000
0.1627468662 0.1499737698 0.1176545816
 There are 84 alpha and 84 beta electrons
 Start computing overlap matrix
 Allocate 481738752 B from available memory: 1048572158688 B
 Time for computing overlap matrix: 11.4240000000 s
 ====== Initialize compute kernels for all-electron RI-J (kpts) ====== 
 ==== The unitcell is non-orthorombic! => Use AFT non-orthorombic code ==== 
 ========================================================== 
 Range-separated parameter omega        = 0.400000000000000022
 Threshold for 1e2c shellpair           = 0.000000000000010000
 Threshold for 2e2c SR integral         = 0.000000000000000001
 Threshold for 2e3c SR integral         = 0.000000000100000000
 Threshold for AFT G-space screening is = 0.000000000001000000
 The exponent cutoff for C/D classification (omega2 / 2) is  = 0.080000000000000016
 ========================================================== 
 === Process the basis set for RI calculation (exp_cutoff = 0.080000000000000016 ) === 
nshells_b1 before uncontraction = 384
nshells_b1 after uncontraction = 384
nshells_baux before uncontraction = 840
nshells_baux after uncontraction = 840
===============================================
nbsf total   = 1056
nbsf compact = 1056
nbsf diffuse = 0
naux total   = 2616
naux compact = 2616
naux diffuse = 0
nshells_bnuc = 48

 Number of unique atoms is 2
 Unique atom #0 (h) has 6 shells.
 Unique atom #1 (c) has 10 shells.

Shell 0 to 9 belongs to atom c
Shell 10 to 19 belongs to atom c
Shell 20 to 29 belongs to atom c
Shell 30 to 39 belongs to atom c
Shell 40 to 49 belongs to atom c
Shell 50 to 59 belongs to atom c
Shell 60 to 69 belongs to atom c
Shell 70 to 79 belongs to atom c
Shell 80 to 89 belongs to atom c
Shell 90 to 99 belongs to atom c
Shell 100 to 109 belongs to atom c
Shell 110 to 119 belongs to atom c
Shell 120 to 129 belongs to atom c
Shell 130 to 139 belongs to atom c
Shell 140 to 149 belongs to atom c
Shell 150 to 159 belongs to atom c
Shell 160 to 169 belongs to atom c
Shell 170 to 179 belongs to atom c
Shell 180 to 189 belongs to atom c
Shell 190 to 199 belongs to atom c
Shell 200 to 209 belongs to atom c
Shell 210 to 219 belongs to atom c
Shell 220 to 229 belongs to atom c
Shell 230 to 239 belongs to atom c
Shell 240 to 245 belongs to atom h
Shell 246 to 251 belongs to atom h
Shell 252 to 257 belongs to atom h
Shell 258 to 263 belongs to atom h
Shell 264 to 269 belongs to atom h
Shell 270 to 275 belongs to atom h
Shell 276 to 281 belongs to atom h
Shell 282 to 287 belongs to atom h
Shell 288 to 293 belongs to atom h
Shell 294 to 299 belongs to atom h
Shell 300 to 305 belongs to atom h
Shell 306 to 311 belongs to atom h
Shell 312 to 317 belongs to atom h
Shell 318 to 323 belongs to atom h
Shell 324 to 329 belongs to atom h
Shell 330 to 335 belongs to atom h
Shell 336 to 341 belongs to atom h
Shell 342 to 347 belongs to atom h
Shell 348 to 353 belongs to atom h
Shell 354 to 359 belongs to atom h
Shell 360 to 365 belongs to atom h
Shell 366 to 371 belongs to atom h
Shell 372 to 377 belongs to atom h
Shell 378 to 383 belongs to atom h

 Number of unique atom is 2
 Unique atom #0 (h) has 10 auxiliary shells.
 Unique atom #1 (c) has 25 auxiliary shells.

Auxiliary Shell 0 to 24 belongs to atom c
Auxiliary Shell 25 to 49 belongs to atom c
Auxiliary Shell 50 to 74 belongs to atom c
Auxiliary Shell 75 to 99 belongs to atom c
Auxiliary Shell 100 to 124 belongs to atom c
Auxiliary Shell 125 to 149 belongs to atom c
Auxiliary Shell 150 to 174 belongs to atom c
Auxiliary Shell 175 to 199 belongs to atom c
Auxiliary Shell 200 to 224 belongs to atom c
Auxiliary Shell 225 to 249 belongs to atom c
Auxiliary Shell 250 to 274 belongs to atom c
Auxiliary Shell 275 to 299 belongs to atom c
Auxiliary Shell 300 to 324 belongs to atom c
Auxiliary Shell 325 to 349 belongs to atom c
Auxiliary Shell 350 to 374 belongs to atom c
Auxiliary Shell 375 to 399 belongs to atom c
Auxiliary Shell 400 to 424 belongs to atom c
Auxiliary Shell 425 to 449 belongs to atom c
Auxiliary Shell 450 to 474 belongs to atom c
Auxiliary Shell 475 to 499 belongs to atom c
Auxiliary Shell 500 to 524 belongs to atom c
Auxiliary Shell 525 to 549 belongs to atom c
Auxiliary Shell 550 to 574 belongs to atom c
Auxiliary Shell 575 to 599 belongs to atom c
Auxiliary Shell 600 to 609 belongs to atom h
Auxiliary Shell 610 to 619 belongs to atom h
Auxiliary Shell 620 to 629 belongs to atom h
Auxiliary Shell 630 to 639 belongs to atom h
Auxiliary Shell 640 to 649 belongs to atom h
Auxiliary Shell 650 to 659 belongs to atom h
Auxiliary Shell 660 to 669 belongs to atom h
Auxiliary Shell 670 to 679 belongs to atom h
Auxiliary Shell 680 to 689 belongs to atom h
Auxiliary Shell 690 to 699 belongs to atom h
Auxiliary Shell 700 to 709 belongs to atom h
Auxiliary Shell 710 to 719 belongs to atom h
Auxiliary Shell 720 to 729 belongs to atom h
Auxiliary Shell 730 to 739 belongs to atom h
Auxiliary Shell 740 to 749 belongs to atom h
Auxiliary Shell 750 to 759 belongs to atom h
Auxiliary Shell 760 to 769 belongs to atom h
Auxiliary Shell 770 to 779 belongs to atom h
Auxiliary Shell 780 to 789 belongs to atom h
Auxiliary Shell 790 to 799 belongs to atom h
Auxiliary Shell 800 to 809 belongs to atom h
Auxiliary Shell 810 to 819 belongs to atom h
Auxiliary Shell 820 to 829 belongs to atom h
Auxiliary Shell 830 to 839 belongs to atom h

================= Automatically determine grid size for reciprocal space summation =================
 Range-separated parameter = 0.40000000000000 and G-space screening threshold = 0.00000000000100
The number of grid points along each axis dimension is (9, 10, 13)
Total number of grid points = 10773

======== Initializing relevant kernel for RIJ (CC type) ========
There are 64048 shellpairs in the reference unit cell
There are 447 images and we expect to have 28629456 in total
There are 262044 shellpairs in the lattice sum after screening
****** AFT -> SR ******
Maximum bra distance cutoff is 23.000000000000
Maximum bra ket distance cutoff is 28.781059169873
Maximum bra ket screening distance is 23.062500000000
Number of auxiliary image is 161
There are 64048 shellpairs in the reference unit cell
There are 117 images and we expect to have 7493616 in total
There are 262044 shellpairs in the lattice sum after screening
Available memory per thread for 2e3c calculation is 32.752825623000Gb
Finish initializing 2e3c SR with the lattice sum!
=================================================
======== Initialize the SR component for Vnuc (CC type) ========
Maximum bra distance cutoff is 23.000000000000
Maximum bra ket distance cutoff is 23.072618114210
Maximum bra ket screening distance is 16.960353445237
Number of auxiliary image is 117
There are 64048 shellpairs in the reference unit cell
There are 117 images and we expect to have 7493616 in total
There are 262044 shellpairs in the lattice sum after screening
Available memory per thread for 2e3c calculation is 32.752825623000Gb
Finish initializing 2e3c SR with the lattice sum!
=================================================
 Aufbau occupation scheme, occupation determined by eigenvalue
 == 0-th k-point nmo = 1056 (-0.16275,-0.14997,-0.11765) ==
 == 1-th k-point nmo = 1056 (-0.16275,-0.14997,0.00000) ==
 == 2-th k-point nmo = 1056 (-0.16275,-0.14997,0.11765) ==
 == 3-th k-point nmo = 1056 (-0.16275,0.00000,-0.11765) ==
 == 4-th k-point nmo = 1056 (-0.16275,0.00000,0.00000) ==
 == 5-th k-point nmo = 1056 (-0.16275,0.00000,0.11765) ==
 == 6-th k-point nmo = 1056 (-0.16275,0.14997,-0.11765) ==
 == 7-th k-point nmo = 1056 (-0.16275,0.14997,0.00000) ==
 == 8-th k-point nmo = 1056 (-0.16275,0.14997,0.11765) ==
 == 9-th k-point nmo = 1056 (0.00000,-0.14997,-0.11765) ==
 == 10-th k-point nmo = 1056 (0.00000,-0.14997,0.00000) ==
 == 11-th k-point nmo = 1056 (0.00000,-0.14997,0.11765) ==
 == 12-th k-point nmo = 1056 (0.00000,0.00000,-0.11765) ==
 == 13-th k-point nmo = 1056 (0.00000,0.00000,0.00000) ==
 == 14-th k-point nmo = 1056 (0.00000,0.00000,0.11765) ==
 == 15-th k-point nmo = 1056 (0.00000,0.14997,-0.11765) ==
 == 16-th k-point nmo = 1056 (0.00000,0.14997,0.00000) ==
 == 17-th k-point nmo = 1056 (0.00000,0.14997,0.11765) ==
 == 18-th k-point nmo = 1056 (0.16275,-0.14997,-0.11765) ==
 == 19-th k-point nmo = 1056 (0.16275,-0.14997,0.00000) ==
 == 20-th k-point nmo = 1056 (0.16275,-0.14997,0.11765) ==
 == 21-th k-point nmo = 1056 (0.16275,0.00000,-0.11765) ==
 == 22-th k-point nmo = 1056 (0.16275,0.00000,0.00000) ==
 == 23-th k-point nmo = 1056 (0.16275,0.00000,0.11765) ==
 == 24-th k-point nmo = 1056 (0.16275,0.14997,-0.11765) ==
 == 25-th k-point nmo = 1056 (0.16275,0.14997,0.00000) ==
 == 26-th k-point nmo = 1056 (0.16275,0.14997,0.11765) ==

 Generate autoSAD guess
backing up fragment data
Atom # 0: c, charge: 0, multiplicity: 3.000000
Atom # 1: h, charge: 0, multiplicity: 2.000000
writing autosad to fragment context
Settings for isolated fragments: 
  frgm_gamma: TRUE
  frgm_center: FALSE

    Running SCF for isolated atom #0
    Fragment Input file: /n/netscratch/joonholee_lab/Lab/hieudinh//benzene_crystal_ccpvtz_omega_0.4_333.scratch20250917094835/autosad_frgmt_0/frgmt_input.in
    Fragment Output file: /n/netscratch/joonholee_lab/Lab/hieudinh//benzene_crystal_ccpvtz_omega_0.4_333.scratch20250917094835/autosad_frgmt_0/frgmt_job.out
    Fragment job begins at Wed Sep 17 09:49:36 2025

 Integrated density by DFT XC:
   Numerical integral  =     6.000000028259
   Relative error      =     0.0000004710 %
Final energy components:
 DFT Correlation                 Energy =  -0.14423436613719
 DFT Exchange                    Energy =  -5.01556255857454
 Empirical Dispersion Correction Energy =   0.00000000000000
 Kinetic (alpha)                 Energy =  20.06581750680112
 Kinetic (beta)                  Energy =  17.48562660964290
 Nuclear Attraction (alpha)      Energy = -48.76912397723522
 Nuclear Attraction (beta)       Energy = -39.23746533565851
 Nuclear Repulsion               Energy =   0.00000000000000
 SEOQF                           Energy =  -0.00000000043259
 Total Coulomb                   Energy =  17.82001854964348
----------------------------------------------
    SCF Energy: -37.7949235720
   Total fragment job time:  0.63 s.
    Running SCF for isolated atom #1
    Fragment Input file: /n/netscratch/joonholee_lab/Lab/hieudinh//benzene_crystal_ccpvtz_omega_0.4_333.scratch20250917094835/autosad_frgmt_1/frgmt_input.in
    Fragment Output file: /n/netscratch/joonholee_lab/Lab/hieudinh//benzene_crystal_ccpvtz_omega_0.4_333.scratch20250917094835/autosad_frgmt_1/frgmt_job.out
    Fragment job begins at Wed Sep 17 09:49:37 2025

 Integrated density by DFT XC:
   Numerical integral  =     1.000000000312
   Relative error      =     0.0000000312 %
Final energy components:
 DFT Correlation                 Energy =  -0.00568454171571
 DFT Exchange                    Energy =  -0.30207112713322
 Empirical Dispersion Correction Energy =   0.00000000000000
 Kinetic (alpha)                 Energy =   0.49678953465410
 Kinetic (beta)                  Energy =   0.00000000000000
 Nuclear Attraction (alpha)      Energy =  -0.99587214033245
 Nuclear Attraction (beta)       Energy =   0.00000000000000
 Nuclear Repulsion               Energy =   0.00000000000000
 SEOQF                           Energy =  -0.00000000000000
 Total Coulomb                   Energy =   0.30725039235798
----------------------------------------------
    SCF Energy: -0.4995878822
   Total fragment job time:  0.34 s.
restoring fragment data

 ------------------------------------------------------------------------
 Allocate 1445297040 B from available memory: 1048090419936 B
 Time for generating SCF guess: 1.69 s

 Allocate 2052136 B from available memory: 1046645122912 B
 Selected algorithms for each term:
  kpts_dftd3 -> @0x14814467c740
  kpts_kinetic -> @0x14814467c680
  kpts_nn -> @0x14814467c800
  kpts_rij_bigmem -> @0x14814467c3e0
  kpts_vnuc_df -> @0x14814467c380
  kpts_xc -> @0x14814467c2c0

 Time for computing kinetic matrix is 10.68 s
Start calculating Vnuc CC type!
 Time for computing nuclear attraction matrix is 17.65 s
Compute (P|Q) and solve linear equation on the fly!
Maximum distance between P and Q is 30.66614665213823
Number of images for (P|Qn) is 173
 Time for computing 2e2c SR integral without init time is 1.89 s
 Time for computing 2e2c SR integral is 2.00 s
Maximum dynamic memory per thread for 2e3c SR integrals: 0.701 GiB
Batch size for basis function pair is 475344 out of 475344
 === bvk cell = 0 has 70.766 % of the basis function pairs === 
 === bvk cell = 1 has 16.957 % of the basis function pairs === 
 === bvk cell = 2 has 17.284 % of the basis function pairs === 
 === bvk cell = 3 has 24.054 % of the basis function pairs === 
 === bvk cell = 4 has 5.058 % of the basis function pairs === 
 === bvk cell = 5 has 5.921 % of the basis function pairs === 
 === bvk cell = 6 has 24.445 % of the basis function pairs === 
 === bvk cell = 7 has 6.091 % of the basis function pairs === 
 === bvk cell = 8 has 5.080 % of the basis function pairs === 
 === bvk cell = 9 has 28.110 % of the basis function pairs === 
 === bvk cell = 10 has 6.635 % of the basis function pairs === 
 === bvk cell = 11 has 6.378 % of the basis function pairs === 
 === bvk cell = 12 has 9.465 % of the basis function pairs === 
 === bvk cell = 13 has 1.469 % of the basis function pairs === 
 === bvk cell = 14 has 2.195 % of the basis function pairs === 
 === bvk cell = 15 has 8.287 % of the basis function pairs === 
 === bvk cell = 16 has 2.084 % of the basis function pairs === 
 === bvk cell = 17 has 1.607 % of the basis function pairs === 
 === bvk cell = 18 has 28.490 % of the basis function pairs === 
 === bvk cell = 19 has 6.390 % of the basis function pairs === 
 === bvk cell = 20 has 6.758 % of the basis function pairs === 
 === bvk cell = 21 has 8.240 % of the basis function pairs === 
 === bvk cell = 22 has 1.696 % of the basis function pairs === 
 === bvk cell = 23 has 1.972 % of the basis function pairs === 
 === bvk cell = 24 has 9.892 % of the basis function pairs === 
 === bvk cell = 25 has 2.354 % of the basis function pairs === 
 === bvk cell = 26 has 1.538 % of the basis function pairs === 
Static memory requirement for 2e3c SR integrals: 28.648 GB
There are 1 munu batches for computing 2e3c SR integrals with latsum
There are 42 Q batches for computing 2e3c SR integrals with latsum
 Time for computing 2e3c SR integral (CC) is 148.18 s
 Time for RI-J this SCF iteration is 159.21 s
 Time for RI-J this SCF iteration is 9.68 s
 ----------------------------------------------
 Guess energy: -927.5024052783
 ----------------------------------------------
 Guess energy components:
 D3 correction      Energy =  -0.12328073067621
 DFT Correlation    Energy =  -5.57498821092428
 DFT Exchange       Energy = -134.73524734338505
 Kinetic            Energy = 936.12998784972569
 Nuclear Attraction Energy = -1962.20243517850440
 Nuclear Repulsion  Energy = -128.08132826085716
 Total Coulomb      Energy = 367.08488659634213
 ----------------------------------------------
  Cycle       Energy        RMS Gradient
 ----------------------------------------------
 Time for RI-J this SCF iteration is 8.39 s
    1    -927.6508629746      1.47e-01   Descent step
 Energy components after cycle 1:
 D3 correction      Energy =  -0.12328073067621
 DFT Correlation    Energy =  -5.56838613699995
 DFT Exchange       Energy = -134.48431535185887
 Kinetic            Energy = 934.55555892279335
 Nuclear Attraction Energy = -1958.57311650261545
 Nuclear Repulsion  Energy = -128.08132826085716
 Total Coulomb      Energy = 364.62400508556732
 Time for RI-J this SCF iteration is 9.51 s
    2    -927.7800165564      1.31e-01   Descent step
 Energy components after cycle 2:
 D3 correction      Energy =  -0.12328073067621
 DFT Correlation    Energy =  -5.56228917835124
 DFT Exchange       Energy = -134.23325722608823
 Kinetic            Energy = 932.98368166524187
 Nuclear Attraction Energy = -1954.94441375411179
 Nuclear Repulsion  Energy = -128.08132826085716
 Total Coulomb      Energy = 362.18087092841910
 Time for RI-J this SCF iteration is 8.84 s
    3    -927.8903564678      1.14e-01   Descent step
 Energy components after cycle 3:
 D3 correction      Energy =  -0.12328073067621
 DFT Correlation    Energy =  -5.55672555215499
 DFT Exchange       Energy = -133.98197542012389
 Kinetic            Energy = 931.41474501092648
 Nuclear Attraction Energy = -1951.31963475195857
 Nuclear Repulsion  Energy = -128.08132826085716
 Total Coulomb      Energy = 359.75784323703283
 Time for RI-J this SCF iteration is 9.82 s
    4    -927.9823516281      9.59e-02   Descent step
 Energy components after cycle 4:
 D3 correction      Energy =  -0.12328073067621
 DFT Correlation    Energy =  -5.55173860664822
 DFT Exchange       Energy = -133.73039336268513
 Kinetic            Energy = 929.84969497550446
 Nuclear Attraction Energy = -1947.70416314602721
 Nuclear Repulsion  Energy = -128.08132826085716
 Total Coulomb      Energy = 357.35885750329447
 Time for RI-J this SCF iteration is 10.21 s
    5    -928.0564814190      7.72e-02   Descent step
 Energy components after cycle 5:
 D3 correction      Energy =  -0.12328073067621
 DFT Correlation    Energy =  -5.54739607210472
 DFT Exchange       Energy = -133.47850349143789
 Kinetic            Energy = 928.29060873346646
 Nuclear Attraction Energy = -1944.10727405515900
 Nuclear Repulsion  Energy = -128.08132826085716
 Total Coulomb      Energy = 354.99069245779731
 Time for RI-J this SCF iteration is 9.71 s
    6    -928.1132797712      5.60e-02   Descent step
 Energy components after cycle 6:
 D3 correction      Energy =  -0.12328073067621
 DFT Correlation    Energy =  -5.54380907650333
 DFT Exchange       Energy = -133.22650014595001
 Kinetic            Energy = 926.74210421506586
 Nuclear Attraction Energy = -1940.54623240220621
 Nuclear Repulsion  Energy = -128.08132826085716
 Total Coulomb      Energy = 352.66576662996351
 Time for RI-J this SCF iteration is 10.73 s
    7    -928.1534108686      4.04e-02   Descent step
 Energy components after cycle 7:
 D3 correction      Energy =  -0.12328073067621
 DFT Correlation    Energy =  -5.54117307621957
 DFT Exchange       Energy = -132.97516639750614
 Kinetic            Energy = 925.21501063356129
 Nuclear Attraction Energy = -1937.05669106824234
[...]
 0.79809 0.81564 0.81615 0.82154 0.82416 0.82636 0.82937 0.83374 0.83770 0.84392
 0.84987 0.85171 0.85545 0.85989 0.86603 0.87237 0.87424 0.87508 0.87860 0.87991
 0.88272 0.88414 0.89095 0.89843 0.90191 0.91220 0.92049 0.92066 0.92856 0.93306
 0.93750 0.94322 0.94983 0.95278 0.95613 0.95677 0.96224 0.96601 0.96740 0.97283
 0.97500 0.97918 0.98157 0.98463 0.99367 1.00308 1.01105 1.01779 1.02629 1.03111
 1.03175 1.03787 1.04134 1.05095 1.06008 1.06257 1.06861 1.07267 1.07564 1.08212
 1.08230 1.09004 1.09432 1.10286 1.10679 1.11830 1.12708 1.12842 1.13447 1.13823
 1.14537 1.14842 1.15435 1.16132 1.16574 1.17089 1.17345 1.17768 1.18647 1.18999
 1.19725 1.20611 1.20855 1.21183 1.21930 1.21943 1.22199 1.22797 1.22936 1.24087
 1.24267 1.24897 1.25631 1.26513 1.26964 1.27653 1.27810 1.28698 1.29191 1.29485
 1.29804 1.30119 1.30545 1.30903 1.32435 1.32734 1.33009 1.33500 1.33752 1.34760
 1.34969 1.35422 1.35769 1.37200 1.37581 1.38044 1.38938 1.39482 1.39757 1.40046
 1.40742 1.41013 1.41101 1.41783 1.42250 1.42740 1.43150 1.43489 1.44367 1.45014
 1.46059 1.46507 1.47536 1.47669 1.48368 1.48413 1.48955 1.49229 1.50165 1.50507
 1.51006 1.51485 1.51616 1.52526 1.52620 1.53345 1.53533 1.54424 1.55185 1.55534
 1.55976 1.56116 1.57175 1.57359 1.57892 1.58935 1.59178 1.59352 1.59889 1.60337
 1.60827 1.61213 1.61415 1.62182 1.62698 1.63021 1.63469 1.64001 1.64234 1.65007
 1.65168 1.65614 1.65729 1.67071 1.67376 1.67789 1.68487 1.68969 1.69046 1.70309
 1.70436 1.71789 1.72653 1.72830 1.73905 1.74949 1.75676 1.76098 1.76550 1.76563
 1.77264 1.78278 1.79141 1.79764 1.79871 1.81648 1.83498 1.83738 1.84263 1.84660
 1.85873 1.86878 1.86881 1.89096 1.89178 1.90613 1.90862 1.91123 1.92404 1.92456
 1.93523 1.95665 1.96176 1.97111 1.97317 1.97895 1.98083 2.00154 2.00380 2.01077
 2.01749 2.02500 2.04278 2.04674 2.06742 2.07170 2.07335 2.08004 2.09911 2.10508
 2.11538 2.12809 2.15164 2.15285 2.16737 2.18060 2.18785 2.18993 2.19586 2.20642
 2.20846 2.23242 2.23752 2.23920 2.25194 2.26282 2.26608 2.28712 2.30968 2.31423
 2.31987 2.32362 2.33355 2.34481 2.34696 2.35230 2.36494 2.39077 2.39247 2.40474
 2.41497 2.41592 2.42764 2.43239 2.44091 2.44169 2.44923 2.45227 2.46081 2.46827
 2.47912 2.48756 2.50057 2.50232 2.51649 2.51845 2.52127 2.52337 2.53423 2.54270
 2.56121 2.56995 2.57219 2.57417 2.58308 2.58685 2.59189 2.59734 2.61412 2.61623
 2.62259 2.62499 2.63391 2.63964 2.65512 2.66015 2.67198 2.68764 2.70000 2.70268
 2.70800 2.71382 2.72888 2.73164 2.73988 2.74727 2.75322 2.75376 2.75782 2.76545
 2.76855 2.77591 2.78763 2.79151 2.79327 2.80138 2.80264 2.80440 2.81209 2.81516
 2.82049 2.82200 2.82239 2.82519 2.83712 2.85072 2.85566 2.85649 2.85796 2.86514
 2.86659 2.87081 2.87390 2.87710 2.88117 2.89118 2.89164 2.89615 2.89970 2.89996
 2.90798 2.91118 2.91313 2.91714 2.92483 2.93050 2.93422 2.94433 2.94779 2.95278
 2.95532 2.95713 2.95875 2.96843 2.97250 2.97271 2.98068 2.98166 2.98175 2.99501
 2.99928 3.00430 3.00636 3.01085 3.01499 3.01790 3.02242 3.02676 3.03075 3.03093
 3.03720 3.03859 3.04626 3.05050 3.05577 3.05872 3.06457 3.07263 3.07455 3.09106
 3.09224 3.09342 3.10256 3.11054 3.11629 3.12649 3.12812 3.13473 3.14543 3.14561
 3.14759 3.15180 3.15399 3.16536 3.16784 3.17711 3.18246 3.18448 3.18912 3.19123
 3.19698 3.20199 3.20370 3.20708 3.20905 3.21028 3.21082 3.22263 3.22264 3.22491
 3.22781 3.23355 3.23389 3.23974 3.24072 3.24769 3.25025 3.25155 3.25715 3.25914
 3.26587 3.26752 3.27130 3.27323 3.27815 3.27879 3.28102 3.28763 3.28967 3.29305
 3.30066 3.30181 3.31274 3.31319 3.31678 3.32410 3.32413 3.32845 3.33531 3.34282
 3.34320 3.34641 3.35239 3.35982 3.36089 3.36485 3.37606 3.38344 3.38834 3.39421
 3.40941 3.41204 3.41222 3.41784 3.42418 3.43157 3.43276 3.43397 3.44686 3.45219
 3.45394 3.45554 3.46481 3.46752 3.47194 3.47354 3.48178 3.48296 3.48737 3.48811
 3.49849 3.50221 3.51129 3.52560 3.52654 3.53363 3.53418 3.54005 3.54570 3.55072
 3.55693 3.56264 3.56612 3.57239 3.57436 3.58374 3.58392 3.59125 3.60122 3.60878
 3.60985 3.61236 3.61860 3.62353 3.63269 3.63412 3.63706 3.65401 3.65685 3.65964
 3.66500 3.66703 3.66891 3.67858 3.67971 3.68757 3.69177 3.69265 3.70406 3.70895
 3.71138 3.71443 3.72396 3.73014 3.73885 3.74591 3.74728 3.75114 3.75443 3.75996
 3.76923 3.78349 3.78527 3.79754 3.81054 3.82483 3.82546 3.83732 3.83979 3.84575
 3.84766 3.86394 3.86613 3.87005 3.88081 3.88822 3.89681 3.89706 3.89894 3.90165
 3.90484 3.91527 3.91756 3.92128 3.92572 3.93010 3.93242 3.93432 3.93702 3.93941
 3.94635 3.94780 3.95301 3.95835 3.95927 3.97051 3.97054 3.97279 3.97937 3.98304
 3.99159 3.99908 4.00195 4.01409 4.01483 4.01788 4.02113 4.02520 4.03052 4.04024
 4.04388 4.04675 4.04883 4.05293 4.05792 4.05999 4.06734 4.06979 4.07453 4.08030
 4.08646 4.08778 4.09132 4.09232 4.09707 4.10329 4.10824 4.10879 4.12477 4.13854
 4.14250 4.14675 4.16798 4.17341 4.17525 4.18342 4.18456 4.19750 4.20219 4.21028
 4.21688 4.21960 4.22265 4.22344 4.22391 4.23284 4.24638 4.25822 4.26114 4.26649
 4.27023 4.27700 4.28246 4.28279 4.29010 4.29285 4.30198 4.31685 4.32104 4.32712
 4.33048 4.33858 4.34840 4.35204 4.35307 4.35905 4.36737 4.36767 4.37140 4.38115
 4.38357 4.38736 4.39416 4.39886 4.40279 4.40342 4.41296 4.41351 4.41963 4.42522
 4.43393 4.43405 4.43780 4.44413 4.44599 4.45374 4.45474 4.45819 4.46151 4.46540
 4.47413 4.47964 4.48658 4.49097 4.49293 4.49729 4.50147 4.50490 4.50957 4.51011
 4.51801 4.52224 4.52810 4.52829 4.53417 4.53751 4.53940 4.54794 4.55317 4.56147
 4.56409 4.56998 4.57775 4.58591 4.59462 4.60678 4.60926 4.61500 4.63174 4.63933
 4.64803 4.65273 4.65654 4.65784 4.66333 4.66690 4.67471 4.67803 4.67986 4.69185
 4.69774 4.71528 4.73176 4.73851 4.75061 4.77539 4.78102 4.79832 4.81928 4.82217
 4.83035 4.83061 4.83963 4.84372 4.85258 4.85292 4.85694 4.85949 4.88465 4.89420
 4.89488 4.89667 4.89762 4.90434 4.90971 4.91450 4.91563 4.91781 4.92048 4.92432
 4.94081 4.94266 4.94441 4.94958 4.95912 4.96819 4.97436 4.97721 4.97971 5.00929
 5.02119 5.02268 5.02864 5.03762 5.04645 5.04992 5.05291 5.06920 5.07826 5.08928
 5.09824 5.10758 5.11124 5.13388 5.16482 5.16584 5.16786 5.17001 5.17649 5.17723
 5.18017 5.18081 5.18668 5.19145 5.20768 5.21504 5.21691 5.23413 5.23646 5.25892
 5.29740 5.30367 5.31149 5.31568 5.31670 5.32534 5.33728 5.33898 5.37402 5.38329
 5.38593 5.40766 5.41582 5.41873 5.42160 5.43594 5.43635 5.46611 5.47417 5.48543
 5.57899 5.58252 5.59140 5.59504 5.68045 5.68053 5.68838 5.69477 5.72993 5.74547
 5.76433 5.76666 5.84846 5.85228 5.87138 5.87274 5.88108 5.89099 5.89679 5.90042
 5.99289 5.99394 6.01401 6.01787 6.11537 6.11877 6.13412 6.13489 6.15490 6.16514
 6.17279 6.17397 6.18879 6.20648 6.20991 6.21241 6.28287 6.28477 6.28722 6.29076
 6.30131 6.30467 6.30664 6.31060 6.72414 6.72969 6.73126 6.73382 7.03260 7.03514
 7.03535 7.04023 10.41374 10.49262 10.68582 11.04198 12.86390 12.89047 12.98349 12.98869
 13.04762 13.15957 13.18813 13.19324 13.51576 13.57483 13.61730 13.64964 13.82419 13.84010
 13.85934 14.03926 16.10564 16.12413 16.15095 16.19716
 == 26-th k-point (0.16275,0.14997,0.11765) occupation: 84==
 -9.68237 -9.68237 -9.68237 -9.68237 -9.68235 -9.68235 -9.68234 -9.68234 -9.68201 -9.68201
 -9.68201 -9.68201 -9.68194 -9.68194 -9.68193 -9.68193 -9.68062 -9.68062 -9.68062 -9.68062
 -9.68061 -9.68061 -9.68061 -9.68060 -0.57357 -0.57264 -0.57203 -0.57192 -0.47237 -0.47120
 -0.47085 -0.47057 -0.46721 -0.46672 -0.46621 -0.46585 -0.33918 -0.33857 -0.33798 -0.33720
 -0.33324 -0.33265 -0.33236 -0.33119 -0.26838 -0.26394 -0.26373 -0.26129 -0.20399 -0.20227
 -0.20060 -0.19907 -0.19182 -0.19136 -0.19119 -0.19098 -0.17591 -0.17543 -0.17463 -0.17110
 -0.16060 -0.15951 -0.15765 -0.15634 -0.12776 -0.12515 -0.12144 -0.12002 -0.09747 -0.09645
 -0.09553 -0.09469 -0.08801 -0.08615 -0.08520 -0.08423 -0.03056 -0.02942 -0.02779 -0.02664
 -0.02455 -0.02262 -0.02057 -0.01987 0.15225 0.15266 0.15505 0.15609 0.16801 0.16949
 0.17207 0.17338 0.22775 0.24444 0.24991 0.25067 0.26087 0.26622 0.26995 0.27795
 0.29278 0.29479 0.30091 0.30218 0.30467 0.31164 0.32115 0.32393 0.32753 0.33367
 0.34396 0.35117 0.35503 0.36785 0.37358 0.37542 0.37846 0.38289 0.39384 0.39488
 0.40357 0.40610 0.41182 0.41591 0.42211 0.42761 0.43032 0.43704 0.44676 0.44841
 0.44927 0.45086 0.45817 0.46333 0.46533 0.47162 0.48236 0.48796 0.49990 0.50177
 0.50443 0.50735 0.51384 0.51671 0.51817 0.52169 0.53411 0.53952 0.54550 0.54879
 0.55009 0.55835 0.57047 0.57753 0.58313 0.59271 0.59765 0.60057 0.60700 0.61339
 0.61533 0.62639 0.63242 0.63686 0.63970 0.64404 0.64996 0.65091 0.65919 0.66214
 0.66922 0.67153 0.67480 0.68150 0.68428 0.68482 0.69066 0.69668 0.70395 0.70444
 0.71002 0.71082 0.71992 0.72218 0.72574 0.73362 0.74176 0.74795 0.75224 0.75966
 0.76626 0.76995 0.77257 0.77803 0.78090 0.78241 0.78556 0.78849 0.79091 0.79546
 0.80026 0.80602 0.81036 0.81646 0.81783 0.82268 0.83163 0.83471 0.84103 0.84454
 0.84930 0.85404 0.86072 0.86221 0.86415 0.86603 0.86762 0.87936 0.88475 0.88716
 0.89216 0.89438 0.90197 0.90722 0.91024 0.91228 0.92215 0.92645 0.92754 0.93220
 0.93309 0.93683 0.94294 0.94315 0.95202 0.95809 0.96125 0.96556 0.97121 0.97311
 0.97807 0.98126 0.98821 0.99558 0.99711 1.00677 1.01143 1.01838 1.02253 1.02925
 1.02965 1.04208 1.04515 1.05179 1.05693 1.06008 1.06557 1.07148 1.07531 1.08500
 1.08976 1.09247 1.09789 1.10133 1.10372 1.10919 1.11631 1.12181 1.13122 1.13291
 1.14141 1.14446 1.14776 1.15911 1.16302 1.16654 1.17037 1.17619 1.18231 1.18307
 1.19326 1.19640 1.20037 1.20807 1.21137 1.21491 1.21959 1.22125 1.22909 1.23438
 1.24337 1.24430 1.25493 1.26218 1.27031 1.27900 1.28229 1.28673 1.29432 1.29944
 1.30113 1.30736 1.31297 1.31712 1.32124 1.32631 1.32881 1.33126 1.33957 1.34439
 1.34960 1.35625 1.36024 1.36579 1.37549 1.37996 1.38212 1.38839 1.39599 1.40670
 1.40818 1.42025 1.42323 1.42985 1.43116 1.43321 1.44320 1.44737 1.45286 1.45832
 1.46352 1.46448 1.47126 1.47849 1.48104 1.48924 1.49085 1.49351 1.50258 1.50916
 1.51143 1.51711 1.52334 1.52695 1.52829 1.53652 1.53819 1.54311 1.55398 1.55758
 1.56058 1.56296 1.56576 1.56982 1.57410 1.57874 1.58320 1.58959 1.59083 1.59358
 1.60305 1.60534 1.60805 1.61859 1.62322 1.62846 1.63617 1.64001 1.64881 1.65267
 1.65504 1.65792 1.66451 1.66801 1.67405 1.67719 1.68254 1.68887 1.69196 1.70109
 1.70850 1.71360 1.72211 1.72990 1.73220 1.73741 1.74564 1.75157 1.76641 1.77180
 1.77723 1.78279 1.78649 1.79018 1.80475 1.81140 1.81584 1.81802 1.82734 1.83652
 1.85895 1.86344 1.87088 1.87332 1.88371 1.90398 1.90822 1.92123 1.92794 1.93385
 1.94009 1.94394 1.95203 1.96028 1.97566 1.98229 1.99212 1.99291 2.00799 2.01974
 2.03101 2.03331 2.03391 2.04360 2.05250 2.06712 2.07990 2.08896 2.09505 2.10450
 2.11720 2.11792 2.13831 2.14561 2.14937 2.16537 2.18124 2.18555 2.19898 2.20496
 2.21962 2.22970 2.23490 2.24696 2.25211 2.25919 2.28715 2.29580 2.30596 2.31633
 2.31924 2.32362 2.32973 2.35186 2.35428 2.35820 2.36705 2.37704 2.39039 2.39735
 2.40430 2.40959 2.41588 2.42526 2.44408 2.45423 2.45694 2.46276 2.47390 2.48318
 2.48804 2.48949 2.50510 2.50573 2.51023 2.52228 2.52349 2.52752 2.53268 2.53758
 2.54354 2.55328 2.56775 2.56941 2.57574 2.58345 2.58661 2.59409 2.61543 2.61917
 2.62583 2.63691 2.64410 2.64998 2.65452 2.67073 2.67688 2.68815 2.69094 2.69802
 2.70589 2.71103 2.71879 2.73031 2.74061 2.74839 2.75280 2.75589 2.76726 2.76909
 2.77228 2.78133 2.78405 2.78529 2.79206 2.79651 2.80574 2.81045 2.81306 2.81579
 2.81977 2.82492 2.82957 2.83247 2.83832 2.84284 2.84706 2.84814 2.85204 2.85435
 2.85940 2.86570 2.87368 2.87990 2.88377 2.88938 2.89789 2.89892 2.90514 2.90875
 2.91267 2.91783 2.92348 2.92654 2.92876 2.93185 2.93452 2.94113 2.94375 2.95110
 2.95461 2.95737 2.96384 2.96797 2.97059 2.97303 2.97924 2.98709 2.99186 2.99283
 2.99664 3.00064 3.00393 3.00698 3.01214 3.01715 3.02229 3.02655 3.02915 3.03371
 3.04114 3.04260 3.04664 3.05291 3.06511 3.07040 3.07309 3.07682 3.08578 3.09283
 3.09468 3.09999 3.10272 3.11249 3.11306 3.12492 3.12640 3.13066 3.13442 3.14003
 3.14745 3.15615 3.15969 3.16153 3.16522 3.16844 3.17329 3.18281 3.18469 3.19132
 3.19459 3.19689 3.19834 3.20507 3.21123 3.21303 3.21666 3.21904 3.22419 3.22596
 3.22798 3.23135 3.23456 3.23689 3.23795 3.24590 3.24981 3.25133 3.25320 3.25373
 3.26143 3.26249 3.26764 3.27126 3.27524 3.27901 3.28033 3.28358 3.28652 3.29001
 3.29254 3.29477 3.30191 3.30683 3.31034 3.31635 3.32328 3.33286 3.33760 3.34004
 3.34237 3.35329 3.35617 3.35999 3.36284 3.37408 3.38037 3.38643 3.39279 3.39705
 3.40205 3.40530 3.41039 3.41718 3.41959 3.42738 3.43341 3.43660 3.43824 3.44202
 3.45375 3.45672 3.45958 3.46510 3.46801 3.47066 3.47539 3.48377 3.49224 3.49781
 3.50096 3.50721 3.51506 3.51944 3.52030 3.53310 3.53628 3.54161 3.54580 3.55220
 3.55743 3.55961 3.56368 3.57080 3.57351 3.57791 3.58873 3.59339 3.59821 3.60306
 3.61194 3.61460 3.62165 3.62481 3.63045 3.63767 3.64085 3.65636 3.65897 3.66131
 3.66993 3.67538 3.67830 3.68034 3.68755 3.69175 3.69757 3.69953 3.70471 3.71318
 3.71484 3.71977 3.72208 3.72917 3.73918 3.75286 3.75876 3.76648 3.76825 3.77871
 3.77996 3.78673 3.79040 3.79797 3.80956 3.81218 3.82513 3.82897 3.83854 3.84081
 3.84870 3.85379 3.86284 3.87975 3.88256 3.88610 3.89014 3.89694 3.89920 3.90224
 3.90437 3.90984 3.91183 3.92203 3.92317 3.92579 3.92953 3.93212 3.93327 3.93728
 3.94190 3.94795 3.94938 3.95043 3.95259 3.96027 3.96828 3.97066 3.97722 3.98683
 3.99092 3.99591 4.00052 4.00385 4.01041 4.01484 4.01862 4.02463 4.02809 4.03824
 4.04157 4.04225 4.05224 4.05482 4.05815 4.05994 4.06238 4.07243 4.07497 4.08038
 4.08407 4.08798 4.09032 4.09811 4.10858 4.11315 4.11719 4.12552 4.12950 4.13103
 4.14370 4.14527 4.17025 4.17474 4.17745 4.18128 4.18600 4.19584 4.19935 4.20391
 4.20788 4.21610 4.22423 4.23262 4.23379 4.24081 4.24314 4.25127 4.25835 4.26679
 4.27474 4.28424 4.28740 4.29624 4.29797 4.30399 4.30756 4.31032 4.31842 4.32706
 4.32867 4.33446 4.33830 4.34775 4.34994 4.35403 4.36785 4.37112 4.37796 4.37957
 4.38320 4.39402 4.39702 4.39894 4.39999 4.40628 4.41081 4.41775 4.42503 4.43298
 4.43597 4.43837 4.44369 4.44554 4.44677 4.44979 4.45318 4.45467 4.45839 4.46615
 4.47012 4.47586 4.48311 4.48830 4.49360 4.49748 4.49899 4.50128 4.50687 4.51658
 4.52068 4.52574 4.52735 4.53011 4.53411 4.53898 4.54285 4.54920 4.55234 4.55718
 4.56893 4.57139 4.57564 4.58008 4.58748 4.60011 4.60623 4.61567 4.62374 4.63180
 4.63319 4.64376 4.64746 4.65093 4.65281 4.65786 4.67306 4.67423 4.68134 4.68805
 4.69353 4.70441 4.73901 4.74538 4.75687 4.76264 4.78399 4.79275 4.80719 4.81380
 4.83216 4.84053 4.84785 4.85236 4.85261 4.85633 4.85766 4.86634 4.88474 4.88831
 4.89394 4.89921 4.90256 4.90560 4.90770 4.91164 4.91926 4.92091 4.93094 4.93272
 4.93558 4.94086 4.94418 4.94971 4.95506 4.96124 4.96372 4.97096 4.98156 4.99623
 5.00351 5.02039 5.02554 5.03543 5.03879 5.04589 5.06184 5.06474 5.06798 5.08444
 5.11268 5.12193 5.12306 5.13089 5.16272 5.16489 5.16609 5.16998 5.17798 5.18262
 5.18394 5.18865 5.20299 5.21086 5.21468 5.21691 5.22315 5.23178 5.23481 5.24812
 5.29709 5.30334 5.30716 5.31574 5.32450 5.33291 5.33706 5.34233 5.37575 5.38552
 5.38640 5.40256 5.41733 5.42397 5.42951 5.43649 5.44571 5.46174 5.46382 5.47433
 5.58441 5.58755 5.59108 5.59315 5.68685 5.69116 5.69368 5.70077 5.73874 5.75578
 5.75866 5.77457 5.84773 5.85572 5.86246 5.86896 5.88665 5.88734 5.89135 5.89824
 5.98992 5.99785 6.00356 6.00886 6.12044 6.12206 6.13611 6.14271 6.15720 6.16772
 6.17622 6.17874 6.18703 6.19695 6.20566 6.21767 6.28035 6.28367 6.28575 6.28803
 6.30328 6.30520 6.31093 6.31449 6.71250 6.71519 6.71997 6.72559 7.03324 7.03408
 7.03486 7.03768 10.34881 10.42103 10.70444 10.88079 12.84407 12.91421 12.97380 13.04639
 13.05737 13.09958 13.19049 13.20427 13.55268 13.56930 13.61146 13.62218 13.84311 13.86561
 13.90736 13.99299 16.11863 16.14501 16.15426 16.18870
 ---------------------------------------------------------------------------
 VBM is at 13-th k-point with -0.35129 eV
 CBM is at 13-th k-point with 4.12640 eV
 Band gap is 4.47769 eV


           Ground-State Mulliken Net Atomic Charges

      Atom                 Charge (a.u.)          Spin (a.u.)
   --------------------------------------------------------
      1  C              (-0.197817,-0.000000)    (0.000000,0.000000)
      2  C              (-0.197823,-0.000000)    (0.000000,0.000000)
      3  C              (-0.197812,-0.000000)    (0.000000,0.000000)
      4  C               (-0.197812,0.000000)    (0.000000,0.000000)
      5  C              (-0.197812,-0.000000)    (0.000000,0.000000)
      6  C              (-0.197810,-0.000000)    (0.000000,0.000000)
      7  C              (-0.197815,-0.000000)    (0.000000,0.000000)
      8  C              (-0.197819,-0.000000)    (0.000000,0.000000)
      9  C               (-0.040431,0.000000)    (0.000000,0.000000)
     10  C               (-0.040452,0.000000)    (0.000000,0.000000)
     11  C               (-0.040442,0.000000)    (0.000000,0.000000)
     12  C               (-0.040438,0.000000)    (0.000000,0.000000)
     13  C              (-0.040444,-0.000000)    (0.000000,0.000000)
     14  C              (-0.040438,-0.000000)    (0.000000,0.000000)
     15  C               (-0.040435,0.000000)    (0.000000,0.000000)
     16  C              (-0.040451,-0.000000)    (0.000000,0.000000)
     17  C               (-0.126279,0.000000)    (0.000000,0.000000)
     18  C              (-0.126272,-0.000000)    (0.000000,0.000000)
     19  C               (-0.126275,0.000000)    (0.000000,0.000000)
     20  C              (-0.126274,-0.000000)    (0.000000,0.000000)
     21  C              (-0.126280,-0.000000)    (0.000000,0.000000)
     22  C              (-0.126277,-0.000000)    (0.000000,0.000000)
     23  C              (-0.126283,-0.000000)    (0.000000,0.000000)
     24  C               (-0.126274,0.000000)    (0.000000,0.000000)
     25  H                (0.134563,0.000000)    (0.000000,0.000000)
     26  H                (0.134565,0.000000)    (0.000000,0.000000)
     27  H               (0.134563,-0.000000)    (0.000000,0.000000)
     28  H               (0.134562,-0.000000)    (0.000000,0.000000)
     29  H               (0.134563,-0.000000)    (0.000000,0.000000)
     30  H               (0.134563,-0.000000)    (0.000000,0.000000)
     31  H               (0.134563,-0.000000)    (0.000000,0.000000)
     32  H               (0.134564,-0.000000)    (0.000000,0.000000)
     33  H                (0.107246,0.000000)    (0.000000,0.000000)
     34  H                (0.107252,0.000000)    (0.000000,0.000000)
     35  H                (0.107247,0.000000)    (0.000000,0.000000)
     36  H                (0.107249,0.000000)    (0.000000,0.000000)
     37  H                (0.107248,0.000000)    (0.000000,0.000000)
     38  H                (0.107249,0.000000)    (0.000000,0.000000)
     39  H               (0.107246,-0.000000)    (0.000000,0.000000)
     40  H                (0.107252,0.000000)    (0.000000,0.000000)
     41  H               (0.122722,-0.000000)    (0.000000,0.000000)
     42  H               (0.122721,-0.000000)    (0.000000,0.000000)
     43  H                (0.122721,0.000000)    (0.000000,0.000000)
     44  H               (0.122721,-0.000000)    (0.000000,0.000000)
     45  H               (0.122722,-0.000000)    (0.000000,0.000000)
     46  H                (0.122722,0.000000)    (0.000000,0.000000)
     47  H                (0.122722,0.000000)    (0.000000,0.000000)
     48  H               (0.122721,-0.000000)    (0.000000,0.000000)
   --------------------------------------------------------
  Sum of atomic charges =     (-0.000000,-0.000000)
  Sum of spin   charges =       (0.000000,0.000000)



 Total job time:  4522.62 s.
 Wed Sep 17 11:03:59 2025


        *************************************************************
        *                                                           *
        *  Thank you very much for using QCPBC. Have a nice day.    *
        *                                                           *
        *************************************************************

Running job 1 of 1
