                  Welcome to Q-Chem
           with Periodic Boundary Condition
     A Quantum Leap Into The Future Of Chemistry

 Adam Rettig, Xintian Feng, Meng-Fu Chen, Hieu Dinh, Stephen Quiton,
 Anton Ni, Paul J. Robinson, Jinghong Zhang, Joonho Lee

Contributors to earlier versions of Q-Chem not listed above:
 Evgeny Epifanovsky, Leo Cunha, Jerome F. Gonthier, Kuan-Yu Liu
 Input file: /n/home02/hieudinh/rsdf_test_full_J/benchmark_nocd/benzene/benzene_crystal_ccpvdz_333.in
 Scratch folder: /n/netscratch/joonholee_lab/Lab/hieudinh//nhome02hieudinhrsdf_test_full_Jbenchmark_nocdbenzenebenzene_crystal_ccpvdz_333.scratch20251118190843
 Auxillary files located at: /n/home02/hieudinh/qcpbc/qcaux
 Q-Chem begins on Tue Nov 18 19:08:44 2025

 -------------------------------------------------------------
 User input:
 -------------------------------------------------------------
 $lattice
 3
 6.8100000000 	0.0000000000 	0.0000000000
 0.0000000000 	7.3900000000 	0.0000000000
 0.0000000000 	0.0000000000 	9.4200000000
 $end
 
 $unitcell
 ABSOLUTE
 0 1
  C 	6.7630110000 	6.9414270000 	1.3122060000
  C 	6.7630110000 	4.1435730000 	6.0222060000
  C 	3.3580110000 	6.9414270000 	3.3977940000
  C 	3.3580110000 	4.1435730000 	8.1077940000
  C 	0.0469890000 	0.4485730000 	8.1077940000
  C 	0.0469890000 	3.2464270000 	3.3977940000
  C 	3.4519890000 	0.4485730000 	6.0222060000
  C 	3.4519890000 	3.2464270000 	1.3122060000
  C 	0.8580600000 	6.3723970000 	0.4210740000
  C 	0.8580600000 	4.7126030000 	5.1310740000
  C 	4.2630600000 	6.3723970000 	4.2889260000
  C 	4.2630600000 	4.7126030000 	8.9989260000
  C 	5.9519400000 	1.0176030000 	8.9989260000
  C 	5.9519400000 	2.6773970000 	4.2889260000
  C 	2.5469400000 	1.0176030000 	5.1310740000
  C 	2.5469400000 	2.6773970000 	0.4210740000
  C 	5.9076750000 	0.5690300000 	0.9024360000
  C 	5.9076750000 	3.1259700000 	5.6124360000
  C 	2.5026750000 	0.5690300000 	3.8075640000
  C 	2.5026750000 	3.1259700000 	8.5175640000
  C 	0.9023250000 	6.8209700000 	8.5175640000
  C 	0.9023250000 	4.2640300000 	3.8075640000
  C 	4.3073250000 	6.8209700000 	5.6124360000
  C 	4.3073250000 	4.2640300000 	0.9024360000
  H 	6.7262370000 	6.6170060000 	2.3568840000
  H 	6.7262370000 	4.4679940000 	7.0668840000
  H 	3.3212370000 	6.6170060000 	2.3531160000
  H 	3.3212370000 	4.4679940000 	7.0631160000
  H 	0.0837630000 	0.7729940000 	7.0631160000
  H 	0.0837630000 	2.9220060000 	2.3531160000
  H 	3.4887630000 	0.7729940000 	7.0668840000
  H 	3.4887630000 	2.9220060000 	2.3568840000
  H 	1.5261210000 	5.5735380000 	0.7357020000
  H 	1.5261210000 	5.5114620000 	5.4457020000
  H 	4.9311210000 	5.5735380000 	3.9742980000
  H 	4.9311210000 	5.5114620000 	8.6842980000
  H 	5.2838790000 	1.8164620000 	8.6842980000
  H 	5.2838790000 	1.8785380000 	3.9742980000
  H 	1.8788790000 	1.8164620000 	5.4457020000
  H 	1.8788790000 	1.8785380000 	0.7357020000
  H 	5.2028400000 	1.0131690000 	1.5835020000
  H 	5.2028400000 	2.6818310000 	6.2935020000
  H 	1.7978400000 	1.0131690000 	3.1264980000
  H 	1.7978400000 	2.6818310000 	7.8364980000
  H 	1.6071600000 	6.3768310000 	7.8364980000
  H 	1.6071600000 	4.7081690000 	3.1264980000
  H 	5.0121600000 	6.3768310000 	6.2935020000
  H 	5.0121600000 	4.7081690000 	1.5835020000
 $end
 
 $rem
 jobtype = sp
 method = pbe
 scf_convergence = 5
 scf_guess = autosad
 scf_algorithm = diis_gdm
 basis = gen
 aux_basis = gen
 input_bohr = false
 symmetry = false
 latsum_factor 1.0
 rsdf_print_level 1
 is_basis_uctr = false
 do_nonortho true
 
 mp_mesh = [3,3,3]
 
 integral_direct true
 bvk_cgto true
 
 thresh 14
 mem_total 300000
 threads 32
 
 MAX_SCF_CYCLES 3
 madelung = false
 omega 0.5
 do_rij_bigmem true
 automate_g true
 print_level 10
 grid_type_xc 1
 
 thresh_1e2c_sp 1e-14
 thresh_2e3c_bra_ket_sep 1e-10
 thresh_g 1e-12
 $end
 
 $basis
 H     0
 S   4   1.00
       1.301000D+01           1.968500D-02
       1.962000D+00           1.379770D-01
       4.446000D-01           4.781480D-01
       1.220000D-01           5.012400D-01
 S   4   1.00
       1.301000D+01           0.000000
       1.962000D+00           0.000000
       4.446000D-01           0.000000
       1.220000D-01           1.000000D+00
 P   1   1.00
       7.270000D-01           1.0000000
 ****
 C     0
 S   9   1.00
       6.665000D+03           6.920000D-04
       1.000000D+03           5.329000D-03
       2.280000D+02           2.707700D-02
       6.471000D+01           1.017180D-01
       2.106000D+01           2.747400D-01
       7.495000D+00           4.485640D-01
       2.797000D+00           2.850740D-01
       5.215000D-01           1.520400D-02
       1.596000D-01          -3.191000D-03
 S   9   1.00
       6.665000D+03          -1.460000D-04
       1.000000D+03          -1.154000D-03
       2.280000D+02          -5.725000D-03
       6.471000D+01          -2.331200D-02
       2.106000D+01          -6.395500D-02
       7.495000D+00          -1.499810D-01
       2.797000D+00          -1.272620D-01
       5.215000D-01           5.445290D-01
       1.596000D-01           5.804960D-01
 S   9   1.00
       6.665000D+03           0.000000
       1.000000D+03           0.000000
       2.280000D+02           0.000000
       6.471000D+01           0.000000
       2.106000D+01           0.000000
       7.495000D+00           0.000000
       2.797000D+00           0.000000
       5.215000D-01           0.000000
       1.596000D-01           1.000000D+00
 P   4   1.00
       9.439000D+00           3.810900D-02
       2.002000D+00           2.094800D-01
       5.456000D-01           5.085570D-01
       1.517000D-01           4.688420D-01
 P   4   1.00
       9.439000D+00           0.000000
       2.002000D+00           0.000000
       5.456000D-01           0.000000
       1.517000D-01           1.000000D+00
 D   1   1.00
       5.500000D-01           1.0000000
 ****
 $end
 
 ! cc-pvtz-jkfit
 $aux_basis
 H     0
 S   1   1.00
       9.5302493327           1.0000000
 S   1   1.00
       1.9174506246           1.0000000
 S   1   1.00
       0.68424049142          1.0000000
 S   1   1.00
       0.28413255710          1.0000000
 P   1   1.00
       2.9133232035           1.0000000
 P   1   1.00
       1.2621205398           1.0000000
 P   1   1.00
       0.50199775874          1.0000000
 D   1   1.00
       2.3135329149           1.0000000
 D   1   1.00
       0.71290724024          1.0000000
 F   1   1.00
       1.6565726132           1.0000000
 ****
 C     0
 S   1   1.00
    1113.9867719              1.0000000
 S   1   1.00
     369.16234180             1.0000000
 S   1   1.00
     121.79275232             1.0000000
 S   1   1.00
      48.127114540            1.0000000
 S   1   1.00
      20.365074004            1.0000000
 S   1   1.00
       8.0883596856           1.0000000
 S   1   1.00
       2.5068656570           1.0000000
 S   1   1.00
       1.2438537380           1.0000000
 S   1   1.00
       0.48449899601          1.0000000
 S   1   1.00
       0.19185160296          1.0000000
 P   1   1.00
     102.99176249             1.0000000
 P   1   1.00
      28.132594009            1.0000000
 P   1   1.00
       9.8364318173           1.0000000
 P   1   1.00
       3.3490544980           1.0000000
 P   1   1.00
       1.4947618613           1.0000000
 P   1   1.00
       0.57690108899          1.0000000
 P   1   1.00
       0.20320063291          1.0000000
 D   1   1.00
      10.594068356            1.0000000
 D   1   1.00
       3.5997195366           1.0000000
 D   1   1.00
       1.3355691094           1.0000000
 D   1   1.00
       0.51949764954          1.0000000
 D   1   1.00
       0.19954125200          1.0000000
 F   1   1.00
       1.19486633836900000000 1.0000000
 F   1   1.00
        .41586633836900000000 1.0000000
 G   1   1.00
        .85886633836900000000 1.0000000
 ****
 $end
 
 -------------------------------------------------------------
 Running PBC job

 Requested Exchange Correlation Functionals: 
  DFT Exchange:  1.00000 pbe_x
  DFT Correlation:  1.00000 pbe_c
 using 32 threads for computing.
 ---------------------------------------------------------------
      Coordinates of Atoms in Central Unit Cell (Angstroms)
    I     Atom         X            Y            Z
 ---------------------------------------------------------------
    1       C      6.763011     6.941427     1.312206
    2       C      6.763011     4.143573     6.022206
    3       C      3.358011     6.941427     3.397794
    4       C      3.358011     4.143573     8.107794
    5       C      0.046989     0.448573     8.107794
    6       C      0.046989     3.246427     3.397794
    7       C      3.451989     0.448573     6.022206
    8       C      3.451989     3.246427     1.312206
    9       C      0.858060     6.372397     0.421074
   10       C      0.858060     4.712603     5.131074
   11       C      4.263060     6.372397     4.288926
   12       C      4.263060     4.712603     8.998926
   13       C      5.951940     1.017603     8.998926
   14       C      5.951940     2.677397     4.288926
   15       C      2.546940     1.017603     5.131074
   16       C      2.546940     2.677397     0.421074
   17       C      5.907675     0.569030     0.902436
   18       C      5.907675     3.125970     5.612436
   19       C      2.502675     0.569030     3.807564
   20       C      2.502675     3.125970     8.517564
   21       C      0.902325     6.820970     8.517564
   22       C      0.902325     4.264030     3.807564
   23       C      4.307325     6.820970     5.612436
   24       C      4.307325     4.264030     0.902436
   25       H      6.726237     6.617006     2.356884
   26       H      6.726237     4.467994     7.066884
   27       H      3.321237     6.617006     2.353116
   28       H      3.321237     4.467994     7.063116
   29       H      0.083763     0.772994     7.063116
   30       H      0.083763     2.922006     2.353116
   31       H      3.488763     0.772994     7.066884
   32       H      3.488763     2.922006     2.356884
   33       H      1.526121     5.573538     0.735702
   34       H      1.526121     5.511462     5.445702
   35       H      4.931121     5.573538     3.974298
   36       H      4.931121     5.511462     8.684298
   37       H      5.283879     1.816462     8.684298
   38       H      5.283879     1.878538     3.974298
   39       H      1.878879     1.816462     5.445702
   40       H      1.878879     1.878538     0.735702
   41       H      5.202840     1.013169     1.583502
   42       H      5.202840     2.681831     6.293502
   43       H      1.797840     1.013169     3.126498
   44       H      1.797840     2.681831     7.836498
   45       H      1.607160     6.376831     7.836498
   46       H      1.607160     4.708169     3.126498
   47       H      5.012160     6.376831     6.293502
   48       H      5.012160     4.708169     1.583502
 ---------------------------------------------------------------
 --------------------------------------------------
              Lattice Vectors (Angstroms)
              X            Y            Z
 --------------------------------------------------
   X       6.810000     0.000000     0.000000
   Y       0.000000     7.390000     0.000000
   Z       0.000000     0.000000     9.420000
 --------------------------------------------------
 --------------------------------------------------
       Reciprocal Lattice Vectors (Angstroms^-1)
              X            Y            Z
 --------------------------------------------------
   X       0.922641     0.000000     0.000000
   Y       0.000000     0.850228     0.000000
   Z       0.000000     0.000000     0.667005
 --------------------------------------------------

 Single point calculation requested

 Hamiltonian contributions:
 List of terms in Hamiltonian: kpts_nn, kpts_kinetic, kpts_vnuc_df, kpts_xc, kpts_rij_bigmem

 K-Points calculation started.

 Basis set information about using solid harmonic (1) or Cartesian (0):
  h : 
  c : D(1) 

 Basis set information about using solid harmonic (1) or Cartesian (0):
  h : D(1) D(1) F(1) 
  c : D(1) D(1) D(1) D(1) D(1) F(1) F(1) G(1) 

 There are 456 basis functions in the central unit cell.
 Print atomic basis of atoms in the central unit cell:
 -------------------------------------------------------------
48 456 1080 120

  1.27802385678315e+01  1.31173959440827e+01  2.47970995909068e+00
  1.27802385678315e+01  7.83021814739398e+00  1.13803200060781e+01
  6.34572111348071e+00  1.31173959440827e+01  6.42090008789669e+00
  6.34572111348071e+00  7.83021814739398e+00  1.53215101348841e+01
  8.87963408700403e-02  8.47680116901756e-01  1.53215101348841e+01
  8.87963408700403e-02  6.13485791359047e+00  6.42090008789669e+00
  6.52331379522079e+00  8.47680116901756e-01  1.13803200060781e+01
  6.52331379522079e+00  6.13485791359047e+00  2.47970995909068e+00
  1.62149839849639e+00  1.20420850873869e+01  7.95714538200672e-01
  1.62149839849639e+00  8.90552900408978e+00  9.69632458518805e+00
  8.05601585284714e+00  1.20420850873869e+01  8.10489550878671e+00
  8.05601585284714e+00  8.90552900408978e+00  1.70055055557741e+01
  1.12475365102051e+01  1.92299097359756e+00  1.70055055557741e+01
  1.12475365102051e+01  5.05954705689466e+00  8.10489550878671e+00
  4.81301905585436e+00  1.92299097359756e+00  9.69632458518805e+00
  4.81301905585436e+00  5.05954705689466e+00  7.95714538200672e-01
  1.11638877832985e+01  1.07531085669580e+00  1.70535688500278e+00
  1.11638877832985e+01  5.90722717379642e+00  1.06059669319902e+01
  4.72937032894780e+00  1.07531085669580e+00  7.19525316198460e+00
  4.72937032894780e+00  5.90722717379642e+00  1.60958632089720e+01
  1.70514712540295e+00  1.28897652042886e+01  1.60958632089720e+01
  1.70514712540295e+00  8.05784888718802e+00  7.19525316198460e+00
  8.13966457975370e+00  1.28897652042886e+01  1.06059669319902e+01
  8.13966457975370e+00  8.05784888718802e+00  1.70535688500278e+00
  1.27107457793245e+01  1.25043291050055e+01  4.45386526751248e+00
  1.27107457793245e+01  8.44328498647119e+00  1.33544753144999e+01
  6.27622832497372e+00  1.25043291050055e+01  4.44674477947489e+00
  6.27622832497372e+00  8.44328498647119e+00  1.33473548264623e+01
  1.58289129377028e-01  1.46074695597897e+00  1.33473548264623e+01
  1.58289129377028e-01  5.52179107451325e+00  4.44674477947489e+00
  6.59280658372778e+00  1.46074695597897e+00  1.33544753144999e+01
  6.59280658372778e+00  5.52179107451325e+00  4.45386526751248e+00
  2.88395072304001e+00  1.05324603651945e+01  1.39027528933943e+00
  2.88395072304001e+00  1.04151537262822e+01  1.02908853363268e+01
  9.31846817739075e+00  1.05324603651945e+01  7.51033475764795e+00
  9.31846817739075e+00  1.04151537262822e+01  1.64109448046353e+01
  9.98508418566149e+00  3.43261569578998e+00  1.64109448046353e+01
  9.98508418566149e+00  3.54992233470225e+00  7.51033475764795e+00
  3.55056673131074e+00  3.43261569578998e+00  1.02908853363268e+01
  3.55056673131074e+00  3.54992233470225e+00  1.39027528933943e+00
  9.83194267024794e+00  1.91461192796097e+00  2.99238509779716e+00
  9.83194267024794e+00  5.06792610253125e+00  1.18929951447845e+01
  3.39742521589719e+00  1.91461192796097e+00  5.90822494919022e+00
  3.39742521589719e+00  5.06792610253125e+00  1.48088349961776e+01
  3.03709223845355e+00  1.20504641330235e+01  1.48088349961776e+01
  3.03709223845355e+00  8.89714995845319e+00  5.90822494919022e+00
  9.47160969280430e+00  1.20504641330235e+01  1.18929951447845e+01
  9.47160969280430e+00  8.89714995845319e+00  2.99238509779716e+00

  6.66500000000000e+03
  1.00000000000000e+03
  2.28000000000000e+02
  6.47100000000000e+01
  2.10600000000000e+01
  7.49500000000000e+00
  2.79700000000000e+00
  5.21500000000000e-01
  1.59600000000000e-01
  9.43900000000000e+00
  2.00200000000000e+00
  5.45600000000000e-01
  1.51700000000000e-01
  5.50000000000000e-01
  6.66500000000000e+03
  1.00000000000000e+03
  2.28000000000000e+02
  6.47100000000000e+01
  2.10600000000000e+01
  7.49500000000000e+00
  2.79700000000000e+00
  5.21500000000000e-01
  1.59600000000000e-01
  9.43900000000000e+00
  2.00200000000000e+00
  5.45600000000000e-01
  1.51700000000000e-01
  5.50000000000000e-01
  6.66500000000000e+03
  1.00000000000000e+03
  2.28000000000000e+02
  6.47100000000000e+01
  2.10600000000000e+01
  7.49500000000000e+00
  2.79700000000000e+00
  5.21500000000000e-01
  1.59600000000000e-01
  9.43900000000000e+00
  2.00200000000000e+00
  5.45600000000000e-01
  1.51700000000000e-01
  5.50000000000000e-01
  6.66500000000000e+03
  1.00000000000000e+03
  2.28000000000000e+02
  6.47100000000000e+01
  2.10600000000000e+01
  7.49500000000000e+00
  2.79700000000000e+00
  5.21500000000000e-01
  1.59600000000000e-01
  9.43900000000000e+00
  2.00200000000000e+00
  5.45600000000000e-01
  1.51700000000000e-01
  5.50000000000000e-01
  6.66500000000000e+03
  1.00000000000000e+03
  2.28000000000000e+02
  6.47100000000000e+01
  2.10600000000000e+01
  7.49500000000000e+00
  2.79700000000000e+00
  5.21500000000000e-01
  1.59600000000000e-01
  9.43900000000000e+00
  2.00200000000000e+00
  5.45600000000000e-01
  1.51700000000000e-01
  5.50000000000000e-01
  6.66500000000000e+03
  1.00000000000000e+03
  2.28000000000000e+02
  6.47100000000000e+01
  2.10600000000000e+01
  7.49500000000000e+00
  2.79700000000000e+00
  5.21500000000000e-01
  1.59600000000000e-01
  9.43900000000000e+00
  2.00200000000000e+00
  5.45600000000000e-01
  1.51700000000000e-01
  5.50000000000000e-01
  6.66500000000000e+03
  1.00000000000000e+03
  2.28000000000000e+02
  6.47100000000000e+01
  2.10600000000000e+01
  7.49500000000000e+00
  2.79700000000000e+00
  5.21500000000000e-01
  1.59600000000000e-01
  9.43900000000000e+00
  2.00200000000000e+00
  5.45600000000000e-01
  1.51700000000000e-01
  5.50000000000000e-01
  6.66500000000000e+03
  1.00000000000000e+03
  2.28000000000000e+02
  6.47100000000000e+01
  2.10600000000000e+01
  7.49500000000000e+00
  2.79700000000000e+00
  5.21500000000000e-01
  1.59600000000000e-01
  9.43900000000000e+00
  2.00200000000000e+00
  5.45600000000000e-01
  1.51700000000000e-01
  5.50000000000000e-01
  6.66500000000000e+03
  1.00000000000000e+03
  2.28000000000000e+02
  6.47100000000000e+01
  2.10600000000000e+01
  7.49500000000000e+00
  2.79700000000000e+00
  5.21500000000000e-01
  1.59600000000000e-01
  9.43900000000000e+00
  2.00200000000000e+00
  5.45600000000000e-01
  1.51700000000000e-01
  5.50000000000000e-01
  6.66500000000000e+03
  1.00000000000000e+03
  2.28000000000000e+02
  6.47100000000000e+01
  2.10600000000000e+01
  7.49500000000000e+00
  2.79700000000000e+00
  5.21500000000000e-01
  1.59600000000000e-01
  9.43900000000000e+00
  2.00200000000000e+00
  5.45600000000000e-01
  1.51700000000000e-01
  5.50000000000000e-01
  6.66500000000000e+03
  1.00000000000000e+03
  2.28000000000000e+02
  6.47100000000000e+01
  2.10600000000000e+01
  7.49500000000000e+00
  2.79700000000000e+00
  5.21500000000000e-01
  1.59600000000000e-01
  9.43900000000000e+00
  2.00200000000000e+00
  5.45600000000000e-01
  1.51700000000000e-01
  5.50000000000000e-01
  6.66500000000000e+03
  1.00000000000000e+03
  2.28000000000000e+02
  6.47100000000000e+01
  2.10600000000000e+01
  7.49500000000000e+00
  2.79700000000000e+00
  5.21500000000000e-01
  1.59600000000000e-01
  9.43900000000000e+00
  2.00200000000000e+00
  5.45600000000000e-01
  1.51700000000000e-01
  5.50000000000000e-01
  6.66500000000000e+03
  1.00000000000000e+03
  2.28000000000000e+02
  6.47100000000000e+01
  2.10600000000000e+01
  7.49500000000000e+00
  2.79700000000000e+00
  5.21500000000000e-01
  1.59600000000000e-01
  9.43900000000000e+00
  2.00200000000000e+00
  5.45600000000000e-01
  1.51700000000000e-01
  5.50000000000000e-01
  6.66500000000000e+03
  1.00000000000000e+03
  2.28000000000000e+02
  6.47100000000000e+01
  2.10600000000000e+01
  7.49500000000000e+00
  2.79700000000000e+00
  5.21500000000000e-01
  1.59600000000000e-01
  9.43900000000000e+00
  2.00200000000000e+00
  5.45600000000000e-01
  1.51700000000000e-01
  5.50000000000000e-01
  6.66500000000000e+03
  1.00000000000000e+03
  2.28000000000000e+02
  6.47100000000000e+01
  2.10600000000000e+01
  7.49500000000000e+00
  2.79700000000000e+00
  5.21500000000000e-01
  1.59600000000000e-01
  9.43900000000000e+00
  2.00200000000000e+00
  5.45600000000000e-01
  1.51700000000000e-01
  5.50000000000000e-01
  6.66500000000000e+03
  1.00000000000000e+03
  2.28000000000000e+02
  6.47100000000000e+01
  2.10600000000000e+01
  7.49500000000000e+00
  2.79700000000000e+00
  5.21500000000000e-01
  1.59600000000000e-01
  9.43900000000000e+00
  2.00200000000000e+00
  5.45600000000000e-01
  1.51700000000000e-01
  5.50000000000000e-01
  6.66500000000000e+03
  1.00000000000000e+03
  2.28000000000000e+02
  6.47100000000000e+01
  2.10600000000000e+01
  7.49500000000000e+00
  2.79700000000000e+00
  5.21500000000000e-01
  1.59600000000000e-01
  9.43900000000000e+00
  2.00200000000000e+00
  5.45600000000000e-01
  1.51700000000000e-01
  5.50000000000000e-01
  6.66500000000000e+03
  1.00000000000000e+03
  2.28000000000000e+02
  6.47100000000000e+01
  2.10600000000000e+01
  7.49500000000000e+00
  2.79700000000000e+00
  5.21500000000000e-01
  1.59600000000000e-01
  9.43900000000000e+00
  2.00200000000000e+00
  5.45600000000000e-01
  1.51700000000000e-01
  5.50000000000000e-01
  6.66500000000000e+03
  1.00000000000000e+03
  2.28000000000000e+02
  6.47100000000000e+01
  2.10600000000000e+01
  7.49500000000000e+00
  2.79700000000000e+00
  5.21500000000000e-01
  1.59600000000000e-01
  9.43900000000000e+00
  2.00200000000000e+00
  5.45600000000000e-01
  1.51700000000000e-01
  5.50000000000000e-01
  6.66500000000000e+03
  1.00000000000000e+03
  2.28000000000000e+02
  6.47100000000000e+01
  2.10600000000000e+01
  7.49500000000000e+00
  2.79700000000000e+00
  5.21500000000000e-01
  1.59600000000000e-01
  9.43900000000000e+00
  2.00200000000000e+00
  5.45600000000000e-01
  1.51700000000000e-01
  5.50000000000000e-01
  6.66500000000000e+03
  1.00000000000000e+03
  2.28000000000000e+02
  6.47100000000000e+01
  2.10600000000000e+01
  7.49500000000000e+00
  2.79700000000000e+00
  5.21500000000000e-01
  1.59600000000000e-01
  9.43900000000000e+00
  2.00200000000000e+00
  5.45600000000000e-01
  1.51700000000000e-01
  5.50000000000000e-01
  6.66500000000000e+03
  1.00000000000000e+03
  2.28000000000000e+02
  6.47100000000000e+01
  2.10600000000000e+01
  7.49500000000000e+00
  2.79700000000000e+00
  5.21500000000000e-01
  1.59600000000000e-01
  9.43900000000000e+00
  2.00200000000000e+00
  5.45600000000000e-01
  1.51700000000000e-01
  5.50000000000000e-01
  6.66500000000000e+03
  1.00000000000000e+03
  2.28000000000000e+02
  6.47100000000000e+01
  2.10600000000000e+01
  7.49500000000000e+00
  2.79700000000000e+00
  5.21500000000000e-01
  1.59600000000000e-01
  9.43900000000000e+00
  2.00200000000000e+00
  5.45600000000000e-01
  1.51700000000000e-01
  5.50000000000000e-01
  6.66500000000000e+03
  1.00000000000000e+03
  2.28000000000000e+02
  6.47100000000000e+01
  2.10600000000000e+01
  7.49500000000000e+00
  2.79700000000000e+00
  5.21500000000000e-01
  1.59600000000000e-01
  9.43900000000000e+00
  2.00200000000000e+00
  5.45600000000000e-01
  1.51700000000000e-01
  5.50000000000000e-01
  1.30100000000000e+01
  1.96200000000000e+00
  4.44600000000000e-01
  1.22000000000000e-01
  7.27000000000000e-01
  1.30100000000000e+01
  1.96200000000000e+00
  4.44600000000000e-01
  1.22000000000000e-01
  7.27000000000000e-01
  1.30100000000000e+01
  1.96200000000000e+00
  4.44600000000000e-01
  1.22000000000000e-01
  7.27000000000000e-01
  1.30100000000000e+01
  1.96200000000000e+00
  4.44600000000000e-01
  1.22000000000000e-01
  7.27000000000000e-01
  1.30100000000000e+01
  1.96200000000000e+00
  4.44600000000000e-01
  1.22000000000000e-01
  7.27000000000000e-01
  1.30100000000000e+01
  1.96200000000000e+00
  4.44600000000000e-01
  1.22000000000000e-01
  7.27000000000000e-01
  1.30100000000000e+01
  1.96200000000000e+00
  4.44600000000000e-01
  1.22000000000000e-01
  7.27000000000000e-01
  1.30100000000000e+01
  1.96200000000000e+00
  4.44600000000000e-01
  1.22000000000000e-01
  7.27000000000000e-01
  1.30100000000000e+01
  1.96200000000000e+00
  4.44600000000000e-01
  1.22000000000000e-01
  7.27000000000000e-01
  1.30100000000000e+01
  1.96200000000000e+00
  4.44600000000000e-01
  1.22000000000000e-01
  7.27000000000000e-01
  1.30100000000000e+01
  1.96200000000000e+00
  4.44600000000000e-01
  1.22000000000000e-01
  7.27000000000000e-01
  1.30100000000000e+01
  1.96200000000000e+00
  4.44600000000000e-01
  1.22000000000000e-01
  7.27000000000000e-01
  1.30100000000000e+01
  1.96200000000000e+00
  4.44600000000000e-01
  1.22000000000000e-01
  7.27000000000000e-01
  1.30100000000000e+01
  1.96200000000000e+00
  4.44600000000000e-01
  1.22000000000000e-01
  7.27000000000000e-01
  1.30100000000000e+01
  1.96200000000000e+00
  4.44600000000000e-01
  1.22000000000000e-01
  7.27000000000000e-01
  1.30100000000000e+01
  1.96200000000000e+00
  4.44600000000000e-01
  1.22000000000000e-01
  7.27000000000000e-01
  1.30100000000000e+01
  1.96200000000000e+00
  4.44600000000000e-01
  1.22000000000000e-01
  7.27000000000000e-01
  1.30100000000000e+01
  1.96200000000000e+00
  4.44600000000000e-01
  1.22000000000000e-01
  7.27000000000000e-01
  1.30100000000000e+01
  1.96200000000000e+00
  4.44600000000000e-01
  1.22000000000000e-01
  7.27000000000000e-01
  1.30100000000000e+01
  1.96200000000000e+00
  4.44600000000000e-01
  1.22000000000000e-01
  7.27000000000000e-01
  1.30100000000000e+01
  1.96200000000000e+00
  4.44600000000000e-01
  1.22000000000000e-01
  7.27000000000000e-01
  1.30100000000000e+01
  1.96200000000000e+00
  4.44600000000000e-01
  1.22000000000000e-01
  7.27000000000000e-01
  1.30100000000000e+01
  1.96200000000000e+00
  4.44600000000000e-01
  1.22000000000000e-01
  7.27000000000000e-01
  1.30100000000000e+01
  1.96200000000000e+00
  4.44600000000000e-01
  1.22000000000000e-01
  7.27000000000000e-01

  3.63803115996335e-01
  6.75392019985144e-01
  1.13230098456389e+00
  1.65400404378672e+00
  1.92497845800833e+00
  1.44814933271197e+00
  4.39427431056185e-01
  6.64980331679676e-03
 -5.74264109106499e-04
 -7.67561626326749e-02
 -1.46256808411412e-01
 -2.39407035824857e-01
 -3.79069085533774e-01
 -4.48103732793825e-01
 -4.84200525122430e-01
 -1.96168096161407e-01
  2.38161760404015e-01
  1.04468216411947e-01
  0.00000000000000e+00
  0.00000000000000e+00
  0.00000000000000e+00
  0.00000000000000e+00
  0.00000000000000e+00
  0.00000000000000e+00
  0.00000000000000e+00
  0.00000000000000e+00
  1.79963635330801e-01
  8.98721984913738e-01
  7.11071032781435e-01
  3.39917026383906e-01
  6.32701430216626e-02
  0.00000000000000e+00
  0.00000000000000e+00
  0.00000000000000e+00
  1.34949743639293e-01
  5.78154836189229e-01
  3.63803115996335e-01
  6.75392019985144e-01
  1.13230098456389e+00
  1.65400404378672e+00
  1.92497845800833e+00
  1.44814933271197e+00
  4.39427431056185e-01
  6.64980331679676e-03
 -5.74264109106499e-04
 -7.67561626326749e-02
 -1.46256808411412e-01
 -2.39407035824857e-01
 -3.79069085533774e-01
 -4.48103732793825e-01
 -4.84200525122430e-01
 -1.96168096161407e-01
  2.38161760404015e-01
  1.04468216411947e-01
  0.00000000000000e+00
  0.00000000000000e+00
  0.00000000000000e+00
  0.00000000000000e+00
  0.00000000000000e+00
  0.00000000000000e+00
  0.00000000000000e+00
  0.00000000000000e+00
  1.79963635330801e-01
  8.98721984913738e-01
  7.11071032781435e-01
  3.39917026383906e-01
  6.32701430216626e-02
  0.00000000000000e+00
  0.00000000000000e+00
  0.00000000000000e+00
  1.34949743639293e-01
  5.78154836189229e-01
  3.63803115996335e-01
  6.75392019985144e-01
  1.13230098456389e+00
  1.65400404378672e+00
  1.92497845800833e+00
  1.44814933271197e+00
  4.39427431056185e-01
  6.64980331679676e-03
 -5.74264109106499e-04
 -7.67561626326749e-02
 -1.46256808411412e-01
 -2.39407035824857e-01
 -3.79069085533774e-01
 -4.48103732793825e-01
 -4.84200525122430e-01
 -1.96168096161407e-01
  2.38161760404015e-01
  1.04468216411947e-01
  0.00000000000000e+00
  0.00000000000000e+00
  0.00000000000000e+00
  0.00000000000000e+00
  0.00000000000000e+00
  0.00000000000000e+00
  0.00000000000000e+00
  0.00000000000000e+00
  1.79963635330801e-01
  8.98721984913738e-01
  7.11071032781435e-01
  3.39917026383906e-01
  6.32701430216626e-02
  0.00000000000000e+00
  0.00000000000000e+00
  0.00000000000000e+00
  1.34949743639293e-01
  5.78154836189229e-01
  3.63803115996335e-01
  6.75392019985144e-01
  1.13230098456389e+00
  1.65400404378672e+00
  1.92497845800833e+00
  1.44814933271197e+00
  4.39427431056185e-01
  6.64980331679676e-03
 -5.74264109106499e-04
 -7.67561626326749e-02
 -1.46256808411412e-01
 -2.39407035824857e-01
 -3.79069085533774e-01
 -4.48103732793825e-01
 -4.84200525122430e-01
 -1.96168096161407e-01
  2.38161760404015e-01
  1.04468216411947e-01
  0.00000000000000e+00
  0.00000000000000e+00
  0.00000000000000e+00
  0.00000000000000e+00
  0.00000000000000e+00
  0.00000000000000e+00
  0.00000000000000e+00
  0.00000000000000e+00
  1.79963635330801e-01
  8.98721984913738e-01
  7.11071032781435e-01
  3.39917026383906e-01
  6.32701430216626e-02
  0.00000000000000e+00
  0.00000000000000e+00
  0.00000000000000e+00
  1.34949743639293e-01
  5.78154836189229e-01
  3.63803115996335e-01
  6.75392019985144e-01
  1.13230098456389e+00
  1.65400404378672e+00
  1.92497845800833e+00
  1.44814933271197e+00
  4.39427431056185e-01
  6.64980331679676e-03
 -5.74264109106499e-04
 -7.67561626326749e-02
 -1.46256808411412e-01
 -2.39407035824857e-01
 -3.79069085533774e-01
 -4.48103732793825e-01
 -4.84200525122430e-01
 -1.96168096161407e-01
  2.38161760404015e-01
  1.04468216411947e-01
  0.00000000000000e+00
  0.00000000000000e+00
  0.00000000000000e+00
  0.00000000000000e+00
  0.00000000000000e+00
  0.00000000000000e+00
  0.00000000000000e+00
  0.00000000000000e+00
  1.79963635330801e-01
  8.98721984913738e-01
  7.11071032781435e-01
  3.39917026383906e-01
  6.32701430216626e-02
  0.00000000000000e+00
  0.00000000000000e+00
  0.00000000000000e+00
  1.34949743639293e-01
  5.78154836189229e-01
  3.63803115996335e-01
  6.75392019985144e-01
  1.13230098456389e+00
  1.65400404378672e+00
  1.92497845800833e+00
  1.44814933271197e+00
  4.39427431056185e-01
  6.64980331679676e-03
 -5.74264109106499e-04
 -7.67561626326749e-02
 -1.46256808411412e-01
 -2.39407035824857e-01
 -3.79069085533774e-01
 -4.48103732793825e-01
 -4.84200525122430e-01
 -1.96168096161407e-01
  2.38161760404015e-01
  1.04468216411947e-01
  0.00000000000000e+00
  0.00000000000000e+00
  0.00000000000000e+00
  0.00000000000000e+00
  0.00000000000000e+00
  0.00000000000000e+00
  0.00000000000000e+00
  0.00000000000000e+00
  1.79963635330801e-01
  8.98721984913738e-01
  7.11071032781435e-01
  3.39917026383906e-01
  6.32701430216626e-02
  0.00000000000000e+00
  0.00000000000000e+00
  0.00000000000000e+00
  1.34949743639293e-01
  5.78154836189229e-01
  3.63803115996335e-01
  6.75392019985144e-01
  1.13230098456389e+00
  1.65400404378672e+00
  1.92497845800833e+00
  1.44814933271197e+00
  4.39427431056185e-01
  6.64980331679676e-03
 -5.74264109106499e-04
 -7.67561626326749e-02
 -1.46256808411412e-01
 -2.39407035824857e-01
 -3.79069085533774e-01
 -4.48103732793825e-01
 -4.84200525122430e-01
 -1.96168096161407e-01
  2.38161760404015e-01
  1.04468216411947e-01
  0.00000000000000e+00
  0.00000000000000e+00
  0.00000000000000e+00
  0.00000000000000e+00
  0.00000000000000e+00
  0.00000000000000e+00
  0.00000000000000e+00
  0.00000000000000e+00
  1.79963635330801e-01
  8.98721984913738e-01
  7.11071032781435e-01
  3.39917026383906e-01
  6.32701430216626e-02
  0.00000000000000e+00
  0.00000000000000e+00
  0.00000000000000e+00
  1.34949743639293e-01
  5.78154836189229e-01
  3.63803115996335e-01
  6.75392019985144e-01
  1.13230098456389e+00
  1.65400404378672e+00
  1.92497845800833e+00
  1.44814933271197e+00
  4.39427431056185e-01
  6.64980331679676e-03
 -5.74264109106499e-04
 -7.67561626326749e-02
 -1.46256808411412e-01
 -2.39407035824857e-01
 -3.79069085533774e-01
 -4.48103732793825e-01
 -4.84200525122430e-01
 -1.96168096161407e-01
  2.38161760404015e-01
  1.04468216411947e-01
  0.00000000000000e+00
  0.00000000000000e+00
  0.00000000000000e+00
  0.00000000000000e+00
  0.00000000000000e+00
  0.00000000000000e+00
  0.00000000000000e+00
  0.00000000000000e+00
  1.79963635330801e-01
  8.98721984913738e-01
  7.11071032781435e-01
  3.39917026383906e-01
  6.32701430216626e-02
  0.00000000000000e+00
  0.00000000000000e+00
  0.00000000000000e+00
  1.34949743639293e-01
  5.78154836189229e-01
  3.63803115996335e-01
  6.75392019985144e-01
  1.13230098456389e+00
  1.65400404378672e+00
  1.92497845800833e+00
  1.44814933271197e+00
  4.39427431056185e-01
  6.64980331679676e-03
 -5.74264109106499e-04
 -7.67561626326749e-02
 -1.46256808411412e-01
 -2.39407035824857e-01
 -3.79069085533774e-01
 -4.48103732793825e-01
 -4.84200525122430e-01
 -1.96168096161407e-01
  2.38161760404015e-01
  1.04468216411947e-01
  0.00000000000000e+00
  0.00000000000000e+00
  0.00000000000000e+00
  0.00000000000000e+00
  0.00000000000000e+00
  0.00000000000000e+00
  0.00000000000000e+00
  0.00000000000000e+00
  1.79963635330801e-01
  8.98721984913738e-01
  7.11071032781435e-01
  3.39917026383906e-01
  6.32701430216626e-02
  0.00000000000000e+00
  0.00000000000000e+00
  0.00000000000000e+00
  1.34949743639293e-01
  5.78154836189229e-01
  3.63803115996335e-01
  6.75392019985144e-01
  1.13230098456389e+00
  1.65400404378672e+00
  1.92497845800833e+00
  1.44814933271197e+00
  4.39427431056185e-01
  6.64980331679676e-03
 -5.74264109106499e-04
 -7.67561626326749e-02
 -1.46256808411412e-01
 -2.39407035824857e-01
 -3.79069085533774e-01
 -4.48103732793825e-01
 -4.84200525122430e-01
 -1.96168096161407e-01
  2.38161760404015e-01
  1.04468216411947e-01
  0.00000000000000e+00
  0.00000000000000e+00
  0.00000000000000e+00
  0.00000000000000e+00
  0.00000000000000e+00
  0.00000000000000e+00
  0.00000000000000e+00
  0.00000000000000e+00
  1.79963635330801e-01
  8.98721984913738e-01
  7.11071032781435e-01
  3.39917026383906e-01
  6.32701430216626e-02
  0.00000000000000e+00
  0.00000000000000e+00
  0.00000000000000e+00
  1.34949743639293e-01
  5.78154836189229e-01
  3.63803115996335e-01
  6.75392019985144e-01
  1.13230098456389e+00
  1.65400404378672e+00
  1.92497845800833e+00
  1.44814933271197e+00
  4.39427431056185e-01
  6.64980331679676e-03
 -5.74264109106499e-04
 -7.67561626326749e-02
 -1.46256808411412e-01
 -2.39407035824857e-01
 -3.79069085533774e-01
 -4.48103732793825e-01
 -4.84200525122430e-01
 -1.96168096161407e-01
  2.38161760404015e-01
  1.04468216411947e-01
  0.00000000000000e+00
  0.00000000000000e+00
  0.00000000000000e+00
  0.00000000000000e+00
  0.00000000000000e+00
  0.00000000000000e+00
  0.00000000000000e+00
  0.00000000000000e+00
  1.79963635330801e-01
  8.98721984913738e-01
  7.11071032781435e-01
  3.39917026383906e-01
  6.32701430216626e-02
  0.00000000000000e+00
  0.00000000000000e+00
  0.00000000000000e+00
  1.34949743639293e-01
  5.78154836189229e-01
  3.63803115996335e-01
  6.75392019985144e-01
  1.13230098456389e+00
  1.65400404378672e+00
  1.92497845800833e+00
  1.44814933271197e+00
  4.39427431056185e-01
  6.64980331679676e-03
 -5.74264109106499e-04
 -7.67561626326749e-02
 -1.46256808411412e-01
 -2.39407035824857e-01
 -3.79069085533774e-01
 -4.48103732793825e-01
 -4.84200525122430e-01
 -1.96168096161407e-01
  2.38161760404015e-01
  1.04468216411947e-01
  0.00000000000000e+00
  0.00000000000000e+00
  0.00000000000000e+00
  0.00000000000000e+00
  0.00000000000000e+00
  0.00000000000000e+00
  0.00000000000000e+00
  0.00000000000000e+00
  1.79963635330801e-01
  8.98721984913738e-01
  7.11071032781435e-01
  3.39917026383906e-01
  6.32701430216626e-02
  0.00000000000000e+00
  0.00000000000000e+00
  0.00000000000000e+00
  1.34949743639293e-01
  5.78154836189229e-01
  3.63803115996335e-01
  6.75392019985144e-01
  1.13230098456389e+00
  1.65400404378672e+00
  1.92497845800833e+00
  1.44814933271197e+00
  4.39427431056185e-01
  6.64980331679676e-03
 -5.74264109106499e-04
 -7.67561626326749e-02
 -1.46256808411412e-01
 -2.39407035824857e-01
 -3.79069085533774e-01
 -4.48103732793825e-01
 -4.84200525122430e-01
 -1.96168096161407e-01
  2.38161760404015e-01
  1.04468216411947e-01
  0.00000000000000e+00
  0.00000000000000e+00
  0.00000000000000e+00
  0.00000000000000e+00
  0.00000000000000e+00
  0.00000000000000e+00
  0.00000000000000e+00
  0.00000000000000e+00
  1.79963635330801e-01
  8.98721984913738e-01
  7.11071032781435e-01
  3.39917026383906e-01
  6.32701430216626e-02
  0.00000000000000e+00
  0.00000000000000e+00
  0.00000000000000e+00
  1.34949743639293e-01
  5.78154836189229e-01
  3.63803115996335e-01
  6.75392019985144e-01
  1.13230098456389e+00
  1.65400404378672e+00
  1.92497845800833e+00
  1.44814933271197e+00
  4.39427431056185e-01
  6.64980331679676e-03
 -5.74264109106499e-04
 -7.67561626326749e-02
 -1.46256808411412e-01
 -2.39407035824857e-01
 -3.79069085533774e-01
 -4.48103732793825e-01
 -4.84200525122430e-01
 -1.96168096161407e-01
  2.38161760404015e-01
  1.04468216411947e-01
  0.00000000000000e+00
  0.00000000000000e+00
  0.00000000000000e+00
  0.00000000000000e+00
  0.00000000000000e+00
  0.00000000000000e+00
  0.00000000000000e+00
  0.00000000000000e+00
  1.79963635330801e-01
  8.98721984913738e-01
  7.11071032781435e-01
  3.39917026383906e-01
  6.32701430216626e-02
  0.00000000000000e+00
  0.00000000000000e+00
  0.00000000000000e+00
  1.34949743639293e-01
  5.78154836189229e-01
  3.63803115996335e-01
  6.75392019985144e-01
  1.13230098456389e+00
  1.65400404378672e+00
  1.92497845800833e+00
  1.44814933271197e+00
  4.39427431056185e-01
  6.64980331679676e-03
 -5.74264109106499e-04
 -7.67561626326749e-02
 -1.46256808411412e-01
 -2.39407035824857e-01
 -3.79069085533774e-01
 -4.48103732793825e-01
 -4.84200525122430e-01
 -1.96168096161407e-01
  2.38161760404015e-01
  1.04468216411947e-01
  0.00000000000000e+00
  0.00000000000000e+00
  0.00000000000000e+00
  0.00000000000000e+00
  0.00000000000000e+00
  0.00000000000000e+00
  0.00000000000000e+00
  0.00000000000000e+00
  1.79963635330801e-01
  8.98721984913738e-01
  7.11071032781435e-01
  3.39917026383906e-01
  6.32701430216626e-02
  0.00000000000000e+00
  0.00000000000000e+00
  0.00000000000000e+00
  1.34949743639293e-01
  5.78154836189229e-01
  3.63803115996335e-01
  6.75392019985144e-01
  1.13230098456389e+00
  1.65400404378672e+00
  1.92497845800833e+00
  1.44814933271197e+00
  4.39427431056185e-01
  6.64980331679676e-03
 -5.74264109106499e-04
 -7.67561626326749e-02
 -1.46256808411412e-01
 -2.39407035824857e-01
 -3.79069085533774e-01
 -4.48103732793825e-01
 -4.84200525122430e-01
 -1.96168096161407e-01
  2.38161760404015e-01
  1.04468216411947e-01
  0.00000000000000e+00
  0.00000000000000e+00
  0.00000000000000e+00
  0.00000000000000e+00
  0.00000000000000e+00
  0.00000000000000e+00
  0.00000000000000e+00
  0.00000000000000e+00
  1.79963635330801e-01
  8.98721984913738e-01
  7.11071032781435e-01
  3.39917026383906e-01
  6.32701430216626e-02
  0.00000000000000e+00
  0.00000000000000e+00
  0.00000000000000e+00
  1.34949743639293e-01
  5.78154836189229e-01
  3.63803115996335e-01
  6.75392019985144e-01
  1.13230098456389e+00
  1.65400404378672e+00
  1.92497845800833e+00
  1.44814933271197e+00
  4.39427431056185e-01
  6.64980331679676e-03
 -5.74264109106499e-04
 -7.67561626326749e-02
 -1.46256808411412e-01
 -2.39407035824857e-01
 -3.79069085533774e-01
 -4.48103732793825e-01
 -4.84200525122430e-01
 -1.96168096161407e-01
  2.38161760404015e-01
  1.04468216411947e-01
  0.00000000000000e+00
  0.00000000000000e+00
  0.00000000000000e+00
  0.00000000000000e+00
  0.00000000000000e+00
  0.00000000000000e+00
  0.00000000000000e+00
  0.00000000000000e+00
  1.79963635330801e-01
  8.98721984913738e-01
  7.11071032781435e-01
  3.39917026383906e-01
  6.32701430216626e-02
  0.00000000000000e+00
  0.00000000000000e+00
  0.00000000000000e+00
  1.34949743639293e-01
  5.78154836189229e-01
  3.63803115996335e-01
  6.75392019985144e-01
  1.13230098456389e+00
  1.65400404378672e+00
  1.92497845800833e+00
  1.44814933271197e+00
  4.39427431056185e-01
  6.64980331679676e-03
 -5.74264109106499e-04
 -7.67561626326749e-02
 -1.46256808411412e-01
 -2.39407035824857e-01
 -3.79069085533774e-01
 -4.48103732793825e-01
 -4.84200525122430e-01
 -1.96168096161407e-01
  2.38161760404015e-01
  1.04468216411947e-01
  0.00000000000000e+00
  0.00000000000000e+00
  0.00000000000000e+00
  0.00000000000000e+00
  0.00000000000000e+00
  0.00000000000000e+00
  0.00000000000000e+00
  0.00000000000000e+00
  1.79963635330801e-01
  8.98721984913738e-01
  7.11071032781435e-01
  3.39917026383906e-01
  6.32701430216626e-02
  0.00000000000000e+00
  0.00000000000000e+00
  0.00000000000000e+00
  1.34949743639293e-01
  5.78154836189229e-01
  3.63803115996335e-01
  6.75392019985144e-01
  1.13230098456389e+00
  1.65400404378672e+00
  1.92497845800833e+00
  1.44814933271197e+00
  4.39427431056185e-01
  6.64980331679676e-03
 -5.74264109106499e-04
 -7.67561626326749e-02
 -1.46256808411412e-01
 -2.39407035824857e-01
 -3.79069085533774e-01
 -4.48103732793825e-01
 -4.84200525122430e-01
 -1.96168096161407e-01
  2.38161760404015e-01
  1.04468216411947e-01
  0.00000000000000e+00
  0.00000000000000e+00
  0.00000000000000e+00
  0.00000000000000e+00
  0.00000000000000e+00
  0.00000000000000e+00
  0.00000000000000e+00
  0.00000000000000e+00
  1.79963635330801e-01
  8.98721984913738e-01
  7.11071032781435e-01
  3.39917026383906e-01
  6.32701430216626e-02
  0.00000000000000e+00
  0.00000000000000e+00
  0.00000000000000e+00
  1.34949743639293e-01
  5.78154836189229e-01
  3.63803115996335e-01
  6.75392019985144e-01
  1.13230098456389e+00
  1.65400404378672e+00
  1.92497845800833e+00
  1.44814933271197e+00
  4.39427431056185e-01
  6.64980331679676e-03
 -5.74264109106499e-04
 -7.67561626326749e-02
 -1.46256808411412e-01
 -2.39407035824857e-01
 -3.79069085533774e-01
 -4.48103732793825e-01
 -4.84200525122430e-01
 -1.96168096161407e-01
  2.38161760404015e-01
  1.04468216411947e-01
  0.00000000000000e+00
  0.00000000000000e+00
  0.00000000000000e+00
  0.00000000000000e+00
  0.00000000000000e+00
  0.00000000000000e+00
  0.00000000000000e+00
  0.00000000000000e+00
  1.79963635330801e-01
  8.98721984913738e-01
  7.11071032781435e-01
  3.39917026383906e-01
  6.32701430216626e-02
  0.00000000000000e+00
  0.00000000000000e+00
  0.00000000000000e+00
  1.34949743639293e-01
  5.78154836189229e-01
  3.63803115996335e-01
  6.75392019985144e-01
  1.13230098456389e+00
  1.65400404378672e+00
  1.92497845800833e+00
  1.44814933271197e+00
  4.39427431056185e-01
  6.64980331679676e-03
 -5.74264109106499e-04
 -7.67561626326749e-02
 -1.46256808411412e-01
 -2.39407035824857e-01
 -3.79069085533774e-01
 -4.48103732793825e-01
 -4.84200525122430e-01
 -1.96168096161407e-01
  2.38161760404015e-01
  1.04468216411947e-01
  0.00000000000000e+00
  0.00000000000000e+00
  0.00000000000000e+00
  0.00000000000000e+00
  0.00000000000000e+00
  0.00000000000000e+00
  0.00000000000000e+00
  0.00000000000000e+00
  1.79963635330801e-01
  8.98721984913738e-01
  7.11071032781435e-01
  3.39917026383906e-01
  6.32701430216626e-02
  0.00000000000000e+00
  0.00000000000000e+00
  0.00000000000000e+00
  1.34949743639293e-01
  5.78154836189229e-01
  3.63803115996335e-01
  6.75392019985144e-01
  1.13230098456389e+00
  1.65400404378672e+00
  1.92497845800833e+00
  1.44814933271197e+00
  4.39427431056185e-01
  6.64980331679676e-03
 -5.74264109106499e-04
 -7.67561626326749e-02
 -1.46256808411412e-01
 -2.39407035824857e-01
 -3.79069085533774e-01
 -4.48103732793825e-01
 -4.84200525122430e-01
 -1.96168096161407e-01
  2.38161760404015e-01
  1.04468216411947e-01
  0.00000000000000e+00
  0.00000000000000e+00
  0.00000000000000e+00
  0.00000000000000e+00
  0.00000000000000e+00
  0.00000000000000e+00
  0.00000000000000e+00
  0.00000000000000e+00
  1.79963635330801e-01
  8.98721984913738e-01
  7.11071032781435e-01
  3.39917026383906e-01
  6.32701430216626e-02
  0.00000000000000e+00
  0.00000000000000e+00
  0.00000000000000e+00
  1.34949743639293e-01
  5.78154836189229e-01
  3.63803115996335e-01
  6.75392019985144e-01
  1.13230098456389e+00
  1.65400404378672e+00
  1.92497845800833e+00
  1.44814933271197e+00
  4.39427431056185e-01
  6.64980331679676e-03
 -5.74264109106499e-04
 -7.67561626326749e-02
 -1.46256808411412e-01
 -2.39407035824857e-01
 -3.79069085533774e-01
 -4.48103732793825e-01
 -4.84200525122430e-01
 -1.96168096161407e-01
  2.38161760404015e-01
  1.04468216411947e-01
  0.00000000000000e+00
  0.00000000000000e+00
  0.00000000000000e+00
  0.00000000000000e+00
  0.00000000000000e+00
  0.00000000000000e+00
  0.00000000000000e+00
  0.00000000000000e+00
  1.79963635330801e-01
  8.98721984913738e-01
  7.11071032781435e-01
  3.39917026383906e-01
  6.32701430216626e-02
  0.00000000000000e+00
  0.00000000000000e+00
  0.00000000000000e+00
  1.34949743639293e-01
  5.78154836189229e-01
  3.63803115996335e-01
  6.75392019985144e-01
  1.13230098456389e+00
  1.65400404378672e+00
  1.92497845800833e+00
  1.44814933271197e+00
  4.39427431056185e-01
  6.64980331679676e-03
 -5.74264109106499e-04
 -7.67561626326749e-02
 -1.46256808411412e-01
 -2.39407035824857e-01
 -3.79069085533774e-01
 -4.48103732793825e-01
 -4.84200525122430e-01
 -1.96168096161407e-01
  2.38161760404015e-01
  1.04468216411947e-01
  0.00000000000000e+00
  0.00000000000000e+00
  0.00000000000000e+00
  0.00000000000000e+00
  0.00000000000000e+00
  0.00000000000000e+00
  0.00000000000000e+00
  0.00000000000000e+00
  1.79963635330801e-01
  8.98721984913738e-01
  7.11071032781435e-01
  3.39917026383906e-01
  6.32701430216626e-02
  0.00000000000000e+00
  0.00000000000000e+00
  0.00000000000000e+00
  1.34949743639293e-01
  5.78154836189229e-01
  9.61066109833227e-02
  1.63019974791044e-01
  1.85545022683362e-01
  7.37437919835051e-02
  0.00000000000000e+00
  0.00000000000000e+00
  0.00000000000000e+00
  1.47122794428574e-01
  9.56881375059566e-01
  9.61066109833227e-02
  1.63019974791044e-01
  1.85545022683362e-01
  7.37437919835051e-02
  0.00000000000000e+00
  0.00000000000000e+00
  0.00000000000000e+00
  1.47122794428574e-01
  9.56881375059566e-01
  9.61066109833227e-02
  1.63019974791044e-01
  1.85545022683362e-01
  7.37437919835051e-02
  0.00000000000000e+00
  0.00000000000000e+00
  0.00000000000000e+00
  1.47122794428574e-01
  9.56881375059566e-01
  9.61066109833227e-02
  1.63019974791044e-01
  1.85545022683362e-01
  7.37437919835051e-02
  0.00000000000000e+00
  0.00000000000000e+00
  0.00000000000000e+00
  1.47122794428574e-01
  9.56881375059566e-01
  9.61066109833227e-02
  1.63019974791044e-01
  1.85545022683362e-01
  7.37437919835051e-02
  0.00000000000000e+00
  0.00000000000000e+00
  0.00000000000000e+00
  1.47122794428574e-01
  9.56881375059566e-01
  9.61066109833227e-02
  1.63019974791044e-01
  1.85545022683362e-01
  7.37437919835051e-02
  0.00000000000000e+00
  0.00000000000000e+00
  0.00000000000000e+00
  1.47122794428574e-01
  9.56881375059566e-01
  9.61066109833227e-02
  1.63019974791044e-01
  1.85545022683362e-01
  7.37437919835051e-02
  0.00000000000000e+00
  0.00000000000000e+00
  0.00000000000000e+00
  1.47122794428574e-01
  9.56881375059566e-01
  9.61066109833227e-02
  1.63019974791044e-01
  1.85545022683362e-01
  7.37437919835051e-02
  0.00000000000000e+00
  0.00000000000000e+00
  0.00000000000000e+00
  1.47122794428574e-01
  9.56881375059566e-01
  9.61066109833227e-02
  1.63019974791044e-01
  1.85545022683362e-01
  7.37437919835051e-02
  0.00000000000000e+00
  0.00000000000000e+00
  0.00000000000000e+00
  1.47122794428574e-01
  9.56881375059566e-01
  9.61066109833227e-02
  1.63019974791044e-01
  1.85545022683362e-01
  7.37437919835051e-02
  0.00000000000000e+00
  0.00000000000000e+00
  0.00000000000000e+00
  1.47122794428574e-01
  9.56881375059566e-01
  9.61066109833227e-02
  1.63019974791044e-01
  1.85545022683362e-01
  7.37437919835051e-02
  0.00000000000000e+00
  0.00000000000000e+00
  0.00000000000000e+00
  1.47122794428574e-01
  9.56881375059566e-01
  9.61066109833227e-02
  1.63019974791044e-01
  1.85545022683362e-01
  7.37437919835051e-02
  0.00000000000000e+00
  0.00000000000000e+00
  0.00000000000000e+00
  1.47122794428574e-01
  9.56881375059566e-01
  9.61066109833227e-02
  1.63019974791044e-01
  1.85545022683362e-01
  7.37437919835051e-02
  0.00000000000000e+00
  0.00000000000000e+00
  0.00000000000000e+00
  1.47122794428574e-01
  9.56881375059566e-01
  9.61066109833227e-02
  1.63019974791044e-01
  1.85545022683362e-01
  7.37437919835051e-02
  0.00000000000000e+00
  0.00000000000000e+00
  0.00000000000000e+00
  1.47122794428574e-01
  9.56881375059566e-01
  9.61066109833227e-02
  1.63019974791044e-01
  1.85545022683362e-01
  7.37437919835051e-02
  0.00000000000000e+00
  0.00000000000000e+00
  0.00000000000000e+00
  1.47122794428574e-01
  9.56881375059566e-01
  9.61066109833227e-02
  1.63019974791044e-01
  1.85545022683362e-01
  7.37437919835051e-02
  0.00000000000000e+00
  0.00000000000000e+00
  0.00000000000000e+00
  1.47122794428574e-01
  9.56881375059566e-01
  9.61066109833227e-02
  1.63019974791044e-01
  1.85545022683362e-01
  7.37437919835051e-02
  0.00000000000000e+00
  0.00000000000000e+00
  0.00000000000000e+00
  1.47122794428574e-01
  9.56881375059566e-01
  9.61066109833227e-02
  1.63019974791044e-01
  1.85545022683362e-01
  7.37437919835051e-02
  0.00000000000000e+00
  0.00000000000000e+00
  0.00000000000000e+00
  1.47122794428574e-01
  9.56881375059566e-01
  9.61066109833227e-02
  1.63019974791044e-01
  1.85545022683362e-01
  7.37437919835051e-02
  0.00000000000000e+00
  0.00000000000000e+00
  0.00000000000000e+00
  1.47122794428574e-01
  9.56881375059566e-01
  9.61066109833227e-02
  1.63019974791044e-01
  1.85545022683362e-01
  7.37437919835051e-02
  0.00000000000000e+00
  0.00000000000000e+00
  0.00000000000000e+00
  1.47122794428574e-01
  9.56881375059566e-01
  9.61066109833227e-02
  1.63019974791044e-01
  1.85545022683362e-01
  7.37437919835051e-02
  0.00000000000000e+00
  0.00000000000000e+00
  0.00000000000000e+00
  1.47122794428574e-01
  9.56881375059566e-01
  9.61066109833227e-02
  1.63019974791044e-01
  1.85545022683362e-01
  7.37437919835051e-02
  0.00000000000000e+00
  0.00000000000000e+00
  0.00000000000000e+00
  1.47122794428574e-01
  9.56881375059566e-01
  9.61066109833227e-02
  1.63019974791044e-01
  1.85545022683362e-01
  7.37437919835051e-02
  0.00000000000000e+00
  0.00000000000000e+00
  0.00000000000000e+00
  1.47122794428574e-01
  9.56881375059566e-01
  9.61066109833227e-02
  1.63019974791044e-01
  1.85545022683362e-01
  7.37437919835051e-02
  0.00000000000000e+00
  0.00000000000000e+00
  0.00000000000000e+00
  1.47122794428574e-01
  9.56881375059566e-01

0 0 0 0 3 3 3
0 0 9 0 18 0 
9 0

0 3 3 9 2 6 6
27 1 31 1 
4 0

0 9 9 13 1 5 6
35 2 
1 1

1 14 14 14 3 3 3
36 0 45 0 54 0 
9 0

1 17 17 23 2 6 6
63 1 67 1 
4 0

1 23 23 27 1 5 6
71 2 
1 1

2 28 28 28 3 3 3
72 0 81 0 90 0 
9 0

2 31 31 37 2 6 6
99 1 103 1 
4 0

2 37 37 41 1 5 6
107 2 
1 1

3 42 42 42 3 3 3
108 0 117 0 126 0 
9 0

3 45 45 51 2 6 6
135 1 139 1 
4 0

3 51 51 55 1 5 6
143 2 
1 1

4 56 56 56 3 3 3
144 0 153 0 162 0 
9 0

4 59 59 65 2 6 6
171 1 175 1 
4 0

4 65 65 69 1 5 6
179 2 
1 1

5 70 70 70 3 3 3
180 0 189 0 198 0 
9 0

5 73 73 79 2 6 6
207 1 211 1 
4 0

5 79 79 83 1 5 6
215 2 
1 1

6 84 84 84 3 3 3
216 0 225 0 234 0 
9 0

6 87 87 93 2 6 6
243 1 247 1 
4 0

6 93 93 97 1 5 6
251 2 
1 1

7 98 98 98 3 3 3
252 0 261 0 270 0 
9 0

7 101 101 107 2 6 6
279 1 283 1 
4 0

7 107 107 111 1 5 6
287 2 
1 1

8 112 112 112 3 3 3
288 0 297 0 306 0 
9 0

8 115 115 121 2 6 6
315 1 319 1 
4 0

8 121 121 125 1 5 6
323 2 
1 1

9 126 126 126 3 3 3
324 0 333 0 342 0 
9 0

9 129 129 135 2 6 6
351 1 355 1 
4 0

9 135 135 139 1 5 6
359 2 
1 1

10 140 140 140 3 3 3
360 0 369 0 378 0 
9 0

10 143 143 149 2 6 6
387 1 391 1 
4 0

10 149 149 153 1 5 6
395 2 
1 1

11 154 154 154 3 3 3
396 0 405 0 414 0 
9 0

11 157 157 163 2 6 6
423 1 427 1 
4 0

11 163 163 167 1 5 6
431 2 
1 1

12 168 168 168 3 3 3
432 0 441 0 450 0 
9 0

12 171 171 177 2 6 6
459 1 463 1 
4 0

12 177 177 181 1 5 6
467 2 
1 1

13 182 182 182 3 3 3
468 0 477 0 486 0 
9 0

13 185 185 191 2 6 6
495 1 499 1 
4 0

13 191 191 195 1 5 6
503 2 
1 1

14 196 196 196 3 3 3
504 0 513 0 522 0 
9 0

14 199 199 205 2 6 6
531 1 535 1 
4 0

14 205 205 209 1 5 6
539 2 
1 1

15 210 210 210 3 3 3
540 0 549 0 558 0 
9 0

15 213 213 219 2 6 6
567 1 571 1 
4 0

15 219 219 223 1 5 6
575 2 
1 1

16 224 224 224 3 3 3
576 0 585 0 594 0 
9 0

16 227 227 233 2 6 6
603 1 607 1 
4 0

16 233 233 237 1 5 6
611 2 
1 1

17 238 238 238 3 3 3
612 0 621 0 630 0 
9 0

17 241 241 247 2 6 6
639 1 643 1 
4 0

17 247 247 251 1 5 6
647 2 
1 1

18 252 252 252 3 3 3
648 0 657 0 666 0 
9 0

18 255 255 261 2 6 6
675 1 679 1 
4 0

18 261 261 265 1 5 6
683 2 
1 1

19 266 266 266 3 3 3
684 0 693 0 702 0 
9 0

19 269 269 275 2 6 6
711 1 715 1 
4 0

19 275 275 279 1 5 6
719 2 
1 1

20 280 280 280 3 3 3
720 0 729 0 738 0 
9 0

20 283 283 289 2 6 6
747 1 751 1 
4 0

20 289 289 293 1 5 6
755 2 
1 1

21 294 294 294 3 3 3
756 0 765 0 774 0 
9 0

21 297 297 303 2 6 6
783 1 787 1 
4 0

21 303 303 307 1 5 6
791 2 
1 1

22 308 308 308 3 3 3
792 0 801 0 810 0 
9 0

22 311 311 317 2 6 6
819 1 823 1 
4 0

22 317 317 321 1 5 6
827 2 
1 1

23 322 322 322 3 3 3
828 0 837 0 846 0 
9 0

23 325 325 331 2 6 6
855 1 859 1 
4 0

23 331 331 335 1 5 6
863 2 
1 1

24 336 336 336 2 2 2
864 0 868 0 
4 0

24 338 338 340 1 3 3
872 1 
1 0

25 341 341 341 2 2 2
873 0 877 0 
4 0

25 343 343 345 1 3 3
881 1 
1 0

26 346 346 346 2 2 2
882 0 886 0 
4 0

26 348 348 350 1 3 3
890 1 
1 0

27 351 351 351 2 2 2
891 0 895 0 
4 0

27 353 353 355 1 3 3
899 1 
1 0

28 356 356 356 2 2 2
900 0 904 0 
4 0

28 358 358 360 1 3 3
908 1 
1 0

29 361 361 361 2 2 2
909 0 913 0 
4 0

29 363 363 365 1 3 3
917 1 
1 0

30 366 366 366 2 2 2
918 0 922 0 
4 0

30 368 368 370 1 3 3
926 1 
1 0

31 371 371 371 2 2 2
927 0 931 0 
4 0

31 373 373 375 1 3 3
935 1 
1 0

32 376 376 376 2 2 2
936 0 940 0 
4 0

32 378 378 380 1 3 3
944 1 
1 0

33 381 381 381 2 2 2
945 0 949 0 
4 0

33 383 383 385 1 3 3
953 1 
1 0

34 386 386 386 2 2 2
954 0 958 0 
4 0

34 388 388 390 1 3 3
962 1 
1 0

35 391 391 391 2 2 2
963 0 967 0 
4 0

35 393 393 395 1 3 3
971 1 
1 0

36 396 396 396 2 2 2
972 0 976 0 
4 0

36 398 398 400 1 3 3
980 1 
1 0

37 401 401 401 2 2 2
981 0 985 0 
4 0

37 403 403 405 1 3 3
989 1 
1 0

38 406 406 406 2 2 2
990 0 994 0 
4 0

38 408 408 410 1 3 3
998 1 
1 0

39 411 411 411 2 2 2
999 0 1003 0 
4 0

39 413 413 415 1 3 3
1007 1 
1 0

40 416 416 416 2 2 2
1008 0 1012 0 
4 0

40 418 418 420 1 3 3
1016 1 
1 0

41 421 421 421 2 2 2
1017 0 1021 0 
4 0

41 423 423 425 1 3 3
1025 1 
1 0

42 426 426 426 2 2 2
1026 0 1030 0 
4 0

42 428 428 430 1 3 3
1034 1 
1 0

43 431 431 431 2 2 2
1035 0 1039 0 
4 0

43 433 433 435 1 3 3
1043 1 
1 0

44 436 436 436 2 2 2
1044 0 1048 0 
4 0

44 438 438 440 1 3 3
1052 1 
1 0

45 441 441 441 2 2 2
1053 0 1057 0 
4 0

45 443 443 445 1 3 3
1061 1 
1 0

46 446 446 446 2 2 2
1062 0 1066 0 
4 0

46 448 448 450 1 3 3
1070 1 
1 0

47 451 451 451 2 2 2
1071 0 1075 0 
4 0

47 453 453 455 1 3 3
1079 1 
1 0

 -------------------------------------------------------------
 Allocate 2759992 B from available memory: 314572800000 B
 There are 343 image cells after screening.
 There are 165 image cells for CGTO evaluation after screening.
 Real-Space grid for FFT initialized based on kinetic energy cutoff (eV) = 500.0
 Real-Space grid for FFT: (18,20,25)
 There are 77367 real-space grid points.
 There are 512 batches of real-space grid points. 
 Size of each grid batch is around 128
 Grid for AFT initialized based on kinetic energy cutoff (eV) = 500.0
 Real-Space grid for AFT: (18,20,25)
 There are 77367 real-space grid points.

 There are 138288 atom-centered grid points.

 Spacegroup symmetry group: Pbca
 Reducing spacegroup symmetry to symmorphic group: P -1
 Monkhorst-Pack mesh is [3,3,3]
 There are 27 k points.
kpoints in Bohr
-0.1627468662 -0.1499737698 -0.1176545816
-0.1627468662 -0.1499737698 0.0000000000
-0.1627468662 -0.1499737698 0.1176545816
-0.1627468662 0.0000000000 -0.1176545816
-0.1627468662 0.0000000000 0.0000000000
-0.1627468662 0.0000000000 0.1176545816
-0.1627468662 0.1499737698 -0.1176545816
-0.1627468662 0.1499737698 0.0000000000
-0.1627468662 0.1499737698 0.1176545816
0.0000000000 -0.1499737698 -0.1176545816
0.0000000000 -0.1499737698 0.0000000000
0.0000000000 -0.1499737698 0.1176545816
0.0000000000 0.0000000000 -0.1176545816
0.0000000000 0.0000000000 0.0000000000
0.0000000000 0.0000000000 0.1176545816
0.0000000000 0.1499737698 -0.1176545816
0.0000000000 0.1499737698 0.0000000000
0.0000000000 0.1499737698 0.1176545816
0.1627468662 -0.1499737698 -0.1176545816
0.1627468662 -0.1499737698 0.0000000000
0.1627468662 -0.1499737698 0.1176545816
0.1627468662 0.0000000000 -0.1176545816
0.1627468662 0.0000000000 0.0000000000
0.1627468662 0.0000000000 0.1176545816
0.1627468662 0.1499737698 -0.1176545816
0.1627468662 0.1499737698 0.0000000000
0.1627468662 0.1499737698 0.1176545816
 There are 84 alpha and 84 beta electrons
 Start computing overlap matrix
 Allocate 89828352 B from available memory: 314570040032 B
 Time for computing overlap matrix: 1.7730000000 s
 ====== Initialize compute kernels for all-electron RI-J (kpts) ====== 
 ==== The unitcell is non-orthorombic! => Use AFT non-orthorombic code ==== 
 ========================================================== 
 Range-separated parameter omega        = 0.500000000000000000
 Threshold for 1e2c shellpair           = 0.000000000000010000
 Threshold for 2e2c SR integral         = 0.000000000000000001
 Threshold for 2e3c SR integral         = 0.000000000100000000
 Threshold for AFT G-space screening is = 0.000000000001000000
 The exponent cutoff for C/D classification (omega2 / 2) is  = 0.000010000000000000
 ========================================================== 
 === Process the basis set for RI calculation (exp_cutoff = 0.000010000000000000 ) === 
nshells_b1 before uncontraction = 120
nshells_b1 after uncontraction = 120
nshells_baux before uncontraction = 840
nshells_baux after uncontraction = 840
===============================================
nbsf total   = 456
nbsf compact = 456
nbsf diffuse = 0
naux total   = 2616
naux compact = 2616
naux diffuse = 0
nshells_bnuc = 48

 Number of unique atoms is 2
 Unique atom #0 (h) has 2 shells.
 Unique atom #1 (c) has 3 shells.

Shell 0 to 2 belongs to atom c
Shell 3 to 5 belongs to atom c
Shell 6 to 8 belongs to atom c
Shell 9 to 11 belongs to atom c
Shell 12 to 14 belongs to atom c
Shell 15 to 17 belongs to atom c
Shell 18 to 20 belongs to atom c
Shell 21 to 23 belongs to atom c
Shell 24 to 26 belongs to atom c
Shell 27 to 29 belongs to atom c
Shell 30 to 32 belongs to atom c
Shell 33 to 35 belongs to atom c
Shell 36 to 38 belongs to atom c
Shell 39 to 41 belongs to atom c
Shell 42 to 44 belongs to atom c
Shell 45 to 47 belongs to atom c
Shell 48 to 50 belongs to atom c
Shell 51 to 53 belongs to atom c
Shell 54 to 56 belongs to atom c
Shell 57 to 59 belongs to atom c
Shell 60 to 62 belongs to atom c
Shell 63 to 65 belongs to atom c
Shell 66 to 68 belongs to atom c
Shell 69 to 71 belongs to atom c
Shell 72 to 73 belongs to atom h
Shell 74 to 75 belongs to atom h
Shell 76 to 77 belongs to atom h
Shell 78 to 79 belongs to atom h
Shell 80 to 81 belongs to atom h
Shell 82 to 83 belongs to atom h
Shell 84 to 85 belongs to atom h
Shell 86 to 87 belongs to atom h
Shell 88 to 89 belongs to atom h
Shell 90 to 91 belongs to atom h
Shell 92 to 93 belongs to atom h
Shell 94 to 95 belongs to atom h
Shell 96 to 97 belongs to atom h
Shell 98 to 99 belongs to atom h
Shell 100 to 101 belongs to atom h
Shell 102 to 103 belongs to atom h
Shell 104 to 105 belongs to atom h
Shell 106 to 107 belongs to atom h
Shell 108 to 109 belongs to atom h
Shell 110 to 111 belongs to atom h
Shell 112 to 113 belongs to atom h
Shell 114 to 115 belongs to atom h
Shell 116 to 117 belongs to atom h
Shell 118 to 119 belongs to atom h

 Number of unique atom is 2
 Unique atom #0 (h) has 10 auxiliary shells.
 Unique atom #1 (c) has 25 auxiliary shells.

Auxiliary Shell 0 to 24 belongs to atom c
Auxiliary Shell 25 to 49 belongs to atom c
Auxiliary Shell 50 to 74 belongs to atom c
Auxiliary Shell 75 to 99 belongs to atom c
Auxiliary Shell 100 to 124 belongs to atom c
Auxiliary Shell 125 to 149 belongs to atom c
Auxiliary Shell 150 to 174 belongs to atom c
Auxiliary Shell 175 to 199 belongs to atom c
Auxiliary Shell 200 to 224 belongs to atom c
Auxiliary Shell 225 to 249 belongs to atom c
Auxiliary Shell 250 to 274 belongs to atom c
Auxiliary Shell 275 to 299 belongs to atom c
Auxiliary Shell 300 to 324 belongs to atom c
Auxiliary Shell 325 to 349 belongs to atom c
Auxiliary Shell 350 to 374 belongs to atom c
Auxiliary Shell 375 to 399 belongs to atom c
Auxiliary Shell 400 to 424 belongs to atom c
Auxiliary Shell 425 to 449 belongs to atom c
Auxiliary Shell 450 to 474 belongs to atom c
Auxiliary Shell 475 to 499 belongs to atom c
Auxiliary Shell 500 to 524 belongs to atom c
Auxiliary Shell 525 to 549 belongs to atom c
Auxiliary Shell 550 to 574 belongs to atom c
Auxiliary Shell 575 to 599 belongs to atom c
Auxiliary Shell 600 to 609 belongs to atom h
Auxiliary Shell 610 to 619 belongs to atom h
Auxiliary Shell 620 to 629 belongs to atom h
Auxiliary Shell 630 to 639 belongs to atom h
Auxiliary Shell 640 to 649 belongs to atom h
Auxiliary Shell 650 to 659 belongs to atom h
Auxiliary Shell 660 to 669 belongs to atom h
Auxiliary Shell 670 to 679 belongs to atom h
Auxiliary Shell 680 to 689 belongs to atom h
Auxiliary Shell 690 to 699 belongs to atom h
Auxiliary Shell 700 to 709 belongs to atom h
Auxiliary Shell 710 to 719 belongs to atom h
Auxiliary Shell 720 to 729 belongs to atom h
Auxiliary Shell 730 to 739 belongs to atom h
Auxiliary Shell 740 to 749 belongs to atom h
Auxiliary Shell 750 to 759 belongs to atom h
Auxiliary Shell 760 to 769 belongs to atom h
Auxiliary Shell 770 to 779 belongs to atom h
Auxiliary Shell 780 to 789 belongs to atom h
Auxiliary Shell 790 to 799 belongs to atom h
Auxiliary Shell 800 to 809 belongs to atom h
Auxiliary Shell 810 to 819 belongs to atom h
Auxiliary Shell 820 to 829 belongs to atom h
Auxiliary Shell 830 to 839 belongs to atom h

================= Automatically determine grid size for reciprocal space summation =================
 Range-separated parameter = 0.50000000000000 and G-space screening threshold = 0.00000000000100
The number of grid points along each axis dimension is (12, 13, 16)
Total number of grid points = 22275

======== Initializing relevant kernel for RIJ (CC type) ========
There are 7128 shellpairs in the reference unit cell
There are 411 images and we expect to have 2929608 in total
There are 47924 shellpairs in the lattice sum after screening
****** AFT -> SR ******
Maximum bra distance cutoff is 21.000000000000
Maximum bra ket distance cutoff is 30.341056309758
Maximum bra ket screening distance is 20.781250000000
Number of auxiliary image is 173
There are 7128 shellpairs in the reference unit cell
There are 93 images and we expect to have 662904 in total
There are 47924 shellpairs in the lattice sum after screening
Available memory per thread for 2e3c calculation is 9.827506615000Gb
Finish initializing 2e3c SR with the lattice sum!
=================================================
======== Initialize the SR component for Vnuc (CC type) ========
Maximum bra distance cutoff is 21.000000000000
Maximum bra ket distance cutoff is 24.535535192035
Maximum bra ket screening distance is 14.360266990419
Number of auxiliary image is 117
There are 7128 shellpairs in the reference unit cell
There are 93 images and we expect to have 662904 in total
There are 47924 shellpairs in the lattice sum after screening
Available memory per thread for 2e3c calculation is 9.827506615000Gb
Finish initializing 2e3c SR with the lattice sum!
=================================================
 Aufbau occupation scheme, occupation determined by eigenvalue
 == 0-th k-point nmo = 456 (-0.16275,-0.14997,-0.11765) ==
 == 1-th k-point nmo = 456 (-0.16275,-0.14997,0.00000) ==
 == 2-th k-point nmo = 456 (-0.16275,-0.14997,0.11765) ==
 == 3-th k-point nmo = 456 (-0.16275,0.00000,-0.11765) ==
 == 4-th k-point nmo = 456 (-0.16275,0.00000,0.00000) ==
 == 5-th k-point nmo = 456 (-0.16275,0.00000,0.11765) ==
 == 6-th k-point nmo = 456 (-0.16275,0.14997,-0.11765) ==
 == 7-th k-point nmo = 456 (-0.16275,0.14997,0.00000) ==
 == 8-th k-point nmo = 456 (-0.16275,0.14997,0.11765) ==
 == 9-th k-point nmo = 456 (0.00000,-0.14997,-0.11765) ==
 == 10-th k-point nmo = 456 (0.00000,-0.14997,0.00000) ==
 == 11-th k-point nmo = 456 (0.00000,-0.14997,0.11765) ==
 == 12-th k-point nmo = 456 (0.00000,0.00000,-0.11765) ==
 == 13-th k-point nmo = 456 (0.00000,0.00000,0.00000) ==
 == 14-th k-point nmo = 456 (0.00000,0.00000,0.11765) ==
 == 15-th k-point nmo = 456 (0.00000,0.14997,-0.11765) ==
 == 16-th k-point nmo = 456 (0.00000,0.14997,0.00000) ==
 == 17-th k-point nmo = 456 (0.00000,0.14997,0.11765) ==
 == 18-th k-point nmo = 456 (0.16275,-0.14997,-0.11765) ==
 == 19-th k-point nmo = 456 (0.16275,-0.14997,0.00000) ==
 == 20-th k-point nmo = 456 (0.16275,-0.14997,0.11765) ==
 == 21-th k-point nmo = 456 (0.16275,0.00000,-0.11765) ==
 == 22-th k-point nmo = 456 (0.16275,0.00000,0.00000) ==
 == 23-th k-point nmo = 456 (0.16275,0.00000,0.11765) ==
 == 24-th k-point nmo = 456 (0.16275,0.14997,-0.11765) ==
 == 25-th k-point nmo = 456 (0.16275,0.14997,0.00000) ==
 == 26-th k-point nmo = 456 (0.16275,0.14997,0.11765) ==

 Generate autoSAD guess
backing up fragment data
Atom # 0: c, charge: 0, multiplicity: 3.000000
Atom # 1: h, charge: 0, multiplicity: 2.000000
writing autosad to fragment context
Settings for isolated fragments: 
  frgm_gamma: TRUE
  frgm_center: FALSE

    Running SCF for isolated atom #0
    Fragment Input file: /n/netscratch/joonholee_lab/Lab/hieudinh//nhome02hieudinhrsdf_test_full_Jbenchmark_nocdbenzenebenzene_crystal_ccpvdz_333.scratch20251118190843/autosad_frgmt_0/frgmt_input.in
    Fragment Output file: /n/netscratch/joonholee_lab/Lab/hieudinh//nhome02hieudinhrsdf_test_full_Jbenchmark_nocdbenzenebenzene_crystal_ccpvdz_333.scratch20251118190843/autosad_frgmt_0/frgmt_job.out
    Fragment job begins at Tue Nov 18 19:08:51 2025

 Integrated density by DFT XC:
   Numerical integral  =     6.000000000746
   Relative error      =     0.0000000124 %
Final energy components:
 DFT Correlation            Energy =  -0.14559494833987
 DFT Exchange               Energy =  -5.02589618902885
 Kinetic (alpha)            Energy =  20.10993496626133
 Kinetic (beta)             Energy =  17.53059876963701
 Nuclear Attraction (alpha) Energy = -48.81819257529153
 Nuclear Attraction (beta)  Energy = -39.28429195419328
 Nuclear Repulsion          Energy =   0.00000000000000
 SEOQF                      Energy =  -0.00000000041816
 Total Coulomb              Energy =  17.84490471134346
----------------------------------------------
    SCF Energy: -37.7885372200
   Total fragment job time:  0.61 s.
    Running SCF for isolated atom #1
    Fragment Input file: /n/netscratch/joonholee_lab/Lab/hieudinh//nhome02hieudinhrsdf_test_full_Jbenchmark_nocdbenzenebenzene_crystal_ccpvdz_333.scratch20251118190843/autosad_frgmt_1/frgmt_input.in
    Fragment Output file: /n/netscratch/joonholee_lab/Lab/hieudinh//nhome02hieudinhrsdf_test_full_Jbenchmark_nocdbenzenebenzene_crystal_ccpvdz_333.scratch20251118190843/autosad_frgmt_1/frgmt_job.out
    Fragment job begins at Tue Nov 18 19:08:52 2025

 Integrated density by DFT XC:
   Numerical integral  =     0.999999999853
   Relative error      =     0.0000000147 %
Final energy components:
 DFT Correlation            Energy =  -0.00600550223861
 DFT Exchange               Energy =  -0.30392201797186
 Kinetic (alpha)            Energy =   0.49286105286956
 Kinetic (beta)             Energy =   0.00000000000000
 Nuclear Attraction (alpha) Energy =  -0.99211713093072
 Nuclear Attraction (beta)  Energy =   0.00000000000000
 Nuclear Repulsion          Energy =   0.00000000000000
 SEOQF                      Energy =   0.00000000000000
 Total Coulomb              Energy =   0.31055607447687
----------------------------------------------
    SCF Energy: -0.4986275238
   Total fragment job time:  0.34 s.
restoring fragment data

 ------------------------------------------------------------------------
 Allocate 269556336 B from available memory: 314480211680 B
 Time for generating SCF guess: 1.02 s

 Allocate 931576 B from available memory: 314210655360 B
 Selected algorithms for each term:
  kpts_kinetic -> @0x1505363cd680
  kpts_nn -> @0x1505363cd800
  kpts_rij_bigmem -> @0x1505363cd3e0
  kpts_vnuc_df -> @0x1505363cd380
  kpts_xc -> @0x1505363cd2c0
 Time for computing kinetic matrix is 2.02 s
Start calculating Vnuc CC type!
 Time for computing nuclear attraction matrix is 3.77 s
Compute (P|Q) and solve linear equation on the fly!
Maximum distance between P and Q is 28.50858473946434
Number of images for (P|Qn) is 161
 Time for computing 2e2c SR integral without init time is 1.31 s
 Time for computing 2e2c SR integral is 1.37 s
Maximum dynamic memory per thread for 2e3c SR integrals: 0.307 GiB
Batch size for basis function pair is 103248 out of 103248
 === bvk cell = 0 has 89.191 % of the basis function pairs === 
 === bvk cell = 1 has 33.094 % of the basis function pairs === 
 === bvk cell = 2 has 33.412 % of the basis function pairs === 
 === bvk cell = 3 has 48.108 % of the basis function pairs === 
 === bvk cell = 4 has 12.663 % of the basis function pairs === 
 === bvk cell = 5 has 14.599 % of the basis function pairs === 
 === bvk cell = 6 has 49.073 % of the basis function pairs === 
 === bvk cell = 7 has 14.911 % of the basis function pairs === 
 === bvk cell = 8 has 12.864 % of the basis function pairs === 
 === bvk cell = 9 has 54.125 % of the basis function pairs === 
 === bvk cell = 10 has 15.502 % of the basis function pairs === 
 === bvk cell = 11 has 15.652 % of the basis function pairs === 
 === bvk cell = 12 has 24.117 % of the basis function pairs === 
 === bvk cell = 13 has 5.020 % of the basis function pairs === 
 === bvk cell = 14 has 6.624 % of the basis function pairs === 
 === bvk cell = 15 has 24.366 % of the basis function pairs === 
 === bvk cell = 16 has 6.239 % of the basis function pairs === 
 === bvk cell = 17 has 5.160 % of the basis function pairs === 
 === bvk cell = 18 has 54.717 % of the basis function pairs === 
 === bvk cell = 19 has 15.642 % of the basis function pairs === 
 === bvk cell = 20 has 15.875 % of the basis function pairs === 
 === bvk cell = 21 has 24.190 % of the basis function pairs === 
 === bvk cell = 22 has 5.319 % of the basis function pairs === 
 === bvk cell = 23 has 6.090 % of the basis function pairs === 
 === bvk cell = 24 has 25.029 % of the basis function pairs === 
 === bvk cell = 25 has 7.035 % of the basis function pairs === 
 === bvk cell = 26 has 5.150 % of the basis function pairs === 
Static memory requirement for 2e3c SR integrals: 12.553 GB
There are 1 munu batches for computing 2e3c SR integrals with latsum
There are 42 Q batches for computing 2e3c SR integrals with latsum
 Time for computing 2e3c SR integral (CC) is 28.13 s
 Time for RI-J this SCF iteration is 31.41 s
 Time for RI-J this SCF iteration is 2.18 s
 ----------------------------------------------
 Guess energy: -927.2640302449
 ----------------------------------------------
 Guess energy components:
 DFT Correlation    Energy =  -5.61579276326565
 DFT Exchange       Energy = -134.42775615836945
 Kinetic            Energy = 933.95170541803236
 Nuclear Attraction Energy = -1957.15455136265177
 Nuclear Repulsion  Energy = -128.08132826085716
 Total Coulomb      Energy = 364.06369288222248
 ----------------------------------------------
  Cycle       Energy         DIIS error
 ----------------------------------------------
 Time for RI-J this SCF iteration is 1.95 s
    1    -926.9678870429      2.95e-03  
 Energy components after cycle 1:
 DFT Correlation    Energy =  -5.53334194419417
 DFT Exchange       Energy = -130.47964288833151
 Kinetic            Energy = 910.83260903624796
 Nuclear Attraction Energy = -1897.77744669812637
 Nuclear Repulsion  Energy = -128.08132826085716
 Total Coulomb      Energy = 324.07126371232090
    2    -926.9678870429      3.78e-03  
 Energy components after cycle 2:
 DFT Correlation    Energy =  -5.53334194419417
 DFT Exchange       Energy = -130.47964288833151
 Kinetic            Energy = 910.83260903624796
 Nuclear Attraction Energy = -1897.77744669812637
 Nuclear Repulsion  Energy = -128.08132826085716
 Total Coulomb      Energy = 324.07126371232090
 ----------------------------------------------
  Cycle       Energy        RMS Gradient
 ----------------------------------------------
 Time for RI-J this SCF iteration is 1.79 s
    1    -927.1404457087      1.86e-01   Descent step
 Energy components after cycle 1:
 DFT Correlation    Energy =  -5.53772945963245
 DFT Exchange       Energy = -130.66777499123000
 Kinetic            Energy = 911.96292572597349
 Nuclear Attraction Energy = -1901.09446604521099
 Nuclear Repulsion  Energy = -128.08132826085716
 Total Coulomb      Energy = 326.27792732221064
 Time for RI-J this SCF iteration is 1.79 s
    2    -927.2927969837      1.66e-01   Descent step
 Energy components after cycle 2:
 DFT Correlation    Energy =  -5.54222839508089
 DFT Exchange       Energy = -130.85816806712580
 Kinetic            Energy = 913.10601002209751
 Nuclear Attraction Energy = -1904.41255949104175
 Nuclear Repulsion  Energy = -128.08132826085716
 Total Coulomb      Energy = 328.49547720835744
 Time for RI-J this SCF iteration is 1.76 s
    3    -927.4252660151      1.46e-01   Descent step
 Energy components after cycle 3:
 DFT Correlation    Energy =  -5.54684263137416
 DFT Exchange       Energy = -131.05098512909925
 Kinetic            Energy = 914.26253513822940
 Nuclear Attraction Energy = -1907.73323474615290
 Nuclear Repulsion  Energy = -128.08132826085716
 Total Coulomb      Energy = 330.72458961417044
    3    -927.4252660151      1.46e-01
 ----------------------------------------------
 Final energy components:
 DFT Correlation    Energy =  -5.54684263137416
 DFT Exchange       Energy = -131.05098512909925
 Kinetic            Energy = 914.26253513822940
 Nuclear Attraction Energy = -1907.73323474615290
 Nuclear Repulsion  Energy = -128.08132826085716
 Total Coulomb      Energy = 330.72458961417044
 ----------------------------------------------
