                  Welcome to Q-Chem
           with Periodic Boundary Condition
     A Quantum Leap Into The Future Of Chemistry

 Adam Rettig, Xintian Feng, Meng-Fu Chen, Hieu Dinh, Stephen Quiton,
 Anton Ni, Paul J. Robinson, Jinghong Zhang, Joonho Lee

Contributors to earlier versions of Q-Chem not listed above:
 Evgeny Epifanovsky, Leo Cunha, Jerome F. Gonthier, Kuan-Yu Liu
 Input file: /n/netscratch/joonholee_lab/Lab/hieudinh//mgo_slab_mgo_ghost_def2qzvp_omega_0.4_111.scratch20250917133620/mgo_slab_mgo_ghost_def2qzvp_omega_0.4_111.0
 Scratch folder: /n/netscratch/joonholee_lab/Lab/hieudinh//mgo_slab_mgo_ghost_def2qzvp_omega_0.4_111.scratch20250917133620
 Auxillary files located at: /n/home02/hieudinh/qcpbc/qcaux
 Q-Chem begins on Wed Sep 17 13:36:21 2025

 -------------------------------------------------------------
 User input:
 -------------------------------------------------------------
 $lattice
 3
 11.9443159104 0.0000000000 0.0000000000
 0.0000000000 11.9443159104 0.0000000000
 0.0000000000 0.0000000000 21.6602222298
 $end
 
 $unitcell
 ABSOLUTE
 0 1
 C   1.4930428341    1.4930432491    5.5284856213
 @Mg   0.0000000000    0.0000000000    1.0000000000
 @Mg   8.9582369328    5.9721579552    1.0000000000
 @Mg   2.9860789776    5.9721579552    1.0000000000
 @Mg   2.9860789776    8.9582369328    1.0000000000
 @Mg   5.9721579552    0.0000000000    1.0000000000
 @Mg   5.9721579552    2.9860789776    1.0000000000
 @Mg   5.9721579552    5.9721579552    1.0000000000
 @Mg   8.9582369328    2.9860789776    1.0000000000
 @Mg   5.9721579552    8.9582369328    1.0000000000
 @Mg   8.9582369328    0.0000000000    1.0000000000
 @Mg   2.9860789776    2.9860789776    1.0000000000
 @Mg   8.9582369328    8.9582369328    1.0000000000
 @Mg   0.0000000000    8.9582369328    1.0000000000
 @Mg   0.0000000000    2.9860789776    1.0000000000
 @Mg   0.0000000000    5.9721579552    1.0000000000
 @Mg   2.9860789776    0.0000000000    1.0000000000
 @Mg   1.4930343349    1.4930374153    3.1511187175
 @Mg   7.4651977897   10.4517004415    3.1114386205
 @Mg   7.4651969790    7.4651968898    3.1112699448
 @Mg   1.4930327857    4.4811832720    3.1056362779
 @Mg   7.4651966404    4.4786922443    3.1114383107
 @Mg   4.4811624032    1.4930368520    3.1056318890
 @Mg  10.4496839597    4.4807048989    3.1095898700
 @Mg   1.4930399629    7.4651963524    3.1116080311
 @Mg  10.4496925734   10.4496968378    3.1095846708
 @Mg   4.4807088948   10.4496904623    3.1095885984
 @Mg   4.4786954624    7.4651978298    3.1114386978
 @Mg   1.4930424686   10.4492084126    3.1056383774
 @Mg  10.4516980458    7.4651970662    3.1114406695
 @Mg   4.4807013212    4.4807040921    3.1095854125
 @Mg   7.4651986133    1.4930389816    3.1116104730
 @Mg  10.4492249714    1.4930441995    3.1056280117
 @O  10.4512759328    1.4930390000    1.0000000000
 @O   4.4791179776   10.4512759328    1.0000000000
 @O   7.4651969552    1.4930390000    1.0000000000
 @O   4.4791179776    4.4791179776    1.0000000000
 @O  10.4512759328    4.4791179776    1.0000000000
 @O   7.4651969552    7.4651969552    1.0000000000
 @O   7.4651969552   10.4512759328    1.0000000000
 @O   7.4651969552    4.4791179776    1.0000000000
 @O   4.4791179776    7.4651969552    1.0000000000
 @O   1.4930390000   10.4512759328    1.0000000000
 @O  10.4512759328    7.4651969552    1.0000000000
 @O   1.4930390000    4.4791179776    1.0000000000
 @O   1.4930390000    7.4651969552    1.0000000000
 @O   1.4930390000    1.4930390000    1.0000000000
 @O   4.4791179776    1.4930390000    1.0000000000
 @O  10.4512759328   10.4512759328    1.0000000000
 @O   8.9580238897    5.9723685818    3.1594644112
 @O   8.9570961456    2.9857717252    3.1600752389
 @O   8.9570985067    0.0003085838    3.1600738373
 @O   2.9857747423    8.9570945142    3.1600737733
 @O   5.9723690642    5.9723696033    3.1594610725
 @O   5.9732960489    2.9857717265    3.1600713997
 @O   5.9732976356    0.0003062885    3.1600713024
 @O   2.9857711850    5.9732998192    3.1600740469
 @O   2.9950544541    2.9950623702    3.1548459568
 @O   2.9950599166   -0.0089867212    3.1548507549
 @O   0.0003060319    8.9570959750    3.1600745678
 @O   0.0003045736    5.9732996331    3.1600758940
 @O  -0.0089879078    2.9950667318    3.1548429191
 @O  -0.0089805134   -0.0089799254    3.1548482730
 @O   5.9723706153    8.9580251994    3.1594625961
 @O   8.9580250454    8.9580263132    3.1594616543
 O   1.4930495812    1.4930407413    6.6690780399
 $end
 
 $rem
 jobtype = sp
 method = pbe
 dft_d = 6
 scf_convergence = 5
 scf_guess = autosad
 scf_algorithm = gdm
 basis = def2-qzvp
 aux_basis = rij-def2-qzvp
 input_bohr = false
 is_basis_uctr = false
 symmetry = false
 do_nonortho true
 
 mp_mesh = [1,1,1]
 
 integral_direct true
 bvk_cgto true
 symmetry false
 rsdf_print_level 1
 
 thresh 14
 mem_total 500000
 threads 32
 
 MAX_SCF_CYCLES 500
 madelung = false
 omega 0.4
 do_rij_bigmem true
 automate_g true
 print_level 10
 grid_type_xc 1
 
 thresh_1e2c_sp 1e-14
 thresh_2e3c_bra_ket_sep 1e-10
 thresh_g 1e-12
 $end
 
 $rem_autosad
 incfock 1000
 scf_algorithm gdm_ls
 $end
 
 -------------------------------------------------------------
 Running PBC job

 Requested Exchange Correlation Functionals: 
  DFT Exchange:  1.00000 pbe_x
  DFT Correlation:  1.00000 pbe_c
 using 32 threads for computing.
 ---------------------------------------------------------------
      Coordinates of Atoms in Central Unit Cell (Angstroms)
    I     Atom         X            Y            Z
 ---------------------------------------------------------------
    1       C      1.493043     1.493043     5.528486
    2     @Mg      0.000000     0.000000     1.000000
    3     @Mg      8.958237     5.972158     1.000000
    4     @Mg      2.986079     5.972158     1.000000
    5     @Mg      2.986079     8.958237     1.000000
    6     @Mg      5.972158     0.000000     1.000000
    7     @Mg      5.972158     2.986079     1.000000
    8     @Mg      5.972158     5.972158     1.000000
    9     @Mg      8.958237     2.986079     1.000000
   10     @Mg      5.972158     8.958237     1.000000
   11     @Mg      8.958237     0.000000     1.000000
   12     @Mg      2.986079     2.986079     1.000000
   13     @Mg      8.958237     8.958237     1.000000
   14     @Mg      0.000000     8.958237     1.000000
   15     @Mg      0.000000     2.986079     1.000000
   16     @Mg      0.000000     5.972158     1.000000
   17     @Mg      2.986079     0.000000     1.000000
   18     @Mg      1.493034     1.493037     3.151119
   19     @Mg      7.465198    10.451700     3.111439
   20     @Mg      7.465197     7.465197     3.111270
   21     @Mg      1.493033     4.481183     3.105636
   22     @Mg      7.465197     4.478692     3.111438
   23     @Mg      4.481162     1.493037     3.105632
   24     @Mg     10.449684     4.480705     3.109590
   25     @Mg      1.493040     7.465196     3.111608
   26     @Mg     10.449693    10.449697     3.109585
   27     @Mg      4.480709    10.449690     3.109589
   28     @Mg      4.478695     7.465198     3.111439
   29     @Mg      1.493042    10.449208     3.105638
   30     @Mg     10.451698     7.465197     3.111441
   31     @Mg      4.480701     4.480704     3.109585
   32     @Mg      7.465199     1.493039     3.111610
   33     @Mg     10.449225     1.493044     3.105628
   34      @O     10.451276     1.493039     1.000000
   35      @O      4.479118    10.451276     1.000000
   36      @O      7.465197     1.493039     1.000000
   37      @O      4.479118     4.479118     1.000000
   38      @O     10.451276     4.479118     1.000000
   39      @O      7.465197     7.465197     1.000000
   40      @O      7.465197    10.451276     1.000000
   41      @O      7.465197     4.479118     1.000000
   42      @O      4.479118     7.465197     1.000000
   43      @O      1.493039    10.451276     1.000000
   44      @O     10.451276     7.465197     1.000000
   45      @O      1.493039     4.479118     1.000000
   46      @O      1.493039     7.465197     1.000000
   47      @O      1.493039     1.493039     1.000000
   48      @O      4.479118     1.493039     1.000000
   49      @O     10.451276    10.451276     1.000000
   50      @O      8.958024     5.972369     3.159464
   51      @O      8.957096     2.985772     3.160075
   52      @O      8.957099     0.000309     3.160074
   53      @O      2.985775     8.957095     3.160074
   54      @O      5.972369     5.972370     3.159461
   55      @O      5.973296     2.985772     3.160071
   56      @O      5.973298     0.000306     3.160071
   57      @O      2.985771     5.973300     3.160074
   58      @O      2.995054     2.995062     3.154846
   59      @O      2.995060    -0.008987     3.154851
   60      @O      0.000306     8.957096     3.160075
   61      @O      0.000305     5.973300     3.160076
   62      @O     -0.008988     2.995067     3.154843
   63      @O     -0.008981    -0.008980     3.154848
   64      @O      5.972371     8.958025     3.159463
   65      @O      8.958025     8.958026     3.159462
   66       O      1.493050     1.493041     6.669078
 ---------------------------------------------------------------
 --------------------------------------------------
              Lattice Vectors (Angstroms)
              X            Y            Z
 --------------------------------------------------
   X      11.944316     0.000000     0.000000
   Y       0.000000    11.944316     0.000000
   Z       0.000000     0.000000    21.660222
 --------------------------------------------------
 --------------------------------------------------
       Reciprocal Lattice Vectors (Angstroms^-1)
              X            Y            Z
 --------------------------------------------------
   X       0.526040     0.000000     0.000000
   Y       0.000000     0.526040     0.000000
   Z       0.000000     0.000000     0.290079
 --------------------------------------------------

 Single point calculation requested

 Hamiltonian contributions:
 List of terms in Hamiltonian: kpts_nn, kpts_kinetic, kpts_vnuc_df, kpts_xc, kpts_rij_bigmem, kpts_dftd3

 K-Points calculation started.

 Basis set information about using solid harmonic (1) or Cartesian (0):
  c : D(1) D(1) D(1) F(1) F(1) G(1) 
  o : D(1) D(1) D(1) F(1) F(1) G(1) 
  mg : D(1) D(1) D(1) D(1) F(1) 

 Basis set information about using solid harmonic (1) or Cartesian (0):
  c : D(1) D(1) D(1) F(1) G(1) 
  o : D(1) D(1) D(1) F(1) G(1) 
  mg : D(1) D(1) D(1) D(1) F(1) G(1) 

 There are 3570 basis functions in the central unit cell.
 Print atomic basis of atoms in the central unit cell:
 -------------------------------------------------------------
66 2170 2170 1186

  2.82144204878407e+00  2.82144283302041e+00  1.04473237081885e+01
  0.00000000000000e+00  0.00000000000000e+00  1.88972612462577e+00
  1.69286143624996e+01  1.12857429083331e+01  1.88972612462577e+00
  5.64287145416653e+00  1.12857429083331e+01  1.88972612462577e+00
  5.64287145416653e+00  1.69286143624996e+01  1.88972612462577e+00
  1.12857429083331e+01  0.00000000000000e+00  1.88972612462577e+00
  1.12857429083331e+01  5.64287145416653e+00  1.88972612462577e+00
  1.12857429083331e+01  1.12857429083331e+01  1.88972612462577e+00
  1.69286143624996e+01  5.64287145416653e+00  1.88972612462577e+00
  1.12857429083331e+01  1.69286143624996e+01  1.88972612462577e+00
  1.69286143624996e+01  0.00000000000000e+00  1.88972612462577e+00
  5.64287145416653e+00  5.64287145416653e+00  1.88972612462577e+00
  1.69286143624996e+01  1.69286143624996e+01  1.88972612462577e+00
  0.00000000000000e+00  1.69286143624996e+01  1.88972612462577e+00
  0.00000000000000e+00  5.64287145416653e+00  1.88972612462577e+00
  0.00000000000000e+00  1.12857429083331e+01  1.88972612462577e+00
  5.64287145416653e+00  0.00000000000000e+00  1.88972612462577e+00
  2.82142598762379e+00  2.82143180873615e+00  5.95475136225700e+00
  1.41071792886946e+01  1.97508513710652e+01  5.87976684632842e+00
  1.41071777566937e+01  1.41071775881301e+01  5.87944809545154e+00
  2.82142306006008e+00  8.46820909833439e+00  5.86880200793317e+00
  1.41071771168324e+01  8.46350173821253e+00  5.87976626089126e+00
  8.46816966201784e+00  2.82143074425342e+00  5.86879371411418e+00
  1.97470407727280e+01  8.46730510419000e+00  5.87627321421065e+00
  2.82143662300242e+00  1.41071765725913e+01  5.88008698596503e+00
  1.97470570502619e+01  1.97470651088100e+01  5.87626338914658e+00
  8.46731265534662e+00  1.97470530608611e+01  5.87627081123491e+00
  8.46350781954017e+00  1.41071793644727e+01  5.87976699240425e+00
  2.82144135808917e+00  1.97461421189496e+01  5.86880597541317e+00
  1.97508468438484e+01  1.41071779214778e+01  5.87977071837725e+00
  8.46729834331684e+00  8.46730357955896e+00  5.87626479075645e+00
  1.41071808450731e+01  2.82143476861417e+00  5.88009160048725e+00
  1.97461734105465e+01  2.82144462901612e+00  5.86878638707908e+00
  1.97500491658847e+01  2.82143480338514e+00  1.88972612462577e+00
  8.46430625755166e+00  1.97500491658847e+01  1.88972612462577e+00
  1.41071777117182e+01  2.82143480338514e+00  1.88972612462577e+00
  8.46430625755166e+00  8.46430625755166e+00  1.88972612462577e+00
  1.97500491658847e+01  8.46430625755166e+00  1.88972612462577e+00
  1.41071777117182e+01  1.41071777117182e+01  1.88972612462577e+00
  1.41071777117182e+01  1.97500491658847e+01  1.88972612462577e+00
  1.41071777117182e+01  8.46430625755166e+00  1.88972612462577e+00
  8.46430625755166e+00  1.41071777117182e+01  1.88972612462577e+00
  2.82143480338514e+00  1.97500491658847e+01  1.88972612462577e+00
  1.97500491658847e+01  1.41071777117182e+01  1.88972612462577e+00
  2.82143480338514e+00  8.46430625755166e+00  1.88972612462577e+00
  2.82143480338514e+00  1.41071777117182e+01  1.88972612462577e+00
  2.82143480338514e+00  2.82143480338514e+00  1.88972612462577e+00
  8.46430625755166e+00  2.82143480338514e+00  1.88972612462577e+00
  1.97500491658847e+01  1.97500491658847e+01  1.88972612462577e+00
  1.69282117693878e+01  1.12861409349216e+01  5.97052243767002e+00
  1.69264585871251e+01  5.64229083127940e+00  5.97167673473235e+00
  1.69264630489575e+01  5.83138868496294e-04  5.97167408609222e+00
  5.64229653277209e+00  1.69264555042259e+01  5.97167396514974e+00
  1.12861418465255e+01  1.12861428652769e+01  5.97051612844141e+00
  1.12878935937302e+01  5.64229083373604e+00  5.97166947969581e+00
  1.12878965921587e+01  5.78801380122440e-04  5.97166929582546e+00
  5.64228981044934e+00  1.12879007185646e+01  5.97167448217881e+00
  5.65983264658954e+00  5.65984760585052e+00  5.96179482373494e+00
  5.65984296921850e+00 -1.69824418263683e-02  5.96180389082986e+00
  5.78316476398861e-04  1.69264582647378e+01  5.97167546653715e+00
  5.75560688791319e-04  1.12879003668866e+01  5.97167797269194e+00
 -1.69846841753877e-02  5.65985584807999e+00  5.96178908331389e+00
 -1.69707107845318e-02 -1.69695996255705e-02  5.96179920071859e+00
  1.12861447776797e+01  1.69282142443622e+01  5.97051900762813e+00
  1.69282139533443e+01  1.69282163491391e+01  5.97051722788406e+00
  2.82145479895521e+00  2.82143809396524e+00  1.26027309991671e+01

  6.70250710290000e+04
  1.00399865380000e+04
  2.28493169110000e+03
  6.47141221300000e+02
  2.11094723350000e+02
  7.61776438620000e+01
  2.96338391630000e+01
  1.21877850810000e+01
  5.30260062990000e+01
  1.52585027760000e+01
  5.24039574640000e+00
  2.29050223790000e+00
  6.96732830060000e-01
  2.75993373630000e-01
  1.07398843890000e-01
  1.05125550820000e+02
  2.48844610660000e+01
  7.86372308260000e+00
  2.84070018350000e+00
  1.12271373350000e+00
  4.60507255550000e-01
  1.89375309130000e-01
  7.59837916110000e-02
  1.84800000000000e+00
  6.49000000000000e-01
  2.28000000000000e-01
  1.41900000000000e+00
  4.85000000000000e-01
  1.01100000000000e+00
  6.05967787530000e+05
  9.05690946920000e+04
  2.05742528440000e+04
  5.81862848650000e+03
  1.89562960750000e+03
  6.83459410210000e+02
  2.66182197620000e+02
  1.10112200100000e+02
  4.77770412340000e+01
  2.15421661490000e+01
  1.74121363780000e+02
  5.34849724980000e+01
  2.05002133070000e+01
  9.80568269220000e+00
  3.54029893480000e+00
  1.54508500460000e+00
  6.65401954320000e-01
  1.43554390710000e-01
  6.66246734680000e-02
  2.97726482660000e-02
  8.93204608290000e+02
  2.11782582860000e+02
  6.84432005370000e+01
  2.57272653490000e+01
  1.06066342810000e+01
  4.59341264840000e+00
  2.01004698070000e+00
  8.73848415360000e-01
  3.56150766660000e-01
  1.89959543560000e-01
  7.45801356690000e-02
  2.92216413090000e-02
  3.81000000000000e+00
  6.50000000000000e-01
  2.00000000000000e-01
  5.20000000000000e-02
  1.60000000000000e-01
  6.05967787530000e+05
  9.05690946920000e+04
  2.05742528440000e+04
  5.81862848650000e+03
  1.89562960750000e+03
  6.83459410210000e+02
  2.66182197620000e+02
  1.10112200100000e+02
  4.77770412340000e+01
  2.15421661490000e+01
  1.74121363780000e+02
  5.34849724980000e+01
  2.05002133070000e+01
  9.80568269220000e+00
  3.54029893480000e+00
  1.54508500460000e+00
  6.65401954320000e-01
  1.43554390710000e-01
  6.66246734680000e-02
  2.97726482660000e-02
  8.93204608290000e+02
  2.11782582860000e+02
  6.84432005370000e+01
  2.57272653490000e+01
  1.06066342810000e+01
  4.59341264840000e+00
  2.01004698070000e+00
  8.73848415360000e-01
  3.56150766660000e-01
  1.89959543560000e-01
  7.45801356690000e-02
  2.92216413090000e-02
  3.81000000000000e+00
  6.50000000000000e-01
  2.00000000000000e-01
  5.20000000000000e-02
  1.60000000000000e-01
  6.05967787530000e+05
  9.05690946920000e+04
  2.05742528440000e+04
  5.81862848650000e+03
  1.89562960750000e+03
  6.83459410210000e+02
  2.66182197620000e+02
  1.10112200100000e+02
  4.77770412340000e+01
  2.15421661490000e+01
  1.74121363780000e+02
  5.34849724980000e+01
  2.05002133070000e+01
  9.80568269220000e+00
  3.54029893480000e+00
  1.54508500460000e+00
  6.65401954320000e-01
  1.43554390710000e-01
  6.66246734680000e-02
  2.97726482660000e-02
  8.93204608290000e+02
  2.11782582860000e+02
  6.84432005370000e+01
  2.57272653490000e+01
  1.06066342810000e+01
  4.59341264840000e+00
  2.01004698070000e+00
  8.73848415360000e-01
  3.56150766660000e-01
  1.89959543560000e-01
  7.45801356690000e-02
  2.92216413090000e-02
  3.81000000000000e+00
  6.50000000000000e-01
  2.00000000000000e-01
  5.20000000000000e-02
  1.60000000000000e-01
  6.05967787530000e+05
  9.05690946920000e+04
  2.05742528440000e+04
  5.81862848650000e+03
  1.89562960750000e+03
  6.83459410210000e+02
  2.66182197620000e+02
  1.10112200100000e+02
  4.77770412340000e+01
  2.15421661490000e+01
  1.74121363780000e+02
  5.34849724980000e+01
  2.05002133070000e+01
  9.80568269220000e+00
  3.54029893480000e+00
  1.54508500460000e+00
  6.65401954320000e-01
  1.43554390710000e-01
  6.66246734680000e-02
  2.97726482660000e-02
  8.93204608290000e+02
  2.11782582860000e+02
  6.84432005370000e+01
  2.57272653490000e+01
  1.06066342810000e+01
  4.59341264840000e+00
  2.01004698070000e+00
  8.73848415360000e-01
  3.56150766660000e-01
  1.89959543560000e-01
  7.45801356690000e-02
  2.92216413090000e-02
  3.81000000000000e+00
  6.50000000000000e-01
  2.00000000000000e-01
  5.20000000000000e-02
  1.60000000000000e-01
  6.05967787530000e+05
  9.05690946920000e+04
  2.05742528440000e+04
  5.81862848650000e+03
  1.89562960750000e+03
  6.83459410210000e+02
  2.66182197620000e+02
  1.10112200100000e+02
  4.77770412340000e+01
  2.15421661490000e+01
  1.74121363780000e+02
  5.34849724980000e+01
  2.05002133070000e+01
  9.80568269220000e+00
  3.54029893480000e+00
  1.54508500460000e+00
  6.65401954320000e-01
  1.43554390710000e-01
  6.66246734680000e-02
  2.97726482660000e-02
  8.93204608290000e+02
  2.11782582860000e+02
  6.84432005370000e+01
  2.57272653490000e+01
  1.06066342810000e+01
  4.59341264840000e+00
  2.01004698070000e+00
  8.73848415360000e-01
  3.56150766660000e-01
  1.89959543560000e-01
  7.45801356690000e-02
  2.92216413090000e-02
  3.81000000000000e+00
  6.50000000000000e-01
  2.00000000000000e-01
  5.20000000000000e-02
  1.60000000000000e-01
  6.05967787530000e+05
  9.05690946920000e+04
  2.05742528440000e+04
  5.81862848650000e+03
  1.89562960750000e+03
  6.83459410210000e+02
  2.66182197620000e+02
  1.10112200100000e+02
  4.77770412340000e+01
  2.15421661490000e+01
  1.74121363780000e+02
  5.34849724980000e+01
  2.05002133070000e+01
  9.80568269220000e+00
  3.54029893480000e+00
  1.54508500460000e+00
  6.65401954320000e-01
  1.43554390710000e-01
  6.66246734680000e-02
  2.97726482660000e-02
  8.93204608290000e+02
  2.11782582860000e+02
  6.84432005370000e+01
  2.57272653490000e+01
  1.06066342810000e+01
  4.59341264840000e+00
  2.01004698070000e+00
  8.73848415360000e-01
  3.56150766660000e-01
  1.89959543560000e-01
  7.45801356690000e-02
  2.92216413090000e-02
  3.81000000000000e+00
  6.50000000000000e-01
  2.00000000000000e-01
  5.20000000000000e-02
  1.60000000000000e-01
  6.05967787530000e+05
  9.05690946920000e+04
  2.05742528440000e+04
  5.81862848650000e+03
  1.89562960750000e+03
  6.83459410210000e+02
  2.66182197620000e+02
  1.10112200100000e+02
  4.77770412340000e+01
  2.15421661490000e+01
  1.74121363780000e+02
  5.34849724980000e+01
  2.05002133070000e+01
  9.80568269220000e+00
  3.54029893480000e+00
  1.54508500460000e+00
  6.65401954320000e-01
  1.43554390710000e-01
  6.66246734680000e-02
  2.97726482660000e-02
  8.93204608290000e+02
  2.11782582860000e+02
  6.84432005370000e+01
  2.57272653490000e+01
  1.06066342810000e+01
  4.59341264840000e+00
  2.01004698070000e+00
  8.73848415360000e-01
  3.56150766660000e-01
  1.89959543560000e-01
  7.45801356690000e-02
  2.92216413090000e-02
  3.81000000000000e+00
  6.50000000000000e-01
  2.00000000000000e-01
  5.20000000000000e-02
  1.60000000000000e-01
  6.05967787530000e+05
  9.05690946920000e+04
  2.05742528440000e+04
  5.81862848650000e+03
  1.89562960750000e+03
  6.83459410210000e+02
  2.66182197620000e+02
  1.10112200100000e+02
  4.77770412340000e+01
  2.15421661490000e+01
  1.74121363780000e+02
  5.34849724980000e+01
  2.05002133070000e+01
  9.80568269220000e+00
  3.54029893480000e+00
  1.54508500460000e+00
  6.65401954320000e-01
  1.43554390710000e-01
  6.66246734680000e-02
  2.97726482660000e-02
  8.93204608290000e+02
  2.11782582860000e+02
  6.84432005370000e+01
  2.57272653490000e+01
  1.06066342810000e+01
  4.59341264840000e+00
  2.01004698070000e+00
  8.73848415360000e-01
  3.56150766660000e-01
  1.89959543560000e-01
  7.45801356690000e-02
  2.92216413090000e-02
  3.81000000000000e+00
  6.50000000000000e-01
  2.00000000000000e-01
  5.20000000000000e-02
  1.60000000000000e-01
  6.05967787530000e+05
  9.05690946920000e+04
  2.05742528440000e+04
  5.81862848650000e+03
  1.89562960750000e+03
  6.83459410210000e+02
  2.66182197620000e+02
  1.10112200100000e+02
  4.77770412340000e+01
  2.15421661490000e+01
  1.74121363780000e+02
  5.34849724980000e+01
  2.05002133070000e+01
  9.80568269220000e+00
  3.54029893480000e+00
  1.54508500460000e+00
  6.65401954320000e-01
  1.43554390710000e-01
  6.66246734680000e-02
  2.97726482660000e-02
  8.93204608290000e+02
  2.11782582860000e+02
  6.84432005370000e+01
  2.57272653490000e+01
  1.06066342810000e+01
  4.59341264840000e+00
  2.01004698070000e+00
  8.73848415360000e-01
  3.56150766660000e-01
  1.89959543560000e-01
  7.45801356690000e-02
  2.92216413090000e-02
  3.81000000000000e+00
  6.50000000000000e-01
  2.00000000000000e-01
  5.20000000000000e-02
  1.60000000000000e-01
  6.05967787530000e+05
  9.05690946920000e+04
  2.05742528440000e+04
  5.81862848650000e+03
  1.89562960750000e+03
  6.83459410210000e+02
  2.66182197620000e+02
  1.10112200100000e+02
  4.77770412340000e+01
  2.15421661490000e+01
  1.74121363780000e+02
  5.34849724980000e+01
  2.05002133070000e+01
  9.80568269220000e+00
  3.54029893480000e+00
  1.54508500460000e+00
  6.65401954320000e-01
  1.43554390710000e-01
  6.66246734680000e-02
  2.97726482660000e-02
  8.93204608290000e+02
  2.11782582860000e+02
  6.84432005370000e+01
  2.57272653490000e+01
  1.06066342810000e+01
  4.59341264840000e+00
  2.01004698070000e+00
  8.73848415360000e-01
  3.56150766660000e-01
  1.89959543560000e-01
  7.45801356690000e-02
  2.92216413090000e-02
  3.81000000000000e+00
  6.50000000000000e-01
  2.00000000000000e-01
  5.20000000000000e-02
  1.60000000000000e-01
  6.05967787530000e+05
  9.05690946920000e+04
  2.05742528440000e+04
  5.81862848650000e+03
  1.89562960750000e+03
  6.83459410210000e+02
  2.66182197620000e+02
  1.10112200100000e+02
  4.77770412340000e+01
  2.15421661490000e+01
  1.74121363780000e+02
  5.34849724980000e+01
  2.05002133070000e+01
  9.80568269220000e+00
  3.54029893480000e+00
  1.54508500460000e+00
  6.65401954320000e-01
  1.43554390710000e-01
  6.66246734680000e-02
  2.97726482660000e-02
  8.93204608290000e+02
  2.11782582860000e+02
  6.84432005370000e+01
  2.57272653490000e+01
  1.06066342810000e+01
  4.59341264840000e+00
  2.01004698070000e+00
  8.73848415360000e-01
  3.56150766660000e-01
  1.89959543560000e-01
  7.45801356690000e-02
  2.92216413090000e-02
  3.81000000000000e+00
  6.50000000000000e-01
  2.00000000000000e-01
  5.20000000000000e-02
  1.60000000000000e-01
  6.05967787530000e+05
  9.05690946920000e+04
  2.05742528440000e+04
  5.81862848650000e+03
  1.89562960750000e+03
  6.83459410210000e+02
  2.66182197620000e+02
  1.10112200100000e+02
  4.77770412340000e+01
  2.15421661490000e+01
  1.74121363780000e+02
  5.34849724980000e+01
  2.05002133070000e+01
  9.80568269220000e+00
  3.54029893480000e+00
  1.54508500460000e+00
  6.65401954320000e-01
  1.43554390710000e-01
  6.66246734680000e-02
  2.97726482660000e-02
  8.93204608290000e+02
  2.11782582860000e+02
  6.84432005370000e+01
  2.57272653490000e+01
  1.06066342810000e+01
  4.59341264840000e+00
  2.01004698070000e+00
  8.73848415360000e-01
  3.56150766660000e-01
  1.89959543560000e-01
  7.45801356690000e-02
  2.92216413090000e-02
  3.81000000000000e+00
  6.50000000000000e-01
  2.00000000000000e-01
  5.20000000000000e-02
  1.60000000000000e-01
  6.05967787530000e+05
  9.05690946920000e+04
  2.05742528440000e+04
  5.81862848650000e+03
  1.89562960750000e+03
  6.83459410210000e+02
  2.66182197620000e+02
  1.10112200100000e+02
  4.77770412340000e+01
  2.15421661490000e+01
  1.74121363780000e+02
  5.34849724980000e+01
  2.05002133070000e+01
  9.80568269220000e+00
  3.54029893480000e+00
  1.54508500460000e+00
  6.65401954320000e-01
  1.43554390710000e-01
  6.66246734680000e-02
  2.97726482660000e-02
  8.93204608290000e+02
  2.11782582860000e+02
  6.84432005370000e+01
  2.57272653490000e+01
  1.06066342810000e+01
  4.59341264840000e+00
  2.01004698070000e+00
  8.73848415360000e-01
  3.56150766660000e-01
  1.89959543560000e-01
  7.45801356690000e-02
  2.92216413090000e-02
  3.81000000000000e+00
  6.50000000000000e-01
  2.00000000000000e-01
  5.20000000000000e-02
  1.60000000000000e-01
  6.05967787530000e+05
  9.05690946920000e+04
  2.05742528440000e+04
  5.81862848650000e+03
  1.89562960750000e+03
  6.83459410210000e+02
  2.66182197620000e+02
  1.10112200100000e+02
  4.77770412340000e+01
  2.15421661490000e+01
  1.74121363780000e+02
  5.34849724980000e+01
  2.05002133070000e+01
  9.80568269220000e+00
  3.54029893480000e+00
  1.54508500460000e+00
  6.65401954320000e-01
  1.43554390710000e-01
  6.66246734680000e-02
  2.97726482660000e-02
  8.93204608290000e+02
  2.11782582860000e+02
  6.84432005370000e+01
  2.57272653490000e+01
  1.06066342810000e+01
  4.59341264840000e+00
  2.01004698070000e+00
  8.73848415360000e-01
  3.56150766660000e-01
  1.89959543560000e-01
  7.45801356690000e-02
  2.92216413090000e-02
  3.81000000000000e+00
  6.50000000000000e-01
  2.00000000000000e-01
  5.20000000000000e-02
  1.60000000000000e-01
  6.05967787530000e+05
  9.05690946920000e+04
  2.05742528440000e+04
  5.81862848650000e+03
  1.89562960750000e+03
  6.83459410210000e+02
  2.66182197620000e+02
  1.10112200100000e+02
  4.77770412340000e+01
  2.15421661490000e+01
  1.74121363780000e+02
  5.34849724980000e+01
  2.05002133070000e+01
  9.80568269220000e+00
  3.54029893480000e+00
  1.54508500460000e+00
  6.65401954320000e-01
  1.43554390710000e-01
  6.66246734680000e-02
  2.97726482660000e-02
  8.93204608290000e+02
  2.11782582860000e+02
  6.84432005370000e+01
  2.57272653490000e+01
  1.06066342810000e+01
  4.59341264840000e+00
  2.01004698070000e+00
  8.73848415360000e-01
  3.56150766660000e-01
  1.89959543560000e-01
  7.45801356690000e-02
  2.92216413090000e-02
  3.81000000000000e+00
  6.50000000000000e-01
  2.00000000000000e-01
  5.20000000000000e-02
  1.60000000000000e-01
  6.05967787530000e+05
  9.05690946920000e+04
  2.05742528440000e+04
  5.81862848650000e+03
  1.89562960750000e+03
  6.83459410210000e+02
  2.66182197620000e+02
  1.10112200100000e+02
  4.77770412340000e+01
  2.15421661490000e+01
  1.74121363780000e+02
  5.34849724980000e+01
  2.05002133070000e+01
  9.80568269220000e+00
  3.54029893480000e+00
  1.54508500460000e+00
  6.65401954320000e-01
  1.43554390710000e-01
  6.66246734680000e-02
  2.97726482660000e-02
  8.93204608290000e+02
  2.11782582860000e+02
  6.84432005370000e+01
  2.57272653490000e+01
  1.06066342810000e+01
  4.59341264840000e+00
  2.01004698070000e+00
  8.73848415360000e-01
  3.56150766660000e-01
  1.89959543560000e-01
  7.45801356690000e-02
  2.92216413090000e-02
  3.81000000000000e+00
  6.50000000000000e-01
  2.00000000000000e-01
  5.20000000000000e-02
  1.60000000000000e-01
  6.05967787530000e+05
  9.05690946920000e+04
  2.05742528440000e+04
  5.81862848650000e+03
  1.89562960750000e+03
  6.83459410210000e+02
  2.66182197620000e+02
  1.10112200100000e+02
  4.77770412340000e+01
  2.15421661490000e+01
  1.74121363780000e+02
  5.34849724980000e+01
  2.05002133070000e+01
  9.80568269220000e+00
  3.54029893480000e+00
  1.54508500460000e+00
  6.65401954320000e-01
  1.43554390710000e-01
  6.66246734680000e-02
  2.97726482660000e-02
  8.93204608290000e+02
  2.11782582860000e+02
  6.84432005370000e+01
  2.57272653490000e+01
  1.06066342810000e+01
  4.59341264840000e+00
  2.01004698070000e+00
  8.73848415360000e-01
  3.56150766660000e-01
  1.89959543560000e-01
  7.45801356690000e-02
  2.92216413090000e-02
  3.81000000000000e+00
  6.50000000000000e-01
  2.00000000000000e-01
  5.20000000000000e-02
  1.60000000000000e-01
  6.05967787530000e+05
  9.05690946920000e+04
  2.05742528440000e+04
  5.81862848650000e+03
  1.89562960750000e+03
  6.83459410210000e+02
  2.66182197620000e+02
  1.10112200100000e+02
  4.77770412340000e+01
  2.15421661490000e+01
  1.74121363780000e+02
  5.34849724980000e+01
  2.05002133070000e+01
  9.80568269220000e+00
  3.54029893480000e+00
  1.54508500460000e+00
  6.65401954320000e-01
  1.43554390710000e-01
  6.66246734680000e-02
  2.97726482660000e-02
  8.93204608290000e+02
  2.11782582860000e+02
  6.84432005370000e+01
  2.57272653490000e+01
  1.06066342810000e+01
  4.59341264840000e+00
  2.01004698070000e+00
  8.73848415360000e-01
  3.56150766660000e-01
  1.89959543560000e-01
  7.45801356690000e-02
  2.92216413090000e-02
  3.81000000000000e+00
  6.50000000000000e-01
  2.00000000000000e-01
  5.20000000000000e-02
  1.60000000000000e-01
  6.05967787530000e+05
  9.05690946920000e+04
  2.05742528440000e+04
  5.81862848650000e+03
  1.89562960750000e+03
  6.83459410210000e+02
  2.66182197620000e+02
  1.10112200100000e+02
  4.77770412340000e+01
  2.15421661490000e+01
  1.74121363780000e+02
  5.34849724980000e+01
  2.05002133070000e+01
  9.80568269220000e+00
  3.54029893480000e+00
  1.54508500460000e+00
  6.65401954320000e-01
  1.43554390710000e-01
  6.66246734680000e-02
  2.97726482660000e-02
  8.93204608290000e+02
  2.11782582860000e+02
  6.84432005370000e+01
  2.57272653490000e+01
  1.06066342810000e+01
  4.59341264840000e+00
  2.01004698070000e+00
  8.73848415360000e-01
  3.56150766660000e-01
  1.89959543560000e-01
  7.45801356690000e-02
  2.92216413090000e-02
  3.81000000000000e+00
  6.50000000000000e-01
  2.00000000000000e-01
  5.20000000000000e-02
  1.60000000000000e-01
  6.05967787530000e+05
  9.05690946920000e+04
  2.05742528440000e+04
  5.81862848650000e+03
  1.89562960750000e+03
  6.83459410210000e+02
  2.66182197620000e+02
  1.10112200100000e+02
  4.77770412340000e+01
  2.15421661490000e+01
  1.74121363780000e+02
  5.34849724980000e+01
  2.05002133070000e+01
  9.80568269220000e+00
  3.54029893480000e+00
  1.54508500460000e+00
  6.65401954320000e-01
  1.43554390710000e-01
  6.66246734680000e-02
  2.97726482660000e-02
  8.93204608290000e+02
  2.11782582860000e+02
  6.84432005370000e+01
  2.57272653490000e+01
  1.06066342810000e+01
  4.59341264840000e+00
  2.01004698070000e+00
  8.73848415360000e-01
  3.56150766660000e-01
  1.89959543560000e-01
  7.45801356690000e-02
  2.92216413090000e-02
  3.81000000000000e+00
  6.50000000000000e-01
  2.00000000000000e-01
  5.20000000000000e-02
  1.60000000000000e-01
  6.05967787530000e+05
  9.05690946920000e+04
  2.05742528440000e+04
  5.81862848650000e+03
  1.89562960750000e+03
  6.83459410210000e+02
  2.66182197620000e+02
  1.10112200100000e+02
  4.77770412340000e+01
  2.15421661490000e+01
  1.74121363780000e+02
  5.34849724980000e+01
  2.05002133070000e+01
  9.80568269220000e+00
  3.54029893480000e+00
  1.54508500460000e+00
  6.65401954320000e-01
  1.43554390710000e-01
  6.66246734680000e-02
  2.97726482660000e-02
  8.93204608290000e+02
  2.11782582860000e+02
  6.84432005370000e+01
  2.57272653490000e+01
  1.06066342810000e+01
  4.59341264840000e+00
  2.01004698070000e+00
  8.73848415360000e-01
  3.56150766660000e-01
  1.89959543560000e-01
  7.45801356690000e-02
  2.92216413090000e-02
  3.81000000000000e+00
  6.50000000000000e-01
  2.00000000000000e-01
  5.20000000000000e-02
  1.60000000000000e-01
  6.05967787530000e+05
  9.05690946920000e+04
  2.05742528440000e+04
  5.81862848650000e+03
  1.89562960750000e+03
  6.83459410210000e+02
  2.66182197620000e+02
  1.10112200100000e+02
  4.77770412340000e+01
  2.15421661490000e+01
  1.74121363780000e+02
  5.34849724980000e+01
  2.05002133070000e+01
  9.80568269220000e+00
  3.54029893480000e+00
  1.54508500460000e+00
  6.65401954320000e-01
  1.43554390710000e-01
  6.66246734680000e-02
  2.97726482660000e-02
  8.93204608290000e+02
  2.11782582860000e+02
  6.84432005370000e+01
  2.57272653490000e+01
  1.06066342810000e+01
  4.59341264840000e+00
  2.01004698070000e+00
  8.73848415360000e-01
  3.56150766660000e-01
  1.89959543560000e-01
  7.45801356690000e-02
  2.92216413090000e-02
  3.81000000000000e+00
  6.50000000000000e-01
  2.00000000000000e-01
  5.20000000000000e-02
  1.60000000000000e-01
  6.05967787530000e+05
  9.05690946920000e+04
  2.05742528440000e+04
  5.81862848650000e+03
  1.89562960750000e+03
  6.83459410210000e+02
  2.66182197620000e+02
  1.10112200100000e+02
  4.77770412340000e+01
  2.15421661490000e+01
  1.74121363780000e+02
  5.34849724980000e+01
  2.05002133070000e+01
  9.80568269220000e+00
  3.54029893480000e+00
  1.54508500460000e+00
  6.65401954320000e-01
  1.43554390710000e-01
  6.66246734680000e-02
  2.97726482660000e-02
  8.93204608290000e+02
  2.11782582860000e+02
  6.84432005370000e+01
  2.57272653490000e+01
  1.06066342810000e+01
  4.59341264840000e+00
  2.01004698070000e+00
  8.73848415360000e-01
  3.56150766660000e-01
  1.89959543560000e-01
  7.45801356690000e-02
  2.92216413090000e-02
  3.81000000000000e+00
  6.50000000000000e-01
  2.00000000000000e-01
  5.20000000000000e-02
  1.60000000000000e-01
  6.05967787530000e+05
  9.05690946920000e+04
  2.05742528440000e+04
  5.81862848650000e+03
  1.89562960750000e+03
  6.83459410210000e+02
  2.66182197620000e+02
  1.10112200100000e+02
  4.77770412340000e+01
  2.15421661490000e+01
  1.74121363780000e+02
  5.34849724980000e+01
  2.05002133070000e+01
  9.80568269220000e+00
  3.54029893480000e+00
  1.54508500460000e+00
  6.65401954320000e-01
  1.43554390710000e-01
  6.66246734680000e-02
  2.97726482660000e-02
  8.93204608290000e+02
  2.11782582860000e+02
  6.84432005370000e+01
  2.57272653490000e+01
  1.06066342810000e+01
  4.59341264840000e+00
  2.01004698070000e+00
  8.73848415360000e-01
  3.56150766660000e-01
  1.89959543560000e-01
  7.45801356690000e-02
  2.92216413090000e-02
  3.81000000000000e+00
  6.50000000000000e-01
  2.00000000000000e-01
  5.20000000000000e-02
  1.60000000000000e-01
  6.05967787530000e+05
  9.05690946920000e+04
  2.05742528440000e+04
  5.81862848650000e+03
  1.89562960750000e+03
  6.83459410210000e+02
  2.66182197620000e+02
  1.10112200100000e+02
  4.77770412340000e+01
  2.15421661490000e+01
  1.74121363780000e+02
  5.34849724980000e+01
  2.05002133070000e+01
  9.80568269220000e+00
  3.54029893480000e+00
  1.54508500460000e+00
  6.65401954320000e-01
  1.43554390710000e-01
  6.66246734680000e-02
  2.97726482660000e-02
  8.93204608290000e+02
  2.11782582860000e+02
  6.84432005370000e+01
  2.57272653490000e+01
  1.06066342810000e+01
  4.59341264840000e+00
  2.01004698070000e+00
  8.73848415360000e-01
  3.56150766660000e-01
  1.89959543560000e-01
  7.45801356690000e-02
  2.92216413090000e-02
  3.81000000000000e+00
  6.50000000000000e-01
  2.00000000000000e-01
  5.20000000000000e-02
  1.60000000000000e-01
  6.05967787530000e+05
  9.05690946920000e+04
  2.05742528440000e+04
  5.81862848650000e+03
  1.89562960750000e+03
  6.83459410210000e+02
  2.66182197620000e+02
  1.10112200100000e+02
  4.77770412340000e+01
  2.15421661490000e+01
  1.74121363780000e+02
  5.34849724980000e+01
  2.05002133070000e+01
  9.80568269220000e+00
  3.54029893480000e+00
  1.54508500460000e+00
  6.65401954320000e-01
  1.43554390710000e-01
  6.66246734680000e-02
  2.97726482660000e-02
  8.93204608290000e+02
  2.11782582860000e+02
  6.84432005370000e+01
  2.57272653490000e+01
  1.06066342810000e+01
  4.59341264840000e+00
  2.01004698070000e+00
  8.73848415360000e-01
  3.56150766660000e-01
  1.89959543560000e-01
  7.45801356690000e-02
  2.92216413090000e-02
  3.81000000000000e+00
  6.50000000000000e-01
  2.00000000000000e-01
  5.20000000000000e-02
  1.60000000000000e-01
  6.05967787530000e+05
  9.05690946920000e+04
  2.05742528440000e+04
  5.81862848650000e+03
  1.89562960750000e+03
  6.83459410210000e+02
  2.66182197620000e+02
  1.10112200100000e+02
  4.77770412340000e+01
  2.15421661490000e+01
  1.74121363780000e+02
  5.34849724980000e+01
  2.05002133070000e+01
  9.80568269220000e+00
  3.54029893480000e+00
  1.54508500460000e+00
  6.65401954320000e-01
  1.43554390710000e-01
  6.66246734680000e-02
  2.97726482660000e-02
  8.93204608290000e+02
  2.11782582860000e+02
  6.84432005370000e+01
  2.57272653490000e+01
  1.06066342810000e+01
  4.59341264840000e+00
  2.01004698070000e+00
  8.73848415360000e-01
  3.56150766660000e-01
  1.89959543560000e-01
  7.45801356690000e-02
  2.92216413090000e-02
  3.81000000000000e+00
  6.50000000000000e-01
  2.00000000000000e-01
  5.20000000000000e-02
  1.60000000000000e-01
  6.05967787530000e+05
  9.05690946920000e+04
  2.05742528440000e+04
  5.81862848650000e+03
  1.89562960750000e+03
  6.83459410210000e+02
  2.66182197620000e+02
  1.10112200100000e+02
  4.77770412340000e+01
  2.15421661490000e+01
  1.74121363780000e+02
  5.34849724980000e+01
  2.05002133070000e+01
  9.80568269220000e+00
  3.54029893480000e+00
  1.54508500460000e+00
  6.65401954320000e-01
  1.43554390710000e-01
  6.66246734680000e-02
  2.97726482660000e-02
  8.93204608290000e+02
  2.11782582860000e+02
  6.84432005370000e+01
  2.57272653490000e+01
  1.06066342810000e+01
  4.59341264840000e+00
  2.01004698070000e+00
  8.73848415360000e-01
  3.56150766660000e-01
  1.89959543560000e-01
  7.45801356690000e-02
  2.92216413090000e-02
  3.81000000000000e+00
  6.50000000000000e-01
  2.00000000000000e-01
  5.20000000000000e-02
  1.60000000000000e-01
  6.05967787530000e+05
  9.05690946920000e+04
  2.05742528440000e+04
  5.81862848650000e+03
  1.89562960750000e+03
  6.83459410210000e+02
  2.66182197620000e+02
  1.10112200100000e+02
  4.77770412340000e+01
  2.15421661490000e+01
  1.74121363780000e+02
  5.34849724980000e+01
  2.05002133070000e+01
  9.80568269220000e+00
  3.54029893480000e+00
  1.54508500460000e+00
  6.65401954320000e-01
  1.43554390710000e-01
  6.66246734680000e-02
  2.97726482660000e-02
  8.93204608290000e+02
  2.11782582860000e+02
  6.84432005370000e+01
  2.57272653490000e+01
  1.06066342810000e+01
  4.59341264840000e+00
  2.01004698070000e+00
  8.73848415360000e-01
  3.56150766660000e-01
  1.89959543560000e-01
  7.45801356690000e-02
  2.92216413090000e-02
  3.81000000000000e+00
  6.50000000000000e-01
  2.00000000000000e-01
  5.20000000000000e-02
  1.60000000000000e-01
  6.05967787530000e+05
  9.05690946920000e+04
  2.05742528440000e+04
  5.81862848650000e+03
  1.89562960750000e+03
  6.83459410210000e+02
  2.66182197620000e+02
  1.10112200100000e+02
  4.77770412340000e+01
  2.15421661490000e+01
  1.74121363780000e+02
  5.34849724980000e+01
  2.05002133070000e+01
  9.80568269220000e+00
  3.54029893480000e+00
  1.54508500460000e+00
  6.65401954320000e-01
  1.43554390710000e-01
  6.66246734680000e-02
  2.97726482660000e-02
  8.93204608290000e+02
  2.11782582860000e+02
  6.84432005370000e+01
  2.57272653490000e+01
  1.06066342810000e+01
  4.59341264840000e+00
  2.01004698070000e+00
  8.73848415360000e-01
  3.56150766660000e-01
  1.89959543560000e-01
  7.45801356690000e-02
  2.92216413090000e-02
  3.81000000000000e+00
  6.50000000000000e-01
  2.00000000000000e-01
  5.20000000000000e-02
  1.60000000000000e-01
  6.05967787530000e+05
  9.05690946920000e+04
  2.05742528440000e+04
  5.81862848650000e+03
  1.89562960750000e+03
  6.83459410210000e+02
  2.66182197620000e+02
  1.10112200100000e+02
  4.77770412340000e+01
  2.15421661490000e+01
  1.74121363780000e+02
  5.34849724980000e+01
  2.05002133070000e+01
  9.80568269220000e+00
  3.54029893480000e+00
  1.54508500460000e+00
  6.65401954320000e-01
  1.43554390710000e-01
  6.66246734680000e-02
  2.97726482660000e-02
  8.93204608290000e+02
  2.11782582860000e+02
  6.84432005370000e+01
  2.57272653490000e+01
  1.06066342810000e+01
  4.59341264840000e+00
  2.01004698070000e+00
  8.73848415360000e-01
  3.56150766660000e-01
  1.89959543560000e-01
  7.45801356690000e-02
  2.92216413090000e-02
  3.81000000000000e+00
  6.50000000000000e-01
  2.00000000000000e-01
  5.20000000000000e-02
  1.60000000000000e-01
  6.05967787530000e+05
  9.05690946920000e+04
  2.05742528440000e+04
  5.81862848650000e+03
  1.89562960750000e+03
  6.83459410210000e+02
  2.66182197620000e+02
  1.10112200100000e+02
  4.77770412340000e+01
  2.15421661490000e+01
  1.74121363780000e+02
  5.34849724980000e+01
  2.05002133070000e+01
  9.80568269220000e+00
  3.54029893480000e+00
  1.54508500460000e+00
  6.65401954320000e-01
  1.43554390710000e-01
  6.66246734680000e-02
  2.97726482660000e-02
  8.93204608290000e+02
  2.11782582860000e+02
  6.84432005370000e+01
  2.57272653490000e+01
  1.06066342810000e+01
  4.59341264840000e+00
  2.01004698070000e+00
  8.73848415360000e-01
  3.56150766660000e-01
  1.89959543560000e-01
  7.45801356690000e-02
  2.92216413090000e-02
  3.81000000000000e+00
  6.50000000000000e-01
  2.00000000000000e-01
  5.20000000000000e-02
  1.60000000000000e-01
  1.16506469080000e+05
  1.75043497240000e+04
  3.99345132300000e+03
  1.13300631860000e+03
  3.69995695940000e+02
  1.33620743490000e+02
  5.20356436490000e+01
  2.14619393130000e+01
  8.98350512520000e+01
  2.64280108440000e+01
  9.28228246490000e+00
  4.09477285330000e+00
  1.32553490780000e+00
  5.18772307870000e-01
  1.97726764540000e-01
  1.91152558100000e+02
  4.52333567390000e+01
  1.43534659220000e+01
  5.24223718320000e+00
  2.07924185990000e+00
  8.42823714240000e-01
  3.36176948910000e-01
  1.28639979740000e-01
  3.77500000000000e+00
  1.30000000000000e+00
  4.44000000000000e-01
  2.66600000000000e+00
  8.59000000000000e-01
  1.84600000000000e+00
  1.16506469080000e+05
  1.75043497240000e+04
  3.99345132300000e+03
  1.13300631860000e+03
  3.69995695940000e+02
  1.33620743490000e+02
  5.20356436490000e+01
  2.14619393130000e+01
  8.98350512520000e+01
  2.64280108440000e+01
  9.28228246490000e+00
  4.09477285330000e+00
  1.32553490780000e+00
  5.18772307870000e-01
  1.97726764540000e-01
  1.91152558100000e+02
  4.52333567390000e+01
  1.43534659220000e+01
  5.24223718320000e+00
  2.07924185990000e+00
  8.42823714240000e-01
  3.36176948910000e-01
  1.28639979740000e-01
  3.77500000000000e+00
  1.30000000000000e+00
  4.44000000000000e-01
  2.66600000000000e+00
  8.59000000000000e-01
  1.84600000000000e+00
  1.16506469080000e+05
  1.75043497240000e+04
  3.99345132300000e+03
  1.13300631860000e+03
  3.69995695940000e+02
  1.33620743490000e+02
  5.20356436490000e+01
  2.14619393130000e+01
  8.98350512520000e+01
  2.64280108440000e+01
  9.28228246490000e+00
  4.09477285330000e+00
  1.32553490780000e+00
  5.18772307870000e-01
  1.97726764540000e-01
  1.91152558100000e+02
  4.52333567390000e+01
  1.43534659220000e+01
  5.24223718320000e+00
  2.07924185990000e+00
  8.42823714240000e-01
  3.36176948910000e-01
  1.28639979740000e-01
  3.77500000000000e+00
  1.30000000000000e+00
  4.44000000000000e-01
  2.66600000000000e+00
  8.59000000000000e-01
  1.84600000000000e+00
  1.16506469080000e+05
  1.75043497240000e+04
  3.99345132300000e+03
  1.13300631860000e+03
  3.69995695940000e+02
  1.33620743490000e+02
  5.20356436490000e+01
  2.14619393130000e+01
  8.98350512520000e+01
  2.64280108440000e+01
  9.28228246490000e+00
  4.09477285330000e+00
  1.32553490780000e+00
  5.18772307870000e-01
  1.97726764540000e-01
  1.91152558100000e+02
  4.52333567390000e+01
  1.43534659220000e+01
  5.24223718320000e+00
  2.07924185990000e+00
  8.42823714240000e-01
  3.36176948910000e-01
  1.28639979740000e-01
  3.77500000000000e+00
  1.30000000000000e+00
  4.44000000000000e-01
  2.66600000000000e+00
  8.59000000000000e-01
  1.84600000000000e+00
  1.16506469080000e+05
  1.75043497240000e+04
  3.99345132300000e+03
  1.13300631860000e+03
  3.69995695940000e+02
  1.33620743490000e+02
  5.20356436490000e+01
  2.14619393130000e+01
  8.98350512520000e+01
  2.64280108440000e+01
  9.28228246490000e+00
  4.09477285330000e+00
  1.32553490780000e+00
  5.18772307870000e-01
  1.97726764540000e-01
  1.91152558100000e+02
  4.52333567390000e+01
  1.43534659220000e+01
  5.24223718320000e+00
  2.07924185990000e+00
  8.42823714240000e-01
  3.36176948910000e-01
  1.28639979740000e-01
  3.77500000000000e+00
  1.30000000000000e+00
  4.44000000000000e-01
  2.66600000000000e+00
  8.59000000000000e-01
  1.84600000000000e+00
  1.16506469080000e+05
  1.75043497240000e+04
  3.99345132300000e+03
  1.13300631860000e+03
  3.69995695940000e+02
  1.33620743490000e+02
  5.20356436490000e+01
  2.14619393130000e+01
  8.98350512520000e+01
  2.64280108440000e+01
  9.28228246490000e+00
  4.09477285330000e+00
  1.32553490780000e+00
  5.18772307870000e-01
  1.97726764540000e-01
  1.91152558100000e+02
  4.52333567390000e+01
  1.43534659220000e+01
  5.24223718320000e+00
  2.07924185990000e+00
  8.42823714240000e-01
  3.36176948910000e-01
  1.28639979740000e-01
  3.77500000000000e+00
  1.30000000000000e+00
  4.44000000000000e-01
  2.66600000000000e+00
  8.59000000000000e-01
  1.84600000000000e+00
  1.16506469080000e+05
  1.75043497240000e+04
  3.99345132300000e+03
  1.13300631860000e+03
  3.69995695940000e+02
  1.33620743490000e+02
  5.20356436490000e+01
  2.14619393130000e+01
  8.98350512520000e+01
  2.64280108440000e+01
  9.28228246490000e+00
  4.09477285330000e+00
  1.32553490780000e+00
  5.18772307870000e-01
  1.97726764540000e-01
  1.91152558100000e+02
  4.52333567390000e+01
  1.43534659220000e+01
  5.24223718320000e+00
  2.07924185990000e+00
  8.42823714240000e-01
  3.36176948910000e-01
  1.28639979740000e-01
  3.77500000000000e+00
  1.30000000000000e+00
  4.44000000000000e-01
  2.66600000000000e+00
  8.59000000000000e-01
  1.84600000000000e+00
  1.16506469080000e+05
  1.75043497240000e+04
  3.99345132300000e+03
  1.13300631860000e+03
  3.69995695940000e+02
  1.33620743490000e+02
  5.20356436490000e+01
  2.14619393130000e+01
  8.98350512520000e+01
  2.64280108440000e+01
  9.28228246490000e+00
  4.09477285330000e+00
  1.32553490780000e+00
  5.18772307870000e-01
  1.97726764540000e-01
  1.91152558100000e+02
  4.52333567390000e+01
  1.43534659220000e+01
  5.24223718320000e+00
  2.07924185990000e+00
  8.42823714240000e-01
  3.36176948910000e-01
  1.28639979740000e-01
  3.77500000000000e+00
  1.30000000000000e+00
  4.44000000000000e-01
  2.66600000000000e+00
  8.59000000000000e-01
  1.84600000000000e+00
  1.16506469080000e+05
  1.75043497240000e+04
  3.99345132300000e+03
  1.13300631860000e+03
  3.69995695940000e+02
  1.33620743490000e+02
  5.20356436490000e+01
  2.14619393130000e+01
  8.98350512520000e+01
  2.64280108440000e+01
  9.28228246490000e+00
  4.09477285330000e+00
  1.32553490780000e+00
  5.18772307870000e-01
  1.97726764540000e-01
  1.91152558100000e+02
  4.52333567390000e+01
  1.43534659220000e+01
  5.24223718320000e+00
  2.07924185990000e+00
  8.42823714240000e-01
  3.36176948910000e-01
  1.28639979740000e-01
  3.77500000000000e+00
  1.30000000000000e+00
  4.44000000000000e-01
  2.66600000000000e+00
  8.59000000000000e-01
  1.84600000000000e+00
  1.16506469080000e+05
  1.75043497240000e+04
  3.99345132300000e+03
  1.13300631860000e+03
  3.69995695940000e+02
  1.33620743490000e+02
  5.20356436490000e+01
  2.14619393130000e+01
  8.98350512520000e+01
  2.64280108440000e+01
  9.28228246490000e+00
  4.09477285330000e+00
  1.32553490780000e+00
  5.18772307870000e-01
  1.97726764540000e-01
  1.91152558100000e+02
  4.52333567390000e+01
  1.43534659220000e+01
  5.24223718320000e+00
  2.07924185990000e+00
  8.42823714240000e-01
  3.36176948910000e-01
  1.28639979740000e-01
  3.77500000000000e+00
  1.30000000000000e+00
  4.44000000000000e-01
  2.66600000000000e+00
  8.59000000000000e-01
  1.84600000000000e+00
  1.16506469080000e+05
  1.75043497240000e+04
  3.99345132300000e+03
  1.13300631860000e+03
  3.69995695940000e+02
  1.33620743490000e+02
  5.20356436490000e+01
  2.14619393130000e+01
  8.98350512520000e+01
  2.64280108440000e+01
  9.28228246490000e+00
  4.09477285330000e+00
  1.32553490780000e+00
  5.18772307870000e-01
  1.97726764540000e-01
  1.91152558100000e+02
  4.52333567390000e+01
  1.43534659220000e+01
  5.24223718320000e+00
  2.07924185990000e+00
  8.42823714240000e-01
  3.36176948910000e-01
  1.28639979740000e-01
  3.77500000000000e+00
  1.30000000000000e+00
  4.44000000000000e-01
  2.66600000000000e+00
  8.59000000000000e-01
  1.84600000000000e+00
  1.16506469080000e+05
  1.75043497240000e+04
  3.99345132300000e+03
  1.13300631860000e+03
  3.69995695940000e+02
  1.33620743490000e+02
  5.20356436490000e+01
  2.14619393130000e+01
  8.98350512520000e+01
  2.64280108440000e+01
  9.28228246490000e+00
  4.09477285330000e+00
  1.32553490780000e+00
  5.18772307870000e-01
  1.97726764540000e-01
  1.91152558100000e+02
  4.52333567390000e+01
  1.43534659220000e+01
  5.24223718320000e+00
  2.07924185990000e+00
  8.42823714240000e-01
  3.36176948910000e-01
  1.28639979740000e-01
  3.77500000000000e+00
  1.30000000000000e+00
  4.44000000000000e-01
  2.66600000000000e+00
  8.59000000000000e-01
  1.84600000000000e+00
  1.16506469080000e+05
  1.75043497240000e+04
  3.99345132300000e+03
  1.13300631860000e+03
  3.69995695940000e+02
  1.33620743490000e+02
  5.20356436490000e+01
  2.14619393130000e+01
  8.98350512520000e+01
  2.64280108440000e+01
  9.28228246490000e+00
  4.09477285330000e+00
  1.32553490780000e+00
  5.18772307870000e-01
  1.97726764540000e-01
  1.91152558100000e+02
  4.52333567390000e+01
  1.43534659220000e+01
  5.24223718320000e+00
  2.07924185990000e+00
  8.42823714240000e-01
  3.36176948910000e-01
  1.28639979740000e-01
  3.77500000000000e+00
  1.30000000000000e+00
  4.44000000000000e-01
  2.66600000000000e+00
  8.59000000000000e-01
  1.84600000000000e+00
  1.16506469080000e+05
  1.75043497240000e+04
  3.99345132300000e+03
  1.13300631860000e+03
  3.69995695940000e+02
  1.33620743490000e+02
  5.20356436490000e+01
  2.14619393130000e+01
  8.98350512520000e+01
  2.64280108440000e+01
  9.28228246490000e+00
  4.09477285330000e+00
  1.32553490780000e+00
  5.18772307870000e-01
  1.97726764540000e-01
  1.91152558100000e+02
  4.52333567390000e+01
  1.43534659220000e+01
  5.24223718320000e+00
  2.07924185990000e+00
  8.42823714240000e-01
  3.36176948910000e-01
  1.28639979740000e-01
  3.77500000000000e+00
  1.30000000000000e+00
  4.44000000000000e-01
  2.66600000000000e+00
  8.59000000000000e-01
  1.84600000000000e+00
  1.16506469080000e+05
  1.75043497240000e+04
  3.99345132300000e+03
  1.13300631860000e+03
  3.69995695940000e+02
  1.33620743490000e+02
  5.20356436490000e+01
  2.14619393130000e+01
  8.98350512520000e+01
  2.64280108440000e+01
  9.28228246490000e+00
  4.09477285330000e+00
  1.32553490780000e+00
  5.18772307870000e-01
  1.97726764540000e-01
  1.91152558100000e+02
  4.52333567390000e+01
  1.43534659220000e+01
  5.24223718320000e+00
  2.07924185990000e+00
  8.42823714240000e-01
  3.36176948910000e-01
  1.28639979740000e-01
  3.77500000000000e+00
  1.30000000000000e+00
  4.44000000000000e-01
  2.66600000000000e+00
  8.59000000000000e-01
  1.84600000000000e+00
  1.16506469080000e+05
  1.75043497240000e+04
  3.99345132300000e+03
  1.13300631860000e+03
  3.69995695940000e+02
  1.33620743490000e+02
  5.20356436490000e+01
  2.14619393130000e+01
  8.98350512520000e+01
  2.64280108440000e+01
  9.28228246490000e+00
  4.09477285330000e+00
  1.32553490780000e+00
  5.18772307870000e-01
  1.97726764540000e-01
  1.91152558100000e+02
  4.52333567390000e+01
  1.43534659220000e+01
  5.24223718320000e+00
  2.07924185990000e+00
  8.42823714240000e-01
  3.36176948910000e-01
  1.28639979740000e-01
  3.77500000000000e+00
  1.30000000000000e+00
  4.44000000000000e-01
  2.66600000000000e+00
  8.59000000000000e-01
  1.84600000000000e+00
  1.16506469080000e+05
  1.75043497240000e+04
  3.99345132300000e+03
  1.13300631860000e+03
  3.69995695940000e+02
  1.33620743490000e+02
  5.20356436490000e+01
  2.14619393130000e+01
  8.98350512520000e+01
  2.64280108440000e+01
  9.28228246490000e+00
  4.09477285330000e+00
  1.32553490780000e+00
  5.18772307870000e-01
  1.97726764540000e-01
  1.91152558100000e+02
  4.52333567390000e+01
  1.43534659220000e+01
  5.24223718320000e+00
  2.07924185990000e+00
  8.42823714240000e-01
  3.36176948910000e-01
  1.28639979740000e-01
  3.77500000000000e+00
  1.30000000000000e+00
  4.44000000000000e-01
  2.66600000000000e+00
  8.59000000000000e-01
  1.84600000000000e+00
  1.16506469080000e+05
  1.75043497240000e+04
  3.99345132300000e+03
  1.13300631860000e+03
  3.69995695940000e+02
  1.33620743490000e+02
  5.20356436490000e+01
  2.14619393130000e+01
  8.98350512520000e+01
  2.64280108440000e+01
  9.28228246490000e+00
  4.09477285330000e+00
  1.32553490780000e+00
  5.18772307870000e-01
  1.97726764540000e-01
  1.91152558100000e+02
  4.52333567390000e+01
  1.43534659220000e+01
  5.24223718320000e+00
  2.07924185990000e+00
  8.42823714240000e-01
  3.36176948910000e-01
  1.28639979740000e-01
  3.77500000000000e+00
  1.30000000000000e+00
  4.44000000000000e-01
  2.66600000000000e+00
  8.59000000000000e-01
  1.84600000000000e+00
  1.16506469080000e+05
  1.75043497240000e+04
  3.99345132300000e+03
  1.13300631860000e+03
  3.69995695940000e+02
  1.33620743490000e+02
  5.20356436490000e+01
  2.14619393130000e+01
  8.98350512520000e+01
  2.64280108440000e+01
  9.28228246490000e+00
  4.09477285330000e+00
  1.32553490780000e+00
  5.18772307870000e-01
  1.97726764540000e-01
  1.91152558100000e+02
  4.52333567390000e+01
  1.43534659220000e+01
  5.24223718320000e+00
  2.07924185990000e+00
  8.42823714240000e-01
  3.36176948910000e-01
  1.28639979740000e-01
  3.77500000000000e+00
  1.30000000000000e+00
  4.44000000000000e-01
  2.66600000000000e+00
  8.59000000000000e-01
  1.84600000000000e+00
  1.16506469080000e+05
  1.75043497240000e+04
  3.99345132300000e+03
  1.13300631860000e+03
  3.69995695940000e+02
  1.33620743490000e+02
  5.20356436490000e+01
  2.14619393130000e+01
  8.98350512520000e+01
  2.64280108440000e+01
  9.28228246490000e+00
  4.09477285330000e+00
  1.32553490780000e+00
  5.18772307870000e-01
  1.97726764540000e-01
  1.91152558100000e+02
  4.52333567390000e+01
  1.43534659220000e+01
  5.24223718320000e+00
  2.07924185990000e+00
  8.42823714240000e-01
  3.36176948910000e-01
  1.28639979740000e-01
  3.77500000000000e+00
  1.30000000000000e+00
  4.44000000000000e-01
  2.66600000000000e+00
  8.59000000000000e-01
  1.84600000000000e+00
  1.16506469080000e+05
  1.75043497240000e+04
  3.99345132300000e+03
  1.13300631860000e+03
  3.69995695940000e+02
  1.33620743490000e+02
  5.20356436490000e+01
  2.14619393130000e+01
  8.98350512520000e+01
  2.64280108440000e+01
  9.28228246490000e+00
  4.09477285330000e+00
  1.32553490780000e+00
  5.18772307870000e-01
  1.97726764540000e-01
  1.91152558100000e+02
  4.52333567390000e+01
  1.43534659220000e+01
  5.24223718320000e+00
  2.07924185990000e+00
  8.42823714240000e-01
  3.36176948910000e-01
  1.28639979740000e-01
  3.77500000000000e+00
  1.30000000000000e+00
  4.44000000000000e-01
  2.66600000000000e+00
  8.59000000000000e-01
  1.84600000000000e+00
  1.16506469080000e+05
  1.75043497240000e+04
  3.99345132300000e+03
  1.13300631860000e+03
  3.69995695940000e+02
  1.33620743490000e+02
  5.20356436490000e+01
  2.14619393130000e+01
  8.98350512520000e+01
  2.64280108440000e+01
  9.28228246490000e+00
  4.09477285330000e+00
  1.32553490780000e+00
  5.18772307870000e-01
  1.97726764540000e-01
  1.91152558100000e+02
  4.52333567390000e+01
  1.43534659220000e+01
  5.24223718320000e+00
  2.07924185990000e+00
  8.42823714240000e-01
  3.36176948910000e-01
  1.28639979740000e-01
  3.77500000000000e+00
  1.30000000000000e+00
  4.44000000000000e-01
  2.66600000000000e+00
  8.59000000000000e-01
  1.84600000000000e+00
  1.16506469080000e+05
  1.75043497240000e+04
  3.99345132300000e+03
  1.13300631860000e+03
  3.69995695940000e+02
  1.33620743490000e+02
  5.20356436490000e+01
  2.14619393130000e+01
  8.98350512520000e+01
  2.64280108440000e+01
  9.28228246490000e+00
  4.09477285330000e+00
  1.32553490780000e+00
  5.18772307870000e-01
  1.97726764540000e-01
  1.91152558100000e+02
  4.52333567390000e+01
  1.43534659220000e+01
  5.24223718320000e+00
  2.07924185990000e+00
  8.42823714240000e-01
  3.36176948910000e-01
  1.28639979740000e-01
  3.77500000000000e+00
  1.30000000000000e+00
  4.44000000000000e-01
  2.66600000000000e+00
  8.59000000000000e-01
  1.84600000000000e+00
  1.16506469080000e+05
  1.75043497240000e+04
  3.99345132300000e+03
  1.13300631860000e+03
  3.69995695940000e+02
  1.33620743490000e+02
  5.20356436490000e+01
  2.14619393130000e+01
  8.98350512520000e+01
  2.64280108440000e+01
  9.28228246490000e+00
  4.09477285330000e+00
  1.32553490780000e+00
  5.18772307870000e-01
  1.97726764540000e-01
  1.91152558100000e+02
  4.52333567390000e+01
  1.43534659220000e+01
  5.24223718320000e+00
  2.07924185990000e+00
  8.42823714240000e-01
  3.36176948910000e-01
  1.28639979740000e-01
  3.77500000000000e+00
  1.30000000000000e+00
  4.44000000000000e-01
  2.66600000000000e+00
  8.59000000000000e-01
  1.84600000000000e+00
  1.16506469080000e+05
  1.75043497240000e+04
  3.99345132300000e+03
  1.13300631860000e+03
  3.69995695940000e+02
  1.33620743490000e+02
  5.20356436490000e+01
  2.14619393130000e+01
  8.98350512520000e+01
  2.64280108440000e+01
  9.28228246490000e+00
  4.09477285330000e+00
  1.32553490780000e+00
  5.18772307870000e-01
  1.97726764540000e-01
  1.91152558100000e+02
  4.52333567390000e+01
  1.43534659220000e+01
  5.24223718320000e+00
  2.07924185990000e+00
  8.42823714240000e-01
  3.36176948910000e-01
  1.28639979740000e-01
  3.77500000000000e+00
  1.30000000000000e+00
  4.44000000000000e-01
  2.66600000000000e+00
  8.59000000000000e-01
  1.84600000000000e+00
  1.16506469080000e+05
  1.75043497240000e+04
  3.99345132300000e+03
  1.13300631860000e+03
  3.69995695940000e+02
  1.33620743490000e+02
  5.20356436490000e+01
  2.14619393130000e+01
  8.98350512520000e+01
  2.64280108440000e+01
  9.28228246490000e+00
  4.09477285330000e+00
  1.32553490780000e+00
  5.18772307870000e-01
  1.97726764540000e-01
  1.91152558100000e+02
  4.52333567390000e+01
  1.43534659220000e+01
  5.24223718320000e+00
  2.07924185990000e+00
  8.42823714240000e-01
  3.36176948910000e-01
  1.28639979740000e-01
  3.77500000000000e+00
  1.30000000000000e+00
  4.44000000000000e-01
  2.66600000000000e+00
  8.59000000000000e-01
  1.84600000000000e+00
  1.16506469080000e+05
  1.75043497240000e+04
  3.99345132300000e+03
  1.13300631860000e+03
  3.69995695940000e+02
  1.33620743490000e+02
  5.20356436490000e+01
  2.14619393130000e+01
  8.98350512520000e+01
  2.64280108440000e+01
  9.28228246490000e+00
  4.09477285330000e+00
  1.32553490780000e+00
  5.18772307870000e-01
  1.97726764540000e-01
  1.91152558100000e+02
  4.52333567390000e+01
  1.43534659220000e+01
  5.24223718320000e+00
  2.07924185990000e+00
  8.42823714240000e-01
  3.36176948910000e-01
  1.28639979740000e-01
  3.77500000000000e+00
  1.30000000000000e+00
  4.44000000000000e-01
  2.66600000000000e+00
  8.59000000000000e-01
  1.84600000000000e+00
  1.16506469080000e+05
  1.75043497240000e+04
  3.99345132300000e+03
  1.13300631860000e+03
  3.69995695940000e+02
  1.33620743490000e+02
  5.20356436490000e+01
  2.14619393130000e+01
  8.98350512520000e+01
  2.64280108440000e+01
  9.28228246490000e+00
  4.09477285330000e+00
  1.32553490780000e+00
  5.18772307870000e-01
  1.97726764540000e-01
  1.91152558100000e+02
  4.52333567390000e+01
  1.43534659220000e+01
  5.24223718320000e+00
  2.07924185990000e+00
  8.42823714240000e-01
  3.36176948910000e-01
  1.28639979740000e-01
  3.77500000000000e+00
  1.30000000000000e+00
  4.44000000000000e-01
  2.66600000000000e+00
  8.59000000000000e-01
  1.84600000000000e+00
  1.16506469080000e+05
  1.75043497240000e+04
  3.99345132300000e+03
  1.13300631860000e+03
  3.69995695940000e+02
  1.33620743490000e+02
  5.20356436490000e+01
  2.14619393130000e+01
  8.98350512520000e+01
  2.64280108440000e+01
  9.28228246490000e+00
  4.09477285330000e+00
  1.32553490780000e+00
  5.18772307870000e-01
  1.97726764540000e-01
  1.91152558100000e+02
  4.52333567390000e+01
  1.43534659220000e+01
  5.24223718320000e+00
  2.07924185990000e+00
  8.42823714240000e-01
  3.36176948910000e-01
  1.28639979740000e-01
  3.77500000000000e+00
  1.30000000000000e+00
  4.44000000000000e-01
  2.66600000000000e+00
  8.59000000000000e-01
  1.84600000000000e+00
  1.16506469080000e+05
  1.75043497240000e+04
  3.99345132300000e+03
  1.13300631860000e+03
  3.69995695940000e+02
  1.33620743490000e+02
  5.20356436490000e+01
  2.14619393130000e+01
  8.98350512520000e+01
  2.64280108440000e+01
  9.28228246490000e+00
  4.09477285330000e+00
  1.32553490780000e+00
  5.18772307870000e-01
  1.97726764540000e-01
  1.91152558100000e+02
  4.52333567390000e+01
  1.43534659220000e+01
  5.24223718320000e+00
  2.07924185990000e+00
  8.42823714240000e-01
  3.36176948910000e-01
  1.28639979740000e-01
  3.77500000000000e+00
  1.30000000000000e+00
  4.44000000000000e-01
  2.66600000000000e+00
  8.59000000000000e-01
  1.84600000000000e+00
  1.16506469080000e+05
  1.75043497240000e+04
  3.99345132300000e+03
  1.13300631860000e+03
  3.69995695940000e+02
  1.33620743490000e+02
  5.20356436490000e+01
  2.14619393130000e+01
  8.98350512520000e+01
  2.64280108440000e+01
  9.28228246490000e+00
  4.09477285330000e+00
  1.32553490780000e+00
  5.18772307870000e-01
  1.97726764540000e-01
  1.91152558100000e+02
  4.52333567390000e+01
  1.43534659220000e+01
  5.24223718320000e+00
  2.07924185990000e+00
  8.42823714240000e-01
  3.36176948910000e-01
  1.28639979740000e-01
  3.77500000000000e+00
  1.30000000000000e+00
  4.44000000000000e-01
  2.66600000000000e+00
  8.59000000000000e-01
  1.84600000000000e+00
  1.16506469080000e+05
  1.75043497240000e+04
  3.99345132300000e+03
  1.13300631860000e+03
  3.69995695940000e+02
  1.33620743490000e+02
  5.20356436490000e+01
  2.14619393130000e+01
  8.98350512520000e+01
  2.64280108440000e+01
  9.28228246490000e+00
  4.09477285330000e+00
  1.32553490780000e+00
  5.18772307870000e-01
  1.97726764540000e-01
  1.91152558100000e+02
  4.52333567390000e+01
  1.43534659220000e+01
  5.24223718320000e+00
  2.07924185990000e+00
  8.42823714240000e-01
  3.36176948910000e-01
  1.28639979740000e-01
  3.77500000000000e+00
  1.30000000000000e+00
  4.44000000000000e-01
  2.66600000000000e+00
  8.59000000000000e-01
  1.84600000000000e+00
  1.16506469080000e+05
  1.75043497240000e+04
  3.99345132300000e+03
  1.13300631860000e+03
  3.69995695940000e+02
  1.33620743490000e+02
  5.20356436490000e+01
  2.14619393130000e+01
  8.98350512520000e+01
  2.64280108440000e+01
  9.28228246490000e+00
  4.09477285330000e+00
  1.32553490780000e+00
  5.18772307870000e-01
  1.97726764540000e-01
  1.91152558100000e+02
  4.52333567390000e+01
  1.43534659220000e+01
  5.24223718320000e+00
  2.07924185990000e+00
  8.42823714240000e-01
  3.36176948910000e-01
  1.28639979740000e-01
  3.77500000000000e+00
  1.30000000000000e+00
  4.44000000000000e-01
  2.66600000000000e+00
  8.59000000000000e-01
  1.84600000000000e+00

  2.10753625593756e-01
  3.94420453180463e-01
  6.81488673339914e-01
  1.10750264031282e+00
  1.69021574844253e+00
  2.37164649255442e+00
  2.87990493125616e+00
  2.75119584155661e+00
  1.27954700675913e+00
  5.11031941001511e+00
  2.46850014075040e+00
  1.32696091938732e+00
  5.43512827613698e-01
  2.71383902660290e-01
  1.33708740226501e-01
  1.19787942253799e+00
  1.54852090278742e+00
  1.66747448854949e+00
  1.54965178789794e+00
  1.15759388345848e+00
  5.40736498311229e-01
  1.78071444371519e-01
  5.68645084492531e-02
  4.82100851162461e+00
  7.72391837520708e-01
  1.23821322548459e-01
  3.23530209875761e+00
  2.88983709509175e-01
  1.14683543468607e+00
  2.57226323061032e-01
  4.82046798727303e-01
  8.35598690668546e-01
  1.36636575285047e+00
  2.12753351426577e+00
  3.13546646974985e+00
  4.27633913736539e+00
  5.09689862583897e+00
  4.79622107294527e+00
  2.87469778823108e+00
  9.87018482399258e-01
  3.40129311232691e+00
  5.29074637777286e+00
  3.94928493795792e+00
  1.83945870699884e+00
  9.87698457309665e-01
  5.25077182598192e-01
  1.66215856718395e-01
  9.34622888241072e-02
  5.10826233355890e-02
  2.51582602315196e+00
  3.54972184579634e+00
  4.50231968832641e+00
  4.91694775076965e+00
  4.40377855233830e+00
  2.89703480206181e+00
  1.31284892365757e+00
  3.43400803309903e-01
  3.92177291062833e-01
  1.78758410625548e-01
  5.55544751816923e-02
  1.72214947988116e-02
  1.71012621172510e+01
  7.74475761458575e-01
  9.84491449611383e-02
  9.31998702099698e-03
  2.38355079066967e-02
  2.57226323061032e-01
  4.82046798727303e-01
  8.35598690668546e-01
  1.36636575285047e+00
  2.12753351426577e+00
  3.13546646974985e+00
  4.27633913736539e+00
  5.09689862583897e+00
  4.79622107294527e+00
  2.87469778823108e+00
  9.87018482399258e-01
  3.40129311232691e+00
  5.29074637777286e+00
  3.94928493795792e+00
  1.83945870699884e+00
  9.87698457309665e-01
  5.25077182598192e-01
  1.66215856718395e-01
  9.34622888241072e-02
  5.10826233355890e-02
  2.51582602315196e+00
  3.54972184579634e+00
  4.50231968832641e+00
  4.91694775076965e+00
  4.40377855233830e+00
  2.89703480206181e+00
  1.31284892365757e+00
  3.43400803309903e-01
  3.92177291062833e-01
  1.78758410625548e-01
  5.55544751816923e-02
  1.72214947988116e-02
  1.71012621172510e+01
  7.74475761458575e-01
  9.84491449611383e-02
  9.31998702099698e-03
  2.38355079066967e-02
  2.57226323061032e-01
  4.82046798727303e-01
  8.35598690668546e-01
  1.36636575285047e+00
  2.12753351426577e+00
  3.13546646974985e+00
  4.27633913736539e+00
  5.09689862583897e+00
  4.79622107294527e+00
  2.87469778823108e+00
  9.87018482399258e-01
  3.40129311232691e+00
  5.29074637777286e+00
  3.94928493795792e+00
  1.83945870699884e+00
  9.87698457309665e-01
  5.25077182598192e-01
  1.66215856718395e-01
  9.34622888241072e-02
  5.10826233355890e-02
  2.51582602315196e+00
  3.54972184579634e+00
  4.50231968832641e+00
  4.91694775076965e+00
  4.40377855233830e+00
  2.89703480206181e+00
  1.31284892365757e+00
  3.43400803309903e-01
  3.92177291062833e-01
  1.78758410625548e-01
  5.55544751816923e-02
  1.72214947988116e-02
  1.71012621172510e+01
  7.74475761458575e-01
  9.84491449611383e-02
  9.31998702099698e-03
  2.38355079066967e-02
  2.57226323061032e-01
  4.82046798727303e-01
  8.35598690668546e-01
  1.36636575285047e+00
  2.12753351426577e+00
  3.13546646974985e+00
  4.27633913736539e+00
  5.09689862583897e+00
  4.79622107294527e+00
  2.87469778823108e+00
  9.87018482399258e-01
  3.40129311232691e+00
  5.29074637777286e+00
  3.94928493795792e+00
  1.83945870699884e+00
  9.87698457309665e-01
  5.25077182598192e-01
  1.66215856718395e-01
  9.34622888241072e-02
  5.10826233355890e-02
  2.51582602315196e+00
  3.54972184579634e+00
  4.50231968832641e+00
  4.91694775076965e+00
  4.40377855233830e+00
  2.89703480206181e+00
  1.31284892365757e+00
  3.43400803309903e-01
  3.92177291062833e-01
  1.78758410625548e-01
  5.55544751816923e-02
  1.72214947988116e-02
  1.71012621172510e+01
  7.74475761458575e-01
  9.84491449611383e-02
  9.31998702099698e-03
  2.38355079066967e-02
  2.57226323061032e-01
  4.82046798727303e-01
  8.35598690668546e-01
  1.36636575285047e+00
  2.12753351426577e+00
  3.13546646974985e+00
  4.27633913736539e+00
  5.09689862583897e+00
  4.79622107294527e+00
  2.87469778823108e+00
  9.87018482399258e-01
  3.40129311232691e+00
  5.29074637777286e+00
  3.94928493795792e+00
  1.83945870699884e+00
  9.87698457309665e-01
  5.25077182598192e-01
  1.66215856718395e-01
  9.34622888241072e-02
  5.10826233355890e-02
  2.51582602315196e+00
  3.54972184579634e+00
  4.50231968832641e+00
  4.91694775076965e+00
  4.40377855233830e+00
  2.89703480206181e+00
  1.31284892365757e+00
  3.43400803309903e-01
  3.92177291062833e-01
  1.78758410625548e-01
  5.55544751816923e-02
  1.72214947988116e-02
  1.71012621172510e+01
  7.74475761458575e-01
  9.84491449611383e-02
  9.31998702099698e-03
  2.38355079066967e-02
  2.57226323061032e-01
  4.82046798727303e-01
  8.35598690668546e-01
  1.36636575285047e+00
  2.12753351426577e+00
  3.13546646974985e+00
  4.27633913736539e+00
  5.09689862583897e+00
  4.79622107294527e+00
  2.87469778823108e+00
  9.87018482399258e-01
  3.40129311232691e+00
  5.29074637777286e+00
  3.94928493795792e+00
  1.83945870699884e+00
  9.87698457309665e-01
  5.25077182598192e-01
  1.66215856718395e-01
  9.34622888241072e-02
  5.10826233355890e-02
  2.51582602315196e+00
  3.54972184579634e+00
  4.50231968832641e+00
  4.91694775076965e+00
  4.40377855233830e+00
  2.89703480206181e+00
  1.31284892365757e+00
  3.43400803309903e-01
  3.92177291062833e-01
  1.78758410625548e-01
  5.55544751816923e-02
  1.72214947988116e-02
  1.71012621172510e+01
  7.74475761458575e-01
  9.84491449611383e-02
  9.31998702099698e-03
  2.38355079066967e-02
  2.57226323061032e-01
  4.82046798727303e-01
  8.35598690668546e-01
  1.36636575285047e+00
  2.12753351426577e+00
  3.13546646974985e+00
  4.27633913736539e+00
  5.09689862583897e+00
  4.79622107294527e+00
  2.87469778823108e+00
  9.87018482399258e-01
  3.40129311232691e+00
  5.29074637777286e+00
  3.94928493795792e+00
  1.83945870699884e+00
  9.87698457309665e-01
  5.25077182598192e-01
  1.66215856718395e-01
  9.34622888241072e-02
  5.10826233355890e-02
  2.51582602315196e+00
  3.54972184579634e+00
  4.50231968832641e+00
  4.91694775076965e+00
  4.40377855233830e+00
  2.89703480206181e+00
  1.31284892365757e+00
  3.43400803309903e-01
  3.92177291062833e-01
  1.78758410625548e-01
  5.55544751816923e-02
  1.72214947988116e-02
  1.71012621172510e+01
  7.74475761458575e-01
  9.84491449611383e-02
  9.31998702099698e-03
  2.38355079066967e-02
  2.57226323061032e-01
  4.82046798727303e-01
  8.35598690668546e-01
  1.36636575285047e+00
  2.12753351426577e+00
  3.13546646974985e+00
  4.27633913736539e+00
  5.09689862583897e+00
  4.79622107294527e+00
  2.87469778823108e+00
  9.87018482399258e-01
  3.40129311232691e+00
  5.29074637777286e+00
  3.94928493795792e+00
  1.83945870699884e+00
  9.87698457309665e-01
  5.25077182598192e-01
  1.66215856718395e-01
  9.34622888241072e-02
  5.10826233355890e-02
  2.51582602315196e+00
  3.54972184579634e+00
  4.50231968832641e+00
  4.91694775076965e+00
  4.40377855233830e+00
  2.89703480206181e+00
  1.31284892365757e+00
  3.43400803309903e-01
  3.92177291062833e-01
  1.78758410625548e-01
  5.55544751816923e-02
  1.72214947988116e-02
  1.71012621172510e+01
  7.74475761458575e-01
  9.84491449611383e-02
  9.31998702099698e-03
  2.38355079066967e-02
  2.57226323061032e-01
  4.82046798727303e-01
  8.35598690668546e-01
  1.36636575285047e+00
  2.12753351426577e+00
  3.13546646974985e+00
  4.27633913736539e+00
  5.09689862583897e+00
  4.79622107294527e+00
  2.87469778823108e+00
  9.87018482399258e-01
  3.40129311232691e+00
  5.29074637777286e+00
  3.94928493795792e+00
  1.83945870699884e+00
  9.87698457309665e-01
  5.25077182598192e-01
  1.66215856718395e-01
  9.34622888241072e-02
  5.10826233355890e-02
  2.51582602315196e+00
  3.54972184579634e+00
  4.50231968832641e+00
  4.91694775076965e+00
  4.40377855233830e+00
  2.89703480206181e+00
  1.31284892365757e+00
  3.43400803309903e-01
  3.92177291062833e-01
  1.78758410625548e-01
  5.55544751816923e-02
  1.72214947988116e-02
  1.71012621172510e+01
  7.74475761458575e-01
  9.84491449611383e-02
  9.31998702099698e-03
  2.38355079066967e-02
  2.57226323061032e-01
  4.82046798727303e-01
  8.35598690668546e-01
  1.36636575285047e+00
  2.12753351426577e+00
  3.13546646974985e+00
  4.27633913736539e+00
  5.09689862583897e+00
  4.79622107294527e+00
  2.87469778823108e+00
  9.87018482399258e-01
  3.40129311232691e+00
  5.29074637777286e+00
  3.94928493795792e+00
  1.83945870699884e+00
  9.87698457309665e-01
  5.25077182598192e-01
  1.66215856718395e-01
  9.34622888241072e-02
  5.10826233355890e-02
  2.51582602315196e+00
  3.54972184579634e+00
  4.50231968832641e+00
  4.91694775076965e+00
  4.40377855233830e+00
  2.89703480206181e+00
  1.31284892365757e+00
  3.43400803309903e-01
  3.92177291062833e-01
  1.78758410625548e-01
  5.55544751816923e-02
  1.72214947988116e-02
  1.71012621172510e+01
  7.74475761458575e-01
  9.84491449611383e-02
  9.31998702099698e-03
  2.38355079066967e-02
  2.57226323061032e-01
  4.82046798727303e-01
  8.35598690668546e-01
  1.36636575285047e+00
  2.12753351426577e+00
  3.13546646974985e+00
  4.27633913736539e+00
  5.09689862583897e+00
  4.79622107294527e+00
  2.87469778823108e+00
  9.87018482399258e-01
  3.40129311232691e+00
  5.29074637777286e+00
  3.94928493795792e+00
  1.83945870699884e+00
  9.87698457309665e-01
  5.25077182598192e-01
  1.66215856718395e-01
  9.34622888241072e-02
  5.10826233355890e-02
  2.51582602315196e+00
  3.54972184579634e+00
  4.50231968832641e+00
  4.91694775076965e+00
  4.40377855233830e+00
  2.89703480206181e+00
  1.31284892365757e+00
  3.43400803309903e-01
  3.92177291062833e-01
  1.78758410625548e-01
  5.55544751816923e-02
  1.72214947988116e-02
  1.71012621172510e+01
  7.74475761458575e-01
  9.84491449611383e-02
  9.31998702099698e-03
  2.38355079066967e-02
  2.57226323061032e-01
  4.82046798727303e-01
  8.35598690668546e-01
  1.36636575285047e+00
  2.12753351426577e+00
  3.13546646974985e+00
  4.27633913736539e+00
  5.09689862583897e+00
  4.79622107294527e+00
  2.87469778823108e+00
  9.87018482399258e-01
  3.40129311232691e+00
  5.29074637777286e+00
  3.94928493795792e+00
  1.83945870699884e+00
  9.87698457309665e-01
  5.25077182598192e-01
  1.66215856718395e-01
  9.34622888241072e-02
  5.10826233355890e-02
  2.51582602315196e+00
  3.54972184579634e+00
  4.50231968832641e+00
  4.91694775076965e+00
  4.40377855233830e+00
  2.89703480206181e+00
  1.31284892365757e+00
  3.43400803309903e-01
  3.92177291062833e-01
  1.78758410625548e-01
  5.55544751816923e-02
  1.72214947988116e-02
  1.71012621172510e+01
  7.74475761458575e-01
  9.84491449611383e-02
  9.31998702099698e-03
  2.38355079066967e-02
  2.57226323061032e-01
  4.82046798727303e-01
  8.35598690668546e-01
  1.36636575285047e+00
  2.12753351426577e+00
  3.13546646974985e+00
  4.27633913736539e+00
  5.09689862583897e+00
  4.79622107294527e+00
  2.87469778823108e+00
  9.87018482399258e-01
  3.40129311232691e+00
  5.29074637777286e+00
  3.94928493795792e+00
  1.83945870699884e+00
  9.87698457309665e-01
  5.25077182598192e-01
  1.66215856718395e-01
  9.34622888241072e-02
  5.10826233355890e-02
  2.51582602315196e+00
  3.54972184579634e+00
  4.50231968832641e+00
  4.91694775076965e+00
  4.40377855233830e+00
  2.89703480206181e+00
  1.31284892365757e+00
  3.43400803309903e-01
  3.92177291062833e-01
  1.78758410625548e-01
  5.55544751816923e-02
  1.72214947988116e-02
  1.71012621172510e+01
  7.74475761458575e-01
  9.84491449611383e-02
  9.31998702099698e-03
  2.38355079066967e-02
  2.57226323061032e-01
  4.82046798727303e-01
  8.35598690668546e-01
  1.36636575285047e+00
  2.12753351426577e+00
  3.13546646974985e+00
  4.27633913736539e+00
  5.09689862583897e+00
  4.79622107294527e+00
  2.87469778823108e+00
  9.87018482399258e-01
  3.40129311232691e+00
  5.29074637777286e+00
  3.94928493795792e+00
  1.83945870699884e+00
  9.87698457309665e-01
  5.25077182598192e-01
  1.66215856718395e-01
  9.34622888241072e-02
  5.10826233355890e-02
  2.51582602315196e+00
  3.54972184579634e+00
  4.50231968832641e+00
  4.91694775076965e+00
  4.40377855233830e+00
  2.89703480206181e+00
  1.31284892365757e+00
  3.43400803309903e-01
  3.92177291062833e-01
  1.78758410625548e-01
  5.55544751816923e-02
  1.72214947988116e-02
  1.71012621172510e+01
  7.74475761458575e-01
  9.84491449611383e-02
  9.31998702099698e-03
  2.38355079066967e-02
  2.57226323061032e-01
  4.82046798727303e-01
  8.35598690668546e-01
  1.36636575285047e+00
  2.12753351426577e+00
  3.13546646974985e+00
  4.27633913736539e+00
  5.09689862583897e+00
  4.79622107294527e+00
  2.87469778823108e+00
  9.87018482399258e-01
  3.40129311232691e+00
  5.29074637777286e+00
  3.94928493795792e+00
  1.83945870699884e+00
  9.87698457309665e-01
  5.25077182598192e-01
  1.66215856718395e-01
  9.34622888241072e-02
  5.10826233355890e-02
  2.51582602315196e+00
  3.54972184579634e+00
  4.50231968832641e+00
  4.91694775076965e+00
  4.40377855233830e+00
  2.89703480206181e+00
  1.31284892365757e+00
  3.43400803309903e-01
  3.92177291062833e-01
  1.78758410625548e-01
  5.55544751816923e-02
  1.72214947988116e-02
  1.71012621172510e+01
  7.74475761458575e-01
  9.84491449611383e-02
  9.31998702099698e-03
  2.38355079066967e-02
  2.57226323061032e-01
  4.82046798727303e-01
  8.35598690668546e-01
  1.36636575285047e+00
  2.12753351426577e+00
  3.13546646974985e+00
  4.27633913736539e+00
  5.09689862583897e+00
  4.79622107294527e+00
  2.87469778823108e+00
  9.87018482399258e-01
  3.40129311232691e+00
  5.29074637777286e+00
  3.94928493795792e+00
  1.83945870699884e+00
  9.87698457309665e-01
  5.25077182598192e-01
  1.66215856718395e-01
  9.34622888241072e-02
  5.10826233355890e-02
  2.51582602315196e+00
  3.54972184579634e+00
  4.50231968832641e+00
  4.91694775076965e+00
  4.40377855233830e+00
  2.89703480206181e+00
  1.31284892365757e+00
  3.43400803309903e-01
  3.92177291062833e-01
  1.78758410625548e-01
  5.55544751816923e-02
  1.72214947988116e-02
  1.71012621172510e+01
  7.74475761458575e-01
  9.84491449611383e-02
  9.31998702099698e-03
  2.38355079066967e-02
  2.57226323061032e-01
  4.82046798727303e-01
  8.35598690668546e-01
  1.36636575285047e+00
  2.12753351426577e+00
  3.13546646974985e+00
  4.27633913736539e+00
  5.09689862583897e+00
  4.79622107294527e+00
  2.87469778823108e+00
  9.87018482399258e-01
  3.40129311232691e+00
  5.29074637777286e+00
  3.94928493795792e+00
  1.83945870699884e+00
  9.87698457309665e-01
  5.25077182598192e-01
  1.66215856718395e-01
  9.34622888241072e-02
  5.10826233355890e-02
  2.51582602315196e+00
  3.54972184579634e+00
  4.50231968832641e+00
  4.91694775076965e+00
  4.40377855233830e+00
  2.89703480206181e+00
  1.31284892365757e+00
  3.43400803309903e-01
[...]
 2.75653 2.76314 2.76314 2.77445 2.77544 2.77553 2.77553 2.79905 2.79905 2.80715
 2.80887 2.81012 2.81051 2.81127 2.81127 2.82810 2.83341 2.83341 2.84086 2.84239
 2.84239 2.84740 2.85083 2.85245 2.85245 2.85269 2.85308 2.85465 2.85465 2.86155
 2.86165 2.86898 2.87030 2.87030 2.87120 2.87123 2.87970 2.88940 2.88940 2.89451
 2.89451 2.89661 2.89897 2.90230 2.90230 2.90777 2.90781 2.90929 2.90929 2.91462
 2.91462 2.92031 2.93643 2.94128 2.94128 2.95100 2.95164 2.95937 2.96033 2.96679
 2.96679 2.99211 2.99363 2.99513 3.01209 3.01209 3.01560 3.01926 3.02066 3.02067
 3.02391 3.02391 3.02573 3.05014 3.06037 3.06037 3.06201 3.13006 3.13048 3.13604
 3.14488 3.14563 3.14824 3.14824 3.14995 3.15067 3.15199 3.15518 3.15536 3.15536
 3.15793 3.16210 3.16348 3.16483 3.16483 3.16620 3.16620 3.17019 3.17459 3.17587
 3.17587 3.19285 3.19285 3.19434 3.20507 3.21189 3.21235 3.21235 3.21774 3.22449
 3.22449 3.24907 3.25226 3.27036 3.27194 3.27637 3.27637 3.28046 3.28447 3.28597
 3.28620 3.28620 3.28970 3.28970 3.29706 3.31059 3.31059 3.31665 3.31917 3.32332
 3.32332 3.32361 3.32598 3.33638 3.33638 3.34094 3.34360 3.34360 3.34771 3.35390
 3.35499 3.35499 3.36317 3.36385 3.36916 3.36916 3.36955 3.38686 3.38738 3.38925
 3.38925 3.39257 3.39991 3.39991 3.40126 3.40204 3.41659 3.41659 3.42251 3.42791
 3.43165 3.43166 3.43420 3.43694 3.43828 3.44218 3.44218 3.44443 3.45896 3.46007
 3.46391 3.46399 3.46399 3.47243 3.48152 3.48153 3.49287 3.49287 3.49532 3.50283
 3.50283 3.50467 3.51144 3.51528 3.51636 3.51636 3.51823 3.52092 3.53970 3.55080
 3.55121 3.55121 3.55291 3.55783 3.56595 3.57353 3.58193 3.58193 3.61063 3.61696
 3.61696 3.64229 3.64229 3.64238 3.64240 3.65198 3.65198 3.65305 3.66704 3.67424
 3.67424 3.67790 3.68233 3.68233 3.68351 3.68437 3.68598 3.68800 3.68916 3.68916
 3.69248 3.69248 3.69388 3.70144 3.70535 3.71757 3.71779 3.71780 3.77368 3.80423
 3.81370 3.81370 3.81389 3.83773 3.84786 3.84786 3.84886 3.84907 3.85009 3.85224
 3.85224 3.85635 3.85635 3.85742 3.85986 3.86911 3.87879 3.87879 3.88217 3.88217
 3.88237 3.88320 3.88323 3.88478 3.88569 3.88569 3.88776 3.88993 3.89723 3.90380
 3.90381 3.90489 3.90556 3.90827 3.92494 3.92495 3.92711 3.93690 3.95208 3.95431
 3.95431 3.95584 3.96908 3.97260 3.97505 3.97654 3.97654 3.97720 3.97955 3.97956
 3.97979 3.98014 3.98252 3.98648 3.98719 3.98719 3.99135 3.99579 3.99579 4.00185
 4.00231 4.00231 4.00299 4.00836 4.00869 4.01483 4.01769 4.01769 4.02114 4.02965
 4.02965 4.03818 4.04303 4.04416 4.04544 4.04928 4.04928 4.05250 4.05322 4.05503
 4.05536 4.05536 4.05795 4.05796 4.06106 4.06118 4.06399 4.06429 4.06429 4.06548
 4.06553 4.06553 4.06641 4.07045 4.07248 4.07289 4.07289 4.07411 4.07588 4.07588
 4.07606 4.07624 4.07630 4.07717 4.07850 4.08072 4.08078 4.08078 4.08575 4.08575
 4.08628 4.09833 4.09833 4.09837 4.10005 4.10041 4.10262 4.10262 4.11300 4.11875
 4.12222 4.14528 4.14852 4.14852 4.14853 4.15095 4.15283 4.15283 4.15630 4.15783
 4.15783 4.15896 4.16172 4.16177 4.16374 4.16727 4.16753 4.16892 4.16892 4.16971
 4.16971 4.17179 4.17496 4.17496 4.17539 4.17947 4.17947 4.18153 4.18172 4.18308
 4.18970 4.19318 4.19318 4.19428 4.19428 4.19507 4.20625 4.21297 4.21298 4.21470
 4.21670 4.21899 4.22756 4.22756 4.22922 4.23357 4.23357 4.23856 4.24359 4.25489
 4.25606 4.25606 4.25760 4.26005 4.26005 4.26088 4.26235 4.26354 4.26354 4.26449
 4.26480 4.26832 4.26832 4.27309 4.27309 4.27335 4.27834 4.28161 4.28181 4.28181
 4.28762 4.29047 4.30664 4.30664 4.34092 4.34126 4.34422 4.34711 4.34711 4.35642
 4.35729 4.35729 4.36007 4.36007 4.36008 4.36778 4.36778 4.37069 4.37069 4.37545
 4.37655 4.38112 4.38685 4.38694 4.38699 4.39133 4.39133 4.39431 4.39726 4.39726
 4.40425 4.40425 4.41100 4.41220 4.41444 4.41444 4.41528 4.41612 4.41810 4.41880
 4.41880 4.42026 4.42304 4.42374 4.42374 4.43027 4.43514 4.43514 4.43689 4.44327
 4.44327 4.45073 4.45073 4.45505 4.45656 4.45705 4.46080 4.46225 4.46225 4.46241
 4.46304 4.46614 4.46692 4.46692 4.47563 4.47573 4.47573 4.48153 4.48328 4.48502
 4.48595 4.48611 4.48639 4.48801 4.48801 4.49308 4.49308 4.49999 4.50012 4.50344
 4.50344 4.50399 4.50897 4.50897 4.51035 4.51154 4.51340 4.51340 4.51401 4.51552
 4.51575 4.51575 4.51782 4.52503 4.52600 4.53410 4.53696 4.53696 4.54980 4.55364
 4.55364 4.55739 4.56820 4.56871 4.56871 4.57045 4.57963 4.58700 4.58746 4.58746
 4.58918 4.58984 4.59010 4.59120 4.59120 4.59912 4.60211 4.60211 4.60702 4.60703
 4.60788 4.61554 4.61554 4.62484 4.62814 4.63035 4.63312 4.63312 4.63533 4.63533
 4.63722 4.64078 4.64078 4.64139 4.64336 4.64870 4.64870 4.65483 4.65757 4.66352
 4.66358 4.66871 4.66871 4.67132 4.67395 4.67397 4.67760 4.67760 4.68550 4.68550
 4.69174 4.69174 4.69372 4.71362 4.74049 4.74049 4.74307 4.76254 4.77147 4.77346
 4.77346 4.77792 4.78074 4.78403 4.78462 4.78462 4.79294 4.79294 4.80211 4.80211
 4.81618 4.83199 4.83199 4.83970 4.84563 4.85573 4.85573 4.88022 4.88306 4.88315
 4.88315 4.88503 4.88882 4.88882 4.89174 4.89471 4.89471 4.89618 4.89623 4.91359
 4.92337 4.92821 4.93046 4.93046 5.04255 5.06312 5.06312 5.06365 5.06628 5.07441
 5.08018 5.09005 5.09005 5.14340 5.14843 5.15023 5.15023 5.15159 5.15307 5.15391
 5.16053 5.16447 5.16447 5.16639 5.16687 5.16736 5.16736 5.18003 5.19857 5.19857
 5.19873 5.20427 5.20427 5.21589 5.24198 5.25059 5.25059 5.28146 5.44673 5.44863
 5.44863 5.45075 5.46301 5.46462 5.46462 5.47360 5.49229 5.49269 5.49360 5.49360
 5.49621 5.49760 5.52848 5.52848 5.56977 5.56977 5.57105 5.59977 5.60041 5.60845
 5.63249 5.65285 5.66185 5.66805 5.71144 5.71145 5.73894 5.73894 5.74064 5.74370
 5.75137 5.75137 5.75238 5.75309 5.75309 5.75568 5.75801 5.75899 5.75899 5.76086
 5.76191 5.76623 5.76623 5.77026 5.79006 5.79509 5.80238 5.80238 5.85375 5.85375
 5.85701 5.86292 5.86696 5.87531 5.87531 5.88463 5.89840 5.89840 5.90504 5.96091
 6.00458 6.00633 6.00633 6.00919 6.01157 6.01257 6.01257 6.02299 6.04745 6.04786
 6.04786 6.05813 6.09053 6.09604 6.09604 6.10784 6.11309 6.12034 6.12034 6.12301
 6.12310 6.12628 6.12791 6.12791 6.13176 6.13271 6.13563 6.13735 6.13735 6.14216
 6.14216 6.14556 6.14840 6.15108 6.16717 6.17954 6.18075 6.18184 6.18184 6.18304
 6.18870 6.18872 6.18872 6.19132 6.20585 6.20585 6.20735 6.20911 6.20911 6.21169
 6.21238 6.21238 6.21726 6.22384 6.23613 6.23613 6.24124 6.24844 6.25554 6.27200
 6.27513 6.27513 6.28562 6.28774 6.29633 6.29633 6.30463 6.32184 6.32184 6.32472
 6.33134 6.33269 6.33484 6.33484 6.33766 6.33766 6.33983 6.34756 6.34756 6.34976
 6.36487 6.36553 6.36732 6.36974 6.36974 6.37828 6.37846 6.38337 6.38337 6.40578
 6.40578 6.40962 6.41223 6.41223 6.41574 6.42067 6.43340 6.43891 6.45300 6.45315
 6.45315 6.45784 6.45784 6.45897 6.46320 6.46715 6.47090 6.47151 6.47196 6.47196
 6.47913 6.48198 6.49430 6.49965 6.50071 6.50071 6.51660 6.51788 6.51970 6.52050
 6.52154 6.52154 6.52228 6.52264 6.52264 6.52596 6.52666 6.52666 6.53199 6.54477
 6.54790 6.54836 6.54836 6.55414 6.55429 6.56642 6.58373 6.61497 6.62006 6.62006
 6.67131 6.67131 6.67315 6.67503 7.08271 7.51437 7.66907 7.66907 8.64874 8.64915
 8.92055 8.92055 9.66536 9.78205 9.78482 10.05326 10.13370 10.13543 10.13913 10.14067
 10.14067 10.14238 10.14238 10.14240 10.14602 10.14639 10.14639 10.14850 10.14944 10.14944
 10.15312 10.15375 10.15375 10.15401 10.15451 10.15484 10.15567 10.15570 10.15570 10.15698
 10.15836 10.15861 10.16027 10.16027 10.16055 10.16080 10.16163 10.16172 10.16172 10.16222
 10.16222 10.16225 10.16301 10.16328 10.16388 10.16388 10.16461 10.16470 10.16491 10.16545
 10.16547 10.16547 10.16572 10.16572 10.16582 10.16608 10.16608 10.16610 10.16728 10.16728
 10.16856 10.16866 10.16866 10.16927 10.16930 10.16930 10.16986 10.17001 10.17055 10.17055
 10.17074 10.17146 10.17226 10.17226 10.17250 10.17270 10.17270 10.17343 10.17368 10.17372
 10.17463 10.17463 10.17469 10.17583 10.17583 10.17589 10.17681 10.17719 10.17719 10.17722
 10.17759 10.17799 10.17799 10.17802 10.17892 10.17936 10.17936 10.17999 10.18029 10.18073
 10.18092 10.18097 10.18097 10.18164 10.18209 10.18341 10.18341 10.18384 10.18404 10.18404
 10.18444 10.18551 10.18551 10.18581 10.18706 10.18707 10.18875 10.18892 10.18892 10.18935
 10.19016 10.19050 10.19057 10.19070 10.19070 10.19141 10.19180 10.19283 10.19284 10.19284
 10.19366 10.19366 10.19433 10.19549 10.19549 10.19574 10.19585 10.19635 10.19787 10.19812
 10.19818 10.19855 10.19866 10.19866 10.19921 10.19934 10.19934 10.20027 10.20027 10.20032
 10.20177 10.20340 10.20340 10.20453 10.20537 10.20596 10.20658 10.20721 10.20806 10.20806
 10.20958 10.20987 10.21108 10.21168 10.21168 10.21238 10.21314 10.21314 10.21324 10.21540
 10.21565 10.21565 10.21596 10.21795 10.21895 10.21895 10.22057 10.22057 10.22100 10.22128
 10.22170 10.22185 10.22185 10.22212 10.22341 10.22411 10.22411 10.22416 10.22511 10.22583
 10.22678 10.22678 10.22691 10.22768 10.22820 10.22828 10.22828 10.22903 10.22947 10.22947
 10.22976 10.23140 10.23178 10.23333 10.23359 10.23359 10.23581 10.23681 10.23691 10.23691
 10.23877 10.23877 10.23916 10.24067 10.24067 10.24095 10.24117 10.24117 10.24124 10.24137
 10.24159 10.24282 10.24289 10.24371 10.24371 10.24651 10.24651 10.24664 10.24834 10.24888
 10.24888 10.25038 10.25059 10.25088 10.25089 10.25179 10.25179 10.25274 10.25274 10.25303
 10.25326 10.25459 10.25459 10.25537 10.25578 10.25675 10.25846 10.25846 10.26062 10.26062
 10.26318 10.26549 10.26585 10.26719 10.26719 10.26765 10.26862 10.26888 10.26888 10.26913
 10.26913 10.26972 10.27011 10.27126 10.27199 10.27199 10.27209 10.27217 10.27228 10.27380
 10.27380 10.27553 10.27663 10.27663 10.27724 10.28092 10.28111 10.28163 10.28175 10.28175
 10.28233 10.28645 10.28645 10.28783 10.28903 10.28903 10.29064 10.29073 10.29517 10.29524
 10.29524 10.29526 10.29878 10.32882 10.39671 10.40125 10.73555 10.73555 11.11311 11.12559
 11.64033 11.64033 11.67234 11.81809 11.82246 11.82246 11.82629 11.84856 11.86061 11.86647
 11.99843 12.00302 12.00302 12.02424 12.03314 12.04450 12.04450 12.05156 12.08304 12.08703
 12.08703 12.09161 12.09186 12.09911 12.09911 12.13046 12.13415 12.13434 12.13434 12.13553
 12.13910 12.13910 12.14052 12.14654 12.14838 12.14974 12.15344 12.16114 12.16114 12.16438
 12.16582 12.16769 12.16873 12.16873 12.16956 12.17984 12.18038 12.18217 12.18217 12.21299
 12.21615 12.21615 12.21832 12.21832 12.21963 12.22021 12.23894 12.24751 12.25000 12.28063
 12.28063 12.28199 12.29249 12.30354 12.30354 12.31098 12.31856 12.31856 12.34071 12.34628
 12.37970 12.41816 12.41816 12.42284 12.44898 12.45775 12.47392 12.47392 12.51514 12.51527
 12.51650 12.51650 12.52360 12.52561 12.53073 12.53073 12.56373 12.57362 12.57362 12.58263
 12.58263 12.59007 12.59646 12.60168 12.60277 12.60277 12.61787 12.61891 12.61892 12.62122
 12.62296 12.63062 12.63062 12.63363 12.63618 12.63904 12.64051 12.64051 12.66219 12.66389
 12.66576 12.66577 12.70829 12.74003 12.74068 12.74752 12.74752 12.76155 12.76597 12.76597
 12.76676 12.76759 12.77206 12.78664 12.78664 12.78889 12.78968 12.80769 12.81244 12.81244
 12.81271 12.86434 12.88127 12.88127 12.88352 12.88803 12.90082 12.90082 12.92818 12.93301
 12.93301 12.94783 12.95027 12.95167 12.96933 12.97111 12.97205 12.97205 12.97560 12.97560
 12.97915 12.98665 12.98665 12.99647 13.04589 13.04815 13.04815 13.06219 13.06531 13.07540
 13.07540 13.08323 13.14524 13.28909 13.28909 13.35273 13.35273 13.57215 13.57491 13.59585
 13.59605 13.59605 13.59857 13.60204 13.60205 13.60724 13.61734 13.62819 13.63084 13.63084
 13.63884 13.63884 13.63889 13.63948 13.64028 13.64086 13.64387 13.64408 13.64408 13.64878
 13.64950 13.64951 13.65116 13.65156 13.65325 13.65545 13.65766 13.65766 13.65868 13.65868
 13.67479 13.69514 13.70078 13.70130 13.70323 13.70365 13.70365 13.70467 13.70467 13.70533
 13.70656 13.70656 13.70880 13.70880 13.70882 13.70884 13.70908 13.71034 13.71863 13.71973
 13.72042 13.72082 13.72082 13.72235 13.72400 13.72400 13.72430 13.73234 13.73234 13.73292
 13.73500 13.73572 13.73572 13.73817 13.74082 13.74102 13.74351 13.74439 13.74439 13.75287
 13.75880 13.76070 13.76314 13.76444 13.76444 13.76940 13.78150 13.78255 13.78443 13.78443
 13.78575 13.78575 13.78690 13.79142 13.79452 13.79630 13.79760 13.79760 13.80023 13.80060
 13.80110 13.80110 13.80189 13.80631 13.80631 13.80836 13.80925 13.81056 13.81056 13.81551
 13.82367 13.82368 13.82398 13.82474 13.83389 13.83389 13.83628 13.83628 13.83660 13.83777
 13.83777 13.83958 13.85089 13.85290 13.85379 13.85379 13.85413 13.85413 13.85439 13.85608
 13.85633 13.85645 13.85645 13.85790 13.85965 13.86100 13.86100 13.86200 13.86200 13.86443
 13.86443 13.86496 13.86669 13.86676 13.86848 13.86848 13.86877 13.87170 13.87268 13.87451
 13.87451 13.87492 13.87566 13.87786 13.87798 13.87799 13.87799 13.88041 13.88041 13.88323
 13.88441 13.88441 13.88946 13.89085 13.89085 13.89342 13.89354 13.89467 13.89468 13.89549
 13.89900 13.89992 13.89992 13.90000 13.90361 13.90435 13.90435 13.90545 13.91099 13.91303
 13.91367 13.91367 13.91779 13.91811 13.91811 13.92169 13.92224 13.92224 13.92292 13.92557
 13.92984 13.93200 13.93364 13.93395 13.93461 13.93461 13.94828 13.94828 13.95194 13.95247
 13.95391 13.95810 13.95810 13.95869 13.95869 13.96219 13.96613 13.96725 13.96772 13.96772
 13.96940 13.97040 13.97040 13.97118 13.97758 13.99395 13.99395 14.00133 14.00212 14.00212
 14.00702 14.00867 14.00867 14.01864 14.02132 14.02502 14.02780 14.02780 14.03643 14.03730
 14.03730 14.03842 14.03875 14.03995 14.04062 14.04062 14.04398 14.04816 14.05495 14.05670
 14.05670 14.06709 14.07056 14.07056 14.07734 14.07802 14.08538 14.09570 14.09691 14.09820
 14.09820 14.09896 14.10145 14.10145 14.10302 14.11328 14.11328 14.12519 14.12519 14.12519
 14.12947 14.14140 14.17419 14.17603 14.17790 14.19557 14.19557 14.20452 14.20562 14.20563
 14.21657 14.23894 14.24846 14.25112 14.25112 14.25717 14.25826 14.25826 14.26163 14.26173
 14.27523 14.27858 14.27895 14.27895 14.28249 14.28718 14.28718 14.29932 14.30732 14.31968
 14.31968 14.32048 14.32306 14.32306 14.32441 14.33419 14.35172 14.35252 14.35593 14.35593
 14.37643 14.38091 14.39208 14.39208 14.42477 14.42789 14.42907 14.42907 14.43750 14.43750
 14.45541 14.48429 14.48825 14.48825 14.48962 14.49198 14.49540 14.49852 14.49852 14.50044
 14.50188 14.50188 14.50206 14.50210 14.51509 14.51509 14.54492 14.54492 14.54960 14.55924
 14.55924 14.59855 14.60169 14.60995 14.60995 14.61458 14.61792 14.62438 14.62444 14.62444
 14.63058 14.63919 14.63919 14.64265 14.64815 14.64900 14.65080 14.65080 14.65229 14.65289
 14.65289 14.65369 14.65369 14.65376 14.65539 14.65589 14.65709 14.65739 14.65783 14.65783
 14.65929 14.66210 14.66334 14.66334 14.66334 14.66563 14.66563 14.67017 14.68431 14.68969
 14.68969 14.69492 14.69492 14.69880 14.70001 14.70001 14.70001 14.70173 14.70293 14.70907
 14.70907 14.71233 14.71388 14.71550 14.71955 14.71955 14.73080 14.73081 14.73302 14.73416
 14.74422 14.74891 14.74939 14.75405 14.75785 14.76128 14.76340 14.76371 14.76446 14.76447
 14.76528 14.76528 14.76708 14.76893 14.76893 14.77675 14.77847 14.77847 14.79905 14.80446
 14.80550 14.80550 14.80582 14.80685 14.80685 14.80724 14.80756 14.80934 14.80934 14.81124
 14.81175 14.81175 14.81281 14.81511 14.81511 14.81604 14.81986 14.82077 14.82077 14.84992
 14.86393 14.86393 14.86515 14.86537 14.87113 14.87114 14.89909 14.90598 14.91043 14.91142
 14.91142 14.91646 14.92188 14.92188 14.94162 14.95403 14.95403 14.96179 14.96615 14.97017
 14.97017 14.97822 14.97856 14.98055 14.98723 14.98723 14.99316 14.99638 14.99638 14.99984
 15.00483 15.00549 15.00549 15.00678 15.01257 15.01363 15.01456 15.01456 15.01607 15.01889
 15.02123 15.02123 15.02225 15.02225 15.02406 15.02552 15.02834 15.02931 15.03087 15.03094
 15.03095 15.04369 15.04775 15.05788 15.05788 15.06696 15.08424 15.18607 15.19324 17.11759
 17.13101 17.17864 17.17864 17.18206 17.18296 17.18813 17.18814 17.18926 17.18926 17.21760
 17.22379 17.22379 17.22680 17.27156 17.27387 17.27601 17.27601 17.27945 17.27945 17.27976
 17.28128 17.28168 17.28537 17.28537 17.28548 17.35879 17.35983 17.35983 17.36478 17.36605
 17.36605 17.36708 17.37176 17.41368 17.41368 17.42040 17.42629 17.43084 17.43260 17.43261
 17.43327 17.43397 17.43397 17.43411 17.43493 17.44030 17.44030 17.44248 17.44251 17.44294
 17.44354 17.44354 17.44856 17.45354 17.45531 17.45531 17.46154 17.46393 17.46548 17.46548
 17.47247 17.48011 17.48953 17.48960 17.48960 17.49428 17.49748 17.49748 17.49756 17.50058
 17.50211 17.50211 17.50441 17.50515 17.50515 17.50732 17.52695 17.54554 17.54691 17.54868
 17.54868 17.57347 17.57355 17.57369 17.57369 17.58108 17.58108 17.58172 17.58483 17.59188
 17.59188 17.59361 17.59477 17.59522 17.59522 17.59679 17.59891 17.59891 17.59966 17.61643
 17.61643 17.61702 17.62335 17.62408 17.64405 17.64405 17.64695 17.64900 17.65453 17.65596
 17.66067 17.66067 17.66701 17.67045 17.67626 17.67626 17.67629 17.68133 17.68285 17.68286
 17.68456 17.68903 17.69590 17.69590 17.69668 17.69816 17.70812 17.70839 17.74444 17.74914
 17.74914 17.74970 17.75288 17.75384 17.75412 17.75412 17.75544 17.75560 17.75830 17.75830
 17.76007 17.76412 17.76412 17.76879 17.77039 17.77069 17.77346 17.77383 17.77384 17.80609
 17.80786 17.80792 17.83344 17.84360 17.84360 17.87407 17.87407 17.87583 17.87721 27.94561
 31.48799 31.49304 31.49441 31.49603 31.50247 31.50247 31.51418 31.51643 31.51934 31.52080
 31.52080 31.52384 31.52654 31.52654 31.52855 31.52863 31.53365 31.53365 31.54357 31.54430
 31.55888 31.55888 31.55951 31.56355 31.61525 31.61525 31.61568 31.62150 31.64144 31.64553
 31.64553 31.67395 31.73364 31.73571 31.73588 31.73588 31.79240 31.79438 31.79438 31.79717
 31.86849 31.87434 31.87434 31.87776 31.87784 31.87808 31.90932 31.90932 31.93330 31.94470
 31.94549 31.94549 31.97676 32.02860 32.03229 32.15212 32.15596 32.15596 32.15908 32.22954
 32.23034 32.23471 32.23471 32.40113 47.94402 90.22557 90.23009 90.23187 90.23398 90.23987
 90.23987 90.24786 90.25022 90.25376 90.25494 90.25494 90.25767 90.26066 90.26066 90.26236
 90.26293 90.26722 90.26722 90.27653 90.28447 90.29329 90.29329 90.29463 90.34382 90.37598
 90.37615 90.37615 90.38008 90.38917 90.39430 90.39430 90.42165 91.42683 91.43066 91.43080
 91.43080 91.50352 91.50576 91.50576 91.50996 91.59046 91.59458 91.59458 91.59817 91.59866
 91.60014 91.63438 91.63438 91.66329 91.66976 91.67335 91.67335 91.70868 91.74881 91.74953
 91.89045 91.89365 91.89365 91.89687 91.95976 91.96375 91.96375 91.96377 92.12467 146.62103
 252.57888 410.69164 410.69251 410.70067 410.70379 410.71169 410.71169 410.72323 410.72503 410.72941
 410.73095 410.73095 410.73514 410.73807 410.73807 410.73902 410.74170 410.74849 410.74849 410.76239
 410.77435 410.79108 410.79108 410.79296 410.90404 410.92211 410.92211 410.92274 410.92634 410.93136
 410.94298 410.94298 410.98374 427.46173 427.46352 427.46655 427.46655 427.65975 427.65975 427.66503
 427.66881 427.87445 427.87446 427.88142 427.88435 427.89563 427.89714 427.97662 427.97663 428.05535
 428.05787 428.06809 428.06809 428.17200 428.22482 428.24080 428.59363 428.59363 428.59451 428.59846
 428.73049 428.73916 428.73917 428.76072 429.07856
 ---------------------------------------------------------------------------
 VBM is at 0-th k-point with -9.00718 eV
 CBM is at 0-th k-point with -2.06617 eV
 Band gap is 6.94101 eV


           Ground-State Mulliken Net Atomic Charges

      Atom                 Charge (a.u.)          Spin (a.u.)
   --------------------------------------------------------
      1  C              (-0.028907,-0.000000)    (0.000000,0.000000)
      2  O               (7.986552,-0.000000)    (0.000000,0.000000)
   --------------------------------------------------------
  Sum of atomic charges =      (0.000000,-0.000000)
  Sum of spin   charges =       (0.000000,0.000000)



 Total job time:  4471.41 s.
 Wed Sep 17 14:50:52 2025


        *************************************************************
        *                                                           *
        *  Thank you very much for using QCPBC. Have a nice day.    *
        *                                                           *
        *************************************************************

Running job 1 of 1
