                  Welcome to Q-Chem
           with Periodic Boundary Condition
     A Quantum Leap Into The Future Of Chemistry

 Adam Rettig, Xintian Feng, Meng-Fu Chen, Hieu Dinh, Stephen Quiton,
 Anton Ni, Paul J. Robinson, Jinghong Zhang, Joonho Lee

Contributors to earlier versions of Q-Chem not listed above:
 Evgeny Epifanovsky, Leo Cunha, Jerome F. Gonthier, Kuan-Yu Liu
 Input file: /scratch/bdxq/hdinh//mgo_co_slab_def2qzvp_co_ghost_111.scratch20250815074638/mgo_co_slab_def2qzvp_co_ghost_111.0
 Scratch folder: /scratch/bdxq/hdinh//mgo_co_slab_def2qzvp_co_ghost_111.scratch20250815074638
 Auxillary files located at: /u/hdinh/qcpbc/qcaux
 Q-Chem begins on Fri Aug 15 07:46:41 2025

 -------------------------------------------------------------
 User input:
 -------------------------------------------------------------
  $lattice
  3
  11.9443159104 0.0000000000 0.0000000000
  0.0000000000 11.9443159104 0.0000000000
  0.0000000000 0.0000000000 21.6602222298
  $end
  
  $unitcell
  ABSOLUTE
  0 1
 @C   1.4930428341    1.4930432491    5.5284856213
 Mg   0.0000000000    0.0000000000    1.0000000000
 Mg   8.9582369328    5.9721579552    1.0000000000
 Mg   2.9860789776    5.9721579552    1.0000000000
 Mg   2.9860789776    8.9582369328    1.0000000000
 Mg   5.9721579552    0.0000000000    1.0000000000
 Mg   5.9721579552    2.9860789776    1.0000000000
 Mg   5.9721579552    5.9721579552    1.0000000000
 Mg   8.9582369328    2.9860789776    1.0000000000
 Mg   5.9721579552    8.9582369328    1.0000000000
 Mg   8.9582369328    0.0000000000    1.0000000000
 Mg   2.9860789776    2.9860789776    1.0000000000
 Mg   8.9582369328    8.9582369328    1.0000000000
 Mg   0.0000000000    8.9582369328    1.0000000000
 Mg   0.0000000000    2.9860789776    1.0000000000
 Mg   0.0000000000    5.9721579552    1.0000000000
 Mg   2.9860789776    0.0000000000    1.0000000000
 Mg   1.4930343349    1.4930374153    3.1511187175
 Mg   7.4651977897   10.4517004415    3.1114386205
 Mg   7.4651969790    7.4651968898    3.1112699448
 Mg   1.4930327857    4.4811832720    3.1056362779
 Mg   7.4651966404    4.4786922443    3.1114383107
 Mg   4.4811624032    1.4930368520    3.1056318890
 Mg  10.4496839597    4.4807048989    3.1095898700
 Mg   1.4930399629    7.4651963524    3.1116080311
 Mg  10.4496925734   10.4496968378    3.1095846708
 Mg   4.4807088948   10.4496904623    3.1095885984
 Mg   4.4786954624    7.4651978298    3.1114386978
 Mg   1.4930424686   10.4492084126    3.1056383774
 Mg  10.4516980458    7.4651970662    3.1114406695
 Mg   4.4807013212    4.4807040921    3.1095854125
 Mg   7.4651986133    1.4930389816    3.1116104730
 Mg  10.4492249714    1.4930441995    3.1056280117
 O  10.4512759328    1.4930390000    1.0000000000
 O   4.4791179776   10.4512759328    1.0000000000
 O   7.4651969552    1.4930390000    1.0000000000
 O   4.4791179776    4.4791179776    1.0000000000
 O  10.4512759328    4.4791179776    1.0000000000
 O   7.4651969552    7.4651969552    1.0000000000
 O   7.4651969552   10.4512759328    1.0000000000
 O   7.4651969552    4.4791179776    1.0000000000
 O   4.4791179776    7.4651969552    1.0000000000
 O   1.4930390000   10.4512759328    1.0000000000
 O  10.4512759328    7.4651969552    1.0000000000
 O   1.4930390000    4.4791179776    1.0000000000
 O   1.4930390000    7.4651969552    1.0000000000
 O   1.4930390000    1.4930390000    1.0000000000
 O   4.4791179776    1.4930390000    1.0000000000
 O  10.4512759328   10.4512759328    1.0000000000
 O   8.9580238897    5.9723685818    3.1594644112
 O   8.9570961456    2.9857717252    3.1600752389
 O   8.9570985067    0.0003085838    3.1600738373
 O   2.9857747423    8.9570945142    3.1600737733
 O   5.9723690642    5.9723696033    3.1594610725
 O   5.9732960489    2.9857717265    3.1600713997
 O   5.9732976356    0.0003062885    3.1600713024
 O   2.9857711850    5.9732998192    3.1600740469
 O   2.9950544541    2.9950623702    3.1548459568
 O   2.9950599166   -0.0089867212    3.1548507549
 O   0.0003060319    8.9570959750    3.1600745678
 O   0.0003045736    5.9732996331    3.1600758940
 O  -0.0089879078    2.9950667318    3.1548429191
 O  -0.0089805134   -0.0089799254    3.1548482730
 O   5.9723706153    8.9580251994    3.1594625961
 O   8.9580250454    8.9580263132    3.1594616543
 @O   1.4930495812    1.4930407413    6.6690780399
 $end
  
 $rem
 jobtype = sp
 method = pbe
 dft_d = 6
 scf_convergence = 5
 scf_guess = autosad
 scf_algorithm = gdm
 basis = def2-qzvp
 aux_basis = rij-def2-qzvp
 input_bohr = false
 is_basis_uctr = false
 
 mp_mesh = [1,1,1]
 
 integral_direct true
 bvk_cgto true
 symmetry false
 rsdf_print_level 1
 
 thresh 14
 mem_total 500000
 threads 32
 
 MAX_SCF_CYCLES 500
 madelung = false
 omega 0.6
 do_rij_bigmem true
 automate_g true
 print_level 10
 grid_type_xc 1
 
 thresh_1e2c_sp 1e-14
 thresh_2e3c_bra_ket_sep 1e-10
 thresh_g 1e-10
 $end
 
 $rem_autosad
 incfock 1000
 scf_algorithm gdm_ls
 $end
  
  
 -------------------------------------------------------------
 Running PBC job

 Requested Exchange Correlation Functionals: 
  DFT Exchange:  1.00000 pbe_x
  DFT Correlation:  1.00000 pbe_c
 using 32 threads for computing.
 ---------------------------------------------------------------
      Coordinates of Atoms in Central Unit Cell (Angstroms)
    I     Atom         X            Y            Z
 ---------------------------------------------------------------
    1      @C      1.493043     1.493043     5.528486
    2      Mg      0.000000     0.000000     1.000000
    3      Mg      8.958237     5.972158     1.000000
    4      Mg      2.986079     5.972158     1.000000
    5      Mg      2.986079     8.958237     1.000000
    6      Mg      5.972158     0.000000     1.000000
    7      Mg      5.972158     2.986079     1.000000
    8      Mg      5.972158     5.972158     1.000000
    9      Mg      8.958237     2.986079     1.000000
   10      Mg      5.972158     8.958237     1.000000
   11      Mg      8.958237     0.000000     1.000000
   12      Mg      2.986079     2.986079     1.000000
   13      Mg      8.958237     8.958237     1.000000
   14      Mg      0.000000     8.958237     1.000000
   15      Mg      0.000000     2.986079     1.000000
   16      Mg      0.000000     5.972158     1.000000
   17      Mg      2.986079     0.000000     1.000000
   18      Mg      1.493034     1.493037     3.151119
   19      Mg      7.465198    10.451700     3.111439
   20      Mg      7.465197     7.465197     3.111270
   21      Mg      1.493033     4.481183     3.105636
   22      Mg      7.465197     4.478692     3.111438
   23      Mg      4.481162     1.493037     3.105632
   24      Mg     10.449684     4.480705     3.109590
   25      Mg      1.493040     7.465196     3.111608
   26      Mg     10.449693    10.449697     3.109585
   27      Mg      4.480709    10.449690     3.109589
   28      Mg      4.478695     7.465198     3.111439
   29      Mg      1.493042    10.449208     3.105638
   30      Mg     10.451698     7.465197     3.111441
   31      Mg      4.480701     4.480704     3.109585
   32      Mg      7.465199     1.493039     3.111610
   33      Mg     10.449225     1.493044     3.105628
   34       O     10.451276     1.493039     1.000000
   35       O      4.479118    10.451276     1.000000
   36       O      7.465197     1.493039     1.000000
   37       O      4.479118     4.479118     1.000000
   38       O     10.451276     4.479118     1.000000
   39       O      7.465197     7.465197     1.000000
   40       O      7.465197    10.451276     1.000000
   41       O      7.465197     4.479118     1.000000
   42       O      4.479118     7.465197     1.000000
   43       O      1.493039    10.451276     1.000000
   44       O     10.451276     7.465197     1.000000
   45       O      1.493039     4.479118     1.000000
   46       O      1.493039     7.465197     1.000000
   47       O      1.493039     1.493039     1.000000
   48       O      4.479118     1.493039     1.000000
   49       O     10.451276    10.451276     1.000000
   50       O      8.958024     5.972369     3.159464
   51       O      8.957096     2.985772     3.160075
   52       O      8.957099     0.000309     3.160074
   53       O      2.985775     8.957095     3.160074
   54       O      5.972369     5.972370     3.159461
   55       O      5.973296     2.985772     3.160071
   56       O      5.973298     0.000306     3.160071
   57       O      2.985771     5.973300     3.160074
   58       O      2.995054     2.995062     3.154846
   59       O      2.995060    -0.008987     3.154851
   60       O      0.000306     8.957096     3.160075
   61       O      0.000305     5.973300     3.160076
   62       O     -0.008988     2.995067     3.154843
   63       O     -0.008981    -0.008980     3.154848
   64       O      5.972371     8.958025     3.159463
   65       O      8.958025     8.958026     3.159462
   66      @O      1.493050     1.493041     6.669078
 ---------------------------------------------------------------
 --------------------------------------------------
              Lattice Vectors (Angstroms)
              X            Y            Z
 --------------------------------------------------
   X      11.944316     0.000000     0.000000
   Y       0.000000    11.944316     0.000000
   Z       0.000000     0.000000    21.660222
 --------------------------------------------------
 --------------------------------------------------
       Reciprocal Lattice Vectors (Angstroms^-1)
              X            Y            Z
 --------------------------------------------------
   X       0.526040     0.000000     0.000000
   Y       0.000000     0.526040     0.000000
   Z       0.000000     0.000000     0.290079
 --------------------------------------------------

 Single point calculation requested

 Hamiltonian contributions:
 List of terms in Hamiltonian: kpts_nn, kpts_kinetic, kpts_vnuc_df, kpts_xc, kpts_rij_bigmem, kpts_dftd3

 K-Points calculation started.

 Basis set information about using solid harmonic (1) or Cartesian (0):
  c : D(1) D(1) D(1) F(1) F(1) G(1) 
  o : D(1) D(1) D(1) F(1) F(1) G(1) 
  mg : D(1) D(1) D(1) D(1) F(1) 

 Basis set information about using solid harmonic (1) or Cartesian (0):
  c : D(1) D(1) D(1) F(1) G(1) 
  o : D(1) D(1) D(1) F(1) G(1) 
  mg : D(1) D(1) D(1) D(1) F(1) G(1) 

 There are 3570 basis functions in the central unit cell.
 Print atomic basis of atoms in the central unit cell:
 -------------------------------------------------------------
66 2170 2170 1186

  2.82144204878407e+00  2.82144283302041e+00  1.04473237081885e+01
  0.00000000000000e+00  0.00000000000000e+00  1.88972612462577e+00
  1.69286143624996e+01  1.12857429083331e+01  1.88972612462577e+00
  5.64287145416653e+00  1.12857429083331e+01  1.88972612462577e+00
  5.64287145416653e+00  1.69286143624996e+01  1.88972612462577e+00
  1.12857429083331e+01  0.00000000000000e+00  1.88972612462577e+00
  1.12857429083331e+01  5.64287145416653e+00  1.88972612462577e+00
  1.12857429083331e+01  1.12857429083331e+01  1.88972612462577e+00
  1.69286143624996e+01  5.64287145416653e+00  1.88972612462577e+00
  1.12857429083331e+01  1.69286143624996e+01  1.88972612462577e+00
  1.69286143624996e+01  0.00000000000000e+00  1.88972612462577e+00
  5.64287145416653e+00  5.64287145416653e+00  1.88972612462577e+00
  1.69286143624996e+01  1.69286143624996e+01  1.88972612462577e+00
  0.00000000000000e+00  1.69286143624996e+01  1.88972612462577e+00
  0.00000000000000e+00  5.64287145416653e+00  1.88972612462577e+00
  0.00000000000000e+00  1.12857429083331e+01  1.88972612462577e+00
  5.64287145416653e+00  0.00000000000000e+00  1.88972612462577e+00
  2.82142598762379e+00  2.82143180873615e+00  5.95475136225700e+00
  1.41071792886946e+01  1.97508513710652e+01  5.87976684632842e+00
  1.41071777566937e+01  1.41071775881301e+01  5.87944809545154e+00
  2.82142306006008e+00  8.46820909833439e+00  5.86880200793317e+00
  1.41071771168324e+01  8.46350173821253e+00  5.87976626089126e+00
  8.46816966201784e+00  2.82143074425342e+00  5.86879371411418e+00
  1.97470407727280e+01  8.46730510419000e+00  5.87627321421065e+00
  2.82143662300242e+00  1.41071765725913e+01  5.88008698596503e+00
  1.97470570502619e+01  1.97470651088100e+01  5.87626338914658e+00
  8.46731265534662e+00  1.97470530608611e+01  5.87627081123491e+00
  8.46350781954017e+00  1.41071793644727e+01  5.87976699240425e+00
  2.82144135808917e+00  1.97461421189496e+01  5.86880597541317e+00
  1.97508468438484e+01  1.41071779214778e+01  5.87977071837725e+00
  8.46729834331684e+00  8.46730357955896e+00  5.87626479075645e+00
  1.41071808450731e+01  2.82143476861417e+00  5.88009160048725e+00
  1.97461734105465e+01  2.82144462901612e+00  5.86878638707908e+00
  1.97500491658847e+01  2.82143480338514e+00  1.88972612462577e+00
  8.46430625755166e+00  1.97500491658847e+01  1.88972612462577e+00
  1.41071777117182e+01  2.82143480338514e+00  1.88972612462577e+00
  8.46430625755166e+00  8.46430625755166e+00  1.88972612462577e+00
  1.97500491658847e+01  8.46430625755166e+00  1.88972612462577e+00
  1.41071777117182e+01  1.41071777117182e+01  1.88972612462577e+00
  1.41071777117182e+01  1.97500491658847e+01  1.88972612462577e+00
  1.41071777117182e+01  8.46430625755166e+00  1.88972612462577e+00
  8.46430625755166e+00  1.41071777117182e+01  1.88972612462577e+00
  2.82143480338514e+00  1.97500491658847e+01  1.88972612462577e+00
  1.97500491658847e+01  1.41071777117182e+01  1.88972612462577e+00
  2.82143480338514e+00  8.46430625755166e+00  1.88972612462577e+00
  2.82143480338514e+00  1.41071777117182e+01  1.88972612462577e+00
  2.82143480338514e+00  2.82143480338514e+00  1.88972612462577e+00
  8.46430625755166e+00  2.82143480338514e+00  1.88972612462577e+00
  1.97500491658847e+01  1.97500491658847e+01  1.88972612462577e+00
  1.69282117693878e+01  1.12861409349216e+01  5.97052243767002e+00
  1.69264585871251e+01  5.64229083127940e+00  5.97167673473235e+00
  1.69264630489575e+01  5.83138868496294e-04  5.97167408609222e+00
  5.64229653277209e+00  1.69264555042259e+01  5.97167396514974e+00
  1.12861418465255e+01  1.12861428652769e+01  5.97051612844141e+00
  1.12878935937302e+01  5.64229083373604e+00  5.97166947969581e+00
  1.12878965921587e+01  5.78801380122440e-04  5.97166929582546e+00
  5.64228981044934e+00  1.12879007185646e+01  5.97167448217881e+00
  5.65983264658954e+00  5.65984760585052e+00  5.96179482373494e+00
  5.65984296921850e+00 -1.69824418263683e-02  5.96180389082986e+00
  5.78316476398861e-04  1.69264582647378e+01  5.97167546653715e+00
  5.75560688791319e-04  1.12879003668866e+01  5.97167797269194e+00
 -1.69846841753877e-02  5.65985584807999e+00  5.96178908331389e+00
 -1.69707107845318e-02 -1.69695996255705e-02  5.96179920071859e+00
  1.12861447776797e+01  1.69282142443622e+01  5.97051900762813e+00
  1.69282139533443e+01  1.69282163491391e+01  5.97051722788406e+00
  2.82145479895521e+00  2.82143809396524e+00  1.26027309991671e+01

  6.70250710290000e+04
  1.00399865380000e+04
  2.28493169110000e+03
  6.47141221300000e+02
  2.11094723350000e+02
  7.61776438620000e+01
  2.96338391630000e+01
  1.21877850810000e+01
  5.30260062990000e+01
  1.52585027760000e+01
  5.24039574640000e+00
  2.29050223790000e+00
  6.96732830060000e-01
  2.75993373630000e-01
  1.07398843890000e-01
  1.05125550820000e+02
  2.48844610660000e+01
  7.86372308260000e+00
  2.84070018350000e+00
  1.12271373350000e+00
  4.60507255550000e-01
  1.89375309130000e-01
  7.59837916110000e-02
  1.84800000000000e+00
  6.49000000000000e-01
  2.28000000000000e-01
  1.41900000000000e+00
  4.85000000000000e-01
  1.01100000000000e+00
  6.05967787530000e+05
  9.05690946920000e+04
  2.05742528440000e+04
  5.81862848650000e+03
  1.89562960750000e+03
  6.83459410210000e+02
  2.66182197620000e+02
  1.10112200100000e+02
  4.77770412340000e+01
  2.15421661490000e+01
  1.74121363780000e+02
  5.34849724980000e+01
  2.05002133070000e+01
  9.80568269220000e+00
  3.54029893480000e+00
  1.54508500460000e+00
  6.65401954320000e-01
  1.43554390710000e-01
  6.66246734680000e-02
  2.97726482660000e-02
  8.93204608290000e+02
  2.11782582860000e+02
  6.84432005370000e+01
  2.57272653490000e+01
  1.06066342810000e+01
  4.59341264840000e+00
  2.01004698070000e+00
  8.73848415360000e-01
  3.56150766660000e-01
  1.89959543560000e-01
  7.45801356690000e-02
  2.92216413090000e-02
  3.81000000000000e+00
  6.50000000000000e-01
  2.00000000000000e-01
  5.20000000000000e-02
  1.60000000000000e-01
  6.05967787530000e+05
  9.05690946920000e+04
  2.05742528440000e+04
  5.81862848650000e+03
  1.89562960750000e+03
  6.83459410210000e+02
  2.66182197620000e+02
  1.10112200100000e+02
  4.77770412340000e+01
  2.15421661490000e+01
  1.74121363780000e+02
  5.34849724980000e+01
  2.05002133070000e+01
  9.80568269220000e+00
  3.54029893480000e+00
  1.54508500460000e+00
  6.65401954320000e-01
  1.43554390710000e-01
  6.66246734680000e-02
  2.97726482660000e-02
  8.93204608290000e+02
  2.11782582860000e+02
  6.84432005370000e+01
  2.57272653490000e+01
  1.06066342810000e+01
  4.59341264840000e+00
  2.01004698070000e+00
  8.73848415360000e-01
  3.56150766660000e-01
  1.89959543560000e-01
  7.45801356690000e-02
  2.92216413090000e-02
  3.81000000000000e+00
  6.50000000000000e-01
  2.00000000000000e-01
  5.20000000000000e-02
  1.60000000000000e-01
  6.05967787530000e+05
  9.05690946920000e+04
  2.05742528440000e+04
  5.81862848650000e+03
  1.89562960750000e+03
  6.83459410210000e+02
  2.66182197620000e+02
  1.10112200100000e+02
  4.77770412340000e+01
  2.15421661490000e+01
  1.74121363780000e+02
  5.34849724980000e+01
  2.05002133070000e+01
  9.80568269220000e+00
  3.54029893480000e+00
  1.54508500460000e+00
  6.65401954320000e-01
  1.43554390710000e-01
  6.66246734680000e-02
  2.97726482660000e-02
  8.93204608290000e+02
  2.11782582860000e+02
  6.84432005370000e+01
  2.57272653490000e+01
  1.06066342810000e+01
  4.59341264840000e+00
  2.01004698070000e+00
  8.73848415360000e-01
  3.56150766660000e-01
  1.89959543560000e-01
  7.45801356690000e-02
  2.92216413090000e-02
  3.81000000000000e+00
  6.50000000000000e-01
  2.00000000000000e-01
  5.20000000000000e-02
  1.60000000000000e-01
  6.05967787530000e+05
  9.05690946920000e+04
  2.05742528440000e+04
  5.81862848650000e+03
  1.89562960750000e+03
  6.83459410210000e+02
  2.66182197620000e+02
  1.10112200100000e+02
  4.77770412340000e+01
  2.15421661490000e+01
  1.74121363780000e+02
  5.34849724980000e+01
  2.05002133070000e+01
  9.80568269220000e+00
  3.54029893480000e+00
  1.54508500460000e+00
  6.65401954320000e-01
  1.43554390710000e-01
  6.66246734680000e-02
  2.97726482660000e-02
  8.93204608290000e+02
  2.11782582860000e+02
  6.84432005370000e+01
  2.57272653490000e+01
  1.06066342810000e+01
  4.59341264840000e+00
  2.01004698070000e+00
  8.73848415360000e-01
  3.56150766660000e-01
  1.89959543560000e-01
  7.45801356690000e-02
  2.92216413090000e-02
  3.81000000000000e+00
  6.50000000000000e-01
  2.00000000000000e-01
  5.20000000000000e-02
  1.60000000000000e-01
  6.05967787530000e+05
  9.05690946920000e+04
  2.05742528440000e+04
  5.81862848650000e+03
  1.89562960750000e+03
  6.83459410210000e+02
  2.66182197620000e+02
  1.10112200100000e+02
  4.77770412340000e+01
  2.15421661490000e+01
  1.74121363780000e+02
  5.34849724980000e+01
  2.05002133070000e+01
  9.80568269220000e+00
  3.54029893480000e+00
  1.54508500460000e+00
  6.65401954320000e-01
  1.43554390710000e-01
  6.66246734680000e-02
  2.97726482660000e-02
  8.93204608290000e+02
  2.11782582860000e+02
  6.84432005370000e+01
  2.57272653490000e+01
  1.06066342810000e+01
  4.59341264840000e+00
  2.01004698070000e+00
  8.73848415360000e-01
  3.56150766660000e-01
  1.89959543560000e-01
  7.45801356690000e-02
  2.92216413090000e-02
  3.81000000000000e+00
  6.50000000000000e-01
  2.00000000000000e-01
  5.20000000000000e-02
  1.60000000000000e-01
  6.05967787530000e+05
  9.05690946920000e+04
  2.05742528440000e+04
  5.81862848650000e+03
  1.89562960750000e+03
  6.83459410210000e+02
  2.66182197620000e+02
  1.10112200100000e+02
  4.77770412340000e+01
  2.15421661490000e+01
  1.74121363780000e+02
  5.34849724980000e+01
  2.05002133070000e+01
  9.80568269220000e+00
  3.54029893480000e+00
  1.54508500460000e+00
  6.65401954320000e-01
  1.43554390710000e-01
  6.66246734680000e-02
  2.97726482660000e-02
  8.93204608290000e+02
  2.11782582860000e+02
  6.84432005370000e+01
  2.57272653490000e+01
  1.06066342810000e+01
  4.59341264840000e+00
  2.01004698070000e+00
  8.73848415360000e-01
  3.56150766660000e-01
  1.89959543560000e-01
  7.45801356690000e-02
  2.92216413090000e-02
  3.81000000000000e+00
  6.50000000000000e-01
  2.00000000000000e-01
  5.20000000000000e-02
  1.60000000000000e-01
  6.05967787530000e+05
  9.05690946920000e+04
  2.05742528440000e+04
  5.81862848650000e+03
  1.89562960750000e+03
  6.83459410210000e+02
  2.66182197620000e+02
  1.10112200100000e+02
  4.77770412340000e+01
  2.15421661490000e+01
  1.74121363780000e+02
  5.34849724980000e+01
  2.05002133070000e+01
  9.80568269220000e+00
  3.54029893480000e+00
  1.54508500460000e+00
  6.65401954320000e-01
  1.43554390710000e-01
  6.66246734680000e-02
  2.97726482660000e-02
  8.93204608290000e+02
  2.11782582860000e+02
  6.84432005370000e+01
  2.57272653490000e+01
  1.06066342810000e+01
  4.59341264840000e+00
  2.01004698070000e+00
  8.73848415360000e-01
  3.56150766660000e-01
  1.89959543560000e-01
  7.45801356690000e-02
  2.92216413090000e-02
  3.81000000000000e+00
  6.50000000000000e-01
  2.00000000000000e-01
  5.20000000000000e-02
  1.60000000000000e-01
  6.05967787530000e+05
  9.05690946920000e+04
  2.05742528440000e+04
  5.81862848650000e+03
  1.89562960750000e+03
  6.83459410210000e+02
  2.66182197620000e+02
  1.10112200100000e+02
  4.77770412340000e+01
  2.15421661490000e+01
  1.74121363780000e+02
  5.34849724980000e+01
  2.05002133070000e+01
  9.80568269220000e+00
  3.54029893480000e+00
  1.54508500460000e+00
  6.65401954320000e-01
  1.43554390710000e-01
  6.66246734680000e-02
  2.97726482660000e-02
  8.93204608290000e+02
  2.11782582860000e+02
  6.84432005370000e+01
  2.57272653490000e+01
  1.06066342810000e+01
  4.59341264840000e+00
  2.01004698070000e+00
  8.73848415360000e-01
  3.56150766660000e-01
  1.89959543560000e-01
  7.45801356690000e-02
  2.92216413090000e-02
  3.81000000000000e+00
  6.50000000000000e-01
  2.00000000000000e-01
  5.20000000000000e-02
  1.60000000000000e-01
  6.05967787530000e+05
  9.05690946920000e+04
  2.05742528440000e+04
  5.81862848650000e+03
  1.89562960750000e+03
  6.83459410210000e+02
  2.66182197620000e+02
  1.10112200100000e+02
  4.77770412340000e+01
  2.15421661490000e+01
  1.74121363780000e+02
  5.34849724980000e+01
  2.05002133070000e+01
  9.80568269220000e+00
  3.54029893480000e+00
  1.54508500460000e+00
  6.65401954320000e-01
  1.43554390710000e-01
  6.66246734680000e-02
  2.97726482660000e-02
  8.93204608290000e+02
  2.11782582860000e+02
  6.84432005370000e+01
  2.57272653490000e+01
  1.06066342810000e+01
  4.59341264840000e+00
  2.01004698070000e+00
  8.73848415360000e-01
  3.56150766660000e-01
  1.89959543560000e-01
  7.45801356690000e-02
  2.92216413090000e-02
  3.81000000000000e+00
  6.50000000000000e-01
  2.00000000000000e-01
  5.20000000000000e-02
  1.60000000000000e-01
  6.05967787530000e+05
  9.05690946920000e+04
  2.05742528440000e+04
  5.81862848650000e+03
  1.89562960750000e+03
  6.83459410210000e+02
  2.66182197620000e+02
  1.10112200100000e+02
  4.77770412340000e+01
  2.15421661490000e+01
  1.74121363780000e+02
  5.34849724980000e+01
  2.05002133070000e+01
  9.80568269220000e+00
  3.54029893480000e+00
  1.54508500460000e+00
  6.65401954320000e-01
  1.43554390710000e-01
  6.66246734680000e-02
  2.97726482660000e-02
  8.93204608290000e+02
  2.11782582860000e+02
  6.84432005370000e+01
  2.57272653490000e+01
  1.06066342810000e+01
  4.59341264840000e+00
  2.01004698070000e+00
  8.73848415360000e-01
  3.56150766660000e-01
  1.89959543560000e-01
  7.45801356690000e-02
  2.92216413090000e-02
  3.81000000000000e+00
  6.50000000000000e-01
  2.00000000000000e-01
  5.20000000000000e-02
  1.60000000000000e-01
  6.05967787530000e+05
  9.05690946920000e+04
  2.05742528440000e+04
  5.81862848650000e+03
  1.89562960750000e+03
  6.83459410210000e+02
  2.66182197620000e+02
  1.10112200100000e+02
  4.77770412340000e+01
  2.15421661490000e+01
  1.74121363780000e+02
  5.34849724980000e+01
  2.05002133070000e+01
  9.80568269220000e+00
  3.54029893480000e+00
  1.54508500460000e+00
  6.65401954320000e-01
  1.43554390710000e-01
  6.66246734680000e-02
  2.97726482660000e-02
  8.93204608290000e+02
  2.11782582860000e+02
  6.84432005370000e+01
  2.57272653490000e+01
  1.06066342810000e+01
  4.59341264840000e+00
  2.01004698070000e+00
  8.73848415360000e-01
  3.56150766660000e-01
  1.89959543560000e-01
  7.45801356690000e-02
  2.92216413090000e-02
  3.81000000000000e+00
  6.50000000000000e-01
  2.00000000000000e-01
  5.20000000000000e-02
  1.60000000000000e-01
  6.05967787530000e+05
  9.05690946920000e+04
  2.05742528440000e+04
  5.81862848650000e+03
  1.89562960750000e+03
  6.83459410210000e+02
  2.66182197620000e+02
  1.10112200100000e+02
  4.77770412340000e+01
  2.15421661490000e+01
  1.74121363780000e+02
  5.34849724980000e+01
  2.05002133070000e+01
  9.80568269220000e+00
  3.54029893480000e+00
  1.54508500460000e+00
  6.65401954320000e-01
  1.43554390710000e-01
  6.66246734680000e-02
  2.97726482660000e-02
  8.93204608290000e+02
  2.11782582860000e+02
  6.84432005370000e+01
  2.57272653490000e+01
  1.06066342810000e+01
  4.59341264840000e+00
  2.01004698070000e+00
  8.73848415360000e-01
  3.56150766660000e-01
  1.89959543560000e-01
  7.45801356690000e-02
  2.92216413090000e-02
  3.81000000000000e+00
  6.50000000000000e-01
  2.00000000000000e-01
  5.20000000000000e-02
  1.60000000000000e-01
  6.05967787530000e+05
  9.05690946920000e+04
  2.05742528440000e+04
  5.81862848650000e+03
  1.89562960750000e+03
  6.83459410210000e+02
  2.66182197620000e+02
  1.10112200100000e+02
  4.77770412340000e+01
  2.15421661490000e+01
  1.74121363780000e+02
  5.34849724980000e+01
  2.05002133070000e+01
  9.80568269220000e+00
  3.54029893480000e+00
  1.54508500460000e+00
  6.65401954320000e-01
  1.43554390710000e-01
  6.66246734680000e-02
  2.97726482660000e-02
  8.93204608290000e+02
  2.11782582860000e+02
  6.84432005370000e+01
  2.57272653490000e+01
  1.06066342810000e+01
  4.59341264840000e+00
  2.01004698070000e+00
  8.73848415360000e-01
  3.56150766660000e-01
  1.89959543560000e-01
  7.45801356690000e-02
  2.92216413090000e-02
  3.81000000000000e+00
  6.50000000000000e-01
  2.00000000000000e-01
  5.20000000000000e-02
  1.60000000000000e-01
  6.05967787530000e+05
  9.05690946920000e+04
  2.05742528440000e+04
  5.81862848650000e+03
  1.89562960750000e+03
  6.83459410210000e+02
  2.66182197620000e+02
  1.10112200100000e+02
  4.77770412340000e+01
  2.15421661490000e+01
  1.74121363780000e+02
  5.34849724980000e+01
  2.05002133070000e+01
  9.80568269220000e+00
  3.54029893480000e+00
  1.54508500460000e+00
  6.65401954320000e-01
  1.43554390710000e-01
  6.66246734680000e-02
  2.97726482660000e-02
  8.93204608290000e+02
  2.11782582860000e+02
  6.84432005370000e+01
  2.57272653490000e+01
  1.06066342810000e+01
  4.59341264840000e+00
  2.01004698070000e+00
  8.73848415360000e-01
  3.56150766660000e-01
  1.89959543560000e-01
  7.45801356690000e-02
  2.92216413090000e-02
  3.81000000000000e+00
  6.50000000000000e-01
  2.00000000000000e-01
  5.20000000000000e-02
  1.60000000000000e-01
  6.05967787530000e+05
  9.05690946920000e+04
  2.05742528440000e+04
  5.81862848650000e+03
  1.89562960750000e+03
  6.83459410210000e+02
  2.66182197620000e+02
  1.10112200100000e+02
  4.77770412340000e+01
  2.15421661490000e+01
  1.74121363780000e+02
  5.34849724980000e+01
  2.05002133070000e+01
  9.80568269220000e+00
  3.54029893480000e+00
  1.54508500460000e+00
  6.65401954320000e-01
  1.43554390710000e-01
  6.66246734680000e-02
  2.97726482660000e-02
  8.93204608290000e+02
  2.11782582860000e+02
  6.84432005370000e+01
  2.57272653490000e+01
  1.06066342810000e+01
  4.59341264840000e+00
  2.01004698070000e+00
  8.73848415360000e-01
  3.56150766660000e-01
  1.89959543560000e-01
  7.45801356690000e-02
  2.92216413090000e-02
  3.81000000000000e+00
  6.50000000000000e-01
  2.00000000000000e-01
  5.20000000000000e-02
  1.60000000000000e-01
  6.05967787530000e+05
  9.05690946920000e+04
  2.05742528440000e+04
  5.81862848650000e+03
  1.89562960750000e+03
  6.83459410210000e+02
  2.66182197620000e+02
  1.10112200100000e+02
  4.77770412340000e+01
  2.15421661490000e+01
  1.74121363780000e+02
  5.34849724980000e+01
  2.05002133070000e+01
  9.80568269220000e+00
  3.54029893480000e+00
  1.54508500460000e+00
  6.65401954320000e-01
  1.43554390710000e-01
  6.66246734680000e-02
  2.97726482660000e-02
  8.93204608290000e+02
  2.11782582860000e+02
  6.84432005370000e+01
  2.57272653490000e+01
  1.06066342810000e+01
  4.59341264840000e+00
  2.01004698070000e+00
  8.73848415360000e-01
  3.56150766660000e-01
  1.89959543560000e-01
  7.45801356690000e-02
  2.92216413090000e-02
  3.81000000000000e+00
  6.50000000000000e-01
  2.00000000000000e-01
  5.20000000000000e-02
  1.60000000000000e-01
  6.05967787530000e+05
  9.05690946920000e+04
  2.05742528440000e+04
  5.81862848650000e+03
  1.89562960750000e+03
  6.83459410210000e+02
  2.66182197620000e+02
  1.10112200100000e+02
  4.77770412340000e+01
  2.15421661490000e+01
  1.74121363780000e+02
  5.34849724980000e+01
  2.05002133070000e+01
  9.80568269220000e+00
  3.54029893480000e+00
  1.54508500460000e+00
  6.65401954320000e-01
  1.43554390710000e-01
  6.66246734680000e-02
  2.97726482660000e-02
  8.93204608290000e+02
  2.11782582860000e+02
  6.84432005370000e+01
  2.57272653490000e+01
  1.06066342810000e+01
  4.59341264840000e+00
  2.01004698070000e+00
  8.73848415360000e-01
  3.56150766660000e-01
  1.89959543560000e-01
  7.45801356690000e-02
  2.92216413090000e-02
  3.81000000000000e+00
  6.50000000000000e-01
  2.00000000000000e-01
  5.20000000000000e-02
  1.60000000000000e-01
  6.05967787530000e+05
  9.05690946920000e+04
  2.05742528440000e+04
  5.81862848650000e+03
  1.89562960750000e+03
  6.83459410210000e+02
  2.66182197620000e+02
  1.10112200100000e+02
  4.77770412340000e+01
  2.15421661490000e+01
  1.74121363780000e+02
  5.34849724980000e+01
  2.05002133070000e+01
  9.80568269220000e+00
  3.54029893480000e+00
  1.54508500460000e+00
  6.65401954320000e-01
  1.43554390710000e-01
  6.66246734680000e-02
  2.97726482660000e-02
  8.93204608290000e+02
  2.11782582860000e+02
  6.84432005370000e+01
  2.57272653490000e+01
  1.06066342810000e+01
  4.59341264840000e+00
  2.01004698070000e+00
  8.73848415360000e-01
  3.56150766660000e-01
  1.89959543560000e-01
  7.45801356690000e-02
  2.92216413090000e-02
  3.81000000000000e+00
  6.50000000000000e-01
  2.00000000000000e-01
  5.20000000000000e-02
  1.60000000000000e-01
  6.05967787530000e+05
  9.05690946920000e+04
  2.05742528440000e+04
  5.81862848650000e+03
  1.89562960750000e+03
  6.83459410210000e+02
  2.66182197620000e+02
  1.10112200100000e+02
  4.77770412340000e+01
  2.15421661490000e+01
  1.74121363780000e+02
  5.34849724980000e+01
  2.05002133070000e+01
  9.80568269220000e+00
  3.54029893480000e+00
  1.54508500460000e+00
  6.65401954320000e-01
  1.43554390710000e-01
  6.66246734680000e-02
  2.97726482660000e-02
  8.93204608290000e+02
  2.11782582860000e+02
  6.84432005370000e+01
  2.57272653490000e+01
  1.06066342810000e+01
  4.59341264840000e+00
  2.01004698070000e+00
  8.73848415360000e-01
  3.56150766660000e-01
  1.89959543560000e-01
  7.45801356690000e-02
  2.92216413090000e-02
  3.81000000000000e+00
  6.50000000000000e-01
  2.00000000000000e-01
  5.20000000000000e-02
  1.60000000000000e-01
  6.05967787530000e+05
  9.05690946920000e+04
  2.05742528440000e+04
  5.81862848650000e+03
  1.89562960750000e+03
  6.83459410210000e+02
  2.66182197620000e+02
  1.10112200100000e+02
  4.77770412340000e+01
  2.15421661490000e+01
  1.74121363780000e+02
  5.34849724980000e+01
  2.05002133070000e+01
  9.80568269220000e+00
  3.54029893480000e+00
  1.54508500460000e+00
  6.65401954320000e-01
  1.43554390710000e-01
  6.66246734680000e-02
  2.97726482660000e-02
  8.93204608290000e+02
  2.11782582860000e+02
  6.84432005370000e+01
  2.57272653490000e+01
  1.06066342810000e+01
  4.59341264840000e+00
  2.01004698070000e+00
  8.73848415360000e-01
  3.56150766660000e-01
  1.89959543560000e-01
  7.45801356690000e-02
  2.92216413090000e-02
  3.81000000000000e+00
  6.50000000000000e-01
  2.00000000000000e-01
  5.20000000000000e-02
  1.60000000000000e-01
  6.05967787530000e+05
  9.05690946920000e+04
  2.05742528440000e+04
  5.81862848650000e+03
  1.89562960750000e+03
  6.83459410210000e+02
  2.66182197620000e+02
  1.10112200100000e+02
  4.77770412340000e+01
  2.15421661490000e+01
  1.74121363780000e+02
  5.34849724980000e+01
  2.05002133070000e+01
  9.80568269220000e+00
  3.54029893480000e+00
  1.54508500460000e+00
  6.65401954320000e-01
  1.43554390710000e-01
  6.66246734680000e-02
  2.97726482660000e-02
  8.93204608290000e+02
  2.11782582860000e+02
  6.84432005370000e+01
  2.57272653490000e+01
  1.06066342810000e+01
  4.59341264840000e+00
  2.01004698070000e+00
  8.73848415360000e-01
  3.56150766660000e-01
  1.89959543560000e-01
  7.45801356690000e-02
  2.92216413090000e-02
  3.81000000000000e+00
  6.50000000000000e-01
  2.00000000000000e-01
  5.20000000000000e-02
  1.60000000000000e-01
  6.05967787530000e+05
  9.05690946920000e+04
  2.05742528440000e+04
  5.81862848650000e+03
  1.89562960750000e+03
  6.83459410210000e+02
  2.66182197620000e+02
  1.10112200100000e+02
  4.77770412340000e+01
  2.15421661490000e+01
  1.74121363780000e+02
  5.34849724980000e+01
  2.05002133070000e+01
  9.80568269220000e+00
  3.54029893480000e+00
  1.54508500460000e+00
  6.65401954320000e-01
  1.43554390710000e-01
  6.66246734680000e-02
  2.97726482660000e-02
  8.93204608290000e+02
  2.11782582860000e+02
  6.84432005370000e+01
  2.57272653490000e+01
  1.06066342810000e+01
  4.59341264840000e+00
  2.01004698070000e+00
  8.73848415360000e-01
  3.56150766660000e-01
  1.89959543560000e-01
  7.45801356690000e-02
  2.92216413090000e-02
  3.81000000000000e+00
  6.50000000000000e-01
  2.00000000000000e-01
  5.20000000000000e-02
  1.60000000000000e-01
  6.05967787530000e+05
  9.05690946920000e+04
  2.05742528440000e+04
  5.81862848650000e+03
  1.89562960750000e+03
  6.83459410210000e+02
  2.66182197620000e+02
  1.10112200100000e+02
  4.77770412340000e+01
  2.15421661490000e+01
  1.74121363780000e+02
  5.34849724980000e+01
  2.05002133070000e+01
  9.80568269220000e+00
  3.54029893480000e+00
  1.54508500460000e+00
  6.65401954320000e-01
  1.43554390710000e-01
  6.66246734680000e-02
  2.97726482660000e-02
  8.93204608290000e+02
  2.11782582860000e+02
  6.84432005370000e+01
  2.57272653490000e+01
  1.06066342810000e+01
  4.59341264840000e+00
  2.01004698070000e+00
  8.73848415360000e-01
  3.56150766660000e-01
  1.89959543560000e-01
  7.45801356690000e-02
  2.92216413090000e-02
  3.81000000000000e+00
  6.50000000000000e-01
  2.00000000000000e-01
  5.20000000000000e-02
  1.60000000000000e-01
  6.05967787530000e+05
  9.05690946920000e+04
  2.05742528440000e+04
  5.81862848650000e+03
  1.89562960750000e+03
  6.83459410210000e+02
  2.66182197620000e+02
  1.10112200100000e+02
  4.77770412340000e+01
  2.15421661490000e+01
  1.74121363780000e+02
  5.34849724980000e+01
  2.05002133070000e+01
  9.80568269220000e+00
  3.54029893480000e+00
  1.54508500460000e+00
  6.65401954320000e-01
  1.43554390710000e-01
  6.66246734680000e-02
  2.97726482660000e-02
  8.93204608290000e+02
  2.11782582860000e+02
  6.84432005370000e+01
  2.57272653490000e+01
  1.06066342810000e+01
  4.59341264840000e+00
  2.01004698070000e+00
  8.73848415360000e-01
  3.56150766660000e-01
  1.89959543560000e-01
  7.45801356690000e-02
  2.92216413090000e-02
  3.81000000000000e+00
  6.50000000000000e-01
  2.00000000000000e-01
  5.20000000000000e-02
  1.60000000000000e-01
  6.05967787530000e+05
  9.05690946920000e+04
  2.05742528440000e+04
  5.81862848650000e+03
  1.89562960750000e+03
  6.83459410210000e+02
  2.66182197620000e+02
  1.10112200100000e+02
  4.77770412340000e+01
  2.15421661490000e+01
  1.74121363780000e+02
  5.34849724980000e+01
  2.05002133070000e+01
  9.80568269220000e+00
  3.54029893480000e+00
  1.54508500460000e+00
  6.65401954320000e-01
  1.43554390710000e-01
  6.66246734680000e-02
  2.97726482660000e-02
  8.93204608290000e+02
  2.11782582860000e+02
  6.84432005370000e+01
  2.57272653490000e+01
  1.06066342810000e+01
  4.59341264840000e+00
  2.01004698070000e+00
  8.73848415360000e-01
  3.56150766660000e-01
  1.89959543560000e-01
  7.45801356690000e-02
  2.92216413090000e-02
  3.81000000000000e+00
  6.50000000000000e-01
  2.00000000000000e-01
  5.20000000000000e-02
  1.60000000000000e-01
  6.05967787530000e+05
  9.05690946920000e+04
  2.05742528440000e+04
  5.81862848650000e+03
  1.89562960750000e+03
  6.83459410210000e+02
  2.66182197620000e+02
  1.10112200100000e+02
  4.77770412340000e+01
  2.15421661490000e+01
  1.74121363780000e+02
  5.34849724980000e+01
  2.05002133070000e+01
  9.80568269220000e+00
  3.54029893480000e+00
  1.54508500460000e+00
  6.65401954320000e-01
  1.43554390710000e-01
  6.66246734680000e-02
  2.97726482660000e-02
  8.93204608290000e+02
  2.11782582860000e+02
  6.84432005370000e+01
  2.57272653490000e+01
  1.06066342810000e+01
  4.59341264840000e+00
  2.01004698070000e+00
  8.73848415360000e-01
  3.56150766660000e-01
  1.89959543560000e-01
  7.45801356690000e-02
  2.92216413090000e-02
  3.81000000000000e+00
  6.50000000000000e-01
  2.00000000000000e-01
  5.20000000000000e-02
  1.60000000000000e-01
  6.05967787530000e+05
  9.05690946920000e+04
  2.05742528440000e+04
  5.81862848650000e+03
  1.89562960750000e+03
  6.83459410210000e+02
  2.66182197620000e+02
  1.10112200100000e+02
  4.77770412340000e+01
  2.15421661490000e+01
  1.74121363780000e+02
  5.34849724980000e+01
  2.05002133070000e+01
  9.80568269220000e+00
  3.54029893480000e+00
  1.54508500460000e+00
  6.65401954320000e-01
  1.43554390710000e-01
  6.66246734680000e-02
  2.97726482660000e-02
  8.93204608290000e+02
  2.11782582860000e+02
  6.84432005370000e+01
  2.57272653490000e+01
  1.06066342810000e+01
  4.59341264840000e+00
  2.01004698070000e+00
  8.73848415360000e-01
  3.56150766660000e-01
  1.89959543560000e-01
  7.45801356690000e-02
  2.92216413090000e-02
  3.81000000000000e+00
  6.50000000000000e-01
  2.00000000000000e-01
  5.20000000000000e-02
  1.60000000000000e-01
  6.05967787530000e+05
  9.05690946920000e+04
  2.05742528440000e+04
  5.81862848650000e+03
  1.89562960750000e+03
  6.83459410210000e+02
  2.66182197620000e+02
  1.10112200100000e+02
  4.77770412340000e+01
  2.15421661490000e+01
  1.74121363780000e+02
  5.34849724980000e+01
  2.05002133070000e+01
  9.80568269220000e+00
  3.54029893480000e+00
  1.54508500460000e+00
  6.65401954320000e-01
  1.43554390710000e-01
  6.66246734680000e-02
  2.97726482660000e-02
  8.93204608290000e+02
  2.11782582860000e+02
  6.84432005370000e+01
  2.57272653490000e+01
  1.06066342810000e+01
  4.59341264840000e+00
  2.01004698070000e+00
  8.73848415360000e-01
  3.56150766660000e-01
  1.89959543560000e-01
  7.45801356690000e-02
  2.92216413090000e-02
  3.81000000000000e+00
  6.50000000000000e-01
  2.00000000000000e-01
  5.20000000000000e-02
  1.60000000000000e-01
  6.05967787530000e+05
  9.05690946920000e+04
  2.05742528440000e+04
  5.81862848650000e+03
  1.89562960750000e+03
  6.83459410210000e+02
  2.66182197620000e+02
  1.10112200100000e+02
  4.77770412340000e+01
  2.15421661490000e+01
  1.74121363780000e+02
  5.34849724980000e+01
  2.05002133070000e+01
  9.80568269220000e+00
  3.54029893480000e+00
  1.54508500460000e+00
  6.65401954320000e-01
  1.43554390710000e-01
  6.66246734680000e-02
  2.97726482660000e-02
  8.93204608290000e+02
  2.11782582860000e+02
  6.84432005370000e+01
  2.57272653490000e+01
  1.06066342810000e+01
  4.59341264840000e+00
  2.01004698070000e+00
  8.73848415360000e-01
  3.56150766660000e-01
  1.89959543560000e-01
  7.45801356690000e-02
  2.92216413090000e-02
  3.81000000000000e+00
  6.50000000000000e-01
  2.00000000000000e-01
  5.20000000000000e-02
  1.60000000000000e-01
  6.05967787530000e+05
  9.05690946920000e+04
  2.05742528440000e+04
  5.81862848650000e+03
  1.89562960750000e+03
  6.83459410210000e+02
  2.66182197620000e+02
  1.10112200100000e+02
  4.77770412340000e+01
  2.15421661490000e+01
  1.74121363780000e+02
  5.34849724980000e+01
  2.05002133070000e+01
  9.80568269220000e+00
  3.54029893480000e+00
  1.54508500460000e+00
  6.65401954320000e-01
  1.43554390710000e-01
  6.66246734680000e-02
  2.97726482660000e-02
  8.93204608290000e+02
  2.11782582860000e+02
  6.84432005370000e+01
  2.57272653490000e+01
  1.06066342810000e+01
  4.59341264840000e+00
  2.01004698070000e+00
  8.73848415360000e-01
  3.56150766660000e-01
  1.89959543560000e-01
  7.45801356690000e-02
  2.92216413090000e-02
  3.81000000000000e+00
  6.50000000000000e-01
  2.00000000000000e-01
  5.20000000000000e-02
  1.60000000000000e-01
  6.05967787530000e+05
  9.05690946920000e+04
  2.05742528440000e+04
  5.81862848650000e+03
  1.89562960750000e+03
  6.83459410210000e+02
  2.66182197620000e+02
  1.10112200100000e+02
  4.77770412340000e+01
  2.15421661490000e+01
  1.74121363780000e+02
  5.34849724980000e+01
  2.05002133070000e+01
  9.80568269220000e+00
  3.54029893480000e+00
  1.54508500460000e+00
  6.65401954320000e-01
  1.43554390710000e-01
  6.66246734680000e-02
  2.97726482660000e-02
  8.93204608290000e+02
  2.11782582860000e+02
  6.84432005370000e+01
  2.57272653490000e+01
  1.06066342810000e+01
  4.59341264840000e+00
  2.01004698070000e+00
  8.73848415360000e-01
  3.56150766660000e-01
  1.89959543560000e-01
  7.45801356690000e-02
  2.92216413090000e-02
  3.81000000000000e+00
  6.50000000000000e-01
  2.00000000000000e-01
  5.20000000000000e-02
  1.60000000000000e-01
  6.05967787530000e+05
  9.05690946920000e+04
  2.05742528440000e+04
  5.81862848650000e+03
  1.89562960750000e+03
  6.83459410210000e+02
  2.66182197620000e+02
  1.10112200100000e+02
  4.77770412340000e+01
  2.15421661490000e+01
  1.74121363780000e+02
  5.34849724980000e+01
  2.05002133070000e+01
  9.80568269220000e+00
  3.54029893480000e+00
  1.54508500460000e+00
  6.65401954320000e-01
  1.43554390710000e-01
  6.66246734680000e-02
  2.97726482660000e-02
  8.93204608290000e+02
  2.11782582860000e+02
  6.84432005370000e+01
  2.57272653490000e+01
  1.06066342810000e+01
  4.59341264840000e+00
  2.01004698070000e+00
  8.73848415360000e-01
  3.56150766660000e-01
  1.89959543560000e-01
  7.45801356690000e-02
  2.92216413090000e-02
  3.81000000000000e+00
  6.50000000000000e-01
  2.00000000000000e-01
  5.20000000000000e-02
  1.60000000000000e-01
  1.16506469080000e+05
  1.75043497240000e+04
  3.99345132300000e+03
  1.13300631860000e+03
  3.69995695940000e+02
  1.33620743490000e+02
  5.20356436490000e+01
  2.14619393130000e+01
  8.98350512520000e+01
  2.64280108440000e+01
  9.28228246490000e+00
  4.09477285330000e+00
  1.32553490780000e+00
  5.18772307870000e-01
  1.97726764540000e-01
  1.91152558100000e+02
  4.52333567390000e+01
  1.43534659220000e+01
  5.24223718320000e+00
  2.07924185990000e+00
  8.42823714240000e-01
  3.36176948910000e-01
  1.28639979740000e-01
  3.77500000000000e+00
  1.30000000000000e+00
  4.44000000000000e-01
  2.66600000000000e+00
  8.59000000000000e-01
  1.84600000000000e+00
  1.16506469080000e+05
  1.75043497240000e+04
  3.99345132300000e+03
  1.13300631860000e+03
  3.69995695940000e+02
  1.33620743490000e+02
  5.20356436490000e+01
  2.14619393130000e+01
  8.98350512520000e+01
  2.64280108440000e+01
  9.28228246490000e+00
  4.09477285330000e+00
  1.32553490780000e+00
  5.18772307870000e-01
  1.97726764540000e-01
  1.91152558100000e+02
  4.52333567390000e+01
  1.43534659220000e+01
  5.24223718320000e+00
  2.07924185990000e+00
  8.42823714240000e-01
  3.36176948910000e-01
  1.28639979740000e-01
  3.77500000000000e+00
  1.30000000000000e+00
  4.44000000000000e-01
  2.66600000000000e+00
  8.59000000000000e-01
  1.84600000000000e+00
  1.16506469080000e+05
  1.75043497240000e+04
  3.99345132300000e+03
  1.13300631860000e+03
  3.69995695940000e+02
  1.33620743490000e+02
  5.20356436490000e+01
  2.14619393130000e+01
  8.98350512520000e+01
  2.64280108440000e+01
  9.28228246490000e+00
  4.09477285330000e+00
  1.32553490780000e+00
  5.18772307870000e-01
  1.97726764540000e-01
  1.91152558100000e+02
  4.52333567390000e+01
  1.43534659220000e+01
  5.24223718320000e+00
  2.07924185990000e+00
  8.42823714240000e-01
  3.36176948910000e-01
  1.28639979740000e-01
  3.77500000000000e+00
  1.30000000000000e+00
  4.44000000000000e-01
  2.66600000000000e+00
  8.59000000000000e-01
  1.84600000000000e+00
  1.16506469080000e+05
  1.75043497240000e+04
  3.99345132300000e+03
  1.13300631860000e+03
  3.69995695940000e+02
  1.33620743490000e+02
  5.20356436490000e+01
  2.14619393130000e+01
  8.98350512520000e+01
  2.64280108440000e+01
  9.28228246490000e+00
  4.09477285330000e+00
  1.32553490780000e+00
  5.18772307870000e-01
  1.97726764540000e-01
  1.91152558100000e+02
  4.52333567390000e+01
  1.43534659220000e+01
  5.24223718320000e+00
  2.07924185990000e+00
  8.42823714240000e-01
  3.36176948910000e-01
  1.28639979740000e-01
  3.77500000000000e+00
  1.30000000000000e+00
  4.44000000000000e-01
  2.66600000000000e+00
  8.59000000000000e-01
  1.84600000000000e+00
  1.16506469080000e+05
  1.75043497240000e+04
  3.99345132300000e+03
  1.13300631860000e+03
  3.69995695940000e+02
  1.33620743490000e+02
  5.20356436490000e+01
  2.14619393130000e+01
  8.98350512520000e+01
  2.64280108440000e+01
  9.28228246490000e+00
  4.09477285330000e+00
  1.32553490780000e+00
  5.18772307870000e-01
  1.97726764540000e-01
  1.91152558100000e+02
  4.52333567390000e+01
  1.43534659220000e+01
  5.24223718320000e+00
  2.07924185990000e+00
  8.42823714240000e-01
  3.36176948910000e-01
  1.28639979740000e-01
  3.77500000000000e+00
  1.30000000000000e+00
  4.44000000000000e-01
  2.66600000000000e+00
  8.59000000000000e-01
  1.84600000000000e+00
  1.16506469080000e+05
  1.75043497240000e+04
  3.99345132300000e+03
  1.13300631860000e+03
  3.69995695940000e+02
  1.33620743490000e+02
  5.20356436490000e+01
  2.14619393130000e+01
  8.98350512520000e+01
  2.64280108440000e+01
  9.28228246490000e+00
  4.09477285330000e+00
  1.32553490780000e+00
  5.18772307870000e-01
  1.97726764540000e-01
  1.91152558100000e+02
  4.52333567390000e+01
  1.43534659220000e+01
  5.24223718320000e+00
  2.07924185990000e+00
  8.42823714240000e-01
  3.36176948910000e-01
  1.28639979740000e-01
  3.77500000000000e+00
  1.30000000000000e+00
  4.44000000000000e-01
  2.66600000000000e+00
  8.59000000000000e-01
  1.84600000000000e+00
  1.16506469080000e+05
  1.75043497240000e+04
  3.99345132300000e+03
  1.13300631860000e+03
  3.69995695940000e+02
  1.33620743490000e+02
  5.20356436490000e+01
  2.14619393130000e+01
  8.98350512520000e+01
  2.64280108440000e+01
  9.28228246490000e+00
  4.09477285330000e+00
  1.32553490780000e+00
  5.18772307870000e-01
  1.97726764540000e-01
  1.91152558100000e+02
  4.52333567390000e+01
  1.43534659220000e+01
  5.24223718320000e+00
  2.07924185990000e+00
  8.42823714240000e-01
  3.36176948910000e-01
  1.28639979740000e-01
  3.77500000000000e+00
  1.30000000000000e+00
  4.44000000000000e-01
  2.66600000000000e+00
  8.59000000000000e-01
  1.84600000000000e+00
  1.16506469080000e+05
  1.75043497240000e+04
  3.99345132300000e+03
  1.13300631860000e+03
  3.69995695940000e+02
  1.33620743490000e+02
  5.20356436490000e+01
  2.14619393130000e+01
  8.98350512520000e+01
  2.64280108440000e+01
  9.28228246490000e+00
  4.09477285330000e+00
  1.32553490780000e+00
  5.18772307870000e-01
  1.97726764540000e-01
  1.91152558100000e+02
  4.52333567390000e+01
  1.43534659220000e+01
  5.24223718320000e+00
  2.07924185990000e+00
  8.42823714240000e-01
  3.36176948910000e-01
  1.28639979740000e-01
  3.77500000000000e+00
  1.30000000000000e+00
  4.44000000000000e-01
  2.66600000000000e+00
  8.59000000000000e-01
  1.84600000000000e+00
  1.16506469080000e+05
  1.75043497240000e+04
  3.99345132300000e+03
  1.13300631860000e+03
  3.69995695940000e+02
  1.33620743490000e+02
  5.20356436490000e+01
  2.14619393130000e+01
  8.98350512520000e+01
  2.64280108440000e+01
  9.28228246490000e+00
  4.09477285330000e+00
  1.32553490780000e+00
  5.18772307870000e-01
  1.97726764540000e-01
  1.91152558100000e+02
  4.52333567390000e+01
  1.43534659220000e+01
  5.24223718320000e+00
  2.07924185990000e+00
  8.42823714240000e-01
  3.36176948910000e-01
  1.28639979740000e-01
  3.77500000000000e+00
  1.30000000000000e+00
  4.44000000000000e-01
  2.66600000000000e+00
  8.59000000000000e-01
  1.84600000000000e+00
  1.16506469080000e+05
  1.75043497240000e+04
  3.99345132300000e+03
  1.13300631860000e+03
  3.69995695940000e+02
  1.33620743490000e+02
  5.20356436490000e+01
  2.14619393130000e+01
  8.98350512520000e+01
  2.64280108440000e+01
  9.28228246490000e+00
  4.09477285330000e+00
  1.32553490780000e+00
  5.18772307870000e-01
  1.97726764540000e-01
  1.91152558100000e+02
  4.52333567390000e+01
  1.43534659220000e+01
  5.24223718320000e+00
  2.07924185990000e+00
  8.42823714240000e-01
  3.36176948910000e-01
  1.28639979740000e-01
  3.77500000000000e+00
  1.30000000000000e+00
  4.44000000000000e-01
  2.66600000000000e+00
  8.59000000000000e-01
  1.84600000000000e+00
  1.16506469080000e+05
  1.75043497240000e+04
  3.99345132300000e+03
  1.13300631860000e+03
  3.69995695940000e+02
  1.33620743490000e+02
  5.20356436490000e+01
  2.14619393130000e+01
  8.98350512520000e+01
  2.64280108440000e+01
  9.28228246490000e+00
  4.09477285330000e+00
  1.32553490780000e+00
  5.18772307870000e-01
  1.97726764540000e-01
  1.91152558100000e+02
  4.52333567390000e+01
  1.43534659220000e+01
  5.24223718320000e+00
  2.07924185990000e+00
  8.42823714240000e-01
  3.36176948910000e-01
  1.28639979740000e-01
  3.77500000000000e+00
  1.30000000000000e+00
  4.44000000000000e-01
  2.66600000000000e+00
  8.59000000000000e-01
  1.84600000000000e+00
  1.16506469080000e+05
  1.75043497240000e+04
  3.99345132300000e+03
  1.13300631860000e+03
  3.69995695940000e+02
  1.33620743490000e+02
  5.20356436490000e+01
  2.14619393130000e+01
  8.98350512520000e+01
  2.64280108440000e+01
  9.28228246490000e+00
  4.09477285330000e+00
  1.32553490780000e+00
  5.18772307870000e-01
  1.97726764540000e-01
  1.91152558100000e+02
  4.52333567390000e+01
  1.43534659220000e+01
  5.24223718320000e+00
  2.07924185990000e+00
  8.42823714240000e-01
  3.36176948910000e-01
  1.28639979740000e-01
  3.77500000000000e+00
  1.30000000000000e+00
  4.44000000000000e-01
  2.66600000000000e+00
  8.59000000000000e-01
  1.84600000000000e+00
  1.16506469080000e+05
  1.75043497240000e+04
  3.99345132300000e+03
  1.13300631860000e+03
  3.69995695940000e+02
  1.33620743490000e+02
  5.20356436490000e+01
  2.14619393130000e+01
  8.98350512520000e+01
  2.64280108440000e+01
  9.28228246490000e+00
  4.09477285330000e+00
  1.32553490780000e+00
  5.18772307870000e-01
  1.97726764540000e-01
  1.91152558100000e+02
  4.52333567390000e+01
  1.43534659220000e+01
  5.24223718320000e+00
  2.07924185990000e+00
  8.42823714240000e-01
  3.36176948910000e-01
  1.28639979740000e-01
  3.77500000000000e+00
  1.30000000000000e+00
  4.44000000000000e-01
  2.66600000000000e+00
  8.59000000000000e-01
  1.84600000000000e+00
  1.16506469080000e+05
  1.75043497240000e+04
  3.99345132300000e+03
  1.13300631860000e+03
  3.69995695940000e+02
  1.33620743490000e+02
  5.20356436490000e+01
  2.14619393130000e+01
  8.98350512520000e+01
  2.64280108440000e+01
  9.28228246490000e+00
  4.09477285330000e+00
  1.32553490780000e+00
  5.18772307870000e-01
  1.97726764540000e-01
  1.91152558100000e+02
  4.52333567390000e+01
  1.43534659220000e+01
  5.24223718320000e+00
  2.07924185990000e+00
  8.42823714240000e-01
  3.36176948910000e-01
  1.28639979740000e-01
  3.77500000000000e+00
  1.30000000000000e+00
  4.44000000000000e-01
  2.66600000000000e+00
  8.59000000000000e-01
  1.84600000000000e+00
  1.16506469080000e+05
  1.75043497240000e+04
  3.99345132300000e+03
  1.13300631860000e+03
  3.69995695940000e+02
  1.33620743490000e+02
  5.20356436490000e+01
  2.14619393130000e+01
  8.98350512520000e+01
  2.64280108440000e+01
  9.28228246490000e+00
  4.09477285330000e+00
  1.32553490780000e+00
  5.18772307870000e-01
  1.97726764540000e-01
  1.91152558100000e+02
  4.52333567390000e+01
  1.43534659220000e+01
  5.24223718320000e+00
  2.07924185990000e+00
  8.42823714240000e-01
  3.36176948910000e-01
  1.28639979740000e-01
  3.77500000000000e+00
  1.30000000000000e+00
  4.44000000000000e-01
  2.66600000000000e+00
  8.59000000000000e-01
  1.84600000000000e+00
  1.16506469080000e+05
  1.75043497240000e+04
  3.99345132300000e+03
  1.13300631860000e+03
  3.69995695940000e+02
  1.33620743490000e+02
  5.20356436490000e+01
  2.14619393130000e+01
  8.98350512520000e+01
  2.64280108440000e+01
  9.28228246490000e+00
  4.09477285330000e+00
  1.32553490780000e+00
  5.18772307870000e-01
  1.97726764540000e-01
  1.91152558100000e+02
  4.52333567390000e+01
  1.43534659220000e+01
  5.24223718320000e+00
  2.07924185990000e+00
  8.42823714240000e-01
  3.36176948910000e-01
  1.28639979740000e-01
  3.77500000000000e+00
  1.30000000000000e+00
  4.44000000000000e-01
  2.66600000000000e+00
  8.59000000000000e-01
  1.84600000000000e+00
  1.16506469080000e+05
  1.75043497240000e+04
  3.99345132300000e+03
  1.13300631860000e+03
  3.69995695940000e+02
  1.33620743490000e+02
  5.20356436490000e+01
  2.14619393130000e+01
  8.98350512520000e+01
  2.64280108440000e+01
  9.28228246490000e+00
  4.09477285330000e+00
  1.32553490780000e+00
  5.18772307870000e-01
  1.97726764540000e-01
  1.91152558100000e+02
  4.52333567390000e+01
  1.43534659220000e+01
  5.24223718320000e+00
  2.07924185990000e+00
  8.42823714240000e-01
  3.36176948910000e-01
  1.28639979740000e-01
  3.77500000000000e+00
  1.30000000000000e+00
  4.44000000000000e-01
  2.66600000000000e+00
  8.59000000000000e-01
  1.84600000000000e+00
  1.16506469080000e+05
  1.75043497240000e+04
  3.99345132300000e+03
  1.13300631860000e+03
  3.69995695940000e+02
  1.33620743490000e+02
  5.20356436490000e+01
  2.14619393130000e+01
  8.98350512520000e+01
  2.64280108440000e+01
  9.28228246490000e+00
  4.09477285330000e+00
  1.32553490780000e+00
  5.18772307870000e-01
  1.97726764540000e-01
  1.91152558100000e+02
  4.52333567390000e+01
  1.43534659220000e+01
  5.24223718320000e+00
  2.07924185990000e+00
  8.42823714240000e-01
  3.36176948910000e-01
  1.28639979740000e-01
  3.77500000000000e+00
  1.30000000000000e+00
  4.44000000000000e-01
  2.66600000000000e+00
  8.59000000000000e-01
  1.84600000000000e+00
  1.16506469080000e+05
  1.75043497240000e+04
  3.99345132300000e+03
  1.13300631860000e+03
  3.69995695940000e+02
  1.33620743490000e+02
  5.20356436490000e+01
  2.14619393130000e+01
  8.98350512520000e+01
  2.64280108440000e+01
  9.28228246490000e+00
  4.09477285330000e+00
  1.32553490780000e+00
  5.18772307870000e-01
  1.97726764540000e-01
  1.91152558100000e+02
  4.52333567390000e+01
  1.43534659220000e+01
  5.24223718320000e+00
  2.07924185990000e+00
  8.42823714240000e-01
  3.36176948910000e-01
  1.28639979740000e-01
  3.77500000000000e+00
  1.30000000000000e+00
  4.44000000000000e-01
  2.66600000000000e+00
  8.59000000000000e-01
  1.84600000000000e+00
  1.16506469080000e+05
  1.75043497240000e+04
  3.99345132300000e+03
  1.13300631860000e+03
  3.69995695940000e+02
  1.33620743490000e+02
  5.20356436490000e+01
  2.14619393130000e+01
  8.98350512520000e+01
  2.64280108440000e+01
  9.28228246490000e+00
  4.09477285330000e+00
  1.32553490780000e+00
  5.18772307870000e-01
  1.97726764540000e-01
  1.91152558100000e+02
  4.52333567390000e+01
  1.43534659220000e+01
  5.24223718320000e+00
  2.07924185990000e+00
  8.42823714240000e-01
  3.36176948910000e-01
  1.28639979740000e-01
  3.77500000000000e+00
  1.30000000000000e+00
  4.44000000000000e-01
  2.66600000000000e+00
  8.59000000000000e-01
  1.84600000000000e+00
  1.16506469080000e+05
  1.75043497240000e+04
  3.99345132300000e+03
  1.13300631860000e+03
  3.69995695940000e+02
  1.33620743490000e+02
  5.20356436490000e+01
  2.14619393130000e+01
  8.98350512520000e+01
  2.64280108440000e+01
  9.28228246490000e+00
  4.09477285330000e+00
  1.32553490780000e+00
  5.18772307870000e-01
  1.97726764540000e-01
  1.91152558100000e+02
  4.52333567390000e+01
  1.43534659220000e+01
  5.24223718320000e+00
  2.07924185990000e+00
  8.42823714240000e-01
  3.36176948910000e-01
  1.28639979740000e-01
  3.77500000000000e+00
  1.30000000000000e+00
  4.44000000000000e-01
  2.66600000000000e+00
  8.59000000000000e-01
  1.84600000000000e+00
  1.16506469080000e+05
  1.75043497240000e+04
  3.99345132300000e+03
  1.13300631860000e+03
  3.69995695940000e+02
  1.33620743490000e+02
  5.20356436490000e+01
  2.14619393130000e+01
  8.98350512520000e+01
  2.64280108440000e+01
  9.28228246490000e+00
  4.09477285330000e+00
  1.32553490780000e+00
  5.18772307870000e-01
  1.97726764540000e-01
  1.91152558100000e+02
  4.52333567390000e+01
  1.43534659220000e+01
  5.24223718320000e+00
  2.07924185990000e+00
  8.42823714240000e-01
  3.36176948910000e-01
  1.28639979740000e-01
  3.77500000000000e+00
  1.30000000000000e+00
  4.44000000000000e-01
  2.66600000000000e+00
  8.59000000000000e-01
  1.84600000000000e+00
  1.16506469080000e+05
  1.75043497240000e+04
  3.99345132300000e+03
  1.13300631860000e+03
  3.69995695940000e+02
  1.33620743490000e+02
  5.20356436490000e+01
  2.14619393130000e+01
  8.98350512520000e+01
  2.64280108440000e+01
  9.28228246490000e+00
  4.09477285330000e+00
  1.32553490780000e+00
  5.18772307870000e-01
  1.97726764540000e-01
  1.91152558100000e+02
  4.52333567390000e+01
  1.43534659220000e+01
  5.24223718320000e+00
  2.07924185990000e+00
  8.42823714240000e-01
  3.36176948910000e-01
  1.28639979740000e-01
  3.77500000000000e+00
  1.30000000000000e+00
  4.44000000000000e-01
  2.66600000000000e+00
  8.59000000000000e-01
  1.84600000000000e+00
  1.16506469080000e+05
  1.75043497240000e+04
  3.99345132300000e+03
  1.13300631860000e+03
  3.69995695940000e+02
  1.33620743490000e+02
  5.20356436490000e+01
  2.14619393130000e+01
  8.98350512520000e+01
  2.64280108440000e+01
  9.28228246490000e+00
  4.09477285330000e+00
  1.32553490780000e+00
  5.18772307870000e-01
  1.97726764540000e-01
  1.91152558100000e+02
  4.52333567390000e+01
  1.43534659220000e+01
  5.24223718320000e+00
  2.07924185990000e+00
  8.42823714240000e-01
  3.36176948910000e-01
  1.28639979740000e-01
  3.77500000000000e+00
  1.30000000000000e+00
  4.44000000000000e-01
  2.66600000000000e+00
  8.59000000000000e-01
  1.84600000000000e+00
  1.16506469080000e+05
  1.75043497240000e+04
  3.99345132300000e+03
  1.13300631860000e+03
  3.69995695940000e+02
  1.33620743490000e+02
  5.20356436490000e+01
  2.14619393130000e+01
  8.98350512520000e+01
  2.64280108440000e+01
  9.28228246490000e+00
  4.09477285330000e+00
  1.32553490780000e+00
  5.18772307870000e-01
  1.97726764540000e-01
  1.91152558100000e+02
  4.52333567390000e+01
  1.43534659220000e+01
  5.24223718320000e+00
  2.07924185990000e+00
  8.42823714240000e-01
  3.36176948910000e-01
  1.28639979740000e-01
  3.77500000000000e+00
  1.30000000000000e+00
  4.44000000000000e-01
  2.66600000000000e+00
  8.59000000000000e-01
  1.84600000000000e+00
  1.16506469080000e+05
  1.75043497240000e+04
  3.99345132300000e+03
  1.13300631860000e+03
  3.69995695940000e+02
  1.33620743490000e+02
  5.20356436490000e+01
  2.14619393130000e+01
  8.98350512520000e+01
  2.64280108440000e+01
  9.28228246490000e+00
  4.09477285330000e+00
  1.32553490780000e+00
  5.18772307870000e-01
  1.97726764540000e-01
  1.91152558100000e+02
  4.52333567390000e+01
  1.43534659220000e+01
  5.24223718320000e+00
  2.07924185990000e+00
  8.42823714240000e-01
  3.36176948910000e-01
  1.28639979740000e-01
  3.77500000000000e+00
  1.30000000000000e+00
  4.44000000000000e-01
  2.66600000000000e+00
  8.59000000000000e-01
  1.84600000000000e+00
  1.16506469080000e+05
  1.75043497240000e+04
  3.99345132300000e+03
  1.13300631860000e+03
  3.69995695940000e+02
  1.33620743490000e+02
  5.20356436490000e+01
  2.14619393130000e+01
  8.98350512520000e+01
  2.64280108440000e+01
  9.28228246490000e+00
  4.09477285330000e+00
  1.32553490780000e+00
  5.18772307870000e-01
  1.97726764540000e-01
  1.91152558100000e+02
  4.52333567390000e+01
  1.43534659220000e+01
  5.24223718320000e+00
  2.07924185990000e+00
  8.42823714240000e-01
  3.36176948910000e-01
  1.28639979740000e-01
  3.77500000000000e+00
  1.30000000000000e+00
  4.44000000000000e-01
  2.66600000000000e+00
  8.59000000000000e-01
  1.84600000000000e+00
  1.16506469080000e+05
  1.75043497240000e+04
  3.99345132300000e+03
  1.13300631860000e+03
  3.69995695940000e+02
  1.33620743490000e+02
  5.20356436490000e+01
  2.14619393130000e+01
  8.98350512520000e+01
  2.64280108440000e+01
  9.28228246490000e+00
  4.09477285330000e+00
  1.32553490780000e+00
  5.18772307870000e-01
  1.97726764540000e-01
  1.91152558100000e+02
  4.52333567390000e+01
  1.43534659220000e+01
  5.24223718320000e+00
  2.07924185990000e+00
  8.42823714240000e-01
  3.36176948910000e-01
  1.28639979740000e-01
  3.77500000000000e+00
  1.30000000000000e+00
  4.44000000000000e-01
  2.66600000000000e+00
  8.59000000000000e-01
  1.84600000000000e+00
  1.16506469080000e+05
  1.75043497240000e+04
  3.99345132300000e+03
  1.13300631860000e+03
  3.69995695940000e+02
  1.33620743490000e+02
  5.20356436490000e+01
  2.14619393130000e+01
  8.98350512520000e+01
  2.64280108440000e+01
  9.28228246490000e+00
  4.09477285330000e+00
  1.32553490780000e+00
  5.18772307870000e-01
  1.97726764540000e-01
  1.91152558100000e+02
  4.52333567390000e+01
  1.43534659220000e+01
  5.24223718320000e+00
  2.07924185990000e+00
  8.42823714240000e-01
  3.36176948910000e-01
  1.28639979740000e-01
  3.77500000000000e+00
  1.30000000000000e+00
  4.44000000000000e-01
  2.66600000000000e+00
  8.59000000000000e-01
  1.84600000000000e+00
  1.16506469080000e+05
  1.75043497240000e+04
  3.99345132300000e+03
  1.13300631860000e+03
  3.69995695940000e+02
  1.33620743490000e+02
  5.20356436490000e+01
  2.14619393130000e+01
  8.98350512520000e+01
  2.64280108440000e+01
  9.28228246490000e+00
  4.09477285330000e+00
  1.32553490780000e+00
  5.18772307870000e-01
  1.97726764540000e-01
  1.91152558100000e+02
  4.52333567390000e+01
  1.43534659220000e+01
  5.24223718320000e+00
  2.07924185990000e+00
  8.42823714240000e-01
  3.36176948910000e-01
  1.28639979740000e-01
  3.77500000000000e+00
  1.30000000000000e+00
  4.44000000000000e-01
  2.66600000000000e+00
  8.59000000000000e-01
  1.84600000000000e+00
  1.16506469080000e+05
  1.75043497240000e+04
  3.99345132300000e+03
  1.13300631860000e+03
  3.69995695940000e+02
  1.33620743490000e+02
  5.20356436490000e+01
  2.14619393130000e+01
  8.98350512520000e+01
  2.64280108440000e+01
  9.28228246490000e+00
  4.09477285330000e+00
  1.32553490780000e+00
  5.18772307870000e-01
  1.97726764540000e-01
  1.91152558100000e+02
  4.52333567390000e+01
  1.43534659220000e+01
  5.24223718320000e+00
  2.07924185990000e+00
  8.42823714240000e-01
  3.36176948910000e-01
  1.28639979740000e-01
  3.77500000000000e+00
  1.30000000000000e+00
  4.44000000000000e-01
  2.66600000000000e+00
  8.59000000000000e-01
  1.84600000000000e+00
  1.16506469080000e+05
  1.75043497240000e+04
  3.99345132300000e+03
  1.13300631860000e+03
  3.69995695940000e+02
  1.33620743490000e+02
  5.20356436490000e+01
  2.14619393130000e+01
  8.98350512520000e+01
  2.64280108440000e+01
  9.28228246490000e+00
  4.09477285330000e+00
  1.32553490780000e+00
  5.18772307870000e-01
  1.97726764540000e-01
  1.91152558100000e+02
  4.52333567390000e+01
  1.43534659220000e+01
  5.24223718320000e+00
  2.07924185990000e+00
  8.42823714240000e-01
  3.36176948910000e-01
  1.28639979740000e-01
  3.77500000000000e+00
  1.30000000000000e+00
  4.44000000000000e-01
  2.66600000000000e+00
  8.59000000000000e-01
  1.84600000000000e+00
  1.16506469080000e+05
  1.75043497240000e+04
  3.99345132300000e+03
  1.13300631860000e+03
  3.69995695940000e+02
  1.33620743490000e+02
  5.20356436490000e+01
  2.14619393130000e+01
  8.98350512520000e+01
  2.64280108440000e+01
  9.28228246490000e+00
  4.09477285330000e+00
  1.32553490780000e+00
  5.18772307870000e-01
  1.97726764540000e-01
  1.91152558100000e+02
  4.52333567390000e+01
  1.43534659220000e+01
  5.24223718320000e+00
  2.07924185990000e+00
  8.42823714240000e-01
  3.36176948910000e-01
  1.28639979740000e-01
  3.77500000000000e+00
  1.30000000000000e+00
  4.44000000000000e-01
  2.66600000000000e+00
  8.59000000000000e-01
  1.84600000000000e+00

  2.10753625593756e-01
  3.94420453180463e-01
  6.81488673339914e-01
  1.10750264031282e+00
  1.69021574844253e+00
  2.37164649255442e+00
  2.87990493125616e+00
  2.75119584155661e+00
  1.27954700675913e+00
  5.11031941001511e+00
  2.46850014075040e+00
  1.32696091938732e+00
  5.43512827613698e-01
  2.71383902660290e-01
  1.33708740226501e-01
  1.19787942253799e+00
  1.54852090278742e+00
  1.66747448854949e+00
  1.54965178789794e+00
  1.15759388345848e+00
  5.40736498311229e-01
  1.78071444371519e-01
  5.68645084492531e-02
  4.82100851162461e+00
  7.72391837520708e-01
  1.23821322548459e-01
  3.23530209875761e+00
  2.88983709509175e-01
  1.14683543468607e+00
  2.57226323061032e-01
  4.82046798727303e-01
  8.35598690668546e-01
  1.36636575285047e+00
  2.12753351426577e+00
  3.13546646974985e+00
  4.27633913736539e+00
  5.09689862583897e+00
  4.79622107294527e+00
  2.87469778823108e+00
  9.87018482399258e-01
  3.40129311232691e+00
  5.29074637777286e+00
  3.94928493795792e+00
  1.83945870699884e+00
  9.87698457309665e-01
  5.25077182598192e-01
  1.66215856718395e-01
  9.34622888241072e-02
  5.10826233355890e-02
  2.51582602315196e+00
  3.54972184579634e+00
  4.50231968832641e+00
  4.91694775076965e+00
  4.40377855233830e+00
  2.89703480206181e+00
  1.31284892365757e+00
  3.43400803309903e-01
  3.92177291062833e-01
  1.78758410625548e-01
  5.55544751816923e-02
  1.72214947988116e-02
  1.71012621172510e+01
  7.74475761458575e-01
  9.84491449611383e-02
  9.31998702099698e-03
  2.38355079066967e-02
  2.57226323061032e-01
  4.82046798727303e-01
  8.35598690668546e-01
  1.36636575285047e+00
  2.12753351426577e+00
  3.13546646974985e+00
  4.27633913736539e+00
  5.09689862583897e+00
  4.79622107294527e+00
  2.87469778823108e+00
  9.87018482399258e-01
  3.40129311232691e+00
  5.29074637777286e+00
  3.94928493795792e+00
  1.83945870699884e+00
  9.87698457309665e-01
  5.25077182598192e-01
  1.66215856718395e-01
  9.34622888241072e-02
  5.10826233355890e-02
  2.51582602315196e+00
  3.54972184579634e+00
  4.50231968832641e+00
  4.91694775076965e+00
  4.40377855233830e+00
  2.89703480206181e+00
  1.31284892365757e+00
  3.43400803309903e-01
  3.92177291062833e-01
  1.78758410625548e-01
  5.55544751816923e-02
  1.72214947988116e-02
  1.71012621172510e+01
  7.74475761458575e-01
  9.84491449611383e-02
  9.31998702099698e-03
  2.38355079066967e-02
  2.57226323061032e-01
  4.82046798727303e-01
  8.35598690668546e-01
  1.36636575285047e+00
  2.12753351426577e+00
  3.13546646974985e+00
  4.27633913736539e+00
  5.09689862583897e+00
  4.79622107294527e+00
  2.87469778823108e+00
  9.87018482399258e-01
  3.40129311232691e+00
  5.29074637777286e+00
  3.94928493795792e+00
  1.83945870699884e+00
  9.87698457309665e-01
  5.25077182598192e-01
  1.66215856718395e-01
  9.34622888241072e-02
  5.10826233355890e-02
  2.51582602315196e+00
  3.54972184579634e+00
  4.50231968832641e+00
  4.91694775076965e+00
  4.40377855233830e+00
  2.89703480206181e+00
  1.31284892365757e+00
  3.43400803309903e-01
  3.92177291062833e-01
  1.78758410625548e-01
  5.55544751816923e-02
  1.72214947988116e-02
  1.71012621172510e+01
  7.74475761458575e-01
  9.84491449611383e-02
  9.31998702099698e-03
  2.38355079066967e-02
  2.57226323061032e-01
  4.82046798727303e-01
  8.35598690668546e-01
  1.36636575285047e+00
  2.12753351426577e+00
  3.13546646974985e+00
  4.27633913736539e+00
  5.09689862583897e+00
  4.79622107294527e+00
  2.87469778823108e+00
  9.87018482399258e-01
  3.40129311232691e+00
  5.29074637777286e+00
  3.94928493795792e+00
  1.83945870699884e+00
  9.87698457309665e-01
  5.25077182598192e-01
  1.66215856718395e-01
  9.34622888241072e-02
  5.10826233355890e-02
  2.51582602315196e+00
  3.54972184579634e+00
  4.50231968832641e+00
  4.91694775076965e+00
  4.40377855233830e+00
  2.89703480206181e+00
  1.31284892365757e+00
  3.43400803309903e-01
  3.92177291062833e-01
  1.78758410625548e-01
  5.55544751816923e-02
  1.72214947988116e-02
  1.71012621172510e+01
  7.74475761458575e-01
  9.84491449611383e-02
  9.31998702099698e-03
  2.38355079066967e-02
  2.57226323061032e-01
  4.82046798727303e-01
  8.35598690668546e-01
  1.36636575285047e+00
  2.12753351426577e+00
  3.13546646974985e+00
  4.27633913736539e+00
  5.09689862583897e+00
  4.79622107294527e+00
  2.87469778823108e+00
  9.87018482399258e-01
  3.40129311232691e+00
  5.29074637777286e+00
  3.94928493795792e+00
  1.83945870699884e+00
  9.87698457309665e-01
  5.25077182598192e-01
  1.66215856718395e-01
  9.34622888241072e-02
  5.10826233355890e-02
  2.51582602315196e+00
  3.54972184579634e+00
  4.50231968832641e+00
  4.91694775076965e+00
  4.40377855233830e+00
  2.89703480206181e+00
  1.31284892365757e+00
  3.43400803309903e-01
  3.92177291062833e-01
  1.78758410625548e-01
  5.55544751816923e-02
  1.72214947988116e-02
  1.71012621172510e+01
  7.74475761458575e-01
  9.84491449611383e-02
  9.31998702099698e-03
  2.38355079066967e-02
  2.57226323061032e-01
  4.82046798727303e-01
  8.35598690668546e-01
  1.36636575285047e+00
  2.12753351426577e+00
  3.13546646974985e+00
  4.27633913736539e+00
  5.09689862583897e+00
  4.79622107294527e+00
  2.87469778823108e+00
  9.87018482399258e-01
  3.40129311232691e+00
  5.29074637777286e+00
  3.94928493795792e+00
  1.83945870699884e+00
  9.87698457309665e-01
  5.25077182598192e-01
  1.66215856718395e-01
  9.34622888241072e-02
  5.10826233355890e-02
  2.51582602315196e+00
  3.54972184579634e+00
  4.50231968832641e+00
  4.91694775076965e+00
  4.40377855233830e+00
  2.89703480206181e+00
  1.31284892365757e+00
  3.43400803309903e-01
  3.92177291062833e-01
  1.78758410625548e-01
  5.55544751816923e-02
  1.72214947988116e-02
  1.71012621172510e+01
  7.74475761458575e-01
  9.84491449611383e-02
  9.31998702099698e-03
  2.38355079066967e-02
  2.57226323061032e-01
  4.82046798727303e-01
  8.35598690668546e-01
  1.36636575285047e+00
  2.12753351426577e+00
  3.13546646974985e+00
  4.27633913736539e+00
  5.09689862583897e+00
  4.79622107294527e+00
  2.87469778823108e+00
  9.87018482399258e-01
  3.40129311232691e+00
  5.29074637777286e+00
  3.94928493795792e+00
  1.83945870699884e+00
  9.87698457309665e-01
  5.25077182598192e-01
  1.66215856718395e-01
  9.34622888241072e-02
  5.10826233355890e-02
  2.51582602315196e+00
  3.54972184579634e+00
  4.50231968832641e+00
  4.91694775076965e+00
  4.40377855233830e+00
  2.89703480206181e+00
  1.31284892365757e+00
  3.43400803309903e-01
  3.92177291062833e-01
  1.78758410625548e-01
  5.55544751816923e-02
  1.72214947988116e-02
  1.71012621172510e+01
  7.74475761458575e-01
  9.84491449611383e-02
  9.31998702099698e-03
  2.38355079066967e-02
  2.57226323061032e-01
  4.82046798727303e-01
  8.35598690668546e-01
  1.36636575285047e+00
  2.12753351426577e+00
  3.13546646974985e+00
  4.27633913736539e+00
  5.09689862583897e+00
  4.79622107294527e+00
  2.87469778823108e+00
  9.87018482399258e-01
  3.40129311232691e+00
  5.29074637777286e+00
  3.94928493795792e+00
  1.83945870699884e+00
  9.87698457309665e-01
  5.25077182598192e-01
  1.66215856718395e-01
  9.34622888241072e-02
  5.10826233355890e-02
  2.51582602315196e+00
  3.54972184579634e+00
  4.50231968832641e+00
  4.91694775076965e+00
  4.40377855233830e+00
  2.89703480206181e+00
  1.31284892365757e+00
  3.43400803309903e-01
  3.92177291062833e-01
  1.78758410625548e-01
  5.55544751816923e-02
  1.72214947988116e-02
  1.71012621172510e+01
  7.74475761458575e-01
  9.84491449611383e-02
  9.31998702099698e-03
  2.38355079066967e-02
  2.57226323061032e-01
  4.82046798727303e-01
  8.35598690668546e-01
  1.36636575285047e+00
  2.12753351426577e+00
  3.13546646974985e+00
  4.27633913736539e+00
  5.09689862583897e+00
  4.79622107294527e+00
  2.87469778823108e+00
  9.87018482399258e-01
  3.40129311232691e+00
  5.29074637777286e+00
  3.94928493795792e+00
  1.83945870699884e+00
  9.87698457309665e-01
  5.25077182598192e-01
  1.66215856718395e-01
  9.34622888241072e-02
  5.10826233355890e-02
  2.51582602315196e+00
  3.54972184579634e+00
  4.50231968832641e+00
  4.91694775076965e+00
  4.40377855233830e+00
  2.89703480206181e+00
  1.31284892365757e+00
  3.43400803309903e-01
  3.92177291062833e-01
  1.78758410625548e-01
  5.55544751816923e-02
  1.72214947988116e-02
  1.71012621172510e+01
  7.74475761458575e-01
  9.84491449611383e-02
  9.31998702099698e-03
  2.38355079066967e-02
  2.57226323061032e-01
  4.82046798727303e-01
  8.35598690668546e-01
  1.36636575285047e+00
  2.12753351426577e+00
  3.13546646974985e+00
  4.27633913736539e+00
  5.09689862583897e+00
  4.79622107294527e+00
  2.87469778823108e+00
  9.87018482399258e-01
  3.40129311232691e+00
  5.29074637777286e+00
  3.94928493795792e+00
  1.83945870699884e+00
  9.87698457309665e-01
  5.25077182598192e-01
  1.66215856718395e-01
  9.34622888241072e-02
  5.10826233355890e-02
  2.51582602315196e+00
  3.54972184579634e+00
  4.50231968832641e+00
  4.91694775076965e+00
  4.40377855233830e+00
  2.89703480206181e+00
  1.31284892365757e+00
  3.43400803309903e-01
  3.92177291062833e-01
  1.78758410625548e-01
  5.55544751816923e-02
  1.72214947988116e-02
  1.71012621172510e+01
  7.74475761458575e-01
  9.84491449611383e-02
  9.31998702099698e-03
  2.38355079066967e-02
  2.57226323061032e-01
  4.82046798727303e-01
  8.35598690668546e-01
  1.36636575285047e+00
  2.12753351426577e+00
  3.13546646974985e+00
  4.27633913736539e+00
  5.09689862583897e+00
  4.79622107294527e+00
  2.87469778823108e+00
  9.87018482399258e-01
  3.40129311232691e+00
  5.29074637777286e+00
  3.94928493795792e+00
  1.83945870699884e+00
  9.87698457309665e-01
  5.25077182598192e-01
  1.66215856718395e-01
  9.34622888241072e-02
  5.10826233355890e-02
  2.51582602315196e+00
  3.54972184579634e+00
  4.50231968832641e+00
  4.91694775076965e+00
  4.40377855233830e+00
  2.89703480206181e+00
  1.31284892365757e+00
  3.43400803309903e-01
  3.92177291062833e-01
  1.78758410625548e-01
  5.55544751816923e-02
  1.72214947988116e-02
  1.71012621172510e+01
  7.74475761458575e-01
  9.84491449611383e-02
  9.31998702099698e-03
  2.38355079066967e-02
  2.57226323061032e-01
  4.82046798727303e-01
  8.35598690668546e-01
  1.36636575285047e+00
  2.12753351426577e+00
  3.13546646974985e+00
  4.27633913736539e+00
  5.09689862583897e+00
  4.79622107294527e+00
  2.87469778823108e+00
  9.87018482399258e-01
  3.40129311232691e+00
  5.29074637777286e+00
  3.94928493795792e+00
  1.83945870699884e+00
  9.87698457309665e-01
  5.25077182598192e-01
  1.66215856718395e-01
  9.34622888241072e-02
  5.10826233355890e-02
  2.51582602315196e+00
  3.54972184579634e+00
  4.50231968832641e+00
  4.91694775076965e+00
  4.40377855233830e+00
  2.89703480206181e+00
  1.31284892365757e+00
  3.43400803309903e-01
  3.92177291062833e-01
  1.78758410625548e-01
  5.55544751816923e-02
  1.72214947988116e-02
  1.71012621172510e+01
  7.74475761458575e-01
  9.84491449611383e-02
  9.31998702099698e-03
  2.38355079066967e-02
  2.57226323061032e-01
  4.82046798727303e-01
  8.35598690668546e-01
  1.36636575285047e+00
  2.12753351426577e+00
  3.13546646974985e+00
  4.27633913736539e+00
  5.09689862583897e+00
  4.79622107294527e+00
  2.87469778823108e+00
  9.87018482399258e-01
  3.40129311232691e+00
  5.29074637777286e+00
  3.94928493795792e+00
  1.83945870699884e+00
  9.87698457309665e-01
  5.25077182598192e-01
  1.66215856718395e-01
  9.34622888241072e-02
  5.10826233355890e-02
  2.51582602315196e+00
  3.54972184579634e+00
  4.50231968832641e+00
  4.91694775076965e+00
  4.40377855233830e+00
  2.89703480206181e+00
  1.31284892365757e+00
  3.43400803309903e-01
  3.92177291062833e-01
  1.78758410625548e-01
  5.55544751816923e-02
  1.72214947988116e-02
  1.71012621172510e+01
  7.74475761458575e-01
  9.84491449611383e-02
  9.31998702099698e-03
  2.38355079066967e-02
  2.57226323061032e-01
  4.82046798727303e-01
  8.35598690668546e-01
  1.36636575285047e+00
  2.12753351426577e+00
  3.13546646974985e+00
  4.27633913736539e+00
  5.09689862583897e+00
  4.79622107294527e+00
  2.87469778823108e+00
  9.87018482399258e-01
  3.40129311232691e+00
  5.29074637777286e+00
  3.94928493795792e+00
  1.83945870699884e+00
  9.87698457309665e-01
  5.25077182598192e-01
  1.66215856718395e-01
  9.34622888241072e-02
  5.10826233355890e-02
  2.51582602315196e+00
  3.54972184579634e+00
  4.50231968832641e+00
  4.91694775076965e+00
  4.40377855233830e+00
  2.89703480206181e+00
  1.31284892365757e+00
  3.43400803309903e-01
  3.92177291062833e-01
  1.78758410625548e-01
  5.55544751816923e-02
  1.72214947988116e-02
  1.71012621172510e+01
  7.74475761458575e-01
  9.84491449611383e-02
  9.31998702099698e-03
  2.38355079066967e-02
  2.57226323061032e-01
  4.82046798727303e-01
  8.35598690668546e-01
  1.36636575285047e+00
  2.12753351426577e+00
  3.13546646974985e+00
  4.27633913736539e+00
  5.09689862583897e+00
  4.79622107294527e+00
  2.87469778823108e+00
  9.87018482399258e-01
  3.40129311232691e+00
  5.29074637777286e+00
  3.94928493795792e+00
  1.83945870699884e+00
  9.87698457309665e-01
  5.25077182598192e-01
  1.66215856718395e-01
  9.34622888241072e-02
  5.10826233355890e-02
  2.51582602315196e+00
  3.54972184579634e+00
  4.50231968832641e+00
  4.91694775076965e+00
  4.40377855233830e+00
  2.89703480206181e+00
  1.31284892365757e+00
  3.43400803309903e-01
  3.92177291062833e-01
  1.78758410625548e-01
  5.55544751816923e-02
  1.72214947988116e-02
  1.71012621172510e+01
  7.74475761458575e-01
  9.84491449611383e-02
  9.31998702099698e-03
  2.38355079066967e-02
  2.57226323061032e-01
  4.82046798727303e-01
  8.35598690668546e-01
  1.36636575285047e+00
  2.12753351426577e+00
  3.13546646974985e+00
  4.27633913736539e+00
  5.09689862583897e+00
  4.79622107294527e+00
  2.87469778823108e+00
  9.87018482399258e-01
  3.40129311232691e+00
  5.29074637777286e+00
  3.94928493795792e+00
  1.83945870699884e+00
  9.87698457309665e-01
  5.25077182598192e-01
  1.66215856718395e-01
  9.34622888241072e-02
  5.10826233355890e-02
  2.51582602315196e+00
  3.54972184579634e+00
  4.50231968832641e+00
  4.91694775076965e+00
  4.40377855233830e+00
  2.89703480206181e+00
  1.31284892365757e+00
  3.43400803309903e-01
  3.92177291062833e-01
  1.78758410625548e-01
  5.55544751816923e-02
  1.72214947988116e-02
  1.71012621172510e+01
  7.74475761458575e-01
  9.84491449611383e-02
  9.31998702099698e-03
  2.38355079066967e-02
  2.57226323061032e-01
  4.82046798727303e-01
  8.35598690668546e-01
  1.36636575285047e+00
  2.12753351426577e+00
  3.13546646974985e+00
  4.27633913736539e+00
  5.09689862583897e+00
  4.79622107294527e+00
  2.87469778823108e+00
  9.87018482399258e-01
  3.40129311232691e+00
  5.29074637777286e+00
  3.94928493795792e+00
  1.83945870699884e+00
  9.87698457309665e-01
  5.25077182598192e-01
  1.66215856718395e-01
  9.34622888241072e-02
  5.10826233355890e-02
  2.51582602315196e+00
  3.54972184579634e+00
  4.50231968832641e+00
  4.91694775076965e+00
  4.40377855233830e+00
  2.89703480206181e+00
  1.31284892365757e+00
  3.43400803309903e-01
  3.92177291062833e-01
  1.78758410625548e-01
  5.55544751816923e-02
  1.72214947988116e-02
  1.71012621172510e+01
  7.74475761458575e-01
  9.84491449611383e-02
[...]
 2.96998 2.97169 2.97169 2.97172 2.98030 2.98030 2.98459 2.98694 2.98694 2.98862
 2.98909 2.99530 2.99598 3.01279 3.01279 3.01525 3.01749 3.04848 3.06423 3.06469
 3.07080 3.07080 3.09104 3.09104 3.09814 3.10590 3.10718 3.11111 3.11204 3.11495
 3.11812 3.11812 3.12894 3.12894 3.13607 3.13881 3.15121 3.15121 3.15704 3.15981
 3.15981 3.16661 3.16695 3.17236 3.17236 3.17746 3.17936 3.17936 3.18007 3.18212
 3.18747 3.18749 3.19007 3.19007 3.19015 3.19976 3.19976 3.20260 3.21379 3.23661
 3.23817 3.24291 3.24305 3.24305 3.24598 3.24883 3.24915 3.24916 3.26481 3.27356
 3.27485 3.27485 3.27882 3.28929 3.30012 3.30513 3.30513 3.31083 3.32189 3.32190
 3.32369 3.33846 3.34518 3.34518 3.34881 3.35473 3.35473 3.36237 3.38046 3.38046
 3.38660 3.38811 3.38811 3.38873 3.38964 3.39066 3.39066 3.39066 3.39155 3.39292
 3.39416 3.39416 3.40064 3.40141 3.40407 3.40407 3.40946 3.41320 3.41466 3.41589
 3.41589 3.42153 3.42351 3.42387 3.42387 3.42468 3.42738 3.43089 3.43259 3.43276
 3.43276 3.43349 3.44189 3.44189 3.44477 3.44998 3.45069 3.45115 3.45115 3.45482
 3.46080 3.46080 3.47394 3.47394 3.47394 3.47568 3.47853 3.48825 3.48825 3.48890
 3.48914 3.49537 3.50861 3.50862 3.50983 3.51098 3.51162 3.51163 3.51223 3.52207
 3.52769 3.53544 3.53544 3.53599 3.53854 3.54234 3.54406 3.55182 3.55182 3.55516
 3.55531 3.55574 3.55963 3.56171 3.56172 3.56842 3.58889 3.59539 3.59539 3.60895
 3.63171 3.63267 3.63267 3.63640 3.63747 3.63747 3.64171 3.64171 3.64260 3.64356
 3.65440 3.65440 3.65502 3.65895 3.65992 3.66151 3.66164 3.66164 3.66175 3.66213
 3.66963 3.67231 3.67231 3.67420 3.67420 3.67792 3.67889 3.68107 3.68107 3.68179
 3.68287 3.68873 3.68873 3.69260 3.69260 3.70956 3.70956 3.71190 3.71745 3.71745
 3.71778 3.71863 3.71925 3.72194 3.72194 3.72702 3.72731 3.72936 3.72962 3.72962
 3.73508 3.73820 3.73820 3.73920 3.74516 3.74516 3.75250 3.75775 3.75807 3.76015
 3.76015 3.77065 3.77299 3.77941 3.78718 3.78951 3.79281 3.79281 3.79306 3.79625
 3.79625 3.79869 3.79996 3.80112 3.80359 3.80359 3.81633 3.82025 3.82025 3.82782
 3.82871 3.82871 3.82920 3.82992 3.83309 3.83504 3.83523 3.83523 3.83611 3.83612
 3.83717 3.83845 3.83845 3.84064 3.84680 3.86234 3.86234 3.86369 3.86407 3.86597
 3.86597 3.87566 3.87566 3.87902 3.87939 3.89436 3.89436 3.89674 3.89674 3.90919
 3.91326 3.91326 3.91389 3.91671 3.91688 3.91688 3.92056 3.92122 3.92122 3.92185
 3.92363 3.92501 3.92501 3.93436 3.93544 3.93668 3.93668 3.93841 3.93841 3.93970
 3.94015 3.95394 3.95394 3.95444 3.95492 3.95954 3.96134 3.96134 3.97036 3.97036
 3.98018 3.98051 3.98639 3.98711 3.99924 4.00962 4.00962 4.02404 4.02721 4.02721
 4.04059 4.04086 4.04087 4.04543 4.04565 4.05190 4.05275 4.05275 4.05538 4.05968
 4.06267 4.06267 4.11784 4.11805 4.12120 4.20550 4.20550 4.20698 4.20757 4.20788
 4.21267 4.21267 4.21373 4.21673 4.21673 4.21775 4.22162 4.22404 4.22465 4.23987
 4.24138 4.24138 4.24595 4.24595 4.25855 4.26611 4.27382 4.27382 4.30367 4.30784
 4.31033 4.31033 4.31035 4.31337 4.31337 4.31684 4.32609 4.32738 4.32738 4.32763
 4.34619 4.35134 4.35413 4.35413 4.36430 4.36571 4.37247 4.37247 4.38995 4.39172
 4.40200 4.40568 4.40641 4.40714 4.40714 4.40729 4.43632 4.43632 4.44905 4.48259
 4.48530 4.48591 4.48592 4.48901 4.51481 4.51482 4.51634 4.52036 4.52046 4.52156
 4.52156 4.52708 4.52884 4.53662 4.53959 4.53959 4.55423 4.57497 4.57497 4.59119
 4.60798 4.62468 4.62634 4.62635 4.63612 4.64086 4.64156 4.64203 4.64307 4.64307
 4.64647 4.64647 4.67083 4.67212 4.67265 4.67398 4.67398 4.67926 4.68284 4.69893
 4.69919 4.69919 4.70000 4.70055 4.70260 4.70260 4.70989 4.70989 4.72069 4.72246
 4.72354 4.72354 4.72421 4.72724 4.72949 4.73098 4.73098 4.73229 4.75290 4.75553
 4.75589 4.75589 4.75618 4.76803 4.76879 4.76879 4.79418 4.79419 4.79587 4.80980
 4.80980 4.81022 4.81358 4.81864 4.81974 4.81974 4.82543 4.82897 4.82973 4.83701
 4.83701 4.87452 4.87569 4.87583 4.87583 4.87907 4.88223 4.88223 4.88597 4.88865
 4.88985 4.88985 4.89427 4.89612 4.89883 4.90781 4.91126 4.92200 4.92200 4.92775
 4.92775 4.93361 4.94129 4.94789 4.94812 4.94923 4.94923 4.94989 4.95140 4.95792
 4.97176 4.97176 4.97252 4.97487 4.97701 4.97739 4.97739 4.98265 4.98523 4.98523
 4.98619 4.98905 4.98938 5.00569 5.01006 5.01174 5.01866 5.01867 5.04280 5.04337
 5.04338 5.04875 5.06859 5.06859 5.10614 5.12144 5.12144 5.12162 5.12511 5.15481
 5.15801 5.34591 5.34591 5.45552 5.48335 5.56930 5.58393 5.59657 5.68158 5.76826
 5.77138 5.77769 5.77769 5.81364 5.81397 5.81397 5.82434 5.84647 5.84647 5.84755
 5.84780 5.85567 5.86625 5.86821 5.87274 5.87274 5.87879 5.87977 5.87977 5.88049
 5.88516 5.88516 5.89250 5.89961 5.89961 5.90437 5.90586 5.90586 5.90717 5.91372
 5.94426 5.94426 5.95796 5.96290 5.97292 5.97292 6.02088 6.03697 6.04600 6.04687
 6.04687 6.05238 6.05450 6.05466 6.05466 6.05905 6.05991 6.06137 6.06137 6.06859
 6.06907 6.06934 6.07357 6.07357 6.08139 6.08582 6.08582 6.08672 6.09128 6.09766
 6.09766 6.10703 6.11774 6.11959 6.11960 6.14126 6.15587 6.16303 6.16438 6.16438
 6.18978 6.19453 6.19453 6.20539 6.20719 6.20855 6.20855 6.20860 6.22387 6.22387
 6.31143 6.33500 6.34276 6.34276 6.34546 6.35375 6.35375 6.35511 6.35525 6.35887
 6.35887 6.37281 6.37982 6.39304 6.39304 6.39633 6.39633 6.45017 6.45017 6.64369
 6.65723 6.71063 6.82869 6.82869 7.38899 7.45969 7.45969 7.51816 7.61660 7.84013
 7.84013 8.14298 8.23543 8.23584 8.23584 8.23991 8.24160 8.24181 8.24203 8.24203
 8.24225 8.24798 8.25001 8.25001 8.26097 8.26663 8.29615 8.33206 8.33496 8.33526
 8.33615 8.33615 8.34144 8.34309 8.34309 8.34646 8.35064 8.35291 8.35291 8.36802
 8.37443 8.37470 8.37494 8.37494 8.38043 8.38043 8.38319 8.39104 8.39317 8.39317
 8.39319 8.39330 8.39931 8.40160 8.40160 8.40396 8.40396 8.40455 8.40492 8.40589
 8.40589 8.40829 8.40859 8.40909 8.41024 8.41365 8.41365 8.42253 8.42422 8.42622
 8.42622 8.42831 8.43065 8.43283 8.43847 8.43871 8.43871 8.44201 8.44434 8.44434
 8.44806 8.44806 8.45124 8.45623 8.45623 8.46136 8.46192 8.46281 8.46281 8.46310
 8.46316 8.46388 8.46536 8.46536 8.46590 8.46637 8.46758 8.46778 8.46778 8.47002
 8.47021 8.47573 8.47573 8.47644 8.47887 8.47887 8.48751 8.48751 8.48966 8.48987
 8.49632 8.49632 8.50775 8.50775 8.50823 8.51071 8.52613 8.52613 8.52907 8.55310
 8.55310 8.55499 8.55618 8.56081 8.56241 8.56241 8.59539 8.60339 8.60339 8.61605
 8.61875 8.62041 8.62041 8.65712 8.65974 8.66013 8.66013 8.66023 8.66562 8.66725
 8.66725 8.67181 8.67181 8.67797 8.69537 8.70785 8.70804 8.71754 8.72107 8.72643
 8.72679 8.72679 8.73585 8.76374 8.76374 8.76990 8.77056 8.77062 8.77230 8.77330
 8.77330 8.77653 8.78778 8.78778 8.78870 8.78909 8.79536 8.79676 8.79677 8.79905
 8.81954 8.81954 8.82033 8.82041 8.85789 8.86767 8.87538 8.87538 8.88028 8.88040
 8.88067 8.88067 8.88083 8.88083 8.88165 8.88165 8.88196 8.88248 8.88273 8.88314
 8.88314 8.88434 8.88446 8.88523 8.88540 8.88573 8.88573 8.88616 8.88616 8.88701
 8.88717 8.88732 8.88732 8.88795 8.88795 8.88862 8.88889 8.88890 8.88925 8.88925
 8.88954 8.88983 8.88999 8.88999 8.89054 8.89054 8.89297 8.89320 8.89320 8.89324
 8.89406 8.89425 8.89425 8.89430 8.89430 8.89438 8.89560 8.89580 8.89595 8.89595
 8.89611 8.89611 8.89614 8.89640 8.89651 8.89695 8.89710 8.89710 8.89733 8.89808
 8.89808 8.89839 8.89916 8.89916 8.89973 8.90023 8.90257 8.90332 8.90336 8.90336
 8.90467 8.90977 8.90977 8.91277 8.91318 8.91318 8.91362 8.91408 8.91410 8.91474
 8.91474 8.91588 8.91694 8.91702 8.91732 8.91732 8.91789 8.91814 8.91848 8.91850
 8.91903 8.91906 8.91906 8.92231 8.92231 8.92344 8.92349 8.92620 8.92655 8.92656
 8.92703 8.92716 8.92724 8.92724 8.92746 8.92746 8.92749 8.92812 8.92820 8.92841
 8.92841 8.92889 8.92889 8.92917 8.92917 8.93034 8.93218 8.93268 8.93271 8.93322
 8.93333 8.93333 8.93403 8.93403 8.93475 8.93583 8.93684 8.93684 8.93694 8.93757
 8.93824 8.93824 8.94225 8.94225 8.94267 8.94276 8.94374 8.94395 8.94403 8.94403
 8.94449 8.94454 8.94454 8.94588 8.94704 8.94704 8.94779 8.94779 8.94828 8.94858
 8.95187 8.95216 8.95216 8.95289 8.95400 8.95400 8.95435 8.95484 8.95524 8.95561
 8.95574 8.95574 8.95603 8.95629 8.95712 8.95712 8.95716 8.95851 8.95882 8.95882
 8.95938 8.95939 8.96069 8.96741 8.96741 8.96852 8.96882 8.96882 8.96888 8.96907
 8.96934 8.96988 8.96988 8.97064 8.97092 8.97186 8.97186 8.97235 8.97296 8.97296
 8.97576 8.97674 8.97707 8.97763 8.97815 8.97815 8.97857 8.97961 8.98108 8.98163
 8.98163 8.98252 8.98272 8.98272 8.98329 8.98522 8.98535 8.98535 8.98576 8.98591
 8.98593 8.98686 8.98847 8.98847 8.98952 8.98961 8.99099 8.99192 8.99192 8.99336
 8.99372 8.99381 8.99561 8.99577 8.99577 8.99667 8.99884 8.99935 8.99935 9.00009
 9.00025 9.00025 9.00341 9.00431 9.00512 9.00512 9.00566 9.00714 9.00724 9.00750
 9.00750 9.00803 9.00803 9.00815 9.00862 9.00870 9.01111 9.01165 9.01241 9.01241
 9.01251 9.01310 9.01338 9.01338 9.01425 9.01425 9.01447 9.01618 9.01874 9.01980
 9.02286 9.02286 9.02408 9.02423 9.02423 9.02506 9.03004 9.03072 9.03080 9.03080
 9.03435 9.03442 9.03609 9.03609 9.03887 9.03887 9.03917 9.03928 9.03928 9.04005
 9.04075 9.04075 9.09615 9.11636 9.53263 9.53263 9.68757 9.96887 9.97056 9.97349
 9.97349 10.03023 10.03275 10.03442 10.03442 10.13212 10.13212 10.13434 10.13816 10.14774
 10.15292 10.18571 10.18571 10.22721 10.22723 10.22939 10.22939 10.23176 10.24353 10.27929
 10.34717 10.35337 10.52386 10.52689 10.52689 10.53050 10.54743 10.54743 10.55367 10.58944
 10.59398 10.59399 10.62570 10.76908 10.99096 10.99096 10.99165 10.99334 11.00326 11.00404
 11.04422 11.04469 11.04469 11.04577 11.04686 11.04686 11.04767 11.04798 11.04888 11.04905
 11.04998 11.04998 11.06155 11.06754 11.06754 11.07056 11.07056 11.07136 11.07160 11.07181
 11.07187 11.07187 11.07279 11.07387 11.07511 11.07697 11.07697 11.07931 11.08271 11.08956
 11.09019 11.09086 11.09086 11.09456 11.09586 11.09603 11.09603 11.09759 11.09859 11.09866
 11.09866 11.10230 11.10230 11.10276 11.10419 11.11972 11.12147 11.12147 11.12559 11.12572
 11.12705 11.12705 11.13078 11.14313 11.14372 11.14457 11.14458 11.14545 11.14581 11.14663
 11.14747 11.14747 11.15401 11.16723 11.17120 11.17237 11.17237 11.18956 11.19234 11.19434
 11.19434 11.19869 11.20573 11.20573 11.20862 11.20862 11.21874 11.21939 11.21939 11.21942
 11.22016 11.22039 11.22039 11.22043 11.22060 11.22192 11.22192 11.22269 11.22269 11.22291
 11.22441 11.22441 11.22453 11.23107 11.23119 11.23139 11.23250 11.23250 11.23329 11.23423
 11.23446 11.23594 11.23594 11.24039 11.24183 11.24183 11.24474 11.24517 11.24517 11.24557
 11.24645 11.24690 11.24708 11.24903 11.24903 11.25020 11.25036 11.25153 11.25153 11.25232
 11.25331 11.25331 11.25580 11.25709 11.25709 11.26064 11.26413 11.26413 11.26495 11.26577
 11.26726 11.26726 11.27101 11.27528 11.27677 11.27753 11.27753 11.28649 11.28771 11.28824
 11.28824 11.28975 11.28975 11.29000 11.29127 11.29223 11.29302 11.29302 11.29303 11.29433
 11.29509 11.29509 11.29691 11.29860 11.30058 11.30222 11.30222 11.30702 11.31136 11.31136
 11.31360 11.31460 11.31754 11.31754 11.31832 11.32264 11.32491 11.32845 11.32845 11.32938
 11.32938 11.32940 11.33607 11.34414 11.34414 11.34643 11.34770 11.34850 11.34882 11.34882
 11.34908 11.34908 11.35474 11.35659 11.35749 11.35847 11.35847 11.36247 11.36247 11.36623
 11.36742 11.36851 11.36851 11.38634 11.38829 11.38829 11.39581 11.40770 11.40770 11.40844
 11.41277 11.41308 11.41364 11.41364 11.41658 11.41658 11.42184 11.42499 11.42499 11.42675
 11.42785 11.42785 11.42845 11.43058 11.43301 11.45544 11.46602 11.47084 11.61283 11.61463
 12.15317 12.15880 12.15987 12.15987 12.21297 12.21297 12.21440 12.21512 12.21765 12.21765
 12.23724 12.23724 12.26556 12.27318 12.27318 12.27422 12.29906 12.30270 12.30270 12.30449
 12.31303 12.31786 12.31786 12.31841 12.32211 12.32496 12.33008 12.33008 12.40833 12.40863
 12.40901 12.40901 12.42746 12.42746 12.43027 12.43135 12.43524 12.43835 12.44115 12.44354
 12.44354 12.44452 12.44452 12.45005 12.45296 12.45327 12.45747 12.45747 12.47386 12.48154
 12.48154 12.48298 12.48371 12.48371 12.48971 12.49392 12.50072 12.50528 12.50714 12.50714
 12.51813 12.51839 12.52091 12.52342 12.52342 12.52467 12.52620 12.52668 12.52668 12.53819
 12.53855 12.54155 12.54155 12.54261 12.55253 12.56159 12.56159 12.56674 12.56788 12.56788
 12.56910 12.58734 12.59421 12.59447 12.59688 12.59688 12.59735 12.59979 12.60954 12.60954
 12.62178 12.62216 12.62407 12.62407 12.64084 12.64124 12.64161 12.64161 12.64473 12.64473
 12.64504 12.64769 12.64859 12.64961 12.64961 12.65112 12.65432 12.65473 12.65473 12.65644
 12.66272 12.66272 12.66497 12.67459 12.67916 12.67916 12.68065 12.70249 12.70249 12.70391
 12.71147 12.71497 12.71505 12.71785 12.71785 12.72014 12.72428 12.72428 12.72646 12.73312
 12.73693 12.73724 12.74734 12.77845 12.77845 12.78009 12.78299 12.78342 12.78346 12.78361
 12.78361 12.79305 12.79463 12.79463 12.79549 12.80514 12.80539 12.80539 12.80765 12.81078
 12.81130 12.81683 12.81684 12.83475 12.83495 12.84764 12.86585 12.89225 12.89226 12.91416
 12.91443 12.91443 12.91794 12.91869 13.68049 13.68049 13.75986 13.76139 13.77904 13.78241
 13.78242 13.79294 13.79487 13.79496 13.79544 13.79544 13.79730 13.81337 13.82105 13.82106
 13.83267 13.83674 13.83674 13.83694 13.86192 13.87801 13.87801 13.87882 13.91461 13.96941
 13.96941 13.97107 13.97155 13.98012 13.99134 14.00320 14.00320 14.02216 14.03850 14.04961
 14.23201 14.23201 14.60479 14.60479 15.12710 15.92718 17.14194 17.15720 18.27189 18.47217
 18.47217 20.44317 31.90308 35.24894 35.24895 35.25106 35.25106 35.32510 35.32511 35.32763
 35.32936 35.41525 35.41525 35.41710 35.41915 35.43413 35.44074 35.46831 35.46831 35.49908
 35.49908 35.49941 35.49960 35.55791 35.58133 35.60171 35.74307 35.74308 35.74438 35.74615
 35.80138 35.80568 35.80568 35.82305 35.95325 47.85965 47.86196 47.86940 47.87870 47.87871
 47.88331 47.89084 47.89358 47.89358 47.89380 47.89593 47.89610 47.89643 47.89643 47.89929
 47.90690 47.91231 47.91232 47.92359 47.93209 47.95016 47.95474 47.95474 48.04126 48.04657
 48.04657 48.04829 48.05226 48.05658 48.07449 48.07449 48.11493 51.73735 90.60763 196.58138
 196.58209 196.58487 196.58487 196.73229 196.73229 196.73781 196.74010 196.89179 196.89180 196.89549
 196.89889 196.92046 196.93250 196.98109 196.98109 197.04003 197.04080 197.04080 197.04385 197.13985
 197.16296 197.19169 197.45488 197.45488 197.45725 197.45921 197.55636 197.56378 197.56378 197.59186
 197.82098 236.41440 252.43260 252.43723 252.43993 252.44716 252.45698 252.45699 252.46887 252.47020
 252.47143 252.47144 252.47415 252.47433 252.47493 252.47494 252.47829 252.48447 252.49281 252.49281
 252.50640 252.51417 252.53735 252.54344 252.54344 252.64761 252.65528 252.65528 252.65768 252.66126
 252.66624 252.68671 252.68671 252.73166 411.20754
 ---------------------------------------------------------------------------
 VBM is at 0-th k-point with -2.52451 eV
 CBM is at 0-th k-point with 0.62234 eV
 Band gap is 3.14686 eV


           Ground-State Mulliken Net Atomic Charges

      Atom                 Charge (a.u.)          Spin (a.u.)
   --------------------------------------------------------
      1 Mg              (11.984832,-0.000000)    (0.000000,0.000000)
      2 Mg               (0.730646,-0.000000)    (0.000000,0.000000)
      3 Mg               (0.795615,-0.000000)    (0.000000,0.000000)
      4 Mg               (0.761337,-0.000000)    (0.000000,0.000000)
      5 Mg               (0.761339,-0.000000)    (0.000000,0.000000)
      6 Mg               (0.761341,-0.000000)    (0.000000,0.000000)
      7 Mg               (0.761344,-0.000000)    (0.000000,0.000000)
      8 Mg               (0.795629,-0.000000)    (0.000000,0.000000)
      9 Mg               (0.761334,-0.000000)    (0.000000,0.000000)
     10 Mg               (0.795626,-0.000000)    (0.000000,0.000000)
     11 Mg               (0.761341,-0.000000)    (0.000000,0.000000)
     12 Mg               (0.730651,-0.000000)    (0.000000,0.000000)
     13 Mg               (0.795630,-0.000000)    (0.000000,0.000000)
     14 Mg               (0.761339,-0.000000)    (0.000000,0.000000)
     15 Mg               (0.730653,-0.000000)    (0.000000,0.000000)
     16 Mg               (0.761329,-0.000000)    (0.000000,0.000000)
     17 Mg               (0.730638,-0.000000)    (0.000000,0.000000)
     18 Mg               (1.107754,-0.000000)    (0.000000,0.000000)
     19 Mg               (0.795904,-0.000000)    (0.000000,0.000000)
     20 Mg               (0.793793,-0.000000)    (0.000000,0.000000)
     21 Mg               (0.693130,-0.000000)    (0.000000,0.000000)
     22 Mg               (0.795901,-0.000000)    (0.000000,0.000000)
     23 Mg               (0.693123,-0.000000)    (0.000000,0.000000)
     24 Mg               (0.810167,-0.000000)    (0.000000,0.000000)
     25 Mg               (0.827127,-0.000000)    (0.000000,0.000000)
     26 Mg               (0.810163,-0.000000)    (0.000000,0.000000)
     27 Mg               (0.810165,-0.000000)    (0.000000,0.000000)
     28 Mg               (0.795904,-0.000000)    (0.000000,0.000000)
     29 Mg               (0.693121,-0.000000)    (0.000000,0.000000)
     30 Mg               (0.795900,-0.000000)    (0.000000,0.000000)
     31 Mg               (0.810161,-0.000000)    (0.000000,0.000000)
     32 Mg               (0.827121,-0.000000)    (0.000000,0.000000)
     33  O              (-3.306874,-0.000000)    (0.000000,0.000000)
     34  O              (-0.777307,-0.000000)    (0.000000,0.000000)
     35  O              (-0.775265,-0.000000)    (0.000000,0.000000)
     36  O              (-0.779288,-0.000000)    (0.000000,0.000000)
     37  O              (-0.775268,-0.000000)    (0.000000,0.000000)
     38  O              (-0.775259,-0.000000)    (0.000000,0.000000)
     39  O              (-0.774264,-0.000000)    (0.000000,0.000000)
     40  O              (-0.772586,-0.000000)    (0.000000,0.000000)
     41  O              (-0.772584,-0.000000)    (0.000000,0.000000)
     42  O              (-0.772590,-0.000000)    (0.000000,0.000000)
     43  O              (-0.777303,-0.000000)    (0.000000,0.000000)
     44  O              (-0.772576,-0.000000)    (0.000000,0.000000)
     45  O              (-0.777303,-0.000000)    (0.000000,0.000000)
     46  O              (-0.779282,-0.000000)    (0.000000,0.000000)
     47  O              (-0.744023,-0.000000)    (0.000000,0.000000)
     48  O              (-0.777304,-0.000000)    (0.000000,0.000000)
     49  O              (-0.775267,-0.000000)    (0.000000,0.000000)
     50  O              (-0.785260,-0.000000)    (0.000000,0.000000)
     51  O              (-0.774083,-0.000000)    (0.000000,0.000000)
     52  O              (-0.774092,-0.000000)    (0.000000,0.000000)
     53  O              (-0.774088,-0.000000)    (0.000000,0.000000)
     54  O              (-0.785259,-0.000000)    (0.000000,0.000000)
     55  O              (-0.774089,-0.000000)    (0.000000,0.000000)
     56  O              (-0.774089,-0.000000)    (0.000000,0.000000)
     57  O              (-0.774096,-0.000000)    (0.000000,0.000000)
     58  O              (-0.804299,-0.000000)    (0.000000,0.000000)
     59  O              (-0.804298,-0.000000)    (0.000000,0.000000)
     60  O              (-0.774085,-0.000000)    (0.000000,0.000000)
     61  O              (-0.774080,-0.000000)    (0.000000,0.000000)
     62  O              (-0.804297,-0.000000)    (0.000000,0.000000)
     63  O              (-0.804298,-0.000000)    (0.000000,0.000000)
     64  O              (-0.785265,-0.000000)    (0.000000,0.000000)
   --------------------------------------------------------
  Sum of atomic charges =     (-0.000000,-0.000000)
  Sum of spin   charges =       (0.000000,0.000000)



 Total job time:  59659.97 s.
 Sat Aug 16 00:21:01 2025


        *************************************************************
        *                                                           *
        *  Thank you very much for using QCPBC. Have a nice day.    *
        *                                                           *
        *************************************************************

Running job 1 of 1
