                  Welcome to Q-Chem
           with Periodic Boundary Condition
     A Quantum Leap Into The Future Of Chemistry

 Adam Rettig, Xintian Feng, Meng-Fu Chen, Hieu Dinh, Stephen Quiton,
 Anton Ni, Paul J. Robinson, Jinghong Zhang, Joonho Lee

Contributors to earlier versions of Q-Chem not listed above:
 Evgeny Epifanovsky, Leo Cunha, Jerome F. Gonthier, Kuan-Yu Liu
 Input file: /n/netscratch/joonholee_lab/Lab/hieudinh//si_2_ccpvqz_omega_0.3_777.scratch20250909032133/si_2_ccpvqz_omega_0.3_777.0
 Scratch folder: /n/netscratch/joonholee_lab/Lab/hieudinh//si_2_ccpvqz_omega_0.3_777.scratch20250909032133
 Auxillary files located at: /n/holylabs/LABS/joonholee_lab/Lab/qchem_base/qcaux
 Q-Chem begins on Tue Sep  9 03:21:34 2025

 -------------------------------------------------------------
 User input:
 -------------------------------------------------------------
 $lattice
 3
 0.000000 5.130600 5.130600
 5.130600 0.000000 5.130600
 5.130600 5.130600 0.000000
 $end
 
 $unitcell
 ABSOLUTE
 0 1
 Si 0.000000 0.000000 0.000000
 Si 2.565300 2.565300 2.565300
 $end
 
 $rem
 jobtype = sp
 method = pbe
 scf_convergence = 5
 scf_guess = autosad
 scf_algorithm = diis_gdm
 basis = cc-pvqz
 aux_basis = cc-pvqz-jk
 input_bohr = true
 symmetry = false
 rsdf_print_level 1
 is_basis_uctr true
 
 mp_mesh = [7,7,7]
 
 integral_direct true
 bvk_cgto true
 
 thresh 14
 mem_total 1000000
 threads 32
 
 MAX_SCF_CYCLES 500
 madelung = false
 omega 0.3
 do_rij_bigmem true
 automate_g true
 print_level 10
 grid_type_xc 1
 
 thresh_1e2c_sp 1e-14
 thresh_2e3c_bra_ket_sep 1e-10
 thresh_g 1e-12
 $end
 
 -------------------------------------------------------------
 Running PBC job

 Requested Exchange Correlation Functionals: 
  DFT Exchange:  1.00000 pbe_x
  DFT Correlation:  1.00000 pbe_c
 using 32 threads for computing.
 ---------------------------------------------------------------
      Coordinates of Atoms in Central Unit Cell (Angstroms)
    I     Atom         X            Y            Z
 ---------------------------------------------------------------
    1      Si      0.000000     0.000000     0.000000
    2      Si      1.357498     1.357498     1.357498
 ---------------------------------------------------------------
 --------------------------------------------------
              Lattice Vectors (Angstroms)
              X            Y            Z
 --------------------------------------------------
   X       0.000000     2.714997     2.714997
   Y       2.714997     0.000000     2.714997
   Z       2.714997     2.714997     0.000000
 --------------------------------------------------
 --------------------------------------------------
       Reciprocal Lattice Vectors (Angstroms^-1)
              X            Y            Z
 --------------------------------------------------
   X      -1.157126     1.157126     1.157126
   Y       1.157126    -1.157126     1.157126
   Z       1.157126     1.157126    -1.157126
 --------------------------------------------------

 Single point calculation requested

 Hamiltonian contributions:
 List of terms in Hamiltonian: kpts_nn, kpts_kinetic, kpts_vnuc_df, kpts_xc, kpts_rij_bigmem

 K-Points calculation started.

 Basis set information about using solid harmonic (1) or Cartesian (0):
  si : D(1) D(1) D(1) F(1) F(1) G(1) 

 Basis set information about using solid harmonic (1) or Cartesian (0):
  si : D(1) D(1) D(1) D(1) D(1) D(1) D(1) D(1) D(1) F(1) F(1) F(1) F(1) G(1) G(1) H(1) 

 There are 118 basis functions in the central unit cell.
 Print atomic basis of atoms in the central unit cell:
 -------------------------------------------------------------
2 66 134 28

  0.00000000000000e+00  0.00000000000000e+00  0.00000000000000e+00
  2.56530000000000e+00  2.56530000000000e+00  2.56530000000000e+00

  5.13000000000000e+05
  7.68200000000000e+04
  1.74700000000000e+04
  4.93500000000000e+03
  1.60200000000000e+03
  5.74100000000000e+02
  2.21500000000000e+02
  9.05400000000000e+01
  3.87400000000000e+01
  1.69500000000000e+01
  6.45200000000000e+00
  2.87400000000000e+00
  1.25000000000000e+00
  3.59900000000000e-01
  1.69900000000000e-01
  7.06600000000000e-02
  1.12200000000000e+03
  2.66000000000000e+02
  8.59200000000000e+01
  3.23300000000000e+01
  1.33700000000000e+01
  5.80000000000000e+00
  2.55900000000000e+00
  1.12400000000000e+00
  3.98800000000000e-01
  1.53300000000000e-01
  5.72800000000000e-02
  7.60000000000000e-01
  3.02000000000000e-01
  1.20000000000000e-01
  5.41000000000000e-01
  2.12000000000000e-01
  4.61000000000000e-01
  5.13000000000000e+05
  7.68200000000000e+04
  1.74700000000000e+04
  4.93500000000000e+03
  1.60200000000000e+03
  5.74100000000000e+02
  2.21500000000000e+02
  9.05400000000000e+01
  3.87400000000000e+01
  1.69500000000000e+01
  6.45200000000000e+00
  2.87400000000000e+00
  1.25000000000000e+00
  3.59900000000000e-01
  1.69900000000000e-01
  7.06600000000000e-02
  1.12200000000000e+03
  2.66000000000000e+02
  8.59200000000000e+01
  3.23300000000000e+01
  1.33700000000000e+01
  5.80000000000000e+00
  2.55900000000000e+00
  1.12400000000000e+00
  3.98800000000000e-01
  1.53300000000000e-01
  5.72800000000000e-02
  7.60000000000000e-01
  3.02000000000000e-01
  1.20000000000000e-01
  5.41000000000000e-01
  2.12000000000000e-01
  4.61000000000000e-01

  3.56439732356011e-01
  6.67250935594825e-01
  1.15567538346971e+00
  1.89079471139597e+00
  2.92997535092854e+00
  4.25377897422013e+00
  5.53035652706994e+00
  5.88407857713363e+00
  4.26432221020809e+00
  1.46246852660687e+00
  9.90009037975635e-02
 -5.26805361731285e-03
  1.58075269248041e-03
 -9.63604858609034e-02
 -1.80140685379119e-01
 -3.12991611081079e-01
 -5.12013980868736e-01
 -8.03092560139717e-01
 -1.18597193899895e+00
 -1.63453354628192e+00
 -1.94138718043020e+00
 -1.86039340932271e+00
 -9.21642524314205e-01
  4.93552860211257e-01
  9.09065541611183e-01
  3.40430003714153e-01
  4.89002727192571e-02
  9.13245846186842e-02
  1.58921585782757e-01
  2.59526822498432e-01
  4.08347517411705e-01
  6.02266139654795e-01
  8.36774006155092e-01
  9.98775610751853e-01
  9.86583994360998e-01
  5.01500269670235e-01
 -2.91439000418814e-01
 -6.84883633703988e-01
 -4.85138432421684e-01
  3.31166560285492e-01
  1.88605835767988e-01
  9.76765512168845e-02
  4.17977074735086e+00
  5.88843070847456e+00
  7.44317185052013e+00
  8.05001094515016e+00
  6.97099017282640e+00
  4.33955185260449e+00
  1.76355858703549e+00
  3.34437932089088e-01
 -4.09551658476811e+00
 -5.70145272051300e+00
 -7.35388974061730e+00
 -7.93663059323219e+00
 -7.17813870370958e+00
 -4.42768957771269e+00
 -2.05517820096269e+00
 -1.72105843348797e-01
  4.51735295769850e-01
  1.36731249153695e-01
  3.99432914781939e-02
  1.01820035164008e+00
  2.02498404800701e-01
  4.02695370421242e-02
  3.69528803814005e-01
  4.48962571437413e-02
  1.32316184864580e-01
  3.56439732356011e-01
  6.67250935594825e-01
  1.15567538346971e+00
  1.89079471139597e+00
  2.92997535092854e+00
  4.25377897422013e+00
  5.53035652706994e+00
  5.88407857713363e+00
  4.26432221020809e+00
  1.46246852660687e+00
  9.90009037975635e-02
 -5.26805361731285e-03
  1.58075269248041e-03
 -9.63604858609034e-02
 -1.80140685379119e-01
 -3.12991611081079e-01
 -5.12013980868736e-01
 -8.03092560139717e-01
 -1.18597193899895e+00
 -1.63453354628192e+00
 -1.94138718043020e+00
 -1.86039340932271e+00
 -9.21642524314205e-01
  4.93552860211257e-01
  9.09065541611183e-01
  3.40430003714153e-01
  4.89002727192571e-02
  9.13245846186842e-02
  1.58921585782757e-01
  2.59526822498432e-01
  4.08347517411705e-01
  6.02266139654795e-01
  8.36774006155092e-01
  9.98775610751853e-01
  9.86583994360998e-01
  5.01500269670235e-01
 -2.91439000418814e-01
 -6.84883633703988e-01
 -4.85138432421684e-01
  3.31166560285492e-01
  1.88605835767988e-01
  9.76765512168845e-02
  4.17977074735086e+00
  5.88843070847456e+00
  7.44317185052013e+00
  8.05001094515016e+00
  6.97099017282640e+00
  4.33955185260449e+00
  1.76355858703549e+00
  3.34437932089088e-01
 -4.09551658476811e+00
 -5.70145272051300e+00
 -7.35388974061730e+00
 -7.93663059323219e+00
 -7.17813870370958e+00
 -4.42768957771269e+00
 -2.05517820096269e+00
 -1.72105843348797e-01
  4.51735295769850e-01
  1.36731249153695e-01
  3.99432914781939e-02
  1.01820035164008e+00
  2.02498404800701e-01
  4.02695370421242e-02
  3.69528803814005e-01
  4.48962571437413e-02
  1.32316184864580e-01

0 0 0 0 3 3 3
0 0 13 0 26 0 
13 0

0 3 3 13 1 1 1
39 0 
1 0

0 4 4 14 1 1 1
40 0 
1 0

0 5 5 15 1 1 1
41 0 
1 0

0 6 6 16 2 6 6
42 1 50 1 
8 0

0 12 12 24 1 3 3
58 1 
1 0

0 15 15 25 1 3 3
59 1 
1 0

0 18 18 26 1 3 3
60 1 
1 0

0 21 21 27 1 5 6
61 2 
1 1

0 26 26 28 1 5 6
62 2 
1 1

0 31 31 29 1 5 6
63 2 
1 1

0 36 36 30 1 7 10
64 3 
1 1

0 43 43 31 1 7 10
65 3 
1 1

0 50 50 32 1 9 15
66 4 
1 1

1 59 59 33 3 3 3
67 0 80 0 93 0 
13 0

1 62 62 46 1 1 1
106 0 
1 0

1 63 63 47 1 1 1
107 0 
1 0

1 64 64 48 1 1 1
108 0 
1 0

1 65 65 49 2 6 6
109 1 117 1 
8 0

1 71 71 57 1 3 3
125 1 
1 0

1 74 74 58 1 3 3
126 1 
1 0

1 77 77 59 1 3 3
127 1 
1 0

1 80 80 60 1 5 6
128 2 
1 1

1 85 85 61 1 5 6
129 2 
1 1

1 90 90 62 1 5 6
130 2 
1 1

1 95 95 63 1 7 10
131 3 
1 1

1 102 102 64 1 7 10
132 3 
1 1

1 109 109 65 1 9 15
133 4 
1 1

 -------------------------------------------------------------
 Allocate 265256 B from available memory: 1048576000000 B
 There are 2197 image cells after screening.
 There are 2061 image cells for CGTO evaluation after screening.
 Real-Space grid for FFT initialized based on kinetic energy cutoff (eV) = 500.0
 Real-Space grid for FFT: (10,10,10)
 There are 9261 real-space grid points.
 There are 64 batches of real-space grid points. 
 Size of each grid batch is around 128
 Grid for AFT initialized based on kinetic energy cutoff (eV) = 500.0
 Real-Space grid for AFT: (10,10,10)
 There are 9261 real-space grid points.

 There are 5628 atom-centered grid points.

 Spacegroup symmetry group: Fd-3m
 Reducing spacegroup symmetry to symmorphic group: F -4 3 m
 Monkhorst-Pack mesh is [7,7,7]
 There are 343 k points.
kpoints in Bohr
-0.2624248337 -0.2624248337 -0.2624248337
-0.1749498891 -0.1749498891 -0.3498997782
-0.0874749446 -0.0874749446 -0.4373747228
-0.0000000000 -0.0000000000 -0.5248496673
0.0874749446 0.0874749446 -0.6123246119
0.1749498891 0.1749498891 -0.6997995564
0.2624248337 0.2624248337 -0.7872745010
-0.1749498891 -0.3498997782 -0.1749498891
-0.0874749446 -0.2624248337 -0.2624248337
-0.0000000000 -0.1749498891 -0.3498997782
0.0874749446 -0.0874749446 -0.4373747228
0.1749498891 -0.0000000000 -0.5248496673
0.2624248337 0.0874749446 -0.6123246119
0.3498997782 0.1749498891 -0.6997995564
-0.0874749446 -0.4373747228 -0.0874749446
-0.0000000000 -0.3498997782 -0.1749498891
0.0874749446 -0.2624248337 -0.2624248337
0.1749498891 -0.1749498891 -0.3498997782
0.2624248337 -0.0874749446 -0.4373747228
0.3498997782 -0.0000000000 -0.5248496673
0.4373747228 0.0874749446 -0.6123246119
-0.0000000000 -0.5248496673 0.0000000000
0.0874749446 -0.4373747228 -0.0874749446
0.1749498891 -0.3498997782 -0.1749498891
0.2624248337 -0.2624248337 -0.2624248337
0.3498997782 -0.1749498891 -0.3498997782
0.4373747228 -0.0874749446 -0.4373747228
0.5248496673 0.0000000000 -0.5248496673
0.0874749446 -0.6123246119 0.0874749446
0.1749498891 -0.5248496673 0.0000000000
0.2624248337 -0.4373747228 -0.0874749446
0.3498997782 -0.3498997782 -0.1749498891
0.4373747228 -0.2624248337 -0.2624248337
0.5248496673 -0.1749498891 -0.3498997782
0.6123246119 -0.0874749446 -0.4373747228
0.1749498891 -0.6997995564 0.1749498891
0.2624248337 -0.6123246119 0.0874749446
0.3498997782 -0.5248496673 0.0000000000
0.4373747228 -0.4373747228 -0.0874749446
0.5248496673 -0.3498997782 -0.1749498891
0.6123246119 -0.2624248337 -0.2624248337
0.6997995564 -0.1749498891 -0.3498997782
0.2624248337 -0.7872745010 0.2624248337
0.3498997782 -0.6997995564 0.1749498891
0.4373747228 -0.6123246119 0.0874749446
0.5248496673 -0.5248496673 0.0000000000
0.6123246119 -0.4373747228 -0.0874749446
0.6997995564 -0.3498997782 -0.1749498891
0.7872745010 -0.2624248337 -0.2624248337
-0.3498997782 -0.1749498891 -0.1749498891
-0.2624248337 -0.0874749446 -0.2624248337
-0.1749498891 -0.0000000000 -0.3498997782
-0.0874749446 0.0874749446 -0.4373747228
-0.0000000000 0.1749498891 -0.5248496673
0.0874749446 0.2624248337 -0.6123246119
0.1749498891 0.3498997782 -0.6997995564
-0.2624248337 -0.2624248337 -0.0874749446
-0.1749498891 -0.1749498891 -0.1749498891
-0.0874749446 -0.0874749446 -0.2624248337
-0.0000000000 -0.0000000000 -0.3498997782
0.0874749446 0.0874749446 -0.4373747228
0.1749498891 0.1749498891 -0.5248496673
0.2624248337 0.2624248337 -0.6123246119
-0.1749498891 -0.3498997782 0.0000000000
-0.0874749446 -0.2624248337 -0.0874749446
-0.0000000000 -0.1749498891 -0.1749498891
0.0874749446 -0.0874749446 -0.2624248337
0.1749498891 -0.0000000000 -0.3498997782
0.2624248337 0.0874749446 -0.4373747228
0.3498997782 0.1749498891 -0.5248496673
-0.0874749446 -0.4373747228 0.0874749446
-0.0000000000 -0.3498997782 0.0000000000
0.0874749446 -0.2624248337 -0.0874749446
0.1749498891 -0.1749498891 -0.1749498891
0.2624248337 -0.0874749446 -0.2624248337
0.3498997782 0.0000000000 -0.3498997782
0.4373747228 0.0874749446 -0.4373747228
-0.0000000000 -0.5248496673 0.1749498891
0.0874749446 -0.4373747228 0.0874749446
0.1749498891 -0.3498997782 0.0000000000
0.2624248337 -0.2624248337 -0.0874749446
0.3498997782 -0.1749498891 -0.1749498891
0.4373747228 -0.0874749446 -0.2624248337
0.5248496673 0.0000000000 -0.3498997782
0.0874749446 -0.6123246119 0.2624248337
0.1749498891 -0.5248496673 0.1749498891
0.2624248337 -0.4373747228 0.0874749446
0.3498997782 -0.3498997782 0.0000000000
0.4373747228 -0.2624248337 -0.0874749446
0.5248496673 -0.1749498891 -0.1749498891
0.6123246119 -0.0874749446 -0.2624248337
0.1749498891 -0.6997995564 0.3498997782
0.2624248337 -0.6123246119 0.2624248337
0.3498997782 -0.5248496673 0.1749498891
0.4373747228 -0.4373747228 0.0874749446
0.5248496673 -0.3498997782 0.0000000000
0.6123246119 -0.2624248337 -0.0874749446
0.6997995564 -0.1749498891 -0.1749498891
-0.4373747228 -0.0874749446 -0.0874749446
-0.3498997782 -0.0000000000 -0.1749498891
-0.2624248337 0.0874749446 -0.2624248337
-0.1749498891 0.1749498891 -0.3498997782
-0.0874749446 0.2624248337 -0.4373747228
-0.0000000000 0.3498997782 -0.5248496673
0.0874749446 0.4373747228 -0.6123246119
-0.3498997782 -0.1749498891 0.0000000000
-0.2624248337 -0.0874749446 -0.0874749446
-0.1749498891 -0.0000000000 -0.1749498891
-0.0874749446 0.0874749446 -0.2624248337
-0.0000000000 0.1749498891 -0.3498997782
0.0874749446 0.2624248337 -0.4373747228
0.1749498891 0.3498997782 -0.5248496673
-0.2624248337 -0.2624248337 0.0874749446
-0.1749498891 -0.1749498891 0.0000000000
-0.0874749446 -0.0874749446 -0.0874749446
-0.0000000000 -0.0000000000 -0.1749498891
0.0874749446 0.0874749446 -0.2624248337
0.1749498891 0.1749498891 -0.3498997782
0.2624248337 0.2624248337 -0.4373747228
-0.1749498891 -0.3498997782 0.1749498891
-0.0874749446 -0.2624248337 0.0874749446
-0.0000000000 -0.1749498891 0.0000000000
0.0874749446 -0.0874749446 -0.0874749446
0.1749498891 0.0000000000 -0.1749498891
0.2624248337 0.0874749446 -0.2624248337
0.3498997782 0.1749498891 -0.3498997782
-0.0874749446 -0.4373747228 0.2624248337
-0.0000000000 -0.3498997782 0.1749498891
0.0874749446 -0.2624248337 0.0874749446
0.1749498891 -0.1749498891 0.0000000000
0.2624248337 -0.0874749446 -0.0874749446
0.3498997782 0.0000000000 -0.1749498891
0.4373747228 0.0874749446 -0.2624248337
-0.0000000000 -0.5248496673 0.3498997782
0.0874749446 -0.4373747228 0.2624248337
0.1749498891 -0.3498997782 0.1749498891
0.2624248337 -0.2624248337 0.0874749446
0.3498997782 -0.1749498891 0.0000000000
0.4373747228 -0.0874749446 -0.0874749446
0.5248496673 0.0000000000 -0.1749498891
0.0874749446 -0.6123246119 0.4373747228
0.1749498891 -0.5248496673 0.3498997782
0.2624248337 -0.4373747228 0.2624248337
0.3498997782 -0.3498997782 0.1749498891
0.4373747228 -0.2624248337 0.0874749446
0.5248496673 -0.1749498891 0.0000000000
0.6123246119 -0.0874749446 -0.0874749446
-0.5248496673 -0.0000000000 -0.0000000000
-0.4373747228 0.0874749446 -0.0874749446
-0.3498997782 0.1749498891 -0.1749498891
-0.2624248337 0.2624248337 -0.2624248337
-0.1749498891 0.3498997782 -0.3498997782
-0.0874749446 0.4373747228 -0.4373747228
0.0000000000 0.5248496673 -0.5248496673
-0.4373747228 -0.0874749446 0.0874749446
-0.3498997782 -0.0000000000 -0.0000000000
-0.2624248337 0.0874749446 -0.0874749446
-0.1749498891 0.1749498891 -0.1749498891
-0.0874749446 0.2624248337 -0.2624248337
0.0000000000 0.3498997782 -0.3498997782
0.0874749446 0.4373747228 -0.4373747228
-0.3498997782 -0.1749498891 0.1749498891
-0.2624248337 -0.0874749446 0.0874749446
-0.1749498891 -0.0000000000 -0.0000000000
-0.0874749446 0.0874749446 -0.0874749446
0.0000000000 0.1749498891 -0.1749498891
0.0874749446 0.2624248337 -0.2624248337
0.1749498891 0.3498997782 -0.3498997782
-0.2624248337 -0.2624248337 0.2624248337
-0.1749498891 -0.1749498891 0.1749498891
-0.0874749446 -0.0874749446 0.0874749446
0.0000000000 0.0000000000 0.0000000000
0.0874749446 0.0874749446 -0.0874749446
0.1749498891 0.1749498891 -0.1749498891
0.2624248337 0.2624248337 -0.2624248337
-0.1749498891 -0.3498997782 0.3498997782
-0.0874749446 -0.2624248337 0.2624248337
-0.0000000000 -0.1749498891 0.1749498891
0.0874749446 -0.0874749446 0.0874749446
0.1749498891 0.0000000000 0.0000000000
0.2624248337 0.0874749446 -0.0874749446
0.3498997782 0.1749498891 -0.1749498891
-0.0874749446 -0.4373747228 0.4373747228
-0.0000000000 -0.3498997782 0.3498997782
0.0874749446 -0.2624248337 0.2624248337
0.1749498891 -0.1749498891 0.1749498891
0.2624248337 -0.0874749446 0.0874749446
0.3498997782 0.0000000000 0.0000000000
0.4373747228 0.0874749446 -0.0874749446
-0.0000000000 -0.5248496673 0.5248496673
0.0874749446 -0.4373747228 0.4373747228
0.1749498891 -0.3498997782 0.3498997782
0.2624248337 -0.2624248337 0.2624248337
0.3498997782 -0.1749498891 0.1749498891
0.4373747228 -0.0874749446 0.0874749446
0.5248496673 0.0000000000 0.0000000000
-0.6123246119 0.0874749446 0.0874749446
-0.5248496673 0.1749498891 -0.0000000000
-0.4373747228 0.2624248337 -0.0874749446
-0.3498997782 0.3498997782 -0.1749498891
-0.2624248337 0.4373747228 -0.2624248337
-0.1749498891 0.5248496673 -0.3498997782
-0.0874749446 0.6123246119 -0.4373747228
-0.5248496673 -0.0000000000 0.1749498891
-0.4373747228 0.0874749446 0.0874749446
-0.3498997782 0.1749498891 -0.0000000000
-0.2624248337 0.2624248337 -0.0874749446
-0.1749498891 0.3498997782 -0.1749498891
-0.0874749446 0.4373747228 -0.2624248337
0.0000000000 0.5248496673 -0.3498997782
-0.4373747228 -0.0874749446 0.2624248337
-0.3498997782 -0.0000000000 0.1749498891
-0.2624248337 0.0874749446 0.0874749446
-0.1749498891 0.1749498891 -0.0000000000
-0.0874749446 0.2624248337 -0.0874749446
0.0000000000 0.3498997782 -0.1749498891
0.0874749446 0.4373747228 -0.2624248337
-0.3498997782 -0.1749498891 0.3498997782
-0.2624248337 -0.0874749446 0.2624248337
-0.1749498891 0.0000000000 0.1749498891
-0.0874749446 0.0874749446 0.0874749446
0.0000000000 0.1749498891 0.0000000000
0.0874749446 0.2624248337 -0.0874749446
0.1749498891 0.3498997782 -0.1749498891
-0.2624248337 -0.2624248337 0.4373747228
-0.1749498891 -0.1749498891 0.3498997782
-0.0874749446 -0.0874749446 0.2624248337
0.0000000000 0.0000000000 0.1749498891
0.0874749446 0.0874749446 0.0874749446
0.1749498891 0.1749498891 0.0000000000
0.2624248337 0.2624248337 -0.0874749446
-0.1749498891 -0.3498997782 0.5248496673
-0.0874749446 -0.2624248337 0.4373747228
0.0000000000 -0.1749498891 0.3498997782
0.0874749446 -0.0874749446 0.2624248337
0.1749498891 0.0000000000 0.1749498891
0.2624248337 0.0874749446 0.0874749446
0.3498997782 0.1749498891 0.0000000000
-0.0874749446 -0.4373747228 0.6123246119
0.0000000000 -0.3498997782 0.5248496673
0.0874749446 -0.2624248337 0.4373747228
0.1749498891 -0.1749498891 0.3498997782
0.2624248337 -0.0874749446 0.2624248337
0.3498997782 0.0000000000 0.1749498891
0.4373747228 0.0874749446 0.0874749446
-0.6997995564 0.1749498891 0.1749498891
-0.6123246119 0.2624248337 0.0874749446
-0.5248496673 0.3498997782 -0.0000000000
-0.4373747228 0.4373747228 -0.0874749446
-0.3498997782 0.5248496673 -0.1749498891
-0.2624248337 0.6123246119 -0.2624248337
-0.1749498891 0.6997995564 -0.3498997782
-0.6123246119 0.0874749446 0.2624248337
-0.5248496673 0.1749498891 0.1749498891
-0.4373747228 0.2624248337 0.0874749446
-0.3498997782 0.3498997782 -0.0000000000
-0.2624248337 0.4373747228 -0.0874749446
-0.1749498891 0.5248496673 -0.1749498891
-0.0874749446 0.6123246119 -0.2624248337
-0.5248496673 -0.0000000000 0.3498997782
-0.4373747228 0.0874749446 0.2624248337
-0.3498997782 0.1749498891 0.1749498891
-0.2624248337 0.2624248337 0.0874749446
-0.1749498891 0.3498997782 -0.0000000000
-0.0874749446 0.4373747228 -0.0874749446
0.0000000000 0.5248496673 -0.1749498891
-0.4373747228 -0.0874749446 0.4373747228
-0.3498997782 0.0000000000 0.3498997782
-0.2624248337 0.0874749446 0.2624248337
-0.1749498891 0.1749498891 0.1749498891
-0.0874749446 0.2624248337 0.0874749446
0.0000000000 0.3498997782 0.0000000000
0.0874749446 0.4373747228 -0.0874749446
-0.3498997782 -0.1749498891 0.5248496673
-0.2624248337 -0.0874749446 0.4373747228
-0.1749498891 0.0000000000 0.3498997782
-0.0874749446 0.0874749446 0.2624248337
0.0000000000 0.1749498891 0.1749498891
0.0874749446 0.2624248337 0.0874749446
0.1749498891 0.3498997782 0.0000000000
-0.2624248337 -0.2624248337 0.6123246119
-0.1749498891 -0.1749498891 0.5248496673
-0.0874749446 -0.0874749446 0.4373747228
0.0000000000 0.0000000000 0.3498997782
0.0874749446 0.0874749446 0.2624248337
0.1749498891 0.1749498891 0.1749498891
0.2624248337 0.2624248337 0.0874749446
-0.1749498891 -0.3498997782 0.6997995564
-0.0874749446 -0.2624248337 0.6123246119
0.0000000000 -0.1749498891 0.5248496673
0.0874749446 -0.0874749446 0.4373747228
0.1749498891 0.0000000000 0.3498997782
0.2624248337 0.0874749446 0.2624248337
0.3498997782 0.1749498891 0.1749498891
-0.7872745010 0.2624248337 0.2624248337
-0.6997995564 0.3498997782 0.1749498891
-0.6123246119 0.4373747228 0.0874749446
-0.5248496673 0.5248496673 -0.0000000000
-0.4373747228 0.6123246119 -0.0874749446
-0.3498997782 0.6997995564 -0.1749498891
-0.2624248337 0.7872745010 -0.2624248337
-0.6997995564 0.1749498891 0.3498997782
-0.6123246119 0.2624248337 0.2624248337
-0.5248496673 0.3498997782 0.1749498891
-0.4373747228 0.4373747228 0.0874749446
-0.3498997782 0.5248496673 -0.0000000000
-0.2624248337 0.6123246119 -0.0874749446
-0.1749498891 0.6997995564 -0.1749498891
-0.6123246119 0.0874749446 0.4373747228
-0.5248496673 0.1749498891 0.3498997782
-0.4373747228 0.2624248337 0.2624248337
-0.3498997782 0.3498997782 0.1749498891
-0.2624248337 0.4373747228 0.0874749446
-0.1749498891 0.5248496673 0.0000000000
-0.0874749446 0.6123246119 -0.0874749446
-0.5248496673 0.0000000000 0.5248496673
-0.4373747228 0.0874749446 0.4373747228
-0.3498997782 0.1749498891 0.3498997782
-0.2624248337 0.2624248337 0.2624248337
-0.1749498891 0.3498997782 0.1749498891
-0.0874749446 0.4373747228 0.0874749446
0.0000000000 0.5248496673 0.0000000000
-0.4373747228 -0.0874749446 0.6123246119
-0.3498997782 0.0000000000 0.5248496673
-0.2624248337 0.0874749446 0.4373747228
-0.1749498891 0.1749498891 0.3498997782
-0.0874749446 0.2624248337 0.2624248337
0.0000000000 0.3498997782 0.1749498891
0.0874749446 0.4373747228 0.0874749446
-0.3498997782 -0.1749498891 0.6997995564
-0.2624248337 -0.0874749446 0.6123246119
-0.1749498891 0.0000000000 0.5248496673
-0.0874749446 0.0874749446 0.4373747228
0.0000000000 0.1749498891 0.3498997782
0.0874749446 0.2624248337 0.2624248337
0.1749498891 0.3498997782 0.1749498891
-0.2624248337 -0.2624248337 0.7872745010
-0.1749498891 -0.1749498891 0.6997995564
-0.0874749446 -0.0874749446 0.6123246119
0.0000000000 0.0000000000 0.5248496673
0.0874749446 0.0874749446 0.4373747228
0.1749498891 0.1749498891 0.3498997782
0.2624248337 0.2624248337 0.2624248337
 There are 14 alpha and 14 beta electrons
 Start computing overlap matrix
 Allocate 76414912 B from available memory: 1048575734752 B
 Time for computing overlap matrix: 3.8160000000 s
 ====== Initialize compute kernels for all-electron RI-J (kpts) ====== 
 ========================================================== 
 Range-separated parameter omega        = 0.299999999999999989
 Threshold for 1e2c shellpair           = 0.000000000000010000
 Threshold for 2e2c SR integral         = 0.000000000000000001
 Threshold for 2e3c SR integral         = 0.000000000100000000
 Threshold for AFT G-space screening is = 0.000000000001000000
 The exponent cutoff for C/D classification (omega2 / 2) is  = 0.044999999999999998
 ========================================================== 
 === Post process the basis set for RI calculation (exp_cutoff = 0.044999999999999998 ) === 
nshells_b1 before uncontraction = 28
nshells_b1 after uncontraction = 28
nshells_baux before uncontraction = 80
nshells_baux after uncontraction = 80
===============================================
nbsf total   = 118
nbsf compact = 118
nbsf diffuse = 0
naux total   = 296
naux compact = 296
naux diffuse = 0
nshells_bnuc = 2

 Number of unique atoms is 1
 Unique atom #0 (si) has 14 shells.

Shell 0 to 13 belongs to atom si
Shell 14 to 27 belongs to atom si

 Number of unique atom is 1
 Unique atom #0 (si) has 40 auxiliary shells.

Auxiliary Shell 0 to 39 belongs to atom si
Auxiliary Shell 40 to 79 belongs to atom si

================= Automatically determine grid size for reciprocal space summation =================
 Range-separated parameter = 0.30000000000000 and G-space screening threshold = 0.00000000000100
The number of grid points along each axis dimension is (4, 4, 4)
Total number of grid points = 729

Use nonortho shellpair for diffuse density
======== Initializing relevant kernel for RIJ (CC type) ========
There are 406 shellpairs in the reference unit cell
There are 3757 images and we expect to have 1525342 in total
There are 35954 shellpairs in the lattice sum after screening
****** AFT -> SR ******
Maximum bra distance cutoff is 30.000000000000
Maximum bra ket distance cutoff is 37.583407605466
Maximum bra ket screening distance is 30.187500000000
Number of auxiliary image is 1657
There are 406 shellpairs in the reference unit cell
There are 1031 images and we expect to have 418586 in total
There are 35954 shellpairs in the lattice sum after screening
Available memory per thread for 2e3c calculation is 32.765603745000Gb
Finish initializing 2e3c SR with the lattice sum!
=================================================
======== Initialize the SR component for Vnuc (CC type) ========
Maximum bra distance cutoff is 30.000000000000
Maximum bra ket distance cutoff is 31.203423477913
Maximum bra ket screening distance is 23.767099300136
Number of auxiliary image is 1097
There are 406 shellpairs in the reference unit cell
There are 1031 images and we expect to have 418586 in total
There are 35954 shellpairs in the lattice sum after screening
Available memory per thread for 2e3c calculation is 32.765603745000Gb
Finish initializing 2e3c SR with the lattice sum!
=================================================
 Aufbau occupation scheme, occupation determined by eigenvalue
 == 0-th k-point nmo = 114 (-0.26242,-0.26242,-0.26242) ==
 == 1-th k-point nmo = 114 (-0.17495,-0.17495,-0.34990) ==
 == 2-th k-point nmo = 114 (-0.08747,-0.08747,-0.43737) ==
 == 3-th k-point nmo = 114 (-0.00000,-0.00000,-0.52485) ==
 == 4-th k-point nmo = 114 (0.08747,0.08747,-0.61232) ==
 == 5-th k-point nmo = 114 (0.17495,0.17495,-0.69980) ==
 == 6-th k-point nmo = 114 (0.26242,0.26242,-0.78727) ==
 == 7-th k-point nmo = 114 (-0.17495,-0.34990,-0.17495) ==
 == 8-th k-point nmo = 114 (-0.08747,-0.26242,-0.26242) ==
 == 9-th k-point nmo = 114 (-0.00000,-0.17495,-0.34990) ==
 == 10-th k-point nmo = 114 (0.08747,-0.08747,-0.43737) ==
 == 11-th k-point nmo = 114 (0.17495,-0.00000,-0.52485) ==
 == 12-th k-point nmo = 114 (0.26242,0.08747,-0.61232) ==
 == 13-th k-point nmo = 114 (0.34990,0.17495,-0.69980) ==
 == 14-th k-point nmo = 114 (-0.08747,-0.43737,-0.08747) ==
 == 15-th k-point nmo = 114 (-0.00000,-0.34990,-0.17495) ==
 == 16-th k-point nmo = 114 (0.08747,-0.26242,-0.26242) ==
 == 17-th k-point nmo = 114 (0.17495,-0.17495,-0.34990) ==
 == 18-th k-point nmo = 114 (0.26242,-0.08747,-0.43737) ==
 == 19-th k-point nmo = 114 (0.34990,-0.00000,-0.52485) ==
 == 20-th k-point nmo = 114 (0.43737,0.08747,-0.61232) ==
 == 21-th k-point nmo = 114 (-0.00000,-0.52485,0.00000) ==
 == 22-th k-point nmo = 114 (0.08747,-0.43737,-0.08747) ==
 == 23-th k-point nmo = 114 (0.17495,-0.34990,-0.17495) ==
 == 24-th k-point nmo = 114 (0.26242,-0.26242,-0.26242) ==
 == 25-th k-point nmo = 114 (0.34990,-0.17495,-0.34990) ==
 == 26-th k-point nmo = 114 (0.43737,-0.08747,-0.43737) ==
 == 27-th k-point nmo = 114 (0.52485,0.00000,-0.52485) ==
 == 28-th k-point nmo = 114 (0.08747,-0.61232,0.08747) ==
 == 29-th k-point nmo = 114 (0.17495,-0.52485,0.00000) ==
 == 30-th k-point nmo = 114 (0.26242,-0.43737,-0.08747) ==
 == 31-th k-point nmo = 114 (0.34990,-0.34990,-0.17495) ==
 == 32-th k-point nmo = 114 (0.43737,-0.26242,-0.26242) ==
 == 33-th k-point nmo = 114 (0.52485,-0.17495,-0.34990) ==
 == 34-th k-point nmo = 114 (0.61232,-0.08747,-0.43737) ==
 == 35-th k-point nmo = 114 (0.17495,-0.69980,0.17495) ==
 == 36-th k-point nmo = 114 (0.26242,-0.61232,0.08747) ==
 == 37-th k-point nmo = 114 (0.34990,-0.52485,0.00000) ==
 == 38-th k-point nmo = 114 (0.43737,-0.43737,-0.08747) ==
 == 39-th k-point nmo = 114 (0.52485,-0.34990,-0.17495) ==
 == 40-th k-point nmo = 114 (0.61232,-0.26242,-0.26242) ==
 == 41-th k-point nmo = 114 (0.69980,-0.17495,-0.34990) ==
 == 42-th k-point nmo = 114 (0.26242,-0.78727,0.26242) ==
 == 43-th k-point nmo = 114 (0.34990,-0.69980,0.17495) ==
 == 44-th k-point nmo = 114 (0.43737,-0.61232,0.08747) ==
 == 45-th k-point nmo = 114 (0.52485,-0.52485,0.00000) ==
 == 46-th k-point nmo = 114 (0.61232,-0.43737,-0.08747) ==
 == 47-th k-point nmo = 114 (0.69980,-0.34990,-0.17495) ==
 == 48-th k-point nmo = 114 (0.78727,-0.26242,-0.26242) ==
 == 49-th k-point nmo = 114 (-0.34990,-0.17495,-0.17495) ==
 == 50-th k-point nmo = 114 (-0.26242,-0.08747,-0.26242) ==
 == 51-th k-point nmo = 114 (-0.17495,-0.00000,-0.34990) ==
 == 52-th k-point nmo = 114 (-0.08747,0.08747,-0.43737) ==
 == 53-th k-point nmo = 114 (-0.00000,0.17495,-0.52485) ==
 == 54-th k-point nmo = 114 (0.08747,0.26242,-0.61232) ==
 == 55-th k-point nmo = 114 (0.17495,0.34990,-0.69980) ==
 == 56-th k-point nmo = 114 (-0.26242,-0.26242,-0.08747) ==
 == 57-th k-point nmo = 114 (-0.17495,-0.17495,-0.17495) ==
 == 58-th k-point nmo = 114 (-0.08747,-0.08747,-0.26242) ==
 == 59-th k-point nmo = 114 (-0.00000,-0.00000,-0.34990) ==
 == 60-th k-point nmo = 114 (0.08747,0.08747,-0.43737) ==
 == 61-th k-point nmo = 114 (0.17495,0.17495,-0.52485) ==
 == 62-th k-point nmo = 114 (0.26242,0.26242,-0.61232) ==
 == 63-th k-point nmo = 114 (-0.17495,-0.34990,0.00000) ==
 == 64-th k-point nmo = 114 (-0.08747,-0.26242,-0.08747) ==
 == 65-th k-point nmo = 115 (-0.00000,-0.17495,-0.17495) ==
 == 66-th k-point nmo = 114 (0.08747,-0.08747,-0.26242) ==
 == 67-th k-point nmo = 114 (0.17495,-0.00000,-0.34990) ==
 == 68-th k-point nmo = 114 (0.26242,0.08747,-0.43737) ==
 == 69-th k-point nmo = 114 (0.34990,0.17495,-0.52485) ==
 == 70-th k-point nmo = 114 (-0.08747,-0.43737,0.08747) ==
 == 71-th k-point nmo = 114 (-0.00000,-0.34990,0.00000) ==
 == 72-th k-point nmo = 114 (0.08747,-0.26242,-0.08747) ==
 == 73-th k-point nmo = 114 (0.17495,-0.17495,-0.17495) ==
 == 74-th k-point nmo = 114 (0.26242,-0.08747,-0.26242) ==
 == 75-th k-point nmo = 114 (0.34990,0.00000,-0.34990) ==
 == 76-th k-point nmo = 114 (0.43737,0.08747,-0.43737) ==
 == 77-th k-point nmo = 114 (-0.00000,-0.52485,0.17495) ==
 == 78-th k-point nmo = 114 (0.08747,-0.43737,0.08747) ==
 == 79-th k-point nmo = 114 (0.17495,-0.34990,0.00000) ==
 == 80-th k-point nmo = 114 (0.26242,-0.26242,-0.08747) ==
 == 81-th k-point nmo = 114 (0.34990,-0.17495,-0.17495) ==
 == 82-th k-point nmo = 114 (0.43737,-0.08747,-0.26242) ==
 == 83-th k-point nmo = 114 (0.52485,0.00000,-0.34990) ==
 == 84-th k-point nmo = 114 (0.08747,-0.61232,0.26242) ==
 == 85-th k-point nmo = 114 (0.17495,-0.52485,0.17495) ==
 == 86-th k-point nmo = 114 (0.26242,-0.43737,0.08747) ==
 == 87-th k-point nmo = 114 (0.34990,-0.34990,0.00000) ==
 == 88-th k-point nmo = 114 (0.43737,-0.26242,-0.08747) ==
 == 89-th k-point nmo = 114 (0.52485,-0.17495,-0.17495) ==
 == 90-th k-point nmo = 114 (0.61232,-0.08747,-0.26242) ==
 == 91-th k-point nmo = 114 (0.17495,-0.69980,0.34990) ==
 == 92-th k-point nmo = 114 (0.26242,-0.61232,0.26242) ==
 == 93-th k-point nmo = 114 (0.34990,-0.52485,0.17495) ==
 == 94-th k-point nmo = 114 (0.43737,-0.43737,0.08747) ==
 == 95-th k-point nmo = 114 (0.52485,-0.34990,0.00000) ==
 == 96-th k-point nmo = 114 (0.61232,-0.26242,-0.08747) ==
 == 97-th k-point nmo = 114 (0.69980,-0.17495,-0.17495) ==
 == 98-th k-point nmo = 114 (-0.43737,-0.08747,-0.08747) ==
 == 99-th k-point nmo = 114 (-0.34990,-0.00000,-0.17495) ==
 == 100-th k-point nmo = 114 (-0.26242,0.08747,-0.26242) ==
 == 101-th k-point nmo = 114 (-0.17495,0.17495,-0.34990) ==
 == 102-th k-point nmo = 114 (-0.08747,0.26242,-0.43737) ==
 == 103-th k-point nmo = 114 (-0.00000,0.34990,-0.52485) ==
 == 104-th k-point nmo = 114 (0.08747,0.43737,-0.61232) ==
 == 105-th k-point nmo = 114 (-0.34990,-0.17495,0.00000) ==
 == 106-th k-point nmo = 114 (-0.26242,-0.08747,-0.08747) ==
 == 107-th k-point nmo = 115 (-0.17495,-0.00000,-0.17495) ==
 == 108-th k-point nmo = 114 (-0.08747,0.08747,-0.26242) ==
 == 109-th k-point nmo = 114 (-0.00000,0.17495,-0.34990) ==
 == 110-th k-point nmo = 114 (0.08747,0.26242,-0.43737) ==
 == 111-th k-point nmo = 114 (0.17495,0.34990,-0.52485) ==
 == 112-th k-point nmo = 114 (-0.26242,-0.26242,0.08747) ==
 == 113-th k-point nmo = 115 (-0.17495,-0.17495,0.00000) ==
 == 114-th k-point nmo = 115 (-0.08747,-0.08747,-0.08747) ==
 == 115-th k-point nmo = 115 (-0.00000,-0.00000,-0.17495) ==
 == 116-th k-point nmo = 114 (0.08747,0.08747,-0.26242) ==
 == 117-th k-point nmo = 114 (0.17495,0.17495,-0.34990) ==
 == 118-th k-point nmo = 114 (0.26242,0.26242,-0.43737) ==
 == 119-th k-point nmo = 114 (-0.17495,-0.34990,0.17495) ==
 == 120-th k-point nmo = 114 (-0.08747,-0.26242,0.08747) ==
 == 121-th k-point nmo = 115 (-0.00000,-0.17495,0.00000) ==
 == 122-th k-point nmo = 115 (0.08747,-0.08747,-0.08747) ==
 == 123-th k-point nmo = 115 (0.17495,0.00000,-0.17495) ==
 == 124-th k-point nmo = 114 (0.26242,0.08747,-0.26242) ==
 == 125-th k-point nmo = 114 (0.34990,0.17495,-0.34990) ==
 == 126-th k-point nmo = 114 (-0.08747,-0.43737,0.26242) ==
 == 127-th k-point nmo = 114 (-0.00000,-0.34990,0.17495) ==
 == 128-th k-point nmo = 114 (0.08747,-0.26242,0.08747) ==
 == 129-th k-point nmo = 115 (0.17495,-0.17495,0.00000) ==
 == 130-th k-point nmo = 114 (0.26242,-0.08747,-0.08747) ==
 == 131-th k-point nmo = 114 (0.34990,0.00000,-0.17495) ==
 == 132-th k-point nmo = 114 (0.43737,0.08747,-0.26242) ==
 == 133-th k-point nmo = 114 (-0.00000,-0.52485,0.34990) ==
 == 134-th k-point nmo = 114 (0.08747,-0.43737,0.26242) ==
 == 135-th k-point nmo = 114 (0.17495,-0.34990,0.17495) ==
 == 136-th k-point nmo = 114 (0.26242,-0.26242,0.08747) ==
 == 137-th k-point nmo = 114 (0.34990,-0.17495,0.00000) ==
 == 138-th k-point nmo = 114 (0.43737,-0.08747,-0.08747) ==
 == 139-th k-point nmo = 114 (0.52485,0.00000,-0.17495) ==
 == 140-th k-point nmo = 114 (0.08747,-0.61232,0.43737) ==
 == 141-th k-point nmo = 114 (0.17495,-0.52485,0.34990) ==
 == 142-th k-point nmo = 114 (0.26242,-0.43737,0.26242) ==
 == 143-th k-point nmo = 114 (0.34990,-0.34990,0.17495) ==
 == 144-th k-point nmo = 114 (0.43737,-0.26242,0.08747) ==
 == 145-th k-point nmo = 114 (0.52485,-0.17495,0.00000) ==
 == 146-th k-point nmo = 114 (0.61232,-0.08747,-0.08747) ==
 == 147-th k-point nmo = 114 (-0.52485,-0.00000,-0.00000) ==
 == 148-th k-point nmo = 114 (-0.43737,0.08747,-0.08747) ==
 == 149-th k-point nmo = 114 (-0.34990,0.17495,-0.17495) ==
 == 150-th k-point nmo = 114 (-0.26242,0.26242,-0.26242) ==
 == 151-th k-point nmo = 114 (-0.17495,0.34990,-0.34990) ==
 == 152-th k-point nmo = 114 (-0.08747,0.43737,-0.43737) ==
 == 153-th k-point nmo = 114 (0.00000,0.52485,-0.52485) ==
 == 154-th k-point nmo = 114 (-0.43737,-0.08747,0.08747) ==
 == 155-th k-point nmo = 114 (-0.34990,-0.00000,-0.00000) ==
 == 156-th k-point nmo = 114 (-0.26242,0.08747,-0.08747) ==
 == 157-th k-point nmo = 114 (-0.17495,0.17495,-0.17495) ==
 == 158-th k-point nmo = 114 (-0.08747,0.26242,-0.26242) ==
 == 159-th k-point nmo = 114 (0.00000,0.34990,-0.34990) ==
 == 160-th k-point nmo = 114 (0.08747,0.43737,-0.43737) ==
 == 161-th k-point nmo = 114 (-0.34990,-0.17495,0.17495) ==
 == 162-th k-point nmo = 114 (-0.26242,-0.08747,0.08747) ==
 == 163-th k-point nmo = 115 (-0.17495,-0.00000,-0.00000) ==
 == 164-th k-point nmo = 115 (-0.08747,0.08747,-0.08747) ==
 == 165-th k-point nmo = 115 (0.00000,0.17495,-0.17495) ==
 == 166-th k-point nmo = 114 (0.08747,0.26242,-0.26242) ==
 == 167-th k-point nmo = 114 (0.17495,0.34990,-0.34990) ==
 == 168-th k-point nmo = 114 (-0.26242,-0.26242,0.26242) ==
 == 169-th k-point nmo = 114 (-0.17495,-0.17495,0.17495) ==
 == 170-th k-point nmo = 115 (-0.08747,-0.08747,0.08747) ==
 == 171-th k-point nmo = 115 (0.00000,0.00000,0.00000) ==
 == 172-th k-point nmo = 115 (0.08747,0.08747,-0.08747) ==
 == 173-th k-point nmo = 114 (0.17495,0.17495,-0.17495) ==
 == 174-th k-point nmo = 114 (0.26242,0.26242,-0.26242) ==
 == 175-th k-point nmo = 114 (-0.17495,-0.34990,0.34990) ==
 == 176-th k-point nmo = 114 (-0.08747,-0.26242,0.26242) ==
 == 177-th k-point nmo = 115 (-0.00000,-0.17495,0.17495) ==
 == 178-th k-point nmo = 115 (0.08747,-0.08747,0.08747) ==
 == 179-th k-point nmo = 115 (0.17495,0.00000,0.00000) ==
 == 180-th k-point nmo = 114 (0.26242,0.08747,-0.08747) ==
 == 181-th k-point nmo = 114 (0.34990,0.17495,-0.17495) ==
 == 182-th k-point nmo = 114 (-0.08747,-0.43737,0.43737) ==
 == 183-th k-point nmo = 114 (-0.00000,-0.34990,0.34990) ==
 == 184-th k-point nmo = 114 (0.08747,-0.26242,0.26242) ==
 == 185-th k-point nmo = 114 (0.17495,-0.17495,0.17495) ==
 == 186-th k-point nmo = 114 (0.26242,-0.08747,0.08747) ==
 == 187-th k-point nmo = 114 (0.34990,0.00000,0.00000) ==
 == 188-th k-point nmo = 114 (0.43737,0.08747,-0.08747) ==
 == 189-th k-point nmo = 114 (-0.00000,-0.52485,0.52485) ==
 == 190-th k-point nmo = 114 (0.08747,-0.43737,0.43737) ==
 == 191-th k-point nmo = 114 (0.17495,-0.34990,0.34990) ==
 == 192-th k-point nmo = 114 (0.26242,-0.26242,0.26242) ==
 == 193-th k-point nmo = 114 (0.34990,-0.17495,0.17495) ==
 == 194-th k-point nmo = 114 (0.43737,-0.08747,0.08747) ==
 == 195-th k-point nmo = 114 (0.52485,0.00000,0.00000) ==
 == 196-th k-point nmo = 114 (-0.61232,0.08747,0.08747) ==
 == 197-th k-point nmo = 114 (-0.52485,0.17495,-0.00000) ==
 == 198-th k-point nmo = 114 (-0.43737,0.26242,-0.08747) ==
 == 199-th k-point nmo = 114 (-0.34990,0.34990,-0.17495) ==
 == 200-th k-point nmo = 114 (-0.26242,0.43737,-0.26242) ==
 == 201-th k-point nmo = 114 (-0.17495,0.52485,-0.34990) ==
 == 202-th k-point nmo = 114 (-0.08747,0.61232,-0.43737) ==
 == 203-th k-point nmo = 114 (-0.52485,-0.00000,0.17495) ==
 == 204-th k-point nmo = 114 (-0.43737,0.08747,0.08747) ==
 == 205-th k-point nmo = 114 (-0.34990,0.17495,-0.00000) ==
 == 206-th k-point nmo = 114 (-0.26242,0.26242,-0.08747) ==
 == 207-th k-point nmo = 114 (-0.17495,0.34990,-0.17495) ==
 == 208-th k-point nmo = 114 (-0.08747,0.43737,-0.26242) ==
 == 209-th k-point nmo = 114 (0.00000,0.52485,-0.34990) ==
 == 210-th k-point nmo = 114 (-0.43737,-0.08747,0.26242) ==
 == 211-th k-point nmo = 114 (-0.34990,-0.00000,0.17495) ==
 == 212-th k-point nmo = 114 (-0.26242,0.08747,0.08747) ==
 == 213-th k-point nmo = 115 (-0.17495,0.17495,-0.00000) ==
 == 214-th k-point nmo = 114 (-0.08747,0.26242,-0.08747) ==
 == 215-th k-point nmo = 114 (0.00000,0.34990,-0.17495) ==
 == 216-th k-point nmo = 114 (0.08747,0.43737,-0.26242) ==
 == 217-th k-point nmo = 114 (-0.34990,-0.17495,0.34990) ==
 == 218-th k-point nmo = 114 (-0.26242,-0.08747,0.26242) ==
 == 219-th k-point nmo = 115 (-0.17495,0.00000,0.17495) ==
 == 220-th k-point nmo = 115 (-0.08747,0.08747,0.08747) ==
 == 221-th k-point nmo = 115 (0.00000,0.17495,0.00000) ==
 == 222-th k-point nmo = 114 (0.08747,0.26242,-0.08747) ==
 == 223-th k-point nmo = 114 (0.17495,0.34990,-0.17495) ==
 == 224-th k-point nmo = 114 (-0.26242,-0.26242,0.43737) ==
 == 225-th k-point nmo = 114 (-0.17495,-0.17495,0.34990) ==
 == 226-th k-point nmo = 114 (-0.08747,-0.08747,0.26242) ==
 == 227-th k-point nmo = 115 (0.00000,0.00000,0.17495) ==
 == 228-th k-point nmo = 115 (0.08747,0.08747,0.08747) ==
 == 229-th k-point nmo = 115 (0.17495,0.17495,0.00000) ==
 == 230-th k-point nmo = 114 (0.26242,0.26242,-0.08747) ==
 == 231-th k-point nmo = 114 (-0.17495,-0.34990,0.52485) ==
 == 232-th k-point nmo = 114 (-0.08747,-0.26242,0.43737) ==
 == 233-th k-point nmo = 114 (0.00000,-0.17495,0.34990) ==
 == 234-th k-point nmo = 114 (0.08747,-0.08747,0.26242) ==
 == 235-th k-point nmo = 115 (0.17495,0.00000,0.17495) ==
 == 236-th k-point nmo = 114 (0.26242,0.08747,0.08747) ==
 == 237-th k-point nmo = 114 (0.34990,0.17495,0.00000) ==
 == 238-th k-point nmo = 114 (-0.08747,-0.43737,0.61232) ==
 == 239-th k-point nmo = 114 (0.00000,-0.34990,0.52485) ==
 == 240-th k-point nmo = 114 (0.08747,-0.26242,0.43737) ==
 == 241-th k-point nmo = 114 (0.17495,-0.17495,0.34990) ==
 == 242-th k-point nmo = 114 (0.26242,-0.08747,0.26242) ==
 == 243-th k-point nmo = 114 (0.34990,0.00000,0.17495) ==
 == 244-th k-point nmo = 114 (0.43737,0.08747,0.08747) ==
 == 245-th k-point nmo = 114 (-0.69980,0.17495,0.17495) ==
 == 246-th k-point nmo = 114 (-0.61232,0.26242,0.08747) ==
 == 247-th k-point nmo = 114 (-0.52485,0.34990,-0.00000) ==
 == 248-th k-point nmo = 114 (-0.43737,0.43737,-0.08747) ==
 == 249-th k-point nmo = 114 (-0.34990,0.52485,-0.17495) ==
 == 250-th k-point nmo = 114 (-0.26242,0.61232,-0.26242) ==
 == 251-th k-point nmo = 114 (-0.17495,0.69980,-0.34990) ==
 == 252-th k-point nmo = 114 (-0.61232,0.08747,0.26242) ==
 == 253-th k-point nmo = 114 (-0.52485,0.17495,0.17495) ==
 == 254-th k-point nmo = 114 (-0.43737,0.26242,0.08747) ==
 == 255-th k-point nmo = 114 (-0.34990,0.34990,-0.00000) ==
 == 256-th k-point nmo = 114 (-0.26242,0.43737,-0.08747) ==
 == 257-th k-point nmo = 114 (-0.17495,0.52485,-0.17495) ==
 == 258-th k-point nmo = 114 (-0.08747,0.61232,-0.26242) ==
 == 259-th k-point nmo = 114 (-0.52485,-0.00000,0.34990) ==
 == 260-th k-point nmo = 114 (-0.43737,0.08747,0.26242) ==
 == 261-th k-point nmo = 114 (-0.34990,0.17495,0.17495) ==
 == 262-th k-point nmo = 114 (-0.26242,0.26242,0.08747) ==
 == 263-th k-point nmo = 114 (-0.17495,0.34990,-0.00000) ==
 == 264-th k-point nmo = 114 (-0.08747,0.43737,-0.08747) ==
 == 265-th k-point nmo = 114 (0.00000,0.52485,-0.17495) ==
 == 266-th k-point nmo = 114 (-0.43737,-0.08747,0.43737) ==
 == 267-th k-point nmo = 114 (-0.34990,0.00000,0.34990) ==
 == 268-th k-point nmo = 114 (-0.26242,0.08747,0.26242) ==
 == 269-th k-point nmo = 114 (-0.17495,0.17495,0.17495) ==
 == 270-th k-point nmo = 114 (-0.08747,0.26242,0.08747) ==
 == 271-th k-point nmo = 114 (0.00000,0.34990,0.00000) ==
 == 272-th k-point nmo = 114 (0.08747,0.43737,-0.08747) ==
 == 273-th k-point nmo = 114 (-0.34990,-0.17495,0.52485) ==
 == 274-th k-point nmo = 114 (-0.26242,-0.08747,0.43737) ==
 == 275-th k-point nmo = 114 (-0.17495,0.00000,0.34990) ==
 == 276-th k-point nmo = 114 (-0.08747,0.08747,0.26242) ==
 == 277-th k-point nmo = 115 (0.00000,0.17495,0.17495) ==
 == 278-th k-point nmo = 114 (0.08747,0.26242,0.08747) ==
 == 279-th k-point nmo = 114 (0.17495,0.34990,0.00000) ==
 == 280-th k-point nmo = 114 (-0.26242,-0.26242,0.61232) ==
 == 281-th k-point nmo = 114 (-0.17495,-0.17495,0.52485) ==
 == 282-th k-point nmo = 114 (-0.08747,-0.08747,0.43737) ==
 == 283-th k-point nmo = 114 (0.00000,0.00000,0.34990) ==
 == 284-th k-point nmo = 114 (0.08747,0.08747,0.26242) ==
 == 285-th k-point nmo = 114 (0.17495,0.17495,0.17495) ==
 == 286-th k-point nmo = 114 (0.26242,0.26242,0.08747) ==
 == 287-th k-point nmo = 114 (-0.17495,-0.34990,0.69980) ==
 == 288-th k-point nmo = 114 (-0.08747,-0.26242,0.61232) ==
 == 289-th k-point nmo = 114 (0.00000,-0.17495,0.52485) ==
 == 290-th k-point nmo = 114 (0.08747,-0.08747,0.43737) ==
 == 291-th k-point nmo = 114 (0.17495,0.00000,0.34990) ==
 == 292-th k-point nmo = 114 (0.26242,0.08747,0.26242) ==
 == 293-th k-point nmo = 114 (0.34990,0.17495,0.17495) ==
 == 294-th k-point nmo = 114 (-0.78727,0.26242,0.26242) ==
 == 295-th k-point nmo = 114 (-0.69980,0.34990,0.17495) ==
 == 296-th k-point nmo = 114 (-0.61232,0.43737,0.08747) ==
 == 297-th k-point nmo = 114 (-0.52485,0.52485,-0.00000) ==
 == 298-th k-point nmo = 114 (-0.43737,0.61232,-0.08747) ==
 == 299-th k-point nmo = 114 (-0.34990,0.69980,-0.17495) ==
 == 300-th k-point nmo = 114 (-0.26242,0.78727,-0.26242) ==
 == 301-th k-point nmo = 114 (-0.69980,0.17495,0.34990) ==
 == 302-th k-point nmo = 114 (-0.61232,0.26242,0.26242) ==
 == 303-th k-point nmo = 114 (-0.52485,0.34990,0.17495) ==
 == 304-th k-point nmo = 114 (-0.43737,0.43737,0.08747) ==
 == 305-th k-point nmo = 114 (-0.34990,0.52485,-0.00000) ==
 == 306-th k-point nmo = 114 (-0.26242,0.61232,-0.08747) ==
 == 307-th k-point nmo = 114 (-0.17495,0.69980,-0.17495) ==
 == 308-th k-point nmo = 114 (-0.61232,0.08747,0.43737) ==
 == 309-th k-point nmo = 114 (-0.52485,0.17495,0.34990) ==
 == 310-th k-point nmo = 114 (-0.43737,0.26242,0.26242) ==
 == 311-th k-point nmo = 114 (-0.34990,0.34990,0.17495) ==
 == 312-th k-point nmo = 114 (-0.26242,0.43737,0.08747) ==
 == 313-th k-point nmo = 114 (-0.17495,0.52485,0.00000) ==
 == 314-th k-point nmo = 114 (-0.08747,0.61232,-0.08747) ==
 == 315-th k-point nmo = 114 (-0.52485,0.00000,0.52485) ==
 == 316-th k-point nmo = 114 (-0.43737,0.08747,0.43737) ==
 == 317-th k-point nmo = 114 (-0.34990,0.17495,0.34990) ==
 == 318-th k-point nmo = 114 (-0.26242,0.26242,0.26242) ==
 == 319-th k-point nmo = 114 (-0.17495,0.34990,0.17495) ==
 == 320-th k-point nmo = 114 (-0.08747,0.43737,0.08747) ==
 == 321-th k-point nmo = 114 (0.00000,0.52485,0.00000) ==
 == 322-th k-point nmo = 114 (-0.43737,-0.08747,0.61232) ==
 == 323-th k-point nmo = 114 (-0.34990,0.00000,0.52485) ==
 == 324-th k-point nmo = 114 (-0.26242,0.08747,0.43737) ==
 == 325-th k-point nmo = 114 (-0.17495,0.17495,0.34990) ==
 == 326-th k-point nmo = 114 (-0.08747,0.26242,0.26242) ==
 == 327-th k-point nmo = 114 (0.00000,0.34990,0.17495) ==
 == 328-th k-point nmo = 114 (0.08747,0.43737,0.08747) ==
 == 329-th k-point nmo = 114 (-0.34990,-0.17495,0.69980) ==
 == 330-th k-point nmo = 114 (-0.26242,-0.08747,0.61232) ==
 == 331-th k-point nmo = 114 (-0.17495,0.00000,0.52485) ==
 == 332-th k-point nmo = 114 (-0.08747,0.08747,0.43737) ==
 == 333-th k-point nmo = 114 (0.00000,0.17495,0.34990) ==
 == 334-th k-point nmo = 114 (0.08747,0.26242,0.26242) ==
 == 335-th k-point nmo = 114 (0.17495,0.34990,0.17495) ==
 == 336-th k-point nmo = 114 (-0.26242,-0.26242,0.78727) ==
 == 337-th k-point nmo = 114 (-0.17495,-0.17495,0.69980) ==
 == 338-th k-point nmo = 114 (-0.08747,-0.08747,0.61232) ==
 == 339-th k-point nmo = 114 (0.00000,0.00000,0.52485) ==
 == 340-th k-point nmo = 114 (0.08747,0.08747,0.43737) ==
 == 341-th k-point nmo = 114 (0.17495,0.17495,0.34990) ==
 == 342-th k-point nmo = 114 (0.26242,0.26242,0.26242) ==

 Generate autoSAD guess
backing up fragment data
Atom # 0: si, charge: 0, multiplicity: 3.000000
writing autosad to fragment context
Settings for isolated fragments: 
  frgm_gamma: TRUE
  frgm_center: FALSE

    Running SCF for isolated atom #0
    Fragment Input file: /n/netscratch/joonholee_lab/Lab/hieudinh//si_2_ccpvqz_omega_0.3_777.scratch20250909032133/autosad_frgmt_0/frgmt_input.in
    Fragment Output file: /n/netscratch/joonholee_lab/Lab/hieudinh//si_2_ccpvqz_omega_0.3_777.scratch20250909032133/autosad_frgmt_0/frgmt_job.out
    Fragment job begins at Tue Sep  9 03:21:42 2025

 Integrated density by DFT XC:
   Numerical integral  =    13.999999643759
   Relative error      =     0.0000025446 %
Final energy components:
 DFT Correlation            Energy =  -0.48370207231611
 DFT Exchange               Energy = -20.13940840112215
 Kinetic (alpha)            Energy = 145.05483363964771
 Kinetic (beta)             Energy = 143.11842945473285
 Nuclear Attraction (alpha) Energy = -351.06191315317903
 Nuclear Attraction (beta)  Energy = -337.54515075030434
 Nuclear Repulsion          Energy =   0.00000000000000
 SEOQF                      Energy =  -0.00000000010144
 Total Coulomb              Energy = 131.82731983024453
----------------------------------------------
    SCF Energy: -289.2295914524
   Total fragment job time:  0.52 s.
restoring fragment data

 ------------------------------------------------------------------------
 Allocate 238016144 B from available memory: 1048499319840 B
 Time for generating SCF guess: 0.61 s

 Allocate 97424 B from available memory: 1048261303712 B
 Selected algorithms for each term:
  kpts_kinetic -> @0x15269a762680
  kpts_nn -> @0x15269a762800
  kpts_rij_bigmem -> @0x15269a7623e0
  kpts_vnuc_df -> @0x15269a762380
  kpts_xc -> @0x15269a7622c0
 Time for computing kinetic matrix is 3.92 s
Start calculating Vnuc CC type!
 Time for computing nuclear attraction matrix is 5.99 s
Compute (P|Q) and use solve on the fly!
Maximum distance between P and Q is 36.52149537122924
Number of images for (P|Qn) is 1633
 Time for computing 2e2c SR integral is 0.25 s
Maximum dynamic memory per thread for 2e3c SR integrals: 0.210 GiB
Batch size for basis function pair is 7291 out of 7291
 === bvk cell = 0 has 100.000 % of the basis function pairs === 
 === bvk cell = 1 has 93.430 % of the basis function pairs === 
 === bvk cell = 2 has 44.644 % of the basis function pairs === 
 === bvk cell = 3 has 10.849 % of the basis function pairs === 
 === bvk cell = 4 has 9.244 % of the basis function pairs === 
 === bvk cell = 5 has 39.240 % of the basis function pairs === 
 === bvk cell = 6 has 90.111 % of the basis function pairs === 
 === bvk cell = 7 has 93.430 % of the basis function pairs === 
 === bvk cell = 8 has 60.458 % of the basis function pairs === 
 === bvk cell = 9 has 19.750 % of the basis function pairs === 
 === bvk cell = 10 has 4.526 % of the basis function pairs === 
 === bvk cell = 11 has 16.157 % of the basis function pairs === 
 === bvk cell = 12 has 51.543 % of the basis function pairs === 
 === bvk cell = 13 has 96.914 % of the basis function pairs === 
 === bvk cell = 14 has 44.644 % of the basis function pairs === 
 === bvk cell = 15 has 19.750 % of the basis function pairs === 
 === bvk cell = 16 has 4.855 % of the basis function pairs === 
 === bvk cell = 17 has 2.208 % of the basis function pairs === 
 === bvk cell = 18 has 14.923 % of the basis function pairs === 
 === bvk cell = 19 has 39.226 % of the basis function pairs === 
 === bvk cell = 20 has 54.629 % of the basis function pairs === 
 === bvk cell = 21 has 10.849 % of the basis function pairs === 
 === bvk cell = 22 has 4.526 % of the basis function pairs === 
 === bvk cell = 23 has 2.208 % of the basis function pairs === 
 === bvk cell = 24 has 0.782 % of the basis function pairs === 
 === bvk cell = 25 has 10.890 % of the basis function pairs === 
 === bvk cell = 26 has 15.403 % of the basis function pairs === 
 === bvk cell = 27 has 17.432 % of the basis function pairs === 
 === bvk cell = 28 has 9.244 % of the basis function pairs === 
 === bvk cell = 29 has 16.157 % of the basis function pairs === 
 === bvk cell = 30 has 14.923 % of the basis function pairs === 
 === bvk cell = 31 has 10.890 % of the basis function pairs === 
 === bvk cell = 32 has 0.782 % of the basis function pairs === 
 === bvk cell = 33 has 2.729 % of the basis function pairs === 
 === bvk cell = 34 has 4.032 % of the basis function pairs === 
 === bvk cell = 35 has 39.240 % of the basis function pairs === 
 === bvk cell = 36 has 51.543 % of the basis function pairs === 
 === bvk cell = 37 has 39.226 % of the basis function pairs === 
 === bvk cell = 38 has 15.403 % of the basis function pairs === 
 === bvk cell = 39 has 2.729 % of the basis function pairs === 
 === bvk cell = 40 has 3.717 % of the basis function pairs === 
 === bvk cell = 41 has 16.349 % of the basis function pairs === 
 === bvk cell = 42 has 90.111 % of the basis function pairs === 
 === bvk cell = 43 has 96.914 % of the basis function pairs === 
 === bvk cell = 44 has 54.629 % of the basis function pairs === 
 === bvk cell = 45 has 17.432 % of the basis function pairs === 
 === bvk cell = 46 has 4.032 % of the basis function pairs === 
 === bvk cell = 47 has 16.349 % of the basis function pairs === 
 === bvk cell = 48 has 53.038 % of the basis function pairs === 
 === bvk cell = 49 has 93.430 % of the basis function pairs === 
 === bvk cell = 50 has 60.458 % of the basis function pairs === 
 === bvk cell = 51 has 19.750 % of the basis function pairs === 
 === bvk cell = 52 has 4.526 % of the basis function pairs === 
 === bvk cell = 53 has 16.157 % of the basis function pairs === 
 === bvk cell = 54 has 51.543 % of the basis function pairs === 
 === bvk cell = 55 has 96.914 % of the basis function pairs === 
 === bvk cell = 56 has 60.458 % of the basis function pairs === 
 === bvk cell = 57 has 27.212 % of the basis function pairs === 
 === bvk cell = 58 has 5.651 % of the basis function pairs === 
 === bvk cell = 59 has 3.497 % of the basis function pairs === 
 === bvk cell = 60 has 19.051 % of the basis function pairs === 
 === bvk cell = 61 has 52.462 % of the basis function pairs === 
 === bvk cell = 62 has 79.756 % of the basis function pairs === 
 === bvk cell = 63 has 19.750 % of the basis function pairs === 
 === bvk cell = 64 has 5.651 % of the basis function pairs === 
 === bvk cell = 65 has 0.672 % of the basis function pairs === 
 === bvk cell = 66 has 2.551 % of the basis function pairs === 
 === bvk cell = 67 has 15.019 % of the basis function pairs === 
 === bvk cell = 68 has 28.940 % of the basis function pairs === 
 === bvk cell = 69 has 32.972 % of the basis function pairs === 
 === bvk cell = 70 has 4.526 % of the basis function pairs === 
 === bvk cell = 71 has 3.497 % of the basis function pairs === 
 === bvk cell = 72 has 2.551 % of the basis function pairs === 
 === bvk cell = 73 has 0.576 % of the basis function pairs === 
 === bvk cell = 74 has 8.723 % of the basis function pairs === 
 === bvk cell = 75 has 10.300 % of the basis function pairs === 
 === bvk cell = 76 has 9.546 % of the basis function pairs === 
 === bvk cell = 77 has 16.157 % of the basis function pairs === 
 === bvk cell = 78 has 19.051 % of the basis function pairs === 
 === bvk cell = 79 has 15.019 % of the basis function pairs === 
 === bvk cell = 80 has 8.723 % of the basis function pairs === 
 === bvk cell = 81 has 0.507 % of the basis function pairs === 
 === bvk cell = 82 has 1.070 % of the basis function pairs === 
 === bvk cell = 83 has 8.078 % of the basis function pairs === 
 === bvk cell = 84 has 51.543 % of the basis function pairs === 
 === bvk cell = 85 has 52.462 % of the basis function pairs === 
 === bvk cell = 86 has 28.940 % of the basis function pairs === 
 === bvk cell = 87 has 10.300 % of the basis function pairs === 
 === bvk cell = 88 has 1.070 % of the basis function pairs === 
 === bvk cell = 89 has 9.244 % of the basis function pairs === 
 === bvk cell = 90 has 28.254 % of the basis function pairs === 
 === bvk cell = 91 has 96.914 % of the basis function pairs === 
 === bvk cell = 92 has 79.756 % of the basis function pairs === 
 === bvk cell = 93 has 32.972 % of the basis function pairs === 
 === bvk cell = 94 has 9.546 % of the basis function pairs === 
 === bvk cell = 95 has 8.078 % of the basis function pairs === 
 === bvk cell = 96 has 28.254 % of the basis function pairs === 
 === bvk cell = 97 has 76.231 % of the basis function pairs === 
 === bvk cell = 98 has 44.644 % of the basis function pairs === 
 === bvk cell = 99 has 19.750 % of the basis function pairs === 
 === bvk cell = 100 has 4.855 % of the basis function pairs === 
 === bvk cell = 101 has 2.208 % of the basis function pairs === 
 === bvk cell = 102 has 14.923 % of the basis function pairs === 
 === bvk cell = 103 has 39.226 % of the basis function pairs === 
 === bvk cell = 104 has 54.629 % of the basis function pairs === 
 === bvk cell = 105 has 19.750 % of the basis function pairs === 
 === bvk cell = 106 has 5.651 % of the basis function pairs === 
 === bvk cell = 107 has 0.672 % of the basis function pairs === 
 === bvk cell = 108 has 2.551 % of the basis function pairs === 
 === bvk cell = 109 has 15.019 % of the basis function pairs === 
 === bvk cell = 110 has 28.940 % of the basis function pairs === 
 === bvk cell = 111 has 32.972 % of the basis function pairs === 
 === bvk cell = 112 has 4.855 % of the basis function pairs === 
 === bvk cell = 113 has 0.672 % of the basis function pairs === 
 === bvk cell = 114 has 0.247 % of the basis function pairs === 
 === bvk cell = 115 has 1.728 % of the basis function pairs === 
 === bvk cell = 116 has 10.259 % of the basis function pairs === 
 === bvk cell = 117 has 13.043 % of the basis function pairs === 
 === bvk cell = 118 has 10.849 % of the basis function pairs === 
 === bvk cell = 119 has 2.208 % of the basis function pairs === 
 === bvk cell = 120 has 2.551 % of the basis function pairs === 
 === bvk cell = 121 has 1.728 % of the basis function pairs === 
 === bvk cell = 122 has 0.507 % of the basis function pairs === 
 === bvk cell = 123 has 1.138 % of the basis function pairs === 
 === bvk cell = 124 has 1.948 % of the basis function pairs === 
 === bvk cell = 125 has 1.317 % of the basis function pairs === 
 === bvk cell = 126 has 14.923 % of the basis function pairs === 
 === bvk cell = 127 has 15.019 % of the basis function pairs === 
 === bvk cell = 128 has 10.259 % of the basis function pairs === 
 === bvk cell = 129 has 1.138 % of the basis function pairs === 
 === bvk cell = 130 has 0.165 % of the basis function pairs === 
 === bvk cell = 131 has 1.413 % of the basis function pairs === 
 === bvk cell = 132 has 9.080 % of the basis function pairs === 
 === bvk cell = 133 has 39.226 % of the basis function pairs === 
 === bvk cell = 134 has 28.940 % of the basis function pairs === 
 === bvk cell = 135 has 13.043 % of the basis function pairs === 
 === bvk cell = 136 has 1.948 % of the basis function pairs === 
 === bvk cell = 137 has 1.413 % of the basis function pairs === 
 === bvk cell = 138 has 11.960 % of the basis function pairs === 
 === bvk cell = 139 has 26.622 % of the basis function pairs === 
 === bvk cell = 140 has 54.629 % of the basis function pairs === 
 === bvk cell = 141 has 32.972 % of the basis function pairs === 
 === bvk cell = 142 has 10.849 % of the basis function pairs === 
 === bvk cell = 143 has 1.317 % of the basis function pairs === 
 === bvk cell = 144 has 9.080 % of the basis function pairs === 
 === bvk cell = 145 has 26.622 % of the basis function pairs === 
 === bvk cell = 146 has 52.462 % of the basis function pairs === 
 === bvk cell = 147 has 10.849 % of the basis function pairs === 
 === bvk cell = 148 has 4.526 % of the basis function pairs === 
 === bvk cell = 149 has 2.208 % of the basis function pairs === 
 === bvk cell = 150 has 0.782 % of the basis function pairs === 
 === bvk cell = 151 has 10.890 % of the basis function pairs === 
 === bvk cell = 152 has 15.403 % of the basis function pairs === 
 === bvk cell = 153 has 17.432 % of the basis function pairs === 
 === bvk cell = 154 has 4.526 % of the basis function pairs === 
 === bvk cell = 155 has 3.497 % of the basis function pairs === 
 === bvk cell = 156 has 2.551 % of the basis function pairs === 
 === bvk cell = 157 has 0.576 % of the basis function pairs === 
 === bvk cell = 158 has 8.723 % of the basis function pairs === 
 === bvk cell = 159 has 10.300 % of the basis function pairs === 
 === bvk cell = 160 has 9.546 % of the basis function pairs === 
 === bvk cell = 161 has 2.208 % of the basis function pairs === 
 === bvk cell = 162 has 2.551 % of the basis function pairs === 
 === bvk cell = 163 has 1.728 % of the basis function pairs === 
 === bvk cell = 164 has 0.507 % of the basis function pairs === 
 === bvk cell = 165 has 1.138 % of the basis function pairs === 
 === bvk cell = 166 has 1.948 % of the basis function pairs === 
 === bvk cell = 167 has 1.317 % of the basis function pairs === 
 === bvk cell = 168 has 0.782 % of the basis function pairs === 
 === bvk cell = 169 has 0.576 % of the basis function pairs === 
 === bvk cell = 170 has 0.507 % of the basis function pairs === 
 === bvk cell = 171 has 0.000 % of the basis function pairs === 
 === bvk cell = 172 has 0.165 % of the basis function pairs === 
 === bvk cell = 173 has 0.165 % of the basis function pairs === 
 === bvk cell = 174 has 0.370 % of the basis function pairs === 
 === bvk cell = 175 has 10.890 % of the basis function pairs === 
 === bvk cell = 176 has 8.723 % of the basis function pairs === 
 === bvk cell = 177 has 1.138 % of the basis function pairs === 
 === bvk cell = 178 has 0.165 % of the basis function pairs === 
 === bvk cell = 179 has 0.041 % of the basis function pairs === 
 === bvk cell = 180 has 0.878 % of the basis function pairs === 
 === bvk cell = 181 has 7.955 % of the basis function pairs === 
 === bvk cell = 182 has 15.403 % of the basis function pairs === 
 === bvk cell = 183 has 10.300 % of the basis function pairs === 
 === bvk cell = 184 has 1.948 % of the basis function pairs === 
 === bvk cell = 185 has 0.165 % of the basis function pairs === 
 === bvk cell = 186 has 0.878 % of the basis function pairs === 
 === bvk cell = 187 has 9.656 % of the basis function pairs === 
 === bvk cell = 188 has 15.019 % of the basis function pairs === 
 === bvk cell = 189 has 17.432 % of the basis function pairs === 
 === bvk cell = 190 has 9.546 % of the basis function pairs === 
 === bvk cell = 191 has 1.317 % of the basis function pairs === 
 === bvk cell = 192 has 0.370 % of the basis function pairs === 
 === bvk cell = 193 has 7.955 % of the basis function pairs === 
 === bvk cell = 194 has 15.019 % of the basis function pairs === 
 === bvk cell = 195 has 19.874 % of the basis function pairs === 
 === bvk cell = 196 has 9.244 % of the basis function pairs === 
 === bvk cell = 197 has 16.157 % of the basis function pairs === 
 === bvk cell = 198 has 14.923 % of the basis function pairs === 
 === bvk cell = 199 has 10.890 % of the basis function pairs === 
 === bvk cell = 200 has 0.782 % of the basis function pairs === 
 === bvk cell = 201 has 2.729 % of the basis function pairs === 
 === bvk cell = 202 has 4.032 % of the basis function pairs === 
 === bvk cell = 203 has 16.157 % of the basis function pairs === 
 === bvk cell = 204 has 19.051 % of the basis function pairs === 
 === bvk cell = 205 has 15.019 % of the basis function pairs === 
 === bvk cell = 206 has 8.723 % of the basis function pairs === 
 === bvk cell = 207 has 0.507 % of the basis function pairs === 
 === bvk cell = 208 has 1.070 % of the basis function pairs === 
 === bvk cell = 209 has 8.078 % of the basis function pairs === 
 === bvk cell = 210 has 14.923 % of the basis function pairs === 
 === bvk cell = 211 has 15.019 % of the basis function pairs === 
 === bvk cell = 212 has 10.259 % of the basis function pairs === 
 === bvk cell = 213 has 1.138 % of the basis function pairs === 
 === bvk cell = 214 has 0.165 % of the basis function pairs === 
 === bvk cell = 215 has 1.413 % of the basis function pairs === 
 === bvk cell = 216 has 9.080 % of the basis function pairs === 
 === bvk cell = 217 has 10.890 % of the basis function pairs === 
 === bvk cell = 218 has 8.723 % of the basis function pairs === 
 === bvk cell = 219 has 1.138 % of the basis function pairs === 
 === bvk cell = 220 has 0.165 % of the basis function pairs === 
 === bvk cell = 221 has 0.041 % of the basis function pairs === 
 === bvk cell = 222 has 0.878 % of the basis function pairs === 
 === bvk cell = 223 has 7.955 % of the basis function pairs === 
 === bvk cell = 224 has 0.782 % of the basis function pairs === 
 === bvk cell = 225 has 0.507 % of the basis function pairs === 
 === bvk cell = 226 has 0.165 % of the basis function pairs === 
 === bvk cell = 227 has 0.041 % of the basis function pairs === 
 === bvk cell = 228 has 0.000 % of the basis function pairs === 
 === bvk cell = 229 has 0.494 % of the basis function pairs === 
 === bvk cell = 230 has 0.576 % of the basis function pairs === 
 === bvk cell = 231 has 2.729 % of the basis function pairs === 
 === bvk cell = 232 has 1.070 % of the basis function pairs === 
 === bvk cell = 233 has 1.413 % of the basis function pairs === 
 === bvk cell = 234 has 0.878 % of the basis function pairs === 
 === bvk cell = 235 has 0.494 % of the basis function pairs === 
 === bvk cell = 236 has 1.728 % of the basis function pairs === 
 === bvk cell = 237 has 3.072 % of the basis function pairs === 
 === bvk cell = 238 has 4.032 % of the basis function pairs === 
 === bvk cell = 239 has 8.078 % of the basis function pairs === 
 === bvk cell = 240 has 9.080 % of the basis function pairs === 
 === bvk cell = 241 has 7.955 % of the basis function pairs === 
 === bvk cell = 242 has 0.576 % of the basis function pairs === 
 === bvk cell = 243 has 3.072 % of the basis function pairs === 
 === bvk cell = 244 has 4.512 % of the basis function pairs === 
 === bvk cell = 245 has 39.240 % of the basis function pairs === 
 === bvk cell = 246 has 51.543 % of the basis function pairs === 
 === bvk cell = 247 has 39.226 % of the basis function pairs === 
 === bvk cell = 248 has 15.403 % of the basis function pairs === 
 === bvk cell = 249 has 2.729 % of the basis function pairs === 
 === bvk cell = 250 has 3.717 % of the basis function pairs === 
 === bvk cell = 251 has 16.349 % of the basis function pairs === 
 === bvk cell = 252 has 51.543 % of the basis function pairs === 
 === bvk cell = 253 has 52.462 % of the basis function pairs === 
 === bvk cell = 254 has 28.940 % of the basis function pairs === 
 === bvk cell = 255 has 10.300 % of the basis function pairs === 
 === bvk cell = 256 has 1.070 % of the basis function pairs === 
 === bvk cell = 257 has 9.244 % of the basis function pairs === 
 === bvk cell = 258 has 28.254 % of the basis function pairs === 
 === bvk cell = 259 has 39.226 % of the basis function pairs === 
 === bvk cell = 260 has 28.940 % of the basis function pairs === 
 === bvk cell = 261 has 13.043 % of the basis function pairs === 
 === bvk cell = 262 has 1.948 % of the basis function pairs === 
 === bvk cell = 263 has 1.413 % of the basis function pairs === 
 === bvk cell = 264 has 11.960 % of the basis function pairs === 
 === bvk cell = 265 has 26.622 % of the basis function pairs === 
 === bvk cell = 266 has 15.403 % of the basis function pairs === 
 === bvk cell = 267 has 10.300 % of the basis function pairs === 
 === bvk cell = 268 has 1.948 % of the basis function pairs === 
 === bvk cell = 269 has 0.165 % of the basis function pairs === 
 === bvk cell = 270 has 0.878 % of the basis function pairs === 
 === bvk cell = 271 has 9.656 % of the basis function pairs === 
 === bvk cell = 272 has 15.019 % of the basis function pairs === 
 === bvk cell = 273 has 2.729 % of the basis function pairs === 
 === bvk cell = 274 has 1.070 % of the basis function pairs === 
 === bvk cell = 275 has 1.413 % of the basis function pairs === 
 === bvk cell = 276 has 0.878 % of the basis function pairs === 
 === bvk cell = 277 has 0.494 % of the basis function pairs === 
 === bvk cell = 278 has 1.728 % of the basis function pairs === 
 === bvk cell = 279 has 3.072 % of the basis function pairs === 
 === bvk cell = 280 has 3.717 % of the basis function pairs === 
 === bvk cell = 281 has 9.244 % of the basis function pairs === 
 === bvk cell = 282 has 11.960 % of the basis function pairs === 
 === bvk cell = 283 has 9.656 % of the basis function pairs === 
 === bvk cell = 284 has 1.728 % of the basis function pairs === 
 === bvk cell = 285 has 0.370 % of the basis function pairs === 
 === bvk cell = 286 has 0.658 % of the basis function pairs === 
 === bvk cell = 287 has 16.349 % of the basis function pairs === 
 === bvk cell = 288 has 28.254 % of the basis function pairs === 
 === bvk cell = 289 has 26.622 % of the basis function pairs === 
 === bvk cell = 290 has 15.019 % of the basis function pairs === 
 === bvk cell = 291 has 3.072 % of the basis function pairs === 
 === bvk cell = 292 has 0.658 % of the basis function pairs === 
 === bvk cell = 293 has 4.170 % of the basis function pairs === 
 === bvk cell = 294 has 90.111 % of the basis function pairs === 
 === bvk cell = 295 has 96.914 % of the basis function pairs === 
 === bvk cell = 296 has 54.629 % of the basis function pairs === 
 === bvk cell = 297 has 17.432 % of the basis function pairs === 
 === bvk cell = 298 has 4.032 % of the basis function pairs === 
 === bvk cell = 299 has 16.349 % of the basis function pairs === 
 === bvk cell = 300 has 53.038 % of the basis function pairs === 
 === bvk cell = 301 has 96.914 % of the basis function pairs === 
 === bvk cell = 302 has 79.756 % of the basis function pairs === 
 === bvk cell = 303 has 32.972 % of the basis function pairs === 
 === bvk cell = 304 has 9.546 % of the basis function pairs === 
 === bvk cell = 305 has 8.078 % of the basis function pairs === 
 === bvk cell = 306 has 28.254 % of the basis function pairs === 
 === bvk cell = 307 has 76.231 % of the basis function pairs === 
 === bvk cell = 308 has 54.629 % of the basis function pairs === 
 === bvk cell = 309 has 32.972 % of the basis function pairs === 
 === bvk cell = 310 has 10.849 % of the basis function pairs === 
 === bvk cell = 311 has 1.317 % of the basis function pairs === 
 === bvk cell = 312 has 9.080 % of the basis function pairs === 
 === bvk cell = 313 has 26.622 % of the basis function pairs === 
 === bvk cell = 314 has 52.462 % of the basis function pairs === 
 === bvk cell = 315 has 17.432 % of the basis function pairs === 
 === bvk cell = 316 has 9.546 % of the basis function pairs === 
 === bvk cell = 317 has 1.317 % of the basis function pairs === 
 === bvk cell = 318 has 0.370 % of the basis function pairs === 
 === bvk cell = 319 has 7.955 % of the basis function pairs === 
 === bvk cell = 320 has 15.019 % of the basis function pairs === 
 === bvk cell = 321 has 19.874 % of the basis function pairs === 
 === bvk cell = 322 has 4.032 % of the basis function pairs === 
 === bvk cell = 323 has 8.078 % of the basis function pairs === 
 === bvk cell = 324 has 9.080 % of the basis function pairs === 
 === bvk cell = 325 has 7.955 % of the basis function pairs === 
 === bvk cell = 326 has 0.576 % of the basis function pairs === 
 === bvk cell = 327 has 3.072 % of the basis function pairs === 
 === bvk cell = 328 has 4.512 % of the basis function pairs === 
 === bvk cell = 329 has 16.349 % of the basis function pairs === 
 === bvk cell = 330 has 28.254 % of the basis function pairs === 
 === bvk cell = 331 has 26.622 % of the basis function pairs === 
 === bvk cell = 332 has 15.019 % of the basis function pairs === 
 === bvk cell = 333 has 3.072 % of the basis function pairs === 
 === bvk cell = 334 has 0.658 % of the basis function pairs === 
 === bvk cell = 335 has 4.170 % of the basis function pairs === 
 === bvk cell = 336 has 53.038 % of the basis function pairs === 
 === bvk cell = 337 has 76.231 % of the basis function pairs === 
 === bvk cell = 338 has 52.462 % of the basis function pairs === 
 === bvk cell = 339 has 19.874 % of the basis function pairs === 
 === bvk cell = 340 has 4.512 % of the basis function pairs === 
 === bvk cell = 341 has 4.170 % of the basis function pairs === 
 === bvk cell = 342 has 22.041 % of the basis function pairs === 
Static memory requirement for 2e3c SR integrals: 0.971 GB
There are 1 munu batches for computing 2e3c SR integrals with latsum
There are 5 Q batches for computing 2e3c SR integrals with latsum
 Time for computing 2e3c SR integral (CC) is 12.00 s
 Time for RI-J this SCF iteration is 12.86 s
 Time for RI-J this SCF iteration is 0.59 s
 ----------------------------------------------
 Guess energy: -578.7929135533
 ----------------------------------------------
 Guess energy components:
 DFT Correlation    Energy =  -1.09418417190940
 DFT Exchange       Energy = -40.53114762075834
 Kinetic            Energy = 577.10698953756309
 Nuclear Attraction Energy = -1185.46576845175196
 Nuclear Repulsion  Energy = -102.89365928466421
 Total Coulomb      Energy = 174.08485643823113
 ----------------------------------------------
  Cycle       Energy         DIIS error
 ----------------------------------------------
 Time for RI-J this SCF iteration is 0.81 s
    1    -578.7942549371      5.15e-04  
 Energy components after cycle 1:
 DFT Correlation    Energy =  -1.09673810348521
 DFT Exchange       Energy = -40.48845770348485
 Kinetic            Energy = 576.74725045297930
 Nuclear Attraction Energy = -1184.63758047365559
 Nuclear Repulsion  Energy = -102.89365928466421
 Total Coulomb      Energy = 173.57493017517436
    2    -578.7942549371      2.18e-04  
 Energy components after cycle 2:
 DFT Correlation    Energy =  -1.09673810348521
 DFT Exchange       Energy = -40.48845770348485
 Kinetic            Energy = 576.74725045297930
 Nuclear Attraction Energy = -1184.63758047365559
 Nuclear Repulsion  Energy = -102.89365928466421
 Total Coulomb      Energy = 173.57493017517436
 ----------------------------------------------
  Cycle       Energy        RMS Gradient
 ----------------------------------------------
 Time for RI-J this SCF iteration is 0.58 s
    1    -578.7944095790      7.15e-03   Normal BFGS step
 Energy components after cycle 1:
 DFT Correlation    Energy =  -1.09596338100521
 DFT Exchange       Energy = -40.51034804923248
 Kinetic            Energy = 576.97102568512776
 Nuclear Attraction Energy = -1185.07785309848191
 Nuclear Repulsion  Energy = -102.89365928466421
 Total Coulomb      Energy = 173.81238854923780
 Time for RI-J this SCF iteration is 0.60 s
    2    -578.7944398450      2.65e-03   Normal BFGS step
 Energy components after cycle 2:
 DFT Correlation    Energy =  -1.09613991632006
 DFT Exchange       Energy = -40.50291619147402
 Kinetic            Energy = 576.88852094123558
 Nuclear Attraction Energy = -1184.92615736917833
 Nuclear Repulsion  Energy = -102.89365928466421
 Total Coulomb      Energy = 173.73591197541097
 Time for RI-J this SCF iteration is 0.59 s
    3    -578.7944398957      6.05e-05   Normal BFGS step
 Energy components after cycle 3:
 DFT Correlation    Energy =  -1.09615263860001
 DFT Exchange       Energy = -40.50322285194107
 Kinetic            Energy = 576.89348027315782
 Nuclear Attraction Energy = -1184.93295032680112
 Nuclear Repulsion  Energy = -102.89365928466421
 Total Coulomb      Energy = 173.73806493313623
 Time for RI-J this SCF iteration is 0.60 s
    4    -578.7944398996      1.75e-05   Normal BFGS step
 Energy components after cycle 4:
 DFT Correlation    Energy =  -1.09614965702381
 DFT Exchange       Energy = -40.50316784118625
 Kinetic            Energy = 576.89253678818443
 Nuclear Attraction Energy = -1184.93171332200859
 Nuclear Repulsion  Energy = -102.89365928466421
 Total Coulomb      Energy = 173.73771341708050
 Time for RI-J this SCF iteration is 0.60 s
    5    -578.7944398996      6.10e-08   Normal BFGS step
 Energy components after cycle 5:
 DFT Correlation    Energy =  -1.09614965622249
 DFT Exchange       Energy = -40.50316780179720
 Kinetic            Energy = 576.89253625212336
 Nuclear Attraction Energy = -1184.93171230983808
 Nuclear Repulsion  Energy = -102.89365928466421
 Total Coulomb      Energy = 173.73771290077983
    5    -578.7944398996      6.10e-08  Convergence criterion met
 ----------------------------------------------
 Final energy components:
 DFT Correlation    Energy =  -1.09614965622249
 DFT Exchange       Energy = -40.50316780179720
 Kinetic            Energy = 576.89253625212336
 Nuclear Attraction Energy = -1184.93171230983808
 Nuclear Repulsion  Energy = -102.89365928466421
 Total Coulomb      Energy = 173.73771290077983
 ----------------------------------------------
 Final energy is -578.7944398996

 SCF time:   CPU 4609.38s  wall 338.00s 
 Total wall time for computing Kinetic: 0.07 s (8)
 Total wall time for computing RIJ-BIGMEM: 17.23 s (8)
 Total wall time for computing RSDF Vnuc: 0.21 s (8)
 Total wall time for computing DFT XC: 283.70 s (8)
 ---------------------------------------------------------------------------
                        Orbital Energies (a.u.)
 ---------------------------------------------------------------------------
 == 0-th k-point (-0.26242,-0.26242,-0.26242) occupation: 14==
 -65.00547 -65.00546 -4.62766 -4.62751 -3.03948 -3.03948 -3.03937 -3.03890 -3.03879 -3.03879
 -0.08753 0.03290 0.23209 0.23209 0.33510 0.40142 0.40142 0.56065 0.63002 0.63002
 0.66433 0.74377 0.74377 0.77900 0.93106 1.01885 1.01885 1.09384 1.15464 1.15464
 1.19467 1.26727 1.26727 1.31249 1.31249 1.39206 1.41163 1.49016 1.49016 1.51425
 1.51425 1.58667 1.63688 1.67228 1.86627 1.86627 1.89004 1.89574 1.89574 1.92172
 2.05378 2.05378 2.14559 2.21760 2.21760 2.27225 2.27225 2.28737 2.35589 2.35589
 2.40756 2.40756 2.58710 2.60699 2.60699 2.63581 2.78021 2.78098 2.79792 2.79792
 2.79868 2.82309 2.82309 2.86733 2.99938 3.03412 3.03412 3.05713 3.10084 3.10084
 3.14524 3.14524 3.30432 3.30432 3.31138 3.46787 3.46787 3.54320 3.54320 3.54560
 3.55610 3.68083 3.68083 3.68996 3.75255 3.76655 3.89176 3.89176 3.97350 3.97350
 4.10471 4.10471 4.12424 4.37904 4.46934 4.46934 8.19530 8.19530 8.20803 9.67331
 9.67331 10.01645 11.94872 14.76662
 == 1-th k-point (-0.17495,-0.17495,-0.34990) occupation: 14==
 -65.00547 -65.00546 -4.62766 -4.62751 -3.03950 -3.03949 -3.03934 -3.03894 -3.03881 -3.03877
 -0.09134 0.05672 0.19254 0.21204 0.35535 0.41764 0.44414 0.49021 0.62447 0.65886
 0.68005 0.73200 0.75726 0.85911 0.92836 0.93044 0.99467 1.08217 1.10821 1.15864
 1.18915 1.21558 1.30041 1.32869 1.35604 1.37889 1.42317 1.45068 1.50789 1.51496
 1.56956 1.62423 1.68671 1.70310 1.75410 1.77722 1.87746 1.89359 1.95018 1.99476
 1.99604 2.05300 2.05824 2.15117 2.15455 2.20188 2.28403 2.31982 2.33669 2.37473
 2.41187 2.44545 2.51932 2.58968 2.62420 2.65590 2.75701 2.75898 2.76881 2.77005
 2.79686 2.85367 2.87412 2.90435 2.98497 3.03162 3.04381 3.06296 3.10352 3.12876
 3.15162 3.24065 3.29355 3.31307 3.37491 3.39158 3.43156 3.47477 3.52732 3.53549
 3.60096 3.61765 3.66534 3.71541 3.75259 3.76587 3.83280 3.83575 3.89198 3.97595
 4.04132 4.12829 4.23665 4.34586 4.54253 4.54430 7.97016 8.20352 8.27634 9.32682
 9.92666 10.10726 12.74059 14.52689
 == 2-th k-point (-0.08747,-0.08747,-0.43737) occupation: 14==
 -65.00546 -65.00546 -4.62765 -4.62753 -3.03951 -3.03950 -3.03927 -3.03899 -3.03880 -3.03878
 -0.07897 0.06759 0.15992 0.18635 0.32083 0.37600 0.52100 0.52751 0.68360 0.69257
 0.70709 0.73240 0.79658 0.83418 0.88089 0.93909 0.94186 1.00322 1.09559 1.11822
 1.20495 1.21841 1.23259 1.30946 1.32846 1.35496 1.44023 1.49923 1.51322 1.58251
 1.64007 1.65882 1.68738 1.69955 1.73387 1.80539 1.83453 1.88284 1.89495 1.96470
 1.97306 2.03634 2.04987 2.14014 2.15705 2.16452 2.19255 2.35325 2.39351 2.39512
 2.42766 2.45980 2.53305 2.57322 2.60522 2.61763 2.63146 2.78416 2.78677 2.81348
 2.84671 2.87341 2.89917 2.92598 2.92771 3.00710 3.03105 3.05979 3.09825 3.18483
 3.20969 3.23822 3.25808 3.32984 3.34634 3.38116 3.41698 3.45413 3.52186 3.52422
 3.55815 3.57784 3.60363 3.68289 3.69540 3.77102 3.86259 3.90439 3.93504 4.09651
[...]
 -0.06234 0.03906 0.13909 0.18910 0.38948 0.40499 0.47853 0.52073 0.58460 0.64749
 0.72684 0.77288 0.81914 0.86936 0.92754 0.95660 0.98854 1.03959 1.07480 1.11914
 1.15383 1.18431 1.25678 1.30501 1.33350 1.35432 1.41384 1.45550 1.47528 1.53054
 1.55094 1.62537 1.66830 1.76421 1.77251 1.82573 1.85513 1.90300 1.94052 1.97204
 2.04095 2.06176 2.09108 2.16621 2.17426 2.24210 2.28020 2.32790 2.34470 2.39348
 2.41665 2.43814 2.47495 2.52784 2.57174 2.64586 2.68452 2.73475 2.80963 2.81902
 2.82817 2.91292 2.92567 2.94995 2.97148 2.98703 3.00824 3.07289 3.09234 3.16664
 3.20202 3.26712 3.28102 3.30844 3.33399 3.38882 3.41772 3.42616 3.48543 3.50388
 3.54631 3.59033 3.62928 3.64786 3.69138 3.73552 3.81972 3.86918 3.89356 3.99223
 4.07451 4.13185 4.23475 4.29172 4.53025 4.58083 8.16893 8.37399 8.40513 8.79449
 9.43398 9.87497 13.24857 14.30965
 == 325-th k-point (-0.17495,0.17495,0.34990) occupation: 14==
 -65.00547 -65.00546 -4.62766 -4.62751 -3.03950 -3.03949 -3.03934 -3.03894 -3.03881 -3.03877
 -0.09134 0.05672 0.19254 0.21204 0.35535 0.41764 0.44414 0.49021 0.62447 0.65886
 0.68005 0.73200 0.75726 0.85911 0.92836 0.93044 0.99467 1.08217 1.10821 1.15864
 1.18915 1.21558 1.30041 1.32869 1.35604 1.37889 1.42317 1.45068 1.50789 1.51496
 1.56956 1.62423 1.68671 1.70310 1.75410 1.77722 1.87746 1.89359 1.95018 1.99476
 1.99604 2.05300 2.05824 2.15117 2.15455 2.20188 2.28403 2.31982 2.33669 2.37473
 2.41187 2.44545 2.51932 2.58968 2.62420 2.65590 2.75701 2.75898 2.76881 2.77005
 2.79686 2.85367 2.87412 2.90435 2.98497 3.03162 3.04381 3.06296 3.10352 3.12876
 3.15162 3.24065 3.29355 3.31307 3.37491 3.39158 3.43156 3.47477 3.52732 3.53549
 3.60096 3.61765 3.66534 3.71541 3.75259 3.76587 3.83280 3.83575 3.89198 3.97595
 4.04132 4.12829 4.23665 4.34586 4.54253 4.54430 7.97016 8.20352 8.27634 9.32682
 9.92666 10.10726 12.74059 14.52689
 == 326-th k-point (-0.08747,0.26242,0.26242) occupation: 14==
 -65.00547 -65.00546 -4.62767 -4.62750 -3.03949 -3.03949 -3.03935 -3.03893 -3.03879 -3.03878
 -0.10495 0.08185 0.17722 0.23844 0.37429 0.42021 0.42149 0.52150 0.52819 0.63822
 0.69182 0.72876 0.79955 0.86502 0.88350 0.92939 0.99407 1.09554 1.11173 1.14787
 1.20194 1.24774 1.30273 1.34403 1.35969 1.40681 1.40703 1.49081 1.52407 1.55246
 1.56382 1.67610 1.68716 1.72842 1.73634 1.74608 1.82898 1.86066 1.86243 1.96930
 2.04054 2.04615 2.07679 2.12149 2.16298 2.16560 2.25255 2.31837 2.39866 2.40642
 2.43561 2.53958 2.54338 2.56349 2.59415 2.63864 2.68810 2.75774 2.76278 2.78996
 2.80641 2.87031 2.87103 2.91196 2.96064 2.98001 3.07015 3.11897 3.13170 3.16893
 3.17868 3.27892 3.33029 3.33096 3.35360 3.44281 3.45165 3.47585 3.52434 3.54973
 3.55909 3.62848 3.63076 3.66591 3.72836 3.78429 3.81167 3.86920 3.91302 3.92363
 4.04574 4.06895 4.23438 4.41469 4.51964 4.58841 7.71871 8.08137 8.14036 9.52170
 9.83104 10.03119 12.74360 14.36173
 == 327-th k-point (0.00000,0.34990,0.17495) occupation: 14==
 -65.00546 -65.00546 -4.62767 -4.62751 -3.03950 -3.03949 -3.03933 -3.03895 -3.03879 -3.03879
 -0.10083 0.09571 0.16004 0.20906 0.37127 0.41821 0.42934 0.50349 0.58318 0.68064
 0.69983 0.74061 0.78539 0.84637 0.86104 0.96710 0.96881 1.04985 1.07442 1.19096
 1.20465 1.20715 1.25833 1.34707 1.35260 1.43655 1.46615 1.47285 1.50732 1.53631
 1.59024 1.62239 1.66314 1.76018 1.77731 1.79627 1.84114 1.84888 1.90634 1.91693
 2.00745 2.01217 2.06208 2.09555 2.13926 2.17561 2.24136 2.27652 2.39785 2.44085
 2.45109 2.48288 2.49902 2.59422 2.61445 2.61839 2.62955 2.74449 2.77344 2.79770
 2.80812 2.86911 2.88405 2.93422 2.96797 3.01967 3.03688 3.09699 3.16369 3.19805
 3.23035 3.29958 3.30136 3.35787 3.37217 3.39164 3.42579 3.42596 3.45355 3.51478
 3.54064 3.57594 3.62833 3.68934 3.71680 3.78481 3.83585 3.89740 3.91278 3.94474
 4.04395 4.11207 4.25765 4.39010 4.55719 4.60218 7.85323 7.97919 8.21661 9.37645
 9.74834 10.41106 13.19975 13.84172
 == 328-th k-point (0.08747,0.43737,0.08747) occupation: 14==
 -65.00546 -65.00546 -4.62765 -4.62753 -3.03951 -3.03950 -3.03927 -3.03899 -3.03880 -3.03878
 -0.07897 0.06759 0.15992 0.18635 0.32083 0.37600 0.52100 0.52751 0.68360 0.69257
 0.70709 0.73240 0.79658 0.83418 0.88089 0.93909 0.94186 1.00322 1.09559 1.11822
 1.20495 1.21841 1.23259 1.30946 1.32846 1.35496 1.44023 1.49923 1.51322 1.58251
 1.64007 1.65882 1.68738 1.69955 1.73387 1.80539 1.83453 1.88284 1.89495 1.96470
 1.97306 2.03634 2.04987 2.14014 2.15705 2.16452 2.19255 2.35325 2.39351 2.39512
 2.42766 2.45980 2.53305 2.57322 2.60522 2.61763 2.63146 2.78416 2.78677 2.81348
 2.84671 2.87341 2.89917 2.92598 2.92771 3.00710 3.03105 3.05979 3.09825 3.18483
 3.20969 3.23822 3.25808 3.32984 3.34634 3.38116 3.41698 3.45413 3.52186 3.52422
 3.55815 3.57784 3.60363 3.68289 3.69540 3.77102 3.86259 3.90439 3.93504 4.09651
 4.10038 4.19912 4.27694 4.34228 4.59923 4.60040 8.03191 8.20941 8.24617 8.93953
 10.33001 10.45352 13.16671 13.65452
 == 329-th k-point (-0.34990,-0.17495,0.69980) occupation: 14==
 -65.00547 -65.00546 -4.62764 -4.62754 -3.03952 -3.03950 -3.03927 -3.03900 -3.03878 -3.03875
 -0.06234 0.03906 0.13909 0.18910 0.38948 0.40499 0.47853 0.52073 0.58460 0.64749
 0.72684 0.77288 0.81914 0.86936 0.92754 0.95660 0.98854 1.03959 1.07480 1.11914
 1.15383 1.18431 1.25678 1.30501 1.33350 1.35432 1.41384 1.45550 1.47528 1.53054
 1.55094 1.62537 1.66830 1.76421 1.77251 1.82573 1.85513 1.90300 1.94052 1.97204
 2.04095 2.06176 2.09108 2.16621 2.17426 2.24210 2.28020 2.32790 2.34470 2.39348
 2.41665 2.43814 2.47495 2.52784 2.57174 2.64586 2.68452 2.73475 2.80963 2.81902
 2.82817 2.91292 2.92567 2.94995 2.97148 2.98703 3.00824 3.07289 3.09234 3.16664
 3.20202 3.26712 3.28102 3.30844 3.33399 3.38882 3.41772 3.42616 3.48543 3.50388
 3.54631 3.59033 3.62928 3.64786 3.69138 3.73552 3.81972 3.86918 3.89356 3.99223
 4.07451 4.13185 4.23475 4.29172 4.53025 4.58083 8.16893 8.37399 8.40513 8.79449
 9.43398 9.87497 13.24857 14.30965
 == 330-th k-point (-0.26242,-0.08747,0.61232) occupation: 14==
 -65.00547 -65.00546 -4.62761 -4.62757 -3.03952 -3.03951 -3.03919 -3.03908 -3.03877 -3.03875
 -0.02626 0.01312 0.11840 0.16066 0.37725 0.45536 0.48477 0.49037 0.61294 0.65719
 0.76595 0.81255 0.84156 0.88471 0.93391 0.95983 0.97899 0.98800 1.03293 1.08099
 1.11886 1.18609 1.25984 1.26848 1.28705 1.34698 1.43303 1.44261 1.47773 1.48142
 1.62963 1.67001 1.70761 1.73077 1.75839 1.82831 1.88048 1.90430 1.92654 1.93535
 2.03767 2.08294 2.12250 2.18566 2.21829 2.22695 2.27617 2.31697 2.33019 2.38699
 2.40234 2.48271 2.48863 2.50935 2.59863 2.64955 2.68502 2.72975 2.77090 2.84427
 2.86370 2.89878 2.90646 2.92917 2.99986 3.01166 3.02951 3.09805 3.10117 3.12510
 3.23373 3.25902 3.27901 3.32707 3.34276 3.37404 3.43509 3.43596 3.45229 3.45965
 3.50945 3.55053 3.60954 3.62970 3.68001 3.70743 3.81239 3.84296 3.97305 3.98714
 4.02947 4.17078 4.25442 4.26153 4.56093 4.58570 8.26781 8.44085 8.61553 8.82387
 9.28559 9.70867 13.43713 14.03203
 == 331-th k-point (-0.17495,0.00000,0.52485) occupation: 14==
 -65.00546 -65.00546 -4.62762 -4.62756 -3.03952 -3.03952 -3.03920 -3.03906 -3.03877 -3.03877
 -0.04249 0.02781 0.14210 0.15722 0.35767 0.37146 0.50391 0.59628 0.61674 0.68764
 0.73991 0.79527 0.81826 0.84847 0.89884 0.92875 0.99415 1.04319 1.05194 1.06550
 1.12537 1.15383 1.19686 1.25034 1.37173 1.41463 1.45303 1.46902 1.47920 1.51897
 1.56343 1.68524 1.71570 1.75599 1.77639 1.81841 1.84215 1.86693 1.87355 1.91678
 2.02147 2.06086 2.14662 2.15492 2.17949 2.23683 2.26813 2.32542 2.32669 2.40516
 2.41267 2.45093 2.52312 2.53885 2.59614 2.63623 2.67516 2.75159 2.78176 2.81638
 2.85151 2.88748 2.90668 2.94136 2.97643 2.99629 3.01678 3.06751 3.10174 3.13732
 3.15516 3.23351 3.30485 3.30786 3.35742 3.37746 3.39967 3.40462 3.49486 3.51714
 3.54435 3.54691 3.64165 3.64221 3.70959 3.72121 3.85198 3.90819 3.99794 4.01313
 4.16119 4.17132 4.28251 4.31407 4.58098 4.60727 8.21900 8.39304 8.49154 8.70773
 9.91024 9.91734 13.37250 13.58961
 == 332-th k-point (-0.08747,0.08747,0.43737) occupation: 14==
 -65.00546 -65.00546 -4.62765 -4.62753 -3.03951 -3.03950 -3.03927 -3.03899 -3.03880 -3.03878
 -0.07897 0.06759 0.15992 0.18635 0.32083 0.37600 0.52100 0.52751 0.68360 0.69257
 0.70709 0.73240 0.79658 0.83418 0.88089 0.93909 0.94186 1.00322 1.09559 1.11822
 1.20495 1.21841 1.23259 1.30946 1.32846 1.35496 1.44023 1.49923 1.51322 1.58251
 1.64007 1.65882 1.68738 1.69955 1.73387 1.80539 1.83453 1.88284 1.89495 1.96470
 1.97306 2.03634 2.04987 2.14014 2.15705 2.16452 2.19255 2.35325 2.39351 2.39512
 2.42766 2.45980 2.53305 2.57322 2.60522 2.61763 2.63146 2.78416 2.78677 2.81348
 2.84671 2.87341 2.89917 2.92598 2.92771 3.00710 3.03105 3.05979 3.09825 3.18483
 3.20969 3.23822 3.25808 3.32984 3.34634 3.38116 3.41698 3.45413 3.52186 3.52422
 3.55815 3.57784 3.60363 3.68289 3.69540 3.77102 3.86259 3.90439 3.93504 4.09651
 4.10038 4.19912 4.27694 4.34228 4.59923 4.60040 8.03191 8.20941 8.24617 8.93953
 10.33001 10.45352 13.16671 13.65452
 == 333-th k-point (0.00000,0.17495,0.34990) occupation: 14==
 -65.00546 -65.00546 -4.62767 -4.62751 -3.03950 -3.03949 -3.03933 -3.03895 -3.03879 -3.03879
 -0.10083 0.09571 0.16004 0.20906 0.37127 0.41821 0.42934 0.50349 0.58318 0.68064
 0.69983 0.74061 0.78539 0.84637 0.86104 0.96710 0.96881 1.04985 1.07442 1.19096
 1.20465 1.20715 1.25833 1.34707 1.35260 1.43655 1.46615 1.47285 1.50732 1.53631
 1.59024 1.62239 1.66314 1.76018 1.77731 1.79627 1.84114 1.84888 1.90634 1.91693
 2.00745 2.01217 2.06208 2.09555 2.13926 2.17561 2.24136 2.27652 2.39785 2.44085
 2.45109 2.48288 2.49902 2.59422 2.61445 2.61839 2.62955 2.74449 2.77344 2.79770
 2.80812 2.86911 2.88405 2.93422 2.96797 3.01967 3.03688 3.09699 3.16369 3.19805
 3.23035 3.29958 3.30136 3.35787 3.37217 3.39164 3.42579 3.42596 3.45355 3.51478
 3.54064 3.57594 3.62833 3.68934 3.71680 3.78481 3.83585 3.89740 3.91278 3.94474
 4.04395 4.11207 4.25765 4.39010 4.55719 4.60218 7.85323 7.97919 8.21661 9.37645
 9.74834 10.41106 13.19975 13.84172
 == 334-th k-point (0.08747,0.26242,0.26242) occupation: 14==
 -65.00547 -65.00546 -4.62767 -4.62750 -3.03949 -3.03949 -3.03935 -3.03893 -3.03879 -3.03878
 -0.10495 0.08185 0.17722 0.23844 0.37429 0.42021 0.42149 0.52150 0.52819 0.63822
 0.69182 0.72876 0.79955 0.86502 0.88350 0.92939 0.99407 1.09554 1.11173 1.14787
 1.20194 1.24774 1.30273 1.34403 1.35969 1.40681 1.40703 1.49081 1.52407 1.55246
 1.56382 1.67610 1.68716 1.72842 1.73634 1.74608 1.82898 1.86066 1.86243 1.96930
 2.04054 2.04615 2.07679 2.12149 2.16298 2.16560 2.25255 2.31837 2.39866 2.40642
 2.43561 2.53958 2.54338 2.56349 2.59415 2.63864 2.68810 2.75774 2.76278 2.78996
 2.80641 2.87031 2.87103 2.91196 2.96064 2.98001 3.07015 3.11897 3.13170 3.16893
 3.17868 3.27892 3.33029 3.33097 3.35360 3.44281 3.45165 3.47585 3.52434 3.54973
 3.55909 3.62848 3.63076 3.66591 3.72836 3.78429 3.81167 3.86920 3.91302 3.92363
 4.04574 4.06895 4.23438 4.41469 4.51964 4.58841 7.71871 8.08137 8.14036 9.52170
 9.83104 10.03119 12.74360 14.36173
 == 335-th k-point (0.17495,0.34990,0.17495) occupation: 14==
 -65.00547 -65.00546 -4.62766 -4.62751 -3.03950 -3.03949 -3.03934 -3.03894 -3.03881 -3.03877
 -0.09134 0.05672 0.19254 0.21204 0.35535 0.41764 0.44414 0.49021 0.62447 0.65886
 0.68005 0.73200 0.75726 0.85911 0.92836 0.93044 0.99467 1.08217 1.10821 1.15864
 1.18915 1.21558 1.30041 1.32869 1.35604 1.37889 1.42317 1.45068 1.50789 1.51496
 1.56956 1.62423 1.68671 1.70310 1.75410 1.77722 1.87746 1.89359 1.95018 1.99476
 1.99604 2.05300 2.05824 2.15117 2.15455 2.20188 2.28403 2.31982 2.33669 2.37473
 2.41187 2.44545 2.51932 2.58968 2.62420 2.65590 2.75701 2.75898 2.76881 2.77005
 2.79686 2.85367 2.87412 2.90435 2.98497 3.03162 3.04381 3.06296 3.10352 3.12876
 3.15162 3.24065 3.29355 3.31307 3.37491 3.39158 3.43156 3.47477 3.52732 3.53549
 3.60096 3.61765 3.66534 3.71541 3.75259 3.76587 3.83280 3.83575 3.89198 3.97595
 4.04132 4.12829 4.23665 4.34586 4.54253 4.54430 7.97016 8.20352 8.27634 9.32682
 9.92666 10.10726 12.74059 14.52689
 == 336-th k-point (-0.26242,-0.26242,0.78727) occupation: 14==
 -65.00547 -65.00546 -4.62765 -4.62752 -3.03950 -3.03949 -3.03933 -3.03895 -3.03879 -3.03876
 -0.07061 0.02469 0.17719 0.21936 0.35927 0.41420 0.42939 0.57682 0.59832 0.61360
 0.68117 0.76657 0.78468 0.80234 0.95154 1.02098 1.04025 1.05297 1.09360 1.10028
 1.19908 1.23792 1.26924 1.30195 1.31457 1.35784 1.38228 1.43531 1.50675 1.52816
 1.54326 1.61658 1.67438 1.69853 1.73019 1.80758 1.84473 1.92466 1.97138 2.00522
 2.07540 2.10798 2.13590 2.16997 2.18812 2.22210 2.28072 2.28170 2.33252 2.34605
 2.44479 2.46760 2.48966 2.50498 2.53876 2.67236 2.71857 2.74507 2.78952 2.83476
 2.84811 2.86868 2.92672 2.94375 2.95004 2.97443 3.02899 3.04532 3.09749 3.13632
 3.19105 3.19379 3.24095 3.25033 3.37290 3.40984 3.43759 3.47071 3.50103 3.52439
 3.58100 3.63341 3.64797 3.65683 3.73072 3.74932 3.75668 3.89254 3.96014 3.96755
 4.02324 4.15874 4.26329 4.28949 4.48848 4.51337 8.14405 8.36906 8.40268 9.10721
 9.12540 9.93468 12.77430 14.59491
 == 337-th k-point (-0.17495,-0.17495,0.69980) occupation: 14==
 -65.00547 -65.00546 -4.62762 -4.62755 -3.03952 -3.03950 -3.03924 -3.03903 -3.03878 -3.03875
 -0.04499 0.02393 0.12473 0.19260 0.32985 0.45913 0.50880 0.51109 0.61066 0.61414
 0.76966 0.79006 0.80307 0.92701 0.92719 0.94407 0.95577 1.02322 1.03320 1.11626
 1.16555 1.17976 1.18823 1.31838 1.32997 1.36254 1.36623 1.44088 1.52326 1.56562
 1.60213 1.62022 1.68777 1.70401 1.71517 1.79221 1.89418 1.91286 1.91777 2.02628
 2.03863 2.09274 2.09990 2.14499 2.20315 2.27206 2.30048 2.31288 2.31473 2.33399
 2.38401 2.43362 2.49601 2.54653 2.56476 2.59419 2.65370 2.75927 2.79095 2.79833
 2.86743 2.91547 2.93900 2.96216 3.00575 3.03475 3.05473 3.07192 3.07476 3.11150
 3.20350 3.25937 3.28615 3.29461 3.32778 3.33481 3.38017 3.43734 3.45130 3.47373
 3.54124 3.58141 3.68288 3.71384 3.71645 3.76210 3.80518 3.86376 3.90246 3.92586
 4.03953 4.22288 4.24538 4.28190 4.55049 4.57505 8.11862 8.42723 8.49346 8.78819
 9.20851 9.82231 13.25247 14.19833
 == 338-th k-point (-0.08747,-0.08747,0.61232) occupation: 14==
 -65.00546 -65.00546 -4.62759 -4.62758 -3.03952 -3.03952 -3.03915 -3.03910 -3.03877 -3.03876
 -0.01500 -0.00447 0.13958 0.17485 0.30846 0.35500 0.60198 0.61736 0.62834 0.64060
 0.78433 0.79130 0.79486 0.82600 0.91131 0.92387 1.01030 1.02661 1.03869 1.07811
 1.08452 1.12694 1.17004 1.21911 1.37295 1.44527 1.45155 1.48416 1.55750 1.59400
 1.62012 1.62268 1.67726 1.71174 1.71391 1.78528 1.81635 1.88459 1.89767 1.92108
 2.02031 2.06674 2.09674 2.17249 2.24876 2.27838 2.30477 2.30529 2.31398 2.37886
 2.38354 2.43892 2.49324 2.50624 2.55038 2.66856 2.71086 2.75119 2.76167 2.79676
 2.84751 2.88106 2.89188 2.95364 2.98719 3.03931 3.05350 3.05370 3.11209 3.14919
 3.20174 3.24661 3.25184 3.26008 3.27851 3.33805 3.35674 3.40656 3.47941 3.52101
 3.56343 3.58578 3.63895 3.69337 3.71525 3.73521 3.90789 3.92389 3.98526 4.01066
 4.19113 4.27656 4.31791 4.32325 4.59414 4.61849 8.24618 8.38226 8.61169 8.63029
 9.45906 9.95498 13.39130 13.45006
 == 339-th k-point (0.00000,0.00000,0.52485) occupation: 14==
 -65.00546 -65.00546 -4.62762 -4.62755 -3.03952 -3.03952 -3.03920 -3.03905 -3.03878 -3.03878
 -0.05012 0.03092 0.17257 0.17257 0.29722 0.31647 0.61098 0.61098 0.69752 0.71021
 0.72697 0.72697 0.78105 0.79822 0.91299 0.93705 0.93705 0.98446 1.08752 1.10004
 1.10004 1.14249 1.20207 1.27470 1.36742 1.36742 1.45809 1.55770 1.55770 1.62394
 1.62875 1.63540 1.71878 1.74955 1.74955 1.75195 1.80644 1.80644 1.85560 1.87707
 2.02466 2.02466 2.05912 2.15818 2.15818 2.23487 2.31124 2.33666 2.36158 2.41088
 2.41088 2.43568 2.52032 2.52032 2.57144 2.58298 2.72034 2.75041 2.81446 2.81446
 2.87468 2.87468 2.91383 2.93955 2.96424 2.99784 3.01663 3.01663 3.08115 3.13426
 3.22262 3.23108 3.23108 3.32268 3.32752 3.32752 3.45002 3.45002 3.49206 3.49218
 3.56208 3.56351 3.56351 3.69882 3.73560 3.73656 3.92400 3.92400 3.96049 4.16570
 4.26968 4.26968 4.30109 4.38693 4.62289 4.62289 8.10632 8.49034 8.49034 8.59476
 10.00613 10.00613 13.36132 13.36411
 == 340-th k-point (0.08747,0.08747,0.43737) occupation: 14==
 -65.00546 -65.00546 -4.62765 -4.62753 -3.03951 -3.03950 -3.03927 -3.03899 -3.03880 -3.03878
 -0.07897 0.06759 0.15992 0.18635 0.32083 0.37600 0.52100 0.52751 0.68360 0.69257
 0.70709 0.73240 0.79658 0.83418 0.88089 0.93909 0.94186 1.00322 1.09559 1.11822
 1.20495 1.21841 1.23259 1.30946 1.32846 1.35496 1.44023 1.49923 1.51322 1.58251
 1.64007 1.65882 1.68738 1.69955 1.73387 1.80539 1.83453 1.88284 1.89495 1.96470
 1.97306 2.03634 2.04987 2.14014 2.15705 2.16452 2.19255 2.35325 2.39351 2.39512
 2.42766 2.45980 2.53305 2.57322 2.60522 2.61763 2.63146 2.78416 2.78677 2.81348
 2.84671 2.87341 2.89917 2.92598 2.92771 3.00710 3.03105 3.05979 3.09825 3.18483
 3.20969 3.23822 3.25808 3.32984 3.34634 3.38116 3.41698 3.45413 3.52186 3.52422
 3.55815 3.57784 3.60363 3.68289 3.69540 3.77102 3.86259 3.90439 3.93504 4.09651
 4.10038 4.19912 4.27694 4.34228 4.59923 4.60040 8.03191 8.20941 8.24617 8.93953
 10.33001 10.45352 13.16671 13.65452
 == 341-th k-point (0.17495,0.17495,0.34990) occupation: 14==
 -65.00547 -65.00546 -4.62766 -4.62751 -3.03950 -3.03949 -3.03934 -3.03894 -3.03881 -3.03877
 -0.09134 0.05672 0.19254 0.21204 0.35535 0.41764 0.44414 0.49021 0.62447 0.65886
 0.68005 0.73200 0.75726 0.85911 0.92836 0.93044 0.99467 1.08217 1.10821 1.15864
 1.18915 1.21558 1.30041 1.32869 1.35604 1.37889 1.42317 1.45068 1.50789 1.51496
 1.56956 1.62423 1.68671 1.70310 1.75410 1.77722 1.87746 1.89359 1.95018 1.99476
 1.99604 2.05300 2.05824 2.15117 2.15455 2.20188 2.28403 2.31982 2.33669 2.37473
 2.41187 2.44545 2.51932 2.58968 2.62420 2.65590 2.75701 2.75898 2.76881 2.77005
 2.79686 2.85367 2.87412 2.90435 2.98497 3.03162 3.04381 3.06296 3.10352 3.12876
 3.15162 3.24065 3.29355 3.31307 3.37491 3.39158 3.43156 3.47477 3.52732 3.53549
 3.60096 3.61765 3.66534 3.71541 3.75259 3.76587 3.83280 3.83575 3.89198 3.97595
 4.04132 4.12829 4.23665 4.34586 4.54253 4.54430 7.97016 8.20352 8.27634 9.32682
 9.92666 10.10726 12.74059 14.52689
 == 342-th k-point (0.26242,0.26242,0.26242) occupation: 14==
 -65.00547 -65.00546 -4.62766 -4.62751 -3.03948 -3.03948 -3.03937 -3.03890 -3.03879 -3.03879
 -0.08753 0.03290 0.23209 0.23209 0.33510 0.40142 0.40142 0.56065 0.63002 0.63002
 0.66433 0.74377 0.74377 0.77900 0.93106 1.01885 1.01885 1.09384 1.15464 1.15464
 1.19467 1.26727 1.26727 1.31249 1.31249 1.39206 1.41163 1.49016 1.49016 1.51425
 1.51425 1.58667 1.63688 1.67228 1.86627 1.86627 1.89004 1.89574 1.89574 1.92172
 2.05378 2.05378 2.14559 2.21760 2.21760 2.27225 2.27225 2.28737 2.35589 2.35589
 2.40756 2.40756 2.58710 2.60699 2.60699 2.63581 2.78021 2.78098 2.79792 2.79792
 2.79868 2.82309 2.82309 2.86733 2.99938 3.03412 3.03412 3.05713 3.10084 3.10084
 3.14524 3.14524 3.30432 3.30432 3.31138 3.46787 3.46787 3.54320 3.54320 3.54560
 3.55610 3.68083 3.68083 3.68996 3.75255 3.76655 3.89176 3.89176 3.97350 3.97350
 4.10471 4.10471 4.12424 4.37904 4.46934 4.46934 8.19530 8.19530 8.20803 9.67331
 9.67331 10.01645 11.94872 14.76662
 ---------------------------------------------------------------------------
 VBM is at 171-th k-point with 7.49408 eV
 CBM is at 147-th k-point with 8.08773 eV
 Band gap is 0.59364 eV


           Ground-State Mulliken Net Atomic Charges

      Atom                 Charge (a.u.)          Spin (a.u.)
   --------------------------------------------------------
      1 Si               (0.000000,-0.000000)    (0.000000,0.000000)
      2 Si               (-0.000000,0.000000)    (0.000000,0.000000)
   --------------------------------------------------------
  Sum of atomic charges =      (-0.000000,0.000000)
  Sum of spin   charges =       (0.000000,0.000000)



 Total job time:  339.05 s.
 Tue Sep  9 03:27:13 2025


        *************************************************************
        *                                                           *
        *  Thank you very much for using QCPBC. Have a nice day.    *
        *                                                           *
        *************************************************************

Running job 1 of 1
