                  Welcome to Q-Chem
           with Periodic Boundary Condition
     A Quantum Leap Into The Future Of Chemistry

 Adam Rettig, Xintian Feng, Meng-Fu Chen, Hieu Dinh, Stephen Quiton,
 Anton Ni, Paul J. Robinson, Jinghong Zhang, Joonho Lee

Contributors to earlier versions of Q-Chem not listed above:
 Evgeny Epifanovsky, Leo Cunha, Jerome F. Gonthier, Kuan-Yu Liu
 Input file: /n/netscratch/joonholee_lab/Lab/hieudinh//si_2_ccpvqz_omega_0.9_777.scratch20250909033258/si_2_ccpvqz_omega_0.9_777.0
 Scratch folder: /n/netscratch/joonholee_lab/Lab/hieudinh//si_2_ccpvqz_omega_0.9_777.scratch20250909033258
 Auxillary files located at: /n/holylabs/LABS/joonholee_lab/Lab/qchem_base/qcaux
 Q-Chem begins on Tue Sep  9 03:32:59 2025

 -------------------------------------------------------------
 User input:
 -------------------------------------------------------------
 $lattice
 3
 0.000000 5.130600 5.130600
 5.130600 0.000000 5.130600
 5.130600 5.130600 0.000000
 $end
 
 $unitcell
 ABSOLUTE
 0 1
 Si 0.000000 0.000000 0.000000
 Si 2.565300 2.565300 2.565300
 $end
 
 $rem
 jobtype = sp
 method = pbe
 scf_convergence = 5
 scf_guess = autosad
 scf_algorithm = diis_gdm
 basis = cc-pvqz
 aux_basis = cc-pvqz-jk
 input_bohr = true
 symmetry = false
 rsdf_print_level 1
 is_basis_uctr true
 
 mp_mesh = [7,7,7]
 
 integral_direct true
 bvk_cgto true
 
 thresh 14
 mem_total 1000000
 threads 32
 
 MAX_SCF_CYCLES 500
 madelung = false
 omega 0.9
 do_rij_bigmem true
 automate_g true
 print_level 10
 grid_type_xc 1
 
 thresh_1e2c_sp 1e-14
 thresh_2e3c_bra_ket_sep 1e-10
 thresh_g 1e-12
 $end
 
 -------------------------------------------------------------
 Running PBC job

 Requested Exchange Correlation Functionals: 
  DFT Exchange:  1.00000 pbe_x
  DFT Correlation:  1.00000 pbe_c
 using 32 threads for computing.
 ---------------------------------------------------------------
      Coordinates of Atoms in Central Unit Cell (Angstroms)
    I     Atom         X            Y            Z
 ---------------------------------------------------------------
    1      Si      0.000000     0.000000     0.000000
    2      Si      1.357498     1.357498     1.357498
 ---------------------------------------------------------------
 --------------------------------------------------
              Lattice Vectors (Angstroms)
              X            Y            Z
 --------------------------------------------------
   X       0.000000     2.714997     2.714997
   Y       2.714997     0.000000     2.714997
   Z       2.714997     2.714997     0.000000
 --------------------------------------------------
 --------------------------------------------------
       Reciprocal Lattice Vectors (Angstroms^-1)
              X            Y            Z
 --------------------------------------------------
   X      -1.157126     1.157126     1.157126
   Y       1.157126    -1.157126     1.157126
   Z       1.157126     1.157126    -1.157126
 --------------------------------------------------

 Single point calculation requested

 Hamiltonian contributions:
 List of terms in Hamiltonian: kpts_nn, kpts_kinetic, kpts_vnuc_df, kpts_xc, kpts_rij_bigmem

 K-Points calculation started.

 Basis set information about using solid harmonic (1) or Cartesian (0):
  si : D(1) D(1) D(1) F(1) F(1) G(1) 

 Basis set information about using solid harmonic (1) or Cartesian (0):
  si : D(1) D(1) D(1) D(1) D(1) D(1) D(1) D(1) D(1) F(1) F(1) F(1) F(1) G(1) G(1) H(1) 

 There are 118 basis functions in the central unit cell.
 Print atomic basis of atoms in the central unit cell:
 -------------------------------------------------------------
2 66 134 28

  0.00000000000000e+00  0.00000000000000e+00  0.00000000000000e+00
  2.56530000000000e+00  2.56530000000000e+00  2.56530000000000e+00

  5.13000000000000e+05
  7.68200000000000e+04
  1.74700000000000e+04
  4.93500000000000e+03
  1.60200000000000e+03
  5.74100000000000e+02
  2.21500000000000e+02
  9.05400000000000e+01
  3.87400000000000e+01
  1.69500000000000e+01
  6.45200000000000e+00
  2.87400000000000e+00
  1.25000000000000e+00
  3.59900000000000e-01
  1.69900000000000e-01
  7.06600000000000e-02
  1.12200000000000e+03
  2.66000000000000e+02
  8.59200000000000e+01
  3.23300000000000e+01
  1.33700000000000e+01
  5.80000000000000e+00
  2.55900000000000e+00
  1.12400000000000e+00
  3.98800000000000e-01
  1.53300000000000e-01
  5.72800000000000e-02
  7.60000000000000e-01
  3.02000000000000e-01
  1.20000000000000e-01
  5.41000000000000e-01
  2.12000000000000e-01
  4.61000000000000e-01
  5.13000000000000e+05
  7.68200000000000e+04
  1.74700000000000e+04
  4.93500000000000e+03
  1.60200000000000e+03
  5.74100000000000e+02
  2.21500000000000e+02
  9.05400000000000e+01
  3.87400000000000e+01
  1.69500000000000e+01
  6.45200000000000e+00
  2.87400000000000e+00
  1.25000000000000e+00
  3.59900000000000e-01
  1.69900000000000e-01
  7.06600000000000e-02
  1.12200000000000e+03
  2.66000000000000e+02
  8.59200000000000e+01
  3.23300000000000e+01
  1.33700000000000e+01
  5.80000000000000e+00
  2.55900000000000e+00
  1.12400000000000e+00
  3.98800000000000e-01
  1.53300000000000e-01
  5.72800000000000e-02
  7.60000000000000e-01
  3.02000000000000e-01
  1.20000000000000e-01
  5.41000000000000e-01
  2.12000000000000e-01
  4.61000000000000e-01

  3.56439732356011e-01
  6.67250935594825e-01
  1.15567538346971e+00
  1.89079471139597e+00
  2.92997535092854e+00
  4.25377897422013e+00
  5.53035652706994e+00
  5.88407857713363e+00
  4.26432221020809e+00
  1.46246852660687e+00
  9.90009037975635e-02
 -5.26805361731285e-03
  1.58075269248041e-03
 -9.63604858609034e-02
 -1.80140685379119e-01
 -3.12991611081079e-01
 -5.12013980868736e-01
 -8.03092560139717e-01
 -1.18597193899895e+00
 -1.63453354628192e+00
 -1.94138718043020e+00
 -1.86039340932271e+00
 -9.21642524314205e-01
  4.93552860211257e-01
  9.09065541611183e-01
  3.40430003714153e-01
  4.89002727192571e-02
  9.13245846186842e-02
  1.58921585782757e-01
  2.59526822498432e-01
  4.08347517411705e-01
  6.02266139654795e-01
  8.36774006155092e-01
  9.98775610751853e-01
  9.86583994360998e-01
  5.01500269670235e-01
 -2.91439000418814e-01
 -6.84883633703988e-01
 -4.85138432421684e-01
  3.31166560285492e-01
  1.88605835767988e-01
  9.76765512168845e-02
  4.17977074735086e+00
  5.88843070847456e+00
  7.44317185052013e+00
  8.05001094515016e+00
  6.97099017282640e+00
  4.33955185260449e+00
  1.76355858703549e+00
  3.34437932089088e-01
 -4.09551658476811e+00
 -5.70145272051300e+00
 -7.35388974061730e+00
 -7.93663059323219e+00
 -7.17813870370958e+00
 -4.42768957771269e+00
 -2.05517820096269e+00
 -1.72105843348797e-01
  4.51735295769850e-01
  1.36731249153695e-01
  3.99432914781939e-02
  1.01820035164008e+00
  2.02498404800701e-01
  4.02695370421242e-02
  3.69528803814005e-01
  4.48962571437413e-02
  1.32316184864580e-01
  3.56439732356011e-01
  6.67250935594825e-01
  1.15567538346971e+00
  1.89079471139597e+00
  2.92997535092854e+00
  4.25377897422013e+00
  5.53035652706994e+00
  5.88407857713363e+00
  4.26432221020809e+00
  1.46246852660687e+00
  9.90009037975635e-02
 -5.26805361731285e-03
  1.58075269248041e-03
 -9.63604858609034e-02
 -1.80140685379119e-01
 -3.12991611081079e-01
 -5.12013980868736e-01
 -8.03092560139717e-01
 -1.18597193899895e+00
 -1.63453354628192e+00
 -1.94138718043020e+00
 -1.86039340932271e+00
 -9.21642524314205e-01
  4.93552860211257e-01
  9.09065541611183e-01
  3.40430003714153e-01
  4.89002727192571e-02
  9.13245846186842e-02
  1.58921585782757e-01
  2.59526822498432e-01
  4.08347517411705e-01
  6.02266139654795e-01
  8.36774006155092e-01
  9.98775610751853e-01
  9.86583994360998e-01
  5.01500269670235e-01
 -2.91439000418814e-01
 -6.84883633703988e-01
 -4.85138432421684e-01
  3.31166560285492e-01
  1.88605835767988e-01
  9.76765512168845e-02
  4.17977074735086e+00
  5.88843070847456e+00
  7.44317185052013e+00
  8.05001094515016e+00
  6.97099017282640e+00
  4.33955185260449e+00
  1.76355858703549e+00
  3.34437932089088e-01
 -4.09551658476811e+00
 -5.70145272051300e+00
 -7.35388974061730e+00
 -7.93663059323219e+00
 -7.17813870370958e+00
 -4.42768957771269e+00
 -2.05517820096269e+00
 -1.72105843348797e-01
  4.51735295769850e-01
  1.36731249153695e-01
  3.99432914781939e-02
  1.01820035164008e+00
  2.02498404800701e-01
  4.02695370421242e-02
  3.69528803814005e-01
  4.48962571437413e-02
  1.32316184864580e-01

0 0 0 0 3 3 3
0 0 13 0 26 0 
13 0

0 3 3 13 1 1 1
39 0 
1 0

0 4 4 14 1 1 1
40 0 
1 0

0 5 5 15 1 1 1
41 0 
1 0

0 6 6 16 2 6 6
42 1 50 1 
8 0

0 12 12 24 1 3 3
58 1 
1 0

0 15 15 25 1 3 3
59 1 
1 0

0 18 18 26 1 3 3
60 1 
1 0

0 21 21 27 1 5 6
61 2 
1 1

0 26 26 28 1 5 6
62 2 
1 1

0 31 31 29 1 5 6
63 2 
1 1

0 36 36 30 1 7 10
64 3 
1 1

0 43 43 31 1 7 10
65 3 
1 1

0 50 50 32 1 9 15
66 4 
1 1

1 59 59 33 3 3 3
67 0 80 0 93 0 
13 0

1 62 62 46 1 1 1
106 0 
1 0

1 63 63 47 1 1 1
107 0 
1 0

1 64 64 48 1 1 1
108 0 
1 0

1 65 65 49 2 6 6
109 1 117 1 
8 0

1 71 71 57 1 3 3
125 1 
1 0

1 74 74 58 1 3 3
126 1 
1 0

1 77 77 59 1 3 3
127 1 
1 0

1 80 80 60 1 5 6
128 2 
1 1

1 85 85 61 1 5 6
129 2 
1 1

1 90 90 62 1 5 6
130 2 
1 1

1 95 95 63 1 7 10
131 3 
1 1

1 102 102 64 1 7 10
132 3 
1 1

1 109 109 65 1 9 15
133 4 
1 1

 -------------------------------------------------------------
 Allocate 265256 B from available memory: 1048576000000 B
 There are 2197 image cells after screening.
 There are 2061 image cells for CGTO evaluation after screening.
 Real-Space grid for FFT initialized based on kinetic energy cutoff (eV) = 500.0
 Real-Space grid for FFT: (10,10,10)
 There are 9261 real-space grid points.
 There are 64 batches of real-space grid points. 
 Size of each grid batch is around 128
 Grid for AFT initialized based on kinetic energy cutoff (eV) = 500.0
 Real-Space grid for AFT: (10,10,10)
 There are 9261 real-space grid points.

 There are 5628 atom-centered grid points.

 Spacegroup symmetry group: Fd-3m
 Reducing spacegroup symmetry to symmorphic group: F -4 3 m
 Monkhorst-Pack mesh is [7,7,7]
 There are 343 k points.
kpoints in Bohr
-0.2624248337 -0.2624248337 -0.2624248337
-0.1749498891 -0.1749498891 -0.3498997782
-0.0874749446 -0.0874749446 -0.4373747228
-0.0000000000 -0.0000000000 -0.5248496673
0.0874749446 0.0874749446 -0.6123246119
0.1749498891 0.1749498891 -0.6997995564
0.2624248337 0.2624248337 -0.7872745010
-0.1749498891 -0.3498997782 -0.1749498891
-0.0874749446 -0.2624248337 -0.2624248337
-0.0000000000 -0.1749498891 -0.3498997782
0.0874749446 -0.0874749446 -0.4373747228
0.1749498891 -0.0000000000 -0.5248496673
0.2624248337 0.0874749446 -0.6123246119
0.3498997782 0.1749498891 -0.6997995564
-0.0874749446 -0.4373747228 -0.0874749446
-0.0000000000 -0.3498997782 -0.1749498891
0.0874749446 -0.2624248337 -0.2624248337
0.1749498891 -0.1749498891 -0.3498997782
0.2624248337 -0.0874749446 -0.4373747228
0.3498997782 -0.0000000000 -0.5248496673
0.4373747228 0.0874749446 -0.6123246119
-0.0000000000 -0.5248496673 0.0000000000
0.0874749446 -0.4373747228 -0.0874749446
0.1749498891 -0.3498997782 -0.1749498891
0.2624248337 -0.2624248337 -0.2624248337
0.3498997782 -0.1749498891 -0.3498997782
0.4373747228 -0.0874749446 -0.4373747228
0.5248496673 0.0000000000 -0.5248496673
0.0874749446 -0.6123246119 0.0874749446
0.1749498891 -0.5248496673 0.0000000000
0.2624248337 -0.4373747228 -0.0874749446
0.3498997782 -0.3498997782 -0.1749498891
0.4373747228 -0.2624248337 -0.2624248337
0.5248496673 -0.1749498891 -0.3498997782
0.6123246119 -0.0874749446 -0.4373747228
0.1749498891 -0.6997995564 0.1749498891
0.2624248337 -0.6123246119 0.0874749446
0.3498997782 -0.5248496673 0.0000000000
0.4373747228 -0.4373747228 -0.0874749446
0.5248496673 -0.3498997782 -0.1749498891
0.6123246119 -0.2624248337 -0.2624248337
0.6997995564 -0.1749498891 -0.3498997782
0.2624248337 -0.7872745010 0.2624248337
0.3498997782 -0.6997995564 0.1749498891
0.4373747228 -0.6123246119 0.0874749446
0.5248496673 -0.5248496673 0.0000000000
0.6123246119 -0.4373747228 -0.0874749446
0.6997995564 -0.3498997782 -0.1749498891
0.7872745010 -0.2624248337 -0.2624248337
-0.3498997782 -0.1749498891 -0.1749498891
-0.2624248337 -0.0874749446 -0.2624248337
-0.1749498891 -0.0000000000 -0.3498997782
-0.0874749446 0.0874749446 -0.4373747228
-0.0000000000 0.1749498891 -0.5248496673
0.0874749446 0.2624248337 -0.6123246119
0.1749498891 0.3498997782 -0.6997995564
-0.2624248337 -0.2624248337 -0.0874749446
-0.1749498891 -0.1749498891 -0.1749498891
-0.0874749446 -0.0874749446 -0.2624248337
-0.0000000000 -0.0000000000 -0.3498997782
0.0874749446 0.0874749446 -0.4373747228
0.1749498891 0.1749498891 -0.5248496673
0.2624248337 0.2624248337 -0.6123246119
-0.1749498891 -0.3498997782 0.0000000000
-0.0874749446 -0.2624248337 -0.0874749446
-0.0000000000 -0.1749498891 -0.1749498891
0.0874749446 -0.0874749446 -0.2624248337
0.1749498891 -0.0000000000 -0.3498997782
0.2624248337 0.0874749446 -0.4373747228
0.3498997782 0.1749498891 -0.5248496673
-0.0874749446 -0.4373747228 0.0874749446
-0.0000000000 -0.3498997782 0.0000000000
0.0874749446 -0.2624248337 -0.0874749446
0.1749498891 -0.1749498891 -0.1749498891
0.2624248337 -0.0874749446 -0.2624248337
0.3498997782 0.0000000000 -0.3498997782
0.4373747228 0.0874749446 -0.4373747228
-0.0000000000 -0.5248496673 0.1749498891
0.0874749446 -0.4373747228 0.0874749446
0.1749498891 -0.3498997782 0.0000000000
0.2624248337 -0.2624248337 -0.0874749446
0.3498997782 -0.1749498891 -0.1749498891
0.4373747228 -0.0874749446 -0.2624248337
0.5248496673 0.0000000000 -0.3498997782
0.0874749446 -0.6123246119 0.2624248337
0.1749498891 -0.5248496673 0.1749498891
0.2624248337 -0.4373747228 0.0874749446
0.3498997782 -0.3498997782 0.0000000000
0.4373747228 -0.2624248337 -0.0874749446
0.5248496673 -0.1749498891 -0.1749498891
0.6123246119 -0.0874749446 -0.2624248337
0.1749498891 -0.6997995564 0.3498997782
0.2624248337 -0.6123246119 0.2624248337
0.3498997782 -0.5248496673 0.1749498891
0.4373747228 -0.4373747228 0.0874749446
0.5248496673 -0.3498997782 0.0000000000
0.6123246119 -0.2624248337 -0.0874749446
0.6997995564 -0.1749498891 -0.1749498891
-0.4373747228 -0.0874749446 -0.0874749446
-0.3498997782 -0.0000000000 -0.1749498891
-0.2624248337 0.0874749446 -0.2624248337
-0.1749498891 0.1749498891 -0.3498997782
-0.0874749446 0.2624248337 -0.4373747228
-0.0000000000 0.3498997782 -0.5248496673
0.0874749446 0.4373747228 -0.6123246119
-0.3498997782 -0.1749498891 0.0000000000
-0.2624248337 -0.0874749446 -0.0874749446
-0.1749498891 -0.0000000000 -0.1749498891
-0.0874749446 0.0874749446 -0.2624248337
-0.0000000000 0.1749498891 -0.3498997782
0.0874749446 0.2624248337 -0.4373747228
0.1749498891 0.3498997782 -0.5248496673
-0.2624248337 -0.2624248337 0.0874749446
-0.1749498891 -0.1749498891 0.0000000000
-0.0874749446 -0.0874749446 -0.0874749446
-0.0000000000 -0.0000000000 -0.1749498891
0.0874749446 0.0874749446 -0.2624248337
0.1749498891 0.1749498891 -0.3498997782
0.2624248337 0.2624248337 -0.4373747228
-0.1749498891 -0.3498997782 0.1749498891
-0.0874749446 -0.2624248337 0.0874749446
-0.0000000000 -0.1749498891 0.0000000000
0.0874749446 -0.0874749446 -0.0874749446
0.1749498891 0.0000000000 -0.1749498891
0.2624248337 0.0874749446 -0.2624248337
0.3498997782 0.1749498891 -0.3498997782
-0.0874749446 -0.4373747228 0.2624248337
-0.0000000000 -0.3498997782 0.1749498891
0.0874749446 -0.2624248337 0.0874749446
0.1749498891 -0.1749498891 0.0000000000
0.2624248337 -0.0874749446 -0.0874749446
0.3498997782 0.0000000000 -0.1749498891
0.4373747228 0.0874749446 -0.2624248337
-0.0000000000 -0.5248496673 0.3498997782
0.0874749446 -0.4373747228 0.2624248337
0.1749498891 -0.3498997782 0.1749498891
0.2624248337 -0.2624248337 0.0874749446
0.3498997782 -0.1749498891 0.0000000000
0.4373747228 -0.0874749446 -0.0874749446
0.5248496673 0.0000000000 -0.1749498891
0.0874749446 -0.6123246119 0.4373747228
0.1749498891 -0.5248496673 0.3498997782
0.2624248337 -0.4373747228 0.2624248337
0.3498997782 -0.3498997782 0.1749498891
0.4373747228 -0.2624248337 0.0874749446
0.5248496673 -0.1749498891 0.0000000000
0.6123246119 -0.0874749446 -0.0874749446
-0.5248496673 -0.0000000000 -0.0000000000
-0.4373747228 0.0874749446 -0.0874749446
-0.3498997782 0.1749498891 -0.1749498891
-0.2624248337 0.2624248337 -0.2624248337
-0.1749498891 0.3498997782 -0.3498997782
-0.0874749446 0.4373747228 -0.4373747228
0.0000000000 0.5248496673 -0.5248496673
-0.4373747228 -0.0874749446 0.0874749446
-0.3498997782 -0.0000000000 -0.0000000000
-0.2624248337 0.0874749446 -0.0874749446
-0.1749498891 0.1749498891 -0.1749498891
-0.0874749446 0.2624248337 -0.2624248337
0.0000000000 0.3498997782 -0.3498997782
0.0874749446 0.4373747228 -0.4373747228
-0.3498997782 -0.1749498891 0.1749498891
-0.2624248337 -0.0874749446 0.0874749446
-0.1749498891 -0.0000000000 -0.0000000000
-0.0874749446 0.0874749446 -0.0874749446
0.0000000000 0.1749498891 -0.1749498891
0.0874749446 0.2624248337 -0.2624248337
0.1749498891 0.3498997782 -0.3498997782
-0.2624248337 -0.2624248337 0.2624248337
-0.1749498891 -0.1749498891 0.1749498891
-0.0874749446 -0.0874749446 0.0874749446
0.0000000000 0.0000000000 0.0000000000
0.0874749446 0.0874749446 -0.0874749446
0.1749498891 0.1749498891 -0.1749498891
0.2624248337 0.2624248337 -0.2624248337
-0.1749498891 -0.3498997782 0.3498997782
-0.0874749446 -0.2624248337 0.2624248337
-0.0000000000 -0.1749498891 0.1749498891
0.0874749446 -0.0874749446 0.0874749446
0.1749498891 0.0000000000 0.0000000000
0.2624248337 0.0874749446 -0.0874749446
0.3498997782 0.1749498891 -0.1749498891
-0.0874749446 -0.4373747228 0.4373747228
-0.0000000000 -0.3498997782 0.3498997782
0.0874749446 -0.2624248337 0.2624248337
0.1749498891 -0.1749498891 0.1749498891
0.2624248337 -0.0874749446 0.0874749446
0.3498997782 0.0000000000 0.0000000000
0.4373747228 0.0874749446 -0.0874749446
-0.0000000000 -0.5248496673 0.5248496673
0.0874749446 -0.4373747228 0.4373747228
0.1749498891 -0.3498997782 0.3498997782
0.2624248337 -0.2624248337 0.2624248337
0.3498997782 -0.1749498891 0.1749498891
0.4373747228 -0.0874749446 0.0874749446
0.5248496673 0.0000000000 0.0000000000
-0.6123246119 0.0874749446 0.0874749446
-0.5248496673 0.1749498891 -0.0000000000
-0.4373747228 0.2624248337 -0.0874749446
-0.3498997782 0.3498997782 -0.1749498891
-0.2624248337 0.4373747228 -0.2624248337
-0.1749498891 0.5248496673 -0.3498997782
-0.0874749446 0.6123246119 -0.4373747228
-0.5248496673 -0.0000000000 0.1749498891
-0.4373747228 0.0874749446 0.0874749446
-0.3498997782 0.1749498891 -0.0000000000
-0.2624248337 0.2624248337 -0.0874749446
-0.1749498891 0.3498997782 -0.1749498891
-0.0874749446 0.4373747228 -0.2624248337
0.0000000000 0.5248496673 -0.3498997782
-0.4373747228 -0.0874749446 0.2624248337
-0.3498997782 -0.0000000000 0.1749498891
-0.2624248337 0.0874749446 0.0874749446
-0.1749498891 0.1749498891 -0.0000000000
-0.0874749446 0.2624248337 -0.0874749446
0.0000000000 0.3498997782 -0.1749498891
0.0874749446 0.4373747228 -0.2624248337
-0.3498997782 -0.1749498891 0.3498997782
-0.2624248337 -0.0874749446 0.2624248337
-0.1749498891 0.0000000000 0.1749498891
-0.0874749446 0.0874749446 0.0874749446
0.0000000000 0.1749498891 0.0000000000
0.0874749446 0.2624248337 -0.0874749446
0.1749498891 0.3498997782 -0.1749498891
-0.2624248337 -0.2624248337 0.4373747228
-0.1749498891 -0.1749498891 0.3498997782
-0.0874749446 -0.0874749446 0.2624248337
0.0000000000 0.0000000000 0.1749498891
0.0874749446 0.0874749446 0.0874749446
0.1749498891 0.1749498891 0.0000000000
0.2624248337 0.2624248337 -0.0874749446
-0.1749498891 -0.3498997782 0.5248496673
-0.0874749446 -0.2624248337 0.4373747228
0.0000000000 -0.1749498891 0.3498997782
0.0874749446 -0.0874749446 0.2624248337
0.1749498891 0.0000000000 0.1749498891
0.2624248337 0.0874749446 0.0874749446
0.3498997782 0.1749498891 0.0000000000
-0.0874749446 -0.4373747228 0.6123246119
0.0000000000 -0.3498997782 0.5248496673
0.0874749446 -0.2624248337 0.4373747228
0.1749498891 -0.1749498891 0.3498997782
0.2624248337 -0.0874749446 0.2624248337
0.3498997782 0.0000000000 0.1749498891
0.4373747228 0.0874749446 0.0874749446
-0.6997995564 0.1749498891 0.1749498891
-0.6123246119 0.2624248337 0.0874749446
-0.5248496673 0.3498997782 -0.0000000000
-0.4373747228 0.4373747228 -0.0874749446
-0.3498997782 0.5248496673 -0.1749498891
-0.2624248337 0.6123246119 -0.2624248337
-0.1749498891 0.6997995564 -0.3498997782
-0.6123246119 0.0874749446 0.2624248337
-0.5248496673 0.1749498891 0.1749498891
-0.4373747228 0.2624248337 0.0874749446
-0.3498997782 0.3498997782 -0.0000000000
-0.2624248337 0.4373747228 -0.0874749446
-0.1749498891 0.5248496673 -0.1749498891
-0.0874749446 0.6123246119 -0.2624248337
-0.5248496673 -0.0000000000 0.3498997782
-0.4373747228 0.0874749446 0.2624248337
-0.3498997782 0.1749498891 0.1749498891
-0.2624248337 0.2624248337 0.0874749446
-0.1749498891 0.3498997782 -0.0000000000
-0.0874749446 0.4373747228 -0.0874749446
0.0000000000 0.5248496673 -0.1749498891
-0.4373747228 -0.0874749446 0.4373747228
-0.3498997782 0.0000000000 0.3498997782
-0.2624248337 0.0874749446 0.2624248337
-0.1749498891 0.1749498891 0.1749498891
-0.0874749446 0.2624248337 0.0874749446
0.0000000000 0.3498997782 0.0000000000
0.0874749446 0.4373747228 -0.0874749446
-0.3498997782 -0.1749498891 0.5248496673
-0.2624248337 -0.0874749446 0.4373747228
-0.1749498891 0.0000000000 0.3498997782
-0.0874749446 0.0874749446 0.2624248337
0.0000000000 0.1749498891 0.1749498891
0.0874749446 0.2624248337 0.0874749446
0.1749498891 0.3498997782 0.0000000000
-0.2624248337 -0.2624248337 0.6123246119
-0.1749498891 -0.1749498891 0.5248496673
-0.0874749446 -0.0874749446 0.4373747228
0.0000000000 0.0000000000 0.3498997782
0.0874749446 0.0874749446 0.2624248337
0.1749498891 0.1749498891 0.1749498891
0.2624248337 0.2624248337 0.0874749446
-0.1749498891 -0.3498997782 0.6997995564
-0.0874749446 -0.2624248337 0.6123246119
0.0000000000 -0.1749498891 0.5248496673
0.0874749446 -0.0874749446 0.4373747228
0.1749498891 0.0000000000 0.3498997782
0.2624248337 0.0874749446 0.2624248337
0.3498997782 0.1749498891 0.1749498891
-0.7872745010 0.2624248337 0.2624248337
-0.6997995564 0.3498997782 0.1749498891
-0.6123246119 0.4373747228 0.0874749446
-0.5248496673 0.5248496673 -0.0000000000
-0.4373747228 0.6123246119 -0.0874749446
-0.3498997782 0.6997995564 -0.1749498891
-0.2624248337 0.7872745010 -0.2624248337
-0.6997995564 0.1749498891 0.3498997782
-0.6123246119 0.2624248337 0.2624248337
-0.5248496673 0.3498997782 0.1749498891
-0.4373747228 0.4373747228 0.0874749446
-0.3498997782 0.5248496673 -0.0000000000
-0.2624248337 0.6123246119 -0.0874749446
-0.1749498891 0.6997995564 -0.1749498891
-0.6123246119 0.0874749446 0.4373747228
-0.5248496673 0.1749498891 0.3498997782
-0.4373747228 0.2624248337 0.2624248337
-0.3498997782 0.3498997782 0.1749498891
-0.2624248337 0.4373747228 0.0874749446
-0.1749498891 0.5248496673 0.0000000000
-0.0874749446 0.6123246119 -0.0874749446
-0.5248496673 0.0000000000 0.5248496673
-0.4373747228 0.0874749446 0.4373747228
-0.3498997782 0.1749498891 0.3498997782
-0.2624248337 0.2624248337 0.2624248337
-0.1749498891 0.3498997782 0.1749498891
-0.0874749446 0.4373747228 0.0874749446
0.0000000000 0.5248496673 0.0000000000
-0.4373747228 -0.0874749446 0.6123246119
-0.3498997782 0.0000000000 0.5248496673
-0.2624248337 0.0874749446 0.4373747228
-0.1749498891 0.1749498891 0.3498997782
-0.0874749446 0.2624248337 0.2624248337
0.0000000000 0.3498997782 0.1749498891
0.0874749446 0.4373747228 0.0874749446
-0.3498997782 -0.1749498891 0.6997995564
-0.2624248337 -0.0874749446 0.6123246119
-0.1749498891 0.0000000000 0.5248496673
-0.0874749446 0.0874749446 0.4373747228
0.0000000000 0.1749498891 0.3498997782
0.0874749446 0.2624248337 0.2624248337
0.1749498891 0.3498997782 0.1749498891
-0.2624248337 -0.2624248337 0.7872745010
-0.1749498891 -0.1749498891 0.6997995564
-0.0874749446 -0.0874749446 0.6123246119
0.0000000000 0.0000000000 0.5248496673
0.0874749446 0.0874749446 0.4373747228
0.1749498891 0.1749498891 0.3498997782
0.2624248337 0.2624248337 0.2624248337
 There are 14 alpha and 14 beta electrons
 Start computing overlap matrix
 Allocate 76414912 B from available memory: 1048575734752 B
 Time for computing overlap matrix: 3.8810000000 s
 ====== Initialize compute kernels for all-electron RI-J (kpts) ====== 
 ========================================================== 
 Range-separated parameter omega        = 0.900000000000000022
 Threshold for 1e2c shellpair           = 0.000000000000010000
 Threshold for 2e2c SR integral         = 0.000000000000000001
 Threshold for 2e3c SR integral         = 0.000000000100000000
 Threshold for AFT G-space screening is = 0.000000000001000000
 The exponent cutoff for C/D classification (omega2 / 2) is  = 0.405000000000000027
 ========================================================== 
 === Post process the basis set for RI calculation (exp_cutoff = 0.405000000000000027 ) === 
nshells_b1 before uncontraction = 28
nshells_b1 after uncontraction = 28
nshells_baux before uncontraction = 80
nshells_baux after uncontraction = 80
===============================================
nbsf total   = 118
nbsf compact = 60
nbsf diffuse = 58
naux total   = 296
naux compact = 296
naux diffuse = 0
nshells_bnuc = 2

 Number of unique atoms is 1
 Unique atom #0 (si) has 5 shells.

Shell 0 to 4 belongs to atom si
Shell 5 to 9 belongs to atom si

 Number of unique atoms is 1
 Unique atom #0 (si) has 9 shells.

Shell 0 to 8 belongs to atom si
Shell 9 to 17 belongs to atom si

 Number of unique atom is 1
 Unique atom #0 (si) has 40 auxiliary shells.

Auxiliary Shell 0 to 39 belongs to atom si
Auxiliary Shell 40 to 79 belongs to atom si

================= Automatically determine grid size for reciprocal space summation =================
 Range-separated parameter = 0.90000000000000 and G-space screening threshold = 0.00000000000100
The number of grid points along each axis dimension is (10, 10, 10)
Total number of grid points = 9261

Use nonortho shellpair for diffuse density
======== Initializing relevant kernel for RIJ (DD type) ========
There are 171 shellpairs in the reference unit cell
There are 3661 images and we expect to have 626031 in total
There are 23126 shellpairs in the lattice sum after screening
======== Initializing relevant kernel for RIJ (CD type) ========
There are 180 shellpairs in the reference unit cell
There are 2395 images and we expect to have 431100 in total
There are 12134 shellpairs in the lattice sum after screening
****** AFT -> SR ******
Maximum bra distance cutoff is 23.000000000000
Maximum bra ket distance cutoff is 20.611302005944
Maximum bra ket screening distance is 19.000000000000
Number of auxiliary image is 551
There are 180 shellpairs in the reference unit cell
There are 551 images and we expect to have 99180 in total
There are 12134 shellpairs in the lattice sum after screening
Available memory per thread for 2e3c calculation is 32.765603745000Gb
Finish initializing 2e3c SR with the lattice sum!
=================================================
======== Initializing relevant kernel for RIJ (CC type) ========
There are 55 shellpairs in the reference unit cell
There are 695 images and we expect to have 38225 in total
There are 694 shellpairs in the lattice sum after screening
****** AFT -> SR ******
Maximum bra distance cutoff is 11.000000000000
Maximum bra ket distance cutoff is 21.062500000000
Maximum bra ket screening distance is 18.718750000000
Number of auxiliary image is 455
There are 55 shellpairs in the reference unit cell
There are 117 images and we expect to have 6435 in total
There are 694 shellpairs in the lattice sum after screening
Available memory per thread for 2e3c calculation is 32.765603745000Gb
Finish initializing 2e3c SR with the lattice sum!
=================================================
======== Initializing the SR component for Vnuc (CD type) ========
Maximum bra distance cutoff is 23.000000000000
Maximum bra ket distance cutoff is 11.920357219976
Maximum bra ket screening distance is 9.960251940080
Number of auxiliary image is 551
There are 180 shellpairs in the reference unit cell
There are 551 images and we expect to have 99180 in total
There are 12134 shellpairs in the lattice sum after screening
Available memory per thread for 2e3c calculation is 32.765603745000Gb
Finish initializing 2e3c SR with the lattice sum!
=================================================
======== Initialize the SR component for Vnuc (CC type) ========
Maximum bra distance cutoff is 11.000000000000
Maximum bra ket distance cutoff is 13.059451665625
Maximum bra ket screening distance is 9.261023449952
Number of auxiliary image is 213
There are 55 shellpairs in the reference unit cell
There are 117 images and we expect to have 6435 in total
There are 694 shellpairs in the lattice sum after screening
Available memory per thread for 2e3c calculation is 32.765603745000Gb
Finish initializing 2e3c SR with the lattice sum!
=================================================
 Aufbau occupation scheme, occupation determined by eigenvalue
 == 0-th k-point nmo = 114 (-0.26242,-0.26242,-0.26242) ==
 == 1-th k-point nmo = 114 (-0.17495,-0.17495,-0.34990) ==
 == 2-th k-point nmo = 114 (-0.08747,-0.08747,-0.43737) ==
 == 3-th k-point nmo = 114 (-0.00000,-0.00000,-0.52485) ==
 == 4-th k-point nmo = 114 (0.08747,0.08747,-0.61232) ==
 == 5-th k-point nmo = 114 (0.17495,0.17495,-0.69980) ==
 == 6-th k-point nmo = 114 (0.26242,0.26242,-0.78727) ==
 == 7-th k-point nmo = 114 (-0.17495,-0.34990,-0.17495) ==
 == 8-th k-point nmo = 114 (-0.08747,-0.26242,-0.26242) ==
 == 9-th k-point nmo = 114 (-0.00000,-0.17495,-0.34990) ==
 == 10-th k-point nmo = 114 (0.08747,-0.08747,-0.43737) ==
 == 11-th k-point nmo = 114 (0.17495,-0.00000,-0.52485) ==
 == 12-th k-point nmo = 114 (0.26242,0.08747,-0.61232) ==
 == 13-th k-point nmo = 114 (0.34990,0.17495,-0.69980) ==
 == 14-th k-point nmo = 114 (-0.08747,-0.43737,-0.08747) ==
 == 15-th k-point nmo = 114 (-0.00000,-0.34990,-0.17495) ==
 == 16-th k-point nmo = 114 (0.08747,-0.26242,-0.26242) ==
 == 17-th k-point nmo = 114 (0.17495,-0.17495,-0.34990) ==
 == 18-th k-point nmo = 114 (0.26242,-0.08747,-0.43737) ==
 == 19-th k-point nmo = 114 (0.34990,-0.00000,-0.52485) ==
 == 20-th k-point nmo = 114 (0.43737,0.08747,-0.61232) ==
 == 21-th k-point nmo = 114 (-0.00000,-0.52485,0.00000) ==
 == 22-th k-point nmo = 114 (0.08747,-0.43737,-0.08747) ==
 == 23-th k-point nmo = 114 (0.17495,-0.34990,-0.17495) ==
 == 24-th k-point nmo = 114 (0.26242,-0.26242,-0.26242) ==
 == 25-th k-point nmo = 114 (0.34990,-0.17495,-0.34990) ==
 == 26-th k-point nmo = 114 (0.43737,-0.08747,-0.43737) ==
 == 27-th k-point nmo = 114 (0.52485,0.00000,-0.52485) ==
 == 28-th k-point nmo = 114 (0.08747,-0.61232,0.08747) ==
 == 29-th k-point nmo = 114 (0.17495,-0.52485,0.00000) ==
 == 30-th k-point nmo = 114 (0.26242,-0.43737,-0.08747) ==
 == 31-th k-point nmo = 114 (0.34990,-0.34990,-0.17495) ==
 == 32-th k-point nmo = 114 (0.43737,-0.26242,-0.26242) ==
 == 33-th k-point nmo = 114 (0.52485,-0.17495,-0.34990) ==
 == 34-th k-point nmo = 114 (0.61232,-0.08747,-0.43737) ==
 == 35-th k-point nmo = 114 (0.17495,-0.69980,0.17495) ==
 == 36-th k-point nmo = 114 (0.26242,-0.61232,0.08747) ==
 == 37-th k-point nmo = 114 (0.34990,-0.52485,0.00000) ==
 == 38-th k-point nmo = 114 (0.43737,-0.43737,-0.08747) ==
 == 39-th k-point nmo = 114 (0.52485,-0.34990,-0.17495) ==
 == 40-th k-point nmo = 114 (0.61232,-0.26242,-0.26242) ==
 == 41-th k-point nmo = 114 (0.69980,-0.17495,-0.34990) ==
 == 42-th k-point nmo = 114 (0.26242,-0.78727,0.26242) ==
 == 43-th k-point nmo = 114 (0.34990,-0.69980,0.17495) ==
 == 44-th k-point nmo = 114 (0.43737,-0.61232,0.08747) ==
 == 45-th k-point nmo = 114 (0.52485,-0.52485,0.00000) ==
 == 46-th k-point nmo = 114 (0.61232,-0.43737,-0.08747) ==
 == 47-th k-point nmo = 114 (0.69980,-0.34990,-0.17495) ==
 == 48-th k-point nmo = 114 (0.78727,-0.26242,-0.26242) ==
 == 49-th k-point nmo = 114 (-0.34990,-0.17495,-0.17495) ==
 == 50-th k-point nmo = 114 (-0.26242,-0.08747,-0.26242) ==
 == 51-th k-point nmo = 114 (-0.17495,-0.00000,-0.34990) ==
 == 52-th k-point nmo = 114 (-0.08747,0.08747,-0.43737) ==
 == 53-th k-point nmo = 114 (-0.00000,0.17495,-0.52485) ==
 == 54-th k-point nmo = 114 (0.08747,0.26242,-0.61232) ==
 == 55-th k-point nmo = 114 (0.17495,0.34990,-0.69980) ==
 == 56-th k-point nmo = 114 (-0.26242,-0.26242,-0.08747) ==
 == 57-th k-point nmo = 114 (-0.17495,-0.17495,-0.17495) ==
 == 58-th k-point nmo = 114 (-0.08747,-0.08747,-0.26242) ==
 == 59-th k-point nmo = 114 (-0.00000,-0.00000,-0.34990) ==
 == 60-th k-point nmo = 114 (0.08747,0.08747,-0.43737) ==
 == 61-th k-point nmo = 114 (0.17495,0.17495,-0.52485) ==
 == 62-th k-point nmo = 114 (0.26242,0.26242,-0.61232) ==
 == 63-th k-point nmo = 114 (-0.17495,-0.34990,0.00000) ==
 == 64-th k-point nmo = 114 (-0.08747,-0.26242,-0.08747) ==
 == 65-th k-point nmo = 115 (-0.00000,-0.17495,-0.17495) ==
 == 66-th k-point nmo = 114 (0.08747,-0.08747,-0.26242) ==
 == 67-th k-point nmo = 114 (0.17495,-0.00000,-0.34990) ==
 == 68-th k-point nmo = 114 (0.26242,0.08747,-0.43737) ==
 == 69-th k-point nmo = 114 (0.34990,0.17495,-0.52485) ==
 == 70-th k-point nmo = 114 (-0.08747,-0.43737,0.08747) ==
 == 71-th k-point nmo = 114 (-0.00000,-0.34990,0.00000) ==
 == 72-th k-point nmo = 114 (0.08747,-0.26242,-0.08747) ==
 == 73-th k-point nmo = 114 (0.17495,-0.17495,-0.17495) ==
 == 74-th k-point nmo = 114 (0.26242,-0.08747,-0.26242) ==
 == 75-th k-point nmo = 114 (0.34990,0.00000,-0.34990) ==
 == 76-th k-point nmo = 114 (0.43737,0.08747,-0.43737) ==
 == 77-th k-point nmo = 114 (-0.00000,-0.52485,0.17495) ==
 == 78-th k-point nmo = 114 (0.08747,-0.43737,0.08747) ==
 == 79-th k-point nmo = 114 (0.17495,-0.34990,0.00000) ==
 == 80-th k-point nmo = 114 (0.26242,-0.26242,-0.08747) ==
 == 81-th k-point nmo = 114 (0.34990,-0.17495,-0.17495) ==
 == 82-th k-point nmo = 114 (0.43737,-0.08747,-0.26242) ==
 == 83-th k-point nmo = 114 (0.52485,0.00000,-0.34990) ==
 == 84-th k-point nmo = 114 (0.08747,-0.61232,0.26242) ==
 == 85-th k-point nmo = 114 (0.17495,-0.52485,0.17495) ==
 == 86-th k-point nmo = 114 (0.26242,-0.43737,0.08747) ==
 == 87-th k-point nmo = 114 (0.34990,-0.34990,0.00000) ==
 == 88-th k-point nmo = 114 (0.43737,-0.26242,-0.08747) ==
 == 89-th k-point nmo = 114 (0.52485,-0.17495,-0.17495) ==
 == 90-th k-point nmo = 114 (0.61232,-0.08747,-0.26242) ==
 == 91-th k-point nmo = 114 (0.17495,-0.69980,0.34990) ==
 == 92-th k-point nmo = 114 (0.26242,-0.61232,0.26242) ==
 == 93-th k-point nmo = 114 (0.34990,-0.52485,0.17495) ==
 == 94-th k-point nmo = 114 (0.43737,-0.43737,0.08747) ==
 == 95-th k-point nmo = 114 (0.52485,-0.34990,0.00000) ==
 == 96-th k-point nmo = 114 (0.61232,-0.26242,-0.08747) ==
 == 97-th k-point nmo = 114 (0.69980,-0.17495,-0.17495) ==
 == 98-th k-point nmo = 114 (-0.43737,-0.08747,-0.08747) ==
 == 99-th k-point nmo = 114 (-0.34990,-0.00000,-0.17495) ==
 == 100-th k-point nmo = 114 (-0.26242,0.08747,-0.26242) ==
 == 101-th k-point nmo = 114 (-0.17495,0.17495,-0.34990) ==
 == 102-th k-point nmo = 114 (-0.08747,0.26242,-0.43737) ==
 == 103-th k-point nmo = 114 (-0.00000,0.34990,-0.52485) ==
 == 104-th k-point nmo = 114 (0.08747,0.43737,-0.61232) ==
 == 105-th k-point nmo = 114 (-0.34990,-0.17495,0.00000) ==
 == 106-th k-point nmo = 114 (-0.26242,-0.08747,-0.08747) ==
 == 107-th k-point nmo = 115 (-0.17495,-0.00000,-0.17495) ==
 == 108-th k-point nmo = 114 (-0.08747,0.08747,-0.26242) ==
 == 109-th k-point nmo = 114 (-0.00000,0.17495,-0.34990) ==
 == 110-th k-point nmo = 114 (0.08747,0.26242,-0.43737) ==
 == 111-th k-point nmo = 114 (0.17495,0.34990,-0.52485) ==
 == 112-th k-point nmo = 114 (-0.26242,-0.26242,0.08747) ==
 == 113-th k-point nmo = 115 (-0.17495,-0.17495,0.00000) ==
 == 114-th k-point nmo = 115 (-0.08747,-0.08747,-0.08747) ==
 == 115-th k-point nmo = 115 (-0.00000,-0.00000,-0.17495) ==
 == 116-th k-point nmo = 114 (0.08747,0.08747,-0.26242) ==
 == 117-th k-point nmo = 114 (0.17495,0.17495,-0.34990) ==
 == 118-th k-point nmo = 114 (0.26242,0.26242,-0.43737) ==
 == 119-th k-point nmo = 114 (-0.17495,-0.34990,0.17495) ==
 == 120-th k-point nmo = 114 (-0.08747,-0.26242,0.08747) ==
 == 121-th k-point nmo = 115 (-0.00000,-0.17495,0.00000) ==
 == 122-th k-point nmo = 115 (0.08747,-0.08747,-0.08747) ==
 == 123-th k-point nmo = 115 (0.17495,0.00000,-0.17495) ==
 == 124-th k-point nmo = 114 (0.26242,0.08747,-0.26242) ==
 == 125-th k-point nmo = 114 (0.34990,0.17495,-0.34990) ==
 == 126-th k-point nmo = 114 (-0.08747,-0.43737,0.26242) ==
 == 127-th k-point nmo = 114 (-0.00000,-0.34990,0.17495) ==
 == 128-th k-point nmo = 114 (0.08747,-0.26242,0.08747) ==
 == 129-th k-point nmo = 115 (0.17495,-0.17495,0.00000) ==
 == 130-th k-point nmo = 114 (0.26242,-0.08747,-0.08747) ==
 == 131-th k-point nmo = 114 (0.34990,0.00000,-0.17495) ==
 == 132-th k-point nmo = 114 (0.43737,0.08747,-0.26242) ==
 == 133-th k-point nmo = 114 (-0.00000,-0.52485,0.34990) ==
 == 134-th k-point nmo = 114 (0.08747,-0.43737,0.26242) ==
 == 135-th k-point nmo = 114 (0.17495,-0.34990,0.17495) ==
 == 136-th k-point nmo = 114 (0.26242,-0.26242,0.08747) ==
 == 137-th k-point nmo = 114 (0.34990,-0.17495,0.00000) ==
 == 138-th k-point nmo = 114 (0.43737,-0.08747,-0.08747) ==
 == 139-th k-point nmo = 114 (0.52485,0.00000,-0.17495) ==
 == 140-th k-point nmo = 114 (0.08747,-0.61232,0.43737) ==
 == 141-th k-point nmo = 114 (0.17495,-0.52485,0.34990) ==
 == 142-th k-point nmo = 114 (0.26242,-0.43737,0.26242) ==
 == 143-th k-point nmo = 114 (0.34990,-0.34990,0.17495) ==
 == 144-th k-point nmo = 114 (0.43737,-0.26242,0.08747) ==
 == 145-th k-point nmo = 114 (0.52485,-0.17495,0.00000) ==
 == 146-th k-point nmo = 114 (0.61232,-0.08747,-0.08747) ==
 == 147-th k-point nmo = 114 (-0.52485,-0.00000,-0.00000) ==
 == 148-th k-point nmo = 114 (-0.43737,0.08747,-0.08747) ==
 == 149-th k-point nmo = 114 (-0.34990,0.17495,-0.17495) ==
 == 150-th k-point nmo = 114 (-0.26242,0.26242,-0.26242) ==
 == 151-th k-point nmo = 114 (-0.17495,0.34990,-0.34990) ==
 == 152-th k-point nmo = 114 (-0.08747,0.43737,-0.43737) ==
 == 153-th k-point nmo = 114 (0.00000,0.52485,-0.52485) ==
 == 154-th k-point nmo = 114 (-0.43737,-0.08747,0.08747) ==
 == 155-th k-point nmo = 114 (-0.34990,-0.00000,-0.00000) ==
 == 156-th k-point nmo = 114 (-0.26242,0.08747,-0.08747) ==
 == 157-th k-point nmo = 114 (-0.17495,0.17495,-0.17495) ==
 == 158-th k-point nmo = 114 (-0.08747,0.26242,-0.26242) ==
 == 159-th k-point nmo = 114 (0.00000,0.34990,-0.34990) ==
 == 160-th k-point nmo = 114 (0.08747,0.43737,-0.43737) ==
 == 161-th k-point nmo = 114 (-0.34990,-0.17495,0.17495) ==
 == 162-th k-point nmo = 114 (-0.26242,-0.08747,0.08747) ==
 == 163-th k-point nmo = 115 (-0.17495,-0.00000,-0.00000) ==
 == 164-th k-point nmo = 115 (-0.08747,0.08747,-0.08747) ==
 == 165-th k-point nmo = 115 (0.00000,0.17495,-0.17495) ==
 == 166-th k-point nmo = 114 (0.08747,0.26242,-0.26242) ==
 == 167-th k-point nmo = 114 (0.17495,0.34990,-0.34990) ==
 == 168-th k-point nmo = 114 (-0.26242,-0.26242,0.26242) ==
 == 169-th k-point nmo = 114 (-0.17495,-0.17495,0.17495) ==
 == 170-th k-point nmo = 115 (-0.08747,-0.08747,0.08747) ==
 == 171-th k-point nmo = 115 (0.00000,0.00000,0.00000) ==
 == 172-th k-point nmo = 115 (0.08747,0.08747,-0.08747) ==
 == 173-th k-point nmo = 114 (0.17495,0.17495,-0.17495) ==
 == 174-th k-point nmo = 114 (0.26242,0.26242,-0.26242) ==
 == 175-th k-point nmo = 114 (-0.17495,-0.34990,0.34990) ==
 == 176-th k-point nmo = 114 (-0.08747,-0.26242,0.26242) ==
 == 177-th k-point nmo = 115 (-0.00000,-0.17495,0.17495) ==
 == 178-th k-point nmo = 115 (0.08747,-0.08747,0.08747) ==
 == 179-th k-point nmo = 115 (0.17495,0.00000,0.00000) ==
 == 180-th k-point nmo = 114 (0.26242,0.08747,-0.08747) ==
 == 181-th k-point nmo = 114 (0.34990,0.17495,-0.17495) ==
 == 182-th k-point nmo = 114 (-0.08747,-0.43737,0.43737) ==
 == 183-th k-point nmo = 114 (-0.00000,-0.34990,0.34990) ==
 == 184-th k-point nmo = 114 (0.08747,-0.26242,0.26242) ==
 == 185-th k-point nmo = 114 (0.17495,-0.17495,0.17495) ==
 == 186-th k-point nmo = 114 (0.26242,-0.08747,0.08747) ==
 == 187-th k-point nmo = 114 (0.34990,0.00000,0.00000) ==
 == 188-th k-point nmo = 114 (0.43737,0.08747,-0.08747) ==
 == 189-th k-point nmo = 114 (-0.00000,-0.52485,0.52485) ==
 == 190-th k-point nmo = 114 (0.08747,-0.43737,0.43737) ==
 == 191-th k-point nmo = 114 (0.17495,-0.34990,0.34990) ==
 == 192-th k-point nmo = 114 (0.26242,-0.26242,0.26242) ==
 == 193-th k-point nmo = 114 (0.34990,-0.17495,0.17495) ==
 == 194-th k-point nmo = 114 (0.43737,-0.08747,0.08747) ==
 == 195-th k-point nmo = 114 (0.52485,0.00000,0.00000) ==
 == 196-th k-point nmo = 114 (-0.61232,0.08747,0.08747) ==
 == 197-th k-point nmo = 114 (-0.52485,0.17495,-0.00000) ==
 == 198-th k-point nmo = 114 (-0.43737,0.26242,-0.08747) ==
 == 199-th k-point nmo = 114 (-0.34990,0.34990,-0.17495) ==
 == 200-th k-point nmo = 114 (-0.26242,0.43737,-0.26242) ==
 == 201-th k-point nmo = 114 (-0.17495,0.52485,-0.34990) ==
 == 202-th k-point nmo = 114 (-0.08747,0.61232,-0.43737) ==
 == 203-th k-point nmo = 114 (-0.52485,-0.00000,0.17495) ==
 == 204-th k-point nmo = 114 (-0.43737,0.08747,0.08747) ==
 == 205-th k-point nmo = 114 (-0.34990,0.17495,-0.00000) ==
 == 206-th k-point nmo = 114 (-0.26242,0.26242,-0.08747) ==
 == 207-th k-point nmo = 114 (-0.17495,0.34990,-0.17495) ==
 == 208-th k-point nmo = 114 (-0.08747,0.43737,-0.26242) ==
 == 209-th k-point nmo = 114 (0.00000,0.52485,-0.34990) ==
 == 210-th k-point nmo = 114 (-0.43737,-0.08747,0.26242) ==
 == 211-th k-point nmo = 114 (-0.34990,-0.00000,0.17495) ==
 == 212-th k-point nmo = 114 (-0.26242,0.08747,0.08747) ==
 == 213-th k-point nmo = 115 (-0.17495,0.17495,-0.00000) ==
 == 214-th k-point nmo = 114 (-0.08747,0.26242,-0.08747) ==
 == 215-th k-point nmo = 114 (0.00000,0.34990,-0.17495) ==
 == 216-th k-point nmo = 114 (0.08747,0.43737,-0.26242) ==
 == 217-th k-point nmo = 114 (-0.34990,-0.17495,0.34990) ==
 == 218-th k-point nmo = 114 (-0.26242,-0.08747,0.26242) ==
 == 219-th k-point nmo = 115 (-0.17495,0.00000,0.17495) ==
 == 220-th k-point nmo = 115 (-0.08747,0.08747,0.08747) ==
 == 221-th k-point nmo = 115 (0.00000,0.17495,0.00000) ==
 == 222-th k-point nmo = 114 (0.08747,0.26242,-0.08747) ==
 == 223-th k-point nmo = 114 (0.17495,0.34990,-0.17495) ==
 == 224-th k-point nmo = 114 (-0.26242,-0.26242,0.43737) ==
 == 225-th k-point nmo = 114 (-0.17495,-0.17495,0.34990) ==
 == 226-th k-point nmo = 114 (-0.08747,-0.08747,0.26242) ==
 == 227-th k-point nmo = 115 (0.00000,0.00000,0.17495) ==
 == 228-th k-point nmo = 115 (0.08747,0.08747,0.08747) ==
 == 229-th k-point nmo = 115 (0.17495,0.17495,0.00000) ==
 == 230-th k-point nmo = 114 (0.26242,0.26242,-0.08747) ==
 == 231-th k-point nmo = 114 (-0.17495,-0.34990,0.52485) ==
 == 232-th k-point nmo = 114 (-0.08747,-0.26242,0.43737) ==
 == 233-th k-point nmo = 114 (0.00000,-0.17495,0.34990) ==
 == 234-th k-point nmo = 114 (0.08747,-0.08747,0.26242) ==
 == 235-th k-point nmo = 115 (0.17495,0.00000,0.17495) ==
 == 236-th k-point nmo = 114 (0.26242,0.08747,0.08747) ==
 == 237-th k-point nmo = 114 (0.34990,0.17495,0.00000) ==
 == 238-th k-point nmo = 114 (-0.08747,-0.43737,0.61232) ==
 == 239-th k-point nmo = 114 (0.00000,-0.34990,0.52485) ==
 == 240-th k-point nmo = 114 (0.08747,-0.26242,0.43737) ==
 == 241-th k-point nmo = 114 (0.17495,-0.17495,0.34990) ==
 == 242-th k-point nmo = 114 (0.26242,-0.08747,0.26242) ==
 == 243-th k-point nmo = 114 (0.34990,0.00000,0.17495) ==
 == 244-th k-point nmo = 114 (0.43737,0.08747,0.08747) ==
 == 245-th k-point nmo = 114 (-0.69980,0.17495,0.17495) ==
 == 246-th k-point nmo = 114 (-0.61232,0.26242,0.08747) ==
 == 247-th k-point nmo = 114 (-0.52485,0.34990,-0.00000) ==
 == 248-th k-point nmo = 114 (-0.43737,0.43737,-0.08747) ==
 == 249-th k-point nmo = 114 (-0.34990,0.52485,-0.17495) ==
 == 250-th k-point nmo = 114 (-0.26242,0.61232,-0.26242) ==
 == 251-th k-point nmo = 114 (-0.17495,0.69980,-0.34990) ==
 == 252-th k-point nmo = 114 (-0.61232,0.08747,0.26242) ==
 == 253-th k-point nmo = 114 (-0.52485,0.17495,0.17495) ==
 == 254-th k-point nmo = 114 (-0.43737,0.26242,0.08747) ==
 == 255-th k-point nmo = 114 (-0.34990,0.34990,-0.00000) ==
 == 256-th k-point nmo = 114 (-0.26242,0.43737,-0.08747) ==
 == 257-th k-point nmo = 114 (-0.17495,0.52485,-0.17495) ==
 == 258-th k-point nmo = 114 (-0.08747,0.61232,-0.26242) ==
 == 259-th k-point nmo = 114 (-0.52485,-0.00000,0.34990) ==
 == 260-th k-point nmo = 114 (-0.43737,0.08747,0.26242) ==
 == 261-th k-point nmo = 114 (-0.34990,0.17495,0.17495) ==
 == 262-th k-point nmo = 114 (-0.26242,0.26242,0.08747) ==
 == 263-th k-point nmo = 114 (-0.17495,0.34990,-0.00000) ==
 == 264-th k-point nmo = 114 (-0.08747,0.43737,-0.08747) ==
 == 265-th k-point nmo = 114 (0.00000,0.52485,-0.17495) ==
 == 266-th k-point nmo = 114 (-0.43737,-0.08747,0.43737) ==
 == 267-th k-point nmo = 114 (-0.34990,0.00000,0.34990) ==
 == 268-th k-point nmo = 114 (-0.26242,0.08747,0.26242) ==
 == 269-th k-point nmo = 114 (-0.17495,0.17495,0.17495) ==
 == 270-th k-point nmo = 114 (-0.08747,0.26242,0.08747) ==
 == 271-th k-point nmo = 114 (0.00000,0.34990,0.00000) ==
 == 272-th k-point nmo = 114 (0.08747,0.43737,-0.08747) ==
 == 273-th k-point nmo = 114 (-0.34990,-0.17495,0.52485) ==
 == 274-th k-point nmo = 114 (-0.26242,-0.08747,0.43737) ==
 == 275-th k-point nmo = 114 (-0.17495,0.00000,0.34990) ==
 == 276-th k-point nmo = 114 (-0.08747,0.08747,0.26242) ==
 == 277-th k-point nmo = 115 (0.00000,0.17495,0.17495) ==
 == 278-th k-point nmo = 114 (0.08747,0.26242,0.08747) ==
 == 279-th k-point nmo = 114 (0.17495,0.34990,0.00000) ==
 == 280-th k-point nmo = 114 (-0.26242,-0.26242,0.61232) ==
 == 281-th k-point nmo = 114 (-0.17495,-0.17495,0.52485) ==
 == 282-th k-point nmo = 114 (-0.08747,-0.08747,0.43737) ==
 == 283-th k-point nmo = 114 (0.00000,0.00000,0.34990) ==
 == 284-th k-point nmo = 114 (0.08747,0.08747,0.26242) ==
 == 285-th k-point nmo = 114 (0.17495,0.17495,0.17495) ==
 == 286-th k-point nmo = 114 (0.26242,0.26242,0.08747) ==
 == 287-th k-point nmo = 114 (-0.17495,-0.34990,0.69980) ==
 == 288-th k-point nmo = 114 (-0.08747,-0.26242,0.61232) ==
 == 289-th k-point nmo = 114 (0.00000,-0.17495,0.52485) ==
 == 290-th k-point nmo = 114 (0.08747,-0.08747,0.43737) ==
 == 291-th k-point nmo = 114 (0.17495,0.00000,0.34990) ==
 == 292-th k-point nmo = 114 (0.26242,0.08747,0.26242) ==
 == 293-th k-point nmo = 114 (0.34990,0.17495,0.17495) ==
 == 294-th k-point nmo = 114 (-0.78727,0.26242,0.26242) ==
 == 295-th k-point nmo = 114 (-0.69980,0.34990,0.17495) ==
 == 296-th k-point nmo = 114 (-0.61232,0.43737,0.08747) ==
 == 297-th k-point nmo = 114 (-0.52485,0.52485,-0.00000) ==
 == 298-th k-point nmo = 114 (-0.43737,0.61232,-0.08747) ==
 == 299-th k-point nmo = 114 (-0.34990,0.69980,-0.17495) ==
 == 300-th k-point nmo = 114 (-0.26242,0.78727,-0.26242) ==
 == 301-th k-point nmo = 114 (-0.69980,0.17495,0.34990) ==
 == 302-th k-point nmo = 114 (-0.61232,0.26242,0.26242) ==
 == 303-th k-point nmo = 114 (-0.52485,0.34990,0.17495) ==
 == 304-th k-point nmo = 114 (-0.43737,0.43737,0.08747) ==
 == 305-th k-point nmo = 114 (-0.34990,0.52485,-0.00000) ==
 == 306-th k-point nmo = 114 (-0.26242,0.61232,-0.08747) ==
 == 307-th k-point nmo = 114 (-0.17495,0.69980,-0.17495) ==
 == 308-th k-point nmo = 114 (-0.61232,0.08747,0.43737) ==
 == 309-th k-point nmo = 114 (-0.52485,0.17495,0.34990) ==
 == 310-th k-point nmo = 114 (-0.43737,0.26242,0.26242) ==
 == 311-th k-point nmo = 114 (-0.34990,0.34990,0.17495) ==
 == 312-th k-point nmo = 114 (-0.26242,0.43737,0.08747) ==
 == 313-th k-point nmo = 114 (-0.17495,0.52485,0.00000) ==
 == 314-th k-point nmo = 114 (-0.08747,0.61232,-0.08747) ==
 == 315-th k-point nmo = 114 (-0.52485,0.00000,0.52485) ==
 == 316-th k-point nmo = 114 (-0.43737,0.08747,0.43737) ==
 == 317-th k-point nmo = 114 (-0.34990,0.17495,0.34990) ==
 == 318-th k-point nmo = 114 (-0.26242,0.26242,0.26242) ==
 == 319-th k-point nmo = 114 (-0.17495,0.34990,0.17495) ==
 == 320-th k-point nmo = 114 (-0.08747,0.43737,0.08747) ==
 == 321-th k-point nmo = 114 (0.00000,0.52485,0.00000) ==
 == 322-th k-point nmo = 114 (-0.43737,-0.08747,0.61232) ==
 == 323-th k-point nmo = 114 (-0.34990,0.00000,0.52485) ==
 == 324-th k-point nmo = 114 (-0.26242,0.08747,0.43737) ==
 == 325-th k-point nmo = 114 (-0.17495,0.17495,0.34990) ==
 == 326-th k-point nmo = 114 (-0.08747,0.26242,0.26242) ==
 == 327-th k-point nmo = 114 (0.00000,0.34990,0.17495) ==
 == 328-th k-point nmo = 114 (0.08747,0.43737,0.08747) ==
 == 329-th k-point nmo = 114 (-0.34990,-0.17495,0.69980) ==
 == 330-th k-point nmo = 114 (-0.26242,-0.08747,0.61232) ==
 == 331-th k-point nmo = 114 (-0.17495,0.00000,0.52485) ==
 == 332-th k-point nmo = 114 (-0.08747,0.08747,0.43737) ==
 == 333-th k-point nmo = 114 (0.00000,0.17495,0.34990) ==
 == 334-th k-point nmo = 114 (0.08747,0.26242,0.26242) ==
 == 335-th k-point nmo = 114 (0.17495,0.34990,0.17495) ==
 == 336-th k-point nmo = 114 (-0.26242,-0.26242,0.78727) ==
 == 337-th k-point nmo = 114 (-0.17495,-0.17495,0.69980) ==
 == 338-th k-point nmo = 114 (-0.08747,-0.08747,0.61232) ==
 == 339-th k-point nmo = 114 (0.00000,0.00000,0.52485) ==
 == 340-th k-point nmo = 114 (0.08747,0.08747,0.43737) ==
 == 341-th k-point nmo = 114 (0.17495,0.17495,0.34990) ==
 == 342-th k-point nmo = 114 (0.26242,0.26242,0.26242) ==

 Generate autoSAD guess
backing up fragment data
Atom # 0: si, charge: 0, multiplicity: 3.000000
writing autosad to fragment context
Settings for isolated fragments: 
  frgm_gamma: TRUE
  frgm_center: FALSE

    Running SCF for isolated atom #0
    Fragment Input file: /n/netscratch/joonholee_lab/Lab/hieudinh//si_2_ccpvqz_omega_0.9_777.scratch20250909033258/autosad_frgmt_0/frgmt_input.in
    Fragment Output file: /n/netscratch/joonholee_lab/Lab/hieudinh//si_2_ccpvqz_omega_0.9_777.scratch20250909033258/autosad_frgmt_0/frgmt_job.out
    Fragment job begins at Tue Sep  9 03:33:06 2025

 Integrated density by DFT XC:
   Numerical integral  =    13.999999643759
   Relative error      =     0.0000025446 %
Final energy components:
 DFT Correlation            Energy =  -0.48370207231611
 DFT Exchange               Energy = -20.13940840112217
 Kinetic (alpha)            Energy = 145.05483363964768
 Kinetic (beta)             Energy = 143.11842945473236
 Nuclear Attraction (alpha) Energy = -351.06191315317926
 Nuclear Attraction (beta)  Energy = -337.54515075030349
 Nuclear Repulsion          Energy =   0.00000000000000
 SEOQF                      Energy =  -0.00000000010144
 Total Coulomb              Energy = 131.82731983024485
----------------------------------------------
    SCF Energy: -289.2295914524
   Total fragment job time:  0.49 s.
restoring fragment data

 ------------------------------------------------------------------------
 Allocate 238016144 B from available memory: 1048499319840 B
 Time for generating SCF guess: 0.59 s

 Allocate 97424 B from available memory: 1048261303712 B
 Selected algorithms for each term:
  kpts_kinetic -> @0x154b04cb0680
  kpts_nn -> @0x154b04cb0800
  kpts_rij_bigmem -> @0x154b04cb03e0
  kpts_vnuc_df -> @0x154b04cb0380
  kpts_xc -> @0x154b04cb02c0
 Time for computing kinetic matrix is 3.53 s
Start calculating Vnuc DD type!
Start calculating Vnuc CD type!
Start calculating Vnuc CC type!
 Time for computing nuclear attraction matrix is 9.33 s
Compute (P|Q) and use solve on the fly!
Maximum distance between P and Q is 28.44997180930993
Number of images for (P|Qn) is 887
 Time for computing 2e2c SR integral is 0.11 s
Maximum dynamic memory per thread for 2e3c SR integrals: 0.100 GiB
Batch size for basis function pair is 3480 out of 3480
 === bvk cell = 0 has 100.000 % of the basis function pairs === 
 === bvk cell = 1 has 97.241 % of the basis function pairs === 
 === bvk cell = 2 has 47.586 % of the basis function pairs === 
 === bvk cell = 3 has 8.621 % of the basis function pairs === 
 === bvk cell = 4 has 8.621 % of the basis function pairs === 
 === bvk cell = 5 has 47.586 % of the basis function pairs === 
 === bvk cell = 6 has 97.241 % of the basis function pairs === 
 === bvk cell = 7 has 97.241 % of the basis function pairs === 
 === bvk cell = 8 has 61.609 % of the basis function pairs === 
 === bvk cell = 9 has 16.466 % of the basis function pairs === 
 === bvk cell = 10 has 2.586 % of the basis function pairs === 
 === bvk cell = 11 has 15.230 % of the basis function pairs === 
 === bvk cell = 12 has 62.672 % of the basis function pairs === 
 === bvk cell = 13 has 100.000 % of the basis function pairs === 
 === bvk cell = 14 has 47.586 % of the basis function pairs === 
 === bvk cell = 15 has 16.466 % of the basis function pairs === 
 === bvk cell = 16 has 3.448 % of the basis function pairs === 
 === bvk cell = 17 has 0.000 % of the basis function pairs === 
 === bvk cell = 18 has 13.793 % of the basis function pairs === 
 === bvk cell = 19 has 41.034 % of the basis function pairs === 
 === bvk cell = 20 has 62.672 % of the basis function pairs === 
 === bvk cell = 21 has 8.621 % of the basis function pairs === 
 === bvk cell = 22 has 2.586 % of the basis function pairs === 
 === bvk cell = 23 has 0.000 % of the basis function pairs === 
 === bvk cell = 24 has 0.000 % of the basis function pairs === 
 === bvk cell = 25 has 10.345 % of the basis function pairs === 
 === bvk cell = 26 has 13.793 % of the basis function pairs === 
 === bvk cell = 27 has 15.230 % of the basis function pairs === 
 === bvk cell = 28 has 8.621 % of the basis function pairs === 
 === bvk cell = 29 has 15.230 % of the basis function pairs === 
 === bvk cell = 30 has 13.793 % of the basis function pairs === 
 === bvk cell = 31 has 10.345 % of the basis function pairs === 
 === bvk cell = 32 has 0.000 % of the basis function pairs === 
 === bvk cell = 33 has 0.000 % of the basis function pairs === 
 === bvk cell = 34 has 2.586 % of the basis function pairs === 
 === bvk cell = 35 has 47.586 % of the basis function pairs === 
 === bvk cell = 36 has 62.672 % of the basis function pairs === 
 === bvk cell = 37 has 41.034 % of the basis function pairs === 
 === bvk cell = 38 has 13.793 % of the basis function pairs === 
 === bvk cell = 39 has 0.000 % of the basis function pairs === 
 === bvk cell = 40 has 3.448 % of the basis function pairs === 
 === bvk cell = 41 has 16.466 % of the basis function pairs === 
 === bvk cell = 42 has 97.241 % of the basis function pairs === 
 === bvk cell = 43 has 100.000 % of the basis function pairs === 
 === bvk cell = 44 has 62.672 % of the basis function pairs === 
 === bvk cell = 45 has 15.230 % of the basis function pairs === 
 === bvk cell = 46 has 2.586 % of the basis function pairs === 
 === bvk cell = 47 has 16.466 % of the basis function pairs === 
 === bvk cell = 48 has 61.609 % of the basis function pairs === 
 === bvk cell = 49 has 97.241 % of the basis function pairs === 
 === bvk cell = 50 has 61.609 % of the basis function pairs === 
 === bvk cell = 51 has 16.466 % of the basis function pairs === 
 === bvk cell = 52 has 2.586 % of the basis function pairs === 
 === bvk cell = 53 has 15.230 % of the basis function pairs === 
 === bvk cell = 54 has 62.672 % of the basis function pairs === 
 === bvk cell = 55 has 100.000 % of the basis function pairs === 
 === bvk cell = 56 has 61.609 % of the basis function pairs === 
 === bvk cell = 57 has 23.908 % of the basis function pairs === 
 === bvk cell = 58 has 3.448 % of the basis function pairs === 
 === bvk cell = 59 has 2.586 % of the basis function pairs === 
 === bvk cell = 60 has 16.092 % of the basis function pairs === 
 === bvk cell = 61 has 59.713 % of the basis function pairs === 
 === bvk cell = 62 has 87.874 % of the basis function pairs === 
 === bvk cell = 63 has 16.466 % of the basis function pairs === 
 === bvk cell = 64 has 3.448 % of the basis function pairs === 
 === bvk cell = 65 has 0.000 % of the basis function pairs === 
 === bvk cell = 66 has 0.000 % of the basis function pairs === 
 === bvk cell = 67 has 13.793 % of the basis function pairs === 
 === bvk cell = 68 has 25.948 % of the basis function pairs === 
 === bvk cell = 69 has 30.805 % of the basis function pairs === 
 === bvk cell = 70 has 2.586 % of the basis function pairs === 
 === bvk cell = 71 has 2.586 % of the basis function pairs === 
 === bvk cell = 72 has 0.000 % of the basis function pairs === 
 === bvk cell = 73 has 0.000 % of the basis function pairs === 
 === bvk cell = 74 has 7.759 % of the basis function pairs === 
 === bvk cell = 75 has 8.621 % of the basis function pairs === 
 === bvk cell = 76 has 8.621 % of the basis function pairs === 
 === bvk cell = 77 has 15.230 % of the basis function pairs === 
 === bvk cell = 78 has 16.092 % of the basis function pairs === 
 === bvk cell = 79 has 13.793 % of the basis function pairs === 
 === bvk cell = 80 has 7.759 % of the basis function pairs === 
 === bvk cell = 81 has 0.000 % of the basis function pairs === 
 === bvk cell = 82 has 0.000 % of the basis function pairs === 
 === bvk cell = 83 has 8.621 % of the basis function pairs === 
 === bvk cell = 84 has 62.672 % of the basis function pairs === 
 === bvk cell = 85 has 59.713 % of the basis function pairs === 
 === bvk cell = 86 has 25.948 % of the basis function pairs === 
 === bvk cell = 87 has 8.621 % of the basis function pairs === 
 === bvk cell = 88 has 0.000 % of the basis function pairs === 
 === bvk cell = 89 has 8.621 % of the basis function pairs === 
 === bvk cell = 90 has 30.805 % of the basis function pairs === 
 === bvk cell = 91 has 100.000 % of the basis function pairs === 
 === bvk cell = 92 has 87.874 % of the basis function pairs === 
 === bvk cell = 93 has 30.805 % of the basis function pairs === 
 === bvk cell = 94 has 8.621 % of the basis function pairs === 
 === bvk cell = 95 has 8.621 % of the basis function pairs === 
 === bvk cell = 96 has 30.805 % of the basis function pairs === 
 === bvk cell = 97 has 87.874 % of the basis function pairs === 
 === bvk cell = 98 has 47.586 % of the basis function pairs === 
 === bvk cell = 99 has 16.466 % of the basis function pairs === 
 === bvk cell = 100 has 3.448 % of the basis function pairs === 
 === bvk cell = 101 has 0.000 % of the basis function pairs === 
 === bvk cell = 102 has 13.793 % of the basis function pairs === 
 === bvk cell = 103 has 41.034 % of the basis function pairs === 
 === bvk cell = 104 has 62.672 % of the basis function pairs === 
 === bvk cell = 105 has 16.466 % of the basis function pairs === 
 === bvk cell = 106 has 3.448 % of the basis function pairs === 
 === bvk cell = 107 has 0.000 % of the basis function pairs === 
 === bvk cell = 108 has 0.000 % of the basis function pairs === 
 === bvk cell = 109 has 13.793 % of the basis function pairs === 
 === bvk cell = 110 has 25.948 % of the basis function pairs === 
 === bvk cell = 111 has 30.805 % of the basis function pairs === 
 === bvk cell = 112 has 3.448 % of the basis function pairs === 
 === bvk cell = 113 has 0.000 % of the basis function pairs === 
 === bvk cell = 114 has 0.000 % of the basis function pairs === 
 === bvk cell = 115 has 0.000 % of the basis function pairs === 
 === bvk cell = 116 has 8.621 % of the basis function pairs === 
 === bvk cell = 117 has 10.345 % of the basis function pairs === 
 === bvk cell = 118 has 8.621 % of the basis function pairs === 
 === bvk cell = 119 has 0.000 % of the basis function pairs === 
 === bvk cell = 120 has 0.000 % of the basis function pairs === 
 === bvk cell = 121 has 0.000 % of the basis function pairs === 
 === bvk cell = 122 has 0.000 % of the basis function pairs === 
 === bvk cell = 123 has 0.000 % of the basis function pairs === 
 === bvk cell = 124 has 0.000 % of the basis function pairs === 
 === bvk cell = 125 has 0.000 % of the basis function pairs === 
 === bvk cell = 126 has 13.793 % of the basis function pairs === 
 === bvk cell = 127 has 13.793 % of the basis function pairs === 
 === bvk cell = 128 has 8.621 % of the basis function pairs === 
 === bvk cell = 129 has 0.000 % of the basis function pairs === 
 === bvk cell = 130 has 0.000 % of the basis function pairs === 
 === bvk cell = 131 has 0.000 % of the basis function pairs === 
 === bvk cell = 132 has 8.621 % of the basis function pairs === 
 === bvk cell = 133 has 41.034 % of the basis function pairs === 
 === bvk cell = 134 has 25.948 % of the basis function pairs === 
 === bvk cell = 135 has 10.345 % of the basis function pairs === 
 === bvk cell = 136 has 0.000 % of the basis function pairs === 
 === bvk cell = 137 has 0.000 % of the basis function pairs === 
 === bvk cell = 138 has 10.345 % of the basis function pairs === 
 === bvk cell = 139 has 25.948 % of the basis function pairs === 
 === bvk cell = 140 has 62.672 % of the basis function pairs === 
 === bvk cell = 141 has 30.805 % of the basis function pairs === 
 === bvk cell = 142 has 8.621 % of the basis function pairs === 
 === bvk cell = 143 has 0.000 % of the basis function pairs === 
 === bvk cell = 144 has 8.621 % of the basis function pairs === 
 === bvk cell = 145 has 25.948 % of the basis function pairs === 
 === bvk cell = 146 has 59.713 % of the basis function pairs === 
 === bvk cell = 147 has 8.621 % of the basis function pairs === 
 === bvk cell = 148 has 2.586 % of the basis function pairs === 
 === bvk cell = 149 has 0.000 % of the basis function pairs === 
 === bvk cell = 150 has 0.000 % of the basis function pairs === 
 === bvk cell = 151 has 10.345 % of the basis function pairs === 
 === bvk cell = 152 has 13.793 % of the basis function pairs === 
 === bvk cell = 153 has 15.230 % of the basis function pairs === 
 === bvk cell = 154 has 2.586 % of the basis function pairs === 
 === bvk cell = 155 has 2.586 % of the basis function pairs === 
 === bvk cell = 156 has 0.000 % of the basis function pairs === 
 === bvk cell = 157 has 0.000 % of the basis function pairs === 
 === bvk cell = 158 has 7.759 % of the basis function pairs === 
 === bvk cell = 159 has 8.621 % of the basis function pairs === 
 === bvk cell = 160 has 8.621 % of the basis function pairs === 
 === bvk cell = 161 has 0.000 % of the basis function pairs === 
 === bvk cell = 162 has 0.000 % of the basis function pairs === 
 === bvk cell = 163 has 0.000 % of the basis function pairs === 
 === bvk cell = 164 has 0.000 % of the basis function pairs === 
 === bvk cell = 165 has 0.000 % of the basis function pairs === 
 === bvk cell = 166 has 0.000 % of the basis function pairs === 
 === bvk cell = 167 has 0.000 % of the basis function pairs === 
 === bvk cell = 168 has 0.000 % of the basis function pairs === 
 === bvk cell = 169 has 0.000 % of the basis function pairs === 
 === bvk cell = 170 has 0.000 % of the basis function pairs === 
 === bvk cell = 171 has 0.000 % of the basis function pairs === 
 === bvk cell = 172 has 0.000 % of the basis function pairs === 
 === bvk cell = 173 has 0.000 % of the basis function pairs === 
 === bvk cell = 174 has 0.000 % of the basis function pairs === 
 === bvk cell = 175 has 10.345 % of the basis function pairs === 
 === bvk cell = 176 has 7.759 % of the basis function pairs === 
 === bvk cell = 177 has 0.000 % of the basis function pairs === 
 === bvk cell = 178 has 0.000 % of the basis function pairs === 
 === bvk cell = 179 has 0.000 % of the basis function pairs === 
 === bvk cell = 180 has 0.000 % of the basis function pairs === 
 === bvk cell = 181 has 7.759 % of the basis function pairs === 
 === bvk cell = 182 has 13.793 % of the basis function pairs === 
 === bvk cell = 183 has 8.621 % of the basis function pairs === 
 === bvk cell = 184 has 0.000 % of the basis function pairs === 
 === bvk cell = 185 has 0.000 % of the basis function pairs === 
 === bvk cell = 186 has 0.000 % of the basis function pairs === 
 === bvk cell = 187 has 8.621 % of the basis function pairs === 
 === bvk cell = 188 has 13.793 % of the basis function pairs === 
 === bvk cell = 189 has 15.230 % of the basis function pairs === 
 === bvk cell = 190 has 8.621 % of the basis function pairs === 
 === bvk cell = 191 has 0.000 % of the basis function pairs === 
 === bvk cell = 192 has 0.000 % of the basis function pairs === 
 === bvk cell = 193 has 7.759 % of the basis function pairs === 
 === bvk cell = 194 has 13.793 % of the basis function pairs === 
 === bvk cell = 195 has 16.092 % of the basis function pairs === 
 === bvk cell = 196 has 8.621 % of the basis function pairs === 
 === bvk cell = 197 has 15.230 % of the basis function pairs === 
 === bvk cell = 198 has 13.793 % of the basis function pairs === 
 === bvk cell = 199 has 10.345 % of the basis function pairs === 
 === bvk cell = 200 has 0.000 % of the basis function pairs === 
 === bvk cell = 201 has 0.000 % of the basis function pairs === 
 === bvk cell = 202 has 2.586 % of the basis function pairs === 
 === bvk cell = 203 has 15.230 % of the basis function pairs === 
 === bvk cell = 204 has 16.092 % of the basis function pairs === 
 === bvk cell = 205 has 13.793 % of the basis function pairs === 
 === bvk cell = 206 has 7.759 % of the basis function pairs === 
 === bvk cell = 207 has 0.000 % of the basis function pairs === 
 === bvk cell = 208 has 0.000 % of the basis function pairs === 
 === bvk cell = 209 has 8.621 % of the basis function pairs === 
 === bvk cell = 210 has 13.793 % of the basis function pairs === 
 === bvk cell = 211 has 13.793 % of the basis function pairs === 
 === bvk cell = 212 has 8.621 % of the basis function pairs === 
 === bvk cell = 213 has 0.000 % of the basis function pairs === 
 === bvk cell = 214 has 0.000 % of the basis function pairs === 
 === bvk cell = 215 has 0.000 % of the basis function pairs === 
 === bvk cell = 216 has 8.621 % of the basis function pairs === 
 === bvk cell = 217 has 10.345 % of the basis function pairs === 
 === bvk cell = 218 has 7.759 % of the basis function pairs === 
 === bvk cell = 219 has 0.000 % of the basis function pairs === 
 === bvk cell = 220 has 0.000 % of the basis function pairs === 
 === bvk cell = 221 has 0.000 % of the basis function pairs === 
 === bvk cell = 222 has 0.000 % of the basis function pairs === 
 === bvk cell = 223 has 7.759 % of the basis function pairs === 
 === bvk cell = 224 has 0.000 % of the basis function pairs === 
 === bvk cell = 225 has 0.000 % of the basis function pairs === 
 === bvk cell = 226 has 0.000 % of the basis function pairs === 
 === bvk cell = 227 has 0.000 % of the basis function pairs === 
 === bvk cell = 228 has 0.000 % of the basis function pairs === 
 === bvk cell = 229 has 0.000 % of the basis function pairs === 
 === bvk cell = 230 has 0.000 % of the basis function pairs === 
 === bvk cell = 231 has 0.000 % of the basis function pairs === 
 === bvk cell = 232 has 0.000 % of the basis function pairs === 
 === bvk cell = 233 has 0.000 % of the basis function pairs === 
 === bvk cell = 234 has 0.000 % of the basis function pairs === 
 === bvk cell = 235 has 0.000 % of the basis function pairs === 
 === bvk cell = 236 has 0.000 % of the basis function pairs === 
 === bvk cell = 237 has 0.000 % of the basis function pairs === 
 === bvk cell = 238 has 2.586 % of the basis function pairs === 
 === bvk cell = 239 has 8.621 % of the basis function pairs === 
 === bvk cell = 240 has 8.621 % of the basis function pairs === 
 === bvk cell = 241 has 7.759 % of the basis function pairs === 
 === bvk cell = 242 has 0.000 % of the basis function pairs === 
 === bvk cell = 243 has 0.000 % of the basis function pairs === 
 === bvk cell = 244 has 2.586 % of the basis function pairs === 
 === bvk cell = 245 has 47.586 % of the basis function pairs === 
 === bvk cell = 246 has 62.672 % of the basis function pairs === 
 === bvk cell = 247 has 41.034 % of the basis function pairs === 
 === bvk cell = 248 has 13.793 % of the basis function pairs === 
 === bvk cell = 249 has 0.000 % of the basis function pairs === 
 === bvk cell = 250 has 3.448 % of the basis function pairs === 
 === bvk cell = 251 has 16.466 % of the basis function pairs === 
 === bvk cell = 252 has 62.672 % of the basis function pairs === 
 === bvk cell = 253 has 59.713 % of the basis function pairs === 
 === bvk cell = 254 has 25.948 % of the basis function pairs === 
 === bvk cell = 255 has 8.621 % of the basis function pairs === 
 === bvk cell = 256 has 0.000 % of the basis function pairs === 
 === bvk cell = 257 has 8.621 % of the basis function pairs === 
 === bvk cell = 258 has 30.805 % of the basis function pairs === 
 === bvk cell = 259 has 41.034 % of the basis function pairs === 
 === bvk cell = 260 has 25.948 % of the basis function pairs === 
 === bvk cell = 261 has 10.345 % of the basis function pairs === 
 === bvk cell = 262 has 0.000 % of the basis function pairs === 
 === bvk cell = 263 has 0.000 % of the basis function pairs === 
 === bvk cell = 264 has 10.345 % of the basis function pairs === 
 === bvk cell = 265 has 25.948 % of the basis function pairs === 
 === bvk cell = 266 has 13.793 % of the basis function pairs === 
 === bvk cell = 267 has 8.621 % of the basis function pairs === 
 === bvk cell = 268 has 0.000 % of the basis function pairs === 
 === bvk cell = 269 has 0.000 % of the basis function pairs === 
 === bvk cell = 270 has 0.000 % of the basis function pairs === 
 === bvk cell = 271 has 8.621 % of the basis function pairs === 
 === bvk cell = 272 has 13.793 % of the basis function pairs === 
 === bvk cell = 273 has 0.000 % of the basis function pairs === 
 === bvk cell = 274 has 0.000 % of the basis function pairs === 
 === bvk cell = 275 has 0.000 % of the basis function pairs === 
 === bvk cell = 276 has 0.000 % of the basis function pairs === 
 === bvk cell = 277 has 0.000 % of the basis function pairs === 
 === bvk cell = 278 has 0.000 % of the basis function pairs === 
 === bvk cell = 279 has 0.000 % of the basis function pairs === 
 === bvk cell = 280 has 3.448 % of the basis function pairs === 
 === bvk cell = 281 has 8.621 % of the basis function pairs === 
 === bvk cell = 282 has 10.345 % of the basis function pairs === 
 === bvk cell = 283 has 8.621 % of the basis function pairs === 
 === bvk cell = 284 has 0.000 % of the basis function pairs === 
 === bvk cell = 285 has 0.000 % of the basis function pairs === 
 === bvk cell = 286 has 0.000 % of the basis function pairs === 
 === bvk cell = 287 has 16.466 % of the basis function pairs === 
 === bvk cell = 288 has 30.805 % of the basis function pairs === 
 === bvk cell = 289 has 25.948 % of the basis function pairs === 
 === bvk cell = 290 has 13.793 % of the basis function pairs === 
 === bvk cell = 291 has 0.000 % of the basis function pairs === 
 === bvk cell = 292 has 0.000 % of the basis function pairs === 
 === bvk cell = 293 has 3.448 % of the basis function pairs === 
 === bvk cell = 294 has 97.241 % of the basis function pairs === 
 === bvk cell = 295 has 100.000 % of the basis function pairs === 
 === bvk cell = 296 has 62.672 % of the basis function pairs === 
 === bvk cell = 297 has 15.230 % of the basis function pairs === 
 === bvk cell = 298 has 2.586 % of the basis function pairs === 
 === bvk cell = 299 has 16.466 % of the basis function pairs === 
 === bvk cell = 300 has 61.609 % of the basis function pairs === 
 === bvk cell = 301 has 100.000 % of the basis function pairs === 
 === bvk cell = 302 has 87.874 % of the basis function pairs === 
 === bvk cell = 303 has 30.805 % of the basis function pairs === 
 === bvk cell = 304 has 8.621 % of the basis function pairs === 
 === bvk cell = 305 has 8.621 % of the basis function pairs === 
 === bvk cell = 306 has 30.805 % of the basis function pairs === 
 === bvk cell = 307 has 87.874 % of the basis function pairs === 
 === bvk cell = 308 has 62.672 % of the basis function pairs === 
 === bvk cell = 309 has 30.805 % of the basis function pairs === 
 === bvk cell = 310 has 8.621 % of the basis function pairs === 
 === bvk cell = 311 has 0.000 % of the basis function pairs === 
 === bvk cell = 312 has 8.621 % of the basis function pairs === 
 === bvk cell = 313 has 25.948 % of the basis function pairs === 
 === bvk cell = 314 has 59.713 % of the basis function pairs === 
 === bvk cell = 315 has 15.230 % of the basis function pairs === 
 === bvk cell = 316 has 8.621 % of the basis function pairs === 
 === bvk cell = 317 has 0.000 % of the basis function pairs === 
 === bvk cell = 318 has 0.000 % of the basis function pairs === 
 === bvk cell = 319 has 7.759 % of the basis function pairs === 
 === bvk cell = 320 has 13.793 % of the basis function pairs === 
 === bvk cell = 321 has 16.092 % of the basis function pairs === 
 === bvk cell = 322 has 2.586 % of the basis function pairs === 
 === bvk cell = 323 has 8.621 % of the basis function pairs === 
 === bvk cell = 324 has 8.621 % of the basis function pairs === 
 === bvk cell = 325 has 7.759 % of the basis function pairs === 
 === bvk cell = 326 has 0.000 % of the basis function pairs === 
 === bvk cell = 327 has 0.000 % of the basis function pairs === 
 === bvk cell = 328 has 2.586 % of the basis function pairs === 
 === bvk cell = 329 has 16.466 % of the basis function pairs === 
 === bvk cell = 330 has 30.805 % of the basis function pairs === 
 === bvk cell = 331 has 25.948 % of the basis function pairs === 
 === bvk cell = 332 has 13.793 % of the basis function pairs === 
 === bvk cell = 333 has 0.000 % of the basis function pairs === 
 === bvk cell = 334 has 0.000 % of the basis function pairs === 
 === bvk cell = 335 has 3.448 % of the basis function pairs === 
 === bvk cell = 336 has 61.609 % of the basis function pairs === 
 === bvk cell = 337 has 87.874 % of the basis function pairs === 
 === bvk cell = 338 has 59.713 % of the basis function pairs === 
 === bvk cell = 339 has 16.092 % of the basis function pairs === 
 === bvk cell = 340 has 2.586 % of the basis function pairs === 
 === bvk cell = 341 has 3.448 % of the basis function pairs === 
 === bvk cell = 342 has 23.908 % of the basis function pairs === 
Static memory requirement for 2e3c SR integrals: 0.463 GB
There are 1 munu batches for computing 2e3c SR integrals with latsum
There are 5 Q batches for computing 2e3c SR integrals with latsum
 Time for computing 2e3c SR integral (CD) is 2.33 s
Maximum dynamic memory per thread for 2e3c SR integrals: 0.014 GiB
Batch size for basis function pair is 2000 out of 2000
 === bvk cell = 0 has 100.000 % of the basis function pairs === 
 === bvk cell = 1 has 79.800 % of the basis function pairs === 
 === bvk cell = 2 has 0.000 % of the basis function pairs === 
 === bvk cell = 3 has 0.000 % of the basis function pairs === 
 === bvk cell = 4 has 0.000 % of the basis function pairs === 
 === bvk cell = 5 has 0.000 % of the basis function pairs === 
 === bvk cell = 6 has 69.800 % of the basis function pairs === 
 === bvk cell = 7 has 79.800 % of the basis function pairs === 
 === bvk cell = 8 has 22.100 % of the basis function pairs === 
 === bvk cell = 9 has 0.000 % of the basis function pairs === 
 === bvk cell = 10 has 0.000 % of the basis function pairs === 
 === bvk cell = 11 has 0.000 % of the basis function pairs === 
 === bvk cell = 12 has 0.000 % of the basis function pairs === 
 === bvk cell = 13 has 88.750 % of the basis function pairs === 
 === bvk cell = 14 has 0.000 % of the basis function pairs === 
 === bvk cell = 15 has 0.000 % of the basis function pairs === 
 === bvk cell = 16 has 0.000 % of the basis function pairs === 
 === bvk cell = 17 has 0.000 % of the basis function pairs === 
 === bvk cell = 18 has 0.000 % of the basis function pairs === 
 === bvk cell = 19 has 0.000 % of the basis function pairs === 
 === bvk cell = 20 has 0.000 % of the basis function pairs === 
 === bvk cell = 21 has 0.000 % of the basis function pairs === 
 === bvk cell = 22 has 0.000 % of the basis function pairs === 
 === bvk cell = 23 has 0.000 % of the basis function pairs === 
 === bvk cell = 24 has 0.000 % of the basis function pairs === 
 === bvk cell = 25 has 0.000 % of the basis function pairs === 
 === bvk cell = 26 has 0.000 % of the basis function pairs === 
 === bvk cell = 27 has 0.000 % of the basis function pairs === 
 === bvk cell = 28 has 0.000 % of the basis function pairs === 
 === bvk cell = 29 has 0.000 % of the basis function pairs === 
 === bvk cell = 30 has 0.000 % of the basis function pairs === 
 === bvk cell = 31 has 0.000 % of the basis function pairs === 
 === bvk cell = 32 has 0.000 % of the basis function pairs === 
 === bvk cell = 33 has 0.000 % of the basis function pairs === 
 === bvk cell = 34 has 0.000 % of the basis function pairs === 
 === bvk cell = 35 has 0.000 % of the basis function pairs === 
 === bvk cell = 36 has 0.000 % of the basis function pairs === 
 === bvk cell = 37 has 0.000 % of the basis function pairs === 
 === bvk cell = 38 has 0.000 % of the basis function pairs === 
 === bvk cell = 39 has 0.000 % of the basis function pairs === 
 === bvk cell = 40 has 0.000 % of the basis function pairs === 
 === bvk cell = 41 has 0.000 % of the basis function pairs === 
 === bvk cell = 42 has 69.800 % of the basis function pairs === 
 === bvk cell = 43 has 88.750 % of the basis function pairs === 
 === bvk cell = 44 has 0.000 % of the basis function pairs === 
 === bvk cell = 45 has 0.000 % of the basis function pairs === 
 === bvk cell = 46 has 0.000 % of the basis function pairs === 
 === bvk cell = 47 has 0.000 % of the basis function pairs === 
 === bvk cell = 48 has 14.350 % of the basis function pairs === 
 === bvk cell = 49 has 79.800 % of the basis function pairs === 
 === bvk cell = 50 has 22.100 % of the basis function pairs === 
 === bvk cell = 51 has 0.000 % of the basis function pairs === 
 === bvk cell = 52 has 0.000 % of the basis function pairs === 
 === bvk cell = 53 has 0.000 % of the basis function pairs === 
 === bvk cell = 54 has 0.000 % of the basis function pairs === 
 === bvk cell = 55 has 88.750 % of the basis function pairs === 
 === bvk cell = 56 has 22.100 % of the basis function pairs === 
 === bvk cell = 57 has 0.000 % of the basis function pairs === 
 === bvk cell = 58 has 0.000 % of the basis function pairs === 
 === bvk cell = 59 has 0.000 % of the basis function pairs === 
 === bvk cell = 60 has 0.000 % of the basis function pairs === 
 === bvk cell = 61 has 0.000 % of the basis function pairs === 
 === bvk cell = 62 has 45.900 % of the basis function pairs === 
 === bvk cell = 63 has 0.000 % of the basis function pairs === 
 === bvk cell = 64 has 0.000 % of the basis function pairs === 
 === bvk cell = 65 has 0.000 % of the basis function pairs === 
 === bvk cell = 66 has 0.000 % of the basis function pairs === 
 === bvk cell = 67 has 0.000 % of the basis function pairs === 
 === bvk cell = 68 has 0.000 % of the basis function pairs === 
 === bvk cell = 69 has 0.000 % of the basis function pairs === 
 === bvk cell = 70 has 0.000 % of the basis function pairs === 
 === bvk cell = 71 has 0.000 % of the basis function pairs === 
 === bvk cell = 72 has 0.000 % of the basis function pairs === 
 === bvk cell = 73 has 0.000 % of the basis function pairs === 
 === bvk cell = 74 has 0.000 % of the basis function pairs === 
 === bvk cell = 75 has 0.000 % of the basis function pairs === 
 === bvk cell = 76 has 0.000 % of the basis function pairs === 
 === bvk cell = 77 has 0.000 % of the basis function pairs === 
 === bvk cell = 78 has 0.000 % of the basis function pairs === 
 === bvk cell = 79 has 0.000 % of the basis function pairs === 
 === bvk cell = 80 has 0.000 % of the basis function pairs === 
 === bvk cell = 81 has 0.000 % of the basis function pairs === 
 === bvk cell = 82 has 0.000 % of the basis function pairs === 
 === bvk cell = 83 has 0.000 % of the basis function pairs === 
 === bvk cell = 84 has 0.000 % of the basis function pairs === 
 === bvk cell = 85 has 0.000 % of the basis function pairs === 
 === bvk cell = 86 has 0.000 % of the basis function pairs === 
 === bvk cell = 87 has 0.000 % of the basis function pairs === 
 === bvk cell = 88 has 0.000 % of the basis function pairs === 
[...]
 -0.06234 0.03906 0.13909 0.18910 0.38948 0.40499 0.47853 0.52073 0.58460 0.64749
 0.72684 0.77288 0.81914 0.86936 0.92754 0.95660 0.98853 1.03959 1.07480 1.11913
 1.15383 1.18431 1.25675 1.30500 1.33350 1.35427 1.41379 1.45549 1.47514 1.53056
 1.55093 1.62536 1.66828 1.76417 1.77251 1.82568 1.85506 1.90290 1.94050 1.97196
 2.04089 2.06163 2.09106 2.16580 2.17308 2.24187 2.28009 2.32785 2.34468 2.39337
 2.41640 2.43797 2.47453 2.52747 2.57106 2.64519 2.68449 2.73454 2.80957 2.81877
 2.82800 2.91289 2.92503 2.94953 2.97134 2.98638 3.00810 3.07255 3.09175 3.16533
 3.20188 3.26700 3.28012 3.30839 3.33316 3.38856 3.41719 3.42439 3.48526 3.50335
 3.54540 3.58947 3.62842 3.64777 3.69115 3.73419 3.81888 3.86831 3.89394 3.99127
 4.07256 4.13041 4.23472 4.29194 4.52908 4.57909 8.16777 8.37374 8.40492 8.79317
 9.42844 9.87420 13.24622 14.30997
 == 325-th k-point (-0.17495,0.17495,0.34990) occupation: 14==
 -65.00547 -65.00546 -4.62766 -4.62751 -3.03950 -3.03949 -3.03934 -3.03894 -3.03881 -3.03877
 -0.09134 0.05672 0.19254 0.21204 0.35535 0.41764 0.44414 0.49021 0.62447 0.65887
 0.68005 0.73200 0.75726 0.85911 0.92836 0.93044 0.99466 1.08217 1.10818 1.15864
 1.18914 1.21556 1.30041 1.32869 1.35605 1.37891 1.42317 1.45059 1.50785 1.51496
 1.56961 1.62407 1.68686 1.70307 1.75408 1.77722 1.87746 1.89348 1.95032 1.99501
 1.99598 2.05279 2.05807 2.15249 2.15408 2.20212 2.28373 2.31974 2.33680 2.37354
 2.41194 2.44539 2.51917 2.59009 2.62403 2.65591 2.75766 2.75853 2.76861 2.77017
 2.79679 2.85360 2.87510 2.90436 2.98505 3.03259 3.04805 3.06263 3.10345 3.13031
 3.15193 3.24057 3.29852 3.31294 3.37493 3.39120 3.43160 3.47382 3.52915 3.53467
 3.59957 3.61584 3.66564 3.71576 3.75354 3.76431 3.83328 3.83553 3.89203 3.97706
 4.04115 4.13072 4.23642 4.34545 4.54126 4.54902 7.96917 8.20467 8.27619 9.32738
 9.92373 10.12499 12.74010 14.52312
 == 326-th k-point (-0.08747,0.26242,0.26242) occupation: 14==
 -65.00547 -65.00546 -4.62767 -4.62750 -3.03949 -3.03949 -3.03935 -3.03893 -3.03879 -3.03878
 -0.10495 0.08185 0.17722 0.23844 0.37429 0.42021 0.42149 0.52150 0.52819 0.63822
 0.69182 0.72876 0.79955 0.86501 0.88350 0.92939 0.99407 1.09554 1.11170 1.14774
 1.20192 1.24772 1.30272 1.34402 1.35967 1.40679 1.40700 1.49080 1.52404 1.55243
 1.56374 1.67579 1.68716 1.72836 1.73624 1.74607 1.82886 1.86066 1.86238 1.96916
 2.04040 2.04591 2.07664 2.12135 2.16280 2.16543 2.25233 2.31784 2.39864 2.40396
 2.43555 2.53932 2.54303 2.56318 2.59390 2.63700 2.68796 2.75770 2.76259 2.78955
 2.80630 2.87025 2.87104 2.91045 2.96061 2.97951 3.06916 3.11877 3.13156 3.16863
 3.17832 3.27864 3.32914 3.32966 3.35286 3.44251 3.45143 3.47591 3.52052 3.54890
 3.55818 3.62623 3.62820 3.66551 3.72737 3.77892 3.81163 3.86538 3.90777 3.92306
 4.04537 4.06884 4.23424 4.41405 4.51940 4.58553 7.71793 8.08001 8.14025 9.51776
 9.82302 10.02602 12.74115 14.35475
 == 327-th k-point (0.00000,0.34990,0.17495) occupation: 14==
 -65.00547 -65.00546 -4.62767 -4.62751 -3.03950 -3.03949 -3.03933 -3.03895 -3.03879 -3.03879
 -0.10083 0.09571 0.16004 0.20906 0.37127 0.41821 0.42934 0.50349 0.58318 0.68064
 0.69983 0.74061 0.78539 0.84637 0.86104 0.96709 0.96881 1.04985 1.07443 1.19096
 1.20465 1.20714 1.25833 1.34707 1.35258 1.43657 1.46615 1.47283 1.50732 1.53626
 1.59022 1.62239 1.66314 1.76018 1.77733 1.79618 1.84111 1.84877 1.90634 1.91680
 2.00744 2.01218 2.06193 2.09542 2.13923 2.17572 2.24141 2.27664 2.39783 2.44089
 2.45152 2.48268 2.49913 2.59422 2.61445 2.61835 2.62907 2.74448 2.77345 2.79771
 2.80806 2.86905 2.88374 2.93409 2.96795 3.01964 3.03654 3.09694 3.16345 3.19745
 3.23010 3.29884 3.30063 3.35573 3.37209 3.39130 3.42390 3.42583 3.45354 3.51475
 3.53954 3.57560 3.62818 3.68933 3.71626 3.78409 3.83543 3.89716 3.91120 3.94314
 4.04320 4.11192 4.25709 4.39019 4.55602 4.60075 7.85304 7.97929 8.21652 9.37606
 9.74344 10.40091 13.19704 13.84100
 == 328-th k-point (0.08747,0.43737,0.08747) occupation: 14==
 -65.00547 -65.00546 -4.62765 -4.62753 -3.03951 -3.03950 -3.03927 -3.03899 -3.03880 -3.03878
 -0.07897 0.06759 0.15992 0.18635 0.32083 0.37600 0.52100 0.52751 0.68360 0.69257
 0.70709 0.73240 0.79658 0.83418 0.88089 0.93909 0.94187 1.00323 1.09559 1.11823
 1.20496 1.21842 1.23259 1.30946 1.32847 1.35496 1.44024 1.49924 1.51323 1.58252
 1.64011 1.65884 1.68755 1.69958 1.73388 1.80551 1.83455 1.88285 1.89507 1.96494
 1.97309 2.03649 2.05004 2.14039 2.15715 2.16465 2.19286 2.35333 2.39359 2.39519
 2.42766 2.46007 2.53308 2.57324 2.60539 2.61775 2.63151 2.78419 2.78679 2.81353
 2.84674 2.87343 2.89928 2.92678 2.92770 3.00722 3.03152 3.05992 3.09826 3.18554
 3.21193 3.23938 3.25811 3.33002 3.34643 3.38117 3.41699 3.45444 3.52330 3.52653
 3.55847 3.57795 3.60356 3.68334 3.69545 3.77142 3.86288 3.90441 3.93550 4.09648
 4.10073 4.20179 4.27691 4.34287 4.60308 4.60319 8.03216 8.20984 8.24667 8.93953
 10.33538 10.46609 13.16683 13.65583
 == 329-th k-point (-0.34990,-0.17495,0.69980) occupation: 14==
 -65.00547 -65.00546 -4.62764 -4.62754 -3.03952 -3.03950 -3.03927 -3.03900 -3.03878 -3.03875
 -0.06234 0.03906 0.13909 0.18910 0.38948 0.40499 0.47853 0.52073 0.58460 0.64749
 0.72684 0.77289 0.81914 0.86936 0.92754 0.95660 0.98854 1.03959 1.07480 1.11913
 1.15383 1.18432 1.25676 1.30501 1.33350 1.35428 1.41384 1.45549 1.47515 1.53054
 1.55094 1.62538 1.66831 1.76422 1.77252 1.82568 1.85508 1.90291 1.94052 1.97207
 2.04100 2.06169 2.09104 2.16576 2.17321 2.24190 2.28012 2.32795 2.34481 2.39368
 2.41675 2.43798 2.47497 2.52745 2.57115 2.64601 2.68448 2.73453 2.80958 2.81948
 2.82801 2.91293 2.92551 2.94958 2.97140 2.98659 3.00813 3.07251 3.09177 3.16560
 3.20186 3.26702 3.28041 3.30847 3.33323 3.38909 3.41725 3.42470 3.48557 3.50418
 3.54539 3.59019 3.63010 3.64794 3.69136 3.73516 3.81895 3.86825 3.89535 3.99157
 4.07286 4.13039 4.23465 4.29204 4.53047 4.57950 8.16779 8.37392 8.40647 8.79320
 9.43060 9.87437 13.24635 14.31012
 == 330-th k-point (-0.26242,-0.08747,0.61232) occupation: 14==
 -65.00547 -65.00546 -4.62761 -4.62757 -3.03953 -3.03951 -3.03919 -3.03908 -3.03877 -3.03875
 -0.02626 0.01312 0.11840 0.16066 0.37725 0.45536 0.48477 0.49037 0.61294 0.65719
 0.76595 0.81256 0.84156 0.88471 0.93391 0.95983 0.97899 0.98800 1.03293 1.08100
 1.11886 1.18609 1.25986 1.26851 1.28707 1.34698 1.43308 1.44264 1.47774 1.48148
 1.62964 1.67006 1.70764 1.73079 1.75840 1.82831 1.88050 1.90436 1.92655 1.93542
 2.03770 2.08296 2.12258 2.18567 2.21838 2.22716 2.27673 2.31701 2.33039 2.38702
 2.40239 2.48277 2.48874 2.50941 2.59868 2.65028 2.68515 2.72991 2.77106 2.84430
 2.86383 2.89894 2.90665 2.92925 2.99995 3.01181 3.02985 3.09815 3.10120 3.12517
 3.23384 3.25897 3.27948 3.32759 3.34289 3.37408 3.43521 3.43657 3.45254 3.45997
 3.50952 3.55146 3.60992 3.63023 3.68097 3.70854 3.81253 3.84332 3.97334 3.98763
 4.03034 4.17093 4.25450 4.26132 4.56185 4.58691 8.26797 8.44087 8.61568 8.82493
 9.28704 9.71092 13.43769 14.03288
 == 331-th k-point (-0.17495,0.00000,0.52485) occupation: 14==
 -65.00547 -65.00546 -4.62762 -4.62756 -3.03952 -3.03952 -3.03920 -3.03906 -3.03877 -3.03877
 -0.04249 0.02781 0.14210 0.15722 0.35767 0.37146 0.50391 0.59628 0.61673 0.68764
 0.73991 0.79527 0.81826 0.84847 0.89885 0.92875 0.99416 1.04320 1.05194 1.06550
 1.12537 1.15382 1.19685 1.25032 1.37173 1.41459 1.45303 1.46901 1.47921 1.51898
 1.56345 1.68526 1.71557 1.75605 1.77634 1.81839 1.84214 1.86686 1.87356 1.91672
 2.02147 2.06069 2.14663 2.15500 2.17909 2.23704 2.26803 2.32544 2.32671 2.40513
 2.41283 2.45095 2.52313 2.53891 2.59588 2.63631 2.67536 2.75160 2.78151 2.81576
 2.85150 2.88749 2.90665 2.94136 2.97643 2.99625 3.01665 3.06744 3.10174 3.13719
 3.15442 3.23348 3.30479 3.30780 3.35673 3.37733 3.39961 3.40488 3.49473 3.51608
 3.54435 3.54753 3.64112 3.64177 3.70980 3.72124 3.85197 3.90773 3.99778 4.01273
 4.16084 4.17012 4.28250 4.31417 4.58004 4.60624 8.21902 8.39299 8.49175 8.70768
 9.90623 9.91501 13.37149 13.58947
 == 332-th k-point (-0.08747,0.08747,0.43737) occupation: 14==
 -65.00547 -65.00546 -4.62765 -4.62753 -3.03951 -3.03950 -3.03927 -3.03899 -3.03880 -3.03878
 -0.07897 0.06759 0.15992 0.18635 0.32083 0.37600 0.52100 0.52751 0.68360 0.69257
 0.70709 0.73240 0.79658 0.83418 0.88089 0.93909 0.94187 1.00323 1.09559 1.11823
 1.20496 1.21841 1.23259 1.30944 1.32846 1.35495 1.44023 1.49924 1.51320 1.58252
 1.64009 1.65881 1.68745 1.69956 1.73387 1.80548 1.83453 1.88284 1.89479 1.96481
 1.97308 2.03629 2.04998 2.14028 2.15710 2.16456 2.19252 2.35331 2.39355 2.39519
 2.42767 2.46001 2.53307 2.57324 2.60507 2.61768 2.63150 2.78405 2.78641 2.81351
 2.84675 2.87342 2.89909 2.92642 2.92750 3.00707 3.03130 3.05951 3.09818 3.18524
 3.21088 3.23765 3.25782 3.32994 3.34567 3.38113 3.41699 3.45436 3.51860 3.52546
 3.55849 3.57734 3.60358 3.68277 3.69546 3.77079 3.86275 3.90439 3.93299 4.09656
 4.09794 4.20047 4.27637 4.34281 4.59766 4.60130 8.03204 8.20926 8.24646 8.93944
 10.31959 10.46002 13.16567 13.65200
 == 333-th k-point (0.00000,0.17495,0.34990) occupation: 14==
 -65.00547 -65.00546 -4.62767 -4.62751 -3.03950 -3.03949 -3.03933 -3.03895 -3.03879 -3.03879
 -0.10083 0.09571 0.16004 0.20906 0.37127 0.41821 0.42934 0.50349 0.58318 0.68064
 0.69983 0.74061 0.78539 0.84637 0.86104 0.96709 0.96881 1.04985 1.07443 1.19096
 1.20465 1.20714 1.25833 1.34707 1.35258 1.43657 1.46615 1.47283 1.50732 1.53626
 1.59022 1.62239 1.66314 1.76018 1.77733 1.79618 1.84111 1.84877 1.90634 1.91680
 2.00744 2.01218 2.06193 2.09542 2.13923 2.17572 2.24141 2.27664 2.39783 2.44089
 2.45152 2.48268 2.49913 2.59422 2.61445 2.61835 2.62907 2.74448 2.77345 2.79771
 2.80806 2.86905 2.88374 2.93409 2.96795 3.01964 3.03654 3.09694 3.16345 3.19745
 3.23010 3.29884 3.30063 3.35573 3.37209 3.39130 3.42390 3.42583 3.45354 3.51475
 3.53954 3.57560 3.62818 3.68933 3.71626 3.78409 3.83543 3.89716 3.91120 3.94314
 4.04320 4.11192 4.25709 4.39019 4.55602 4.60075 7.85304 7.97929 8.21652 9.37606
 9.74344 10.40091 13.19704 13.84100
 == 334-th k-point (0.08747,0.26242,0.26242) occupation: 14==
 -65.00547 -65.00546 -4.62767 -4.62750 -3.03949 -3.03949 -3.03935 -3.03893 -3.03879 -3.03878
 -0.10495 0.08185 0.17722 0.23844 0.37429 0.42021 0.42149 0.52150 0.52819 0.63822
 0.69182 0.72876 0.79955 0.86502 0.88350 0.92939 0.99407 1.09554 1.11173 1.14788
 1.20194 1.24772 1.30273 1.34402 1.35970 1.40679 1.40703 1.49081 1.52404 1.55250
 1.56374 1.67610 1.68716 1.72842 1.73623 1.74609 1.82906 1.86065 1.86246 1.96939
 2.04064 2.04590 2.07690 2.12149 2.16276 2.16562 2.25252 2.31780 2.39866 2.40384
 2.43567 2.53932 2.54338 2.56360 2.59429 2.63695 2.68793 2.75777 2.76258 2.79002
 2.80636 2.87043 2.87101 2.91041 2.96065 2.97948 3.07098 3.11892 3.13153 3.16861
 3.17854 3.27910 3.32963 3.33226 3.35384 3.44245 3.45152 3.47597 3.52443 3.54874
 3.55926 3.62588 3.62864 3.66550 3.72879 3.77873 3.81161 3.86848 3.90767 3.92438
 4.04538 4.06922 4.23437 4.41487 4.51936 4.58802 7.71844 8.07997 8.14028 9.52481
 9.82286 10.03062 12.74521 14.36069
 == 335-th k-point (0.17495,0.34990,0.17495) occupation: 14==
 -65.00547 -65.00546 -4.62766 -4.62751 -3.03950 -3.03949 -3.03934 -3.03894 -3.03881 -3.03877
 -0.09134 0.05672 0.19254 0.21204 0.35535 0.41764 0.44414 0.49021 0.62447 0.65887
 0.68005 0.73200 0.75726 0.85911 0.92837 0.93044 0.99467 1.08218 1.10820 1.15864
 1.18915 1.21560 1.30042 1.32869 1.35606 1.37892 1.42317 1.45060 1.50790 1.51496
 1.56966 1.62417 1.68698 1.70310 1.75409 1.77722 1.87746 1.89368 1.95044 1.99526
 1.99608 2.05281 2.05811 2.15361 2.15411 2.20225 2.28379 2.31984 2.33689 2.37378
 2.41198 2.44560 2.51923 2.59041 2.62409 2.65596 2.75832 2.75861 2.76869 2.77027
 2.79699 2.85364 2.87592 2.90467 2.98518 3.03307 3.05188 3.06271 3.10359 3.13172
 3.15227 3.24059 3.30325 3.31296 3.37494 3.39147 3.43165 3.47475 3.53078 3.53513
 3.59982 3.61619 3.66581 3.71608 3.75447 3.77043 3.83380 3.83614 3.89278 3.97799
 4.04163 4.13298 4.23646 4.34597 4.54223 4.55334 7.96934 8.20568 8.27635 9.32812
 9.92862 10.14133 12.74186 14.52757
 == 336-th k-point (-0.26242,-0.26242,0.78727) occupation: 14==
 -65.00547 -65.00546 -4.62765 -4.62752 -3.03950 -3.03949 -3.03933 -3.03895 -3.03879 -3.03876
 -0.07061 0.02469 0.17719 0.21936 0.35927 0.41420 0.42939 0.57682 0.59832 0.61360
 0.68117 0.76657 0.78468 0.80234 0.95153 1.02097 1.04025 1.05298 1.09359 1.10028
 1.19908 1.23791 1.26923 1.30195 1.31456 1.35778 1.38228 1.43531 1.50671 1.52819
 1.54333 1.61658 1.67442 1.69850 1.73020 1.80757 1.84474 1.92465 1.97134 2.00516
 2.07517 2.10744 2.13585 2.17016 2.18808 2.22206 2.28159 2.28231 2.33240 2.34609
 2.44442 2.46783 2.48959 2.50512 2.53847 2.67235 2.71856 2.74503 2.78953 2.83647
 2.84805 2.86885 2.92568 2.94379 2.94964 2.97434 3.02943 3.04511 3.09735 3.13630
 3.19219 3.19375 3.24036 3.25084 3.37324 3.40911 3.43741 3.47160 3.50065 3.52431
 3.57976 3.63349 3.64618 3.65780 3.73161 3.74963 3.75649 3.89211 3.95846 3.96721
 4.02341 4.15965 4.26306 4.28946 4.48956 4.51264 8.14343 8.37000 8.40242 9.10508
 9.12708 9.93450 12.77322 14.59504
 == 337-th k-point (-0.17495,-0.17495,0.69980) occupation: 14==
 -65.00547 -65.00546 -4.62762 -4.62755 -3.03952 -3.03950 -3.03924 -3.03903 -3.03878 -3.03875
 -0.04499 0.02393 0.12473 0.19260 0.32985 0.45913 0.50880 0.51109 0.61066 0.61414
 0.76966 0.79005 0.80307 0.92701 0.92719 0.94407 0.95577 1.02322 1.03319 1.11626
 1.16553 1.17975 1.18823 1.31838 1.32995 1.36254 1.36620 1.44089 1.52329 1.56556
 1.60213 1.62010 1.68775 1.70400 1.71509 1.79219 1.89421 1.91277 1.91777 2.02627
 2.03858 2.09224 2.09990 2.14378 2.20317 2.27203 2.30036 2.31276 2.31328 2.33395
 2.38394 2.43366 2.49600 2.54615 2.56441 2.59419 2.65368 2.75925 2.79042 2.79833
 2.86738 2.91423 2.93899 2.96213 3.00550 3.03477 3.05475 3.07190 3.07463 3.11056
 3.20056 3.25949 3.28632 3.29455 3.32781 3.33435 3.38006 3.43736 3.45018 3.47373
 3.54131 3.58129 3.68267 3.71365 3.71529 3.76163 3.80450 3.86278 3.90225 3.92509
 4.03958 4.22190 4.24527 4.28224 4.54709 4.57531 8.11852 8.42725 8.49237 8.78833
 9.20274 9.82224 13.25225 14.19862
 == 338-th k-point (-0.08747,-0.08747,0.61232) occupation: 14==
 -65.00546 -65.00546 -4.62759 -4.62758 -3.03953 -3.03952 -3.03915 -3.03910 -3.03877 -3.03876
 -0.01500 -0.00447 0.13957 0.17485 0.30846 0.35500 0.60198 0.61736 0.62834 0.64060
 0.78433 0.79130 0.79486 0.82600 0.91131 0.92387 1.01030 1.02659 1.03868 1.07811
 1.08452 1.12693 1.17004 1.21911 1.37288 1.44526 1.45155 1.48416 1.55747 1.59398
 1.62005 1.62266 1.67728 1.71174 1.71394 1.78528 1.81587 1.88456 1.89765 1.92090
 2.02023 2.06518 2.09674 2.17265 2.24824 2.27828 2.30465 2.30526 2.31397 2.37823
 2.38353 2.43896 2.49321 2.50458 2.55021 2.66869 2.71095 2.75118 2.76140 2.79678
 2.84761 2.87998 2.89189 2.95363 2.98724 3.03928 3.05348 3.05373 3.11178 3.14922
 3.20187 3.24655 3.25117 3.25964 3.27862 3.33804 3.35097 3.40716 3.47928 3.52102
 3.56281 3.58596 3.63914 3.69219 3.71512 3.73522 3.90804 3.92253 3.98547 4.00991
 4.19112 4.27546 4.31780 4.32384 4.58637 4.61955 8.24619 8.38226 8.61140 8.63026
 9.44572 9.95703 13.39118 13.45045
 == 339-th k-point (0.00000,0.00000,0.52485) occupation: 14==
 -65.00546 -65.00546 -4.62762 -4.62755 -3.03952 -3.03952 -3.03920 -3.03906 -3.03878 -3.03878
 -0.05012 0.03092 0.17257 0.17257 0.29722 0.31647 0.61098 0.61098 0.69752 0.71021
 0.72697 0.72697 0.78105 0.79822 0.91299 0.93704 0.93705 0.98446 1.08751 1.10003
 1.10003 1.14248 1.20207 1.27470 1.36738 1.36740 1.45810 1.55769 1.55769 1.62394
 1.62876 1.63541 1.71878 1.74951 1.74953 1.75180 1.80619 1.80632 1.85540 1.87706
 2.02405 2.02438 2.05912 2.15778 2.15800 2.23486 2.31124 2.33665 2.36144 2.41083
 2.41085 2.43567 2.51961 2.51999 2.57143 2.58303 2.72035 2.75039 2.81384 2.81417
 2.87412 2.87441 2.91381 2.93957 2.96424 2.99784 3.01634 3.01648 3.08113 3.13424
 3.22259 3.23037 3.23075 3.32261 3.32708 3.32732 3.44716 3.44870 3.49176 3.49194
 3.56212 3.56224 3.56289 3.69881 3.73559 3.73685 3.92322 3.92365 3.96038 4.16615
 4.26826 4.26897 4.30099 4.38777 4.61686 4.62007 8.10633 8.48964 8.48999 8.59473
 9.99394 10.00030 13.36171 13.36404
 == 340-th k-point (0.08747,0.08747,0.43737) occupation: 14==
 -65.00547 -65.00546 -4.62765 -4.62753 -3.03951 -3.03950 -3.03927 -3.03899 -3.03880 -3.03878
 -0.07897 0.06759 0.15992 0.18635 0.32083 0.37600 0.52100 0.52751 0.68360 0.69257
 0.70709 0.73240 0.79658 0.83418 0.88089 0.93909 0.94187 1.00323 1.09559 1.11823
 1.20496 1.21842 1.23259 1.30946 1.32847 1.35496 1.44024 1.49924 1.51323 1.58252
 1.64011 1.65884 1.68755 1.69958 1.73388 1.80551 1.83455 1.88285 1.89507 1.96494
 1.97309 2.03649 2.05004 2.14039 2.15715 2.16465 2.19286 2.35333 2.39359 2.39519
 2.42766 2.46007 2.53308 2.57324 2.60539 2.61775 2.63151 2.78419 2.78679 2.81353
 2.84674 2.87343 2.89928 2.92678 2.92770 3.00722 3.03152 3.05992 3.09826 3.18554
 3.21193 3.23938 3.25811 3.33002 3.34643 3.38117 3.41699 3.45444 3.52330 3.52653
 3.55847 3.57795 3.60356 3.68334 3.69545 3.77142 3.86288 3.90441 3.93550 4.09648
 4.10073 4.20179 4.27691 4.34287 4.60308 4.60319 8.03216 8.20984 8.24667 8.93953
 10.33538 10.46609 13.16683 13.65583
 == 341-th k-point (0.17495,0.17495,0.34990) occupation: 14==
 -65.00547 -65.00546 -4.62766 -4.62751 -3.03950 -3.03949 -3.03934 -3.03894 -3.03881 -3.03877
 -0.09134 0.05672 0.19254 0.21204 0.35535 0.41764 0.44414 0.49021 0.62447 0.65887
 0.68005 0.73200 0.75726 0.85911 0.92837 0.93044 0.99467 1.08218 1.10820 1.15864
 1.18915 1.21560 1.30042 1.32869 1.35606 1.37892 1.42317 1.45060 1.50790 1.51496
 1.56966 1.62417 1.68698 1.70310 1.75409 1.77722 1.87746 1.89368 1.95044 1.99526
 1.99608 2.05281 2.05811 2.15361 2.15411 2.20225 2.28379 2.31984 2.33689 2.37378
 2.41198 2.44560 2.51923 2.59041 2.62409 2.65596 2.75832 2.75861 2.76869 2.77027
 2.79699 2.85364 2.87592 2.90467 2.98518 3.03307 3.05188 3.06271 3.10359 3.13172
 3.15227 3.24059 3.30325 3.31296 3.37494 3.39147 3.43165 3.47475 3.53078 3.53513
 3.59982 3.61619 3.66581 3.71608 3.75447 3.77043 3.83380 3.83614 3.89278 3.97799
 4.04163 4.13298 4.23646 4.34597 4.54223 4.55334 7.96934 8.20568 8.27635 9.32812
 9.92862 10.14133 12.74186 14.52757
 == 342-th k-point (0.26242,0.26242,0.26242) occupation: 14==
 -65.00547 -65.00546 -4.62766 -4.62751 -3.03948 -3.03948 -3.03937 -3.03890 -3.03879 -3.03879
 -0.08753 0.03290 0.23209 0.23209 0.33510 0.40142 0.40142 0.56066 0.63002 0.63002
 0.66433 0.74377 0.74377 0.77901 0.93105 1.01887 1.01887 1.09384 1.15468 1.15468
 1.19469 1.26728 1.26728 1.31250 1.31250 1.39198 1.41162 1.49025 1.49025 1.51436
 1.51436 1.58669 1.63687 1.67229 1.86629 1.86629 1.89015 1.89585 1.89585 1.92174
 2.05400 2.05400 2.14559 2.21899 2.21899 2.27345 2.27345 2.28736 2.35680 2.35680
 2.40832 2.40832 2.58716 2.60801 2.60801 2.63586 2.78022 2.78104 2.79867 2.80112
 2.80112 2.82409 2.82409 2.86726 2.99935 3.03447 3.03447 3.05692 3.10134 3.10134
 3.14571 3.14571 3.30831 3.30831 3.31138 3.46833 3.46833 3.54463 3.54463 3.54561
 3.55612 3.69035 3.69321 3.69321 3.75247 3.76700 3.89363 3.89363 3.97823 3.97823
 4.10608 4.10608 4.12389 4.37923 4.47231 4.47231 8.19837 8.19837 8.20776 9.68335
 9.68335 10.01681 11.94889 14.76628
 ---------------------------------------------------------------------------
 VBM is at 171-th k-point with 7.49407 eV
 CBM is at 21-th k-point with 8.08773 eV
 Band gap is 0.59366 eV


           Ground-State Mulliken Net Atomic Charges

      Atom                 Charge (a.u.)          Spin (a.u.)
   --------------------------------------------------------
      1 Si               (0.000000,-0.000000)    (0.000000,0.000000)
      2 Si               (-0.000000,0.000000)    (0.000000,0.000000)
   --------------------------------------------------------
  Sum of atomic charges =     (-0.000000,-0.000000)
  Sum of spin   charges =       (0.000000,0.000000)



 Total job time:  345.26 s.
 Tue Sep  9 03:38:45 2025


        *************************************************************
        *                                                           *
        *  Thank you very much for using QCPBC. Have a nice day.    *
        *                                                           *
        *************************************************************

Running job 1 of 1
