                  Welcome to Q-Chem
           with Periodic Boundary Condition
     A Quantum Leap Into The Future Of Chemistry

 Adam Rettig, Xintian Feng, Meng-Fu Chen, Hieu Dinh, Stephen Quiton,
 Anton Ni, Paul J. Robinson, Jinghong Zhang, Joonho Lee

Contributors to earlier versions of Q-Chem not listed above:
 Evgeny Epifanovsky, Leo Cunha, Jerome F. Gonthier, Kuan-Yu Liu
 Input file: /n/netscratch/joonholee_lab/Lab/hieudinh//si_2_ccpvqz_omega_0.9_666.scratch20250909031736/si_2_ccpvqz_omega_0.9_666.0
 Scratch folder: /n/netscratch/joonholee_lab/Lab/hieudinh//si_2_ccpvqz_omega_0.9_666.scratch20250909031736
 Auxillary files located at: /n/holylabs/LABS/joonholee_lab/Lab/qchem_base/qcaux
 Q-Chem begins on Tue Sep  9 03:17:37 2025

 -------------------------------------------------------------
 User input:
 -------------------------------------------------------------
 $lattice
 3
 0.000000 5.130600 5.130600
 5.130600 0.000000 5.130600
 5.130600 5.130600 0.000000
 $end
 
 $unitcell
 ABSOLUTE
 0 1
 Si 0.000000 0.000000 0.000000
 Si 2.565300 2.565300 2.565300
 $end
 
 $rem
 jobtype = sp
 method = pbe
 scf_convergence = 5
 scf_guess = autosad
 scf_algorithm = diis_gdm
 basis = cc-pvqz
 aux_basis = cc-pvqz-jk
 input_bohr = true
 symmetry = false
 rsdf_print_level 1
 is_basis_uctr true
 
 mp_mesh = [6,6,6]
 
 integral_direct true
 bvk_cgto true
 
 thresh 14
 mem_total 1000000
 threads 32
 
 MAX_SCF_CYCLES 500
 madelung = false
 omega 0.9
 do_rij_bigmem true
 automate_g true
 print_level 10
 grid_type_xc 1
 
 thresh_1e2c_sp 1e-14
 thresh_2e3c_bra_ket_sep 1e-10
 thresh_g 1e-12
 $end
 
 -------------------------------------------------------------
 Running PBC job

 Requested Exchange Correlation Functionals: 
  DFT Exchange:  1.00000 pbe_x
  DFT Correlation:  1.00000 pbe_c
 using 32 threads for computing.
 ---------------------------------------------------------------
      Coordinates of Atoms in Central Unit Cell (Angstroms)
    I     Atom         X            Y            Z
 ---------------------------------------------------------------
    1      Si      0.000000     0.000000     0.000000
    2      Si      1.357498     1.357498     1.357498
 ---------------------------------------------------------------
 --------------------------------------------------
              Lattice Vectors (Angstroms)
              X            Y            Z
 --------------------------------------------------
   X       0.000000     2.714997     2.714997
   Y       2.714997     0.000000     2.714997
   Z       2.714997     2.714997     0.000000
 --------------------------------------------------
 --------------------------------------------------
       Reciprocal Lattice Vectors (Angstroms^-1)
              X            Y            Z
 --------------------------------------------------
   X      -1.157126     1.157126     1.157126
   Y       1.157126    -1.157126     1.157126
   Z       1.157126     1.157126    -1.157126
 --------------------------------------------------

 Single point calculation requested

 Hamiltonian contributions:
 List of terms in Hamiltonian: kpts_nn, kpts_kinetic, kpts_vnuc_df, kpts_xc, kpts_rij_bigmem

 K-Points calculation started.

 Basis set information about using solid harmonic (1) or Cartesian (0):
  si : D(1) D(1) D(1) F(1) F(1) G(1) 

 Basis set information about using solid harmonic (1) or Cartesian (0):
  si : D(1) D(1) D(1) D(1) D(1) D(1) D(1) D(1) D(1) F(1) F(1) F(1) F(1) G(1) G(1) H(1) 

 There are 118 basis functions in the central unit cell.
 Print atomic basis of atoms in the central unit cell:
 -------------------------------------------------------------
2 66 134 28

  0.00000000000000e+00  0.00000000000000e+00  0.00000000000000e+00
  2.56530000000000e+00  2.56530000000000e+00  2.56530000000000e+00

  5.13000000000000e+05
  7.68200000000000e+04
  1.74700000000000e+04
  4.93500000000000e+03
  1.60200000000000e+03
  5.74100000000000e+02
  2.21500000000000e+02
  9.05400000000000e+01
  3.87400000000000e+01
  1.69500000000000e+01
  6.45200000000000e+00
  2.87400000000000e+00
  1.25000000000000e+00
  3.59900000000000e-01
  1.69900000000000e-01
  7.06600000000000e-02
  1.12200000000000e+03
  2.66000000000000e+02
  8.59200000000000e+01
  3.23300000000000e+01
  1.33700000000000e+01
  5.80000000000000e+00
  2.55900000000000e+00
  1.12400000000000e+00
  3.98800000000000e-01
  1.53300000000000e-01
  5.72800000000000e-02
  7.60000000000000e-01
  3.02000000000000e-01
  1.20000000000000e-01
  5.41000000000000e-01
  2.12000000000000e-01
  4.61000000000000e-01
  5.13000000000000e+05
  7.68200000000000e+04
  1.74700000000000e+04
  4.93500000000000e+03
  1.60200000000000e+03
  5.74100000000000e+02
  2.21500000000000e+02
  9.05400000000000e+01
  3.87400000000000e+01
  1.69500000000000e+01
  6.45200000000000e+00
  2.87400000000000e+00
  1.25000000000000e+00
  3.59900000000000e-01
  1.69900000000000e-01
  7.06600000000000e-02
  1.12200000000000e+03
  2.66000000000000e+02
  8.59200000000000e+01
  3.23300000000000e+01
  1.33700000000000e+01
  5.80000000000000e+00
  2.55900000000000e+00
  1.12400000000000e+00
  3.98800000000000e-01
  1.53300000000000e-01
  5.72800000000000e-02
  7.60000000000000e-01
  3.02000000000000e-01
  1.20000000000000e-01
  5.41000000000000e-01
  2.12000000000000e-01
  4.61000000000000e-01

  3.56439732356011e-01
  6.67250935594825e-01
  1.15567538346971e+00
  1.89079471139597e+00
  2.92997535092854e+00
  4.25377897422013e+00
  5.53035652706994e+00
  5.88407857713363e+00
  4.26432221020809e+00
  1.46246852660687e+00
  9.90009037975635e-02
 -5.26805361731285e-03
  1.58075269248041e-03
 -9.63604858609034e-02
 -1.80140685379119e-01
 -3.12991611081079e-01
 -5.12013980868736e-01
 -8.03092560139717e-01
 -1.18597193899895e+00
 -1.63453354628192e+00
 -1.94138718043020e+00
 -1.86039340932271e+00
 -9.21642524314205e-01
  4.93552860211257e-01
  9.09065541611183e-01
  3.40430003714153e-01
  4.89002727192571e-02
  9.13245846186842e-02
  1.58921585782757e-01
  2.59526822498432e-01
  4.08347517411705e-01
  6.02266139654795e-01
  8.36774006155092e-01
  9.98775610751853e-01
  9.86583994360998e-01
  5.01500269670235e-01
 -2.91439000418814e-01
 -6.84883633703988e-01
 -4.85138432421684e-01
  3.31166560285492e-01
  1.88605835767988e-01
  9.76765512168845e-02
  4.17977074735086e+00
  5.88843070847456e+00
  7.44317185052013e+00
  8.05001094515016e+00
  6.97099017282640e+00
  4.33955185260449e+00
  1.76355858703549e+00
  3.34437932089088e-01
 -4.09551658476811e+00
 -5.70145272051300e+00
 -7.35388974061730e+00
 -7.93663059323219e+00
 -7.17813870370958e+00
 -4.42768957771269e+00
 -2.05517820096269e+00
 -1.72105843348797e-01
  4.51735295769850e-01
  1.36731249153695e-01
  3.99432914781939e-02
  1.01820035164008e+00
  2.02498404800701e-01
  4.02695370421242e-02
  3.69528803814005e-01
  4.48962571437413e-02
  1.32316184864580e-01
  3.56439732356011e-01
  6.67250935594825e-01
  1.15567538346971e+00
  1.89079471139597e+00
  2.92997535092854e+00
  4.25377897422013e+00
  5.53035652706994e+00
  5.88407857713363e+00
  4.26432221020809e+00
  1.46246852660687e+00
  9.90009037975635e-02
 -5.26805361731285e-03
  1.58075269248041e-03
 -9.63604858609034e-02
 -1.80140685379119e-01
 -3.12991611081079e-01
 -5.12013980868736e-01
 -8.03092560139717e-01
 -1.18597193899895e+00
 -1.63453354628192e+00
 -1.94138718043020e+00
 -1.86039340932271e+00
 -9.21642524314205e-01
  4.93552860211257e-01
  9.09065541611183e-01
  3.40430003714153e-01
  4.89002727192571e-02
  9.13245846186842e-02
  1.58921585782757e-01
  2.59526822498432e-01
  4.08347517411705e-01
  6.02266139654795e-01
  8.36774006155092e-01
  9.98775610751853e-01
  9.86583994360998e-01
  5.01500269670235e-01
 -2.91439000418814e-01
 -6.84883633703988e-01
 -4.85138432421684e-01
  3.31166560285492e-01
  1.88605835767988e-01
  9.76765512168845e-02
  4.17977074735086e+00
  5.88843070847456e+00
  7.44317185052013e+00
  8.05001094515016e+00
  6.97099017282640e+00
  4.33955185260449e+00
  1.76355858703549e+00
  3.34437932089088e-01
 -4.09551658476811e+00
 -5.70145272051300e+00
 -7.35388974061730e+00
 -7.93663059323219e+00
 -7.17813870370958e+00
 -4.42768957771269e+00
 -2.05517820096269e+00
 -1.72105843348797e-01
  4.51735295769850e-01
  1.36731249153695e-01
  3.99432914781939e-02
  1.01820035164008e+00
  2.02498404800701e-01
  4.02695370421242e-02
  3.69528803814005e-01
  4.48962571437413e-02
  1.32316184864580e-01

0 0 0 0 3 3 3
0 0 13 0 26 0 
13 0

0 3 3 13 1 1 1
39 0 
1 0

0 4 4 14 1 1 1
40 0 
1 0

0 5 5 15 1 1 1
41 0 
1 0

0 6 6 16 2 6 6
42 1 50 1 
8 0

0 12 12 24 1 3 3
58 1 
1 0

0 15 15 25 1 3 3
59 1 
1 0

0 18 18 26 1 3 3
60 1 
1 0

0 21 21 27 1 5 6
61 2 
1 1

0 26 26 28 1 5 6
62 2 
1 1

0 31 31 29 1 5 6
63 2 
1 1

0 36 36 30 1 7 10
64 3 
1 1

0 43 43 31 1 7 10
65 3 
1 1

0 50 50 32 1 9 15
66 4 
1 1

1 59 59 33 3 3 3
67 0 80 0 93 0 
13 0

1 62 62 46 1 1 1
106 0 
1 0

1 63 63 47 1 1 1
107 0 
1 0

1 64 64 48 1 1 1
108 0 
1 0

1 65 65 49 2 6 6
109 1 117 1 
8 0

1 71 71 57 1 3 3
125 1 
1 0

1 74 74 58 1 3 3
126 1 
1 0

1 77 77 59 1 3 3
127 1 
1 0

1 80 80 60 1 5 6
128 2 
1 1

1 85 85 61 1 5 6
129 2 
1 1

1 90 90 62 1 5 6
130 2 
1 1

1 95 95 63 1 7 10
131 3 
1 1

1 102 102 64 1 7 10
132 3 
1 1

1 109 109 65 1 9 15
133 4 
1 1

 -------------------------------------------------------------
 Allocate 265256 B from available memory: 1048576000000 B
 There are 2197 image cells after screening.
 There are 2061 image cells for CGTO evaluation after screening.
 Real-Space grid for FFT initialized based on kinetic energy cutoff (eV) = 500.0
 Real-Space grid for FFT: (10,10,10)
 There are 9261 real-space grid points.
 There are 64 batches of real-space grid points. 
 Size of each grid batch is around 128
 Grid for AFT initialized based on kinetic energy cutoff (eV) = 500.0
 Real-Space grid for AFT: (10,10,10)
 There are 9261 real-space grid points.

 There are 5628 atom-centered grid points.

 Spacegroup symmetry group: Fd-3m
 Reducing spacegroup symmetry to symmorphic group: F -4 3 m
 Monkhorst-Pack mesh is [6,6,6]
 There are 216 k points.
kpoints in Bohr
-0.2041082040 -0.2041082040 -0.2041082040
-0.1020541020 -0.1020541020 -0.3061623059
-0.0000000000 -0.0000000000 -0.4082164079
0.1020541020 0.1020541020 -0.5102705099
0.2041082040 0.2041082040 -0.6123246119
0.3061623059 0.3061623059 -0.7143787138
-0.1020541020 -0.3061623059 -0.1020541020
-0.0000000000 -0.2041082040 -0.2041082040
0.1020541020 -0.1020541020 -0.3061623059
0.2041082040 -0.0000000000 -0.4082164079
0.3061623059 0.1020541020 -0.5102705099
0.4082164079 0.2041082040 -0.6123246119
-0.0000000000 -0.4082164079 0.0000000000
0.1020541020 -0.3061623059 -0.1020541020
0.2041082040 -0.2041082040 -0.2041082040
0.3061623059 -0.1020541020 -0.3061623059
0.4082164079 -0.0000000000 -0.4082164079
0.5102705099 0.1020541020 -0.5102705099
0.1020541020 -0.5102705099 0.1020541020
0.2041082040 -0.4082164079 0.0000000000
0.3061623059 -0.3061623059 -0.1020541020
0.4082164079 -0.2041082040 -0.2041082040
0.5102705099 -0.1020541020 -0.3061623059
0.6123246119 0.0000000000 -0.4082164079
0.2041082040 -0.6123246119 0.2041082040
0.3061623059 -0.5102705099 0.1020541020
0.4082164079 -0.4082164079 0.0000000000
0.5102705099 -0.3061623059 -0.1020541020
0.6123246119 -0.2041082040 -0.2041082040
0.7143787138 -0.1020541020 -0.3061623059
0.3061623059 -0.7143787138 0.3061623059
0.4082164079 -0.6123246119 0.2041082040
0.5102705099 -0.5102705099 0.1020541020
0.6123246119 -0.4082164079 0.0000000000
0.7143787138 -0.3061623059 -0.1020541020
0.8164328158 -0.2041082040 -0.2041082040
-0.3061623059 -0.1020541020 -0.1020541020
-0.2041082040 -0.0000000000 -0.2041082040
-0.1020541020 0.1020541020 -0.3061623059
-0.0000000000 0.2041082040 -0.4082164079
0.1020541020 0.3061623059 -0.5102705099
0.2041082040 0.4082164079 -0.6123246119
-0.2041082040 -0.2041082040 -0.0000000000
-0.1020541020 -0.1020541020 -0.1020541020
-0.0000000000 -0.0000000000 -0.2041082040
0.1020541020 0.1020541020 -0.3061623059
0.2041082040 0.2041082040 -0.4082164079
0.3061623059 0.3061623059 -0.5102705099
-0.1020541020 -0.3061623059 0.1020541020
-0.0000000000 -0.2041082040 0.0000000000
0.1020541020 -0.1020541020 -0.1020541020
0.2041082040 -0.0000000000 -0.2041082040
0.3061623059 0.1020541020 -0.3061623059
0.4082164079 0.2041082040 -0.4082164079
-0.0000000000 -0.4082164079 0.2041082040
0.1020541020 -0.3061623059 0.1020541020
0.2041082040 -0.2041082040 0.0000000000
0.3061623059 -0.1020541020 -0.1020541020
0.4082164079 0.0000000000 -0.2041082040
0.5102705099 0.1020541020 -0.3061623059
0.1020541020 -0.5102705099 0.3061623059
0.2041082040 -0.4082164079 0.2041082040
0.3061623059 -0.3061623059 0.1020541020
0.4082164079 -0.2041082040 0.0000000000
0.5102705099 -0.1020541020 -0.1020541020
0.6123246119 0.0000000000 -0.2041082040
0.2041082040 -0.6123246119 0.4082164079
0.3061623059 -0.5102705099 0.3061623059
0.4082164079 -0.4082164079 0.2041082040
0.5102705099 -0.3061623059 0.1020541020
0.6123246119 -0.2041082040 0.0000000000
0.7143787138 -0.1020541020 -0.1020541020
-0.4082164079 -0.0000000000 -0.0000000000
-0.3061623059 0.1020541020 -0.1020541020
-0.2041082040 0.2041082040 -0.2041082040
-0.1020541020 0.3061623059 -0.3061623059
0.0000000000 0.4082164079 -0.4082164079
0.1020541020 0.5102705099 -0.5102705099
-0.3061623059 -0.1020541020 0.1020541020
-0.2041082040 -0.0000000000 -0.0000000000
-0.1020541020 0.1020541020 -0.1020541020
0.0000000000 0.2041082040 -0.2041082040
0.1020541020 0.3061623059 -0.3061623059
0.2041082040 0.4082164079 -0.4082164079
-0.2041082040 -0.2041082040 0.2041082040
-0.1020541020 -0.1020541020 0.1020541020
0.0000000000 0.0000000000 0.0000000000
0.1020541020 0.1020541020 -0.1020541020
0.2041082040 0.2041082040 -0.2041082040
0.3061623059 0.3061623059 -0.3061623059
-0.1020541020 -0.3061623059 0.3061623059
-0.0000000000 -0.2041082040 0.2041082040
0.1020541020 -0.1020541020 0.1020541020
0.2041082040 0.0000000000 0.0000000000
0.3061623059 0.1020541020 -0.1020541020
0.4082164079 0.2041082040 -0.2041082040
-0.0000000000 -0.4082164079 0.4082164079
0.1020541020 -0.3061623059 0.3061623059
0.2041082040 -0.2041082040 0.2041082040
0.3061623059 -0.1020541020 0.1020541020
0.4082164079 0.0000000000 0.0000000000
0.5102705099 0.1020541020 -0.1020541020
0.1020541020 -0.5102705099 0.5102705099
0.2041082040 -0.4082164079 0.4082164079
0.3061623059 -0.3061623059 0.3061623059
0.4082164079 -0.2041082040 0.2041082040
0.5102705099 -0.1020541020 0.1020541020
0.6123246119 0.0000000000 0.0000000000
-0.5102705099 0.1020541020 0.1020541020
-0.4082164079 0.2041082040 -0.0000000000
-0.3061623059 0.3061623059 -0.1020541020
-0.2041082040 0.4082164079 -0.2041082040
-0.1020541020 0.5102705099 -0.3061623059
0.0000000000 0.6123246119 -0.4082164079
-0.4082164079 -0.0000000000 0.2041082040
-0.3061623059 0.1020541020 0.1020541020
-0.2041082040 0.2041082040 -0.0000000000
-0.1020541020 0.3061623059 -0.1020541020
0.0000000000 0.4082164079 -0.2041082040
0.1020541020 0.5102705099 -0.3061623059
-0.3061623059 -0.1020541020 0.3061623059
-0.2041082040 -0.0000000000 0.2041082040
-0.1020541020 0.1020541020 0.1020541020
0.0000000000 0.2041082040 0.0000000000
0.1020541020 0.3061623059 -0.1020541020
0.2041082040 0.4082164079 -0.2041082040
-0.2041082040 -0.2041082040 0.4082164079
-0.1020541020 -0.1020541020 0.3061623059
0.0000000000 0.0000000000 0.2041082040
0.1020541020 0.1020541020 0.1020541020
0.2041082040 0.2041082040 0.0000000000
0.3061623059 0.3061623059 -0.1020541020
-0.1020541020 -0.3061623059 0.5102705099
-0.0000000000 -0.2041082040 0.4082164079
0.1020541020 -0.1020541020 0.3061623059
0.2041082040 0.0000000000 0.2041082040
0.3061623059 0.1020541020 0.1020541020
0.4082164079 0.2041082040 0.0000000000
-0.0000000000 -0.4082164079 0.6123246119
0.1020541020 -0.3061623059 0.5102705099
0.2041082040 -0.2041082040 0.4082164079
0.3061623059 -0.1020541020 0.3061623059
0.4082164079 0.0000000000 0.2041082040
0.5102705099 0.1020541020 0.1020541020
-0.6123246119 0.2041082040 0.2041082040
-0.5102705099 0.3061623059 0.1020541020
-0.4082164079 0.4082164079 -0.0000000000
-0.3061623059 0.5102705099 -0.1020541020
-0.2041082040 0.6123246119 -0.2041082040
-0.1020541020 0.7143787138 -0.3061623059
-0.5102705099 0.1020541020 0.3061623059
-0.4082164079 0.2041082040 0.2041082040
-0.3061623059 0.3061623059 0.1020541020
-0.2041082040 0.4082164079 -0.0000000000
-0.1020541020 0.5102705099 -0.1020541020
0.0000000000 0.6123246119 -0.2041082040
-0.4082164079 -0.0000000000 0.4082164079
-0.3061623059 0.1020541020 0.3061623059
-0.2041082040 0.2041082040 0.2041082040
-0.1020541020 0.3061623059 0.1020541020
0.0000000000 0.4082164079 0.0000000000
0.1020541020 0.5102705099 -0.1020541020
-0.3061623059 -0.1020541020 0.5102705099
-0.2041082040 0.0000000000 0.4082164079
-0.1020541020 0.1020541020 0.3061623059
0.0000000000 0.2041082040 0.2041082040
0.1020541020 0.3061623059 0.1020541020
0.2041082040 0.4082164079 0.0000000000
-0.2041082040 -0.2041082040 0.6123246119
-0.1020541020 -0.1020541020 0.5102705099
0.0000000000 0.0000000000 0.4082164079
0.1020541020 0.1020541020 0.3061623059
0.2041082040 0.2041082040 0.2041082040
0.3061623059 0.3061623059 0.1020541020
-0.1020541020 -0.3061623059 0.7143787138
0.0000000000 -0.2041082040 0.6123246119
0.1020541020 -0.1020541020 0.5102705099
0.2041082040 0.0000000000 0.4082164079
0.3061623059 0.1020541020 0.3061623059
0.4082164079 0.2041082040 0.2041082040
-0.7143787138 0.3061623059 0.3061623059
-0.6123246119 0.4082164079 0.2041082040
-0.5102705099 0.5102705099 0.1020541020
-0.4082164079 0.6123246119 -0.0000000000
-0.3061623059 0.7143787138 -0.1020541020
-0.2041082040 0.8164328158 -0.2041082040
-0.6123246119 0.2041082040 0.4082164079
-0.5102705099 0.3061623059 0.3061623059
-0.4082164079 0.4082164079 0.2041082040
-0.3061623059 0.5102705099 0.1020541020
-0.2041082040 0.6123246119 0.0000000000
-0.1020541020 0.7143787138 -0.1020541020
-0.5102705099 0.1020541020 0.5102705099
-0.4082164079 0.2041082040 0.4082164079
-0.3061623059 0.3061623059 0.3061623059
-0.2041082040 0.4082164079 0.2041082040
-0.1020541020 0.5102705099 0.1020541020
0.0000000000 0.6123246119 0.0000000000
-0.4082164079 0.0000000000 0.6123246119
-0.3061623059 0.1020541020 0.5102705099
-0.2041082040 0.2041082040 0.4082164079
-0.1020541020 0.3061623059 0.3061623059
0.0000000000 0.4082164079 0.2041082040
0.1020541020 0.5102705099 0.1020541020
-0.3061623059 -0.1020541020 0.7143787138
-0.2041082040 0.0000000000 0.6123246119
-0.1020541020 0.1020541020 0.5102705099
0.0000000000 0.2041082040 0.4082164079
0.1020541020 0.3061623059 0.3061623059
0.2041082040 0.4082164079 0.2041082040
-0.2041082040 -0.2041082040 0.8164328158
-0.1020541020 -0.1020541020 0.7143787138
0.0000000000 0.0000000000 0.6123246119
0.1020541020 0.1020541020 0.5102705099
0.2041082040 0.2041082040 0.4082164079
0.3061623059 0.3061623059 0.3061623059
 There are 14 alpha and 14 beta electrons
 Start computing overlap matrix
 Allocate 48121344 B from available memory: 1048575734752 B
 Time for computing overlap matrix: 3.5330000000 s
 ====== Initialize compute kernels for all-electron RI-J (kpts) ====== 
 ========================================================== 
 Range-separated parameter omega        = 0.900000000000000022
 Threshold for 1e2c shellpair           = 0.000000000000010000
 Threshold for 2e2c SR integral         = 0.000000000000000001
 Threshold for 2e3c SR integral         = 0.000000000100000000
 Threshold for AFT G-space screening is = 0.000000000001000000
 The exponent cutoff for C/D classification (omega2 / 2) is  = 0.405000000000000027
 ========================================================== 
 === Post process the basis set for RI calculation (exp_cutoff = 0.405000000000000027 ) === 
nshells_b1 before uncontraction = 28
nshells_b1 after uncontraction = 28
nshells_baux before uncontraction = 80
nshells_baux after uncontraction = 80
===============================================
nbsf total   = 118
nbsf compact = 60
nbsf diffuse = 58
naux total   = 296
naux compact = 296
naux diffuse = 0
nshells_bnuc = 2

 Number of unique atoms is 1
 Unique atom #0 (si) has 5 shells.

Shell 0 to 4 belongs to atom si
Shell 5 to 9 belongs to atom si

 Number of unique atoms is 1
 Unique atom #0 (si) has 9 shells.

Shell 0 to 8 belongs to atom si
Shell 9 to 17 belongs to atom si

 Number of unique atom is 1
 Unique atom #0 (si) has 40 auxiliary shells.

Auxiliary Shell 0 to 39 belongs to atom si
Auxiliary Shell 40 to 79 belongs to atom si

================= Automatically determine grid size for reciprocal space summation =================
 Range-separated parameter = 0.90000000000000 and G-space screening threshold = 0.00000000000100
The number of grid points along each axis dimension is (10, 10, 10)
Total number of grid points = 9261

Use nonortho shellpair for diffuse density
======== Initializing relevant kernel for RIJ (DD type) ========
There are 171 shellpairs in the reference unit cell
There are 3661 images and we expect to have 626031 in total
There are 23126 shellpairs in the lattice sum after screening
======== Initializing relevant kernel for RIJ (CD type) ========
There are 180 shellpairs in the reference unit cell
There are 2395 images and we expect to have 431100 in total
There are 12134 shellpairs in the lattice sum after screening
****** AFT -> SR ******
Maximum bra distance cutoff is 23.000000000000
Maximum bra ket distance cutoff is 20.611302005944
Maximum bra ket screening distance is 19.000000000000
Number of auxiliary image is 551
There are 180 shellpairs in the reference unit cell
There are 551 images and we expect to have 99180 in total
There are 12134 shellpairs in the lattice sum after screening
Available memory per thread for 2e3c calculation is 32.766487919000Gb
Finish initializing 2e3c SR with the lattice sum!
=================================================
======== Initializing relevant kernel for RIJ (CC type) ========
There are 55 shellpairs in the reference unit cell
There are 695 images and we expect to have 38225 in total
There are 694 shellpairs in the lattice sum after screening
****** AFT -> SR ******
Maximum bra distance cutoff is 11.000000000000
Maximum bra ket distance cutoff is 21.062500000000
Maximum bra ket screening distance is 18.718750000000
Number of auxiliary image is 455
There are 55 shellpairs in the reference unit cell
There are 117 images and we expect to have 6435 in total
There are 694 shellpairs in the lattice sum after screening
Available memory per thread for 2e3c calculation is 32.766487919000Gb
Finish initializing 2e3c SR with the lattice sum!
=================================================
======== Initializing the SR component for Vnuc (CD type) ========
Maximum bra distance cutoff is 23.000000000000
Maximum bra ket distance cutoff is 11.920357219976
Maximum bra ket screening distance is 9.960251940080
Number of auxiliary image is 551
There are 180 shellpairs in the reference unit cell
There are 551 images and we expect to have 99180 in total
There are 12134 shellpairs in the lattice sum after screening
Available memory per thread for 2e3c calculation is 32.766487919000Gb
Finish initializing 2e3c SR with the lattice sum!
=================================================
======== Initialize the SR component for Vnuc (CC type) ========
Maximum bra distance cutoff is 11.000000000000
Maximum bra ket distance cutoff is 13.059451665625
Maximum bra ket screening distance is 9.261023449952
Number of auxiliary image is 213
There are 55 shellpairs in the reference unit cell
There are 117 images and we expect to have 6435 in total
There are 694 shellpairs in the lattice sum after screening
Available memory per thread for 2e3c calculation is 32.766487919000Gb
Finish initializing 2e3c SR with the lattice sum!
=================================================
 Aufbau occupation scheme, occupation determined by eigenvalue
 == 0-th k-point nmo = 114 (-0.20411,-0.20411,-0.20411) ==
 == 1-th k-point nmo = 114 (-0.10205,-0.10205,-0.30616) ==
 == 2-th k-point nmo = 114 (-0.00000,-0.00000,-0.40822) ==
 == 3-th k-point nmo = 114 (0.10205,0.10205,-0.51027) ==
 == 4-th k-point nmo = 114 (0.20411,0.20411,-0.61232) ==
 == 5-th k-point nmo = 114 (0.30616,0.30616,-0.71438) ==
 == 6-th k-point nmo = 114 (-0.10205,-0.30616,-0.10205) ==
 == 7-th k-point nmo = 114 (-0.00000,-0.20411,-0.20411) ==
 == 8-th k-point nmo = 114 (0.10205,-0.10205,-0.30616) ==
 == 9-th k-point nmo = 114 (0.20411,-0.00000,-0.40822) ==
 == 10-th k-point nmo = 114 (0.30616,0.10205,-0.51027) ==
 == 11-th k-point nmo = 114 (0.40822,0.20411,-0.61232) ==
 == 12-th k-point nmo = 114 (-0.00000,-0.40822,0.00000) ==
 == 13-th k-point nmo = 114 (0.10205,-0.30616,-0.10205) ==
 == 14-th k-point nmo = 114 (0.20411,-0.20411,-0.20411) ==
 == 15-th k-point nmo = 114 (0.30616,-0.10205,-0.30616) ==
 == 16-th k-point nmo = 114 (0.40822,-0.00000,-0.40822) ==
 == 17-th k-point nmo = 114 (0.51027,0.10205,-0.51027) ==
 == 18-th k-point nmo = 114 (0.10205,-0.51027,0.10205) ==
 == 19-th k-point nmo = 114 (0.20411,-0.40822,0.00000) ==
 == 20-th k-point nmo = 114 (0.30616,-0.30616,-0.10205) ==
 == 21-th k-point nmo = 114 (0.40822,-0.20411,-0.20411) ==
 == 22-th k-point nmo = 114 (0.51027,-0.10205,-0.30616) ==
 == 23-th k-point nmo = 114 (0.61232,0.00000,-0.40822) ==
 == 24-th k-point nmo = 114 (0.20411,-0.61232,0.20411) ==
 == 25-th k-point nmo = 114 (0.30616,-0.51027,0.10205) ==
 == 26-th k-point nmo = 114 (0.40822,-0.40822,0.00000) ==
 == 27-th k-point nmo = 114 (0.51027,-0.30616,-0.10205) ==
 == 28-th k-point nmo = 114 (0.61232,-0.20411,-0.20411) ==
 == 29-th k-point nmo = 114 (0.71438,-0.10205,-0.30616) ==
 == 30-th k-point nmo = 114 (0.30616,-0.71438,0.30616) ==
 == 31-th k-point nmo = 114 (0.40822,-0.61232,0.20411) ==
 == 32-th k-point nmo = 114 (0.51027,-0.51027,0.10205) ==
 == 33-th k-point nmo = 114 (0.61232,-0.40822,0.00000) ==
 == 34-th k-point nmo = 114 (0.71438,-0.30616,-0.10205) ==
 == 35-th k-point nmo = 114 (0.81643,-0.20411,-0.20411) ==
 == 36-th k-point nmo = 114 (-0.30616,-0.10205,-0.10205) ==
 == 37-th k-point nmo = 114 (-0.20411,-0.00000,-0.20411) ==
 == 38-th k-point nmo = 114 (-0.10205,0.10205,-0.30616) ==
 == 39-th k-point nmo = 114 (-0.00000,0.20411,-0.40822) ==
 == 40-th k-point nmo = 114 (0.10205,0.30616,-0.51027) ==
 == 41-th k-point nmo = 114 (0.20411,0.40822,-0.61232) ==
 == 42-th k-point nmo = 114 (-0.20411,-0.20411,-0.00000) ==
 == 43-th k-point nmo = 115 (-0.10205,-0.10205,-0.10205) ==
 == 44-th k-point nmo = 114 (-0.00000,-0.00000,-0.20411) ==
 == 45-th k-point nmo = 114 (0.10205,0.10205,-0.30616) ==
 == 46-th k-point nmo = 114 (0.20411,0.20411,-0.40822) ==
 == 47-th k-point nmo = 114 (0.30616,0.30616,-0.51027) ==
 == 48-th k-point nmo = 114 (-0.10205,-0.30616,0.10205) ==
 == 49-th k-point nmo = 114 (-0.00000,-0.20411,0.00000) ==
 == 50-th k-point nmo = 115 (0.10205,-0.10205,-0.10205) ==
 == 51-th k-point nmo = 114 (0.20411,-0.00000,-0.20411) ==
 == 52-th k-point nmo = 114 (0.30616,0.10205,-0.30616) ==
 == 53-th k-point nmo = 114 (0.40822,0.20411,-0.40822) ==
 == 54-th k-point nmo = 114 (-0.00000,-0.40822,0.20411) ==
 == 55-th k-point nmo = 114 (0.10205,-0.30616,0.10205) ==
 == 56-th k-point nmo = 114 (0.20411,-0.20411,0.00000) ==
 == 57-th k-point nmo = 114 (0.30616,-0.10205,-0.10205) ==
 == 58-th k-point nmo = 114 (0.40822,0.00000,-0.20411) ==
 == 59-th k-point nmo = 114 (0.51027,0.10205,-0.30616) ==
 == 60-th k-point nmo = 114 (0.10205,-0.51027,0.30616) ==
 == 61-th k-point nmo = 114 (0.20411,-0.40822,0.20411) ==
 == 62-th k-point nmo = 114 (0.30616,-0.30616,0.10205) ==
 == 63-th k-point nmo = 114 (0.40822,-0.20411,0.00000) ==
 == 64-th k-point nmo = 114 (0.51027,-0.10205,-0.10205) ==
 == 65-th k-point nmo = 114 (0.61232,0.00000,-0.20411) ==
 == 66-th k-point nmo = 114 (0.20411,-0.61232,0.40822) ==
 == 67-th k-point nmo = 114 (0.30616,-0.51027,0.30616) ==
 == 68-th k-point nmo = 114 (0.40822,-0.40822,0.20411) ==
 == 69-th k-point nmo = 114 (0.51027,-0.30616,0.10205) ==
 == 70-th k-point nmo = 114 (0.61232,-0.20411,0.00000) ==
 == 71-th k-point nmo = 114 (0.71438,-0.10205,-0.10205) ==
 == 72-th k-point nmo = 114 (-0.40822,-0.00000,-0.00000) ==
 == 73-th k-point nmo = 114 (-0.30616,0.10205,-0.10205) ==
 == 74-th k-point nmo = 114 (-0.20411,0.20411,-0.20411) ==
 == 75-th k-point nmo = 114 (-0.10205,0.30616,-0.30616) ==
 == 76-th k-point nmo = 114 (0.00000,0.40822,-0.40822) ==
 == 77-th k-point nmo = 114 (0.10205,0.51027,-0.51027) ==
 == 78-th k-point nmo = 114 (-0.30616,-0.10205,0.10205) ==
 == 79-th k-point nmo = 114 (-0.20411,-0.00000,-0.00000) ==
 == 80-th k-point nmo = 115 (-0.10205,0.10205,-0.10205) ==
 == 81-th k-point nmo = 114 (0.00000,0.20411,-0.20411) ==
 == 82-th k-point nmo = 114 (0.10205,0.30616,-0.30616) ==
 == 83-th k-point nmo = 114 (0.20411,0.40822,-0.40822) ==
 == 84-th k-point nmo = 114 (-0.20411,-0.20411,0.20411) ==
 == 85-th k-point nmo = 115 (-0.10205,-0.10205,0.10205) ==
 == 86-th k-point nmo = 115 (0.00000,0.00000,0.00000) ==
 == 87-th k-point nmo = 115 (0.10205,0.10205,-0.10205) ==
 == 88-th k-point nmo = 114 (0.20411,0.20411,-0.20411) ==
 == 89-th k-point nmo = 114 (0.30616,0.30616,-0.30616) ==
 == 90-th k-point nmo = 114 (-0.10205,-0.30616,0.30616) ==
 == 91-th k-point nmo = 114 (-0.00000,-0.20411,0.20411) ==
 == 92-th k-point nmo = 115 (0.10205,-0.10205,0.10205) ==
 == 93-th k-point nmo = 114 (0.20411,0.00000,0.00000) ==
 == 94-th k-point nmo = 114 (0.30616,0.10205,-0.10205) ==
 == 95-th k-point nmo = 114 (0.40822,0.20411,-0.20411) ==
 == 96-th k-point nmo = 114 (-0.00000,-0.40822,0.40822) ==
 == 97-th k-point nmo = 114 (0.10205,-0.30616,0.30616) ==
 == 98-th k-point nmo = 114 (0.20411,-0.20411,0.20411) ==
 == 99-th k-point nmo = 114 (0.30616,-0.10205,0.10205) ==
 == 100-th k-point nmo = 114 (0.40822,0.00000,0.00000) ==
 == 101-th k-point nmo = 114 (0.51027,0.10205,-0.10205) ==
 == 102-th k-point nmo = 114 (0.10205,-0.51027,0.51027) ==
 == 103-th k-point nmo = 114 (0.20411,-0.40822,0.40822) ==
 == 104-th k-point nmo = 114 (0.30616,-0.30616,0.30616) ==
 == 105-th k-point nmo = 114 (0.40822,-0.20411,0.20411) ==
 == 106-th k-point nmo = 114 (0.51027,-0.10205,0.10205) ==
 == 107-th k-point nmo = 114 (0.61232,0.00000,0.00000) ==
 == 108-th k-point nmo = 114 (-0.51027,0.10205,0.10205) ==
 == 109-th k-point nmo = 114 (-0.40822,0.20411,-0.00000) ==
 == 110-th k-point nmo = 114 (-0.30616,0.30616,-0.10205) ==
 == 111-th k-point nmo = 114 (-0.20411,0.40822,-0.20411) ==
 == 112-th k-point nmo = 114 (-0.10205,0.51027,-0.30616) ==
 == 113-th k-point nmo = 114 (0.00000,0.61232,-0.40822) ==
 == 114-th k-point nmo = 114 (-0.40822,-0.00000,0.20411) ==
 == 115-th k-point nmo = 114 (-0.30616,0.10205,0.10205) ==
 == 116-th k-point nmo = 114 (-0.20411,0.20411,-0.00000) ==
 == 117-th k-point nmo = 114 (-0.10205,0.30616,-0.10205) ==
 == 118-th k-point nmo = 114 (0.00000,0.40822,-0.20411) ==
 == 119-th k-point nmo = 114 (0.10205,0.51027,-0.30616) ==
 == 120-th k-point nmo = 114 (-0.30616,-0.10205,0.30616) ==
 == 121-th k-point nmo = 114 (-0.20411,-0.00000,0.20411) ==
 == 122-th k-point nmo = 115 (-0.10205,0.10205,0.10205) ==
 == 123-th k-point nmo = 114 (0.00000,0.20411,0.00000) ==
 == 124-th k-point nmo = 114 (0.10205,0.30616,-0.10205) ==
 == 125-th k-point nmo = 114 (0.20411,0.40822,-0.20411) ==
 == 126-th k-point nmo = 114 (-0.20411,-0.20411,0.40822) ==
 == 127-th k-point nmo = 114 (-0.10205,-0.10205,0.30616) ==
 == 128-th k-point nmo = 114 (0.00000,0.00000,0.20411) ==
 == 129-th k-point nmo = 115 (0.10205,0.10205,0.10205) ==
 == 130-th k-point nmo = 114 (0.20411,0.20411,0.00000) ==
 == 131-th k-point nmo = 114 (0.30616,0.30616,-0.10205) ==
 == 132-th k-point nmo = 114 (-0.10205,-0.30616,0.51027) ==
 == 133-th k-point nmo = 114 (-0.00000,-0.20411,0.40822) ==
 == 134-th k-point nmo = 114 (0.10205,-0.10205,0.30616) ==
 == 135-th k-point nmo = 114 (0.20411,0.00000,0.20411) ==
 == 136-th k-point nmo = 114 (0.30616,0.10205,0.10205) ==
 == 137-th k-point nmo = 114 (0.40822,0.20411,0.00000) ==
 == 138-th k-point nmo = 114 (-0.00000,-0.40822,0.61232) ==
 == 139-th k-point nmo = 114 (0.10205,-0.30616,0.51027) ==
 == 140-th k-point nmo = 114 (0.20411,-0.20411,0.40822) ==
 == 141-th k-point nmo = 114 (0.30616,-0.10205,0.30616) ==
 == 142-th k-point nmo = 114 (0.40822,0.00000,0.20411) ==
 == 143-th k-point nmo = 114 (0.51027,0.10205,0.10205) ==
 == 144-th k-point nmo = 114 (-0.61232,0.20411,0.20411) ==
 == 145-th k-point nmo = 114 (-0.51027,0.30616,0.10205) ==
 == 146-th k-point nmo = 114 (-0.40822,0.40822,-0.00000) ==
 == 147-th k-point nmo = 114 (-0.30616,0.51027,-0.10205) ==
 == 148-th k-point nmo = 114 (-0.20411,0.61232,-0.20411) ==
 == 149-th k-point nmo = 114 (-0.10205,0.71438,-0.30616) ==
 == 150-th k-point nmo = 114 (-0.51027,0.10205,0.30616) ==
 == 151-th k-point nmo = 114 (-0.40822,0.20411,0.20411) ==
 == 152-th k-point nmo = 114 (-0.30616,0.30616,0.10205) ==
 == 153-th k-point nmo = 114 (-0.20411,0.40822,-0.00000) ==
 == 154-th k-point nmo = 114 (-0.10205,0.51027,-0.10205) ==
 == 155-th k-point nmo = 114 (0.00000,0.61232,-0.20411) ==
 == 156-th k-point nmo = 114 (-0.40822,-0.00000,0.40822) ==
 == 157-th k-point nmo = 114 (-0.30616,0.10205,0.30616) ==
 == 158-th k-point nmo = 114 (-0.20411,0.20411,0.20411) ==
 == 159-th k-point nmo = 114 (-0.10205,0.30616,0.10205) ==
 == 160-th k-point nmo = 114 (0.00000,0.40822,0.00000) ==
 == 161-th k-point nmo = 114 (0.10205,0.51027,-0.10205) ==
 == 162-th k-point nmo = 114 (-0.30616,-0.10205,0.51027) ==
 == 163-th k-point nmo = 114 (-0.20411,0.00000,0.40822) ==
 == 164-th k-point nmo = 114 (-0.10205,0.10205,0.30616) ==
 == 165-th k-point nmo = 114 (0.00000,0.20411,0.20411) ==
 == 166-th k-point nmo = 114 (0.10205,0.30616,0.10205) ==
 == 167-th k-point nmo = 114 (0.20411,0.40822,0.00000) ==
 == 168-th k-point nmo = 114 (-0.20411,-0.20411,0.61232) ==
 == 169-th k-point nmo = 114 (-0.10205,-0.10205,0.51027) ==
 == 170-th k-point nmo = 114 (0.00000,0.00000,0.40822) ==
 == 171-th k-point nmo = 114 (0.10205,0.10205,0.30616) ==
 == 172-th k-point nmo = 114 (0.20411,0.20411,0.20411) ==
 == 173-th k-point nmo = 114 (0.30616,0.30616,0.10205) ==
 == 174-th k-point nmo = 114 (-0.10205,-0.30616,0.71438) ==
 == 175-th k-point nmo = 114 (0.00000,-0.20411,0.61232) ==
 == 176-th k-point nmo = 114 (0.10205,-0.10205,0.51027) ==
 == 177-th k-point nmo = 114 (0.20411,0.00000,0.40822) ==
 == 178-th k-point nmo = 114 (0.30616,0.10205,0.30616) ==
 == 179-th k-point nmo = 114 (0.40822,0.20411,0.20411) ==
 == 180-th k-point nmo = 114 (-0.71438,0.30616,0.30616) ==
 == 181-th k-point nmo = 114 (-0.61232,0.40822,0.20411) ==
 == 182-th k-point nmo = 114 (-0.51027,0.51027,0.10205) ==
 == 183-th k-point nmo = 114 (-0.40822,0.61232,-0.00000) ==
 == 184-th k-point nmo = 114 (-0.30616,0.71438,-0.10205) ==
 == 185-th k-point nmo = 114 (-0.20411,0.81643,-0.20411) ==
 == 186-th k-point nmo = 114 (-0.61232,0.20411,0.40822) ==
 == 187-th k-point nmo = 114 (-0.51027,0.30616,0.30616) ==
 == 188-th k-point nmo = 114 (-0.40822,0.40822,0.20411) ==
 == 189-th k-point nmo = 114 (-0.30616,0.51027,0.10205) ==
 == 190-th k-point nmo = 114 (-0.20411,0.61232,0.00000) ==
 == 191-th k-point nmo = 114 (-0.10205,0.71438,-0.10205) ==
 == 192-th k-point nmo = 114 (-0.51027,0.10205,0.51027) ==
 == 193-th k-point nmo = 114 (-0.40822,0.20411,0.40822) ==
 == 194-th k-point nmo = 114 (-0.30616,0.30616,0.30616) ==
 == 195-th k-point nmo = 114 (-0.20411,0.40822,0.20411) ==
 == 196-th k-point nmo = 114 (-0.10205,0.51027,0.10205) ==
 == 197-th k-point nmo = 114 (0.00000,0.61232,0.00000) ==
 == 198-th k-point nmo = 114 (-0.40822,0.00000,0.61232) ==
 == 199-th k-point nmo = 114 (-0.30616,0.10205,0.51027) ==
 == 200-th k-point nmo = 114 (-0.20411,0.20411,0.40822) ==
 == 201-th k-point nmo = 114 (-0.10205,0.30616,0.30616) ==
 == 202-th k-point nmo = 114 (0.00000,0.40822,0.20411) ==
 == 203-th k-point nmo = 114 (0.10205,0.51027,0.10205) ==
 == 204-th k-point nmo = 114 (-0.30616,-0.10205,0.71438) ==
 == 205-th k-point nmo = 114 (-0.20411,0.00000,0.61232) ==
 == 206-th k-point nmo = 114 (-0.10205,0.10205,0.51027) ==
 == 207-th k-point nmo = 114 (0.00000,0.20411,0.40822) ==
 == 208-th k-point nmo = 114 (0.10205,0.30616,0.30616) ==
 == 209-th k-point nmo = 114 (0.20411,0.40822,0.20411) ==
 == 210-th k-point nmo = 114 (-0.20411,-0.20411,0.81643) ==
 == 211-th k-point nmo = 114 (-0.10205,-0.10205,0.71438) ==
 == 212-th k-point nmo = 114 (0.00000,0.00000,0.61232) ==
 == 213-th k-point nmo = 114 (0.10205,0.10205,0.51027) ==
 == 214-th k-point nmo = 114 (0.20411,0.20411,0.40822) ==
 == 215-th k-point nmo = 114 (0.30616,0.30616,0.30616) ==

 Generate autoSAD guess
backing up fragment data
Atom # 0: si, charge: 0, multiplicity: 3.000000
writing autosad to fragment context
Settings for isolated fragments: 
  frgm_gamma: TRUE
  frgm_center: FALSE

    Running SCF for isolated atom #0
    Fragment Input file: /n/netscratch/joonholee_lab/Lab/hieudinh//si_2_ccpvqz_omega_0.9_666.scratch20250909031736/autosad_frgmt_0/frgmt_input.in
    Fragment Output file: /n/netscratch/joonholee_lab/Lab/hieudinh//si_2_ccpvqz_omega_0.9_666.scratch20250909031736/autosad_frgmt_0/frgmt_job.out
    Fragment job begins at Tue Sep  9 03:17:43 2025

 Integrated density by DFT XC:
   Numerical integral  =    13.999999643759
   Relative error      =     0.0000025446 %
Final energy components:
 DFT Correlation            Energy =  -0.48370207231611
 DFT Exchange               Energy = -20.13940840112214
 Kinetic (alpha)            Energy = 145.05483363964726
 Kinetic (beta)             Energy = 143.11842945473290
 Nuclear Attraction (alpha) Energy = -351.06191315317841
 Nuclear Attraction (beta)  Energy = -337.54515075030446
 Nuclear Repulsion          Energy =   0.00000000000000
 SEOQF                      Energy =  -0.00000000010144
 Total Coulomb              Energy = 131.82731983024462
----------------------------------------------
    SCF Energy: -289.2295914524
   Total fragment job time:  0.52 s.
restoring fragment data

 ------------------------------------------------------------------------
 Allocate 149872608 B from available memory: 1048527613408 B
 Time for generating SCF guess: 0.59 s

 Allocate 97424 B from available memory: 1048377740800 B
 Selected algorithms for each term:
  kpts_kinetic -> @0x14f015e67680
  kpts_nn -> @0x14f015e67800
  kpts_rij_bigmem -> @0x14f015e673e0
  kpts_vnuc_df -> @0x14f015e67380
  kpts_xc -> @0x14f015e672c0
 Time for computing kinetic matrix is 3.41 s
Start calculating Vnuc DD type!
Start calculating Vnuc CD type!
Start calculating Vnuc CC type!
 Time for computing nuclear attraction matrix is 8.24 s
Compute (P|Q) and use solve on the fly!
Maximum distance between P and Q is 28.44997180930993
Number of images for (P|Qn) is 887
 Time for computing 2e2c SR integral is 0.12 s
Maximum dynamic memory per thread for 2e3c SR integrals: 0.097 GiB
Batch size for basis function pair is 3480 out of 3480
 === bvk cell = 0 has 100.000 % of the basis function pairs === 
 === bvk cell = 1 has 97.241 % of the basis function pairs === 
 === bvk cell = 2 has 47.586 % of the basis function pairs === 
 === bvk cell = 3 has 12.069 % of the basis function pairs === 
 === bvk cell = 4 has 47.586 % of the basis function pairs === 
 === bvk cell = 5 has 97.241 % of the basis function pairs === 
 === bvk cell = 6 has 97.241 % of the basis function pairs === 
 === bvk cell = 7 has 61.609 % of the basis function pairs === 
 === bvk cell = 8 has 16.466 % of the basis function pairs === 
 === bvk cell = 9 has 15.230 % of the basis function pairs === 
 === bvk cell = 10 has 62.672 % of the basis function pairs === 
 === bvk cell = 11 has 100.000 % of the basis function pairs === 
 === bvk cell = 12 has 47.586 % of the basis function pairs === 
 === bvk cell = 13 has 16.466 % of the basis function pairs === 
 === bvk cell = 14 has 3.448 % of the basis function pairs === 
 === bvk cell = 15 has 13.793 % of the basis function pairs === 
 === bvk cell = 16 has 41.034 % of the basis function pairs === 
 === bvk cell = 17 has 62.672 % of the basis function pairs === 
 === bvk cell = 18 has 12.069 % of the basis function pairs === 
 === bvk cell = 19 has 15.230 % of the basis function pairs === 
 === bvk cell = 20 has 13.793 % of the basis function pairs === 
 === bvk cell = 21 has 10.345 % of the basis function pairs === 
 === bvk cell = 22 has 13.793 % of the basis function pairs === 
 === bvk cell = 23 has 15.230 % of the basis function pairs === 
 === bvk cell = 24 has 47.586 % of the basis function pairs === 
 === bvk cell = 25 has 62.672 % of the basis function pairs === 
 === bvk cell = 26 has 41.034 % of the basis function pairs === 
 === bvk cell = 27 has 13.793 % of the basis function pairs === 
 === bvk cell = 28 has 3.448 % of the basis function pairs === 
 === bvk cell = 29 has 16.466 % of the basis function pairs === 
 === bvk cell = 30 has 97.241 % of the basis function pairs === 
 === bvk cell = 31 has 100.000 % of the basis function pairs === 
 === bvk cell = 32 has 62.672 % of the basis function pairs === 
 === bvk cell = 33 has 15.230 % of the basis function pairs === 
 === bvk cell = 34 has 16.466 % of the basis function pairs === 
 === bvk cell = 35 has 61.609 % of the basis function pairs === 
 === bvk cell = 36 has 97.241 % of the basis function pairs === 
 === bvk cell = 37 has 61.609 % of the basis function pairs === 
 === bvk cell = 38 has 16.466 % of the basis function pairs === 
 === bvk cell = 39 has 15.230 % of the basis function pairs === 
 === bvk cell = 40 has 62.672 % of the basis function pairs === 
 === bvk cell = 41 has 100.000 % of the basis function pairs === 
 === bvk cell = 42 has 61.609 % of the basis function pairs === 
 === bvk cell = 43 has 23.908 % of the basis function pairs === 
 === bvk cell = 44 has 6.034 % of the basis function pairs === 
 === bvk cell = 45 has 16.092 % of the basis function pairs === 
 === bvk cell = 46 has 59.713 % of the basis function pairs === 
 === bvk cell = 47 has 87.874 % of the basis function pairs === 
 === bvk cell = 48 has 16.466 % of the basis function pairs === 
 === bvk cell = 49 has 6.034 % of the basis function pairs === 
 === bvk cell = 50 has 0.000 % of the basis function pairs === 
 === bvk cell = 51 has 13.793 % of the basis function pairs === 
 === bvk cell = 52 has 25.948 % of the basis function pairs === 
 === bvk cell = 53 has 30.805 % of the basis function pairs === 
 === bvk cell = 54 has 15.230 % of the basis function pairs === 
 === bvk cell = 55 has 16.092 % of the basis function pairs === 
 === bvk cell = 56 has 13.793 % of the basis function pairs === 
 === bvk cell = 57 has 7.759 % of the basis function pairs === 
 === bvk cell = 58 has 8.621 % of the basis function pairs === 
 === bvk cell = 59 has 12.069 % of the basis function pairs === 
 === bvk cell = 60 has 62.672 % of the basis function pairs === 
 === bvk cell = 61 has 59.713 % of the basis function pairs === 
 === bvk cell = 62 has 25.948 % of the basis function pairs === 
 === bvk cell = 63 has 8.621 % of the basis function pairs === 
 === bvk cell = 64 has 8.621 % of the basis function pairs === 
 === bvk cell = 65 has 30.805 % of the basis function pairs === 
 === bvk cell = 66 has 100.000 % of the basis function pairs === 
 === bvk cell = 67 has 87.874 % of the basis function pairs === 
 === bvk cell = 68 has 30.805 % of the basis function pairs === 
 === bvk cell = 69 has 12.069 % of the basis function pairs === 
 === bvk cell = 70 has 30.805 % of the basis function pairs === 
 === bvk cell = 71 has 87.874 % of the basis function pairs === 
 === bvk cell = 72 has 47.586 % of the basis function pairs === 
 === bvk cell = 73 has 16.466 % of the basis function pairs === 
 === bvk cell = 74 has 3.448 % of the basis function pairs === 
 === bvk cell = 75 has 13.793 % of the basis function pairs === 
 === bvk cell = 76 has 41.034 % of the basis function pairs === 
 === bvk cell = 77 has 62.672 % of the basis function pairs === 
 === bvk cell = 78 has 16.466 % of the basis function pairs === 
 === bvk cell = 79 has 6.034 % of the basis function pairs === 
 === bvk cell = 80 has 0.000 % of the basis function pairs === 
 === bvk cell = 81 has 13.793 % of the basis function pairs === 
 === bvk cell = 82 has 25.948 % of the basis function pairs === 
 === bvk cell = 83 has 30.805 % of the basis function pairs === 
 === bvk cell = 84 has 3.448 % of the basis function pairs === 
 === bvk cell = 85 has 0.000 % of the basis function pairs === 
 === bvk cell = 86 has 0.000 % of the basis function pairs === 
 === bvk cell = 87 has 8.621 % of the basis function pairs === 
 === bvk cell = 88 has 10.345 % of the basis function pairs === 
 === bvk cell = 89 has 8.621 % of the basis function pairs === 
 === bvk cell = 90 has 13.793 % of the basis function pairs === 
 === bvk cell = 91 has 13.793 % of the basis function pairs === 
 === bvk cell = 92 has 8.621 % of the basis function pairs === 
 === bvk cell = 93 has 0.000 % of the basis function pairs === 
 === bvk cell = 94 has 0.000 % of the basis function pairs === 
 === bvk cell = 95 has 8.621 % of the basis function pairs === 
 === bvk cell = 96 has 41.034 % of the basis function pairs === 
 === bvk cell = 97 has 25.948 % of the basis function pairs === 
 === bvk cell = 98 has 10.345 % of the basis function pairs === 
 === bvk cell = 99 has 0.000 % of the basis function pairs === 
 === bvk cell = 100 has 10.345 % of the basis function pairs === 
 === bvk cell = 101 has 25.948 % of the basis function pairs === 
 === bvk cell = 102 has 62.672 % of the basis function pairs === 
 === bvk cell = 103 has 30.805 % of the basis function pairs === 
 === bvk cell = 104 has 8.621 % of the basis function pairs === 
 === bvk cell = 105 has 8.621 % of the basis function pairs === 
 === bvk cell = 106 has 25.948 % of the basis function pairs === 
 === bvk cell = 107 has 59.713 % of the basis function pairs === 
 === bvk cell = 108 has 12.069 % of the basis function pairs === 
 === bvk cell = 109 has 15.230 % of the basis function pairs === 
 === bvk cell = 110 has 13.793 % of the basis function pairs === 
 === bvk cell = 111 has 10.345 % of the basis function pairs === 
 === bvk cell = 112 has 13.793 % of the basis function pairs === 
 === bvk cell = 113 has 15.230 % of the basis function pairs === 
 === bvk cell = 114 has 15.230 % of the basis function pairs === 
 === bvk cell = 115 has 16.092 % of the basis function pairs === 
 === bvk cell = 116 has 13.793 % of the basis function pairs === 
 === bvk cell = 117 has 7.759 % of the basis function pairs === 
 === bvk cell = 118 has 8.621 % of the basis function pairs === 
 === bvk cell = 119 has 12.069 % of the basis function pairs === 
 === bvk cell = 120 has 13.793 % of the basis function pairs === 
 === bvk cell = 121 has 13.793 % of the basis function pairs === 
 === bvk cell = 122 has 8.621 % of the basis function pairs === 
 === bvk cell = 123 has 0.000 % of the basis function pairs === 
 === bvk cell = 124 has 0.000 % of the basis function pairs === 
 === bvk cell = 125 has 8.621 % of the basis function pairs === 
 === bvk cell = 126 has 10.345 % of the basis function pairs === 
 === bvk cell = 127 has 7.759 % of the basis function pairs === 
 === bvk cell = 128 has 0.000 % of the basis function pairs === 
 === bvk cell = 129 has 0.000 % of the basis function pairs === 
 === bvk cell = 130 has 0.000 % of the basis function pairs === 
 === bvk cell = 131 has 7.759 % of the basis function pairs === 
 === bvk cell = 132 has 13.793 % of the basis function pairs === 
 === bvk cell = 133 has 8.621 % of the basis function pairs === 
 === bvk cell = 134 has 0.000 % of the basis function pairs === 
 === bvk cell = 135 has 0.000 % of the basis function pairs === 
 === bvk cell = 136 has 8.621 % of the basis function pairs === 
 === bvk cell = 137 has 13.793 % of the basis function pairs === 
 === bvk cell = 138 has 15.230 % of the basis function pairs === 
 === bvk cell = 139 has 12.069 % of the basis function pairs === 
 === bvk cell = 140 has 8.621 % of the basis function pairs === 
 === bvk cell = 141 has 7.759 % of the basis function pairs === 
 === bvk cell = 142 has 13.793 % of the basis function pairs === 
 === bvk cell = 143 has 16.092 % of the basis function pairs === 
 === bvk cell = 144 has 47.586 % of the basis function pairs === 
 === bvk cell = 145 has 62.672 % of the basis function pairs === 
 === bvk cell = 146 has 41.034 % of the basis function pairs === 
 === bvk cell = 147 has 13.793 % of the basis function pairs === 
 === bvk cell = 148 has 3.448 % of the basis function pairs === 
 === bvk cell = 149 has 16.466 % of the basis function pairs === 
 === bvk cell = 150 has 62.672 % of the basis function pairs === 
 === bvk cell = 151 has 59.713 % of the basis function pairs === 
 === bvk cell = 152 has 25.948 % of the basis function pairs === 
 === bvk cell = 153 has 8.621 % of the basis function pairs === 
 === bvk cell = 154 has 8.621 % of the basis function pairs === 
 === bvk cell = 155 has 30.805 % of the basis function pairs === 
 === bvk cell = 156 has 41.034 % of the basis function pairs === 
 === bvk cell = 157 has 25.948 % of the basis function pairs === 
 === bvk cell = 158 has 10.345 % of the basis function pairs === 
 === bvk cell = 159 has 0.000 % of the basis function pairs === 
 === bvk cell = 160 has 10.345 % of the basis function pairs === 
 === bvk cell = 161 has 25.948 % of the basis function pairs === 
 === bvk cell = 162 has 13.793 % of the basis function pairs === 
 === bvk cell = 163 has 8.621 % of the basis function pairs === 
 === bvk cell = 164 has 0.000 % of the basis function pairs === 
 === bvk cell = 165 has 0.000 % of the basis function pairs === 
 === bvk cell = 166 has 8.621 % of the basis function pairs === 
 === bvk cell = 167 has 13.793 % of the basis function pairs === 
 === bvk cell = 168 has 3.448 % of the basis function pairs === 
 === bvk cell = 169 has 8.621 % of the basis function pairs === 
 === bvk cell = 170 has 10.345 % of the basis function pairs === 
 === bvk cell = 171 has 8.621 % of the basis function pairs === 
 === bvk cell = 172 has 0.000 % of the basis function pairs === 
 === bvk cell = 173 has 0.000 % of the basis function pairs === 
 === bvk cell = 174 has 16.466 % of the basis function pairs === 
 === bvk cell = 175 has 30.805 % of the basis function pairs === 
 === bvk cell = 176 has 25.948 % of the basis function pairs === 
 === bvk cell = 177 has 13.793 % of the basis function pairs === 
 === bvk cell = 178 has 0.000 % of the basis function pairs === 
 === bvk cell = 179 has 6.034 % of the basis function pairs === 
 === bvk cell = 180 has 97.241 % of the basis function pairs === 
 === bvk cell = 181 has 100.000 % of the basis function pairs === 
 === bvk cell = 182 has 62.672 % of the basis function pairs === 
 === bvk cell = 183 has 15.230 % of the basis function pairs === 
 === bvk cell = 184 has 16.466 % of the basis function pairs === 
 === bvk cell = 185 has 61.609 % of the basis function pairs === 
 === bvk cell = 186 has 100.000 % of the basis function pairs === 
 === bvk cell = 187 has 87.874 % of the basis function pairs === 
 === bvk cell = 188 has 30.805 % of the basis function pairs === 
 === bvk cell = 189 has 12.069 % of the basis function pairs === 
 === bvk cell = 190 has 30.805 % of the basis function pairs === 
 === bvk cell = 191 has 87.874 % of the basis function pairs === 
 === bvk cell = 192 has 62.672 % of the basis function pairs === 
 === bvk cell = 193 has 30.805 % of the basis function pairs === 
 === bvk cell = 194 has 8.621 % of the basis function pairs === 
 === bvk cell = 195 has 8.621 % of the basis function pairs === 
 === bvk cell = 196 has 25.948 % of the basis function pairs === 
 === bvk cell = 197 has 59.713 % of the basis function pairs === 
 === bvk cell = 198 has 15.230 % of the basis function pairs === 
 === bvk cell = 199 has 12.069 % of the basis function pairs === 
 === bvk cell = 200 has 8.621 % of the basis function pairs === 
 === bvk cell = 201 has 7.759 % of the basis function pairs === 
 === bvk cell = 202 has 13.793 % of the basis function pairs === 
 === bvk cell = 203 has 16.092 % of the basis function pairs === 
 === bvk cell = 204 has 16.466 % of the basis function pairs === 
 === bvk cell = 205 has 30.805 % of the basis function pairs === 
 === bvk cell = 206 has 25.948 % of the basis function pairs === 
 === bvk cell = 207 has 13.793 % of the basis function pairs === 
 === bvk cell = 208 has 0.000 % of the basis function pairs === 
 === bvk cell = 209 has 6.034 % of the basis function pairs === 
 === bvk cell = 210 has 61.609 % of the basis function pairs === 
 === bvk cell = 211 has 87.874 % of the basis function pairs === 
 === bvk cell = 212 has 59.713 % of the basis function pairs === 
 === bvk cell = 213 has 16.092 % of the basis function pairs === 
 === bvk cell = 214 has 6.034 % of the basis function pairs === 
 === bvk cell = 215 has 23.908 % of the basis function pairs === 
Static memory requirement for 2e3c SR integrals: 0.451 GB
There are 1 munu batches for computing 2e3c SR integrals with latsum
There are 5 Q batches for computing 2e3c SR integrals with latsum
 Time for computing 2e3c SR integral (CD) is 2.77 s
Maximum dynamic memory per thread for 2e3c SR integrals: 0.014 GiB
Batch size for basis function pair is 2000 out of 2000
 === bvk cell = 0 has 100.000 % of the basis function pairs === 
 === bvk cell = 1 has 79.800 % of the basis function pairs === 
 === bvk cell = 2 has 0.000 % of the basis function pairs === 
 === bvk cell = 3 has 0.000 % of the basis function pairs === 
 === bvk cell = 4 has 0.000 % of the basis function pairs === 
 === bvk cell = 5 has 69.800 % of the basis function pairs === 
 === bvk cell = 6 has 79.800 % of the basis function pairs === 
 === bvk cell = 7 has 22.100 % of the basis function pairs === 
 === bvk cell = 8 has 0.000 % of the basis function pairs === 
 === bvk cell = 9 has 0.000 % of the basis function pairs === 
 === bvk cell = 10 has 0.000 % of the basis function pairs === 
 === bvk cell = 11 has 88.750 % of the basis function pairs === 
 === bvk cell = 12 has 0.000 % of the basis function pairs === 
 === bvk cell = 13 has 0.000 % of the basis function pairs === 
 === bvk cell = 14 has 0.000 % of the basis function pairs === 
 === bvk cell = 15 has 0.000 % of the basis function pairs === 
 === bvk cell = 16 has 0.000 % of the basis function pairs === 
 === bvk cell = 17 has 0.000 % of the basis function pairs === 
 === bvk cell = 18 has 0.000 % of the basis function pairs === 
 === bvk cell = 19 has 0.000 % of the basis function pairs === 
 === bvk cell = 20 has 0.000 % of the basis function pairs === 
 === bvk cell = 21 has 0.000 % of the basis function pairs === 
 === bvk cell = 22 has 0.000 % of the basis function pairs === 
 === bvk cell = 23 has 0.000 % of the basis function pairs === 
 === bvk cell = 24 has 0.000 % of the basis function pairs === 
 === bvk cell = 25 has 0.000 % of the basis function pairs === 
 === bvk cell = 26 has 0.000 % of the basis function pairs === 
 === bvk cell = 27 has 0.000 % of the basis function pairs === 
 === bvk cell = 28 has 0.000 % of the basis function pairs === 
 === bvk cell = 29 has 0.000 % of the basis function pairs === 
 === bvk cell = 30 has 69.800 % of the basis function pairs === 
 === bvk cell = 31 has 88.750 % of the basis function pairs === 
 === bvk cell = 32 has 0.000 % of the basis function pairs === 
 === bvk cell = 33 has 0.000 % of the basis function pairs === 
 === bvk cell = 34 has 0.000 % of the basis function pairs === 
 === bvk cell = 35 has 14.350 % of the basis function pairs === 
 === bvk cell = 36 has 79.800 % of the basis function pairs === 
 === bvk cell = 37 has 22.100 % of the basis function pairs === 
 === bvk cell = 38 has 0.000 % of the basis function pairs === 
 === bvk cell = 39 has 0.000 % of the basis function pairs === 
 === bvk cell = 40 has 0.000 % of the basis function pairs === 
 === bvk cell = 41 has 88.750 % of the basis function pairs === 
 === bvk cell = 42 has 22.100 % of the basis function pairs === 
 === bvk cell = 43 has 0.000 % of the basis function pairs === 
 === bvk cell = 44 has 0.000 % of the basis function pairs === 
 === bvk cell = 45 has 0.000 % of the basis function pairs === 
 === bvk cell = 46 has 0.000 % of the basis function pairs === 
 === bvk cell = 47 has 45.900 % of the basis function pairs === 
 === bvk cell = 48 has 0.000 % of the basis function pairs === 
 === bvk cell = 49 has 0.000 % of the basis function pairs === 
 === bvk cell = 50 has 0.000 % of the basis function pairs === 
 === bvk cell = 51 has 0.000 % of the basis function pairs === 
 === bvk cell = 52 has 0.000 % of the basis function pairs === 
 === bvk cell = 53 has 0.000 % of the basis function pairs === 
 === bvk cell = 54 has 0.000 % of the basis function pairs === 
 === bvk cell = 55 has 0.000 % of the basis function pairs === 
 === bvk cell = 56 has 0.000 % of the basis function pairs === 
 === bvk cell = 57 has 0.000 % of the basis function pairs === 
 === bvk cell = 58 has 0.000 % of the basis function pairs === 
 === bvk cell = 59 has 0.000 % of the basis function pairs === 
 === bvk cell = 60 has 0.000 % of the basis function pairs === 
 === bvk cell = 61 has 0.000 % of the basis function pairs === 
 === bvk cell = 62 has 0.000 % of the basis function pairs === 
 === bvk cell = 63 has 0.000 % of the basis function pairs === 
 === bvk cell = 64 has 0.000 % of the basis function pairs === 
 === bvk cell = 65 has 0.000 % of the basis function pairs === 
 === bvk cell = 66 has 88.750 % of the basis function pairs === 
 === bvk cell = 67 has 45.900 % of the basis function pairs === 
 === bvk cell = 68 has 0.000 % of the basis function pairs === 
 === bvk cell = 69 has 0.000 % of the basis function pairs === 
 === bvk cell = 70 has 0.000 % of the basis function pairs === 
 === bvk cell = 71 has 38.150 % of the basis function pairs === 
 === bvk cell = 72 has 0.000 % of the basis function pairs === 
 === bvk cell = 73 has 0.000 % of the basis function pairs === 
 === bvk cell = 74 has 0.000 % of the basis function pairs === 
 === bvk cell = 75 has 0.000 % of the basis function pairs === 
 === bvk cell = 76 has 0.000 % of the basis function pairs === 
 === bvk cell = 77 has 0.000 % of the basis function pairs === 
 === bvk cell = 78 has 0.000 % of the basis function pairs === 
 === bvk cell = 79 has 0.000 % of the basis function pairs === 
 === bvk cell = 80 has 0.000 % of the basis function pairs === 
 === bvk cell = 81 has 0.000 % of the basis function pairs === 
 === bvk cell = 82 has 0.000 % of the basis function pairs === 
 === bvk cell = 83 has 0.000 % of the basis function pairs === 
 === bvk cell = 84 has 0.000 % of the basis function pairs === 
 === bvk cell = 85 has 0.000 % of the basis function pairs === 
 === bvk cell = 86 has 0.000 % of the basis function pairs === 
 === bvk cell = 87 has 0.000 % of the basis function pairs === 
 === bvk cell = 88 has 0.000 % of the basis function pairs === 
 === bvk cell = 89 has 0.000 % of the basis function pairs === 
 === bvk cell = 90 has 0.000 % of the basis function pairs === 
 === bvk cell = 91 has 0.000 % of the basis function pairs === 
 === bvk cell = 92 has 0.000 % of the basis function pairs === 
 === bvk cell = 93 has 0.000 % of the basis function pairs === 
 === bvk cell = 94 has 0.000 % of the basis function pairs === 
 === bvk cell = 95 has 0.000 % of the basis function pairs === 
 === bvk cell = 96 has 0.000 % of the basis function pairs === 
 === bvk cell = 97 has 0.000 % of the basis function pairs === 
 === bvk cell = 98 has 0.000 % of the basis function pairs === 
 === bvk cell = 99 has 0.000 % of the basis function pairs === 
 === bvk cell = 100 has 0.000 % of the basis function pairs === 
 === bvk cell = 101 has 0.000 % of the basis function pairs === 
 === bvk cell = 102 has 0.000 % of the basis function pairs === 
 === bvk cell = 103 has 0.000 % of the basis function pairs === 
 === bvk cell = 104 has 0.000 % of the basis function pairs === 
 === bvk cell = 105 has 0.000 % of the basis function pairs === 
 === bvk cell = 106 has 0.000 % of the basis function pairs === 
 === bvk cell = 107 has 0.000 % of the basis function pairs === 
 === bvk cell = 108 has 0.000 % of the basis function pairs === 
 === bvk cell = 109 has 0.000 % of the basis function pairs === 
 === bvk cell = 110 has 0.000 % of the basis function pairs === 
 === bvk cell = 111 has 0.000 % of the basis function pairs === 
 === bvk cell = 112 has 0.000 % of the basis function pairs === 
 === bvk cell = 113 has 0.000 % of the basis function pairs === 
 === bvk cell = 114 has 0.000 % of the basis function pairs === 
 === bvk cell = 115 has 0.000 % of the basis function pairs === 
 === bvk cell = 116 has 0.000 % of the basis function pairs === 
 === bvk cell = 117 has 0.000 % of the basis function pairs === 
 === bvk cell = 118 has 0.000 % of the basis function pairs === 
 === bvk cell = 119 has 0.000 % of the basis function pairs === 
 === bvk cell = 120 has 0.000 % of the basis function pairs === 
 === bvk cell = 121 has 0.000 % of the basis function pairs === 
 === bvk cell = 122 has 0.000 % of the basis function pairs === 
 === bvk cell = 123 has 0.000 % of the basis function pairs === 
 === bvk cell = 124 has 0.000 % of the basis function pairs === 
 === bvk cell = 125 has 0.000 % of the basis function pairs === 
 === bvk cell = 126 has 0.000 % of the basis function pairs === 
 === bvk cell = 127 has 0.000 % of the basis function pairs === 
 === bvk cell = 128 has 0.000 % of the basis function pairs === 
 === bvk cell = 129 has 0.000 % of the basis function pairs === 
 === bvk cell = 130 has 0.000 % of the basis function pairs === 
 === bvk cell = 131 has 0.000 % of the basis function pairs === 
 === bvk cell = 132 has 0.000 % of the basis function pairs === 
 === bvk cell = 133 has 0.000 % of the basis function pairs === 
 === bvk cell = 134 has 0.000 % of the basis function pairs === 
 === bvk cell = 135 has 0.000 % of the basis function pairs === 
 === bvk cell = 136 has 0.000 % of the basis function pairs === 
 === bvk cell = 137 has 0.000 % of the basis function pairs === 
 === bvk cell = 138 has 0.000 % of the basis function pairs === 
 === bvk cell = 139 has 0.000 % of the basis function pairs === 
 === bvk cell = 140 has 0.000 % of the basis function pairs === 
 === bvk cell = 141 has 0.000 % of the basis function pairs === 
 === bvk cell = 142 has 0.000 % of the basis function pairs === 
 === bvk cell = 143 has 0.000 % of the basis function pairs === 
 === bvk cell = 144 has 0.000 % of the basis function pairs === 
 === bvk cell = 145 has 0.000 % of the basis function pairs === 
 === bvk cell = 146 has 0.000 % of the basis function pairs === 
 === bvk cell = 147 has 0.000 % of the basis function pairs === 
 === bvk cell = 148 has 0.000 % of the basis function pairs === 
 === bvk cell = 149 has 0.000 % of the basis function pairs === 
 === bvk cell = 150 has 0.000 % of the basis function pairs === 
 === bvk cell = 151 has 0.000 % of the basis function pairs === 
 === bvk cell = 152 has 0.000 % of the basis function pairs === 
 === bvk cell = 153 has 0.000 % of the basis function pairs === 
 === bvk cell = 154 has 0.000 % of the basis function pairs === 
 === bvk cell = 155 has 0.000 % of the basis function pairs === 
 === bvk cell = 156 has 0.000 % of the basis function pairs === 
 === bvk cell = 157 has 0.000 % of the basis function pairs === 
 === bvk cell = 158 has 0.000 % of the basis function pairs === 
 === bvk cell = 159 has 0.000 % of the basis function pairs === 
 === bvk cell = 160 has 0.000 % of the basis function pairs === 
 === bvk cell = 161 has 0.000 % of the basis function pairs === 
 === bvk cell = 162 has 0.000 % of the basis function pairs === 
 === bvk cell = 163 has 0.000 % of the basis function pairs === 
 === bvk cell = 164 has 0.000 % of the basis function pairs === 
 === bvk cell = 165 has 0.000 % of the basis function pairs === 
 === bvk cell = 166 has 0.000 % of the basis function pairs === 
 === bvk cell = 167 has 0.000 % of the basis function pairs === 
 === bvk cell = 168 has 0.000 % of the basis function pairs === 
 === bvk cell = 169 has 0.000 % of the basis function pairs === 
 === bvk cell = 170 has 0.000 % of the basis function pairs === 
 === bvk cell = 171 has 0.000 % of the basis function pairs === 
 === bvk cell = 172 has 0.000 % of the basis function pairs === 
 === bvk cell = 173 has 0.000 % of the basis function pairs === 
 === bvk cell = 174 has 0.000 % of the basis function pairs === 
 === bvk cell = 175 has 0.000 % of the basis function pairs === 
 === bvk cell = 176 has 0.000 % of the basis function pairs === 
 === bvk cell = 177 has 0.000 % of the basis function pairs === 
 === bvk cell = 178 has 0.000 % of the basis function pairs === 
 === bvk cell = 179 has 0.000 % of the basis function pairs === 
 === bvk cell = 180 has 69.800 % of the basis function pairs === 
 === bvk cell = 181 has 88.750 % of the basis function pairs === 
 === bvk cell = 182 has 0.000 % of the basis function pairs === 
 === bvk cell = 183 has 0.000 % of the basis function pairs === 
 === bvk cell = 184 has 0.000 % of the basis function pairs === 
 === bvk cell = 185 has 14.350 % of the basis function pairs === 
 === bvk cell = 186 has 88.750 % of the basis function pairs === 
 === bvk cell = 187 has 45.900 % of the basis function pairs === 
 === bvk cell = 188 has 0.000 % of the basis function pairs === 
 === bvk cell = 189 has 0.000 % of the basis function pairs === 
 === bvk cell = 190 has 0.000 % of the basis function pairs === 
 === bvk cell = 191 has 38.150 % of the basis function pairs === 
 === bvk cell = 192 has 0.000 % of the basis function pairs === 
 === bvk cell = 193 has 0.000 % of the basis function pairs === 
 === bvk cell = 194 has 0.000 % of the basis function pairs === 
 === bvk cell = 195 has 0.000 % of the basis function pairs === 
 === bvk cell = 196 has 0.000 % of the basis function pairs === 
 === bvk cell = 197 has 0.000 % of the basis function pairs === 
 === bvk cell = 198 has 0.000 % of the basis function pairs === 
 === bvk cell = 199 has 0.000 % of the basis function pairs === 
 === bvk cell = 200 has 0.000 % of the basis function pairs === 
 === bvk cell = 201 has 0.000 % of the basis function pairs === 
 === bvk cell = 202 has 0.000 % of the basis function pairs === 
 === bvk cell = 203 has 0.000 % of the basis function pairs === 
 === bvk cell = 204 has 0.000 % of the basis function pairs === 
 === bvk cell = 205 has 0.000 % of the basis function pairs === 
 === bvk cell = 206 has 0.000 % of the basis function pairs === 
 === bvk cell = 207 has 0.000 % of the basis function pairs === 
 === bvk cell = 208 has 0.000 % of the basis function pairs === 
 === bvk cell = 209 has 0.000 % of the basis function pairs === 
 === bvk cell = 210 has 14.350 % of the basis function pairs === 
 === bvk cell = 211 has 38.150 % of the basis function pairs === 
 === bvk cell = 212 has 0.000 % of the basis function pairs === 
 === bvk cell = 213 has 0.000 % of the basis function pairs === 
 === bvk cell = 214 has 0.000 % of the basis function pairs === 
 === bvk cell = 215 has 0.000 % of the basis function pairs === 
Static memory requirement for 2e3c SR integrals: 0.064 GB
There are 1 munu batches for computing 2e3c SR integrals with latsum
There are 5 Q batches for computing 2e3c SR integrals with latsum
 Time for computing 2e3c SR integral (CC) is 0.46 s
 Time for RI-J this SCF iteration is 5.59 s
 Time for RI-J this SCF iteration is 2.25 s
 ----------------------------------------------
 Guess energy: -578.7876725615
 ----------------------------------------------
 Guess energy components:
 DFT Correlation    Energy =  -1.09266480606027
 DFT Exchange       Energy = -40.56288912836281
 Kinetic            Energy = 577.40489240230625
 Nuclear Attraction Energy = -1186.11491042108196
 Nuclear Repulsion  Energy = -102.89365928466421
 Total Coulomb      Energy = 174.47155867636090
 ----------------------------------------------
  Cycle       Energy         DIIS error
 ----------------------------------------------
 Time for RI-J this SCF iteration is 2.51 s
    1    -578.7927653058      1.04e-03  
 Energy components after cycle 1:
 DFT Correlation    Energy =  -1.09702903188610
 DFT Exchange       Energy = -40.47451042456802
 Kinetic            Energy = 576.58430921466322
 Nuclear Attraction Energy = -1184.33901185192167
 Nuclear Repulsion  Energy = -102.89365928466421
 Total Coulomb      Energy = 173.42713607260779
    2    -578.7927653058      5.62e-04  
 Energy components after cycle 2:
 DFT Correlation    Energy =  -1.09702903188610
 DFT Exchange       Energy = -40.47451042456802
 Kinetic            Energy = 576.58430921466322
 Nuclear Attraction Energy = -1184.33901185192167
 Nuclear Repulsion  Energy = -102.89365928466421
 Total Coulomb      Energy = 173.42713607260779
 ----------------------------------------------
  Cycle       Energy        RMS Gradient
 ----------------------------------------------
 Time for RI-J this SCF iteration is 2.22 s
    1    -578.7938552198      2.12e-02   Descent step
 Energy components after cycle 1:
 DFT Correlation    Energy =  -1.09637290055896
 DFT Exchange       Energy = -40.49681091002672
 Kinetic            Energy = 576.82420867134488
 Nuclear Attraction Energy = -1184.79610356564308
 Nuclear Repulsion  Energy = -102.89365928466421
 Total Coulomb      Energy = 173.66488276974547
 Time for RI-J this SCF iteration is 2.24 s
    2    -578.7938876602      4.79e-03   Normal BFGS step
 Energy components after cycle 2:
 DFT Correlation    Energy =  -1.09596181234795
 DFT Exchange       Energy = -40.50770194711274
 Kinetic            Energy = 576.93406859526601
 Nuclear Attraction Energy = -1185.01633225222849
 Nuclear Repulsion  Energy = -102.89365928466421
 Total Coulomb      Energy = 173.78569904092606
 Time for RI-J this SCF iteration is 2.21 s
    3    -578.7939132685      3.73e-03   Normal BFGS step
 Energy components after cycle 3:
 DFT Correlation    Energy =  -1.09606571745377
 DFT Exchange       Energy = -40.50381476824222
 Kinetic            Energy = 576.89184951717482
 Nuclear Attraction Energy = -1184.93734867183434
 Nuclear Repulsion  Energy = -102.89365928466421
 Total Coulomb      Energy = 173.74512565652026
 Time for RI-J this SCF iteration is 2.17 s
    4    -578.7939134107      2.67e-04   Normal BFGS step
 Energy components after cycle 4:
 DFT Correlation    Energy =  -1.09608694503217
 DFT Exchange       Energy = -40.50370196568591
 Kinetic            Energy = 576.89203086649593
 Nuclear Attraction Energy = -1184.93552390812374
 Nuclear Repulsion  Energy = -102.89365928466421
 Total Coulomb      Energy = 173.74302782627751
 Time for RI-J this SCF iteration is 2.23 s
    5    -578.7939134492      1.30e-04   Normal BFGS step
 Energy components after cycle 5:
 DFT Correlation    Energy =  -1.09608140276180
 DFT Exchange       Energy = -40.50380380034902
 Kinetic            Energy = 576.89292380672669
 Nuclear Attraction Energy = -1184.93753427966067
 Nuclear Repulsion  Energy = -102.89365928466421
 Total Coulomb      Energy = 173.74424151149776
 Time for RI-J this SCF iteration is 2.72 s
    6    -578.7939134495      1.02e-05   Normal BFGS step
 Energy components after cycle 6:
 DFT Correlation    Energy =  -1.09608069012770
 DFT Exchange       Energy = -40.50378283161785
 Kinetic            Energy = 576.89259809848193
 Nuclear Attraction Energy = -1184.93707746490804
 Nuclear Repulsion  Energy = -102.89365928466421
 Total Coulomb      Energy = 173.74408872333916
 Time for RI-J this SCF iteration is 2.22 s
    7    -578.7939134495      3.61e-06   Normal BFGS step
 Energy components after cycle 7:
 DFT Correlation    Energy =  -1.09608091596934
 DFT Exchange       Energy = -40.50378686847696
 Kinetic            Energy = 576.89266783162918
 Nuclear Attraction Energy = -1184.93716824797366
 Nuclear Repulsion  Energy = -102.89365928466421
 Total Coulomb      Energy = 173.74411403591500
    7    -578.7939134495      3.61e-06  Convergence criterion met
 ----------------------------------------------
 Final energy components:
 DFT Correlation    Energy =  -1.09608091596934
 DFT Exchange       Energy = -40.50378686847696
 Kinetic            Energy = 576.89266783162918
 Nuclear Attraction Energy = -1184.93716824797366
 Nuclear Repulsion  Energy = -102.89365928466421
 Total Coulomb      Energy = 173.74411403591500
 ----------------------------------------------
 Final energy is -578.7939134495

 SCF time:   CPU 4165.94s  wall 233.00s 
 Total wall time for computing Kinetic: 0.08 s (10)
 Total wall time for computing RIJ-BIGMEM: 26.36 s (10)
 Total wall time for computing RSDF Vnuc: 0.18 s (10)
 Total wall time for computing DFT XC: 171.76 s (10)
 ---------------------------------------------------------------------------
                        Orbital Energies (a.u.)
 ---------------------------------------------------------------------------
 == 0-th k-point (-0.20411,-0.20411,-0.20411) occupation: 14==
 -65.00520 -65.00519 -4.62743 -4.62724 -3.03921 -3.03921 -3.03913 -3.03864 -3.03855 -3.03855
 -0.11319 0.07926 0.23826 0.23826 0.34186 0.40597 0.40597 0.56396 0.57420 0.57420
 0.61106 0.77520 0.82191 0.82191 0.90265 0.93104 0.93104 1.09538 1.18428 1.18428
 1.21792 1.27556 1.27556 1.37331 1.37331 1.39504 1.41372 1.50576 1.50576 1.54859
 1.54859 1.64240 1.68249 1.73022 1.78371 1.78371 1.86554 1.86554 1.90034 1.93008
 1.97188 1.97188 2.07770 2.14325 2.14325 2.25957 2.25957 2.28192 2.28192 2.31198
 2.50088 2.50088 2.53352 2.59427 2.66023 2.67612 2.67612 2.72723 2.76664 2.76664
 2.85732 2.91591 2.91591 2.92490 2.96779 2.96779 3.07442 3.08713 3.08713 3.15490
 3.15490 3.23140 3.32404 3.34692 3.34692 3.47387 3.47387 3.51796 3.51796 3.52088
 3.53234 3.67475 3.67475 3.67859 3.79835 3.83074 3.83074 3.83577 3.90302 3.90302
 4.03377 4.03377 4.12575 4.52366 4.53188 4.53188 7.75856 7.91863 7.91863 9.42754
 9.42754 10.10189 11.90463 14.79201
 == 1-th k-point (-0.10205,-0.10205,-0.30616) occupation: 14==
 -65.00520 -65.00519 -4.62743 -4.62724 -3.03923 -3.03922 -3.03910 -3.03866 -3.03856 -3.03853
 -0.11606 0.11260 0.20190 0.21069 0.34857 0.42648 0.44379 0.46410 0.61395 0.61549
 0.65895 0.74930 0.78903 0.84691 0.86731 0.90528 1.01660 1.04573 1.08867 1.15685
 1.23305 1.26948 1.29936 1.37821 1.38361 1.41207 1.47250 1.48720 1.51454 1.54175
 1.61074 1.64358 1.68572 1.70568 1.75419 1.79578 1.82893 1.88471 1.91036 1.91551
 1.97529 2.01534 2.02655 2.06296 2.12729 2.12825 2.24486 2.29153 2.31058 2.35140
 2.49981 2.51454 2.53775 2.59103 2.60935 2.64630 2.66057 2.72396 2.75421 2.79022
 2.80275 2.86358 2.88305 2.92713 3.02612 3.05336 3.10019 3.14017 3.14448 3.20641
 3.23101 3.26448 3.27978 3.33626 3.36660 3.40812 3.43301 3.45321 3.49458 3.52789
 3.53525 3.54804 3.60737 3.69408 3.76156 3.79066 3.80726 3.87993 3.93901 3.98358
 4.00156 4.07085 4.22982 4.43148 4.56255 4.58542 7.71652 7.83893 8.08940 9.66408
 9.70391 10.03555 12.76088 13.84779
 == 2-th k-point (-0.00000,-0.00000,-0.40822) occupation: 14==
 -65.00519 -65.00519 -4.62740 -4.62726 -3.03924 -3.03924 -3.03903 -3.03871 -3.03855 -3.03855
 -0.09383 0.09186 0.18582 0.18582 0.30284 0.35006 0.54499 0.54499 0.63922 0.64605
 0.75460 0.78062 0.78062 0.83523 0.87814 0.87814 0.88035 0.98675 1.13757 1.19504
 1.22301 1.22303 1.27490 1.31041 1.32600 1.34883 1.34884 1.60172 1.60528 1.60530
 1.62054 1.64892 1.71259 1.71261 1.76792 1.76934 1.76937 1.83837 1.88723 1.90783
 1.98460 1.98505 1.99484 2.15141 2.16847 2.16861 2.19083 2.35894 2.35894 2.37260
 2.41292 2.48794 2.54902 2.54907 2.63280 2.64795 2.64898 2.75279 2.75306 2.79721
 2.85500 2.86744 2.90829 2.90860 2.93345 3.01127 3.06546 3.06597 3.14279 3.24314
 3.24568 3.25139 3.25281 3.37462 3.37750 3.37810 3.43960 3.44490 3.46948 3.46962
 3.55119 3.56802 3.57132 3.68313 3.72327 3.79459 3.86852 3.86874 3.94141 4.14288
 4.16742 4.17056 4.24509 4.38127 4.61763 4.62237 8.03879 8.04257 8.04311 9.05400
 10.88048 10.89742 13.02412 13.34156
 == 3-th k-point (0.10205,0.10205,-0.51027) occupation: 14==
 -65.00519 -65.00519 -4.62737 -4.62730 -3.03926 -3.03925 -3.03896 -3.03878 -3.03852 -3.03851
 -0.05097 0.03463 0.14108 0.18075 0.31549 0.37663 0.55240 0.55275 0.66932 0.67574
 0.73643 0.75176 0.81765 0.86241 0.87238 0.96289 0.97500 0.99871 1.04083 1.12259
 1.13593 1.15666 1.19094 1.27001 1.36540 1.38167 1.46111 1.48571 1.49770 1.56726
 1.62630 1.64050 1.68502 1.71452 1.75848 1.80094 1.82889 1.86644 1.91218 1.95078
 1.98404 2.06859 2.12008 2.15018 2.19625 2.19994 2.22847 2.34292 2.36226 2.37882
 2.44703 2.44978 2.51690 2.52338 2.55617 2.63152 2.67083 2.77086 2.79780 2.81223
 2.82998 2.90546 2.91430 2.95283 2.95390 3.00598 3.02513 3.05132 3.08300 3.14192
 3.22191 3.23209 3.24390 3.31901 3.32502 3.34659 3.36507 3.44297 3.48777 3.50666
 3.56309 3.61539 3.64238 3.66619 3.71364 3.75173 3.85769 3.89716 3.96667 4.04945
 4.13262 4.24786 4.28832 4.32174 4.58537 4.60453 8.11074 8.39741 8.47673 8.70702
 9.76891 10.11789 13.28589 13.63674
 == 4-th k-point (0.20411,0.20411,-0.61232) occupation: 14==
 -65.00520 -65.00519 -4.62737 -4.62730 -3.03927 -3.03924 -3.03898 -3.03877 -3.03852 -3.03848
 -0.04364 0.02699 0.11226 0.19712 0.33416 0.49144 0.51540 0.53783 0.54938 0.56308
 0.80616 0.82610 0.85769 0.86589 0.89475 0.93321 0.96221 1.01726 1.10640 1.11303
 1.12832 1.16377 1.26202 1.27689 1.29814 1.36646 1.37197 1.38107 1.58474 1.59403
 1.59842 1.65615 1.66264 1.67923 1.72773 1.75211 1.83857 1.91466 1.92440 2.05734
 2.07152 2.07732 2.15733 2.18631 2.22228 2.23132 2.23730 2.27179 2.30856 2.38838
 2.45269 2.46141 2.46379 2.49649 2.53273 2.57802 2.61864 2.76659 2.76749 2.84191
 2.88121 2.91273 2.94859 2.95697 3.01193 3.03466 3.04496 3.04553 3.11575 3.19920
 3.20505 3.27189 3.28385 3.32322 3.34133 3.35010 3.40202 3.40482 3.40753 3.45297
 3.47401 3.50064 3.65361 3.66391 3.75269 3.77551 3.80558 3.87243 3.90636 3.93127
 4.00992 4.20227 4.26051 4.26165 4.54241 4.58473 8.05400 8.44061 8.52549 8.80943
 8.89883 9.71530 13.27689 14.26857
 == 5-th k-point (0.30616,0.30616,-0.71438) occupation: 14==
 -65.00520 -65.00519 -4.62740 -4.62726 -3.03924 -3.03923 -3.03907 -3.03869 -3.03853 -3.03851
 -0.08633 0.05467 0.16294 0.22726 0.36701 0.42862 0.43270 0.54498 0.54964 0.62323
 0.69975 0.75153 0.82574 0.85166 0.88248 0.94179 1.02206 1.09883 1.10723 1.13209
 1.19635 1.21232 1.29966 1.30846 1.33482 1.34232 1.37821 1.49689 1.52847 1.54725
 1.56576 1.63961 1.67907 1.69661 1.73117 1.79077 1.82619 1.88012 1.89572 1.98786
 2.07151 2.08675 2.09047 2.16175 2.18253 2.20353 2.28053 2.35537 2.36771 2.38455
 2.44043 2.46185 2.49604 2.55137 2.58759 2.58976 2.67537 2.76931 2.77383 2.81203
 2.81917 2.89411 2.90014 2.93121 2.94118 2.95902 3.03758 3.09901 3.13876 3.14606
 3.16512 3.25238 3.31128 3.33182 3.36568 3.41901 3.43879 3.43886 3.47156 3.50914
 3.57944 3.58247 3.63005 3.66190 3.71840 3.72081 3.78551 3.90191 3.92915 3.94048
 4.08124 4.10903 4.24708 4.34588 4.50391 4.57720 7.89501 8.23979 8.32425 9.13162
 9.31458 9.91385 12.89182 14.44724
 == 6-th k-point (-0.10205,-0.30616,-0.10205) occupation: 14==
 -65.00520 -65.00519 -4.62743 -4.62724 -3.03923 -3.03922 -3.03910 -3.03866 -3.03856 -3.03853
 -0.11606 0.11260 0.20190 0.21069 0.34857 0.42648 0.44379 0.46410 0.61395 0.61549
 0.65895 0.74930 0.78903 0.84691 0.86731 0.90528 1.01660 1.04573 1.08867 1.15685
 1.23305 1.26948 1.29936 1.37821 1.38361 1.41207 1.47250 1.48720 1.51454 1.54175
 1.61074 1.64358 1.68572 1.70568 1.75419 1.79578 1.82893 1.88471 1.91036 1.91551
 1.97529 2.01534 2.02655 2.06296 2.12729 2.12825 2.24486 2.29153 2.31058 2.35140
 2.49981 2.51454 2.53775 2.59103 2.60935 2.64630 2.66057 2.72396 2.75421 2.79022
 2.80275 2.86358 2.88305 2.92713 3.02612 3.05336 3.10019 3.14017 3.14448 3.20641
 3.23101 3.26448 3.27978 3.33626 3.36660 3.40812 3.43301 3.45321 3.49458 3.52789
 3.53525 3.54804 3.60737 3.69408 3.76156 3.79066 3.80726 3.87993 3.93901 3.98358
 4.00156 4.07085 4.22982 4.43148 4.56255 4.58542 7.71652 7.83893 8.08940 9.66408
 9.70391 10.03555 12.76088 13.84779
[...]
 -0.01141 -0.01141 0.16971 0.16971 0.30250 0.30250 0.64813 0.64813 0.68888 0.68888
 0.74450 0.74450 0.75528 0.75528 0.97765 0.97765 1.00289 1.00290 1.02315 1.02315
 1.07002 1.07002 1.23811 1.23812 1.37432 1.37435 1.54482 1.54483 1.58209 1.58209
 1.63113 1.63113 1.69142 1.69143 1.74506 1.74508 1.82772 1.82805 1.85620 1.85626
 2.08092 2.08171 2.09754 2.09760 2.18739 2.18739 2.30501 2.30507 2.43096 2.43100
 2.45566 2.45568 2.50318 2.50319 2.52133 2.52242 2.73729 2.73729 2.77737 2.77752
 2.86768 2.86824 2.98852 2.98852 3.00936 3.00938 3.02687 3.02687 3.08155 3.08171
 3.23375 3.23389 3.25067 3.25081 3.26337 3.26341 3.45306 3.45658 3.49215 3.49229
 3.55772 3.55780 3.64320 3.64320 3.72946 3.72954 3.93634 3.93710 4.06975 4.06995
 4.29096 4.29152 4.35471 4.35510 4.60888 4.61361 8.31803 8.31805 8.62580 8.62590
 9.65808 9.66633 13.41148 13.41168
 == 198-th k-point (-0.40822,0.00000,0.61232) occupation: 14==
 -65.00519 -65.00519 -4.62733 -4.62733 -3.03926 -3.03926 -3.03887 -3.03887 -3.03850 -3.03850
 -0.00692 -0.00692 0.14057 0.14057 0.37776 0.37776 0.52643 0.52643 0.66947 0.66947
 0.75644 0.75644 0.88694 0.88694 0.91713 0.91713 0.97292 0.97292 1.07777 1.07777
 1.14047 1.14047 1.19587 1.19587 1.39415 1.39416 1.43463 1.43464 1.49627 1.49628
 1.66136 1.66138 1.69978 1.69985 1.80107 1.80109 1.86840 1.86841 1.90986 1.90989
 2.04564 2.04566 2.17968 2.17978 2.22288 2.22298 2.28834 2.28854 2.35514 2.35517
 2.45197 2.45201 2.48564 2.48565 2.67152 2.67170 2.73322 2.73352 2.76107 2.76111
 2.86664 2.86668 2.91014 2.91014 2.98875 2.98884 3.05824 3.05844 3.12271 3.12272
 3.23119 3.23134 3.29037 3.29082 3.34644 3.34657 3.40401 3.40426 3.49419 3.49461
 3.58123 3.58129 3.60093 3.60122 3.70603 3.70619 3.85088 3.85097 4.00203 4.00235
 4.15922 4.15950 4.28646 4.28677 4.59058 4.59190 8.36102 8.36104 8.65513 8.65524
 9.73632 9.73923 13.52151 13.52182
 == 199-th k-point (-0.30616,0.10205,0.51027) occupation: 14==
 -65.00520 -65.00519 -4.62737 -4.62730 -3.03926 -3.03925 -3.03898 -3.03878 -3.03851 -3.03849
 -0.04325 0.02420 0.12729 0.17318 0.40013 0.40783 0.50230 0.51688 0.55641 0.69020
 0.71846 0.77269 0.87876 0.90174 0.90975 0.94528 0.96618 1.04177 1.05613 1.08430
 1.13074 1.23159 1.23457 1.23801 1.33703 1.37869 1.41381 1.43613 1.46036 1.50231
 1.55159 1.64400 1.69986 1.76384 1.79470 1.83458 1.87631 1.89682 1.93312 1.97445
 1.99907 2.08623 2.12349 2.15976 2.20496 2.24668 2.28178 2.30281 2.35329 2.37855
 2.43437 2.44416 2.46347 2.50341 2.60201 2.62862 2.71039 2.71286 2.80653 2.83433
 2.86571 2.87575 2.94015 2.95682 2.95786 2.99106 3.03606 3.07082 3.10321 3.16124
 3.23671 3.24215 3.28713 3.28920 3.33597 3.35581 3.40956 3.45834 3.48972 3.50078
 3.54883 3.56760 3.57811 3.61970 3.69470 3.70458 3.83913 3.84822 3.92813 4.00468
 4.02303 4.14129 4.25024 4.25394 4.54052 4.57789 8.26594 8.40970 8.52017 8.80281
 9.26094 9.77407 13.34274 14.25652
 == 200-th k-point (-0.20411,0.20411,0.40822) occupation: 14==
 -65.00520 -65.00519 -4.62739 -4.62727 -3.03925 -3.03923 -3.03906 -3.03870 -3.03854 -3.03850
 -0.07210 0.03253 0.17300 0.20953 0.35177 0.42841 0.44756 0.51364 0.62330 0.66794
 0.71030 0.71603 0.74425 0.87421 0.94531 0.98342 1.02768 1.04608 1.06515 1.12762
 1.16942 1.26873 1.28310 1.28920 1.30374 1.36914 1.41422 1.42419 1.48227 1.54272
 1.56423 1.61762 1.67505 1.68497 1.73764 1.80065 1.87811 1.93006 1.98097 2.03032
 2.03639 2.05266 2.09062 2.15389 2.17189 2.26205 2.28488 2.29074 2.30142 2.37610
 2.40591 2.46689 2.48462 2.52001 2.57971 2.67545 2.72109 2.74024 2.78367 2.81940
 2.83223 2.89700 2.91538 2.93123 2.96218 2.99078 3.04976 3.06355 3.07289 3.11675
 3.13590 3.24221 3.26963 3.26982 3.35900 3.39273 3.42420 3.45185 3.52283 3.53191
 3.59218 3.61241 3.68029 3.68404 3.73422 3.78634 3.80268 3.84887 3.87728 3.95684
 4.05585 4.17444 4.25390 4.28958 4.52144 4.52339 8.13172 8.35765 8.37877 9.00039
 9.65736 9.92236 12.88203 14.56934
 == 201-th k-point (-0.10205,0.30616,0.30616) occupation: 14==
 -65.00520 -65.00519 -4.62740 -4.62726 -3.03924 -3.03923 -3.03907 -3.03869 -3.03853 -3.03851
 -0.08633 0.05467 0.16294 0.22726 0.36701 0.42862 0.43270 0.54498 0.54964 0.62323
 0.69975 0.75153 0.82574 0.85166 0.88248 0.94179 1.02206 1.09883 1.10723 1.13207
 1.19635 1.21231 1.29966 1.30846 1.33483 1.34233 1.37821 1.49690 1.52847 1.54725
 1.56576 1.63950 1.67907 1.69660 1.73117 1.79077 1.82623 1.88013 1.89576 1.98788
 2.07179 2.08678 2.09047 2.16172 2.18251 2.20348 2.28057 2.35535 2.36758 2.38456
 2.44064 2.46188 2.49612 2.55164 2.58759 2.58971 2.67538 2.76932 2.77366 2.81205
 2.81912 2.89411 2.90021 2.93122 2.94123 2.95901 3.03864 3.09895 3.13879 3.14605
 3.16511 3.25234 3.31159 3.33182 3.36648 3.41905 3.43876 3.43884 3.47149 3.50873
 3.57945 3.58343 3.63025 3.66193 3.71843 3.72094 3.78549 3.90058 3.93053 3.94051
 4.08133 4.10903 4.24727 4.34553 4.50391 4.57761 7.89531 8.23982 8.32433 9.13164
 9.31675 9.91261 12.89250 14.44590
 == 202-th k-point (0.00000,0.40822,0.20411) occupation: 14==
 -65.00520 -65.00519 -4.62739 -4.62727 -3.03925 -3.03924 -3.03903 -3.03873 -3.03852 -3.03852
 -0.07962 0.06847 0.14344 0.19046 0.38142 0.41373 0.43282 0.53788 0.61092 0.64277
 0.75846 0.76737 0.78852 0.83137 0.88946 0.94185 1.00600 1.05810 1.06007 1.11820
 1.18100 1.18547 1.27938 1.30209 1.33057 1.39997 1.45034 1.47059 1.49998 1.51511
 1.54734 1.65290 1.70476 1.74360 1.78161 1.78885 1.86666 1.87741 1.90222 1.94563
 2.01392 2.03841 2.10378 2.11482 2.14559 2.19310 2.28872 2.29131 2.35516 2.43928
 2.45351 2.48509 2.50232 2.53804 2.59151 2.59941 2.65651 2.74281 2.79746 2.82123
 2.84855 2.89332 2.90411 2.93662 2.96151 2.96587 3.01841 3.07275 3.12935 3.14875
 3.20941 3.29012 3.31025 3.32507 3.38217 3.39987 3.43084 3.43406 3.47357 3.50718
 3.51151 3.57012 3.64178 3.67786 3.70553 3.72583 3.84547 3.88143 3.93873 3.96660
 4.08332 4.13607 4.25184 4.33598 4.54951 4.61254 8.06847 8.17929 8.28620 9.01608
 9.80001 10.19022 13.34359 13.94029
 == 203-th k-point (0.10205,0.51027,0.10205) occupation: 14==
 -65.00519 -65.00519 -4.62737 -4.62730 -3.03926 -3.03925 -3.03896 -3.03878 -3.03852 -3.03851
 -0.05097 0.03463 0.14108 0.18075 0.31549 0.37663 0.55240 0.55275 0.66932 0.67574
 0.73643 0.75176 0.81765 0.86241 0.87238 0.96289 0.97501 0.99872 1.04083 1.12259
 1.13593 1.15667 1.19095 1.27002 1.36540 1.38168 1.46111 1.48572 1.49775 1.56726
 1.62630 1.64071 1.68510 1.71453 1.75847 1.80102 1.82892 1.86652 1.91218 1.95088
 1.98401 2.06873 2.12003 2.15016 2.19624 2.20033 2.22877 2.34295 2.36224 2.37899
 2.44717 2.44977 2.51688 2.52340 2.55615 2.63180 2.67120 2.77115 2.79786 2.81221
 2.83020 2.90544 2.91433 2.95318 2.95389 3.00613 3.02511 3.05155 3.08304 3.14192
 3.22178 3.23378 3.24393 3.31897 3.32507 3.34683 3.36506 3.44439 3.48770 3.50840
 3.56350 3.61628 3.64286 3.66611 3.71357 3.75231 3.85765 3.89713 3.96810 4.04930
 4.13409 4.24782 4.28851 4.32206 4.58517 4.60956 8.11086 8.39778 8.47670 8.70749
 9.76855 10.12922 13.28613 13.63897
 == 204-th k-point (-0.30616,-0.10205,0.71438) occupation: 14==
 -65.00520 -65.00519 -4.62737 -4.62730 -3.03926 -3.03925 -3.03898 -3.03878 -3.03851 -3.03849
 -0.04325 0.02420 0.12729 0.17318 0.40013 0.40783 0.50230 0.51688 0.55641 0.69020
 0.71846 0.77269 0.87876 0.90175 0.90975 0.94528 0.96618 1.04177 1.05613 1.08430
 1.13074 1.23158 1.23457 1.23800 1.33704 1.37874 1.41378 1.43609 1.46035 1.50232
 1.55155 1.64400 1.69988 1.76390 1.79472 1.83458 1.87631 1.89694 1.93316 1.97445
 1.99916 2.08623 2.12348 2.15967 2.20495 2.24661 2.28168 2.30312 2.35345 2.37855
 2.43436 2.44430 2.46382 2.50353 2.60223 2.62950 2.71043 2.71285 2.80621 2.83446
 2.86558 2.87718 2.94024 2.95677 2.95790 2.99106 3.03606 3.07087 3.10316 3.16153
 3.23666 3.24205 3.28752 3.28932 3.33626 3.35570 3.40947 3.45834 3.48956 3.50232
 3.54991 3.56959 3.57771 3.61855 3.69393 3.70549 3.83903 3.84833 3.92752 4.00521
 4.02317 4.14122 4.25027 4.25360 4.54262 4.57705 8.26590 8.40960 8.52187 8.80290
 9.26301 9.77137 13.34228 14.25564
 == 205-th k-point (-0.20411,0.00000,0.61232) occupation: 14==
 -65.00519 -65.00519 -4.62733 -4.62733 -3.03926 -3.03926 -3.03887 -3.03887 -3.03850 -3.03850
 -0.00692 -0.00692 0.14057 0.14057 0.37776 0.37776 0.52643 0.52643 0.66947 0.66947
 0.75644 0.75644 0.88694 0.88694 0.91713 0.91713 0.97292 0.97292 1.07777 1.07777
 1.14047 1.14047 1.19587 1.19587 1.39415 1.39416 1.43463 1.43464 1.49627 1.49628
 1.66136 1.66138 1.69978 1.69985 1.80107 1.80109 1.86840 1.86841 1.90986 1.90989
 2.04564 2.04566 2.17968 2.17978 2.22288 2.22298 2.28834 2.28854 2.35514 2.35517
 2.45197 2.45201 2.48564 2.48565 2.67152 2.67170 2.73322 2.73352 2.76107 2.76111
 2.86664 2.86668 2.91014 2.91014 2.98875 2.98884 3.05824 3.05844 3.12271 3.12272
 3.23119 3.23134 3.29037 3.29082 3.34644 3.34657 3.40401 3.40426 3.49419 3.49461
 3.58123 3.58129 3.60093 3.60122 3.70603 3.70619 3.85088 3.85097 4.00203 4.00235
 4.15922 4.15950 4.28646 4.28677 4.59058 4.59190 8.36102 8.36104 8.65513 8.65524
 9.73632 9.73923 13.52151 13.52182
 == 206-th k-point (-0.10205,0.10205,0.51027) occupation: 14==
 -65.00519 -65.00519 -4.62737 -4.62730 -3.03926 -3.03925 -3.03896 -3.03878 -3.03852 -3.03851
 -0.05097 0.03463 0.14108 0.18075 0.31549 0.37663 0.55240 0.55275 0.66932 0.67574
 0.73643 0.75176 0.81765 0.86241 0.87238 0.96289 0.97501 0.99872 1.04083 1.12259
 1.13593 1.15667 1.19095 1.27001 1.36541 1.38167 1.46111 1.48572 1.49774 1.56726
 1.62633 1.64063 1.68508 1.71454 1.75852 1.80101 1.82891 1.86647 1.91221 1.95087
 1.98414 2.06869 2.12031 2.15029 2.19627 2.20025 2.22865 2.34295 2.36241 2.37902
 2.44718 2.44983 2.51708 2.52340 2.55617 2.63174 2.67109 2.77095 2.79783 2.81245
 2.83009 2.90576 2.91432 2.95304 2.95390 3.00607 3.02528 3.05142 3.08302 3.14192
 3.22302 3.23314 3.24394 3.31918 3.32500 3.34669 3.36520 3.44386 3.48840 3.50750
 3.56359 3.61577 3.64283 3.66630 3.71377 3.75207 3.85764 3.89744 3.96724 4.04943
 4.13318 4.24837 4.28856 4.32163 4.58729 4.60739 8.11086 8.39770 8.47710 8.70735
 9.77266 10.12365 13.28591 13.63770
 == 207-th k-point (0.00000,0.20411,0.40822) occupation: 14==
 -65.00520 -65.00519 -4.62739 -4.62727 -3.03925 -3.03924 -3.03903 -3.03873 -3.03852 -3.03852
 -0.07962 0.06847 0.14344 0.19046 0.38142 0.41373 0.43282 0.53788 0.61092 0.64277
 0.75846 0.76737 0.78852 0.83137 0.88946 0.94185 1.00600 1.05810 1.06007 1.11820
 1.18100 1.18547 1.27938 1.30209 1.33057 1.39997 1.45034 1.47059 1.49998 1.51511
 1.54734 1.65290 1.70476 1.74360 1.78161 1.78885 1.86666 1.87741 1.90222 1.94563
 2.01392 2.03841 2.10378 2.11482 2.14559 2.19310 2.28872 2.29131 2.35516 2.43928
 2.45351 2.48509 2.50232 2.53804 2.59151 2.59941 2.65651 2.74281 2.79746 2.82123
 2.84855 2.89332 2.90411 2.93662 2.96151 2.96587 3.01841 3.07275 3.12935 3.14875
 3.20941 3.29012 3.31025 3.32507 3.38217 3.39987 3.43084 3.43406 3.47357 3.50718
 3.51151 3.57012 3.64178 3.67786 3.70553 3.72583 3.84547 3.88143 3.93873 3.96660
 4.08332 4.13607 4.25184 4.33598 4.54951 4.61254 8.06847 8.17929 8.28620 9.01608
 9.80001 10.19022 13.34359 13.94029
 == 208-th k-point (0.10205,0.30616,0.30616) occupation: 14==
 -65.00520 -65.00519 -4.62740 -4.62726 -3.03924 -3.03923 -3.03907 -3.03869 -3.03853 -3.03851
 -0.08633 0.05467 0.16294 0.22726 0.36701 0.42862 0.43270 0.54498 0.54964 0.62323
 0.69975 0.75153 0.82574 0.85166 0.88248 0.94179 1.02206 1.09883 1.10723 1.13209
 1.19635 1.21232 1.29966 1.30846 1.33482 1.34232 1.37821 1.49689 1.52847 1.54725
 1.56576 1.63961 1.67907 1.69661 1.73117 1.79077 1.82619 1.88012 1.89572 1.98786
 2.07151 2.08675 2.09047 2.16175 2.18253 2.20353 2.28053 2.35537 2.36771 2.38455
 2.44043 2.46185 2.49604 2.55137 2.58759 2.58976 2.67537 2.76931 2.77383 2.81203
 2.81917 2.89411 2.90014 2.93121 2.94118 2.95902 3.03758 3.09901 3.13876 3.14606
 3.16512 3.25238 3.31128 3.33182 3.36568 3.41901 3.43879 3.43886 3.47156 3.50914
 3.57944 3.58247 3.63005 3.66190 3.71840 3.72081 3.78551 3.90191 3.92915 3.94048
 4.08124 4.10903 4.24708 4.34588 4.50391 4.57720 7.89501 8.23979 8.32425 9.13162
 9.31458 9.91385 12.89182 14.44724
 == 209-th k-point (0.20411,0.40822,0.20411) occupation: 14==
 -65.00520 -65.00519 -4.62739 -4.62727 -3.03925 -3.03923 -3.03906 -3.03870 -3.03854 -3.03850
 -0.07210 0.03253 0.17300 0.20953 0.35177 0.42841 0.44756 0.51364 0.62330 0.66794
 0.71030 0.71603 0.74425 0.87421 0.94531 0.98342 1.02768 1.04608 1.06515 1.12762
 1.16941 1.26870 1.28310 1.28921 1.30374 1.36915 1.41421 1.42417 1.48227 1.54275
 1.56425 1.61762 1.67513 1.68497 1.73764 1.80064 1.87811 1.93005 1.98099 2.03031
 2.03644 2.05280 2.09062 2.15384 2.17279 2.26229 2.28491 2.29076 2.30157 2.37605
 2.40601 2.46698 2.48480 2.52005 2.57970 2.67541 2.72114 2.74024 2.78353 2.81942
 2.83246 2.89702 2.91661 2.93120 2.96351 2.99081 3.04973 3.06365 3.07290 3.11851
 3.13594 3.24217 3.26964 3.27098 3.35927 3.39277 3.42417 3.45196 3.52281 3.53254
 3.59207 3.61231 3.68042 3.68488 3.73445 3.78541 3.80341 3.84867 3.87708 3.95735
 4.05581 4.17576 4.25367 4.28954 4.52315 4.52357 8.13186 8.35754 8.37961 9.00011
 9.66339 9.92117 12.88188 14.56825
 == 210-th k-point (-0.20411,-0.20411,0.81643) occupation: 14==
 -65.00520 -65.00519 -4.62739 -4.62727 -3.03925 -3.03923 -3.03906 -3.03870 -3.03854 -3.03850
 -0.07210 0.03253 0.17300 0.20953 0.35177 0.42841 0.44756 0.51364 0.62330 0.66794
 0.71030 0.71603 0.74425 0.87421 0.94531 0.98342 1.02768 1.04608 1.06515 1.12762
 1.16941 1.26870 1.28310 1.28921 1.30374 1.36915 1.41421 1.42417 1.48227 1.54275
 1.56425 1.61762 1.67513 1.68497 1.73764 1.80064 1.87811 1.93005 1.98099 2.03031
 2.03644 2.05280 2.09062 2.15384 2.17279 2.26229 2.28491 2.29076 2.30157 2.37605
 2.40601 2.46698 2.48480 2.52005 2.57970 2.67541 2.72114 2.74024 2.78353 2.81942
 2.83246 2.89702 2.91661 2.93120 2.96351 2.99081 3.04973 3.06365 3.07290 3.11851
 3.13594 3.24217 3.26964 3.27098 3.35927 3.39277 3.42417 3.45196 3.52281 3.53254
 3.59207 3.61231 3.68042 3.68488 3.73445 3.78541 3.80341 3.84867 3.87708 3.95735
 4.05581 4.17576 4.25367 4.28954 4.52315 4.52357 8.13186 8.35754 8.37961 9.00011
 9.66339 9.92117 12.88188 14.56825
 == 211-th k-point (-0.10205,-0.10205,0.71438) occupation: 14==
 -65.00519 -65.00519 -4.62737 -4.62730 -3.03926 -3.03925 -3.03896 -3.03878 -3.03852 -3.03851
 -0.05097 0.03463 0.14108 0.18075 0.31549 0.37663 0.55240 0.55275 0.66932 0.67574
 0.73643 0.75176 0.81765 0.86241 0.87238 0.96289 0.97501 0.99872 1.04083 1.12259
 1.13593 1.15667 1.19095 1.27002 1.36540 1.38168 1.46111 1.48572 1.49775 1.56726
 1.62630 1.64071 1.68510 1.71453 1.75847 1.80102 1.82892 1.86652 1.91218 1.95088
 1.98401 2.06873 2.12003 2.15016 2.19624 2.20033 2.22877 2.34295 2.36224 2.37899
 2.44717 2.44977 2.51688 2.52340 2.55615 2.63180 2.67120 2.77115 2.79786 2.81221
 2.83020 2.90544 2.91433 2.95318 2.95389 3.00613 3.02511 3.05155 3.08304 3.14192
 3.22178 3.23378 3.24393 3.31897 3.32507 3.34683 3.36506 3.44439 3.48770 3.50840
 3.56350 3.61628 3.64286 3.66611 3.71357 3.75231 3.85765 3.89713 3.96810 4.04930
 4.13409 4.24782 4.28851 4.32206 4.58517 4.60956 8.11086 8.39778 8.47670 8.70749
 9.76855 10.12922 13.28613 13.63897
 == 212-th k-point (0.00000,0.00000,0.61232) occupation: 14==
 -65.00519 -65.00519 -4.62733 -4.62733 -3.03927 -3.03927 -3.03887 -3.03887 -3.03851 -3.03851
 -0.01141 -0.01141 0.16971 0.16971 0.30250 0.30250 0.64813 0.64813 0.68888 0.68888
 0.74450 0.74450 0.75528 0.75528 0.97765 0.97765 1.00289 1.00290 1.02315 1.02315
 1.07002 1.07002 1.23811 1.23812 1.37432 1.37435 1.54482 1.54483 1.58209 1.58209
 1.63113 1.63113 1.69142 1.69143 1.74506 1.74508 1.82772 1.82805 1.85620 1.85626
 2.08092 2.08171 2.09754 2.09760 2.18739 2.18739 2.30501 2.30507 2.43096 2.43100
 2.45566 2.45568 2.50318 2.50319 2.52133 2.52242 2.73729 2.73729 2.77737 2.77752
 2.86768 2.86824 2.98852 2.98852 3.00936 3.00938 3.02687 3.02687 3.08155 3.08171
 3.23375 3.23389 3.25067 3.25081 3.26337 3.26341 3.45306 3.45658 3.49215 3.49229
 3.55772 3.55780 3.64320 3.64320 3.72946 3.72954 3.93634 3.93710 4.06975 4.06995
 4.29096 4.29152 4.35471 4.35510 4.60888 4.61361 8.31803 8.31805 8.62580 8.62590
 9.65808 9.66633 13.41148 13.41168
 == 213-th k-point (0.10205,0.10205,0.51027) occupation: 14==
 -65.00519 -65.00519 -4.62737 -4.62730 -3.03926 -3.03925 -3.03896 -3.03878 -3.03852 -3.03851
 -0.05097 0.03463 0.14108 0.18075 0.31549 0.37663 0.55240 0.55275 0.66932 0.67574
 0.73643 0.75176 0.81765 0.86241 0.87238 0.96289 0.97501 0.99872 1.04083 1.12259
 1.13593 1.15667 1.19095 1.27002 1.36540 1.38168 1.46111 1.48572 1.49775 1.56726
 1.62630 1.64071 1.68510 1.71453 1.75847 1.80102 1.82892 1.86652 1.91218 1.95088
 1.98401 2.06873 2.12003 2.15016 2.19624 2.20033 2.22877 2.34295 2.36224 2.37899
 2.44717 2.44977 2.51688 2.52340 2.55615 2.63180 2.67120 2.77115 2.79786 2.81221
 2.83020 2.90544 2.91433 2.95318 2.95389 3.00613 3.02511 3.05155 3.08304 3.14192
 3.22178 3.23378 3.24393 3.31897 3.32507 3.34683 3.36506 3.44439 3.48770 3.50840
 3.56350 3.61628 3.64286 3.66611 3.71357 3.75231 3.85765 3.89713 3.96810 4.04930
 4.13409 4.24782 4.28851 4.32206 4.58517 4.60956 8.11086 8.39778 8.47670 8.70749
 9.76855 10.12922 13.28613 13.63897
 == 214-th k-point (0.20411,0.20411,0.40822) occupation: 14==
 -65.00520 -65.00519 -4.62739 -4.62727 -3.03925 -3.03923 -3.03906 -3.03870 -3.03854 -3.03850
 -0.07210 0.03253 0.17300 0.20953 0.35177 0.42841 0.44756 0.51364 0.62330 0.66794
 0.71030 0.71603 0.74425 0.87421 0.94531 0.98342 1.02768 1.04608 1.06515 1.12762
 1.16941 1.26870 1.28310 1.28921 1.30374 1.36915 1.41421 1.42417 1.48227 1.54275
 1.56425 1.61762 1.67513 1.68497 1.73764 1.80064 1.87811 1.93005 1.98099 2.03031
 2.03644 2.05280 2.09062 2.15384 2.17279 2.26229 2.28491 2.29076 2.30157 2.37605
 2.40601 2.46698 2.48480 2.52005 2.57970 2.67541 2.72114 2.74024 2.78353 2.81942
 2.83246 2.89702 2.91661 2.93120 2.96351 2.99081 3.04973 3.06365 3.07290 3.11851
 3.13594 3.24217 3.26964 3.27098 3.35927 3.39277 3.42417 3.45196 3.52281 3.53254
 3.59207 3.61231 3.68042 3.68488 3.73445 3.78541 3.80341 3.84867 3.87708 3.95735
 4.05581 4.17576 4.25367 4.28954 4.52315 4.52357 8.13186 8.35754 8.37961 9.00011
 9.66339 9.92117 12.88188 14.56825
 == 215-th k-point (0.30616,0.30616,0.30616) occupation: 14==
 -65.00520 -65.00519 -4.62740 -4.62726 -3.03923 -3.03923 -3.03911 -3.03865 -3.03853 -3.03853
 -0.07789 0.01888 0.23087 0.23087 0.33372 0.40003 0.40003 0.55847 0.67277 0.67277
 0.69325 0.69534 0.69534 0.75412 1.00021 1.01510 1.09092 1.09092 1.09476 1.09476
 1.23887 1.26038 1.26038 1.30724 1.30724 1.35741 1.41663 1.49062 1.49062 1.50121
 1.50121 1.58409 1.62555 1.65357 1.87982 1.87982 1.88695 1.90831 1.90831 1.92020
 2.12758 2.12758 2.19159 2.19632 2.19632 2.24500 2.27007 2.27007 2.33423 2.33423
 2.46242 2.46242 2.55692 2.55692 2.60168 2.67944 2.74757 2.77475 2.77475 2.79498
 2.81829 2.81829 2.82837 2.91979 2.95024 2.96191 3.09565 3.09565 3.09813 3.09813
 3.19238 3.19238 3.21277 3.21277 3.31495 3.46602 3.46602 3.55236 3.55618 3.55618
 3.56457 3.67432 3.67432 3.69049 3.73093 3.76096 3.93402 3.93402 4.00639 4.00639
 4.12735 4.14929 4.14929 4.33542 4.43961 4.43961 8.25942 8.25942 8.32992 9.36542
 9.36542 10.00505 11.95080 14.72109
 ---------------------------------------------------------------------------
 VBM is at 86-th k-point with 7.49849 eV
 CBM is at 197-th k-point with 8.23134 eV
 Band gap is 0.73286 eV


           Ground-State Mulliken Net Atomic Charges

      Atom                 Charge (a.u.)          Spin (a.u.)
   --------------------------------------------------------
      1 Si               (0.000000,-0.000000)    (0.000000,0.000000)
      2 Si               (-0.000000,0.000000)    (0.000000,0.000000)
   --------------------------------------------------------
  Sum of atomic charges =      (-0.000000,0.000000)
  Sum of spin   charges =       (0.000000,0.000000)



 Total job time:  233.19 s.
 Tue Sep  9 03:21:30 2025


        *************************************************************
        *                                                           *
        *  Thank you very much for using QCPBC. Have a nice day.    *
        *                                                           *
        *************************************************************

Running job 1 of 1
