                  Welcome to Q-Chem
           with Periodic Boundary Condition
     A Quantum Leap Into The Future Of Chemistry

 Adam Rettig, Xintian Feng, Meng-Fu Chen, Hieu Dinh, Stephen Quiton,
 Anton Ni, Paul J. Robinson, Jinghong Zhang, Joonho Lee

Contributors to earlier versions of Q-Chem not listed above:
 Evgeny Epifanovsky, Leo Cunha, Jerome F. Gonthier, Kuan-Yu Liu
 Input file: /n/netscratch/joonholee_lab/Lab/hieudinh//si_2_ccpvqz_omega_0.6_666.scratch20250909031351/si_2_ccpvqz_omega_0.6_666.0
 Scratch folder: /n/netscratch/joonholee_lab/Lab/hieudinh//si_2_ccpvqz_omega_0.6_666.scratch20250909031351
 Auxillary files located at: /n/holylabs/LABS/joonholee_lab/Lab/qchem_base/qcaux
 Q-Chem begins on Tue Sep  9 03:13:51 2025

 -------------------------------------------------------------
 User input:
 -------------------------------------------------------------
 $lattice
 3
 0.000000 5.130600 5.130600
 5.130600 0.000000 5.130600
 5.130600 5.130600 0.000000
 $end
 
 $unitcell
 ABSOLUTE
 0 1
 Si 0.000000 0.000000 0.000000
 Si 2.565300 2.565300 2.565300
 $end
 
 $rem
 jobtype = sp
 method = pbe
 scf_convergence = 5
 scf_guess = autosad
 scf_algorithm = diis_gdm
 basis = cc-pvqz
 aux_basis = cc-pvqz-jk
 input_bohr = true
 symmetry = false
 rsdf_print_level 1
 is_basis_uctr true
 
 mp_mesh = [6,6,6]
 
 integral_direct true
 bvk_cgto true
 
 thresh 14
 mem_total 1000000
 threads 32
 
 MAX_SCF_CYCLES 500
 madelung = false
 omega 0.6
 do_rij_bigmem true
 automate_g true
 print_level 10
 grid_type_xc 1
 
 thresh_1e2c_sp 1e-14
 thresh_2e3c_bra_ket_sep 1e-10
 thresh_g 1e-12
 $end
 
 -------------------------------------------------------------
 Running PBC job

 Requested Exchange Correlation Functionals: 
  DFT Exchange:  1.00000 pbe_x
  DFT Correlation:  1.00000 pbe_c
 using 32 threads for computing.
 ---------------------------------------------------------------
      Coordinates of Atoms in Central Unit Cell (Angstroms)
    I     Atom         X            Y            Z
 ---------------------------------------------------------------
    1      Si      0.000000     0.000000     0.000000
    2      Si      1.357498     1.357498     1.357498
 ---------------------------------------------------------------
 --------------------------------------------------
              Lattice Vectors (Angstroms)
              X            Y            Z
 --------------------------------------------------
   X       0.000000     2.714997     2.714997
   Y       2.714997     0.000000     2.714997
   Z       2.714997     2.714997     0.000000
 --------------------------------------------------
 --------------------------------------------------
       Reciprocal Lattice Vectors (Angstroms^-1)
              X            Y            Z
 --------------------------------------------------
   X      -1.157126     1.157126     1.157126
   Y       1.157126    -1.157126     1.157126
   Z       1.157126     1.157126    -1.157126
 --------------------------------------------------

 Single point calculation requested

 Hamiltonian contributions:
 List of terms in Hamiltonian: kpts_nn, kpts_kinetic, kpts_vnuc_df, kpts_xc, kpts_rij_bigmem

 K-Points calculation started.

 Basis set information about using solid harmonic (1) or Cartesian (0):
  si : D(1) D(1) D(1) F(1) F(1) G(1) 

 Basis set information about using solid harmonic (1) or Cartesian (0):
  si : D(1) D(1) D(1) D(1) D(1) D(1) D(1) D(1) D(1) F(1) F(1) F(1) F(1) G(1) G(1) H(1) 

 There are 118 basis functions in the central unit cell.
 Print atomic basis of atoms in the central unit cell:
 -------------------------------------------------------------
2 66 134 28

  0.00000000000000e+00  0.00000000000000e+00  0.00000000000000e+00
  2.56530000000000e+00  2.56530000000000e+00  2.56530000000000e+00

  5.13000000000000e+05
  7.68200000000000e+04
  1.74700000000000e+04
  4.93500000000000e+03
  1.60200000000000e+03
  5.74100000000000e+02
  2.21500000000000e+02
  9.05400000000000e+01
  3.87400000000000e+01
  1.69500000000000e+01
  6.45200000000000e+00
  2.87400000000000e+00
  1.25000000000000e+00
  3.59900000000000e-01
  1.69900000000000e-01
  7.06600000000000e-02
  1.12200000000000e+03
  2.66000000000000e+02
  8.59200000000000e+01
  3.23300000000000e+01
  1.33700000000000e+01
  5.80000000000000e+00
  2.55900000000000e+00
  1.12400000000000e+00
  3.98800000000000e-01
  1.53300000000000e-01
  5.72800000000000e-02
  7.60000000000000e-01
  3.02000000000000e-01
  1.20000000000000e-01
  5.41000000000000e-01
  2.12000000000000e-01
  4.61000000000000e-01
  5.13000000000000e+05
  7.68200000000000e+04
  1.74700000000000e+04
  4.93500000000000e+03
  1.60200000000000e+03
  5.74100000000000e+02
  2.21500000000000e+02
  9.05400000000000e+01
  3.87400000000000e+01
  1.69500000000000e+01
  6.45200000000000e+00
  2.87400000000000e+00
  1.25000000000000e+00
  3.59900000000000e-01
  1.69900000000000e-01
  7.06600000000000e-02
  1.12200000000000e+03
  2.66000000000000e+02
  8.59200000000000e+01
  3.23300000000000e+01
  1.33700000000000e+01
  5.80000000000000e+00
  2.55900000000000e+00
  1.12400000000000e+00
  3.98800000000000e-01
  1.53300000000000e-01
  5.72800000000000e-02
  7.60000000000000e-01
  3.02000000000000e-01
  1.20000000000000e-01
  5.41000000000000e-01
  2.12000000000000e-01
  4.61000000000000e-01

  3.56439732356011e-01
  6.67250935594825e-01
  1.15567538346971e+00
  1.89079471139597e+00
  2.92997535092854e+00
  4.25377897422013e+00
  5.53035652706994e+00
  5.88407857713363e+00
  4.26432221020809e+00
  1.46246852660687e+00
  9.90009037975635e-02
 -5.26805361731285e-03
  1.58075269248041e-03
 -9.63604858609034e-02
 -1.80140685379119e-01
 -3.12991611081079e-01
 -5.12013980868736e-01
 -8.03092560139717e-01
 -1.18597193899895e+00
 -1.63453354628192e+00
 -1.94138718043020e+00
 -1.86039340932271e+00
 -9.21642524314205e-01
  4.93552860211257e-01
  9.09065541611183e-01
  3.40430003714153e-01
  4.89002727192571e-02
  9.13245846186842e-02
  1.58921585782757e-01
  2.59526822498432e-01
  4.08347517411705e-01
  6.02266139654795e-01
  8.36774006155092e-01
  9.98775610751853e-01
  9.86583994360998e-01
  5.01500269670235e-01
 -2.91439000418814e-01
 -6.84883633703988e-01
 -4.85138432421684e-01
  3.31166560285492e-01
  1.88605835767988e-01
  9.76765512168845e-02
  4.17977074735086e+00
  5.88843070847456e+00
  7.44317185052013e+00
  8.05001094515016e+00
  6.97099017282640e+00
  4.33955185260449e+00
  1.76355858703549e+00
  3.34437932089088e-01
 -4.09551658476811e+00
 -5.70145272051300e+00
 -7.35388974061730e+00
 -7.93663059323219e+00
 -7.17813870370958e+00
 -4.42768957771269e+00
 -2.05517820096269e+00
 -1.72105843348797e-01
  4.51735295769850e-01
  1.36731249153695e-01
  3.99432914781939e-02
  1.01820035164008e+00
  2.02498404800701e-01
  4.02695370421242e-02
  3.69528803814005e-01
  4.48962571437413e-02
  1.32316184864580e-01
  3.56439732356011e-01
  6.67250935594825e-01
  1.15567538346971e+00
  1.89079471139597e+00
  2.92997535092854e+00
  4.25377897422013e+00
  5.53035652706994e+00
  5.88407857713363e+00
  4.26432221020809e+00
  1.46246852660687e+00
  9.90009037975635e-02
 -5.26805361731285e-03
  1.58075269248041e-03
 -9.63604858609034e-02
 -1.80140685379119e-01
 -3.12991611081079e-01
 -5.12013980868736e-01
 -8.03092560139717e-01
 -1.18597193899895e+00
 -1.63453354628192e+00
 -1.94138718043020e+00
 -1.86039340932271e+00
 -9.21642524314205e-01
  4.93552860211257e-01
  9.09065541611183e-01
  3.40430003714153e-01
  4.89002727192571e-02
  9.13245846186842e-02
  1.58921585782757e-01
  2.59526822498432e-01
  4.08347517411705e-01
  6.02266139654795e-01
  8.36774006155092e-01
  9.98775610751853e-01
  9.86583994360998e-01
  5.01500269670235e-01
 -2.91439000418814e-01
 -6.84883633703988e-01
 -4.85138432421684e-01
  3.31166560285492e-01
  1.88605835767988e-01
  9.76765512168845e-02
  4.17977074735086e+00
  5.88843070847456e+00
  7.44317185052013e+00
  8.05001094515016e+00
  6.97099017282640e+00
  4.33955185260449e+00
  1.76355858703549e+00
  3.34437932089088e-01
 -4.09551658476811e+00
 -5.70145272051300e+00
 -7.35388974061730e+00
 -7.93663059323219e+00
 -7.17813870370958e+00
 -4.42768957771269e+00
 -2.05517820096269e+00
 -1.72105843348797e-01
  4.51735295769850e-01
  1.36731249153695e-01
  3.99432914781939e-02
  1.01820035164008e+00
  2.02498404800701e-01
  4.02695370421242e-02
  3.69528803814005e-01
  4.48962571437413e-02
  1.32316184864580e-01

0 0 0 0 3 3 3
0 0 13 0 26 0 
13 0

0 3 3 13 1 1 1
39 0 
1 0

0 4 4 14 1 1 1
40 0 
1 0

0 5 5 15 1 1 1
41 0 
1 0

0 6 6 16 2 6 6
42 1 50 1 
8 0

0 12 12 24 1 3 3
58 1 
1 0

0 15 15 25 1 3 3
59 1 
1 0

0 18 18 26 1 3 3
60 1 
1 0

0 21 21 27 1 5 6
61 2 
1 1

0 26 26 28 1 5 6
62 2 
1 1

0 31 31 29 1 5 6
63 2 
1 1

0 36 36 30 1 7 10
64 3 
1 1

0 43 43 31 1 7 10
65 3 
1 1

0 50 50 32 1 9 15
66 4 
1 1

1 59 59 33 3 3 3
67 0 80 0 93 0 
13 0

1 62 62 46 1 1 1
106 0 
1 0

1 63 63 47 1 1 1
107 0 
1 0

1 64 64 48 1 1 1
108 0 
1 0

1 65 65 49 2 6 6
109 1 117 1 
8 0

1 71 71 57 1 3 3
125 1 
1 0

1 74 74 58 1 3 3
126 1 
1 0

1 77 77 59 1 3 3
127 1 
1 0

1 80 80 60 1 5 6
128 2 
1 1

1 85 85 61 1 5 6
129 2 
1 1

1 90 90 62 1 5 6
130 2 
1 1

1 95 95 63 1 7 10
131 3 
1 1

1 102 102 64 1 7 10
132 3 
1 1

1 109 109 65 1 9 15
133 4 
1 1

 -------------------------------------------------------------
 Allocate 265256 B from available memory: 1048576000000 B
 There are 2197 image cells after screening.
 There are 2061 image cells for CGTO evaluation after screening.
 Real-Space grid for FFT initialized based on kinetic energy cutoff (eV) = 500.0
 Real-Space grid for FFT: (10,10,10)
 There are 9261 real-space grid points.
 There are 64 batches of real-space grid points. 
 Size of each grid batch is around 128
 Grid for AFT initialized based on kinetic energy cutoff (eV) = 500.0
 Real-Space grid for AFT: (10,10,10)
 There are 9261 real-space grid points.

 There are 5628 atom-centered grid points.

 Spacegroup symmetry group: Fd-3m
 Reducing spacegroup symmetry to symmorphic group: F -4 3 m
 Monkhorst-Pack mesh is [6,6,6]
 There are 216 k points.
kpoints in Bohr
-0.2041082040 -0.2041082040 -0.2041082040
-0.1020541020 -0.1020541020 -0.3061623059
-0.0000000000 -0.0000000000 -0.4082164079
0.1020541020 0.1020541020 -0.5102705099
0.2041082040 0.2041082040 -0.6123246119
0.3061623059 0.3061623059 -0.7143787138
-0.1020541020 -0.3061623059 -0.1020541020
-0.0000000000 -0.2041082040 -0.2041082040
0.1020541020 -0.1020541020 -0.3061623059
0.2041082040 -0.0000000000 -0.4082164079
0.3061623059 0.1020541020 -0.5102705099
0.4082164079 0.2041082040 -0.6123246119
-0.0000000000 -0.4082164079 0.0000000000
0.1020541020 -0.3061623059 -0.1020541020
0.2041082040 -0.2041082040 -0.2041082040
0.3061623059 -0.1020541020 -0.3061623059
0.4082164079 -0.0000000000 -0.4082164079
0.5102705099 0.1020541020 -0.5102705099
0.1020541020 -0.5102705099 0.1020541020
0.2041082040 -0.4082164079 0.0000000000
0.3061623059 -0.3061623059 -0.1020541020
0.4082164079 -0.2041082040 -0.2041082040
0.5102705099 -0.1020541020 -0.3061623059
0.6123246119 0.0000000000 -0.4082164079
0.2041082040 -0.6123246119 0.2041082040
0.3061623059 -0.5102705099 0.1020541020
0.4082164079 -0.4082164079 0.0000000000
0.5102705099 -0.3061623059 -0.1020541020
0.6123246119 -0.2041082040 -0.2041082040
0.7143787138 -0.1020541020 -0.3061623059
0.3061623059 -0.7143787138 0.3061623059
0.4082164079 -0.6123246119 0.2041082040
0.5102705099 -0.5102705099 0.1020541020
0.6123246119 -0.4082164079 0.0000000000
0.7143787138 -0.3061623059 -0.1020541020
0.8164328158 -0.2041082040 -0.2041082040
-0.3061623059 -0.1020541020 -0.1020541020
-0.2041082040 -0.0000000000 -0.2041082040
-0.1020541020 0.1020541020 -0.3061623059
-0.0000000000 0.2041082040 -0.4082164079
0.1020541020 0.3061623059 -0.5102705099
0.2041082040 0.4082164079 -0.6123246119
-0.2041082040 -0.2041082040 -0.0000000000
-0.1020541020 -0.1020541020 -0.1020541020
-0.0000000000 -0.0000000000 -0.2041082040
0.1020541020 0.1020541020 -0.3061623059
0.2041082040 0.2041082040 -0.4082164079
0.3061623059 0.3061623059 -0.5102705099
-0.1020541020 -0.3061623059 0.1020541020
-0.0000000000 -0.2041082040 0.0000000000
0.1020541020 -0.1020541020 -0.1020541020
0.2041082040 -0.0000000000 -0.2041082040
0.3061623059 0.1020541020 -0.3061623059
0.4082164079 0.2041082040 -0.4082164079
-0.0000000000 -0.4082164079 0.2041082040
0.1020541020 -0.3061623059 0.1020541020
0.2041082040 -0.2041082040 0.0000000000
0.3061623059 -0.1020541020 -0.1020541020
0.4082164079 0.0000000000 -0.2041082040
0.5102705099 0.1020541020 -0.3061623059
0.1020541020 -0.5102705099 0.3061623059
0.2041082040 -0.4082164079 0.2041082040
0.3061623059 -0.3061623059 0.1020541020
0.4082164079 -0.2041082040 0.0000000000
0.5102705099 -0.1020541020 -0.1020541020
0.6123246119 0.0000000000 -0.2041082040
0.2041082040 -0.6123246119 0.4082164079
0.3061623059 -0.5102705099 0.3061623059
0.4082164079 -0.4082164079 0.2041082040
0.5102705099 -0.3061623059 0.1020541020
0.6123246119 -0.2041082040 0.0000000000
0.7143787138 -0.1020541020 -0.1020541020
-0.4082164079 -0.0000000000 -0.0000000000
-0.3061623059 0.1020541020 -0.1020541020
-0.2041082040 0.2041082040 -0.2041082040
-0.1020541020 0.3061623059 -0.3061623059
0.0000000000 0.4082164079 -0.4082164079
0.1020541020 0.5102705099 -0.5102705099
-0.3061623059 -0.1020541020 0.1020541020
-0.2041082040 -0.0000000000 -0.0000000000
-0.1020541020 0.1020541020 -0.1020541020
0.0000000000 0.2041082040 -0.2041082040
0.1020541020 0.3061623059 -0.3061623059
0.2041082040 0.4082164079 -0.4082164079
-0.2041082040 -0.2041082040 0.2041082040
-0.1020541020 -0.1020541020 0.1020541020
0.0000000000 0.0000000000 0.0000000000
0.1020541020 0.1020541020 -0.1020541020
0.2041082040 0.2041082040 -0.2041082040
0.3061623059 0.3061623059 -0.3061623059
-0.1020541020 -0.3061623059 0.3061623059
-0.0000000000 -0.2041082040 0.2041082040
0.1020541020 -0.1020541020 0.1020541020
0.2041082040 0.0000000000 0.0000000000
0.3061623059 0.1020541020 -0.1020541020
0.4082164079 0.2041082040 -0.2041082040
-0.0000000000 -0.4082164079 0.4082164079
0.1020541020 -0.3061623059 0.3061623059
0.2041082040 -0.2041082040 0.2041082040
0.3061623059 -0.1020541020 0.1020541020
0.4082164079 0.0000000000 0.0000000000
0.5102705099 0.1020541020 -0.1020541020
0.1020541020 -0.5102705099 0.5102705099
0.2041082040 -0.4082164079 0.4082164079
0.3061623059 -0.3061623059 0.3061623059
0.4082164079 -0.2041082040 0.2041082040
0.5102705099 -0.1020541020 0.1020541020
0.6123246119 0.0000000000 0.0000000000
-0.5102705099 0.1020541020 0.1020541020
-0.4082164079 0.2041082040 -0.0000000000
-0.3061623059 0.3061623059 -0.1020541020
-0.2041082040 0.4082164079 -0.2041082040
-0.1020541020 0.5102705099 -0.3061623059
0.0000000000 0.6123246119 -0.4082164079
-0.4082164079 -0.0000000000 0.2041082040
-0.3061623059 0.1020541020 0.1020541020
-0.2041082040 0.2041082040 -0.0000000000
-0.1020541020 0.3061623059 -0.1020541020
0.0000000000 0.4082164079 -0.2041082040
0.1020541020 0.5102705099 -0.3061623059
-0.3061623059 -0.1020541020 0.3061623059
-0.2041082040 -0.0000000000 0.2041082040
-0.1020541020 0.1020541020 0.1020541020
0.0000000000 0.2041082040 0.0000000000
0.1020541020 0.3061623059 -0.1020541020
0.2041082040 0.4082164079 -0.2041082040
-0.2041082040 -0.2041082040 0.4082164079
-0.1020541020 -0.1020541020 0.3061623059
0.0000000000 0.0000000000 0.2041082040
0.1020541020 0.1020541020 0.1020541020
0.2041082040 0.2041082040 0.0000000000
0.3061623059 0.3061623059 -0.1020541020
-0.1020541020 -0.3061623059 0.5102705099
-0.0000000000 -0.2041082040 0.4082164079
0.1020541020 -0.1020541020 0.3061623059
0.2041082040 0.0000000000 0.2041082040
0.3061623059 0.1020541020 0.1020541020
0.4082164079 0.2041082040 0.0000000000
-0.0000000000 -0.4082164079 0.6123246119
0.1020541020 -0.3061623059 0.5102705099
0.2041082040 -0.2041082040 0.4082164079
0.3061623059 -0.1020541020 0.3061623059
0.4082164079 0.0000000000 0.2041082040
0.5102705099 0.1020541020 0.1020541020
-0.6123246119 0.2041082040 0.2041082040
-0.5102705099 0.3061623059 0.1020541020
-0.4082164079 0.4082164079 -0.0000000000
-0.3061623059 0.5102705099 -0.1020541020
-0.2041082040 0.6123246119 -0.2041082040
-0.1020541020 0.7143787138 -0.3061623059
-0.5102705099 0.1020541020 0.3061623059
-0.4082164079 0.2041082040 0.2041082040
-0.3061623059 0.3061623059 0.1020541020
-0.2041082040 0.4082164079 -0.0000000000
-0.1020541020 0.5102705099 -0.1020541020
0.0000000000 0.6123246119 -0.2041082040
-0.4082164079 -0.0000000000 0.4082164079
-0.3061623059 0.1020541020 0.3061623059
-0.2041082040 0.2041082040 0.2041082040
-0.1020541020 0.3061623059 0.1020541020
0.0000000000 0.4082164079 0.0000000000
0.1020541020 0.5102705099 -0.1020541020
-0.3061623059 -0.1020541020 0.5102705099
-0.2041082040 0.0000000000 0.4082164079
-0.1020541020 0.1020541020 0.3061623059
0.0000000000 0.2041082040 0.2041082040
0.1020541020 0.3061623059 0.1020541020
0.2041082040 0.4082164079 0.0000000000
-0.2041082040 -0.2041082040 0.6123246119
-0.1020541020 -0.1020541020 0.5102705099
0.0000000000 0.0000000000 0.4082164079
0.1020541020 0.1020541020 0.3061623059
0.2041082040 0.2041082040 0.2041082040
0.3061623059 0.3061623059 0.1020541020
-0.1020541020 -0.3061623059 0.7143787138
0.0000000000 -0.2041082040 0.6123246119
0.1020541020 -0.1020541020 0.5102705099
0.2041082040 0.0000000000 0.4082164079
0.3061623059 0.1020541020 0.3061623059
0.4082164079 0.2041082040 0.2041082040
-0.7143787138 0.3061623059 0.3061623059
-0.6123246119 0.4082164079 0.2041082040
-0.5102705099 0.5102705099 0.1020541020
-0.4082164079 0.6123246119 -0.0000000000
-0.3061623059 0.7143787138 -0.1020541020
-0.2041082040 0.8164328158 -0.2041082040
-0.6123246119 0.2041082040 0.4082164079
-0.5102705099 0.3061623059 0.3061623059
-0.4082164079 0.4082164079 0.2041082040
-0.3061623059 0.5102705099 0.1020541020
-0.2041082040 0.6123246119 0.0000000000
-0.1020541020 0.7143787138 -0.1020541020
-0.5102705099 0.1020541020 0.5102705099
-0.4082164079 0.2041082040 0.4082164079
-0.3061623059 0.3061623059 0.3061623059
-0.2041082040 0.4082164079 0.2041082040
-0.1020541020 0.5102705099 0.1020541020
0.0000000000 0.6123246119 0.0000000000
-0.4082164079 0.0000000000 0.6123246119
-0.3061623059 0.1020541020 0.5102705099
-0.2041082040 0.2041082040 0.4082164079
-0.1020541020 0.3061623059 0.3061623059
0.0000000000 0.4082164079 0.2041082040
0.1020541020 0.5102705099 0.1020541020
-0.3061623059 -0.1020541020 0.7143787138
-0.2041082040 0.0000000000 0.6123246119
-0.1020541020 0.1020541020 0.5102705099
0.0000000000 0.2041082040 0.4082164079
0.1020541020 0.3061623059 0.3061623059
0.2041082040 0.4082164079 0.2041082040
-0.2041082040 -0.2041082040 0.8164328158
-0.1020541020 -0.1020541020 0.7143787138
0.0000000000 0.0000000000 0.6123246119
0.1020541020 0.1020541020 0.5102705099
0.2041082040 0.2041082040 0.4082164079
0.3061623059 0.3061623059 0.3061623059
 There are 14 alpha and 14 beta electrons
 Start computing overlap matrix
 Allocate 48121344 B from available memory: 1048575734752 B
 Time for computing overlap matrix: 4.0040000000 s
 ====== Initialize compute kernels for all-electron RI-J (kpts) ====== 
 ========================================================== 
 Range-separated parameter omega        = 0.599999999999999978
 Threshold for 1e2c shellpair           = 0.000000000000010000
 Threshold for 2e2c SR integral         = 0.000000000000000001
 Threshold for 2e3c SR integral         = 0.000000000100000000
 Threshold for AFT G-space screening is = 0.000000000001000000
 The exponent cutoff for C/D classification (omega2 / 2) is  = 0.179999999999999993
 ========================================================== 
 === Post process the basis set for RI calculation (exp_cutoff = 0.179999999999999993 ) === 
nshells_b1 before uncontraction = 28
nshells_b1 after uncontraction = 28
nshells_baux before uncontraction = 80
nshells_baux after uncontraction = 80
===============================================
nbsf total   = 118
nbsf compact = 92
nbsf diffuse = 26
naux total   = 296
naux compact = 296
naux diffuse = 0
nshells_bnuc = 2

 Number of unique atoms is 1
 Unique atom #0 (si) has 9 shells.

Shell 0 to 8 belongs to atom si
Shell 9 to 17 belongs to atom si

 Number of unique atoms is 1
 Unique atom #0 (si) has 5 shells.

Shell 0 to 4 belongs to atom si
Shell 5 to 9 belongs to atom si

 Number of unique atom is 1
 Unique atom #0 (si) has 40 auxiliary shells.

Auxiliary Shell 0 to 39 belongs to atom si
Auxiliary Shell 40 to 79 belongs to atom si

================= Automatically determine grid size for reciprocal space summation =================
 Range-separated parameter = 0.60000000000000 and G-space screening threshold = 0.00000000000100
The number of grid points along each axis dimension is (7, 7, 7)
Total number of grid points = 3375

Use nonortho shellpair for diffuse density
======== Initializing relevant kernel for RIJ (DD type) ========
There are 55 shellpairs in the reference unit cell
There are 3757 images and we expect to have 206635 in total
There are 11898 shellpairs in the lattice sum after screening
======== Initializing relevant kernel for RIJ (CD type) ========
There are 180 shellpairs in the reference unit cell
There are 2659 images and we expect to have 478620 in total
There are 19974 shellpairs in the lattice sum after screening
****** AFT -> SR ******
Maximum bra distance cutoff is 23.000000000000
Maximum bra ket distance cutoff is 24.132153614458
Maximum bra ket screening distance is 21.593750000000
Number of auxiliary image is 647
There are 180 shellpairs in the reference unit cell
There are 551 images and we expect to have 99180 in total
There are 19974 shellpairs in the lattice sum after screening
Available memory per thread for 2e3c calculation is 32.766487919000Gb
Finish initializing 2e3c SR with the lattice sum!
=================================================
======== Initializing relevant kernel for RIJ (CC type) ========
There are 171 shellpairs in the reference unit cell
There are 1241 images and we expect to have 212211 in total
There are 4082 shellpairs in the lattice sum after screening
****** AFT -> SR ******
Maximum bra distance cutoff is 15.000000000000
Maximum bra ket distance cutoff is 25.131175705795
Maximum bra ket screening distance is 21.156250000000
Number of auxiliary image is 647
There are 171 shellpairs in the reference unit cell
There are 237 images and we expect to have 40527 in total
There are 4082 shellpairs in the lattice sum after screening
Available memory per thread for 2e3c calculation is 32.766487919000Gb
Finish initializing 2e3c SR with the lattice sum!
=================================================
======== Initializing the SR component for Vnuc (CD type) ========
Maximum bra distance cutoff is 23.000000000000
Maximum bra ket distance cutoff is 16.737418337388
Maximum bra ket screening distance is 14.115333913559
Number of auxiliary image is 551
There are 180 shellpairs in the reference unit cell
There are 551 images and we expect to have 99180 in total
There are 19974 shellpairs in the lattice sum after screening
Available memory per thread for 2e3c calculation is 32.766487919000Gb
Finish initializing 2e3c SR with the lattice sum!
=================================================
======== Initialize the SR component for Vnuc (CC type) ========
Maximum bra distance cutoff is 15.000000000000
Maximum bra ket distance cutoff is 17.743801426189
Maximum bra ket screening distance is 13.222397966002
Number of auxiliary image is 285
There are 171 shellpairs in the reference unit cell
There are 237 images and we expect to have 40527 in total
There are 4082 shellpairs in the lattice sum after screening
Available memory per thread for 2e3c calculation is 32.766487919000Gb
Finish initializing 2e3c SR with the lattice sum!
=================================================
 Aufbau occupation scheme, occupation determined by eigenvalue
 == 0-th k-point nmo = 114 (-0.20411,-0.20411,-0.20411) ==
 == 1-th k-point nmo = 114 (-0.10205,-0.10205,-0.30616) ==
 == 2-th k-point nmo = 114 (-0.00000,-0.00000,-0.40822) ==
 == 3-th k-point nmo = 114 (0.10205,0.10205,-0.51027) ==
 == 4-th k-point nmo = 114 (0.20411,0.20411,-0.61232) ==
 == 5-th k-point nmo = 114 (0.30616,0.30616,-0.71438) ==
 == 6-th k-point nmo = 114 (-0.10205,-0.30616,-0.10205) ==
 == 7-th k-point nmo = 114 (-0.00000,-0.20411,-0.20411) ==
 == 8-th k-point nmo = 114 (0.10205,-0.10205,-0.30616) ==
 == 9-th k-point nmo = 114 (0.20411,-0.00000,-0.40822) ==
 == 10-th k-point nmo = 114 (0.30616,0.10205,-0.51027) ==
 == 11-th k-point nmo = 114 (0.40822,0.20411,-0.61232) ==
 == 12-th k-point nmo = 114 (-0.00000,-0.40822,0.00000) ==
 == 13-th k-point nmo = 114 (0.10205,-0.30616,-0.10205) ==
 == 14-th k-point nmo = 114 (0.20411,-0.20411,-0.20411) ==
 == 15-th k-point nmo = 114 (0.30616,-0.10205,-0.30616) ==
 == 16-th k-point nmo = 114 (0.40822,-0.00000,-0.40822) ==
 == 17-th k-point nmo = 114 (0.51027,0.10205,-0.51027) ==
 == 18-th k-point nmo = 114 (0.10205,-0.51027,0.10205) ==
 == 19-th k-point nmo = 114 (0.20411,-0.40822,0.00000) ==
 == 20-th k-point nmo = 114 (0.30616,-0.30616,-0.10205) ==
 == 21-th k-point nmo = 114 (0.40822,-0.20411,-0.20411) ==
 == 22-th k-point nmo = 114 (0.51027,-0.10205,-0.30616) ==
 == 23-th k-point nmo = 114 (0.61232,0.00000,-0.40822) ==
 == 24-th k-point nmo = 114 (0.20411,-0.61232,0.20411) ==
 == 25-th k-point nmo = 114 (0.30616,-0.51027,0.10205) ==
 == 26-th k-point nmo = 114 (0.40822,-0.40822,0.00000) ==
 == 27-th k-point nmo = 114 (0.51027,-0.30616,-0.10205) ==
 == 28-th k-point nmo = 114 (0.61232,-0.20411,-0.20411) ==
 == 29-th k-point nmo = 114 (0.71438,-0.10205,-0.30616) ==
 == 30-th k-point nmo = 114 (0.30616,-0.71438,0.30616) ==
 == 31-th k-point nmo = 114 (0.40822,-0.61232,0.20411) ==
 == 32-th k-point nmo = 114 (0.51027,-0.51027,0.10205) ==
 == 33-th k-point nmo = 114 (0.61232,-0.40822,0.00000) ==
 == 34-th k-point nmo = 114 (0.71438,-0.30616,-0.10205) ==
 == 35-th k-point nmo = 114 (0.81643,-0.20411,-0.20411) ==
 == 36-th k-point nmo = 114 (-0.30616,-0.10205,-0.10205) ==
 == 37-th k-point nmo = 114 (-0.20411,-0.00000,-0.20411) ==
 == 38-th k-point nmo = 114 (-0.10205,0.10205,-0.30616) ==
 == 39-th k-point nmo = 114 (-0.00000,0.20411,-0.40822) ==
 == 40-th k-point nmo = 114 (0.10205,0.30616,-0.51027) ==
 == 41-th k-point nmo = 114 (0.20411,0.40822,-0.61232) ==
 == 42-th k-point nmo = 114 (-0.20411,-0.20411,-0.00000) ==
 == 43-th k-point nmo = 115 (-0.10205,-0.10205,-0.10205) ==
 == 44-th k-point nmo = 114 (-0.00000,-0.00000,-0.20411) ==
 == 45-th k-point nmo = 114 (0.10205,0.10205,-0.30616) ==
 == 46-th k-point nmo = 114 (0.20411,0.20411,-0.40822) ==
 == 47-th k-point nmo = 114 (0.30616,0.30616,-0.51027) ==
 == 48-th k-point nmo = 114 (-0.10205,-0.30616,0.10205) ==
 == 49-th k-point nmo = 114 (-0.00000,-0.20411,0.00000) ==
 == 50-th k-point nmo = 115 (0.10205,-0.10205,-0.10205) ==
 == 51-th k-point nmo = 114 (0.20411,-0.00000,-0.20411) ==
 == 52-th k-point nmo = 114 (0.30616,0.10205,-0.30616) ==
 == 53-th k-point nmo = 114 (0.40822,0.20411,-0.40822) ==
 == 54-th k-point nmo = 114 (-0.00000,-0.40822,0.20411) ==
 == 55-th k-point nmo = 114 (0.10205,-0.30616,0.10205) ==
 == 56-th k-point nmo = 114 (0.20411,-0.20411,0.00000) ==
 == 57-th k-point nmo = 114 (0.30616,-0.10205,-0.10205) ==
 == 58-th k-point nmo = 114 (0.40822,0.00000,-0.20411) ==
 == 59-th k-point nmo = 114 (0.51027,0.10205,-0.30616) ==
 == 60-th k-point nmo = 114 (0.10205,-0.51027,0.30616) ==
 == 61-th k-point nmo = 114 (0.20411,-0.40822,0.20411) ==
 == 62-th k-point nmo = 114 (0.30616,-0.30616,0.10205) ==
 == 63-th k-point nmo = 114 (0.40822,-0.20411,0.00000) ==
 == 64-th k-point nmo = 114 (0.51027,-0.10205,-0.10205) ==
 == 65-th k-point nmo = 114 (0.61232,0.00000,-0.20411) ==
 == 66-th k-point nmo = 114 (0.20411,-0.61232,0.40822) ==
 == 67-th k-point nmo = 114 (0.30616,-0.51027,0.30616) ==
 == 68-th k-point nmo = 114 (0.40822,-0.40822,0.20411) ==
 == 69-th k-point nmo = 114 (0.51027,-0.30616,0.10205) ==
 == 70-th k-point nmo = 114 (0.61232,-0.20411,0.00000) ==
 == 71-th k-point nmo = 114 (0.71438,-0.10205,-0.10205) ==
 == 72-th k-point nmo = 114 (-0.40822,-0.00000,-0.00000) ==
 == 73-th k-point nmo = 114 (-0.30616,0.10205,-0.10205) ==
 == 74-th k-point nmo = 114 (-0.20411,0.20411,-0.20411) ==
 == 75-th k-point nmo = 114 (-0.10205,0.30616,-0.30616) ==
 == 76-th k-point nmo = 114 (0.00000,0.40822,-0.40822) ==
 == 77-th k-point nmo = 114 (0.10205,0.51027,-0.51027) ==
 == 78-th k-point nmo = 114 (-0.30616,-0.10205,0.10205) ==
 == 79-th k-point nmo = 114 (-0.20411,-0.00000,-0.00000) ==
 == 80-th k-point nmo = 115 (-0.10205,0.10205,-0.10205) ==
 == 81-th k-point nmo = 114 (0.00000,0.20411,-0.20411) ==
 == 82-th k-point nmo = 114 (0.10205,0.30616,-0.30616) ==
 == 83-th k-point nmo = 114 (0.20411,0.40822,-0.40822) ==
 == 84-th k-point nmo = 114 (-0.20411,-0.20411,0.20411) ==
 == 85-th k-point nmo = 115 (-0.10205,-0.10205,0.10205) ==
 == 86-th k-point nmo = 115 (0.00000,0.00000,0.00000) ==
 == 87-th k-point nmo = 115 (0.10205,0.10205,-0.10205) ==
 == 88-th k-point nmo = 114 (0.20411,0.20411,-0.20411) ==
 == 89-th k-point nmo = 114 (0.30616,0.30616,-0.30616) ==
 == 90-th k-point nmo = 114 (-0.10205,-0.30616,0.30616) ==
 == 91-th k-point nmo = 114 (-0.00000,-0.20411,0.20411) ==
 == 92-th k-point nmo = 115 (0.10205,-0.10205,0.10205) ==
 == 93-th k-point nmo = 114 (0.20411,0.00000,0.00000) ==
 == 94-th k-point nmo = 114 (0.30616,0.10205,-0.10205) ==
 == 95-th k-point nmo = 114 (0.40822,0.20411,-0.20411) ==
 == 96-th k-point nmo = 114 (-0.00000,-0.40822,0.40822) ==
 == 97-th k-point nmo = 114 (0.10205,-0.30616,0.30616) ==
 == 98-th k-point nmo = 114 (0.20411,-0.20411,0.20411) ==
 == 99-th k-point nmo = 114 (0.30616,-0.10205,0.10205) ==
 == 100-th k-point nmo = 114 (0.40822,0.00000,0.00000) ==
 == 101-th k-point nmo = 114 (0.51027,0.10205,-0.10205) ==
 == 102-th k-point nmo = 114 (0.10205,-0.51027,0.51027) ==
 == 103-th k-point nmo = 114 (0.20411,-0.40822,0.40822) ==
 == 104-th k-point nmo = 114 (0.30616,-0.30616,0.30616) ==
 == 105-th k-point nmo = 114 (0.40822,-0.20411,0.20411) ==
 == 106-th k-point nmo = 114 (0.51027,-0.10205,0.10205) ==
 == 107-th k-point nmo = 114 (0.61232,0.00000,0.00000) ==
 == 108-th k-point nmo = 114 (-0.51027,0.10205,0.10205) ==
 == 109-th k-point nmo = 114 (-0.40822,0.20411,-0.00000) ==
 == 110-th k-point nmo = 114 (-0.30616,0.30616,-0.10205) ==
 == 111-th k-point nmo = 114 (-0.20411,0.40822,-0.20411) ==
 == 112-th k-point nmo = 114 (-0.10205,0.51027,-0.30616) ==
 == 113-th k-point nmo = 114 (0.00000,0.61232,-0.40822) ==
 == 114-th k-point nmo = 114 (-0.40822,-0.00000,0.20411) ==
 == 115-th k-point nmo = 114 (-0.30616,0.10205,0.10205) ==
 == 116-th k-point nmo = 114 (-0.20411,0.20411,-0.00000) ==
 == 117-th k-point nmo = 114 (-0.10205,0.30616,-0.10205) ==
 == 118-th k-point nmo = 114 (0.00000,0.40822,-0.20411) ==
 == 119-th k-point nmo = 114 (0.10205,0.51027,-0.30616) ==
 == 120-th k-point nmo = 114 (-0.30616,-0.10205,0.30616) ==
 == 121-th k-point nmo = 114 (-0.20411,-0.00000,0.20411) ==
 == 122-th k-point nmo = 115 (-0.10205,0.10205,0.10205) ==
 == 123-th k-point nmo = 114 (0.00000,0.20411,0.00000) ==
 == 124-th k-point nmo = 114 (0.10205,0.30616,-0.10205) ==
 == 125-th k-point nmo = 114 (0.20411,0.40822,-0.20411) ==
 == 126-th k-point nmo = 114 (-0.20411,-0.20411,0.40822) ==
 == 127-th k-point nmo = 114 (-0.10205,-0.10205,0.30616) ==
 == 128-th k-point nmo = 114 (0.00000,0.00000,0.20411) ==
 == 129-th k-point nmo = 115 (0.10205,0.10205,0.10205) ==
 == 130-th k-point nmo = 114 (0.20411,0.20411,0.00000) ==
 == 131-th k-point nmo = 114 (0.30616,0.30616,-0.10205) ==
 == 132-th k-point nmo = 114 (-0.10205,-0.30616,0.51027) ==
 == 133-th k-point nmo = 114 (-0.00000,-0.20411,0.40822) ==
 == 134-th k-point nmo = 114 (0.10205,-0.10205,0.30616) ==
 == 135-th k-point nmo = 114 (0.20411,0.00000,0.20411) ==
 == 136-th k-point nmo = 114 (0.30616,0.10205,0.10205) ==
 == 137-th k-point nmo = 114 (0.40822,0.20411,0.00000) ==
 == 138-th k-point nmo = 114 (-0.00000,-0.40822,0.61232) ==
 == 139-th k-point nmo = 114 (0.10205,-0.30616,0.51027) ==
 == 140-th k-point nmo = 114 (0.20411,-0.20411,0.40822) ==
 == 141-th k-point nmo = 114 (0.30616,-0.10205,0.30616) ==
 == 142-th k-point nmo = 114 (0.40822,0.00000,0.20411) ==
 == 143-th k-point nmo = 114 (0.51027,0.10205,0.10205) ==
 == 144-th k-point nmo = 114 (-0.61232,0.20411,0.20411) ==
 == 145-th k-point nmo = 114 (-0.51027,0.30616,0.10205) ==
 == 146-th k-point nmo = 114 (-0.40822,0.40822,-0.00000) ==
 == 147-th k-point nmo = 114 (-0.30616,0.51027,-0.10205) ==
 == 148-th k-point nmo = 114 (-0.20411,0.61232,-0.20411) ==
 == 149-th k-point nmo = 114 (-0.10205,0.71438,-0.30616) ==
 == 150-th k-point nmo = 114 (-0.51027,0.10205,0.30616) ==
 == 151-th k-point nmo = 114 (-0.40822,0.20411,0.20411) ==
 == 152-th k-point nmo = 114 (-0.30616,0.30616,0.10205) ==
 == 153-th k-point nmo = 114 (-0.20411,0.40822,-0.00000) ==
 == 154-th k-point nmo = 114 (-0.10205,0.51027,-0.10205) ==
 == 155-th k-point nmo = 114 (0.00000,0.61232,-0.20411) ==
 == 156-th k-point nmo = 114 (-0.40822,-0.00000,0.40822) ==
 == 157-th k-point nmo = 114 (-0.30616,0.10205,0.30616) ==
 == 158-th k-point nmo = 114 (-0.20411,0.20411,0.20411) ==
 == 159-th k-point nmo = 114 (-0.10205,0.30616,0.10205) ==
 == 160-th k-point nmo = 114 (0.00000,0.40822,0.00000) ==
 == 161-th k-point nmo = 114 (0.10205,0.51027,-0.10205) ==
 == 162-th k-point nmo = 114 (-0.30616,-0.10205,0.51027) ==
 == 163-th k-point nmo = 114 (-0.20411,0.00000,0.40822) ==
 == 164-th k-point nmo = 114 (-0.10205,0.10205,0.30616) ==
 == 165-th k-point nmo = 114 (0.00000,0.20411,0.20411) ==
 == 166-th k-point nmo = 114 (0.10205,0.30616,0.10205) ==
 == 167-th k-point nmo = 114 (0.20411,0.40822,0.00000) ==
 == 168-th k-point nmo = 114 (-0.20411,-0.20411,0.61232) ==
 == 169-th k-point nmo = 114 (-0.10205,-0.10205,0.51027) ==
 == 170-th k-point nmo = 114 (0.00000,0.00000,0.40822) ==
 == 171-th k-point nmo = 114 (0.10205,0.10205,0.30616) ==
 == 172-th k-point nmo = 114 (0.20411,0.20411,0.20411) ==
 == 173-th k-point nmo = 114 (0.30616,0.30616,0.10205) ==
 == 174-th k-point nmo = 114 (-0.10205,-0.30616,0.71438) ==
 == 175-th k-point nmo = 114 (0.00000,-0.20411,0.61232) ==
 == 176-th k-point nmo = 114 (0.10205,-0.10205,0.51027) ==
 == 177-th k-point nmo = 114 (0.20411,0.00000,0.40822) ==
 == 178-th k-point nmo = 114 (0.30616,0.10205,0.30616) ==
 == 179-th k-point nmo = 114 (0.40822,0.20411,0.20411) ==
 == 180-th k-point nmo = 114 (-0.71438,0.30616,0.30616) ==
 == 181-th k-point nmo = 114 (-0.61232,0.40822,0.20411) ==
 == 182-th k-point nmo = 114 (-0.51027,0.51027,0.10205) ==
 == 183-th k-point nmo = 114 (-0.40822,0.61232,-0.00000) ==
 == 184-th k-point nmo = 114 (-0.30616,0.71438,-0.10205) ==
 == 185-th k-point nmo = 114 (-0.20411,0.81643,-0.20411) ==
 == 186-th k-point nmo = 114 (-0.61232,0.20411,0.40822) ==
 == 187-th k-point nmo = 114 (-0.51027,0.30616,0.30616) ==
 == 188-th k-point nmo = 114 (-0.40822,0.40822,0.20411) ==
 == 189-th k-point nmo = 114 (-0.30616,0.51027,0.10205) ==
 == 190-th k-point nmo = 114 (-0.20411,0.61232,0.00000) ==
 == 191-th k-point nmo = 114 (-0.10205,0.71438,-0.10205) ==
 == 192-th k-point nmo = 114 (-0.51027,0.10205,0.51027) ==
 == 193-th k-point nmo = 114 (-0.40822,0.20411,0.40822) ==
 == 194-th k-point nmo = 114 (-0.30616,0.30616,0.30616) ==
 == 195-th k-point nmo = 114 (-0.20411,0.40822,0.20411) ==
 == 196-th k-point nmo = 114 (-0.10205,0.51027,0.10205) ==
 == 197-th k-point nmo = 114 (0.00000,0.61232,0.00000) ==
 == 198-th k-point nmo = 114 (-0.40822,0.00000,0.61232) ==
 == 199-th k-point nmo = 114 (-0.30616,0.10205,0.51027) ==
 == 200-th k-point nmo = 114 (-0.20411,0.20411,0.40822) ==
 == 201-th k-point nmo = 114 (-0.10205,0.30616,0.30616) ==
 == 202-th k-point nmo = 114 (0.00000,0.40822,0.20411) ==
 == 203-th k-point nmo = 114 (0.10205,0.51027,0.10205) ==
 == 204-th k-point nmo = 114 (-0.30616,-0.10205,0.71438) ==
 == 205-th k-point nmo = 114 (-0.20411,0.00000,0.61232) ==
 == 206-th k-point nmo = 114 (-0.10205,0.10205,0.51027) ==
 == 207-th k-point nmo = 114 (0.00000,0.20411,0.40822) ==
 == 208-th k-point nmo = 114 (0.10205,0.30616,0.30616) ==
 == 209-th k-point nmo = 114 (0.20411,0.40822,0.20411) ==
 == 210-th k-point nmo = 114 (-0.20411,-0.20411,0.81643) ==
 == 211-th k-point nmo = 114 (-0.10205,-0.10205,0.71438) ==
 == 212-th k-point nmo = 114 (0.00000,0.00000,0.61232) ==
 == 213-th k-point nmo = 114 (0.10205,0.10205,0.51027) ==
 == 214-th k-point nmo = 114 (0.20411,0.20411,0.40822) ==
 == 215-th k-point nmo = 114 (0.30616,0.30616,0.30616) ==

 Generate autoSAD guess
backing up fragment data
Atom # 0: si, charge: 0, multiplicity: 3.000000
writing autosad to fragment context
Settings for isolated fragments: 
  frgm_gamma: TRUE
  frgm_center: FALSE

    Running SCF for isolated atom #0
    Fragment Input file: /n/netscratch/joonholee_lab/Lab/hieudinh//si_2_ccpvqz_omega_0.6_666.scratch20250909031351/autosad_frgmt_0/frgmt_input.in
    Fragment Output file: /n/netscratch/joonholee_lab/Lab/hieudinh//si_2_ccpvqz_omega_0.6_666.scratch20250909031351/autosad_frgmt_0/frgmt_job.out
    Fragment job begins at Tue Sep  9 03:13:58 2025

 Integrated density by DFT XC:
   Numerical integral  =    13.999999643759
   Relative error      =     0.0000025446 %
Final energy components:
 DFT Correlation            Energy =  -0.48370207231610
 DFT Exchange               Energy = -20.13940840112208
 Kinetic (alpha)            Energy = 145.05483363964717
 Kinetic (beta)             Energy = 143.11842945473256
 Nuclear Attraction (alpha) Energy = -351.06191315317795
 Nuclear Attraction (beta)  Energy = -337.54515075030372
 Nuclear Repulsion          Energy =   0.00000000000000
 SEOQF                      Energy =  -0.00000000010144
 Total Coulomb              Energy = 131.82731983024382
----------------------------------------------
    SCF Energy: -289.2295914524
   Total fragment job time:  0.56 s.
restoring fragment data

 ------------------------------------------------------------------------
 Allocate 149872608 B from available memory: 1048527613408 B
 Time for generating SCF guess: 0.63 s

 Allocate 97424 B from available memory: 1048377740800 B
 Selected algorithms for each term:
  kpts_kinetic -> @0x14e8a4ab6680
  kpts_nn -> @0x14e8a4ab6800
  kpts_rij_bigmem -> @0x14e8a4ab63e0
  kpts_vnuc_df -> @0x14e8a4ab6380
  kpts_xc -> @0x14e8a4ab62c0
 Time for computing kinetic matrix is 3.69 s
Start calculating Vnuc DD type!
Start calculating Vnuc CD type!
Start calculating Vnuc CC type!
 Time for computing nuclear attraction matrix is 8.28 s
Compute (P|Q) and use solve on the fly!
Maximum distance between P and Q is 29.79462221820766
Number of images for (P|Qn) is 911
 Time for computing 2e2c SR integral is 0.13 s
Maximum dynamic memory per thread for 2e3c SR integrals: 0.117 GiB
Batch size for basis function pair is 2392 out of 2392
 === bvk cell = 0 has 100.000 % of the basis function pairs === 
 === bvk cell = 1 has 100.000 % of the basis function pairs === 
 === bvk cell = 2 has 83.403 % of the basis function pairs === 
 === bvk cell = 3 has 31.187 % of the basis function pairs === 
 === bvk cell = 4 has 83.403 % of the basis function pairs === 
 === bvk cell = 5 has 100.000 % of the basis function pairs === 
 === bvk cell = 6 has 100.000 % of the basis function pairs === 
 === bvk cell = 7 has 90.552 % of the basis function pairs === 
 === bvk cell = 8 has 40.008 % of the basis function pairs === 
 === bvk cell = 9 has 37.207 % of the basis function pairs === 
 === bvk cell = 10 has 97.617 % of the basis function pairs === 
 === bvk cell = 11 has 100.000 % of the basis function pairs === 
 === bvk cell = 12 has 83.403 % of the basis function pairs === 
 === bvk cell = 13 has 40.008 % of the basis function pairs === 
 === bvk cell = 14 has 9.699 % of the basis function pairs === 
 === bvk cell = 15 has 32.232 % of the basis function pairs === 
 === bvk cell = 16 has 94.482 % of the basis function pairs === 
 === bvk cell = 17 has 97.617 % of the basis function pairs === 
 === bvk cell = 18 has 31.187 % of the basis function pairs === 
 === bvk cell = 19 has 37.207 % of the basis function pairs === 
 === bvk cell = 20 has 32.232 % of the basis function pairs === 
 === bvk cell = 21 has 25.418 % of the basis function pairs === 
 === bvk cell = 22 has 32.232 % of the basis function pairs === 
 === bvk cell = 23 has 37.207 % of the basis function pairs === 
 === bvk cell = 24 has 83.403 % of the basis function pairs === 
 === bvk cell = 25 has 97.617 % of the basis function pairs === 
 === bvk cell = 26 has 94.482 % of the basis function pairs === 
 === bvk cell = 27 has 32.232 % of the basis function pairs === 
 === bvk cell = 28 has 9.699 % of the basis function pairs === 
 === bvk cell = 29 has 40.008 % of the basis function pairs === 
 === bvk cell = 30 has 100.000 % of the basis function pairs === 
 === bvk cell = 31 has 100.000 % of the basis function pairs === 
 === bvk cell = 32 has 97.617 % of the basis function pairs === 
 === bvk cell = 33 has 37.207 % of the basis function pairs === 
 === bvk cell = 34 has 40.008 % of the basis function pairs === 
 === bvk cell = 35 has 90.552 % of the basis function pairs === 
 === bvk cell = 36 has 100.000 % of the basis function pairs === 
 === bvk cell = 37 has 90.552 % of the basis function pairs === 
 === bvk cell = 38 has 40.008 % of the basis function pairs === 
 === bvk cell = 39 has 37.207 % of the basis function pairs === 
 === bvk cell = 40 has 97.617 % of the basis function pairs === 
 === bvk cell = 41 has 100.000 % of the basis function pairs === 
 === bvk cell = 42 has 90.552 % of the basis function pairs === 
 === bvk cell = 43 has 51.672 % of the basis function pairs === 
 === bvk cell = 44 has 13.963 % of the basis function pairs === 
 === bvk cell = 45 has 43.645 % of the basis function pairs === 
 === bvk cell = 46 has 100.000 % of the basis function pairs === 
 === bvk cell = 47 has 100.000 % of the basis function pairs === 
 === bvk cell = 48 has 40.008 % of the basis function pairs === 
 === bvk cell = 49 has 13.963 % of the basis function pairs === 
 === bvk cell = 50 has 2.007 % of the basis function pairs === 
 === bvk cell = 51 has 30.769 % of the basis function pairs === 
 === bvk cell = 52 has 67.642 % of the basis function pairs === 
 === bvk cell = 53 has 68.562 % of the basis function pairs === 
 === bvk cell = 54 has 37.207 % of the basis function pairs === 
 === bvk cell = 55 has 43.645 % of the basis function pairs === 
 === bvk cell = 56 has 30.769 % of the basis function pairs === 
 === bvk cell = 57 has 17.809 % of the basis function pairs === 
 === bvk cell = 58 has 20.569 % of the basis function pairs === 
 === bvk cell = 59 has 26.923 % of the basis function pairs === 
 === bvk cell = 60 has 97.617 % of the basis function pairs === 
 === bvk cell = 61 has 100.000 % of the basis function pairs === 
 === bvk cell = 62 has 67.642 % of the basis function pairs === 
 === bvk cell = 63 has 20.569 % of the basis function pairs === 
 === bvk cell = 64 has 22.032 % of the basis function pairs === 
 === bvk cell = 65 has 68.562 % of the basis function pairs === 
 === bvk cell = 66 has 100.000 % of the basis function pairs === 
 === bvk cell = 67 has 100.000 % of the basis function pairs === 
 === bvk cell = 68 has 68.562 % of the basis function pairs === 
 === bvk cell = 69 has 26.923 % of the basis function pairs === 
 === bvk cell = 70 has 68.562 % of the basis function pairs === 
 === bvk cell = 71 has 100.000 % of the basis function pairs === 
 === bvk cell = 72 has 83.403 % of the basis function pairs === 
 === bvk cell = 73 has 40.008 % of the basis function pairs === 
 === bvk cell = 74 has 9.699 % of the basis function pairs === 
 === bvk cell = 75 has 32.232 % of the basis function pairs === 
 === bvk cell = 76 has 94.482 % of the basis function pairs === 
 === bvk cell = 77 has 97.617 % of the basis function pairs === 
 === bvk cell = 78 has 40.008 % of the basis function pairs === 
 === bvk cell = 79 has 13.963 % of the basis function pairs === 
 === bvk cell = 80 has 2.007 % of the basis function pairs === 
 === bvk cell = 81 has 30.769 % of the basis function pairs === 
 === bvk cell = 82 has 67.642 % of the basis function pairs === 
 === bvk cell = 83 has 68.562 % of the basis function pairs === 
 === bvk cell = 84 has 9.699 % of the basis function pairs === 
 === bvk cell = 85 has 2.007 % of the basis function pairs === 
 === bvk cell = 86 has 0.000 % of the basis function pairs === 
 === bvk cell = 87 has 22.575 % of the basis function pairs === 
 === bvk cell = 88 has 26.547 % of the basis function pairs === 
 === bvk cell = 89 has 22.032 % of the basis function pairs === 
 === bvk cell = 90 has 32.232 % of the basis function pairs === 
 === bvk cell = 91 has 30.769 % of the basis function pairs === 
 === bvk cell = 92 has 22.575 % of the basis function pairs === 
 === bvk cell = 93 has 0.000 % of the basis function pairs === 
 === bvk cell = 94 has 4.013 % of the basis function pairs === 
 === bvk cell = 95 has 20.569 % of the basis function pairs === 
 === bvk cell = 96 has 94.482 % of the basis function pairs === 
 === bvk cell = 97 has 67.642 % of the basis function pairs === 
 === bvk cell = 98 has 26.547 % of the basis function pairs === 
 === bvk cell = 99 has 4.013 % of the basis function pairs === 
 === bvk cell = 100 has 26.547 % of the basis function pairs === 
 === bvk cell = 101 has 67.642 % of the basis function pairs === 
 === bvk cell = 102 has 97.617 % of the basis function pairs === 
 === bvk cell = 103 has 68.562 % of the basis function pairs === 
 === bvk cell = 104 has 22.032 % of the basis function pairs === 
 === bvk cell = 105 has 20.569 % of the basis function pairs === 
 === bvk cell = 106 has 67.642 % of the basis function pairs === 
 === bvk cell = 107 has 100.000 % of the basis function pairs === 
 === bvk cell = 108 has 31.187 % of the basis function pairs === 
 === bvk cell = 109 has 37.207 % of the basis function pairs === 
 === bvk cell = 110 has 32.232 % of the basis function pairs === 
 === bvk cell = 111 has 25.418 % of the basis function pairs === 
 === bvk cell = 112 has 32.232 % of the basis function pairs === 
 === bvk cell = 113 has 37.207 % of the basis function pairs === 
 === bvk cell = 114 has 37.207 % of the basis function pairs === 
 === bvk cell = 115 has 43.645 % of the basis function pairs === 
 === bvk cell = 116 has 30.769 % of the basis function pairs === 
 === bvk cell = 117 has 17.809 % of the basis function pairs === 
 === bvk cell = 118 has 20.569 % of the basis function pairs === 
 === bvk cell = 119 has 26.923 % of the basis function pairs === 
 === bvk cell = 120 has 32.232 % of the basis function pairs === 
 === bvk cell = 121 has 30.769 % of the basis function pairs === 
 === bvk cell = 122 has 22.575 % of the basis function pairs === 
 === bvk cell = 123 has 0.000 % of the basis function pairs === 
 === bvk cell = 124 has 4.013 % of the basis function pairs === 
 === bvk cell = 125 has 20.569 % of the basis function pairs === 
 === bvk cell = 126 has 25.418 % of the basis function pairs === 
 === bvk cell = 127 has 17.809 % of the basis function pairs === 
 === bvk cell = 128 has 0.000 % of the basis function pairs === 
 === bvk cell = 129 has 0.000 % of the basis function pairs === 
 === bvk cell = 130 has 0.000 % of the basis function pairs === 
 === bvk cell = 131 has 17.809 % of the basis function pairs === 
 === bvk cell = 132 has 32.232 % of the basis function pairs === 
 === bvk cell = 133 has 20.569 % of the basis function pairs === 
 === bvk cell = 134 has 4.013 % of the basis function pairs === 
 === bvk cell = 135 has 0.000 % of the basis function pairs === 
 === bvk cell = 136 has 22.575 % of the basis function pairs === 
 === bvk cell = 137 has 30.769 % of the basis function pairs === 
 === bvk cell = 138 has 37.207 % of the basis function pairs === 
 === bvk cell = 139 has 26.923 % of the basis function pairs === 
 === bvk cell = 140 has 20.569 % of the basis function pairs === 
 === bvk cell = 141 has 17.809 % of the basis function pairs === 
 === bvk cell = 142 has 30.769 % of the basis function pairs === 
 === bvk cell = 143 has 43.645 % of the basis function pairs === 
 === bvk cell = 144 has 83.403 % of the basis function pairs === 
 === bvk cell = 145 has 97.617 % of the basis function pairs === 
 === bvk cell = 146 has 94.482 % of the basis function pairs === 
 === bvk cell = 147 has 32.232 % of the basis function pairs === 
 === bvk cell = 148 has 9.699 % of the basis function pairs === 
 === bvk cell = 149 has 40.008 % of the basis function pairs === 
 === bvk cell = 150 has 97.617 % of the basis function pairs === 
 === bvk cell = 151 has 100.000 % of the basis function pairs === 
 === bvk cell = 152 has 67.642 % of the basis function pairs === 
 === bvk cell = 153 has 20.569 % of the basis function pairs === 
 === bvk cell = 154 has 22.032 % of the basis function pairs === 
 === bvk cell = 155 has 68.562 % of the basis function pairs === 
 === bvk cell = 156 has 94.482 % of the basis function pairs === 
 === bvk cell = 157 has 67.642 % of the basis function pairs === 
 === bvk cell = 158 has 26.547 % of the basis function pairs === 
 === bvk cell = 159 has 4.013 % of the basis function pairs === 
 === bvk cell = 160 has 26.547 % of the basis function pairs === 
 === bvk cell = 161 has 67.642 % of the basis function pairs === 
 === bvk cell = 162 has 32.232 % of the basis function pairs === 
 === bvk cell = 163 has 20.569 % of the basis function pairs === 
 === bvk cell = 164 has 4.013 % of the basis function pairs === 
 === bvk cell = 165 has 0.000 % of the basis function pairs === 
 === bvk cell = 166 has 22.575 % of the basis function pairs === 
 === bvk cell = 167 has 30.769 % of the basis function pairs === 
 === bvk cell = 168 has 9.699 % of the basis function pairs === 
 === bvk cell = 169 has 22.032 % of the basis function pairs === 
 === bvk cell = 170 has 26.547 % of the basis function pairs === 
 === bvk cell = 171 has 22.575 % of the basis function pairs === 
 === bvk cell = 172 has 0.000 % of the basis function pairs === 
 === bvk cell = 173 has 2.007 % of the basis function pairs === 
 === bvk cell = 174 has 40.008 % of the basis function pairs === 
 === bvk cell = 175 has 68.562 % of the basis function pairs === 
 === bvk cell = 176 has 67.642 % of the basis function pairs === 
 === bvk cell = 177 has 30.769 % of the basis function pairs === 
 === bvk cell = 178 has 2.007 % of the basis function pairs === 
 === bvk cell = 179 has 13.963 % of the basis function pairs === 
 === bvk cell = 180 has 100.000 % of the basis function pairs === 
 === bvk cell = 181 has 100.000 % of the basis function pairs === 
 === bvk cell = 182 has 97.617 % of the basis function pairs === 
 === bvk cell = 183 has 37.207 % of the basis function pairs === 
 === bvk cell = 184 has 40.008 % of the basis function pairs === 
 === bvk cell = 185 has 90.552 % of the basis function pairs === 
 === bvk cell = 186 has 100.000 % of the basis function pairs === 
 === bvk cell = 187 has 100.000 % of the basis function pairs === 
 === bvk cell = 188 has 68.562 % of the basis function pairs === 
 === bvk cell = 189 has 26.923 % of the basis function pairs === 
 === bvk cell = 190 has 68.562 % of the basis function pairs === 
 === bvk cell = 191 has 100.000 % of the basis function pairs === 
 === bvk cell = 192 has 97.617 % of the basis function pairs === 
 === bvk cell = 193 has 68.562 % of the basis function pairs === 
 === bvk cell = 194 has 22.032 % of the basis function pairs === 
 === bvk cell = 195 has 20.569 % of the basis function pairs === 
 === bvk cell = 196 has 67.642 % of the basis function pairs === 
 === bvk cell = 197 has 100.000 % of the basis function pairs === 
 === bvk cell = 198 has 37.207 % of the basis function pairs === 
 === bvk cell = 199 has 26.923 % of the basis function pairs === 
 === bvk cell = 200 has 20.569 % of the basis function pairs === 
 === bvk cell = 201 has 17.809 % of the basis function pairs === 
 === bvk cell = 202 has 30.769 % of the basis function pairs === 
 === bvk cell = 203 has 43.645 % of the basis function pairs === 
 === bvk cell = 204 has 40.008 % of the basis function pairs === 
 === bvk cell = 205 has 68.562 % of the basis function pairs === 
 === bvk cell = 206 has 67.642 % of the basis function pairs === 
 === bvk cell = 207 has 30.769 % of the basis function pairs === 
 === bvk cell = 208 has 2.007 % of the basis function pairs === 
 === bvk cell = 209 has 13.963 % of the basis function pairs === 
 === bvk cell = 210 has 90.552 % of the basis function pairs === 
 === bvk cell = 211 has 100.000 % of the basis function pairs === 
 === bvk cell = 212 has 100.000 % of the basis function pairs === 
 === bvk cell = 213 has 43.645 % of the basis function pairs === 
 === bvk cell = 214 has 13.963 % of the basis function pairs === 
 === bvk cell = 215 has 51.672 % of the basis function pairs === 
Static memory requirement for 2e3c SR integrals: 0.541 GB
There are 1 munu batches for computing 2e3c SR integrals with latsum
There are 5 Q batches for computing 2e3c SR integrals with latsum
 Time for computing 2e3c SR integral (CD) is 2.98 s
Maximum dynamic memory per thread for 2e3c SR integrals: 0.052 GiB
Batch size for basis function pair is 4516 out of 4516
 === bvk cell = 0 has 100.000 % of the basis function pairs === 
 === bvk cell = 1 has 89.393 % of the basis function pairs === 
 === bvk cell = 2 has 17.626 % of the basis function pairs === 
 === bvk cell = 3 has 0.000 % of the basis function pairs === 
 === bvk cell = 4 has 12.489 % of the basis function pairs === 
 === bvk cell = 5 has 84.035 % of the basis function pairs === 
 === bvk cell = 6 has 89.393 % of the basis function pairs === 
 === bvk cell = 7 has 39.925 % of the basis function pairs === 
 === bvk cell = 8 has 1.085 % of the basis function pairs === 
 === bvk cell = 9 has 0.000 % of the basis function pairs === 
 === bvk cell = 10 has 23.494 % of the basis function pairs === 
 === bvk cell = 11 has 95.018 % of the basis function pairs === 
 === bvk cell = 12 has 17.626 % of the basis function pairs === 
 === bvk cell = 13 has 1.085 % of the basis function pairs === 
 === bvk cell = 14 has 0.000 % of the basis function pairs === 
 === bvk cell = 15 has 0.000 % of the basis function pairs === 
 === bvk cell = 16 has 4.805 % of the basis function pairs === 
 === bvk cell = 17 has 27.547 % of the basis function pairs === 
 === bvk cell = 18 has 0.000 % of the basis function pairs === 
 === bvk cell = 19 has 0.000 % of the basis function pairs === 
 === bvk cell = 20 has 0.000 % of the basis function pairs === 
 === bvk cell = 21 has 0.000 % of the basis function pairs === 
 === bvk cell = 22 has 0.000 % of the basis function pairs === 
 === bvk cell = 23 has 0.000 % of the basis function pairs === 
 === bvk cell = 24 has 12.489 % of the basis function pairs === 
 === bvk cell = 25 has 23.494 % of the basis function pairs === 
 === bvk cell = 26 has 4.805 % of the basis function pairs === 
 === bvk cell = 27 has 0.000 % of the basis function pairs === 
 === bvk cell = 28 has 0.000 % of the basis function pairs === 
 === bvk cell = 29 has 0.000 % of the basis function pairs === 
 === bvk cell = 30 has 84.035 % of the basis function pairs === 
 === bvk cell = 31 has 95.018 % of the basis function pairs === 
 === bvk cell = 32 has 27.547 % of the basis function pairs === 
 === bvk cell = 33 has 0.000 % of the basis function pairs === 
 === bvk cell = 34 has 0.000 % of the basis function pairs === 
 === bvk cell = 35 has 30.425 % of the basis function pairs === 
 === bvk cell = 36 has 89.393 % of the basis function pairs === 
 === bvk cell = 37 has 39.925 % of the basis function pairs === 
 === bvk cell = 38 has 1.085 % of the basis function pairs === 
 === bvk cell = 39 has 0.000 % of the basis function pairs === 
 === bvk cell = 40 has 23.494 % of the basis function pairs === 
 === bvk cell = 41 has 95.018 % of the basis function pairs === 
 === bvk cell = 42 has 39.925 % of the basis function pairs === 
 === bvk cell = 43 has 6.709 % of the basis function pairs === 
 === bvk cell = 44 has 0.000 % of the basis function pairs === 
 === bvk cell = 45 has 0.000 % of the basis function pairs === 
 === bvk cell = 46 has 23.251 % of the basis function pairs === 
 === bvk cell = 47 has 67.316 % of the basis function pairs === 
 === bvk cell = 48 has 1.085 % of the basis function pairs === 
 === bvk cell = 49 has 0.000 % of the basis function pairs === 
 === bvk cell = 50 has 0.000 % of the basis function pairs === 
 === bvk cell = 51 has 0.000 % of the basis function pairs === 
 === bvk cell = 52 has 1.085 % of the basis function pairs === 
 === bvk cell = 53 has 6.709 % of the basis function pairs === 
 === bvk cell = 54 has 0.000 % of the basis function pairs === 
 === bvk cell = 55 has 0.000 % of the basis function pairs === 
 === bvk cell = 56 has 0.000 % of the basis function pairs === 
 === bvk cell = 57 has 0.000 % of the basis function pairs === 
 === bvk cell = 58 has 0.000 % of the basis function pairs === 
 === bvk cell = 59 has 0.000 % of the basis function pairs === 
 === bvk cell = 60 has 23.494 % of the basis function pairs === 
 === bvk cell = 61 has 23.251 % of the basis function pairs === 
 === bvk cell = 62 has 1.085 % of the basis function pairs === 
 === bvk cell = 63 has 0.000 % of the basis function pairs === 
 === bvk cell = 64 has 0.000 % of the basis function pairs === 
 === bvk cell = 65 has 2.901 % of the basis function pairs === 
 === bvk cell = 66 has 95.018 % of the basis function pairs === 
 === bvk cell = 67 has 67.316 % of the basis function pairs === 
 === bvk cell = 68 has 6.709 % of the basis function pairs === 
 === bvk cell = 69 has 0.000 % of the basis function pairs === 
 === bvk cell = 70 has 2.901 % of the basis function pairs === 
 === bvk cell = 71 has 61.625 % of the basis function pairs === 
 === bvk cell = 72 has 17.626 % of the basis function pairs === 
 === bvk cell = 73 has 1.085 % of the basis function pairs === 
 === bvk cell = 74 has 0.000 % of the basis function pairs === 
 === bvk cell = 75 has 0.000 % of the basis function pairs === 
 === bvk cell = 76 has 4.805 % of the basis function pairs === 
 === bvk cell = 77 has 27.547 % of the basis function pairs === 
 === bvk cell = 78 has 1.085 % of the basis function pairs === 
 === bvk cell = 79 has 0.000 % of the basis function pairs === 
 === bvk cell = 80 has 0.000 % of the basis function pairs === 
 === bvk cell = 81 has 0.000 % of the basis function pairs === 
 === bvk cell = 82 has 1.085 % of the basis function pairs === 
 === bvk cell = 83 has 6.709 % of the basis function pairs === 
 === bvk cell = 84 has 0.000 % of the basis function pairs === 
 === bvk cell = 85 has 0.000 % of the basis function pairs === 
 === bvk cell = 86 has 0.000 % of the basis function pairs === 
 === bvk cell = 87 has 0.000 % of the basis function pairs === 
 === bvk cell = 88 has 0.000 % of the basis function pairs === 
 === bvk cell = 89 has 0.000 % of the basis function pairs === 
 === bvk cell = 90 has 0.000 % of the basis function pairs === 
 === bvk cell = 91 has 0.000 % of the basis function pairs === 
 === bvk cell = 92 has 0.000 % of the basis function pairs === 
 === bvk cell = 93 has 0.000 % of the basis function pairs === 
 === bvk cell = 94 has 0.000 % of the basis function pairs === 
 === bvk cell = 95 has 0.000 % of the basis function pairs === 
 === bvk cell = 96 has 4.805 % of the basis function pairs === 
 === bvk cell = 97 has 1.085 % of the basis function pairs === 
 === bvk cell = 98 has 0.000 % of the basis function pairs === 
 === bvk cell = 99 has 0.000 % of the basis function pairs === 
 === bvk cell = 100 has 0.000 % of the basis function pairs === 
 === bvk cell = 101 has 0.000 % of the basis function pairs === 
 === bvk cell = 102 has 27.547 % of the basis function pairs === 
 === bvk cell = 103 has 6.709 % of the basis function pairs === 
 === bvk cell = 104 has 0.000 % of the basis function pairs === 
 === bvk cell = 105 has 0.000 % of the basis function pairs === 
 === bvk cell = 106 has 0.000 % of the basis function pairs === 
 === bvk cell = 107 has 23.251 % of the basis function pairs === 
 === bvk cell = 108 has 0.000 % of the basis function pairs === 
 === bvk cell = 109 has 0.000 % of the basis function pairs === 
 === bvk cell = 110 has 0.000 % of the basis function pairs === 
 === bvk cell = 111 has 0.000 % of the basis function pairs === 
 === bvk cell = 112 has 0.000 % of the basis function pairs === 
 === bvk cell = 113 has 0.000 % of the basis function pairs === 
 === bvk cell = 114 has 0.000 % of the basis function pairs === 
 === bvk cell = 115 has 0.000 % of the basis function pairs === 
 === bvk cell = 116 has 0.000 % of the basis function pairs === 
 === bvk cell = 117 has 0.000 % of the basis function pairs === 
 === bvk cell = 118 has 0.000 % of the basis function pairs === 
 === bvk cell = 119 has 0.000 % of the basis function pairs === 
 === bvk cell = 120 has 0.000 % of the basis function pairs === 
 === bvk cell = 121 has 0.000 % of the basis function pairs === 
 === bvk cell = 122 has 0.000 % of the basis function pairs === 
 === bvk cell = 123 has 0.000 % of the basis function pairs === 
 === bvk cell = 124 has 0.000 % of the basis function pairs === 
 === bvk cell = 125 has 0.000 % of the basis function pairs === 
 === bvk cell = 126 has 0.000 % of the basis function pairs === 
 === bvk cell = 127 has 0.000 % of the basis function pairs === 
 === bvk cell = 128 has 0.000 % of the basis function pairs === 
 === bvk cell = 129 has 0.000 % of the basis function pairs === 
 === bvk cell = 130 has 0.000 % of the basis function pairs === 
 === bvk cell = 131 has 0.000 % of the basis function pairs === 
 === bvk cell = 132 has 0.000 % of the basis function pairs === 
 === bvk cell = 133 has 0.000 % of the basis function pairs === 
 === bvk cell = 134 has 0.000 % of the basis function pairs === 
 === bvk cell = 135 has 0.000 % of the basis function pairs === 
 === bvk cell = 136 has 0.000 % of the basis function pairs === 
 === bvk cell = 137 has 0.000 % of the basis function pairs === 
 === bvk cell = 138 has 0.000 % of the basis function pairs === 
 === bvk cell = 139 has 0.000 % of the basis function pairs === 
 === bvk cell = 140 has 0.000 % of the basis function pairs === 
 === bvk cell = 141 has 0.000 % of the basis function pairs === 
 === bvk cell = 142 has 0.000 % of the basis function pairs === 
 === bvk cell = 143 has 0.000 % of the basis function pairs === 
 === bvk cell = 144 has 12.489 % of the basis function pairs === 
 === bvk cell = 145 has 23.494 % of the basis function pairs === 
 === bvk cell = 146 has 4.805 % of the basis function pairs === 
 === bvk cell = 147 has 0.000 % of the basis function pairs === 
 === bvk cell = 148 has 0.000 % of the basis function pairs === 
 === bvk cell = 149 has 0.000 % of the basis function pairs === 
 === bvk cell = 150 has 23.494 % of the basis function pairs === 
 === bvk cell = 151 has 23.251 % of the basis function pairs === 
 === bvk cell = 152 has 1.085 % of the basis function pairs === 
 === bvk cell = 153 has 0.000 % of the basis function pairs === 
 === bvk cell = 154 has 0.000 % of the basis function pairs === 
 === bvk cell = 155 has 2.901 % of the basis function pairs === 
 === bvk cell = 156 has 4.805 % of the basis function pairs === 
 === bvk cell = 157 has 1.085 % of the basis function pairs === 
 === bvk cell = 158 has 0.000 % of the basis function pairs === 
 === bvk cell = 159 has 0.000 % of the basis function pairs === 
 === bvk cell = 160 has 0.000 % of the basis function pairs === 
 === bvk cell = 161 has 0.000 % of the basis function pairs === 
 === bvk cell = 162 has 0.000 % of the basis function pairs === 
 === bvk cell = 163 has 0.000 % of the basis function pairs === 
 === bvk cell = 164 has 0.000 % of the basis function pairs === 
 === bvk cell = 165 has 0.000 % of the basis function pairs === 
 === bvk cell = 166 has 0.000 % of the basis function pairs === 
 === bvk cell = 167 has 0.000 % of the basis function pairs === 
 === bvk cell = 168 has 0.000 % of the basis function pairs === 
 === bvk cell = 169 has 0.000 % of the basis function pairs === 
 === bvk cell = 170 has 0.000 % of the basis function pairs === 
 === bvk cell = 171 has 0.000 % of the basis function pairs === 
 === bvk cell = 172 has 0.000 % of the basis function pairs === 
 === bvk cell = 173 has 0.000 % of the basis function pairs === 
 === bvk cell = 174 has 0.000 % of the basis function pairs === 
 === bvk cell = 175 has 2.901 % of the basis function pairs === 
 === bvk cell = 176 has 0.000 % of the basis function pairs === 
 === bvk cell = 177 has 0.000 % of the basis function pairs === 
 === bvk cell = 178 has 0.000 % of the basis function pairs === 
 === bvk cell = 179 has 0.000 % of the basis function pairs === 
 === bvk cell = 180 has 84.035 % of the basis function pairs === 
 === bvk cell = 181 has 95.018 % of the basis function pairs === 
 === bvk cell = 182 has 27.547 % of the basis function pairs === 
 === bvk cell = 183 has 0.000 % of the basis function pairs === 
 === bvk cell = 184 has 0.000 % of the basis function pairs === 
 === bvk cell = 185 has 30.425 % of the basis function pairs === 
 === bvk cell = 186 has 95.018 % of the basis function pairs === 
 === bvk cell = 187 has 67.316 % of the basis function pairs === 
 === bvk cell = 188 has 6.709 % of the basis function pairs === 
 === bvk cell = 189 has 0.000 % of the basis function pairs === 
 === bvk cell = 190 has 2.901 % of the basis function pairs === 
 === bvk cell = 191 has 61.625 % of the basis function pairs === 
 === bvk cell = 192 has 27.547 % of the basis function pairs === 
 === bvk cell = 193 has 6.709 % of the basis function pairs === 
 === bvk cell = 194 has 0.000 % of the basis function pairs === 
 === bvk cell = 195 has 0.000 % of the basis function pairs === 
 === bvk cell = 196 has 0.000 % of the basis function pairs === 
 === bvk cell = 197 has 23.251 % of the basis function pairs === 
 === bvk cell = 198 has 0.000 % of the basis function pairs === 
 === bvk cell = 199 has 0.000 % of the basis function pairs === 
 === bvk cell = 200 has 0.000 % of the basis function pairs === 
 === bvk cell = 201 has 0.000 % of the basis function pairs === 
 === bvk cell = 202 has 0.000 % of the basis function pairs === 
 === bvk cell = 203 has 0.000 % of the basis function pairs === 
 === bvk cell = 204 has 0.000 % of the basis function pairs === 
 === bvk cell = 205 has 2.901 % of the basis function pairs === 
 === bvk cell = 206 has 0.000 % of the basis function pairs === 
 === bvk cell = 207 has 0.000 % of the basis function pairs === 
 === bvk cell = 208 has 0.000 % of the basis function pairs === 
 === bvk cell = 209 has 0.000 % of the basis function pairs === 
 === bvk cell = 210 has 30.425 % of the basis function pairs === 
 === bvk cell = 211 has 61.625 % of the basis function pairs === 
 === bvk cell = 212 has 23.251 % of the basis function pairs === 
 === bvk cell = 213 has 0.000 % of the basis function pairs === 
 === bvk cell = 214 has 0.000 % of the basis function pairs === 
 === bvk cell = 215 has 2.901 % of the basis function pairs === 
Static memory requirement for 2e3c SR integrals: 0.242 GB
There are 1 munu batches for computing 2e3c SR integrals with latsum
There are 5 Q batches for computing 2e3c SR integrals with latsum
 Time for computing 2e3c SR integral (CC) is 1.44 s
 Time for RI-J this SCF iteration is 5.70 s
 Time for RI-J this SCF iteration is 1.50 s
 ----------------------------------------------
 Guess energy: -578.7876729687
 ----------------------------------------------
 Guess energy components:
 DFT Correlation    Energy =  -1.09266497594560
 DFT Exchange       Energy = -40.56288665993353
 Kinetic            Energy = 577.40487312910591
 Nuclear Attraction Energy = -1186.11486677582161
 Nuclear Repulsion  Energy = -102.89365928466421
 Total Coulomb      Energy = 174.47153159858939
 ----------------------------------------------
  Cycle       Energy         DIIS error
 ----------------------------------------------
 Time for RI-J this SCF iteration is 1.22 s
    1    -578.7927652661      1.04e-03  
 Energy components after cycle 1:
 DFT Correlation    Energy =  -1.09702883813888
 DFT Exchange       Energy = -40.47451374368105
 Kinetic            Energy = 576.58432917065829
 Nuclear Attraction Energy = -1184.33906345631817
 Nuclear Repulsion  Energy = -102.89365928466421
 Total Coulomb      Energy = 173.42717088604195
    2    -578.7927652661      5.62e-04  
 Energy components after cycle 2:
 DFT Correlation    Energy =  -1.09702883813888
 DFT Exchange       Energy = -40.47451374368105
 Kinetic            Energy = 576.58432917065829
 Nuclear Attraction Energy = -1184.33906345631817
 Nuclear Repulsion  Energy = -102.89365928466421
 Total Coulomb      Energy = 173.42717088604195
 ----------------------------------------------
  Cycle       Energy        RMS Gradient
 ----------------------------------------------
 Time for RI-J this SCF iteration is 1.05 s
    1    -578.7938550834      2.12e-02   Descent step
 Energy components after cycle 1:
 DFT Correlation    Energy =  -1.09637275764377
 DFT Exchange       Energy = -40.49681328343786
 Kinetic            Energy = 576.82422056869143
 Nuclear Attraction Energy = -1184.79613689926941
 Nuclear Repulsion  Energy = -102.89365928466421
 Total Coulomb      Energy = 173.66490657289799
 Time for RI-J this SCF iteration is 1.04 s
    2    -578.7938875111      4.79e-03   Normal BFGS step
 Energy components after cycle 2:
 DFT Correlation    Energy =  -1.09596172608902
 DFT Exchange       Energy = -40.50770305607613
 Kinetic            Energy = 576.93406892633823
 Nuclear Attraction Energy = -1185.01634089230652
 Nuclear Repulsion  Energy = -102.89365928466421
 Total Coulomb      Energy = 173.78570852174283
 Time for RI-J this SCF iteration is 1.06 s
    3    -578.7939131158      3.73e-03   Normal BFGS step
 Energy components after cycle 3:
 DFT Correlation    Energy =  -1.09606562648650
 DFT Exchange       Energy = -40.50381588957555
 Kinetic            Energy = 576.89184967192671
 Nuclear Attraction Energy = -1184.93735738471014
 Nuclear Repulsion  Energy = -102.89365928466421
 Total Coulomb      Energy = 173.74513539770390
 Time for RI-J this SCF iteration is 1.05 s
    4    -578.7939132579      2.66e-04   Normal BFGS step
 Energy components after cycle 4:
 DFT Correlation    Energy =  -1.09608684910779
 DFT Exchange       Energy = -40.50370308549749
 Kinetic            Energy = 576.89203063828722
 Nuclear Attraction Energy = -1184.93553251110211
 Nuclear Repulsion  Energy = -102.89365928466421
 Total Coulomb      Energy = 173.74303783414214
 Time for RI-J this SCF iteration is 1.06 s
    5    -578.7939132964      1.30e-04   Normal BFGS step
 Energy components after cycle 5:
 DFT Correlation    Energy =  -1.09608130819646
 DFT Exchange       Energy = -40.50380491686754
 Kinetic            Energy = 576.89292364274911
 Nuclear Attraction Energy = -1184.93754285325554
 Nuclear Repulsion  Energy = -102.89365928466421
 Total Coulomb      Energy = 173.74425142382552
 Time for RI-J this SCF iteration is 1.06 s
    6    -578.7939132967      1.02e-05   Normal BFGS step
 Energy components after cycle 6:
 DFT Correlation    Energy =  -1.09608059581066
 DFT Exchange       Energy = -40.50378395453325
 Kinetic            Energy = 576.89259803686343
 Nuclear Attraction Energy = -1184.93708617979087
 Nuclear Repulsion  Energy = -102.89365928466421
 Total Coulomb      Energy = 173.74409868124096
 Time for RI-J this SCF iteration is 1.02 s
    7    -578.7939132967      3.60e-06   Normal BFGS step
 Energy components after cycle 7:
 DFT Correlation    Energy =  -1.09608082152806
 DFT Exchange       Energy = -40.50378798956500
 Kinetic            Energy = 576.89266773694760
 Nuclear Attraction Energy = -1184.93717692169366
 Nuclear Repulsion  Energy = -102.89365928466421
 Total Coulomb      Energy = 173.74412398376629
    7    -578.7939132967      3.60e-06  Convergence criterion met
 ----------------------------------------------
 Final energy components:
 DFT Correlation    Energy =  -1.09608082152806
 DFT Exchange       Energy = -40.50378798956500
 Kinetic            Energy = 576.89266773694760
 Nuclear Attraction Energy = -1184.93717692169366
 Nuclear Repulsion  Energy = -102.89365928466421
 Total Coulomb      Energy = 173.74412398376629
 ----------------------------------------------
 Final energy is -578.7939132967

 SCF time:   CPU 3808.58s  wall 222.00s 
 Total wall time for computing Kinetic: 0.07 s (10)
 Total wall time for computing RIJ-BIGMEM: 15.77 s (10)
 Total wall time for computing RSDF Vnuc: 0.17 s (10)
 Total wall time for computing DFT XC: 171.55 s (10)
 ---------------------------------------------------------------------------
                        Orbital Energies (a.u.)
 ---------------------------------------------------------------------------
 == 0-th k-point (-0.20411,-0.20411,-0.20411) occupation: 14==
 -65.00520 -65.00519 -4.62743 -4.62724 -3.03921 -3.03921 -3.03913 -3.03864 -3.03855 -3.03855
 -0.11319 0.07926 0.23826 0.23826 0.34186 0.40598 0.40598 0.56396 0.57420 0.57420
 0.61106 0.77520 0.82191 0.82191 0.90265 0.93104 0.93104 1.09538 1.18427 1.18427
 1.21792 1.27557 1.27557 1.37331 1.37331 1.39506 1.41375 1.50577 1.50577 1.54860
 1.54860 1.64242 1.68250 1.73023 1.78371 1.78371 1.86556 1.86556 1.90027 1.93007
 1.97190 1.97190 2.07773 2.14326 2.14326 2.25958 2.25958 2.28191 2.28191 2.31199
 2.50089 2.50089 2.53354 2.59424 2.66022 2.67608 2.67608 2.72723 2.76660 2.76660
 2.85729 2.91592 2.91592 2.92495 2.96782 2.96782 3.07445 3.08712 3.08712 3.15489
 3.15489 3.23168 3.32414 3.34685 3.34685 3.47390 3.47390 3.51799 3.51799 3.52088
 3.53233 3.67473 3.67473 3.67845 3.79822 3.83078 3.83078 3.83581 3.90283 3.90283
 4.03377 4.03377 4.12587 4.52421 4.53171 4.53171 7.75883 7.91862 7.91862 9.42732
 9.42732 10.10204 11.90465 14.79265
 == 1-th k-point (-0.10205,-0.10205,-0.30616) occupation: 14==
 -65.00519 -65.00519 -4.62743 -4.62724 -3.03923 -3.03922 -3.03910 -3.03866 -3.03856 -3.03853
 -0.11606 0.11260 0.20191 0.21069 0.34857 0.42648 0.44379 0.46410 0.61395 0.61549
 0.65895 0.74930 0.78903 0.84691 0.86731 0.90527 1.01660 1.04573 1.08867 1.15685
 1.23305 1.26948 1.29937 1.37821 1.38362 1.41208 1.47251 1.48720 1.51455 1.54175
 1.61074 1.64358 1.68572 1.70567 1.75419 1.79577 1.82894 1.88471 1.91035 1.91552
 1.97525 2.01534 2.02656 2.06299 2.12725 2.12828 2.24491 2.29152 2.31058 2.35135
 2.49979 2.51455 2.53772 2.59104 2.60935 2.64630 2.66057 2.72396 2.75420 2.79022
 2.80276 2.86359 2.88306 2.92713 3.02614 3.05337 3.10016 3.14017 3.14459 3.20652
 3.23101 3.26447 3.27979 3.33625 3.36656 3.40809 3.43301 3.45318 3.49469 3.52792
 3.53522 3.54819 3.60739 3.69403 3.76156 3.79077 3.80723 3.87993 3.93900 3.98362
 4.00154 4.07091 4.22994 4.43151 4.56232 4.58555 7.71649 7.83896 8.08944 9.66401
 9.70403 10.03567 12.76096 13.84782
 == 2-th k-point (-0.00000,-0.00000,-0.40822) occupation: 14==
 -65.00519 -65.00519 -4.62740 -4.62726 -3.03924 -3.03924 -3.03903 -3.03871 -3.03855 -3.03855
 -0.09383 0.09186 0.18582 0.18582 0.30284 0.35006 0.54499 0.54500 0.63922 0.64605
 0.75460 0.78062 0.78062 0.83523 0.87813 0.87814 0.88035 0.98675 1.13758 1.19504
 1.22302 1.22303 1.27491 1.31041 1.32600 1.34884 1.34885 1.60173 1.60529 1.60531
 1.62053 1.64892 1.71260 1.71262 1.76791 1.76934 1.76937 1.83836 1.88728 1.90783
 1.98460 1.98505 1.99483 2.15134 2.16847 2.16861 2.19082 2.35897 2.35898 2.37256
 2.41298 2.48794 2.54901 2.54906 2.63279 2.64795 2.64894 2.75279 2.75306 2.79718
 2.85501 2.86749 2.90828 2.90859 2.93344 3.01125 3.06548 3.06601 3.14282 3.24320
 3.24580 3.25139 3.25297 3.37465 3.37759 3.37826 3.43955 3.44489 3.46950 3.46964
 3.55117 3.56798 3.57120 3.68314 3.72322 3.79408 3.86852 3.86874 3.94150 4.14258
 4.16755 4.17075 4.24546 4.38059 4.61758 4.62241 8.03880 8.04262 8.04318 9.05411
 10.88048 10.89753 13.02380 13.34168
 == 3-th k-point (0.10205,0.10205,-0.51027) occupation: 14==
 -65.00519 -65.00519 -4.62737 -4.62730 -3.03926 -3.03925 -3.03896 -3.03878 -3.03852 -3.03851
 -0.05097 0.03463 0.14108 0.18075 0.31549 0.37663 0.55240 0.55275 0.66932 0.67574
 0.73643 0.75176 0.81764 0.86241 0.87238 0.96289 0.97500 0.99871 1.04083 1.12259
 1.13593 1.15666 1.19094 1.27001 1.36542 1.38167 1.46111 1.48570 1.49770 1.56725
 1.62629 1.64050 1.68502 1.71452 1.75848 1.80095 1.82888 1.86644 1.91218 1.95079
 1.98403 2.06860 2.12001 2.15015 2.19623 2.19991 2.22848 2.34292 2.36224 2.37882
 2.44702 2.44975 2.51687 2.52338 2.55615 2.63150 2.67083 2.77085 2.79781 2.81222
 2.82995 2.90543 2.91427 2.95285 2.95390 3.00599 3.02518 3.05134 3.08300 3.14193
 3.22180 3.23202 3.24393 3.31892 3.32498 3.34659 3.36504 3.44296 3.48764 3.50670
 3.56315 3.61535 3.64216 3.66612 3.71355 3.75173 3.85758 3.89713 3.96667 4.04940
 4.13261 4.24790 4.28835 4.32131 4.58501 4.60443 8.11074 8.39742 8.47675 8.70705
 9.76855 10.11799 13.28575 13.63658
 == 4-th k-point (0.20411,0.20411,-0.61232) occupation: 14==
 -65.00520 -65.00519 -4.62737 -4.62730 -3.03927 -3.03924 -3.03898 -3.03877 -3.03851 -3.03848
 -0.04364 0.02699 0.11226 0.19712 0.33416 0.49144 0.51540 0.53783 0.54938 0.56308
 0.80616 0.82610 0.85768 0.86589 0.89474 0.93321 0.96222 1.01726 1.10639 1.11303
 1.12832 1.16377 1.26202 1.27689 1.29816 1.36647 1.37197 1.38103 1.58472 1.59402
 1.59838 1.65618 1.66262 1.67925 1.72771 1.75213 1.83858 1.91462 1.92442 2.05731
 2.07151 2.07732 2.15734 2.18608 2.22226 2.23136 2.23731 2.27179 2.30859 2.38827
 2.45266 2.46142 2.46373 2.49647 2.53274 2.57807 2.61861 2.76660 2.76749 2.84189
 2.88112 2.91272 2.94862 2.95696 3.01194 3.03457 3.04489 3.04556 3.11581 3.19925
 3.20497 3.27167 3.28357 3.32331 3.34129 3.35013 3.40203 3.40494 3.40751 3.45310
 3.47374 3.50037 3.65385 3.66397 3.75264 3.77551 3.80553 3.87236 3.90652 3.93129
 4.01016 4.20223 4.25997 4.26202 4.54211 4.58467 8.05393 8.44064 8.52552 8.80920
 8.89884 9.71536 13.27717 14.26791
 == 5-th k-point (0.30616,0.30616,-0.71438) occupation: 14==
 -65.00520 -65.00519 -4.62740 -4.62726 -3.03924 -3.03923 -3.03907 -3.03869 -3.03853 -3.03851
 -0.08633 0.05467 0.16294 0.22726 0.36701 0.42862 0.43270 0.54498 0.54964 0.62323
 0.69975 0.75153 0.82573 0.85166 0.88248 0.94179 1.02206 1.09883 1.10723 1.13209
 1.19635 1.21231 1.29966 1.30847 1.33482 1.34234 1.37822 1.49688 1.52845 1.54725
 1.56577 1.63961 1.67907 1.69663 1.73116 1.79078 1.82618 1.88010 1.89574 1.98781
 2.07150 2.08674 2.09045 2.16172 2.18251 2.20351 2.28056 2.35537 2.36760 2.38454
 2.44042 2.46193 2.49602 2.55138 2.58758 2.58977 2.67536 2.76926 2.77385 2.81201
 2.81914 2.89409 2.90012 2.93119 2.94115 2.95902 3.03746 3.09901 3.13881 3.14607
 3.16513 3.25237 3.31114 3.33181 3.36558 3.41921 3.43881 3.43884 3.47142 3.50918
 3.57951 3.58251 3.63012 3.66176 3.71839 3.72084 3.78546 3.90137 3.92923 3.94058
 4.08111 4.10902 4.24704 4.34583 4.50379 4.57704 7.89486 8.23970 8.32432 9.13165
 9.31454 9.91403 12.89164 14.44683
 == 6-th k-point (-0.10205,-0.30616,-0.10205) occupation: 14==
 -65.00519 -65.00519 -4.62743 -4.62724 -3.03923 -3.03922 -3.03910 -3.03866 -3.03856 -3.03853
 -0.11606 0.11260 0.20191 0.21069 0.34857 0.42648 0.44379 0.46410 0.61395 0.61549
 0.65895 0.74930 0.78903 0.84691 0.86731 0.90527 1.01660 1.04573 1.08867 1.15685
 1.23305 1.26948 1.29937 1.37821 1.38362 1.41208 1.47251 1.48720 1.51455 1.54175
 1.61074 1.64358 1.68572 1.70567 1.75419 1.79577 1.82894 1.88471 1.91035 1.91552
 1.97525 2.01534 2.02656 2.06299 2.12725 2.12828 2.24491 2.29152 2.31058 2.35135
 2.49979 2.51455 2.53772 2.59104 2.60935 2.64630 2.66057 2.72396 2.75420 2.79022
 2.80276 2.86359 2.88306 2.92713 3.02614 3.05337 3.10016 3.14017 3.14459 3.20652
 3.23101 3.26447 3.27979 3.33625 3.36656 3.40809 3.43301 3.45318 3.49469 3.52792
 3.53522 3.54819 3.60739 3.69403 3.76156 3.79077 3.80723 3.87993 3.93900 3.98362
[...]
 -0.01141 -0.01141 0.16971 0.16971 0.30250 0.30250 0.64813 0.64813 0.68888 0.68888
 0.74450 0.74450 0.75528 0.75528 0.97765 0.97765 1.00289 1.00290 1.02315 1.02315
 1.07002 1.07002 1.23811 1.23811 1.37433 1.37436 1.54481 1.54482 1.58209 1.58209
 1.63112 1.63112 1.69141 1.69141 1.74508 1.74509 1.82771 1.82805 1.85624 1.85624
 2.08079 2.08163 2.09754 2.09760 2.18739 2.18739 2.30503 2.30505 2.43097 2.43101
 2.45562 2.45562 2.50317 2.50317 2.52120 2.52233 2.73728 2.73728 2.77738 2.77752
 2.86762 2.86820 2.98853 2.98854 3.00938 3.00938 3.02689 3.02689 3.08163 3.08176
 3.23378 3.23392 3.25058 3.25075 3.26331 3.26332 3.45250 3.45623 3.49227 3.49228
 3.55777 3.55784 3.64318 3.64318 3.72939 3.72939 3.93628 3.93704 4.06948 4.06948
 4.29098 4.29161 4.35452 4.35453 4.60823 4.61319 8.31803 8.31803 8.62586 8.62595
 9.65738 9.66590 13.41135 13.41135
 == 198-th k-point (-0.40822,0.00000,0.61232) occupation: 14==
 -65.00519 -65.00519 -4.62733 -4.62733 -3.03926 -3.03926 -3.03887 -3.03887 -3.03850 -3.03850
 -0.00692 -0.00692 0.14057 0.14057 0.37776 0.37776 0.52643 0.52643 0.66947 0.66947
 0.75644 0.75644 0.88694 0.88695 0.91713 0.91713 0.97292 0.97292 1.07777 1.07777
 1.14047 1.14047 1.19586 1.19587 1.39415 1.39416 1.43462 1.43464 1.49627 1.49628
 1.66136 1.66137 1.69981 1.69988 1.80107 1.80110 1.86840 1.86841 1.90987 1.90989
 2.04564 2.04566 2.17969 2.17977 2.22290 2.22301 2.28834 2.28854 2.35514 2.35518
 2.45196 2.45202 2.48562 2.48565 2.67150 2.67167 2.73325 2.73357 2.76106 2.76111
 2.86664 2.86668 2.91013 2.91013 2.98880 2.98888 3.05825 3.05846 3.12272 3.12272
 3.23119 3.23144 3.29047 3.29088 3.34647 3.34661 3.40409 3.40434 3.49435 3.49476
 3.58125 3.58128 3.60081 3.60114 3.70587 3.70601 3.85093 3.85103 4.00202 4.00237
 4.15923 4.15953 4.28684 4.28687 4.59059 4.59200 8.36101 8.36104 8.65520 8.65533
 9.73651 9.73958 13.52171 13.52207
 == 199-th k-point (-0.30616,0.10205,0.51027) occupation: 14==
 -65.00520 -65.00519 -4.62737 -4.62730 -3.03926 -3.03925 -3.03898 -3.03878 -3.03851 -3.03849
 -0.04325 0.02420 0.12729 0.17318 0.40013 0.40783 0.50230 0.51688 0.55641 0.69020
 0.71846 0.77269 0.87875 0.90174 0.90975 0.94528 0.96618 1.04177 1.05613 1.08429
 1.13074 1.23159 1.23457 1.23799 1.33704 1.37868 1.41381 1.43617 1.46034 1.50230
 1.55153 1.64401 1.69988 1.76384 1.79471 1.83456 1.87632 1.89680 1.93315 1.97445
 1.99908 2.08621 2.12349 2.15978 2.20492 2.24667 2.28175 2.30284 2.35332 2.37856
 2.43436 2.44418 2.46346 2.50341 2.60198 2.62861 2.71035 2.71284 2.80655 2.83429
 2.86572 2.87575 2.94010 2.95685 2.95786 2.99106 3.03605 3.07083 3.10322 3.16124
 3.23673 3.24210 3.28712 3.28923 3.33595 3.35564 3.40961 3.45828 3.48967 3.50088
 3.54889 3.56766 3.57809 3.62007 3.69440 3.70477 3.83915 3.84823 3.92807 4.00490
 4.02300 4.14129 4.25069 4.25359 4.54039 4.57782 8.26594 8.40967 8.52016 8.80276
 9.26084 9.77426 13.34325 14.25610
 == 200-th k-point (-0.20411,0.20411,0.40822) occupation: 14==
 -65.00520 -65.00519 -4.62739 -4.62727 -3.03925 -3.03923 -3.03906 -3.03870 -3.03854 -3.03850
 -0.07210 0.03253 0.17300 0.20953 0.35177 0.42841 0.44757 0.51364 0.62330 0.66794
 0.71030 0.71603 0.74425 0.87421 0.94531 0.98342 1.02768 1.04608 1.06515 1.12762
 1.16942 1.26873 1.28310 1.28920 1.30374 1.36915 1.41423 1.42417 1.48228 1.54272
 1.56423 1.61763 1.67505 1.68498 1.73763 1.80064 1.87811 1.93006 1.98098 2.03033
 2.03641 2.05266 2.09062 2.15390 2.17187 2.26203 2.28488 2.29069 2.30142 2.37609
 2.40591 2.46689 2.48461 2.52004 2.57972 2.67544 2.72109 2.74023 2.78370 2.81935
 2.83222 2.89699 2.91539 2.93121 2.96216 2.99074 3.04977 3.06355 3.07292 3.11676
 3.13592 3.24220 3.26960 3.26982 3.35900 3.39272 3.42417 3.45180 3.52284 3.53182
 3.59230 3.61245 3.68018 3.68408 3.73420 3.78658 3.80267 3.84893 3.87706 3.95696
 4.05586 4.17444 4.25384 4.28979 4.52135 4.52331 8.13169 8.35765 8.37871 9.00030
 9.65732 9.92263 12.88223 14.56922
 == 201-th k-point (-0.10205,0.30616,0.30616) occupation: 14==
 -65.00520 -65.00519 -4.62740 -4.62726 -3.03924 -3.03923 -3.03907 -3.03869 -3.03853 -3.03851
 -0.08633 0.05467 0.16294 0.22726 0.36701 0.42862 0.43270 0.54498 0.54964 0.62323
 0.69975 0.75153 0.82573 0.85166 0.88248 0.94179 1.02206 1.09883 1.10723 1.13207
 1.19635 1.21227 1.29967 1.30847 1.33483 1.34234 1.37822 1.49689 1.52849 1.54725
 1.56577 1.63955 1.67907 1.69661 1.73116 1.79078 1.82622 1.88010 1.89578 1.98785
 2.07179 2.08678 2.09046 2.16170 2.18248 2.20348 2.28059 2.35534 2.36749 2.38455
 2.44063 2.46196 2.49611 2.55162 2.58758 2.58966 2.67537 2.76927 2.77368 2.81202
 2.81909 2.89409 2.90021 2.93120 2.94119 2.95902 3.03857 3.09895 3.13883 3.14607
 3.16513 3.25238 3.31152 3.33182 3.36651 3.41921 3.43871 3.43888 3.47134 3.50880
 3.57953 3.58346 3.63026 3.66181 3.71842 3.72087 3.78544 3.90012 3.93054 3.94059
 4.08132 4.10902 4.24710 4.34568 4.50379 4.57742 7.89520 8.23972 8.32439 9.13165
 9.31670 9.91266 12.89248 14.44565
 == 202-th k-point (0.00000,0.40822,0.20411) occupation: 14==
 -65.00520 -65.00519 -4.62739 -4.62727 -3.03925 -3.03924 -3.03903 -3.03873 -3.03852 -3.03851
 -0.07962 0.06847 0.14344 0.19046 0.38142 0.41373 0.43282 0.53788 0.61092 0.64277
 0.75846 0.76737 0.78852 0.83137 0.88946 0.94185 1.00600 1.05810 1.06007 1.11820
 1.18100 1.18547 1.27938 1.30210 1.33057 1.39998 1.45035 1.47059 1.49997 1.51512
 1.54734 1.65290 1.70475 1.74359 1.78159 1.78883 1.86665 1.87740 1.90221 1.94566
 2.01390 2.03841 2.10379 2.11485 2.14559 2.19311 2.28872 2.29129 2.35516 2.43925
 2.45349 2.48508 2.50233 2.53804 2.59149 2.59939 2.65650 2.74282 2.79746 2.82119
 2.84857 2.89331 2.90409 2.93663 2.96152 2.96587 3.01834 3.07275 3.12937 3.14870
 3.20941 3.29012 3.31024 3.32498 3.38215 3.39987 3.43074 3.43405 3.47360 3.50711
 3.51148 3.57014 3.64189 3.67770 3.70566 3.72593 3.84548 3.88140 3.93862 3.96663
 4.08334 4.13607 4.25174 4.33587 4.54942 4.61241 8.06844 8.17925 8.28620 9.01608
 9.80000 10.19013 13.34340 13.94034
 == 203-th k-point (0.10205,0.51027,0.10205) occupation: 14==
 -65.00519 -65.00519 -4.62737 -4.62730 -3.03926 -3.03925 -3.03896 -3.03878 -3.03852 -3.03851
 -0.05097 0.03463 0.14108 0.18075 0.31549 0.37663 0.55240 0.55275 0.66932 0.67574
 0.73643 0.75176 0.81764 0.86241 0.87237 0.96289 0.97500 0.99872 1.04083 1.12260
 1.13593 1.15667 1.19095 1.27002 1.36542 1.38168 1.46111 1.48572 1.49776 1.56725
 1.62629 1.64069 1.68509 1.71453 1.75848 1.80102 1.82891 1.86649 1.91218 1.95088
 1.98400 2.06876 2.11998 2.15014 2.19622 2.20031 2.22878 2.34296 2.36222 2.37900
 2.44713 2.44973 2.51685 2.52340 2.55613 2.63178 2.67121 2.77115 2.79786 2.81220
 2.83019 2.90541 2.91430 2.95321 2.95390 3.00613 3.02517 3.05157 3.08304 3.14192
 3.22170 3.23386 3.24403 3.31890 3.32500 3.34688 3.36503 3.44441 3.48758 3.50840
 3.56353 3.61638 3.64267 3.66604 3.71352 3.75239 3.85755 3.89710 3.96812 4.04924
 4.13420 4.24785 4.28887 4.32144 4.58482 4.60972 8.11086 8.39781 8.47672 8.70757
 9.76819 10.12953 13.28616 13.63886
 == 204-th k-point (-0.30616,-0.10205,0.71438) occupation: 14==
 -65.00520 -65.00519 -4.62737 -4.62730 -3.03926 -3.03925 -3.03898 -3.03878 -3.03851 -3.03849
 -0.04325 0.02420 0.12729 0.17318 0.40013 0.40783 0.50230 0.51688 0.55641 0.69020
 0.71846 0.77269 0.87875 0.90175 0.90975 0.94528 0.96618 1.04177 1.05613 1.08429
 1.13075 1.23158 1.23457 1.23799 1.33704 1.37874 1.41377 1.43611 1.46035 1.50232
 1.55154 1.64400 1.69989 1.76390 1.79472 1.83458 1.87632 1.89693 1.93316 1.97447
 1.99916 2.08622 2.12348 2.15968 2.20492 2.24661 2.28165 2.30315 2.35346 2.37856
 2.43437 2.44432 2.46382 2.50354 2.60220 2.62949 2.71041 2.71283 2.80621 2.83443
 2.86558 2.87721 2.94019 2.95677 2.95791 2.99103 3.03607 3.07086 3.10318 3.16153
 3.23665 3.24208 3.28762 3.28925 3.33619 3.35554 3.40951 3.45827 3.48958 3.50240
 3.54996 3.56973 3.57770 3.61864 3.69377 3.70567 3.83903 3.84826 3.92749 4.00526
 4.02318 4.14122 4.25034 4.25353 4.54258 4.57692 8.26589 8.40959 8.52196 8.80285
 9.26295 9.77144 13.34239 14.25556
 == 205-th k-point (-0.20411,0.00000,0.61232) occupation: 14==
 -65.00519 -65.00519 -4.62733 -4.62733 -3.03926 -3.03926 -3.03887 -3.03887 -3.03850 -3.03850
 -0.00692 -0.00692 0.14057 0.14057 0.37776 0.37776 0.52643 0.52643 0.66947 0.66947
 0.75644 0.75644 0.88694 0.88695 0.91713 0.91713 0.97292 0.97292 1.07777 1.07777
 1.14047 1.14047 1.19586 1.19587 1.39415 1.39416 1.43462 1.43464 1.49627 1.49628
 1.66136 1.66137 1.69981 1.69988 1.80107 1.80110 1.86840 1.86841 1.90987 1.90989
 2.04564 2.04566 2.17969 2.17977 2.22290 2.22301 2.28834 2.28854 2.35514 2.35518
 2.45196 2.45202 2.48562 2.48565 2.67150 2.67167 2.73325 2.73357 2.76106 2.76111
 2.86664 2.86668 2.91013 2.91013 2.98879 2.98888 3.05825 3.05846 3.12272 3.12272
 3.23119 3.23144 3.29047 3.29088 3.34647 3.34661 3.40409 3.40434 3.49435 3.49476
 3.58125 3.58128 3.60081 3.60114 3.70587 3.70601 3.85093 3.85103 4.00202 4.00237
 4.15923 4.15953 4.28684 4.28687 4.59059 4.59200 8.36101 8.36104 8.65520 8.65533
 9.73651 9.73958 13.52171 13.52207
 == 206-th k-point (-0.10205,0.10205,0.51027) occupation: 14==
 -65.00519 -65.00519 -4.62737 -4.62730 -3.03926 -3.03925 -3.03896 -3.03878 -3.03852 -3.03851
 -0.05097 0.03463 0.14108 0.18075 0.31549 0.37663 0.55240 0.55275 0.66932 0.67574
 0.73643 0.75176 0.81764 0.86241 0.87238 0.96289 0.97500 0.99872 1.04083 1.12259
 1.13593 1.15667 1.19095 1.27002 1.36543 1.38167 1.46111 1.48571 1.49775 1.56726
 1.62632 1.64065 1.68507 1.71453 1.75853 1.80102 1.82890 1.86647 1.91221 1.95087
 1.98414 2.06870 2.12028 2.15028 2.19625 2.20024 2.22865 2.34296 2.36240 2.37902
 2.44715 2.44980 2.51706 2.52340 2.55615 2.63172 2.67110 2.77094 2.79784 2.81243
 2.83008 2.90574 2.91429 2.95308 2.95390 3.00608 3.02531 3.05146 3.08303 3.14193
 3.22295 3.23321 3.24400 3.31915 3.32498 3.34669 3.36517 3.44389 3.48834 3.50759
 3.56354 3.61575 3.64271 3.66623 3.71368 3.75216 3.85759 3.89740 3.96727 4.04939
 4.13322 4.24842 4.28871 4.32137 4.58703 4.60753 8.11087 8.39771 8.47711 8.70743
 9.77243 10.12399 13.28590 13.63775
 == 207-th k-point (0.00000,0.20411,0.40822) occupation: 14==
 -65.00520 -65.00519 -4.62739 -4.62727 -3.03925 -3.03924 -3.03903 -3.03873 -3.03852 -3.03851
 -0.07962 0.06847 0.14344 0.19046 0.38142 0.41373 0.43282 0.53788 0.61092 0.64277
 0.75846 0.76737 0.78852 0.83137 0.88946 0.94185 1.00600 1.05810 1.06007 1.11820
 1.18100 1.18547 1.27938 1.30210 1.33057 1.39998 1.45035 1.47059 1.49997 1.51512
 1.54734 1.65290 1.70475 1.74359 1.78159 1.78883 1.86665 1.87740 1.90221 1.94566
 2.01390 2.03841 2.10379 2.11485 2.14559 2.19311 2.28872 2.29129 2.35516 2.43925
 2.45349 2.48508 2.50233 2.53804 2.59149 2.59939 2.65650 2.74282 2.79746 2.82119
 2.84857 2.89331 2.90409 2.93663 2.96152 2.96587 3.01834 3.07275 3.12937 3.14870
 3.20941 3.29012 3.31024 3.32498 3.38215 3.39987 3.43074 3.43405 3.47360 3.50711
 3.51148 3.57014 3.64189 3.67770 3.70566 3.72593 3.84548 3.88140 3.93862 3.96663
 4.08334 4.13607 4.25174 4.33587 4.54942 4.61241 8.06844 8.17925 8.28620 9.01608
 9.80000 10.19013 13.34340 13.94034
 == 208-th k-point (0.10205,0.30616,0.30616) occupation: 14==
 -65.00520 -65.00519 -4.62740 -4.62726 -3.03924 -3.03923 -3.03907 -3.03869 -3.03853 -3.03851
 -0.08633 0.05467 0.16294 0.22726 0.36701 0.42862 0.43270 0.54498 0.54964 0.62323
 0.69975 0.75153 0.82573 0.85166 0.88248 0.94179 1.02206 1.09883 1.10723 1.13209
 1.19635 1.21231 1.29966 1.30847 1.33482 1.34234 1.37822 1.49688 1.52845 1.54725
 1.56577 1.63961 1.67907 1.69663 1.73116 1.79078 1.82618 1.88010 1.89574 1.98781
 2.07150 2.08674 2.09045 2.16172 2.18251 2.20351 2.28056 2.35537 2.36760 2.38454
 2.44042 2.46193 2.49602 2.55138 2.58758 2.58977 2.67536 2.76926 2.77385 2.81201
 2.81914 2.89409 2.90012 2.93119 2.94115 2.95902 3.03746 3.09901 3.13881 3.14607
 3.16513 3.25237 3.31114 3.33181 3.36558 3.41921 3.43881 3.43884 3.47142 3.50918
 3.57951 3.58251 3.63012 3.66176 3.71839 3.72084 3.78546 3.90137 3.92923 3.94058
 4.08111 4.10902 4.24704 4.34583 4.50379 4.57704 7.89486 8.23970 8.32432 9.13165
 9.31454 9.91403 12.89164 14.44683
 == 209-th k-point (0.20411,0.40822,0.20411) occupation: 14==
 -65.00520 -65.00519 -4.62739 -4.62727 -3.03925 -3.03923 -3.03906 -3.03870 -3.03854 -3.03850
 -0.07210 0.03253 0.17300 0.20953 0.35177 0.42841 0.44757 0.51364 0.62330 0.66794
 0.71030 0.71603 0.74425 0.87421 0.94531 0.98342 1.02767 1.04608 1.06515 1.12762
 1.16942 1.26870 1.28311 1.28921 1.30374 1.36916 1.41421 1.42416 1.48227 1.54275
 1.56426 1.61762 1.67514 1.68497 1.73763 1.80063 1.87811 1.93003 1.98099 2.03031
 2.03647 2.05279 2.09061 2.15384 2.17279 2.26226 2.28491 2.29070 2.30157 2.37604
 2.40599 2.46699 2.48479 2.52008 2.57971 2.67542 2.72113 2.74023 2.78353 2.81936
 2.83245 2.89701 2.91665 2.93120 2.96350 2.99076 3.04968 3.06364 3.07291 3.11859
 3.13596 3.24216 3.26960 3.27098 3.35928 3.39275 3.42414 3.45177 3.52283 3.53245
 3.59219 3.61236 3.68027 3.68486 3.73441 3.78553 3.80340 3.84873 3.87688 3.95746
 4.05571 4.17582 4.25375 4.28959 4.52300 4.52353 8.13184 8.35756 8.37958 9.00005
 9.66343 9.92132 12.88182 14.56811
 == 210-th k-point (-0.20411,-0.20411,0.81643) occupation: 14==
 -65.00520 -65.00519 -4.62739 -4.62727 -3.03925 -3.03923 -3.03906 -3.03870 -3.03854 -3.03850
 -0.07210 0.03253 0.17300 0.20953 0.35177 0.42841 0.44757 0.51364 0.62330 0.66794
 0.71030 0.71603 0.74425 0.87421 0.94531 0.98342 1.02767 1.04608 1.06515 1.12762
 1.16942 1.26870 1.28311 1.28921 1.30374 1.36916 1.41421 1.42416 1.48227 1.54275
 1.56426 1.61762 1.67514 1.68497 1.73763 1.80063 1.87811 1.93003 1.98099 2.03031
 2.03647 2.05279 2.09061 2.15384 2.17279 2.26226 2.28491 2.29070 2.30157 2.37604
 2.40599 2.46699 2.48479 2.52008 2.57971 2.67542 2.72113 2.74023 2.78353 2.81936
 2.83245 2.89701 2.91665 2.93120 2.96350 2.99076 3.04968 3.06364 3.07291 3.11859
 3.13596 3.24216 3.26960 3.27098 3.35928 3.39275 3.42414 3.45177 3.52283 3.53245
 3.59219 3.61236 3.68027 3.68486 3.73441 3.78553 3.80340 3.84873 3.87688 3.95746
 4.05571 4.17582 4.25375 4.28959 4.52300 4.52353 8.13184 8.35756 8.37958 9.00005
 9.66343 9.92132 12.88182 14.56811
 == 211-th k-point (-0.10205,-0.10205,0.71438) occupation: 14==
 -65.00519 -65.00519 -4.62737 -4.62730 -3.03926 -3.03925 -3.03896 -3.03878 -3.03852 -3.03851
 -0.05097 0.03463 0.14108 0.18075 0.31549 0.37663 0.55240 0.55275 0.66932 0.67574
 0.73643 0.75176 0.81764 0.86241 0.87237 0.96289 0.97500 0.99872 1.04083 1.12260
 1.13593 1.15667 1.19095 1.27002 1.36542 1.38168 1.46111 1.48572 1.49776 1.56725
 1.62629 1.64069 1.68509 1.71453 1.75848 1.80102 1.82891 1.86649 1.91218 1.95088
 1.98400 2.06876 2.11998 2.15014 2.19622 2.20031 2.22878 2.34296 2.36222 2.37900
 2.44713 2.44973 2.51685 2.52340 2.55613 2.63178 2.67121 2.77115 2.79786 2.81220
 2.83019 2.90541 2.91430 2.95321 2.95390 3.00613 3.02517 3.05157 3.08304 3.14192
 3.22170 3.23386 3.24403 3.31890 3.32500 3.34688 3.36503 3.44441 3.48758 3.50840
 3.56353 3.61638 3.64267 3.66604 3.71352 3.75239 3.85755 3.89710 3.96812 4.04924
 4.13420 4.24785 4.28887 4.32144 4.58482 4.60972 8.11086 8.39781 8.47672 8.70757
 9.76819 10.12953 13.28616 13.63886
 == 212-th k-point (0.00000,0.00000,0.61232) occupation: 14==
 -65.00519 -65.00519 -4.62733 -4.62733 -3.03926 -3.03926 -3.03887 -3.03887 -3.03851 -3.03851
 -0.01141 -0.01141 0.16971 0.16971 0.30250 0.30250 0.64813 0.64813 0.68888 0.68888
 0.74450 0.74450 0.75528 0.75528 0.97765 0.97765 1.00289 1.00290 1.02315 1.02315
 1.07002 1.07002 1.23811 1.23811 1.37433 1.37436 1.54481 1.54482 1.58209 1.58209
 1.63112 1.63112 1.69141 1.69141 1.74508 1.74509 1.82771 1.82805 1.85624 1.85624
 2.08079 2.08163 2.09754 2.09760 2.18739 2.18739 2.30503 2.30505 2.43097 2.43101
 2.45562 2.45562 2.50317 2.50317 2.52120 2.52233 2.73728 2.73728 2.77738 2.77752
 2.86762 2.86820 2.98853 2.98854 3.00938 3.00938 3.02689 3.02689 3.08163 3.08176
 3.23378 3.23392 3.25058 3.25075 3.26331 3.26332 3.45250 3.45623 3.49227 3.49228
 3.55777 3.55784 3.64318 3.64318 3.72939 3.72939 3.93628 3.93704 4.06948 4.06948
 4.29098 4.29161 4.35452 4.35453 4.60823 4.61319 8.31803 8.31803 8.62586 8.62595
 9.65738 9.66590 13.41135 13.41135
 == 213-th k-point (0.10205,0.10205,0.51027) occupation: 14==
 -65.00519 -65.00519 -4.62737 -4.62730 -3.03926 -3.03925 -3.03896 -3.03878 -3.03852 -3.03851
 -0.05097 0.03463 0.14108 0.18075 0.31549 0.37663 0.55240 0.55275 0.66932 0.67574
 0.73643 0.75176 0.81764 0.86241 0.87237 0.96289 0.97500 0.99872 1.04083 1.12260
 1.13593 1.15667 1.19095 1.27002 1.36542 1.38168 1.46111 1.48572 1.49776 1.56725
 1.62629 1.64069 1.68509 1.71453 1.75848 1.80102 1.82891 1.86649 1.91218 1.95088
 1.98400 2.06876 2.11998 2.15014 2.19622 2.20031 2.22878 2.34296 2.36222 2.37900
 2.44713 2.44973 2.51685 2.52340 2.55613 2.63178 2.67121 2.77115 2.79786 2.81220
 2.83019 2.90541 2.91430 2.95321 2.95390 3.00613 3.02517 3.05157 3.08304 3.14192
 3.22170 3.23386 3.24403 3.31890 3.32500 3.34688 3.36503 3.44441 3.48758 3.50840
 3.56353 3.61638 3.64267 3.66604 3.71352 3.75239 3.85755 3.89710 3.96812 4.04924
 4.13420 4.24785 4.28887 4.32144 4.58482 4.60972 8.11086 8.39781 8.47672 8.70757
 9.76819 10.12953 13.28616 13.63886
 == 214-th k-point (0.20411,0.20411,0.40822) occupation: 14==
 -65.00520 -65.00519 -4.62739 -4.62727 -3.03925 -3.03923 -3.03906 -3.03870 -3.03854 -3.03850
 -0.07210 0.03253 0.17300 0.20953 0.35177 0.42841 0.44757 0.51364 0.62330 0.66794
 0.71030 0.71603 0.74425 0.87421 0.94531 0.98342 1.02767 1.04608 1.06515 1.12762
 1.16942 1.26870 1.28311 1.28921 1.30374 1.36916 1.41421 1.42416 1.48227 1.54275
 1.56426 1.61762 1.67514 1.68497 1.73763 1.80063 1.87811 1.93003 1.98099 2.03031
 2.03647 2.05279 2.09061 2.15384 2.17279 2.26226 2.28491 2.29070 2.30157 2.37604
 2.40599 2.46699 2.48479 2.52008 2.57971 2.67542 2.72113 2.74023 2.78353 2.81936
 2.83245 2.89701 2.91665 2.93120 2.96350 2.99076 3.04968 3.06364 3.07291 3.11859
 3.13596 3.24216 3.26960 3.27098 3.35928 3.39275 3.42414 3.45177 3.52283 3.53245
 3.59219 3.61236 3.68027 3.68486 3.73441 3.78553 3.80340 3.84873 3.87688 3.95746
 4.05571 4.17582 4.25375 4.28959 4.52300 4.52353 8.13184 8.35756 8.37958 9.00005
 9.66343 9.92132 12.88182 14.56811
 == 215-th k-point (0.30616,0.30616,0.30616) occupation: 14==
 -65.00520 -65.00519 -4.62740 -4.62726 -3.03923 -3.03923 -3.03911 -3.03865 -3.03853 -3.03853
 -0.07789 0.01888 0.23087 0.23087 0.33372 0.40003 0.40003 0.55847 0.67277 0.67277
 0.69325 0.69534 0.69534 0.75412 1.00022 1.01510 1.09092 1.09092 1.09476 1.09476
 1.23886 1.26037 1.26037 1.30724 1.30724 1.35753 1.41664 1.49063 1.49063 1.50122
 1.50122 1.58408 1.62555 1.65356 1.87982 1.87982 1.88684 1.90834 1.90834 1.92019
 2.12757 2.12757 2.19160 2.19633 2.19633 2.24505 2.27010 2.27010 2.33424 2.33424
 2.46240 2.46240 2.55692 2.55692 2.60160 2.67947 2.74759 2.77479 2.77479 2.79499
 2.81832 2.81832 2.82834 2.92007 2.95021 2.96197 3.09566 3.09566 3.09812 3.09812
 3.19238 3.19238 3.21278 3.21278 3.31496 3.46603 3.46603 3.55235 3.55616 3.55616
 3.56455 3.67433 3.67433 3.69041 3.73102 3.76050 3.93399 3.93399 4.00580 4.00580
 4.12783 4.14928 4.14928 4.33547 4.43954 4.43954 8.25933 8.25933 8.33021 9.36555
 9.36555 10.00527 11.95074 14.72168
 ---------------------------------------------------------------------------
 VBM is at 86-th k-point with 7.49850 eV
 CBM is at 197-th k-point with 8.23134 eV
 Band gap is 0.73284 eV


           Ground-State Mulliken Net Atomic Charges

      Atom                 Charge (a.u.)          Spin (a.u.)
   --------------------------------------------------------
      1 Si               (0.000000,-0.000000)    (0.000000,0.000000)
      2 Si               (-0.000000,0.000000)    (0.000000,0.000000)
   --------------------------------------------------------
  Sum of atomic charges =      (-0.000000,0.000000)
  Sum of spin   charges =       (0.000000,0.000000)



 Total job time:  222.20 s.
 Tue Sep  9 03:17:34 2025


        *************************************************************
        *                                                           *
        *  Thank you very much for using QCPBC. Have a nice day.    *
        *                                                           *
        *************************************************************

Running job 1 of 1
