                  Welcome to Q-Chem
           with Periodic Boundary Condition
     A Quantum Leap Into The Future Of Chemistry

 Adam Rettig, Xintian Feng, Meng-Fu Chen, Hieu Dinh, Stephen Quiton,
 Anton Ni, Paul J. Robinson, Jinghong Zhang, Joonho Lee

Contributors to earlier versions of Q-Chem not listed above:
 Evgeny Epifanovsky, Leo Cunha, Jerome F. Gonthier, Kuan-Yu Liu
 Input file: /n/netscratch/joonholee_lab/Lab/hieudinh//si_2_ccpvqz_omega_0.9_444.scratch20250909030334/si_2_ccpvqz_omega_0.9_444.0
 Scratch folder: /n/netscratch/joonholee_lab/Lab/hieudinh//si_2_ccpvqz_omega_0.9_444.scratch20250909030334
 Auxillary files located at: /n/holylabs/LABS/joonholee_lab/Lab/qchem_base/qcaux
 Q-Chem begins on Tue Sep  9 03:03:35 2025

 -------------------------------------------------------------
 User input:
 -------------------------------------------------------------
 $lattice
 3
 0.000000 5.130600 5.130600
 5.130600 0.000000 5.130600
 5.130600 5.130600 0.000000
 $end
 
 $unitcell
 ABSOLUTE
 0 1
 Si 0.000000 0.000000 0.000000
 Si 2.565300 2.565300 2.565300
 $end
 
 $rem
 jobtype = sp
 method = pbe
 scf_convergence = 5
 scf_guess = autosad
 scf_algorithm = diis_gdm
 basis = cc-pvqz
 aux_basis = cc-pvqz-jk
 input_bohr = true
 symmetry = false
 rsdf_print_level 1
 is_basis_uctr true
 
 mp_mesh = [4,4,4]
 
 integral_direct true
 bvk_cgto true
 
 thresh 14
 mem_total 1000000
 threads 32
 
 MAX_SCF_CYCLES 500
 madelung = false
 omega 0.9
 do_rij_bigmem true
 automate_g true
 print_level 10
 grid_type_xc 1
 
 thresh_1e2c_sp 1e-14
 thresh_2e3c_bra_ket_sep 1e-10
 thresh_g 1e-12
 $end
 
 -------------------------------------------------------------
 Running PBC job

 Requested Exchange Correlation Functionals: 
  DFT Exchange:  1.00000 pbe_x
  DFT Correlation:  1.00000 pbe_c
 using 32 threads for computing.
 ---------------------------------------------------------------
      Coordinates of Atoms in Central Unit Cell (Angstroms)
    I     Atom         X            Y            Z
 ---------------------------------------------------------------
    1      Si      0.000000     0.000000     0.000000
    2      Si      1.357498     1.357498     1.357498
 ---------------------------------------------------------------
 --------------------------------------------------
              Lattice Vectors (Angstroms)
              X            Y            Z
 --------------------------------------------------
   X       0.000000     2.714997     2.714997
   Y       2.714997     0.000000     2.714997
   Z       2.714997     2.714997     0.000000
 --------------------------------------------------
 --------------------------------------------------
       Reciprocal Lattice Vectors (Angstroms^-1)
              X            Y            Z
 --------------------------------------------------
   X      -1.157126     1.157126     1.157126
   Y       1.157126    -1.157126     1.157126
   Z       1.157126     1.157126    -1.157126
 --------------------------------------------------

 Single point calculation requested

 Hamiltonian contributions:
 List of terms in Hamiltonian: kpts_nn, kpts_kinetic, kpts_vnuc_df, kpts_xc, kpts_rij_bigmem

 K-Points calculation started.

 Basis set information about using solid harmonic (1) or Cartesian (0):
  si : D(1) D(1) D(1) F(1) F(1) G(1) 

 Basis set information about using solid harmonic (1) or Cartesian (0):
  si : D(1) D(1) D(1) D(1) D(1) D(1) D(1) D(1) D(1) F(1) F(1) F(1) F(1) G(1) G(1) H(1) 

 There are 118 basis functions in the central unit cell.
 Print atomic basis of atoms in the central unit cell:
 -------------------------------------------------------------
2 66 134 28

  0.00000000000000e+00  0.00000000000000e+00  0.00000000000000e+00
  2.56530000000000e+00  2.56530000000000e+00  2.56530000000000e+00

  5.13000000000000e+05
  7.68200000000000e+04
  1.74700000000000e+04
  4.93500000000000e+03
  1.60200000000000e+03
  5.74100000000000e+02
  2.21500000000000e+02
  9.05400000000000e+01
  3.87400000000000e+01
  1.69500000000000e+01
  6.45200000000000e+00
  2.87400000000000e+00
  1.25000000000000e+00
  3.59900000000000e-01
  1.69900000000000e-01
  7.06600000000000e-02
  1.12200000000000e+03
  2.66000000000000e+02
  8.59200000000000e+01
  3.23300000000000e+01
  1.33700000000000e+01
  5.80000000000000e+00
  2.55900000000000e+00
  1.12400000000000e+00
  3.98800000000000e-01
  1.53300000000000e-01
  5.72800000000000e-02
  7.60000000000000e-01
  3.02000000000000e-01
  1.20000000000000e-01
  5.41000000000000e-01
  2.12000000000000e-01
  4.61000000000000e-01
  5.13000000000000e+05
  7.68200000000000e+04
  1.74700000000000e+04
  4.93500000000000e+03
  1.60200000000000e+03
  5.74100000000000e+02
  2.21500000000000e+02
  9.05400000000000e+01
  3.87400000000000e+01
  1.69500000000000e+01
  6.45200000000000e+00
  2.87400000000000e+00
  1.25000000000000e+00
  3.59900000000000e-01
  1.69900000000000e-01
  7.06600000000000e-02
  1.12200000000000e+03
  2.66000000000000e+02
  8.59200000000000e+01
  3.23300000000000e+01
  1.33700000000000e+01
  5.80000000000000e+00
  2.55900000000000e+00
  1.12400000000000e+00
  3.98800000000000e-01
  1.53300000000000e-01
  5.72800000000000e-02
  7.60000000000000e-01
  3.02000000000000e-01
  1.20000000000000e-01
  5.41000000000000e-01
  2.12000000000000e-01
  4.61000000000000e-01

  3.56439732356011e-01
  6.67250935594825e-01
  1.15567538346971e+00
  1.89079471139597e+00
  2.92997535092854e+00
  4.25377897422013e+00
  5.53035652706994e+00
  5.88407857713363e+00
  4.26432221020809e+00
  1.46246852660687e+00
  9.90009037975635e-02
 -5.26805361731285e-03
  1.58075269248041e-03
 -9.63604858609034e-02
 -1.80140685379119e-01
 -3.12991611081079e-01
 -5.12013980868736e-01
 -8.03092560139717e-01
 -1.18597193899895e+00
 -1.63453354628192e+00
 -1.94138718043020e+00
 -1.86039340932271e+00
 -9.21642524314205e-01
  4.93552860211257e-01
  9.09065541611183e-01
  3.40430003714153e-01
  4.89002727192571e-02
  9.13245846186842e-02
  1.58921585782757e-01
  2.59526822498432e-01
  4.08347517411705e-01
  6.02266139654795e-01
  8.36774006155092e-01
  9.98775610751853e-01
  9.86583994360998e-01
  5.01500269670235e-01
 -2.91439000418814e-01
 -6.84883633703988e-01
 -4.85138432421684e-01
  3.31166560285492e-01
  1.88605835767988e-01
  9.76765512168845e-02
  4.17977074735086e+00
  5.88843070847456e+00
  7.44317185052013e+00
  8.05001094515016e+00
  6.97099017282640e+00
  4.33955185260449e+00
  1.76355858703549e+00
  3.34437932089088e-01
 -4.09551658476811e+00
 -5.70145272051300e+00
 -7.35388974061730e+00
 -7.93663059323219e+00
 -7.17813870370958e+00
 -4.42768957771269e+00
 -2.05517820096269e+00
 -1.72105843348797e-01
  4.51735295769850e-01
  1.36731249153695e-01
  3.99432914781939e-02
  1.01820035164008e+00
  2.02498404800701e-01
  4.02695370421242e-02
  3.69528803814005e-01
  4.48962571437413e-02
  1.32316184864580e-01
  3.56439732356011e-01
  6.67250935594825e-01
  1.15567538346971e+00
  1.89079471139597e+00
  2.92997535092854e+00
  4.25377897422013e+00
  5.53035652706994e+00
  5.88407857713363e+00
  4.26432221020809e+00
  1.46246852660687e+00
  9.90009037975635e-02
 -5.26805361731285e-03
  1.58075269248041e-03
 -9.63604858609034e-02
 -1.80140685379119e-01
 -3.12991611081079e-01
 -5.12013980868736e-01
 -8.03092560139717e-01
 -1.18597193899895e+00
 -1.63453354628192e+00
 -1.94138718043020e+00
 -1.86039340932271e+00
 -9.21642524314205e-01
  4.93552860211257e-01
  9.09065541611183e-01
  3.40430003714153e-01
  4.89002727192571e-02
  9.13245846186842e-02
  1.58921585782757e-01
  2.59526822498432e-01
  4.08347517411705e-01
  6.02266139654795e-01
  8.36774006155092e-01
  9.98775610751853e-01
  9.86583994360998e-01
  5.01500269670235e-01
 -2.91439000418814e-01
 -6.84883633703988e-01
 -4.85138432421684e-01
  3.31166560285492e-01
  1.88605835767988e-01
  9.76765512168845e-02
  4.17977074735086e+00
  5.88843070847456e+00
  7.44317185052013e+00
  8.05001094515016e+00
  6.97099017282640e+00
  4.33955185260449e+00
  1.76355858703549e+00
  3.34437932089088e-01
 -4.09551658476811e+00
 -5.70145272051300e+00
 -7.35388974061730e+00
 -7.93663059323219e+00
 -7.17813870370958e+00
 -4.42768957771269e+00
 -2.05517820096269e+00
 -1.72105843348797e-01
  4.51735295769850e-01
  1.36731249153695e-01
  3.99432914781939e-02
  1.01820035164008e+00
  2.02498404800701e-01
  4.02695370421242e-02
  3.69528803814005e-01
  4.48962571437413e-02
  1.32316184864580e-01

0 0 0 0 3 3 3
0 0 13 0 26 0 
13 0

0 3 3 13 1 1 1
39 0 
1 0

0 4 4 14 1 1 1
40 0 
1 0

0 5 5 15 1 1 1
41 0 
1 0

0 6 6 16 2 6 6
42 1 50 1 
8 0

0 12 12 24 1 3 3
58 1 
1 0

0 15 15 25 1 3 3
59 1 
1 0

0 18 18 26 1 3 3
60 1 
1 0

0 21 21 27 1 5 6
61 2 
1 1

0 26 26 28 1 5 6
62 2 
1 1

0 31 31 29 1 5 6
63 2 
1 1

0 36 36 30 1 7 10
64 3 
1 1

0 43 43 31 1 7 10
65 3 
1 1

0 50 50 32 1 9 15
66 4 
1 1

1 59 59 33 3 3 3
67 0 80 0 93 0 
13 0

1 62 62 46 1 1 1
106 0 
1 0

1 63 63 47 1 1 1
107 0 
1 0

1 64 64 48 1 1 1
108 0 
1 0

1 65 65 49 2 6 6
109 1 117 1 
8 0

1 71 71 57 1 3 3
125 1 
1 0

1 74 74 58 1 3 3
126 1 
1 0

1 77 77 59 1 3 3
127 1 
1 0

1 80 80 60 1 5 6
128 2 
1 1

1 85 85 61 1 5 6
129 2 
1 1

1 90 90 62 1 5 6
130 2 
1 1

1 95 95 63 1 7 10
131 3 
1 1

1 102 102 64 1 7 10
132 3 
1 1

1 109 109 65 1 9 15
133 4 
1 1

 -------------------------------------------------------------
 Allocate 265256 B from available memory: 1048576000000 B
 There are 2197 image cells after screening.
 There are 2061 image cells for CGTO evaluation after screening.
 Real-Space grid for FFT initialized based on kinetic energy cutoff (eV) = 500.0
 Real-Space grid for FFT: (10,10,10)
 There are 9261 real-space grid points.
 There are 64 batches of real-space grid points. 
 Size of each grid batch is around 128
 Grid for AFT initialized based on kinetic energy cutoff (eV) = 500.0
 Real-Space grid for AFT: (10,10,10)
 There are 9261 real-space grid points.

 There are 5628 atom-centered grid points.

 Spacegroup symmetry group: Fd-3m
 Reducing spacegroup symmetry to symmorphic group: F -4 3 m
 Monkhorst-Pack mesh is [4,4,4]
 There are 64 k points.
kpoints in Bohr
-0.1530811530 -0.1530811530 -0.1530811530
-0.0000000000 -0.0000000000 -0.3061623059
0.1530811530 0.1530811530 -0.4592434589
0.3061623059 0.3061623059 -0.6123246119
-0.0000000000 -0.3061623059 0.0000000000
0.1530811530 -0.1530811530 -0.1530811530
0.3061623059 0.0000000000 -0.3061623059
0.4592434589 0.1530811530 -0.4592434589
0.1530811530 -0.4592434589 0.1530811530
0.3061623059 -0.3061623059 0.0000000000
0.4592434589 -0.1530811530 -0.1530811530
0.6123246119 0.0000000000 -0.3061623059
0.3061623059 -0.6123246119 0.3061623059
0.4592434589 -0.4592434589 0.1530811530
0.6123246119 -0.3061623059 0.0000000000
0.7654057648 -0.1530811530 -0.1530811530
-0.3061623059 -0.0000000000 -0.0000000000
-0.1530811530 0.1530811530 -0.1530811530
0.0000000000 0.3061623059 -0.3061623059
0.1530811530 0.4592434589 -0.4592434589
-0.1530811530 -0.1530811530 0.1530811530
0.0000000000 0.0000000000 0.0000000000
0.1530811530 0.1530811530 -0.1530811530
0.3061623059 0.3061623059 -0.3061623059
-0.0000000000 -0.3061623059 0.3061623059
0.1530811530 -0.1530811530 0.1530811530
0.3061623059 0.0000000000 0.0000000000
0.4592434589 0.1530811530 -0.1530811530
0.1530811530 -0.4592434589 0.4592434589
0.3061623059 -0.3061623059 0.3061623059
0.4592434589 -0.1530811530 0.1530811530
0.6123246119 0.0000000000 0.0000000000
-0.4592434589 0.1530811530 0.1530811530
-0.3061623059 0.3061623059 -0.0000000000
-0.1530811530 0.4592434589 -0.1530811530
0.0000000000 0.6123246119 -0.3061623059
-0.3061623059 0.0000000000 0.3061623059
-0.1530811530 0.1530811530 0.1530811530
0.0000000000 0.3061623059 0.0000000000
0.1530811530 0.4592434589 -0.1530811530
-0.1530811530 -0.1530811530 0.4592434589
0.0000000000 0.0000000000 0.3061623059
0.1530811530 0.1530811530 0.1530811530
0.3061623059 0.3061623059 0.0000000000
0.0000000000 -0.3061623059 0.6123246119
0.1530811530 -0.1530811530 0.4592434589
0.3061623059 0.0000000000 0.3061623059
0.4592434589 0.1530811530 0.1530811530
-0.6123246119 0.3061623059 0.3061623059
-0.4592434589 0.4592434589 0.1530811530
-0.3061623059 0.6123246119 -0.0000000000
-0.1530811530 0.7654057648 -0.1530811530
-0.4592434589 0.1530811530 0.4592434589
-0.3061623059 0.3061623059 0.3061623059
-0.1530811530 0.4592434589 0.1530811530
0.0000000000 0.6123246119 0.0000000000
-0.3061623059 0.0000000000 0.6123246119
-0.1530811530 0.1530811530 0.4592434589
0.0000000000 0.3061623059 0.3061623059
0.1530811530 0.4592434589 0.1530811530
-0.1530811530 -0.1530811530 0.7654057648
0.0000000000 0.0000000000 0.6123246119
0.1530811530 0.1530811530 0.4592434589
0.3061623059 0.3061623059 0.3061623059
 There are 14 alpha and 14 beta electrons
 Start computing overlap matrix
 Allocate 14258176 B from available memory: 1048575734752 B
 Time for computing overlap matrix: 4.0690000000 s
 ====== Initialize compute kernels for all-electron RI-J (kpts) ====== 
 ========================================================== 
 Range-separated parameter omega        = 0.900000000000000022
 Threshold for 1e2c shellpair           = 0.000000000000010000
 Threshold for 2e2c SR integral         = 0.000000000000000001
 Threshold for 2e3c SR integral         = 0.000000000100000000
 Threshold for AFT G-space screening is = 0.000000000001000000
 The exponent cutoff for C/D classification (omega2 / 2) is  = 0.405000000000000027
 ========================================================== 
 === Post process the basis set for RI calculation (exp_cutoff = 0.405000000000000027 ) === 
nshells_b1 before uncontraction = 28
nshells_b1 after uncontraction = 28
nshells_baux before uncontraction = 80
nshells_baux after uncontraction = 80
===============================================
nbsf total   = 118
nbsf compact = 60
nbsf diffuse = 58
naux total   = 296
naux compact = 296
naux diffuse = 0
nshells_bnuc = 2

 Number of unique atoms is 1
 Unique atom #0 (si) has 5 shells.

Shell 0 to 4 belongs to atom si
Shell 5 to 9 belongs to atom si

 Number of unique atoms is 1
 Unique atom #0 (si) has 9 shells.

Shell 0 to 8 belongs to atom si
Shell 9 to 17 belongs to atom si

 Number of unique atom is 1
 Unique atom #0 (si) has 40 auxiliary shells.

Auxiliary Shell 0 to 39 belongs to atom si
Auxiliary Shell 40 to 79 belongs to atom si

================= Automatically determine grid size for reciprocal space summation =================
 Range-separated parameter = 0.90000000000000 and G-space screening threshold = 0.00000000000100
The number of grid points along each axis dimension is (10, 10, 10)
Total number of grid points = 9261

Use nonortho shellpair for diffuse density
======== Initializing relevant kernel for RIJ (DD type) ========
There are 171 shellpairs in the reference unit cell
There are 3661 images and we expect to have 626031 in total
There are 23126 shellpairs in the lattice sum after screening
======== Initializing relevant kernel for RIJ (CD type) ========
There are 180 shellpairs in the reference unit cell
There are 2395 images and we expect to have 431100 in total
There are 12134 shellpairs in the lattice sum after screening
****** AFT -> SR ******
Maximum bra distance cutoff is 23.000000000000
Maximum bra ket distance cutoff is 20.611302005944
Maximum bra ket screening distance is 19.000000000000
Number of auxiliary image is 551
There are 180 shellpairs in the reference unit cell
There are 551 images and we expect to have 99180 in total
There are 12134 shellpairs in the lattice sum after screening
Available memory per thread for 2e3c calculation is 32.767546143000Gb
Finish initializing 2e3c SR with the lattice sum!
=================================================
======== Initializing relevant kernel for RIJ (CC type) ========
There are 55 shellpairs in the reference unit cell
There are 695 images and we expect to have 38225 in total
There are 694 shellpairs in the lattice sum after screening
****** AFT -> SR ******
Maximum bra distance cutoff is 11.000000000000
Maximum bra ket distance cutoff is 21.062500000000
Maximum bra ket screening distance is 18.718750000000
Number of auxiliary image is 455
There are 55 shellpairs in the reference unit cell
There are 117 images and we expect to have 6435 in total
There are 694 shellpairs in the lattice sum after screening
Available memory per thread for 2e3c calculation is 32.767546143000Gb
Finish initializing 2e3c SR with the lattice sum!
=================================================
======== Initializing the SR component for Vnuc (CD type) ========
Maximum bra distance cutoff is 23.000000000000
Maximum bra ket distance cutoff is 11.920357219976
Maximum bra ket screening distance is 9.960251940080
Number of auxiliary image is 551
There are 180 shellpairs in the reference unit cell
There are 551 images and we expect to have 99180 in total
There are 12134 shellpairs in the lattice sum after screening
Available memory per thread for 2e3c calculation is 32.767546143000Gb
Finish initializing 2e3c SR with the lattice sum!
=================================================
======== Initialize the SR component for Vnuc (CC type) ========
Maximum bra distance cutoff is 11.000000000000
Maximum bra ket distance cutoff is 13.059451665625
Maximum bra ket screening distance is 9.261023449952
Number of auxiliary image is 213
There are 55 shellpairs in the reference unit cell
There are 117 images and we expect to have 6435 in total
There are 694 shellpairs in the lattice sum after screening
Available memory per thread for 2e3c calculation is 32.767546143000Gb
Finish initializing 2e3c SR with the lattice sum!
=================================================
 Aufbau occupation scheme, occupation determined by eigenvalue
 == 0-th k-point nmo = 115 (-0.15308,-0.15308,-0.15308) ==
 == 1-th k-point nmo = 114 (-0.00000,-0.00000,-0.30616) ==
 == 2-th k-point nmo = 114 (0.15308,0.15308,-0.45924) ==
 == 3-th k-point nmo = 114 (0.30616,0.30616,-0.61232) ==
 == 4-th k-point nmo = 114 (-0.00000,-0.30616,0.00000) ==
 == 5-th k-point nmo = 115 (0.15308,-0.15308,-0.15308) ==
 == 6-th k-point nmo = 114 (0.30616,0.00000,-0.30616) ==
 == 7-th k-point nmo = 114 (0.45924,0.15308,-0.45924) ==
 == 8-th k-point nmo = 114 (0.15308,-0.45924,0.15308) ==
 == 9-th k-point nmo = 114 (0.30616,-0.30616,0.00000) ==
 == 10-th k-point nmo = 114 (0.45924,-0.15308,-0.15308) ==
 == 11-th k-point nmo = 114 (0.61232,0.00000,-0.30616) ==
 == 12-th k-point nmo = 114 (0.30616,-0.61232,0.30616) ==
 == 13-th k-point nmo = 114 (0.45924,-0.45924,0.15308) ==
 == 14-th k-point nmo = 114 (0.61232,-0.30616,0.00000) ==
 == 15-th k-point nmo = 114 (0.76541,-0.15308,-0.15308) ==
 == 16-th k-point nmo = 114 (-0.30616,-0.00000,-0.00000) ==
 == 17-th k-point nmo = 115 (-0.15308,0.15308,-0.15308) ==
 == 18-th k-point nmo = 114 (0.00000,0.30616,-0.30616) ==
 == 19-th k-point nmo = 114 (0.15308,0.45924,-0.45924) ==
 == 20-th k-point nmo = 115 (-0.15308,-0.15308,0.15308) ==
 == 21-th k-point nmo = 115 (0.00000,0.00000,0.00000) ==
 == 22-th k-point nmo = 115 (0.15308,0.15308,-0.15308) ==
 == 23-th k-point nmo = 114 (0.30616,0.30616,-0.30616) ==
 == 24-th k-point nmo = 114 (-0.00000,-0.30616,0.30616) ==
 == 25-th k-point nmo = 115 (0.15308,-0.15308,0.15308) ==
 == 26-th k-point nmo = 114 (0.30616,0.00000,0.00000) ==
 == 27-th k-point nmo = 114 (0.45924,0.15308,-0.15308) ==
 == 28-th k-point nmo = 114 (0.15308,-0.45924,0.45924) ==
 == 29-th k-point nmo = 114 (0.30616,-0.30616,0.30616) ==
 == 30-th k-point nmo = 114 (0.45924,-0.15308,0.15308) ==
 == 31-th k-point nmo = 114 (0.61232,0.00000,0.00000) ==
 == 32-th k-point nmo = 114 (-0.45924,0.15308,0.15308) ==
 == 33-th k-point nmo = 114 (-0.30616,0.30616,-0.00000) ==
 == 34-th k-point nmo = 114 (-0.15308,0.45924,-0.15308) ==
 == 35-th k-point nmo = 114 (0.00000,0.61232,-0.30616) ==
 == 36-th k-point nmo = 114 (-0.30616,0.00000,0.30616) ==
 == 37-th k-point nmo = 115 (-0.15308,0.15308,0.15308) ==
 == 38-th k-point nmo = 114 (0.00000,0.30616,0.00000) ==
 == 39-th k-point nmo = 114 (0.15308,0.45924,-0.15308) ==
 == 40-th k-point nmo = 114 (-0.15308,-0.15308,0.45924) ==
 == 41-th k-point nmo = 114 (0.00000,0.00000,0.30616) ==
 == 42-th k-point nmo = 115 (0.15308,0.15308,0.15308) ==
 == 43-th k-point nmo = 114 (0.30616,0.30616,0.00000) ==
 == 44-th k-point nmo = 114 (0.00000,-0.30616,0.61232) ==
 == 45-th k-point nmo = 114 (0.15308,-0.15308,0.45924) ==
 == 46-th k-point nmo = 114 (0.30616,0.00000,0.30616) ==
 == 47-th k-point nmo = 114 (0.45924,0.15308,0.15308) ==
 == 48-th k-point nmo = 114 (-0.61232,0.30616,0.30616) ==
 == 49-th k-point nmo = 114 (-0.45924,0.45924,0.15308) ==
 == 50-th k-point nmo = 114 (-0.30616,0.61232,-0.00000) ==
 == 51-th k-point nmo = 114 (-0.15308,0.76541,-0.15308) ==
 == 52-th k-point nmo = 114 (-0.45924,0.15308,0.45924) ==
 == 53-th k-point nmo = 114 (-0.30616,0.30616,0.30616) ==
 == 54-th k-point nmo = 114 (-0.15308,0.45924,0.15308) ==
 == 55-th k-point nmo = 114 (0.00000,0.61232,0.00000) ==
 == 56-th k-point nmo = 114 (-0.30616,0.00000,0.61232) ==
 == 57-th k-point nmo = 114 (-0.15308,0.15308,0.45924) ==
 == 58-th k-point nmo = 114 (0.00000,0.30616,0.30616) ==
 == 59-th k-point nmo = 114 (0.15308,0.45924,0.15308) ==
 == 60-th k-point nmo = 114 (-0.15308,-0.15308,0.76541) ==
 == 61-th k-point nmo = 114 (0.00000,0.00000,0.61232) ==
 == 62-th k-point nmo = 114 (0.15308,0.15308,0.45924) ==
 == 63-th k-point nmo = 114 (0.30616,0.30616,0.30616) ==

 Generate autoSAD guess
backing up fragment data
Atom # 0: si, charge: 0, multiplicity: 3.000000
writing autosad to fragment context
Settings for isolated fragments: 
  frgm_gamma: TRUE
  frgm_center: FALSE

    Running SCF for isolated atom #0
    Fragment Input file: /n/netscratch/joonholee_lab/Lab/hieudinh//si_2_ccpvqz_omega_0.9_444.scratch20250909030334/autosad_frgmt_0/frgmt_input.in
    Fragment Output file: /n/netscratch/joonholee_lab/Lab/hieudinh//si_2_ccpvqz_omega_0.9_444.scratch20250909030334/autosad_frgmt_0/frgmt_job.out
    Fragment job begins at Tue Sep  9 03:03:40 2025

 Integrated density by DFT XC:
   Numerical integral  =    13.999999643759
   Relative error      =     0.0000025446 %
Final energy components:
 DFT Correlation            Energy =  -0.48370207231610
 DFT Exchange               Energy = -20.13940840112205
 Kinetic (alpha)            Energy = 145.05483363964714
 Kinetic (beta)             Energy = 143.11842945473259
 Nuclear Attraction (alpha) Energy = -351.06191315317784
 Nuclear Attraction (beta)  Energy = -337.54515075030383
 Nuclear Repulsion          Energy =   0.00000000000000
 SEOQF                      Energy =  -0.00000000010144
 Total Coulomb              Energy = 131.82731983024374
----------------------------------------------
    SCF Energy: -289.2295914524
   Total fragment job time:  0.55 s.
restoring fragment data

 ------------------------------------------------------------------------
 Allocate 44418656 B from available memory: 1048561476576 B
 Time for generating SCF guess: 0.58 s

 Allocate 97424 B from available memory: 1048517057920 B
 Selected algorithms for each term:
  kpts_kinetic -> @0x154b0d1d5680
  kpts_nn -> @0x154b0d1d5800
  kpts_rij_bigmem -> @0x154b0d1d53e0
  kpts_vnuc_df -> @0x154b0d1d5380
  kpts_xc -> @0x154b0d1d52c0
 Time for computing kinetic matrix is 3.67 s
Start calculating Vnuc DD type!
Start calculating Vnuc CD type!
Start calculating Vnuc CC type!
 Time for computing nuclear attraction matrix is 8.56 s
Compute (P|Q) and use solve on the fly!
Maximum distance between P and Q is 28.44997180930993
Number of images for (P|Qn) is 887
 Time for computing 2e2c SR integral is 0.12 s
Maximum dynamic memory per thread for 2e3c SR integrals: 0.068 GiB
Batch size for basis function pair is 3480 out of 3480
 === bvk cell = 0 has 100.000 % of the basis function pairs === 
 === bvk cell = 1 has 97.241 % of the basis function pairs === 
 === bvk cell = 2 has 66.379 % of the basis function pairs === 
 === bvk cell = 3 has 97.241 % of the basis function pairs === 
 === bvk cell = 4 has 97.241 % of the basis function pairs === 
 === bvk cell = 5 has 61.609 % of the basis function pairs === 
 === bvk cell = 6 has 62.672 % of the basis function pairs === 
 === bvk cell = 7 has 100.000 % of the basis function pairs === 
 === bvk cell = 8 has 66.379 % of the basis function pairs === 
 === bvk cell = 9 has 62.672 % of the basis function pairs === 
 === bvk cell = 10 has 41.034 % of the basis function pairs === 
 === bvk cell = 11 has 62.672 % of the basis function pairs === 
 === bvk cell = 12 has 97.241 % of the basis function pairs === 
 === bvk cell = 13 has 100.000 % of the basis function pairs === 
 === bvk cell = 14 has 62.672 % of the basis function pairs === 
 === bvk cell = 15 has 61.609 % of the basis function pairs === 
 === bvk cell = 16 has 97.241 % of the basis function pairs === 
 === bvk cell = 17 has 61.609 % of the basis function pairs === 
 === bvk cell = 18 has 62.672 % of the basis function pairs === 
 === bvk cell = 19 has 100.000 % of the basis function pairs === 
 === bvk cell = 20 has 61.609 % of the basis function pairs === 
 === bvk cell = 21 has 27.069 % of the basis function pairs === 
 === bvk cell = 22 has 59.713 % of the basis function pairs === 
 === bvk cell = 23 has 87.874 % of the basis function pairs === 
 === bvk cell = 24 has 62.672 % of the basis function pairs === 
 === bvk cell = 25 has 59.713 % of the basis function pairs === 
 === bvk cell = 26 has 25.948 % of the basis function pairs === 
 === bvk cell = 27 has 41.782 % of the basis function pairs === 
 === bvk cell = 28 has 100.000 % of the basis function pairs === 
 === bvk cell = 29 has 87.874 % of the basis function pairs === 
 === bvk cell = 30 has 41.782 % of the basis function pairs === 
 === bvk cell = 31 has 87.874 % of the basis function pairs === 
 === bvk cell = 32 has 66.379 % of the basis function pairs === 
 === bvk cell = 33 has 62.672 % of the basis function pairs === 
 === bvk cell = 34 has 41.034 % of the basis function pairs === 
 === bvk cell = 35 has 62.672 % of the basis function pairs === 
 === bvk cell = 36 has 62.672 % of the basis function pairs === 
 === bvk cell = 37 has 59.713 % of the basis function pairs === 
 === bvk cell = 38 has 25.948 % of the basis function pairs === 
 === bvk cell = 39 has 41.782 % of the basis function pairs === 
 === bvk cell = 40 has 41.034 % of the basis function pairs === 
 === bvk cell = 41 has 25.948 % of the basis function pairs === 
 === bvk cell = 42 has 13.793 % of the basis function pairs === 
 === bvk cell = 43 has 25.948 % of the basis function pairs === 
 === bvk cell = 44 has 62.672 % of the basis function pairs === 
 === bvk cell = 45 has 41.782 % of the basis function pairs === 
 === bvk cell = 46 has 25.948 % of the basis function pairs === 
 === bvk cell = 47 has 59.713 % of the basis function pairs === 
 === bvk cell = 48 has 97.241 % of the basis function pairs === 
 === bvk cell = 49 has 100.000 % of the basis function pairs === 
 === bvk cell = 50 has 62.672 % of the basis function pairs === 
 === bvk cell = 51 has 61.609 % of the basis function pairs === 
 === bvk cell = 52 has 100.000 % of the basis function pairs === 
 === bvk cell = 53 has 87.874 % of the basis function pairs === 
 === bvk cell = 54 has 41.782 % of the basis function pairs === 
 === bvk cell = 55 has 87.874 % of the basis function pairs === 
 === bvk cell = 56 has 62.672 % of the basis function pairs === 
 === bvk cell = 57 has 41.782 % of the basis function pairs === 
 === bvk cell = 58 has 25.948 % of the basis function pairs === 
 === bvk cell = 59 has 59.713 % of the basis function pairs === 
 === bvk cell = 60 has 61.609 % of the basis function pairs === 
 === bvk cell = 61 has 87.874 % of the basis function pairs === 
 === bvk cell = 62 has 59.713 % of the basis function pairs === 
 === bvk cell = 63 has 27.069 % of the basis function pairs === 
Static memory requirement for 2e3c SR integrals: 0.314 GB
There are 1 munu batches for computing 2e3c SR integrals with latsum
There are 5 Q batches for computing 2e3c SR integrals with latsum
 Time for computing 2e3c SR integral (CD) is 2.03 s
Maximum dynamic memory per thread for 2e3c SR integrals: 0.014 GiB
Batch size for basis function pair is 2000 out of 2000
 === bvk cell = 0 has 100.000 % of the basis function pairs === 
 === bvk cell = 1 has 79.800 % of the basis function pairs === 
 === bvk cell = 2 has 0.000 % of the basis function pairs === 
 === bvk cell = 3 has 69.800 % of the basis function pairs === 
 === bvk cell = 4 has 79.800 % of the basis function pairs === 
 === bvk cell = 5 has 22.100 % of the basis function pairs === 
 === bvk cell = 6 has 0.000 % of the basis function pairs === 
 === bvk cell = 7 has 88.750 % of the basis function pairs === 
 === bvk cell = 8 has 0.000 % of the basis function pairs === 
 === bvk cell = 9 has 0.000 % of the basis function pairs === 
 === bvk cell = 10 has 0.000 % of the basis function pairs === 
 === bvk cell = 11 has 0.000 % of the basis function pairs === 
 === bvk cell = 12 has 69.800 % of the basis function pairs === 
 === bvk cell = 13 has 88.750 % of the basis function pairs === 
 === bvk cell = 14 has 0.000 % of the basis function pairs === 
 === bvk cell = 15 has 14.350 % of the basis function pairs === 
 === bvk cell = 16 has 79.800 % of the basis function pairs === 
 === bvk cell = 17 has 22.100 % of the basis function pairs === 
 === bvk cell = 18 has 0.000 % of the basis function pairs === 
 === bvk cell = 19 has 88.750 % of the basis function pairs === 
 === bvk cell = 20 has 22.100 % of the basis function pairs === 
 === bvk cell = 21 has 0.000 % of the basis function pairs === 
 === bvk cell = 22 has 0.000 % of the basis function pairs === 
 === bvk cell = 23 has 45.900 % of the basis function pairs === 
 === bvk cell = 24 has 0.000 % of the basis function pairs === 
 === bvk cell = 25 has 0.000 % of the basis function pairs === 
 === bvk cell = 26 has 0.000 % of the basis function pairs === 
 === bvk cell = 27 has 0.000 % of the basis function pairs === 
 === bvk cell = 28 has 88.750 % of the basis function pairs === 
 === bvk cell = 29 has 45.900 % of the basis function pairs === 
 === bvk cell = 30 has 0.000 % of the basis function pairs === 
 === bvk cell = 31 has 38.150 % of the basis function pairs === 
 === bvk cell = 32 has 0.000 % of the basis function pairs === 
 === bvk cell = 33 has 0.000 % of the basis function pairs === 
 === bvk cell = 34 has 0.000 % of the basis function pairs === 
 === bvk cell = 35 has 0.000 % of the basis function pairs === 
 === bvk cell = 36 has 0.000 % of the basis function pairs === 
 === bvk cell = 37 has 0.000 % of the basis function pairs === 
 === bvk cell = 38 has 0.000 % of the basis function pairs === 
 === bvk cell = 39 has 0.000 % of the basis function pairs === 
 === bvk cell = 40 has 0.000 % of the basis function pairs === 
 === bvk cell = 41 has 0.000 % of the basis function pairs === 
 === bvk cell = 42 has 0.000 % of the basis function pairs === 
 === bvk cell = 43 has 0.000 % of the basis function pairs === 
 === bvk cell = 44 has 0.000 % of the basis function pairs === 
 === bvk cell = 45 has 0.000 % of the basis function pairs === 
 === bvk cell = 46 has 0.000 % of the basis function pairs === 
 === bvk cell = 47 has 0.000 % of the basis function pairs === 
 === bvk cell = 48 has 69.800 % of the basis function pairs === 
 === bvk cell = 49 has 88.750 % of the basis function pairs === 
 === bvk cell = 50 has 0.000 % of the basis function pairs === 
 === bvk cell = 51 has 14.350 % of the basis function pairs === 
 === bvk cell = 52 has 88.750 % of the basis function pairs === 
 === bvk cell = 53 has 45.900 % of the basis function pairs === 
 === bvk cell = 54 has 0.000 % of the basis function pairs === 
 === bvk cell = 55 has 38.150 % of the basis function pairs === 
 === bvk cell = 56 has 0.000 % of the basis function pairs === 
 === bvk cell = 57 has 0.000 % of the basis function pairs === 
 === bvk cell = 58 has 0.000 % of the basis function pairs === 
 === bvk cell = 59 has 0.000 % of the basis function pairs === 
 === bvk cell = 60 has 14.350 % of the basis function pairs === 
 === bvk cell = 61 has 38.150 % of the basis function pairs === 
 === bvk cell = 62 has 0.000 % of the basis function pairs === 
 === bvk cell = 63 has 0.000 % of the basis function pairs === 
Static memory requirement for 2e3c SR integrals: 0.064 GB
There are 1 munu batches for computing 2e3c SR integrals with latsum
There are 5 Q batches for computing 2e3c SR integrals with latsum
 Time for computing 2e3c SR integral (CC) is 0.40 s
 Time for RI-J this SCF iteration is 4.64 s
 Time for RI-J this SCF iteration is 2.05 s
 ----------------------------------------------
 Guess energy: -578.7814960026
 ----------------------------------------------
 Guess energy components:
 DFT Correlation    Energy =  -1.09214407456200
 DFT Exchange       Energy = -40.56971233031467
 Kinetic            Energy = 577.43238483398977
 Nuclear Attraction Energy = -1186.20087530795968
 Nuclear Repulsion  Energy = -102.89365928466421
 Total Coulomb      Energy = 174.54251016091834
 ----------------------------------------------
  Cycle       Energy         DIIS error
 ----------------------------------------------
 Time for RI-J this SCF iteration is 2.11 s
    1    -578.7868269760      1.06e-03  
 Energy components after cycle 1:
 DFT Correlation    Energy =  -1.09644962555852
 DFT Exchange       Energy = -40.47944985738397
 Kinetic            Energy = 576.58989213168365
 Nuclear Attraction Energy = -1184.38633564130873
 Nuclear Repulsion  Energy = -102.89365928466421
 Total Coulomb      Energy = 173.47917530127512
    2    -578.7868269760      5.61e-04  
 Energy components after cycle 2:
 DFT Correlation    Energy =  -1.09644962555852
 DFT Exchange       Energy = -40.47944985738397
 Kinetic            Energy = 576.58989213168365
 Nuclear Attraction Energy = -1184.38633564130873
 Nuclear Repulsion  Energy = -102.89365928466421
 Total Coulomb      Energy = 173.47917530127512
 ----------------------------------------------
  Cycle       Energy        RMS Gradient
 ----------------------------------------------
 Time for RI-J this SCF iteration is 2.09 s
    1    -578.7874429938      2.10e-02   Descent step
 Energy components after cycle 1:
 DFT Correlation    Energy =  -1.09527555154012
 DFT Exchange       Energy = -40.52146394567087
 Kinetic            Energy = 577.04343235140141
 Nuclear Attraction Energy = -1185.24424268219036
 Nuclear Repulsion  Energy = -102.89365928466421
 Total Coulomb      Energy = 173.92376611887778
 Time for RI-J this SCF iteration is 2.08 s
    2    -578.7879173230      1.99e-02   Normal BFGS step
 Energy components after cycle 2:
 DFT Correlation    Energy =  -1.09541076984575
 DFT Exchange       Energy = -40.51316759470610
 Kinetic            Energy = 576.94738251475894
 Nuclear Attraction Energy = -1185.07473485340756
 Nuclear Repulsion  Energy = -102.89365928466421
 Total Coulomb      Energy = 173.84167266484292
 Time for RI-J this SCF iteration is 2.05 s
    3    -578.7879370417      3.99e-03   Normal BFGS step
 Energy components after cycle 3:
 DFT Correlation    Energy =  -1.09559894177807
 DFT Exchange       Energy = -40.50584910308843
 Kinetic            Energy = 576.86752061987784
 Nuclear Attraction Energy = -1184.92586137551098
 Nuclear Repulsion  Energy = -102.89365928466421
 Total Coulomb      Energy = 173.76551104341547
 Time for RI-J this SCF iteration is 2.09 s
    4    -578.7879463507      2.09e-03   Normal BFGS step
 Energy components after cycle 4:
 DFT Correlation    Energy =  -1.09553472679632
 DFT Exchange       Energy = -40.50899682377855
 Kinetic            Energy = 576.90324494410868
 Nuclear Attraction Energy = -1184.99051442485370
 Nuclear Repulsion  Energy = -102.89365928466421
 Total Coulomb      Energy = 173.79751396527917
 Time for RI-J this SCF iteration is 2.05 s
    5    -578.7879463780      1.26e-04   Normal BFGS step
 Energy components after cycle 5:
 DFT Correlation    Energy =  -1.09552882133228
 DFT Exchange       Energy = -40.50909101825887
 Kinetic            Energy = 576.90400421682841
 Nuclear Attraction Energy = -1184.99235339610800
 Nuclear Repulsion  Energy = -102.89365928466421
 Total Coulomb      Energy = 173.79868192558052
 Time for RI-J this SCF iteration is 2.10 s
    6    -578.7879463865      5.65e-05   Normal BFGS step
 Energy components after cycle 6:
 DFT Correlation    Energy =  -1.09553081030085
 DFT Exchange       Energy = -40.50901734810648
 Kinetic            Energy = 576.90320730921496
 Nuclear Attraction Energy = -1184.99085605008145
 Nuclear Repulsion  Energy = -102.89365928466421
 Total Coulomb      Energy = 173.79790979745081
 Time for RI-J this SCF iteration is 2.04 s
    7    -578.7879463865      3.65e-06   Normal BFGS step
 Energy components after cycle 7:
 DFT Correlation    Energy =  -1.09553099338905
 DFT Exchange       Energy = -40.50902352765965
 Kinetic            Energy = 576.90330164891532
 Nuclear Attraction Energy = -1184.99099103798653
 Nuclear Repulsion  Energy = -102.89365928466421
 Total Coulomb      Energy = 173.79795680827431
    7    -578.7879463865      3.65e-06  Convergence criterion met
 ----------------------------------------------
 Final energy components:
 DFT Correlation    Energy =  -1.09553099338905
 DFT Exchange       Energy = -40.50902352765965
 Kinetic            Energy = 576.90330164891532
 Nuclear Attraction Energy = -1184.99099103798653
 Nuclear Repulsion  Energy = -102.89365928466421
 Total Coulomb      Energy = 173.79795680827431
 ----------------------------------------------
 Final energy is -578.7879463865

 SCF time:   CPU 1997.92s  wall 77.00s 
 Total wall time for computing Kinetic: 0.02 s (10)
 Total wall time for computing RIJ-BIGMEM: 23.30 s (10)
 Total wall time for computing RSDF Vnuc: 0.05 s (10)
 Total wall time for computing DFT XC: 30.65 s (10)
 ---------------------------------------------------------------------------
                        Orbital Energies (a.u.)
 ---------------------------------------------------------------------------
 == 0-th k-point (-0.15308,-0.15308,-0.15308) occupation: 14==
 -65.00276 -65.00275 -4.62533 -4.62510 -3.03705 -3.03705 -3.03699 -3.03649 -3.03640 -3.03640
 -0.13339 0.13218 0.24841 0.24841 0.35251 0.40641 0.40641 0.53159 0.54582 0.54582
 0.60636 0.71191 0.82191 0.82191 0.93964 0.93964 0.94600 1.01502 1.18276 1.18276
 1.26986 1.26986 1.32154 1.37947 1.38198 1.46631 1.46631 1.53592 1.53592 1.56713
 1.56713 1.70094 1.70094 1.71371 1.74405 1.77927 1.84675 1.84675 1.90593 1.93046
 1.94223 1.94223 2.04974 2.06968 2.06968 2.17472 2.17472 2.21383 2.24194 2.24194
 2.28754 2.53194 2.54722 2.57957 2.57957 2.64250 2.64250 2.67343 2.73842 2.73842
 2.92196 2.92294 2.92294 2.97566 3.03080 3.03080 3.07409 3.07409 3.12502 3.16511
 3.21127 3.21127 3.31726 3.31726 3.34971 3.42990 3.42990 3.46981 3.50344 3.50344
 3.51309 3.63582 3.64921 3.64921 3.78478 3.78478 3.80079 3.85585 3.85585 3.89003
 3.94610 4.02186 4.02186 4.32937 4.52550 4.52550 4.62784 7.58121 7.66521 7.66521
 8.55480 8.55480 10.62353 11.76382 13.97975
 == 1-th k-point (-0.00000,-0.00000,-0.30616) occupation: 14==
 -65.00276 -65.00276 -4.62532 -4.62511 -3.03707 -3.03707 -3.03695 -3.03650 -3.03641 -3.03641
 -0.12302 0.14806 0.20643 0.20643 0.31838 0.39307 0.49007 0.49007 0.57556 0.61201
 0.69524 0.75907 0.75907 0.78431 0.92174 0.92175 0.96175 1.03456 1.06020 1.22165
 1.26672 1.29604 1.29605 1.37166 1.37167 1.39297 1.40382 1.58734 1.59889 1.59889
 1.60429 1.66829 1.66836 1.66981 1.79773 1.79790 1.80702 1.82133 1.84903 1.95163
 1.95874 1.95942 2.02905 2.09474 2.12743 2.12759 2.19260 2.26927 2.26935 2.37634
 2.47179 2.54006 2.59028 2.59152 2.60186 2.61838 2.63339 2.65986 2.65993 2.81779
 2.84616 2.93338 2.93369 2.97161 2.97432 3.04770 3.17999 3.18050 3.18092 3.25358
 3.26371 3.31677 3.33349 3.33563 3.33912 3.34175 3.37429 3.38751 3.44887 3.45138
 3.54919 3.55238 3.60733 3.61510 3.76499 3.80866 3.80871 3.85185 4.00000 4.03143
 4.05006 4.05302 4.21494 4.45118 4.56472 4.57182 7.69089 7.69140 8.01765 9.69627
 9.88827 9.91179 12.54075 13.36591
 == 2-th k-point (0.15308,0.15308,-0.45924) occupation: 14==
 -65.00276 -65.00276 -4.62527 -4.62516 -3.03711 -3.03709 -3.03686 -3.03659 -3.03638 -3.03635
 -0.06269 0.04219 0.14585 0.19471 0.33317 0.44170 0.48945 0.49650 0.65417 0.67062
 0.73040 0.74680 0.75647 0.90153 0.93782 0.97011 0.99465 1.00784 1.01867 1.12575
 1.16621 1.21227 1.22968 1.32315 1.35892 1.37065 1.37262 1.44845 1.50048 1.56430
 1.60444 1.64007 1.67122 1.68539 1.71841 1.81801 1.90839 1.93054 1.93828 1.99386
 2.01835 2.04444 2.08192 2.13799 2.16602 2.20082 2.28399 2.31964 2.32999 2.37315
 2.45098 2.46177 2.50327 2.51923 2.61499 2.61704 2.66037 2.74329 2.79603 2.81441
 2.84026 2.90498 2.93431 2.95318 2.95996 3.02545 3.03611 3.05357 3.08484 3.13140
 3.15933 3.23570 3.31745 3.32650 3.33958 3.35020 3.35917 3.43840 3.49749 3.50670
 3.56623 3.65460 3.65768 3.71752 3.72135 3.79109 3.80176 3.84893 3.87827 3.98601
 4.07512 4.21193 4.25409 4.29585 4.56072 4.56942 8.10260 8.34326 8.40452 8.86066
 9.78057 9.94206 13.16274 14.19205
 == 3-th k-point (0.30616,0.30616,-0.61232) occupation: 14==
 -65.00276 -65.00276 -4.62529 -4.62514 -3.03710 -3.03708 -3.03691 -3.03655 -3.03638 -3.03635
 -0.08755 0.07550 0.13762 0.22727 0.36765 0.45367 0.46752 0.50331 0.51804 0.63297
 0.74338 0.76797 0.77289 0.89267 0.91795 0.92571 0.97310 1.07247 1.09003 1.16989
 1.20391 1.22067 1.27449 1.28464 1.32069 1.36385 1.41325 1.45517 1.56549 1.56923
 1.63751 1.66866 1.69228 1.69468 1.71592 1.72095 1.76745 1.88247 1.94782 1.98522
 2.01082 2.04097 2.11367 2.15912 2.21344 2.21694 2.26405 2.35168 2.36123 2.44074
 2.47261 2.49399 2.49602 2.52497 2.57549 2.58062 2.59757 2.75874 2.77341 2.81527
 2.83665 2.87232 2.88768 2.92090 2.94483 2.98756 3.08079 3.11232 3.12278 3.15942
 3.19798 3.30958 3.33869 3.38209 3.38658 3.40412 3.41073 3.42386 3.47798 3.48250
 3.48497 3.49018 3.63804 3.67814 3.70910 3.74325 3.79698 3.82677 3.91823 3.94248
 4.09109 4.14679 4.23965 4.35452 4.52707 4.60886 7.77181 8.29046 8.29877 9.00370
 9.32350 9.85753 13.08332 14.28162
 == 4-th k-point (-0.00000,-0.30616,0.00000) occupation: 14==
 -65.00276 -65.00276 -4.62532 -4.62511 -3.03707 -3.03707 -3.03695 -3.03650 -3.03641 -3.03641
 -0.12302 0.14806 0.20643 0.20643 0.31838 0.39307 0.49007 0.49007 0.57556 0.61201
 0.69524 0.75907 0.75907 0.78431 0.92174 0.92175 0.96175 1.03456 1.06020 1.22165
 1.26672 1.29604 1.29605 1.37166 1.37167 1.39297 1.40382 1.58734 1.59889 1.59889
 1.60429 1.66829 1.66836 1.66981 1.79773 1.79790 1.80702 1.82133 1.84903 1.95163
 1.95874 1.95942 2.02905 2.09474 2.12743 2.12759 2.19260 2.26927 2.26935 2.37634
 2.47179 2.54006 2.59028 2.59152 2.60186 2.61838 2.63339 2.65986 2.65993 2.81779
 2.84616 2.93338 2.93369 2.97161 2.97432 3.04770 3.17999 3.18050 3.18092 3.25358
 3.26371 3.31677 3.33349 3.33563 3.33912 3.34175 3.37429 3.38751 3.44887 3.45138
 3.54919 3.55238 3.60733 3.61510 3.76499 3.80866 3.80871 3.85185 4.00000 4.03143
 4.05006 4.05302 4.21494 4.45118 4.56472 4.57182 7.69089 7.69140 8.01765 9.69627
 9.88827 9.91179 12.54075 13.36591
 == 5-th k-point (0.15308,-0.15308,-0.15308) occupation: 14==
 -65.00276 -65.00275 -4.62533 -4.62510 -3.03705 -3.03705 -3.03699 -3.03649 -3.03640 -3.03640
 -0.13339 0.13218 0.24841 0.24841 0.35251 0.40641 0.40641 0.53159 0.54582 0.54582
 0.60636 0.71191 0.82191 0.82191 0.93964 0.93966 0.94600 1.01512 1.18276 1.18281
 1.26986 1.26987 1.32157 1.37947 1.38197 1.46631 1.46631 1.53592 1.53596 1.56713
 1.56713 1.70094 1.70107 1.71378 1.74405 1.77940 1.84675 1.84746 1.90598 1.93052
 1.94224 1.94264 2.04992 2.06968 2.06969 2.17471 2.17489 2.21402 2.24193 2.24310
 2.28747 2.53211 2.54722 2.57958 2.58081 2.64250 2.64253 2.67358 2.73847 2.74292
 2.92197 2.92294 2.92503 2.97587 3.03081 3.03234 3.07408 3.07498 3.12502 3.16533
 3.21128 3.21255 3.31728 3.32054 3.35300 3.42989 3.42991 3.46993 3.50344 3.50367
 3.51309 3.63947 3.64918 3.64983 3.78478 3.78529 3.80122 3.85588 3.85606 3.89037
 3.94609 4.02179 4.02180 4.32872 4.52548 4.52753 4.63035 7.58134 7.66520 7.66521
 8.55483 8.56145 10.63040 11.76408 13.98757
 == 6-th k-point (0.30616,0.00000,-0.30616) occupation: 14==
 -65.00276 -65.00276 -4.62529 -4.62514 -3.03710 -3.03708 -3.03691 -3.03655 -3.03638 -3.03635
 -0.08755 0.07550 0.13762 0.22727 0.36765 0.45367 0.46752 0.50331 0.51804 0.63297
 0.74337 0.76797 0.77288 0.89267 0.91795 0.92571 0.97311 1.07247 1.09003 1.16987
 1.20383 1.22069 1.27449 1.28463 1.32069 1.36385 1.41324 1.45510 1.56549 1.56945
 1.63751 1.66867 1.69226 1.69458 1.71592 1.72088 1.76742 1.88237 1.94782 1.98520
 2.01081 2.04073 2.11364 2.15903 2.21333 2.21816 2.26394 2.35168 2.36122 2.44487
 2.47262 2.49396 2.49689 2.52455 2.57537 2.58081 2.59751 2.75933 2.77338 2.81513
 2.83660 2.87214 2.88766 2.92090 2.94483 2.98756 3.08034 3.11279 3.12260 3.15935
 3.19852 3.30954 3.33790 3.38204 3.38618 3.40402 3.41072 3.42345 3.48043 3.48481
 3.48602 3.49025 3.63727 3.67779 3.70936 3.73861 3.79682 3.82899 3.91807 3.94225
 4.09112 4.14669 4.23946 4.35459 4.52743 4.60834 7.77174 8.29046 8.29999 9.00326
 9.31994 9.85631 13.08051 14.28121
 == 7-th k-point (0.45924,0.15308,-0.45924) occupation: 14==
 -65.00276 -65.00276 -4.62527 -4.62516 -3.03711 -3.03709 -3.03686 -3.03659 -3.03638 -3.03635
 -0.06269 0.04219 0.14585 0.19471 0.33317 0.44170 0.48945 0.49650 0.65417 0.67062
 0.73040 0.74680 0.75647 0.90153 0.93782 0.97011 0.99465 1.00784 1.01867 1.12576
 1.16621 1.21227 1.22968 1.32315 1.35892 1.37064 1.37262 1.44844 1.50048 1.56430
 1.60445 1.64006 1.67121 1.68539 1.71840 1.81801 1.90837 1.93057 1.93827 1.99386
 2.01835 2.04443 2.08188 2.13787 2.16601 2.20082 2.28396 2.31966 2.32994 2.37319
 2.45096 2.46177 2.50327 2.51923 2.61500 2.61702 2.66038 2.74330 2.79601 2.81440
 2.84024 2.90498 2.93412 2.95317 2.95994 3.02548 3.03608 3.05356 3.08486 3.13103
 3.15924 3.23568 3.31745 3.32636 3.33956 3.35023 3.35918 3.43829 3.49738 3.50666
 3.56625 3.65459 3.65771 3.71758 3.72138 3.79112 3.80135 3.84889 3.87805 3.98596
 4.07498 4.21156 4.25409 4.29582 4.56031 4.56936 8.10261 8.34326 8.40452 8.86058
 9.77931 9.94161 13.16259 14.19187
 == 8-th k-point (0.15308,-0.45924,0.15308) occupation: 14==
 -65.00276 -65.00276 -4.62527 -4.62516 -3.03711 -3.03709 -3.03686 -3.03659 -3.03638 -3.03635
 -0.06269 0.04219 0.14585 0.19471 0.33317 0.44170 0.48945 0.49650 0.65417 0.67062
 0.73040 0.74680 0.75647 0.90153 0.93782 0.97011 0.99465 1.00784 1.01867 1.12575
 1.16621 1.21227 1.22968 1.32315 1.35892 1.37065 1.37262 1.44845 1.50048 1.56430
 1.60444 1.64007 1.67122 1.68539 1.71841 1.81801 1.90839 1.93054 1.93828 1.99386
 2.01835 2.04444 2.08192 2.13799 2.16602 2.20082 2.28399 2.31964 2.32999 2.37315
 2.45098 2.46177 2.50327 2.51923 2.61499 2.61704 2.66037 2.74329 2.79603 2.81441
 2.84026 2.90498 2.93431 2.95318 2.95996 3.02545 3.03611 3.05357 3.08484 3.13140
 3.15933 3.23570 3.31745 3.32650 3.33958 3.35020 3.35917 3.43840 3.49749 3.50670
 3.56623 3.65460 3.65768 3.71752 3.72135 3.79109 3.80176 3.84893 3.87827 3.98601
 4.07512 4.21193 4.25409 4.29585 4.56072 4.56942 8.10260 8.34326 8.40452 8.86066
 9.78057 9.94206 13.16274 14.19205
 == 9-th k-point (0.30616,-0.30616,0.00000) occupation: 14==
 -65.00276 -65.00276 -4.62529 -4.62514 -3.03710 -3.03708 -3.03691 -3.03655 -3.03638 -3.03635
 -0.08755 0.07550 0.13762 0.22727 0.36765 0.45367 0.46752 0.50331 0.51804 0.63297
 0.74337 0.76797 0.77288 0.89267 0.91795 0.92571 0.97311 1.07247 1.09003 1.16987
 1.20383 1.22069 1.27449 1.28463 1.32069 1.36385 1.41324 1.45510 1.56549 1.56945
 1.63751 1.66867 1.69226 1.69458 1.71592 1.72088 1.76742 1.88237 1.94782 1.98520
 2.01081 2.04073 2.11364 2.15903 2.21333 2.21816 2.26394 2.35168 2.36122 2.44487
 2.47262 2.49396 2.49689 2.52455 2.57537 2.58081 2.59751 2.75933 2.77338 2.81513
 2.83660 2.87214 2.88766 2.92090 2.94483 2.98756 3.08034 3.11279 3.12260 3.15935
 3.19852 3.30954 3.33790 3.38204 3.38618 3.40402 3.41072 3.42345 3.48043 3.48481
 3.48602 3.49025 3.63727 3.67779 3.70936 3.73861 3.79682 3.82899 3.91807 3.94225
 4.09112 4.14669 4.23946 4.35459 4.52743 4.60834 7.77174 8.29046 8.29999 9.00326
 9.31994 9.85631 13.08051 14.28121
 == 10-th k-point (0.45924,-0.15308,-0.15308) occupation: 14==
 -65.00276 -65.00276 -4.62527 -4.62516 -3.03711 -3.03709 -3.03686 -3.03659 -3.03638 -3.03635
 -0.06269 0.04219 0.14585 0.19471 0.33317 0.44170 0.48945 0.49650 0.65417 0.67062
 0.73040 0.74680 0.75647 0.90153 0.93782 0.97011 0.99465 1.00784 1.01867 1.12575
 1.16621 1.21227 1.22968 1.32315 1.35892 1.37065 1.37262 1.44845 1.50048 1.56430
 1.60444 1.64007 1.67122 1.68539 1.71841 1.81801 1.90839 1.93054 1.93828 1.99386
 2.01835 2.04444 2.08192 2.13799 2.16602 2.20082 2.28399 2.31964 2.32999 2.37315
 2.45098 2.46177 2.50327 2.51923 2.61499 2.61704 2.66037 2.74329 2.79603 2.81441
 2.84026 2.90498 2.93431 2.95318 2.95996 3.02545 3.03611 3.05357 3.08484 3.13140
 3.15933 3.23570 3.31745 3.32650 3.33958 3.35020 3.35917 3.43840 3.49749 3.50670
 3.56623 3.65460 3.65768 3.71752 3.72135 3.79109 3.80176 3.84893 3.87827 3.98601
 4.07512 4.21193 4.25409 4.29585 4.56072 4.56942 8.10260 8.34326 8.40452 8.86066
 9.78057 9.94206 13.16274 14.19205
 == 11-th k-point (0.61232,0.00000,-0.30616) occupation: 14==
 -65.00276 -65.00276 -4.62521 -4.62521 -3.03711 -3.03711 -3.03673 -3.03673 -3.03635 -3.03635
 -0.00410 -0.00410 0.13378 0.13378 0.43513 0.43513 0.46184 0.46184 0.67068 0.67068
 0.76029 0.76029 0.88542 0.88543 0.96330 0.96330 0.98284 0.98284 1.02056 1.02056
 1.15492 1.15492 1.29985 1.29988 1.30778 1.30779 1.38099 1.38099 1.51143 1.51149
 1.68386 1.68389 1.69800 1.69803 1.79624 1.79626 1.89086 1.89087 1.95339 1.95340
 2.04409 2.04410 2.17248 2.17255 2.17527 2.17528 2.33995 2.34004 2.38857 2.38863
 2.39119 2.39124 2.54079 2.54098 2.62642 2.62644 2.72551 2.72590 2.85526 2.85535
 2.88142 2.88143 2.88990 2.88991 2.98390 2.98421 3.04189 3.04199 3.11420 3.11422
 3.24250 3.24259 3.34380 3.34387 3.34538 3.34561 3.46580 3.46583 3.47614 3.47621
 3.55784 3.55803 3.56509 3.56536 3.68129 3.68233 3.77723 3.77726 4.00460 4.00480
 4.11348 4.11388 4.26323 4.26358 4.57934 4.58088 8.41209 8.41212 8.77783 8.77802
 9.54163 9.54459 13.73214 13.73230
 == 12-th k-point (0.30616,-0.61232,0.30616) occupation: 14==
 -65.00276 -65.00276 -4.62529 -4.62514 -3.03710 -3.03708 -3.03691 -3.03655 -3.03638 -3.03635
 -0.08755 0.07550 0.13762 0.22727 0.36765 0.45367 0.46752 0.50331 0.51804 0.63297
 0.74338 0.76797 0.77289 0.89267 0.91795 0.92571 0.97310 1.07247 1.09003 1.16989
 1.20391 1.22067 1.27449 1.28464 1.32069 1.36385 1.41325 1.45517 1.56549 1.56923
 1.63751 1.66866 1.69228 1.69468 1.71592 1.72095 1.76745 1.88247 1.94782 1.98522
 2.01082 2.04097 2.11367 2.15912 2.21344 2.21694 2.26405 2.35168 2.36123 2.44074
 2.47261 2.49399 2.49602 2.52497 2.57549 2.58062 2.59757 2.75874 2.77341 2.81527
 2.83665 2.87232 2.88768 2.92090 2.94483 2.98756 3.08079 3.11232 3.12278 3.15942
 3.19798 3.30958 3.33869 3.38209 3.38658 3.40412 3.41073 3.42386 3.47798 3.48250
 3.48497 3.49018 3.63804 3.67814 3.70910 3.74325 3.79698 3.82677 3.91823 3.94248
 4.09109 4.14679 4.23965 4.35452 4.52707 4.60886 7.77181 8.29046 8.29877 9.00370
 9.32350 9.85753 13.08332 14.28162
 == 13-th k-point (0.45924,-0.45924,0.15308) occupation: 14==
 -65.00276 -65.00276 -4.62527 -4.62516 -3.03711 -3.03709 -3.03686 -3.03659 -3.03638 -3.03635
 -0.06269 0.04219 0.14585 0.19471 0.33317 0.44170 0.48945 0.49650 0.65417 0.67062
 0.73040 0.74680 0.75647 0.90153 0.93782 0.97011 0.99465 1.00784 1.01867 1.12576
 1.16621 1.21227 1.22968 1.32315 1.35892 1.37064 1.37262 1.44844 1.50048 1.56430
 1.60445 1.64006 1.67121 1.68539 1.71840 1.81801 1.90837 1.93057 1.93827 1.99386
 2.01835 2.04443 2.08188 2.13787 2.16601 2.20082 2.28396 2.31966 2.32994 2.37319
 2.45096 2.46177 2.50327 2.51923 2.61500 2.61702 2.66038 2.74330 2.79601 2.81440
 2.84024 2.90498 2.93412 2.95317 2.95994 3.02548 3.03608 3.05356 3.08486 3.13103
 3.15924 3.23568 3.31745 3.32636 3.33956 3.35023 3.35918 3.43829 3.49738 3.50666
 3.56625 3.65459 3.65771 3.71758 3.72138 3.79112 3.80135 3.84889 3.87805 3.98596
 4.07498 4.21156 4.25409 4.29582 4.56031 4.56936 8.10261 8.34326 8.40452 8.86058
 9.77931 9.94161 13.16259 14.19187
 == 14-th k-point (0.61232,-0.30616,0.00000) occupation: 14==
 -65.00276 -65.00276 -4.62521 -4.62521 -3.03711 -3.03711 -3.03673 -3.03673 -3.03635 -3.03635
 -0.00410 -0.00410 0.13378 0.13378 0.43513 0.43513 0.46184 0.46184 0.67068 0.67068
 0.76029 0.76029 0.88542 0.88543 0.96330 0.96330 0.98284 0.98284 1.02056 1.02056
 1.15492 1.15492 1.29985 1.29988 1.30778 1.30779 1.38099 1.38099 1.51143 1.51149
 1.68386 1.68389 1.69800 1.69803 1.79624 1.79626 1.89086 1.89087 1.95339 1.95340
 2.04409 2.04410 2.17248 2.17255 2.17527 2.17528 2.33995 2.34004 2.38857 2.38863
 2.39119 2.39124 2.54079 2.54098 2.62642 2.62644 2.72551 2.72590 2.85526 2.85535
 2.88142 2.88143 2.88990 2.88991 2.98390 2.98421 3.04189 3.04199 3.11420 3.11422
 3.24250 3.24259 3.34380 3.34387 3.34538 3.34561 3.46580 3.46583 3.47614 3.47621
 3.55784 3.55803 3.56509 3.56536 3.68129 3.68233 3.77723 3.77726 4.00460 4.00480
 4.11348 4.11388 4.26323 4.26358 4.57934 4.58088 8.41209 8.41212 8.77783 8.77802
 9.54163 9.54459 13.73214 13.73230
 == 15-th k-point (0.76541,-0.15308,-0.15308) occupation: 14==
 -65.00276 -65.00276 -4.62527 -4.62516 -3.03711 -3.03709 -3.03686 -3.03659 -3.03638 -3.03635
 -0.06269 0.04219 0.14585 0.19471 0.33317 0.44170 0.48945 0.49650 0.65417 0.67063
 0.73040 0.74680 0.75647 0.90153 0.93782 0.97011 0.99465 1.00784 1.01867 1.12575
 1.16621 1.21227 1.22968 1.32315 1.35892 1.37065 1.37262 1.44844 1.50050 1.56430
 1.60446 1.64007 1.67122 1.68540 1.71839 1.81801 1.90838 1.93058 1.93828 1.99386
 2.01836 2.04443 2.08193 2.13797 2.16602 2.20082 2.28394 2.31966 2.32998 2.37319
 2.45097 2.46177 2.50325 2.51923 2.61498 2.61704 2.66037 2.74330 2.79603 2.81441
 2.84026 2.90497 2.93430 2.95318 2.95993 3.02548 3.03610 3.05357 3.08487 3.13137
 3.15932 3.23572 3.31743 3.32651 3.33963 3.35017 3.35917 3.43842 3.49746 3.50670
 3.56623 3.65461 3.65752 3.71774 3.72133 3.79117 3.80142 3.84892 3.87832 3.98603
 4.07509 4.21192 4.25400 4.29600 4.56069 4.56950 8.10261 8.34325 8.40450 8.86058
 9.78054 9.94209 13.16270 14.19226
 == 16-th k-point (-0.30616,-0.00000,-0.00000) occupation: 14==
 -65.00276 -65.00276 -4.62532 -4.62511 -3.03707 -3.03707 -3.03695 -3.03650 -3.03641 -3.03641
 -0.12302 0.14806 0.20643 0.20643 0.31838 0.39307 0.49007 0.49007 0.57556 0.61201
 0.69524 0.75907 0.75907 0.78431 0.92174 0.92175 0.96175 1.03456 1.06020 1.22165
 1.26672 1.29604 1.29605 1.37166 1.37167 1.39297 1.40382 1.58734 1.59889 1.59889
 1.60429 1.66829 1.66836 1.66981 1.79773 1.79790 1.80702 1.82133 1.84903 1.95163
 1.95874 1.95942 2.02905 2.09474 2.12743 2.12759 2.19260 2.26927 2.26935 2.37634
 2.47179 2.54006 2.59028 2.59152 2.60186 2.61838 2.63339 2.65986 2.65993 2.81779
 2.84616 2.93338 2.93369 2.97161 2.97432 3.04770 3.17999 3.18050 3.18092 3.25358
 3.26371 3.31677 3.33349 3.33563 3.33912 3.34175 3.37429 3.38751 3.44887 3.45138
 3.54919 3.55238 3.60733 3.61510 3.76499 3.80866 3.80871 3.85185 4.00000 4.03143
 4.05006 4.05302 4.21494 4.45118 4.56472 4.57182 7.69089 7.69140 8.01765 9.69627
 9.88827 9.91179 12.54075 13.36591
 == 17-th k-point (-0.15308,0.15308,-0.15308) occupation: 14==
 -65.00276 -65.00275 -4.62533 -4.62510 -3.03705 -3.03705 -3.03699 -3.03649 -3.03640 -3.03640
 -0.13339 0.13218 0.24841 0.24841 0.35251 0.40641 0.40641 0.53159 0.54582 0.54582
 0.60636 0.71191 0.82191 0.82191 0.93964 0.93966 0.94600 1.01512 1.18276 1.18281
 1.26986 1.26987 1.32157 1.37947 1.38197 1.46631 1.46631 1.53592 1.53596 1.56713
 1.56713 1.70094 1.70107 1.71378 1.74405 1.77940 1.84675 1.84746 1.90598 1.93052
 1.94224 1.94264 2.04992 2.06968 2.06969 2.17471 2.17489 2.21402 2.24193 2.24310
 2.28747 2.53211 2.54722 2.57958 2.58081 2.64250 2.64253 2.67358 2.73847 2.74292
 2.92197 2.92294 2.92503 2.97587 3.03081 3.03234 3.07408 3.07498 3.12502 3.16533
 3.21128 3.21255 3.31728 3.32054 3.35300 3.42989 3.42991 3.46993 3.50344 3.50367
 3.51309 3.63947 3.64918 3.64983 3.78478 3.78529 3.80122 3.85588 3.85606 3.89037
 3.94609 4.02179 4.02180 4.32872 4.52548 4.52753 4.63035 7.58134 7.66520 7.66521
 8.55483 8.56145 10.63040 11.76408 13.98757
 == 18-th k-point (0.00000,0.30616,-0.30616) occupation: 14==
 -65.00276 -65.00276 -4.62529 -4.62514 -3.03710 -3.03708 -3.03691 -3.03655 -3.03638 -3.03635
 -0.08755 0.07550 0.13762 0.22727 0.36765 0.45367 0.46752 0.50331 0.51804 0.63297
 0.74337 0.76797 0.77288 0.89267 0.91795 0.92571 0.97311 1.07247 1.09003 1.16987
 1.20383 1.22069 1.27449 1.28463 1.32069 1.36385 1.41324 1.45510 1.56549 1.56945
 1.63751 1.66867 1.69226 1.69458 1.71592 1.72088 1.76742 1.88237 1.94782 1.98520
 2.01081 2.04073 2.11364 2.15903 2.21333 2.21816 2.26394 2.35168 2.36122 2.44487
 2.47262 2.49396 2.49689 2.52455 2.57537 2.58081 2.59751 2.75933 2.77338 2.81513
 2.83660 2.87214 2.88766 2.92090 2.94483 2.98756 3.08034 3.11279 3.12260 3.15935
 3.19852 3.30954 3.33790 3.38204 3.38618 3.40402 3.41072 3.42345 3.48043 3.48481
 3.48602 3.49025 3.63727 3.67779 3.70936 3.73861 3.79682 3.82899 3.91807 3.94225
 4.09112 4.14669 4.23946 4.35459 4.52743 4.60834 7.77174 8.29046 8.29999 9.00326
 9.31994 9.85631 13.08051 14.28121
 == 19-th k-point (0.15308,0.45924,-0.45924) occupation: 14==
 -65.00276 -65.00276 -4.62527 -4.62516 -3.03711 -3.03709 -3.03686 -3.03659 -3.03638 -3.03635
 -0.06269 0.04219 0.14585 0.19471 0.33317 0.44170 0.48945 0.49650 0.65417 0.67062
 0.73040 0.74680 0.75647 0.90153 0.93782 0.97011 0.99465 1.00784 1.01867 1.12576
 1.16621 1.21227 1.22968 1.32315 1.35892 1.37064 1.37262 1.44844 1.50048 1.56430
 1.60445 1.64006 1.67121 1.68539 1.71840 1.81801 1.90837 1.93057 1.93827 1.99386
 2.01835 2.04443 2.08188 2.13787 2.16601 2.20082 2.28396 2.31966 2.32994 2.37319
 2.45096 2.46177 2.50327 2.51923 2.61500 2.61702 2.66038 2.74330 2.79601 2.81440
 2.84024 2.90498 2.93412 2.95317 2.95994 3.02548 3.03608 3.05356 3.08486 3.13103
 3.15924 3.23568 3.31745 3.32636 3.33956 3.35023 3.35918 3.43829 3.49738 3.50666
 3.56625 3.65459 3.65771 3.71758 3.72138 3.79112 3.80135 3.84889 3.87805 3.98596
 4.07498 4.21156 4.25409 4.29582 4.56031 4.56936 8.10261 8.34326 8.40452 8.86058
 9.77931 9.94161 13.16259 14.19187
 == 20-th k-point (-0.15308,-0.15308,0.15308) occupation: 14==
 -65.00276 -65.00275 -4.62533 -4.62510 -3.03705 -3.03705 -3.03699 -3.03649 -3.03640 -3.03640
 -0.13339 0.13218 0.24841 0.24841 0.35251 0.40641 0.40641 0.53159 0.54582 0.54582
 0.60636 0.71191 0.82191 0.82191 0.93964 0.93966 0.94600 1.01512 1.18276 1.18281
 1.26986 1.26987 1.32157 1.37947 1.38197 1.46631 1.46631 1.53592 1.53596 1.56713
 1.56713 1.70094 1.70107 1.71378 1.74405 1.77940 1.84675 1.84746 1.90598 1.93052
 1.94224 1.94264 2.04992 2.06968 2.06969 2.17471 2.17489 2.21402 2.24193 2.24310
 2.28747 2.53211 2.54722 2.57958 2.58081 2.64250 2.64253 2.67358 2.73847 2.74292
 2.92197 2.92294 2.92503 2.97587 3.03081 3.03234 3.07408 3.07498 3.12502 3.16533
 3.21128 3.21255 3.31728 3.32054 3.35300 3.42989 3.42991 3.46993 3.50344 3.50367
 3.51309 3.63947 3.64918 3.64983 3.78478 3.78529 3.80122 3.85588 3.85606 3.89037
 3.94609 4.02179 4.02180 4.32872 4.52548 4.52753 4.63035 7.58134 7.66520 7.66521
 8.55483 8.56145 10.63040 11.76408 13.98757
 == 21-th k-point (0.00000,0.00000,0.00000) occupation: 14==
 -65.00276 -65.00275 -4.62536 -4.62507 -3.03701 -3.03701 -3.03701 -3.03641 -3.03641 -3.03641
 -0.16283 0.27685 0.27685 0.27685 0.37108 0.37108 0.37108 0.40256 0.56727 0.56727
 0.56740 0.69087 0.69088 0.69088 0.84089 1.14349 1.14370 1.14370 1.18900 1.18900
 1.23464 1.23464 1.23465 1.35527 1.35527 1.35527 1.59039 1.59039 1.59045 1.73479
 1.73479 1.81237 1.81237 1.82499 1.83968 1.84138 1.84138 1.90332 1.90333 1.90333
 1.92146 1.93712 1.93712 1.93713 1.94375 1.94440 1.94440 2.14189 2.29523 2.29523
 2.29523 2.31302 2.32933 2.32933 2.39553 2.39553 2.39643 2.50332 2.89242 2.94965
 2.94965 2.94966 2.97923 2.97923 3.13103 3.13757 3.13757 3.17835 3.17835 3.17836
 3.18985 3.18985 3.33863 3.33871 3.33871 3.40977 3.40977 3.48451 3.48451 3.48451
 3.54897 3.54897 3.55843 3.63751 3.63751 3.63786 3.68447 3.68648 3.68648 4.07576
 4.25055 4.25055 4.25063 4.39172 4.39172 4.39263 4.43209 7.41518 7.41606 7.41606
 7.56116 7.56116 7.56157 11.12402 12.56835
 == 22-th k-point (0.15308,0.15308,-0.15308) occupation: 14==
 -65.00276 -65.00275 -4.62533 -4.62510 -3.03705 -3.03705 -3.03699 -3.03649 -3.03640 -3.03640
 -0.13339 0.13218 0.24841 0.24841 0.35251 0.40641 0.40641 0.53159 0.54582 0.54582
 0.60636 0.71191 0.82191 0.82191 0.93964 0.93966 0.94600 1.01512 1.18276 1.18281
 1.26986 1.26987 1.32157 1.37947 1.38197 1.46631 1.46631 1.53592 1.53596 1.56713
 1.56713 1.70094 1.70107 1.71378 1.74405 1.77940 1.84675 1.84746 1.90598 1.93052
 1.94224 1.94264 2.04992 2.06968 2.06969 2.17471 2.17489 2.21402 2.24193 2.24310
 2.28747 2.53211 2.54722 2.57958 2.58081 2.64250 2.64253 2.67358 2.73847 2.74292
 2.92197 2.92294 2.92503 2.97587 3.03081 3.03234 3.07408 3.07498 3.12502 3.16533
 3.21128 3.21255 3.31728 3.32054 3.35300 3.42989 3.42991 3.46993 3.50344 3.50367
 3.51309 3.63947 3.64918 3.64983 3.78478 3.78529 3.80122 3.85588 3.85606 3.89037
 3.94609 4.02179 4.02180 4.32872 4.52548 4.52753 4.63035 7.58134 7.66520 7.66521
 8.55483 8.56145 10.63040 11.76408 13.98757
 == 23-th k-point (0.30616,0.30616,-0.30616) occupation: 14==
 -65.00277 -65.00275 -4.62529 -4.62514 -3.03708 -3.03708 -3.03696 -3.03650 -3.03638 -3.03638
 -0.07677 0.01986 0.23203 0.23203 0.33480 0.40070 0.40070 0.55934 0.67360 0.67360
 0.69471 0.69617 0.69617 0.75535 1.00160 1.01602 1.09170 1.09171 1.09556 1.09561
 1.24033 1.26117 1.26118 1.30850 1.30851 1.35803 1.41738 1.49146 1.49157 1.50192
 1.50199 1.58527 1.62574 1.65451 1.88052 1.88053 1.88793 1.90895 1.90909 1.92102
 2.12847 2.12869 2.19298 2.19690 2.19726 2.24640 2.26946 2.27131 2.33307 2.33465
 2.46263 2.46335 2.55687 2.55801 2.60265 2.68084 2.74912 2.77534 2.77571 2.79597
 2.81772 2.81917 2.82906 2.92107 2.95128 2.96309 3.09682 3.09716 3.09864 3.09907
 3.19324 3.19336 3.21167 3.21380 3.31628 3.46624 3.46708 3.55330 3.55613 3.55737
 3.56552 3.66561 3.67468 3.69291 3.73197 3.76199 3.93326 3.93497 4.00245 4.00724
 4.12936 4.14777 4.15027 4.33740 4.43941 4.44090 8.25669 8.26070 8.33141 9.36524
 9.36674 10.00759 11.95265 14.72398
 == 24-th k-point (-0.00000,-0.30616,0.30616) occupation: 14==
 -65.00276 -65.00276 -4.62529 -4.62514 -3.03710 -3.03708 -3.03691 -3.03655 -3.03638 -3.03635
 -0.08755 0.07550 0.13762 0.22727 0.36765 0.45367 0.46752 0.50331 0.51804 0.63297
 0.74337 0.76797 0.77288 0.89267 0.91795 0.92571 0.97311 1.07247 1.09003 1.16987
 1.20383 1.22069 1.27449 1.28463 1.32069 1.36385 1.41324 1.45510 1.56549 1.56945
 1.63751 1.66867 1.69226 1.69458 1.71592 1.72088 1.76742 1.88237 1.94782 1.98520
 2.01081 2.04073 2.11364 2.15903 2.21333 2.21816 2.26394 2.35168 2.36122 2.44487
 2.47262 2.49396 2.49689 2.52455 2.57537 2.58081 2.59751 2.75933 2.77338 2.81513
 2.83660 2.87214 2.88766 2.92090 2.94483 2.98756 3.08034 3.11279 3.12260 3.15935
 3.19852 3.30954 3.33790 3.38204 3.38618 3.40402 3.41072 3.42345 3.48043 3.48481
 3.48602 3.49025 3.63727 3.67779 3.70936 3.73861 3.79682 3.82899 3.91807 3.94225
 4.09112 4.14669 4.23946 4.35459 4.52743 4.60834 7.77174 8.29046 8.29999 9.00326
 9.31994 9.85631 13.08051 14.28121
 == 25-th k-point (0.15308,-0.15308,0.15308) occupation: 14==
 -65.00276 -65.00275 -4.62533 -4.62510 -3.03705 -3.03705 -3.03699 -3.03649 -3.03640 -3.03640
 -0.13339 0.13218 0.24841 0.24841 0.35251 0.40641 0.40641 0.53159 0.54582 0.54582
 0.60636 0.71191 0.82191 0.82191 0.93964 0.93966 0.94600 1.01512 1.18276 1.18281
 1.26986 1.26987 1.32157 1.37947 1.38197 1.46631 1.46631 1.53592 1.53596 1.56713
 1.56713 1.70094 1.70107 1.71378 1.74405 1.77940 1.84675 1.84746 1.90598 1.93052
 1.94224 1.94264 2.04992 2.06968 2.06969 2.17471 2.17489 2.21402 2.24193 2.24310
 2.28747 2.53211 2.54722 2.57958 2.58081 2.64250 2.64253 2.67358 2.73847 2.74292
 2.92197 2.92294 2.92503 2.97587 3.03081 3.03234 3.07408 3.07498 3.12502 3.16533
 3.21128 3.21255 3.31728 3.32054 3.35300 3.42989 3.42991 3.46993 3.50344 3.50367
 3.51309 3.63947 3.64918 3.64983 3.78478 3.78529 3.80122 3.85588 3.85606 3.89037
 3.94609 4.02179 4.02180 4.32872 4.52548 4.52753 4.63035 7.58134 7.66520 7.66521
 8.55483 8.56145 10.63040 11.76408 13.98757
 == 26-th k-point (0.30616,0.00000,0.00000) occupation: 14==
 -65.00276 -65.00276 -4.62532 -4.62511 -3.03707 -3.03707 -3.03695 -3.03650 -3.03641 -3.03641
 -0.12302 0.14806 0.20643 0.20643 0.31838 0.39307 0.49007 0.49007 0.57556 0.61201
 0.69524 0.75907 0.75907 0.78431 0.92174 0.92175 0.96175 1.03456 1.06020 1.22165
 1.26672 1.29604 1.29605 1.37166 1.37167 1.39297 1.40382 1.58734 1.59889 1.59889
 1.60429 1.66829 1.66836 1.66981 1.79773 1.79790 1.80702 1.82133 1.84903 1.95163
 1.95874 1.95942 2.02905 2.09474 2.12743 2.12759 2.19260 2.26927 2.26935 2.37634
 2.47179 2.54006 2.59028 2.59152 2.60186 2.61838 2.63339 2.65986 2.65993 2.81779
 2.84616 2.93338 2.93369 2.97161 2.97432 3.04770 3.17999 3.18050 3.18092 3.25358
 3.26371 3.31677 3.33349 3.33563 3.33912 3.34175 3.37429 3.38751 3.44887 3.45138
 3.54919 3.55238 3.60733 3.61510 3.76499 3.80866 3.80871 3.85185 4.00000 4.03143
 4.05006 4.05302 4.21494 4.45118 4.56472 4.57182 7.69089 7.69140 8.01765 9.69627
 9.88827 9.91179 12.54075 13.36591
 == 27-th k-point (0.45924,0.15308,-0.15308) occupation: 14==
 -65.00276 -65.00276 -4.62527 -4.62516 -3.03711 -3.03709 -3.03686 -3.03659 -3.03638 -3.03635
 -0.06269 0.04219 0.14585 0.19471 0.33317 0.44170 0.48945 0.49650 0.65417 0.67062
 0.73040 0.74680 0.75647 0.90153 0.93782 0.97011 0.99465 1.00784 1.01867 1.12576
 1.16621 1.21227 1.22968 1.32315 1.35892 1.37064 1.37262 1.44844 1.50048 1.56430
 1.60445 1.64006 1.67121 1.68539 1.71840 1.81801 1.90837 1.93057 1.93827 1.99386
 2.01835 2.04443 2.08188 2.13787 2.16601 2.20082 2.28396 2.31966 2.32994 2.37319
 2.45096 2.46177 2.50327 2.51923 2.61500 2.61702 2.66038 2.74330 2.79601 2.81440
 2.84024 2.90498 2.93412 2.95317 2.95994 3.02548 3.03608 3.05356 3.08486 3.13103
 3.15924 3.23568 3.31745 3.32636 3.33956 3.35023 3.35918 3.43829 3.49738 3.50666
 3.56625 3.65459 3.65771 3.71758 3.72138 3.79112 3.80135 3.84889 3.87805 3.98596
 4.07498 4.21156 4.25409 4.29582 4.56031 4.56936 8.10261 8.34326 8.40452 8.86058
 9.77931 9.94161 13.16259 14.19187
 == 28-th k-point (0.15308,-0.45924,0.45924) occupation: 14==
 -65.00276 -65.00276 -4.62527 -4.62516 -3.03711 -3.03709 -3.03686 -3.03659 -3.03638 -3.03635
 -0.06269 0.04219 0.14585 0.19471 0.33317 0.44170 0.48945 0.49650 0.65417 0.67062
 0.73040 0.74680 0.75647 0.90153 0.93782 0.97011 0.99465 1.00784 1.01867 1.12576
 1.16621 1.21227 1.22968 1.32315 1.35892 1.37064 1.37262 1.44844 1.50048 1.56430
 1.60445 1.64006 1.67121 1.68539 1.71840 1.81801 1.90837 1.93057 1.93827 1.99386
 2.01835 2.04443 2.08188 2.13787 2.16601 2.20082 2.28396 2.31966 2.32994 2.37319
 2.45096 2.46177 2.50327 2.51923 2.61500 2.61702 2.66038 2.74330 2.79601 2.81440
 2.84024 2.90498 2.93412 2.95317 2.95994 3.02548 3.03608 3.05356 3.08486 3.13103
 3.15924 3.23568 3.31745 3.32636 3.33956 3.35023 3.35918 3.43829 3.49738 3.50666
 3.56625 3.65459 3.65771 3.71758 3.72138 3.79112 3.80135 3.84889 3.87805 3.98596
 4.07498 4.21156 4.25409 4.29582 4.56031 4.56936 8.10261 8.34326 8.40452 8.86058
 9.77931 9.94161 13.16259 14.19187
 == 29-th k-point (0.30616,-0.30616,0.30616) occupation: 14==
 -65.00277 -65.00275 -4.62529 -4.62514 -3.03708 -3.03708 -3.03696 -3.03650 -3.03638 -3.03638
 -0.07677 0.01986 0.23203 0.23203 0.33480 0.40070 0.40070 0.55934 0.67360 0.67360
 0.69471 0.69617 0.69617 0.75535 1.00160 1.01602 1.09170 1.09171 1.09556 1.09561
 1.24033 1.26117 1.26118 1.30850 1.30851 1.35803 1.41738 1.49146 1.49157 1.50192
 1.50199 1.58527 1.62574 1.65451 1.88052 1.88053 1.88793 1.90895 1.90909 1.92102
 2.12847 2.12869 2.19298 2.19690 2.19726 2.24640 2.26946 2.27131 2.33307 2.33465
 2.46263 2.46335 2.55687 2.55801 2.60265 2.68084 2.74912 2.77534 2.77571 2.79597
 2.81772 2.81917 2.82906 2.92107 2.95128 2.96309 3.09682 3.09716 3.09864 3.09907
 3.19324 3.19336 3.21167 3.21380 3.31628 3.46624 3.46708 3.55330 3.55613 3.55737
 3.56552 3.66561 3.67468 3.69291 3.73197 3.76199 3.93326 3.93497 4.00245 4.00724
 4.12936 4.14777 4.15027 4.33740 4.43941 4.44090 8.25669 8.26070 8.33141 9.36524
 9.36674 10.00759 11.95265 14.72398
 == 30-th k-point (0.45924,-0.15308,0.15308) occupation: 14==
 -65.00276 -65.00276 -4.62527 -4.62516 -3.03711 -3.03709 -3.03686 -3.03659 -3.03638 -3.03635
 -0.06269 0.04219 0.14585 0.19471 0.33317 0.44170 0.48945 0.49650 0.65417 0.67062
 0.73040 0.74680 0.75647 0.90153 0.93782 0.97011 0.99465 1.00784 1.01867 1.12576
 1.16621 1.21227 1.22968 1.32315 1.35892 1.37064 1.37262 1.44844 1.50048 1.56430
 1.60445 1.64006 1.67121 1.68539 1.71840 1.81801 1.90837 1.93057 1.93827 1.99386
 2.01835 2.04443 2.08188 2.13787 2.16601 2.20082 2.28396 2.31966 2.32994 2.37319
 2.45096 2.46177 2.50327 2.51923 2.61500 2.61702 2.66038 2.74330 2.79601 2.81440
 2.84024 2.90498 2.93412 2.95317 2.95994 3.02548 3.03608 3.05356 3.08486 3.13103
 3.15924 3.23568 3.31745 3.32636 3.33956 3.35023 3.35918 3.43829 3.49738 3.50666
 3.56625 3.65459 3.65771 3.71758 3.72138 3.79112 3.80135 3.84889 3.87805 3.98596
 4.07498 4.21156 4.25409 4.29582 4.56031 4.56936 8.10261 8.34326 8.40452 8.86058
 9.77931 9.94161 13.16259 14.19187
 == 31-th k-point (0.61232,0.00000,0.00000) occupation: 14==
 -65.00276 -65.00276 -4.62521 -4.62521 -3.03712 -3.03712 -3.03672 -3.03672 -3.03636 -3.03636
 -0.01028 -0.01028 0.17071 0.17071 0.30327 0.30327 0.64917 0.64917 0.68999 0.68999
 0.74518 0.74518 0.75666 0.75666 0.97893 0.97893 1.00361 1.00361 1.02368 1.02369
 1.07069 1.07069 1.23946 1.23947 1.37546 1.37549 1.54545 1.54546 1.58299 1.58299
 1.63191 1.63191 1.69220 1.69221 1.74577 1.74579 1.82893 1.82926 1.85692 1.85698
 2.08188 2.08266 2.09847 2.09853 2.18844 2.18845 2.30622 2.30628 2.43209 2.43212
 2.45627 2.45629 2.50464 2.50465 2.52229 2.52337 2.73836 2.73837 2.77850 2.77864
 2.86864 2.86919 2.98973 2.98973 3.01029 3.01032 3.02775 3.02775 3.08254 3.08270
 3.23494 3.23508 3.25162 3.25176 3.26442 3.26446 3.45416 3.45766 3.49321 3.49336
 3.55900 3.55909 3.64422 3.64422 3.73040 3.73048 3.93725 3.93801 4.07065 4.07084
 4.29192 4.29249 4.35620 4.35659 4.61033 4.61504 8.31950 8.31952 8.62710 8.62721
 9.65945 9.66765 13.41322 13.41341
 == 32-th k-point (-0.45924,0.15308,0.15308) occupation: 14==
 -65.00276 -65.00276 -4.62527 -4.62516 -3.03711 -3.03709 -3.03686 -3.03659 -3.03638 -3.03635
 -0.06269 0.04219 0.14585 0.19471 0.33317 0.44170 0.48945 0.49650 0.65417 0.67062
 0.73040 0.74680 0.75647 0.90153 0.93782 0.97011 0.99465 1.00784 1.01867 1.12575
 1.16621 1.21227 1.22968 1.32315 1.35892 1.37065 1.37262 1.44845 1.50048 1.56430
 1.60444 1.64007 1.67122 1.68539 1.71841 1.81801 1.90839 1.93054 1.93828 1.99386
 2.01835 2.04444 2.08192 2.13799 2.16602 2.20082 2.28399 2.31964 2.32999 2.37315
 2.45098 2.46177 2.50327 2.51923 2.61499 2.61704 2.66037 2.74329 2.79603 2.81441
 2.84026 2.90498 2.93431 2.95318 2.95996 3.02545 3.03611 3.05357 3.08484 3.13140
 3.15933 3.23570 3.31745 3.32650 3.33958 3.35020 3.35917 3.43840 3.49749 3.50670
 3.56623 3.65460 3.65768 3.71752 3.72135 3.79109 3.80176 3.84893 3.87827 3.98601
 4.07512 4.21193 4.25409 4.29585 4.56072 4.56942 8.10260 8.34326 8.40452 8.86066
 9.78057 9.94206 13.16274 14.19205
 == 33-th k-point (-0.30616,0.30616,-0.00000) occupation: 14==
 -65.00276 -65.00276 -4.62529 -4.62514 -3.03710 -3.03708 -3.03691 -3.03655 -3.03638 -3.03635
 -0.08755 0.07550 0.13762 0.22727 0.36765 0.45367 0.46752 0.50331 0.51804 0.63297
 0.74337 0.76797 0.77288 0.89267 0.91795 0.92571 0.97311 1.07247 1.09003 1.16987
 1.20383 1.22069 1.27449 1.28463 1.32069 1.36385 1.41324 1.45510 1.56549 1.56945
 1.63751 1.66867 1.69226 1.69458 1.71592 1.72088 1.76742 1.88237 1.94782 1.98520
 2.01081 2.04073 2.11364 2.15903 2.21333 2.21816 2.26394 2.35168 2.36122 2.44487
 2.47262 2.49396 2.49689 2.52455 2.57537 2.58081 2.59751 2.75933 2.77338 2.81513
 2.83660 2.87214 2.88766 2.92090 2.94483 2.98756 3.08034 3.11279 3.12260 3.15935
 3.19852 3.30954 3.33790 3.38204 3.38618 3.40402 3.41072 3.42345 3.48043 3.48481
 3.48602 3.49025 3.63727 3.67779 3.70936 3.73861 3.79682 3.82899 3.91807 3.94225
 4.09112 4.14669 4.23946 4.35459 4.52743 4.60834 7.77174 8.29046 8.29999 9.00326
 9.31994 9.85631 13.08051 14.28121
 == 34-th k-point (-0.15308,0.45924,-0.15308) occupation: 14==
 -65.00276 -65.00276 -4.62527 -4.62516 -3.03711 -3.03709 -3.03686 -3.03659 -3.03638 -3.03635
 -0.06269 0.04219 0.14585 0.19471 0.33317 0.44170 0.48945 0.49650 0.65417 0.67062
 0.73040 0.74680 0.75647 0.90153 0.93782 0.97011 0.99465 1.00784 1.01867 1.12575
 1.16621 1.21227 1.22968 1.32315 1.35892 1.37065 1.37262 1.44845 1.50048 1.56430
 1.60444 1.64007 1.67122 1.68539 1.71841 1.81801 1.90839 1.93054 1.93828 1.99386
 2.01835 2.04444 2.08192 2.13799 2.16602 2.20082 2.28399 2.31964 2.32999 2.37315
 2.45098 2.46177 2.50327 2.51923 2.61499 2.61704 2.66037 2.74329 2.79603 2.81441
 2.84026 2.90498 2.93431 2.95318 2.95996 3.02545 3.03611 3.05357 3.08484 3.13140
 3.15933 3.23570 3.31745 3.32650 3.33958 3.35020 3.35917 3.43840 3.49749 3.50670
 3.56623 3.65460 3.65768 3.71752 3.72135 3.79109 3.80176 3.84893 3.87827 3.98601
 4.07512 4.21193 4.25409 4.29585 4.56072 4.56942 8.10260 8.34326 8.40452 8.86066
 9.78057 9.94206 13.16274 14.19205
 == 35-th k-point (0.00000,0.61232,-0.30616) occupation: 14==
 -65.00276 -65.00276 -4.62521 -4.62521 -3.03711 -3.03711 -3.03673 -3.03673 -3.03635 -3.03635
 -0.00410 -0.00410 0.13378 0.13378 0.43513 0.43513 0.46184 0.46184 0.67068 0.67068
 0.76029 0.76029 0.88542 0.88543 0.96330 0.96330 0.98284 0.98284 1.02056 1.02056
 1.15492 1.15492 1.29985 1.29988 1.30778 1.30779 1.38099 1.38099 1.51143 1.51149
 1.68386 1.68389 1.69800 1.69803 1.79624 1.79626 1.89086 1.89087 1.95339 1.95340
 2.04409 2.04410 2.17248 2.17255 2.17527 2.17528 2.33995 2.34004 2.38857 2.38863
 2.39119 2.39124 2.54079 2.54098 2.62642 2.62644 2.72551 2.72590 2.85526 2.85535
 2.88142 2.88143 2.88990 2.88991 2.98390 2.98421 3.04189 3.04199 3.11420 3.11422
 3.24250 3.24259 3.34380 3.34387 3.34538 3.34561 3.46580 3.46583 3.47614 3.47621
 3.55784 3.55803 3.56509 3.56536 3.68129 3.68233 3.77723 3.77726 4.00460 4.00480
 4.11348 4.11388 4.26323 4.26358 4.57934 4.58088 8.41209 8.41212 8.77783 8.77802
 9.54163 9.54459 13.73214 13.73230
 == 36-th k-point (-0.30616,0.00000,0.30616) occupation: 14==
 -65.00276 -65.00276 -4.62529 -4.62514 -3.03710 -3.03708 -3.03691 -3.03655 -3.03638 -3.03635
 -0.08755 0.07550 0.13762 0.22727 0.36765 0.45367 0.46752 0.50331 0.51804 0.63297
 0.74337 0.76797 0.77288 0.89267 0.91795 0.92571 0.97311 1.07247 1.09003 1.16987
 1.20383 1.22069 1.27449 1.28463 1.32069 1.36385 1.41324 1.45510 1.56549 1.56945
 1.63751 1.66867 1.69226 1.69458 1.71592 1.72088 1.76742 1.88237 1.94782 1.98520
 2.01081 2.04073 2.11364 2.15903 2.21333 2.21816 2.26394 2.35168 2.36122 2.44487
 2.47262 2.49396 2.49689 2.52455 2.57537 2.58081 2.59751 2.75933 2.77338 2.81513
 2.83660 2.87214 2.88766 2.92090 2.94483 2.98756 3.08034 3.11279 3.12260 3.15935
 3.19852 3.30954 3.33790 3.38204 3.38618 3.40402 3.41072 3.42345 3.48043 3.48481
 3.48602 3.49025 3.63727 3.67779 3.70936 3.73861 3.79682 3.82899 3.91807 3.94225
 4.09112 4.14669 4.23946 4.35459 4.52743 4.60834 7.77174 8.29046 8.29999 9.00326
 9.31994 9.85631 13.08051 14.28121
 == 37-th k-point (-0.15308,0.15308,0.15308) occupation: 14==
 -65.00276 -65.00275 -4.62533 -4.62510 -3.03705 -3.03705 -3.03699 -3.03649 -3.03640 -3.03640
 -0.13339 0.13218 0.24841 0.24841 0.35251 0.40641 0.40641 0.53159 0.54582 0.54582
 0.60636 0.71191 0.82191 0.82191 0.93964 0.93966 0.94600 1.01512 1.18276 1.18281
 1.26986 1.26987 1.32157 1.37947 1.38197 1.46631 1.46631 1.53592 1.53596 1.56713
 1.56713 1.70094 1.70107 1.71378 1.74405 1.77940 1.84675 1.84746 1.90598 1.93052
 1.94224 1.94264 2.04992 2.06968 2.06969 2.17471 2.17489 2.21402 2.24193 2.24310
 2.28747 2.53211 2.54722 2.57958 2.58081 2.64250 2.64253 2.67358 2.73847 2.74292
 2.92197 2.92294 2.92503 2.97587 3.03081 3.03234 3.07408 3.07498 3.12502 3.16533
 3.21128 3.21255 3.31728 3.32054 3.35300 3.42989 3.42991 3.46993 3.50344 3.50367
 3.51309 3.63947 3.64918 3.64983 3.78478 3.78529 3.80122 3.85588 3.85606 3.89037
 3.94609 4.02179 4.02180 4.32872 4.52548 4.52753 4.63035 7.58134 7.66520 7.66521
 8.55483 8.56145 10.63040 11.76408 13.98757
 == 38-th k-point (0.00000,0.30616,0.00000) occupation: 14==
 -65.00276 -65.00276 -4.62532 -4.62511 -3.03707 -3.03707 -3.03695 -3.03650 -3.03641 -3.03641
 -0.12302 0.14806 0.20643 0.20643 0.31838 0.39307 0.49007 0.49007 0.57556 0.61201
 0.69524 0.75907 0.75907 0.78431 0.92174 0.92175 0.96175 1.03456 1.06020 1.22165
 1.26672 1.29604 1.29605 1.37166 1.37167 1.39297 1.40382 1.58734 1.59889 1.59889
 1.60429 1.66829 1.66836 1.66981 1.79773 1.79790 1.80702 1.82133 1.84903 1.95163
 1.95874 1.95942 2.02905 2.09474 2.12743 2.12759 2.19260 2.26927 2.26935 2.37634
 2.47179 2.54006 2.59028 2.59152 2.60186 2.61838 2.63339 2.65986 2.65993 2.81779
 2.84616 2.93338 2.93369 2.97161 2.97432 3.04770 3.17999 3.18050 3.18092 3.25358
 3.26371 3.31677 3.33349 3.33563 3.33912 3.34175 3.37429 3.38751 3.44887 3.45138
 3.54919 3.55238 3.60733 3.61510 3.76499 3.80866 3.80871 3.85185 4.00000 4.03143
 4.05006 4.05302 4.21494 4.45118 4.56472 4.57182 7.69089 7.69140 8.01765 9.69627
 9.88827 9.91179 12.54075 13.36591
 == 39-th k-point (0.15308,0.45924,-0.15308) occupation: 14==
 -65.00276 -65.00276 -4.62527 -4.62516 -3.03711 -3.03709 -3.03686 -3.03659 -3.03638 -3.03635
 -0.06269 0.04219 0.14585 0.19471 0.33317 0.44170 0.48945 0.49650 0.65417 0.67062
 0.73040 0.74680 0.75647 0.90153 0.93782 0.97011 0.99465 1.00784 1.01867 1.12576
 1.16621 1.21227 1.22968 1.32315 1.35892 1.37064 1.37262 1.44844 1.50048 1.56430
 1.60445 1.64006 1.67121 1.68539 1.71840 1.81801 1.90837 1.93057 1.93827 1.99386
 2.01835 2.04443 2.08188 2.13787 2.16601 2.20082 2.28396 2.31966 2.32994 2.37319
 2.45096 2.46177 2.50327 2.51923 2.61500 2.61702 2.66038 2.74330 2.79601 2.81440
 2.84024 2.90498 2.93412 2.95317 2.95994 3.02548 3.03608 3.05356 3.08486 3.13103
 3.15924 3.23568 3.31745 3.32636 3.33956 3.35023 3.35918 3.43829 3.49738 3.50666
 3.56625 3.65459 3.65771 3.71758 3.72138 3.79112 3.80135 3.84889 3.87805 3.98596
 4.07498 4.21156 4.25409 4.29582 4.56031 4.56936 8.10261 8.34326 8.40452 8.86058
 9.77931 9.94161 13.16259 14.19187
 == 40-th k-point (-0.15308,-0.15308,0.45924) occupation: 14==
 -65.00276 -65.00276 -4.62527 -4.62516 -3.03711 -3.03709 -3.03686 -3.03659 -3.03638 -3.03635
 -0.06269 0.04219 0.14585 0.19471 0.33317 0.44170 0.48945 0.49650 0.65417 0.67062
 0.73040 0.74680 0.75647 0.90153 0.93782 0.97011 0.99465 1.00784 1.01867 1.12575
 1.16621 1.21227 1.22968 1.32315 1.35892 1.37065 1.37262 1.44845 1.50048 1.56430
 1.60444 1.64007 1.67122 1.68539 1.71841 1.81801 1.90839 1.93054 1.93828 1.99386
 2.01835 2.04444 2.08192 2.13799 2.16602 2.20082 2.28399 2.31964 2.32999 2.37315
 2.45098 2.46177 2.50327 2.51923 2.61499 2.61704 2.66037 2.74329 2.79603 2.81441
 2.84026 2.90498 2.93431 2.95318 2.95996 3.02545 3.03611 3.05357 3.08484 3.13140
 3.15933 3.23570 3.31745 3.32650 3.33958 3.35020 3.35917 3.43840 3.49749 3.50670
 3.56623 3.65460 3.65768 3.71752 3.72135 3.79109 3.80176 3.84893 3.87827 3.98601
 4.07512 4.21193 4.25409 4.29585 4.56072 4.56942 8.10260 8.34326 8.40452 8.86066
 9.78057 9.94206 13.16274 14.19205
 == 41-th k-point (0.00000,0.00000,0.30616) occupation: 14==
 -65.00276 -65.00276 -4.62532 -4.62511 -3.03707 -3.03707 -3.03695 -3.03650 -3.03641 -3.03641
 -0.12302 0.14806 0.20643 0.20643 0.31838 0.39307 0.49007 0.49007 0.57556 0.61201
 0.69524 0.75907 0.75907 0.78431 0.92174 0.92175 0.96175 1.03456 1.06020 1.22165
 1.26672 1.29604 1.29605 1.37166 1.37167 1.39297 1.40382 1.58734 1.59889 1.59889
 1.60429 1.66829 1.66836 1.66981 1.79773 1.79790 1.80702 1.82133 1.84903 1.95163
 1.95874 1.95942 2.02905 2.09474 2.12743 2.12759 2.19260 2.26927 2.26935 2.37634
 2.47179 2.54006 2.59028 2.59152 2.60186 2.61838 2.63339 2.65986 2.65993 2.81779
 2.84616 2.93338 2.93369 2.97161 2.97432 3.04770 3.17999 3.18050 3.18092 3.25358
 3.26371 3.31677 3.33349 3.33563 3.33912 3.34175 3.37429 3.38751 3.44887 3.45138
[...]
 -0.06269 0.04219 0.14585 0.19471 0.33317 0.44170 0.48945 0.49650 0.65417 0.67062
 0.73040 0.74680 0.75647 0.90153 0.93782 0.97011 0.99465 1.00784 1.01867 1.12576
 1.16621 1.21227 1.22968 1.32315 1.35892 1.37064 1.37262 1.44844 1.50048 1.56430
 1.60445 1.64006 1.67121 1.68539 1.71840 1.81801 1.90837 1.93057 1.93827 1.99386
 2.01835 2.04443 2.08188 2.13787 2.16601 2.20082 2.28396 2.31966 2.32994 2.37319
 2.45096 2.46177 2.50327 2.51923 2.61500 2.61702 2.66038 2.74330 2.79601 2.81440
 2.84024 2.90498 2.93412 2.95317 2.95994 3.02548 3.03608 3.05356 3.08486 3.13103
 3.15924 3.23568 3.31745 3.32636 3.33956 3.35023 3.35918 3.43829 3.49738 3.50666
 3.56625 3.65459 3.65771 3.71758 3.72138 3.79112 3.80135 3.84889 3.87805 3.98596
 4.07498 4.21156 4.25409 4.29582 4.56031 4.56936 8.10261 8.34326 8.40452 8.86058
 9.77931 9.94161 13.16259 14.19187
 == 46-th k-point (0.30616,0.00000,0.30616) occupation: 14==
 -65.00276 -65.00276 -4.62529 -4.62514 -3.03710 -3.03708 -3.03691 -3.03655 -3.03638 -3.03635
 -0.08755 0.07550 0.13762 0.22727 0.36765 0.45367 0.46752 0.50331 0.51804 0.63297
 0.74338 0.76797 0.77289 0.89267 0.91795 0.92571 0.97310 1.07247 1.09003 1.16989
 1.20391 1.22067 1.27449 1.28464 1.32069 1.36385 1.41325 1.45517 1.56549 1.56923
 1.63751 1.66866 1.69228 1.69468 1.71592 1.72095 1.76745 1.88247 1.94782 1.98522
 2.01082 2.04097 2.11367 2.15912 2.21344 2.21694 2.26405 2.35168 2.36123 2.44074
 2.47261 2.49399 2.49602 2.52497 2.57549 2.58062 2.59757 2.75874 2.77341 2.81527
 2.83665 2.87232 2.88768 2.92090 2.94483 2.98756 3.08079 3.11232 3.12278 3.15942
 3.19798 3.30958 3.33869 3.38209 3.38658 3.40412 3.41073 3.42386 3.47798 3.48250
 3.48497 3.49018 3.63804 3.67814 3.70910 3.74325 3.79698 3.82677 3.91823 3.94248
 4.09109 4.14679 4.23965 4.35452 4.52707 4.60886 7.77181 8.29046 8.29877 9.00370
 9.32350 9.85753 13.08332 14.28162
 == 47-th k-point (0.45924,0.15308,0.15308) occupation: 14==
 -65.00276 -65.00276 -4.62527 -4.62516 -3.03711 -3.03709 -3.03686 -3.03659 -3.03638 -3.03635
 -0.06269 0.04219 0.14585 0.19471 0.33317 0.44170 0.48945 0.49650 0.65417 0.67063
 0.73040 0.74680 0.75647 0.90153 0.93782 0.97011 0.99465 1.00784 1.01867 1.12575
 1.16621 1.21227 1.22968 1.32315 1.35892 1.37065 1.37262 1.44844 1.50050 1.56430
 1.60446 1.64007 1.67122 1.68540 1.71839 1.81801 1.90838 1.93058 1.93828 1.99386
 2.01836 2.04443 2.08193 2.13797 2.16602 2.20082 2.28394 2.31966 2.32998 2.37319
 2.45097 2.46177 2.50325 2.51923 2.61498 2.61704 2.66037 2.74330 2.79603 2.81441
 2.84026 2.90497 2.93430 2.95318 2.95993 3.02548 3.03610 3.05357 3.08487 3.13137
 3.15932 3.23572 3.31743 3.32651 3.33963 3.35017 3.35917 3.43842 3.49746 3.50670
 3.56623 3.65461 3.65752 3.71774 3.72133 3.79117 3.80142 3.84892 3.87832 3.98603
 4.07509 4.21192 4.25400 4.29600 4.56069 4.56950 8.10261 8.34325 8.40450 8.86058
 9.78054 9.94209 13.16270 14.19226
 == 48-th k-point (-0.61232,0.30616,0.30616) occupation: 14==
 -65.00276 -65.00276 -4.62529 -4.62514 -3.03710 -3.03708 -3.03691 -3.03655 -3.03638 -3.03635
 -0.08755 0.07550 0.13762 0.22727 0.36765 0.45367 0.46752 0.50331 0.51804 0.63297
 0.74338 0.76797 0.77289 0.89267 0.91795 0.92571 0.97310 1.07247 1.09003 1.16989
 1.20391 1.22067 1.27449 1.28464 1.32069 1.36385 1.41325 1.45517 1.56549 1.56923
 1.63751 1.66866 1.69228 1.69468 1.71592 1.72095 1.76745 1.88247 1.94782 1.98522
 2.01082 2.04097 2.11367 2.15912 2.21344 2.21694 2.26405 2.35168 2.36123 2.44074
 2.47261 2.49399 2.49602 2.52497 2.57549 2.58062 2.59757 2.75874 2.77341 2.81527
 2.83665 2.87232 2.88768 2.92090 2.94483 2.98756 3.08079 3.11232 3.12278 3.15942
 3.19798 3.30958 3.33869 3.38209 3.38658 3.40412 3.41073 3.42386 3.47798 3.48250
 3.48497 3.49018 3.63804 3.67814 3.70910 3.74325 3.79698 3.82677 3.91823 3.94248
 4.09109 4.14679 4.23965 4.35452 4.52707 4.60886 7.77181 8.29046 8.29877 9.00370
 9.32350 9.85753 13.08332 14.28162
 == 49-th k-point (-0.45924,0.45924,0.15308) occupation: 14==
 -65.00276 -65.00276 -4.62527 -4.62516 -3.03711 -3.03709 -3.03686 -3.03659 -3.03638 -3.03635
 -0.06269 0.04219 0.14585 0.19471 0.33317 0.44170 0.48945 0.49650 0.65417 0.67062
 0.73040 0.74680 0.75647 0.90153 0.93782 0.97011 0.99465 1.00784 1.01867 1.12576
 1.16621 1.21227 1.22968 1.32315 1.35892 1.37064 1.37262 1.44844 1.50048 1.56430
 1.60445 1.64006 1.67121 1.68539 1.71840 1.81801 1.90837 1.93057 1.93827 1.99386
 2.01835 2.04443 2.08188 2.13787 2.16601 2.20082 2.28396 2.31966 2.32994 2.37319
 2.45096 2.46177 2.50327 2.51923 2.61500 2.61702 2.66038 2.74330 2.79601 2.81440
 2.84024 2.90498 2.93412 2.95317 2.95994 3.02548 3.03608 3.05356 3.08486 3.13103
 3.15924 3.23568 3.31745 3.32636 3.33956 3.35023 3.35918 3.43829 3.49738 3.50666
 3.56625 3.65459 3.65771 3.71758 3.72138 3.79112 3.80135 3.84889 3.87805 3.98596
 4.07498 4.21156 4.25409 4.29582 4.56031 4.56936 8.10261 8.34326 8.40452 8.86058
 9.77931 9.94161 13.16259 14.19187
 == 50-th k-point (-0.30616,0.61232,-0.00000) occupation: 14==
 -65.00276 -65.00276 -4.62521 -4.62521 -3.03711 -3.03711 -3.03673 -3.03673 -3.03635 -3.03635
 -0.00410 -0.00410 0.13378 0.13378 0.43513 0.43513 0.46184 0.46184 0.67068 0.67068
 0.76029 0.76029 0.88542 0.88543 0.96330 0.96330 0.98284 0.98284 1.02056 1.02056
 1.15492 1.15492 1.29985 1.29988 1.30778 1.30779 1.38099 1.38099 1.51143 1.51149
 1.68386 1.68389 1.69800 1.69803 1.79624 1.79626 1.89086 1.89087 1.95339 1.95340
 2.04409 2.04410 2.17248 2.17255 2.17527 2.17528 2.33995 2.34004 2.38857 2.38863
 2.39119 2.39124 2.54079 2.54098 2.62642 2.62644 2.72551 2.72590 2.85526 2.85535
 2.88142 2.88143 2.88990 2.88991 2.98390 2.98421 3.04189 3.04199 3.11420 3.11422
 3.24250 3.24259 3.34380 3.34387 3.34538 3.34561 3.46580 3.46583 3.47614 3.47621
 3.55784 3.55803 3.56509 3.56536 3.68129 3.68233 3.77723 3.77726 4.00460 4.00480
 4.11348 4.11388 4.26323 4.26358 4.57934 4.58088 8.41209 8.41212 8.77783 8.77802
 9.54163 9.54459 13.73214 13.73230
 == 51-th k-point (-0.15308,0.76541,-0.15308) occupation: 14==
 -65.00276 -65.00276 -4.62527 -4.62516 -3.03711 -3.03709 -3.03686 -3.03659 -3.03638 -3.03635
 -0.06269 0.04219 0.14585 0.19471 0.33317 0.44170 0.48945 0.49650 0.65417 0.67063
 0.73040 0.74680 0.75647 0.90153 0.93782 0.97011 0.99465 1.00784 1.01867 1.12575
 1.16621 1.21227 1.22968 1.32315 1.35892 1.37065 1.37262 1.44844 1.50050 1.56430
 1.60446 1.64007 1.67122 1.68540 1.71839 1.81801 1.90838 1.93058 1.93828 1.99386
 2.01836 2.04443 2.08193 2.13797 2.16602 2.20082 2.28394 2.31966 2.32998 2.37319
 2.45097 2.46177 2.50325 2.51923 2.61498 2.61704 2.66037 2.74330 2.79603 2.81441
 2.84026 2.90497 2.93430 2.95318 2.95993 3.02548 3.03610 3.05357 3.08487 3.13137
 3.15932 3.23572 3.31743 3.32651 3.33963 3.35017 3.35917 3.43842 3.49746 3.50670
 3.56623 3.65461 3.65752 3.71774 3.72133 3.79117 3.80142 3.84892 3.87832 3.98603
 4.07509 4.21192 4.25400 4.29600 4.56069 4.56950 8.10261 8.34325 8.40450 8.86058
 9.78054 9.94209 13.16270 14.19226
 == 52-th k-point (-0.45924,0.15308,0.45924) occupation: 14==
 -65.00276 -65.00276 -4.62527 -4.62516 -3.03711 -3.03709 -3.03686 -3.03659 -3.03638 -3.03635
 -0.06269 0.04219 0.14585 0.19471 0.33317 0.44170 0.48945 0.49650 0.65417 0.67062
 0.73040 0.74680 0.75647 0.90153 0.93782 0.97011 0.99465 1.00784 1.01867 1.12576
 1.16621 1.21227 1.22968 1.32315 1.35892 1.37064 1.37262 1.44844 1.50048 1.56430
 1.60445 1.64006 1.67121 1.68539 1.71840 1.81801 1.90837 1.93057 1.93827 1.99386
 2.01835 2.04443 2.08188 2.13787 2.16601 2.20082 2.28396 2.31966 2.32994 2.37319
 2.45096 2.46177 2.50327 2.51923 2.61500 2.61702 2.66038 2.74330 2.79601 2.81440
 2.84024 2.90498 2.93412 2.95317 2.95994 3.02548 3.03608 3.05356 3.08486 3.13103
 3.15924 3.23568 3.31745 3.32636 3.33956 3.35023 3.35918 3.43829 3.49738 3.50666
 3.56625 3.65459 3.65771 3.71758 3.72138 3.79112 3.80135 3.84889 3.87805 3.98596
 4.07498 4.21156 4.25409 4.29582 4.56031 4.56936 8.10261 8.34326 8.40452 8.86058
 9.77931 9.94161 13.16259 14.19187
 == 53-th k-point (-0.30616,0.30616,0.30616) occupation: 14==
 -65.00277 -65.00275 -4.62529 -4.62514 -3.03708 -3.03708 -3.03696 -3.03650 -3.03638 -3.03638
 -0.07677 0.01986 0.23203 0.23203 0.33480 0.40070 0.40070 0.55934 0.67360 0.67360
 0.69471 0.69617 0.69617 0.75535 1.00160 1.01602 1.09170 1.09171 1.09556 1.09561
 1.24033 1.26117 1.26118 1.30850 1.30851 1.35803 1.41738 1.49146 1.49157 1.50192
 1.50199 1.58527 1.62574 1.65451 1.88052 1.88053 1.88793 1.90895 1.90909 1.92102
 2.12847 2.12869 2.19298 2.19690 2.19726 2.24640 2.26946 2.27131 2.33307 2.33465
 2.46263 2.46335 2.55687 2.55801 2.60265 2.68084 2.74912 2.77534 2.77571 2.79597
 2.81772 2.81917 2.82906 2.92107 2.95128 2.96309 3.09682 3.09716 3.09864 3.09907
 3.19324 3.19336 3.21167 3.21380 3.31628 3.46624 3.46708 3.55330 3.55613 3.55737
 3.56552 3.66561 3.67468 3.69291 3.73197 3.76199 3.93326 3.93497 4.00245 4.00724
 4.12936 4.14777 4.15027 4.33740 4.43941 4.44090 8.25669 8.26070 8.33141 9.36524
 9.36674 10.00759 11.95265 14.72398
 == 54-th k-point (-0.15308,0.45924,0.15308) occupation: 14==
 -65.00276 -65.00276 -4.62527 -4.62516 -3.03711 -3.03709 -3.03686 -3.03659 -3.03638 -3.03635
 -0.06269 0.04219 0.14585 0.19471 0.33317 0.44170 0.48945 0.49650 0.65417 0.67062
 0.73040 0.74680 0.75647 0.90153 0.93782 0.97011 0.99465 1.00784 1.01867 1.12576
 1.16621 1.21227 1.22968 1.32315 1.35892 1.37064 1.37262 1.44844 1.50048 1.56430
 1.60445 1.64006 1.67121 1.68539 1.71840 1.81801 1.90837 1.93057 1.93827 1.99386
 2.01835 2.04443 2.08188 2.13787 2.16601 2.20082 2.28396 2.31966 2.32994 2.37319
 2.45096 2.46177 2.50327 2.51923 2.61500 2.61702 2.66038 2.74330 2.79601 2.81440
 2.84024 2.90498 2.93412 2.95317 2.95994 3.02548 3.03608 3.05356 3.08486 3.13103
 3.15924 3.23568 3.31745 3.32636 3.33956 3.35023 3.35918 3.43829 3.49738 3.50666
 3.56625 3.65459 3.65771 3.71758 3.72138 3.79112 3.80135 3.84889 3.87805 3.98596
 4.07498 4.21156 4.25409 4.29582 4.56031 4.56936 8.10261 8.34326 8.40452 8.86058
 9.77931 9.94161 13.16259 14.19187
 == 55-th k-point (0.00000,0.61232,0.00000) occupation: 14==
 -65.00276 -65.00276 -4.62521 -4.62521 -3.03712 -3.03712 -3.03672 -3.03672 -3.03636 -3.03636
 -0.01028 -0.01028 0.17071 0.17071 0.30327 0.30327 0.64917 0.64917 0.68999 0.68999
 0.74518 0.74518 0.75666 0.75666 0.97893 0.97893 1.00361 1.00361 1.02368 1.02369
 1.07069 1.07069 1.23946 1.23947 1.37546 1.37549 1.54545 1.54546 1.58299 1.58299
 1.63191 1.63191 1.69220 1.69221 1.74577 1.74579 1.82893 1.82926 1.85692 1.85698
 2.08188 2.08266 2.09847 2.09853 2.18844 2.18845 2.30622 2.30628 2.43209 2.43212
 2.45627 2.45629 2.50464 2.50465 2.52229 2.52337 2.73836 2.73837 2.77850 2.77864
 2.86864 2.86919 2.98973 2.98973 3.01029 3.01032 3.02775 3.02775 3.08254 3.08270
 3.23494 3.23508 3.25162 3.25176 3.26442 3.26446 3.45416 3.45766 3.49321 3.49336
 3.55900 3.55909 3.64422 3.64422 3.73040 3.73048 3.93725 3.93801 4.07065 4.07084
 4.29192 4.29249 4.35620 4.35659 4.61033 4.61504 8.31950 8.31952 8.62710 8.62721
 9.65945 9.66765 13.41322 13.41341
 == 56-th k-point (-0.30616,0.00000,0.61232) occupation: 14==
 -65.00276 -65.00276 -4.62521 -4.62521 -3.03711 -3.03711 -3.03673 -3.03673 -3.03635 -3.03635
 -0.00410 -0.00410 0.13378 0.13378 0.43513 0.43513 0.46184 0.46184 0.67068 0.67068
 0.76029 0.76029 0.88542 0.88543 0.96330 0.96330 0.98284 0.98284 1.02056 1.02056
 1.15492 1.15492 1.29985 1.29988 1.30778 1.30779 1.38099 1.38099 1.51143 1.51149
 1.68386 1.68389 1.69800 1.69803 1.79624 1.79626 1.89086 1.89087 1.95339 1.95340
 2.04409 2.04410 2.17248 2.17255 2.17527 2.17528 2.33995 2.34004 2.38857 2.38863
 2.39119 2.39124 2.54079 2.54098 2.62642 2.62644 2.72551 2.72590 2.85526 2.85535
 2.88142 2.88143 2.88990 2.88991 2.98390 2.98421 3.04189 3.04199 3.11420 3.11422
 3.24250 3.24259 3.34380 3.34387 3.34538 3.34561 3.46580 3.46583 3.47614 3.47621
 3.55784 3.55803 3.56509 3.56536 3.68129 3.68233 3.77723 3.77726 4.00460 4.00480
 4.11348 4.11388 4.26323 4.26358 4.57934 4.58088 8.41209 8.41212 8.77783 8.77802
 9.54163 9.54459 13.73214 13.73230
 == 57-th k-point (-0.15308,0.15308,0.45924) occupation: 14==
 -65.00276 -65.00276 -4.62527 -4.62516 -3.03711 -3.03709 -3.03686 -3.03659 -3.03638 -3.03635
 -0.06269 0.04219 0.14585 0.19471 0.33317 0.44170 0.48945 0.49650 0.65417 0.67062
 0.73040 0.74680 0.75647 0.90153 0.93782 0.97011 0.99465 1.00784 1.01867 1.12576
 1.16621 1.21227 1.22968 1.32315 1.35892 1.37064 1.37262 1.44844 1.50048 1.56430
 1.60445 1.64006 1.67121 1.68539 1.71840 1.81801 1.90837 1.93057 1.93827 1.99386
 2.01835 2.04443 2.08188 2.13787 2.16601 2.20082 2.28396 2.31966 2.32994 2.37319
 2.45096 2.46177 2.50327 2.51923 2.61500 2.61702 2.66038 2.74330 2.79601 2.81440
 2.84024 2.90498 2.93412 2.95317 2.95994 3.02548 3.03608 3.05356 3.08486 3.13103
 3.15924 3.23568 3.31745 3.32636 3.33956 3.35023 3.35918 3.43829 3.49738 3.50666
 3.56625 3.65459 3.65771 3.71758 3.72138 3.79112 3.80135 3.84889 3.87805 3.98596
 4.07498 4.21156 4.25409 4.29582 4.56031 4.56936 8.10261 8.34326 8.40452 8.86058
 9.77931 9.94161 13.16259 14.19187
 == 58-th k-point (0.00000,0.30616,0.30616) occupation: 14==
 -65.00276 -65.00276 -4.62529 -4.62514 -3.03710 -3.03708 -3.03691 -3.03655 -3.03638 -3.03635
 -0.08755 0.07550 0.13762 0.22727 0.36765 0.45367 0.46752 0.50331 0.51804 0.63297
 0.74338 0.76797 0.77289 0.89267 0.91795 0.92571 0.97310 1.07247 1.09003 1.16989
 1.20391 1.22067 1.27449 1.28464 1.32069 1.36385 1.41325 1.45517 1.56549 1.56923
 1.63751 1.66866 1.69228 1.69468 1.71592 1.72095 1.76745 1.88247 1.94782 1.98522
 2.01082 2.04097 2.11367 2.15912 2.21344 2.21694 2.26405 2.35168 2.36123 2.44074
 2.47261 2.49399 2.49602 2.52497 2.57549 2.58062 2.59757 2.75874 2.77341 2.81527
 2.83665 2.87232 2.88768 2.92090 2.94483 2.98756 3.08079 3.11232 3.12278 3.15942
 3.19798 3.30958 3.33869 3.38209 3.38658 3.40412 3.41073 3.42386 3.47798 3.48250
 3.48497 3.49018 3.63804 3.67814 3.70910 3.74325 3.79698 3.82677 3.91823 3.94248
 4.09109 4.14679 4.23965 4.35452 4.52707 4.60886 7.77181 8.29046 8.29877 9.00370
 9.32350 9.85753 13.08332 14.28162
 == 59-th k-point (0.15308,0.45924,0.15308) occupation: 14==
 -65.00276 -65.00276 -4.62527 -4.62516 -3.03711 -3.03709 -3.03686 -3.03659 -3.03638 -3.03635
 -0.06269 0.04219 0.14585 0.19471 0.33317 0.44170 0.48945 0.49650 0.65417 0.67063
 0.73040 0.74680 0.75647 0.90153 0.93782 0.97011 0.99465 1.00784 1.01867 1.12575
 1.16621 1.21227 1.22968 1.32315 1.35892 1.37065 1.37262 1.44844 1.50050 1.56430
 1.60446 1.64007 1.67122 1.68540 1.71839 1.81801 1.90838 1.93058 1.93828 1.99386
 2.01836 2.04443 2.08193 2.13797 2.16602 2.20082 2.28394 2.31966 2.32998 2.37319
 2.45097 2.46177 2.50325 2.51923 2.61498 2.61704 2.66037 2.74330 2.79603 2.81441
 2.84026 2.90497 2.93430 2.95318 2.95993 3.02548 3.03610 3.05357 3.08487 3.13137
 3.15932 3.23572 3.31743 3.32651 3.33963 3.35017 3.35917 3.43842 3.49746 3.50670
 3.56623 3.65461 3.65752 3.71774 3.72133 3.79117 3.80142 3.84892 3.87832 3.98603
 4.07509 4.21192 4.25400 4.29600 4.56069 4.56950 8.10261 8.34325 8.40450 8.86058
 9.78054 9.94209 13.16270 14.19226
 == 60-th k-point (-0.15308,-0.15308,0.76541) occupation: 14==
 -65.00276 -65.00276 -4.62527 -4.62516 -3.03711 -3.03709 -3.03686 -3.03659 -3.03638 -3.03635
 -0.06269 0.04219 0.14585 0.19471 0.33317 0.44170 0.48945 0.49650 0.65417 0.67063
 0.73040 0.74680 0.75647 0.90153 0.93782 0.97011 0.99465 1.00784 1.01867 1.12575
 1.16621 1.21227 1.22968 1.32315 1.35892 1.37065 1.37262 1.44844 1.50050 1.56430
 1.60446 1.64007 1.67122 1.68540 1.71839 1.81801 1.90838 1.93058 1.93828 1.99386
 2.01836 2.04443 2.08193 2.13797 2.16602 2.20082 2.28394 2.31966 2.32998 2.37319
 2.45097 2.46177 2.50325 2.51923 2.61498 2.61704 2.66037 2.74330 2.79603 2.81441
 2.84026 2.90497 2.93430 2.95318 2.95993 3.02548 3.03610 3.05357 3.08487 3.13137
 3.15932 3.23572 3.31743 3.32651 3.33963 3.35017 3.35917 3.43842 3.49746 3.50670
 3.56623 3.65461 3.65752 3.71774 3.72133 3.79117 3.80142 3.84892 3.87832 3.98603
 4.07509 4.21192 4.25400 4.29600 4.56069 4.56950 8.10261 8.34325 8.40450 8.86058
 9.78054 9.94209 13.16270 14.19226
 == 61-th k-point (0.00000,0.00000,0.61232) occupation: 14==
 -65.00276 -65.00276 -4.62521 -4.62521 -3.03712 -3.03712 -3.03672 -3.03672 -3.03636 -3.03636
 -0.01028 -0.01028 0.17071 0.17071 0.30327 0.30327 0.64917 0.64917 0.68999 0.68999
 0.74518 0.74518 0.75666 0.75666 0.97893 0.97893 1.00361 1.00361 1.02368 1.02369
 1.07069 1.07069 1.23946 1.23947 1.37546 1.37549 1.54545 1.54546 1.58299 1.58299
 1.63191 1.63191 1.69220 1.69221 1.74577 1.74579 1.82893 1.82926 1.85692 1.85698
 2.08188 2.08266 2.09847 2.09853 2.18844 2.18845 2.30622 2.30628 2.43209 2.43212
 2.45627 2.45629 2.50464 2.50465 2.52229 2.52337 2.73836 2.73837 2.77850 2.77864
 2.86864 2.86919 2.98973 2.98973 3.01029 3.01032 3.02775 3.02775 3.08254 3.08270
 3.23494 3.23508 3.25162 3.25176 3.26442 3.26446 3.45416 3.45766 3.49321 3.49336
 3.55900 3.55909 3.64422 3.64422 3.73040 3.73048 3.93725 3.93801 4.07065 4.07084
 4.29192 4.29249 4.35620 4.35659 4.61033 4.61504 8.31950 8.31952 8.62710 8.62721
 9.65945 9.66765 13.41322 13.41341
 == 62-th k-point (0.15308,0.15308,0.45924) occupation: 14==
 -65.00276 -65.00276 -4.62527 -4.62516 -3.03711 -3.03709 -3.03686 -3.03659 -3.03638 -3.03635
 -0.06269 0.04219 0.14585 0.19471 0.33317 0.44170 0.48945 0.49650 0.65417 0.67063
 0.73040 0.74680 0.75647 0.90153 0.93782 0.97011 0.99465 1.00784 1.01867 1.12575
 1.16621 1.21227 1.22968 1.32315 1.35892 1.37065 1.37262 1.44844 1.50050 1.56430
 1.60446 1.64007 1.67122 1.68540 1.71839 1.81801 1.90838 1.93058 1.93828 1.99386
 2.01836 2.04443 2.08193 2.13797 2.16602 2.20082 2.28394 2.31966 2.32998 2.37319
 2.45097 2.46177 2.50325 2.51923 2.61498 2.61704 2.66037 2.74330 2.79603 2.81441
 2.84026 2.90497 2.93430 2.95318 2.95993 3.02548 3.03610 3.05357 3.08487 3.13137
 3.15932 3.23572 3.31743 3.32651 3.33963 3.35017 3.35917 3.43842 3.49746 3.50670
 3.56623 3.65461 3.65752 3.71774 3.72133 3.79117 3.80142 3.84892 3.87832 3.98603
 4.07509 4.21192 4.25400 4.29600 4.56069 4.56950 8.10261 8.34325 8.40450 8.86058
 9.78054 9.94209 13.16270 14.19226
 == 63-th k-point (0.30616,0.30616,0.30616) occupation: 14==
 -65.00277 -65.00275 -4.62529 -4.62514 -3.03708 -3.03708 -3.03696 -3.03650 -3.03638 -3.03638
 -0.07677 0.01986 0.23203 0.23203 0.33480 0.40070 0.40070 0.55934 0.67360 0.67360
 0.69470 0.69617 0.69617 0.75535 1.00160 1.01601 1.09171 1.09171 1.09561 1.09561
 1.24024 1.26118 1.26118 1.30851 1.30851 1.35796 1.41738 1.49157 1.49157 1.50199
 1.50199 1.58524 1.62573 1.65448 1.88053 1.88053 1.88797 1.90910 1.90910 1.92095
 2.12870 2.12870 2.19292 2.19726 2.19726 2.24633 2.27105 2.27105 2.33475 2.33475
 2.46329 2.46329 2.55804 2.55804 2.60264 2.68082 2.74878 2.77570 2.77570 2.79594
 2.81923 2.81923 2.82906 2.92094 2.95132 2.96308 3.09710 3.09710 3.09910 3.09910
 3.19336 3.19336 3.21370 3.21370 3.31620 3.46704 3.46704 3.55331 3.55715 3.55715
 3.56552 3.67518 3.67518 3.69146 3.73195 3.76223 3.93503 3.93503 4.00721 4.00721
 4.12897 4.15024 4.15024 4.33686 4.44092 4.44092 8.26082 8.26082 8.33134 9.36670
 9.36670 10.00639 11.95254 14.72276
 ---------------------------------------------------------------------------
 VBM is at 21-th k-point with 7.53356 eV
 CBM is at 31-th k-point with 8.25229 eV
 Band gap is 0.71872 eV


           Ground-State Mulliken Net Atomic Charges

      Atom                 Charge (a.u.)          Spin (a.u.)
   --------------------------------------------------------
      1 Si              (-0.000001,-0.000000)    (0.000000,0.000000)
      2 Si                (0.000001,0.000000)    (0.000000,0.000000)
   --------------------------------------------------------
  Sum of atomic charges =       (0.000000,0.000000)
  Sum of spin   charges =       (0.000000,0.000000)



 Total job time:  77.68 s.
 Tue Sep  9 03:04:52 2025


        *************************************************************
        *                                                           *
        *  Thank you very much for using QCPBC. Have a nice day.    *
        *                                                           *
        *************************************************************

Running job 1 of 1
