                  Welcome to Q-Chem
           with Periodic Boundary Condition
     A Quantum Leap Into The Future Of Chemistry

 Adam Rettig, Xintian Feng, Meng-Fu Chen, Hieu Dinh, Stephen Quiton,
 Anton Ni, Paul J. Robinson, Jinghong Zhang, Joonho Lee

Contributors to earlier versions of Q-Chem not listed above:
 Evgeny Epifanovsky, Leo Cunha, Jerome F. Gonthier, Kuan-Yu Liu
 Input file: /n/netscratch/joonholee_lab/Lab/hieudinh//si_2_ccpvqz_omega_0.6_444.scratch20250909030225/si_2_ccpvqz_omega_0.6_444.0
 Scratch folder: /n/netscratch/joonholee_lab/Lab/hieudinh//si_2_ccpvqz_omega_0.6_444.scratch20250909030225
 Auxillary files located at: /n/holylabs/LABS/joonholee_lab/Lab/qchem_base/qcaux
 Q-Chem begins on Tue Sep  9 03:02:26 2025

 -------------------------------------------------------------
 User input:
 -------------------------------------------------------------
 $lattice
 3
 0.000000 5.130600 5.130600
 5.130600 0.000000 5.130600
 5.130600 5.130600 0.000000
 $end
 
 $unitcell
 ABSOLUTE
 0 1
 Si 0.000000 0.000000 0.000000
 Si 2.565300 2.565300 2.565300
 $end
 
 $rem
 jobtype = sp
 method = pbe
 scf_convergence = 5
 scf_guess = autosad
 scf_algorithm = diis_gdm
 basis = cc-pvqz
 aux_basis = cc-pvqz-jk
 input_bohr = true
 symmetry = false
 rsdf_print_level 1
 is_basis_uctr true
 
 mp_mesh = [4,4,4]
 
 integral_direct true
 bvk_cgto true
 
 thresh 14
 mem_total 1000000
 threads 32
 
 MAX_SCF_CYCLES 500
 madelung = false
 omega 0.6
 do_rij_bigmem true
 automate_g true
 print_level 10
 grid_type_xc 1
 
 thresh_1e2c_sp 1e-14
 thresh_2e3c_bra_ket_sep 1e-10
 thresh_g 1e-12
 $end
 
 -------------------------------------------------------------
 Running PBC job

 Requested Exchange Correlation Functionals: 
  DFT Exchange:  1.00000 pbe_x
  DFT Correlation:  1.00000 pbe_c
 using 32 threads for computing.
 ---------------------------------------------------------------
      Coordinates of Atoms in Central Unit Cell (Angstroms)
    I     Atom         X            Y            Z
 ---------------------------------------------------------------
    1      Si      0.000000     0.000000     0.000000
    2      Si      1.357498     1.357498     1.357498
 ---------------------------------------------------------------
 --------------------------------------------------
              Lattice Vectors (Angstroms)
              X            Y            Z
 --------------------------------------------------
   X       0.000000     2.714997     2.714997
   Y       2.714997     0.000000     2.714997
   Z       2.714997     2.714997     0.000000
 --------------------------------------------------
 --------------------------------------------------
       Reciprocal Lattice Vectors (Angstroms^-1)
              X            Y            Z
 --------------------------------------------------
   X      -1.157126     1.157126     1.157126
   Y       1.157126    -1.157126     1.157126
   Z       1.157126     1.157126    -1.157126
 --------------------------------------------------

 Single point calculation requested

 Hamiltonian contributions:
 List of terms in Hamiltonian: kpts_nn, kpts_kinetic, kpts_vnuc_df, kpts_xc, kpts_rij_bigmem

 K-Points calculation started.

 Basis set information about using solid harmonic (1) or Cartesian (0):
  si : D(1) D(1) D(1) F(1) F(1) G(1) 

 Basis set information about using solid harmonic (1) or Cartesian (0):
  si : D(1) D(1) D(1) D(1) D(1) D(1) D(1) D(1) D(1) F(1) F(1) F(1) F(1) G(1) G(1) H(1) 

 There are 118 basis functions in the central unit cell.
 Print atomic basis of atoms in the central unit cell:
 -------------------------------------------------------------
2 66 134 28

  0.00000000000000e+00  0.00000000000000e+00  0.00000000000000e+00
  2.56530000000000e+00  2.56530000000000e+00  2.56530000000000e+00

  5.13000000000000e+05
  7.68200000000000e+04
  1.74700000000000e+04
  4.93500000000000e+03
  1.60200000000000e+03
  5.74100000000000e+02
  2.21500000000000e+02
  9.05400000000000e+01
  3.87400000000000e+01
  1.69500000000000e+01
  6.45200000000000e+00
  2.87400000000000e+00
  1.25000000000000e+00
  3.59900000000000e-01
  1.69900000000000e-01
  7.06600000000000e-02
  1.12200000000000e+03
  2.66000000000000e+02
  8.59200000000000e+01
  3.23300000000000e+01
  1.33700000000000e+01
  5.80000000000000e+00
  2.55900000000000e+00
  1.12400000000000e+00
  3.98800000000000e-01
  1.53300000000000e-01
  5.72800000000000e-02
  7.60000000000000e-01
  3.02000000000000e-01
  1.20000000000000e-01
  5.41000000000000e-01
  2.12000000000000e-01
  4.61000000000000e-01
  5.13000000000000e+05
  7.68200000000000e+04
  1.74700000000000e+04
  4.93500000000000e+03
  1.60200000000000e+03
  5.74100000000000e+02
  2.21500000000000e+02
  9.05400000000000e+01
  3.87400000000000e+01
  1.69500000000000e+01
  6.45200000000000e+00
  2.87400000000000e+00
  1.25000000000000e+00
  3.59900000000000e-01
  1.69900000000000e-01
  7.06600000000000e-02
  1.12200000000000e+03
  2.66000000000000e+02
  8.59200000000000e+01
  3.23300000000000e+01
  1.33700000000000e+01
  5.80000000000000e+00
  2.55900000000000e+00
  1.12400000000000e+00
  3.98800000000000e-01
  1.53300000000000e-01
  5.72800000000000e-02
  7.60000000000000e-01
  3.02000000000000e-01
  1.20000000000000e-01
  5.41000000000000e-01
  2.12000000000000e-01
  4.61000000000000e-01

  3.56439732356011e-01
  6.67250935594825e-01
  1.15567538346971e+00
  1.89079471139597e+00
  2.92997535092854e+00
  4.25377897422013e+00
  5.53035652706994e+00
  5.88407857713363e+00
  4.26432221020809e+00
  1.46246852660687e+00
  9.90009037975635e-02
 -5.26805361731285e-03
  1.58075269248041e-03
 -9.63604858609034e-02
 -1.80140685379119e-01
 -3.12991611081079e-01
 -5.12013980868736e-01
 -8.03092560139717e-01
 -1.18597193899895e+00
 -1.63453354628192e+00
 -1.94138718043020e+00
 -1.86039340932271e+00
 -9.21642524314205e-01
  4.93552860211257e-01
  9.09065541611183e-01
  3.40430003714153e-01
  4.89002727192571e-02
  9.13245846186842e-02
  1.58921585782757e-01
  2.59526822498432e-01
  4.08347517411705e-01
  6.02266139654795e-01
  8.36774006155092e-01
  9.98775610751853e-01
  9.86583994360998e-01
  5.01500269670235e-01
 -2.91439000418814e-01
 -6.84883633703988e-01
 -4.85138432421684e-01
  3.31166560285492e-01
  1.88605835767988e-01
  9.76765512168845e-02
  4.17977074735086e+00
  5.88843070847456e+00
  7.44317185052013e+00
  8.05001094515016e+00
  6.97099017282640e+00
  4.33955185260449e+00
  1.76355858703549e+00
  3.34437932089088e-01
 -4.09551658476811e+00
 -5.70145272051300e+00
 -7.35388974061730e+00
 -7.93663059323219e+00
 -7.17813870370958e+00
 -4.42768957771269e+00
 -2.05517820096269e+00
 -1.72105843348797e-01
  4.51735295769850e-01
  1.36731249153695e-01
  3.99432914781939e-02
  1.01820035164008e+00
  2.02498404800701e-01
  4.02695370421242e-02
  3.69528803814005e-01
  4.48962571437413e-02
  1.32316184864580e-01
  3.56439732356011e-01
  6.67250935594825e-01
  1.15567538346971e+00
  1.89079471139597e+00
  2.92997535092854e+00
  4.25377897422013e+00
  5.53035652706994e+00
  5.88407857713363e+00
  4.26432221020809e+00
  1.46246852660687e+00
  9.90009037975635e-02
 -5.26805361731285e-03
  1.58075269248041e-03
 -9.63604858609034e-02
 -1.80140685379119e-01
 -3.12991611081079e-01
 -5.12013980868736e-01
 -8.03092560139717e-01
 -1.18597193899895e+00
 -1.63453354628192e+00
 -1.94138718043020e+00
 -1.86039340932271e+00
 -9.21642524314205e-01
  4.93552860211257e-01
  9.09065541611183e-01
  3.40430003714153e-01
  4.89002727192571e-02
  9.13245846186842e-02
  1.58921585782757e-01
  2.59526822498432e-01
  4.08347517411705e-01
  6.02266139654795e-01
  8.36774006155092e-01
  9.98775610751853e-01
  9.86583994360998e-01
  5.01500269670235e-01
 -2.91439000418814e-01
 -6.84883633703988e-01
 -4.85138432421684e-01
  3.31166560285492e-01
  1.88605835767988e-01
  9.76765512168845e-02
  4.17977074735086e+00
  5.88843070847456e+00
  7.44317185052013e+00
  8.05001094515016e+00
  6.97099017282640e+00
  4.33955185260449e+00
  1.76355858703549e+00
  3.34437932089088e-01
 -4.09551658476811e+00
 -5.70145272051300e+00
 -7.35388974061730e+00
 -7.93663059323219e+00
 -7.17813870370958e+00
 -4.42768957771269e+00
 -2.05517820096269e+00
 -1.72105843348797e-01
  4.51735295769850e-01
  1.36731249153695e-01
  3.99432914781939e-02
  1.01820035164008e+00
  2.02498404800701e-01
  4.02695370421242e-02
  3.69528803814005e-01
  4.48962571437413e-02
  1.32316184864580e-01

0 0 0 0 3 3 3
0 0 13 0 26 0 
13 0

0 3 3 13 1 1 1
39 0 
1 0

0 4 4 14 1 1 1
40 0 
1 0

0 5 5 15 1 1 1
41 0 
1 0

0 6 6 16 2 6 6
42 1 50 1 
8 0

0 12 12 24 1 3 3
58 1 
1 0

0 15 15 25 1 3 3
59 1 
1 0

0 18 18 26 1 3 3
60 1 
1 0

0 21 21 27 1 5 6
61 2 
1 1

0 26 26 28 1 5 6
62 2 
1 1

0 31 31 29 1 5 6
63 2 
1 1

0 36 36 30 1 7 10
64 3 
1 1

0 43 43 31 1 7 10
65 3 
1 1

0 50 50 32 1 9 15
66 4 
1 1

1 59 59 33 3 3 3
67 0 80 0 93 0 
13 0

1 62 62 46 1 1 1
106 0 
1 0

1 63 63 47 1 1 1
107 0 
1 0

1 64 64 48 1 1 1
108 0 
1 0

1 65 65 49 2 6 6
109 1 117 1 
8 0

1 71 71 57 1 3 3
125 1 
1 0

1 74 74 58 1 3 3
126 1 
1 0

1 77 77 59 1 3 3
127 1 
1 0

1 80 80 60 1 5 6
128 2 
1 1

1 85 85 61 1 5 6
129 2 
1 1

1 90 90 62 1 5 6
130 2 
1 1

1 95 95 63 1 7 10
131 3 
1 1

1 102 102 64 1 7 10
132 3 
1 1

1 109 109 65 1 9 15
133 4 
1 1

 -------------------------------------------------------------
 Allocate 265256 B from available memory: 1048576000000 B
 There are 2197 image cells after screening.
 There are 2061 image cells for CGTO evaluation after screening.
 Real-Space grid for FFT initialized based on kinetic energy cutoff (eV) = 500.0
 Real-Space grid for FFT: (10,10,10)
 There are 9261 real-space grid points.
 There are 64 batches of real-space grid points. 
 Size of each grid batch is around 128
 Grid for AFT initialized based on kinetic energy cutoff (eV) = 500.0
 Real-Space grid for AFT: (10,10,10)
 There are 9261 real-space grid points.

 There are 5628 atom-centered grid points.

 Spacegroup symmetry group: Fd-3m
 Reducing spacegroup symmetry to symmorphic group: F -4 3 m
 Monkhorst-Pack mesh is [4,4,4]
 There are 64 k points.
kpoints in Bohr
-0.1530811530 -0.1530811530 -0.1530811530
-0.0000000000 -0.0000000000 -0.3061623059
0.1530811530 0.1530811530 -0.4592434589
0.3061623059 0.3061623059 -0.6123246119
-0.0000000000 -0.3061623059 0.0000000000
0.1530811530 -0.1530811530 -0.1530811530
0.3061623059 0.0000000000 -0.3061623059
0.4592434589 0.1530811530 -0.4592434589
0.1530811530 -0.4592434589 0.1530811530
0.3061623059 -0.3061623059 0.0000000000
0.4592434589 -0.1530811530 -0.1530811530
0.6123246119 0.0000000000 -0.3061623059
0.3061623059 -0.6123246119 0.3061623059
0.4592434589 -0.4592434589 0.1530811530
0.6123246119 -0.3061623059 0.0000000000
0.7654057648 -0.1530811530 -0.1530811530
-0.3061623059 -0.0000000000 -0.0000000000
-0.1530811530 0.1530811530 -0.1530811530
0.0000000000 0.3061623059 -0.3061623059
0.1530811530 0.4592434589 -0.4592434589
-0.1530811530 -0.1530811530 0.1530811530
0.0000000000 0.0000000000 0.0000000000
0.1530811530 0.1530811530 -0.1530811530
0.3061623059 0.3061623059 -0.3061623059
-0.0000000000 -0.3061623059 0.3061623059
0.1530811530 -0.1530811530 0.1530811530
0.3061623059 0.0000000000 0.0000000000
0.4592434589 0.1530811530 -0.1530811530
0.1530811530 -0.4592434589 0.4592434589
0.3061623059 -0.3061623059 0.3061623059
0.4592434589 -0.1530811530 0.1530811530
0.6123246119 0.0000000000 0.0000000000
-0.4592434589 0.1530811530 0.1530811530
-0.3061623059 0.3061623059 -0.0000000000
-0.1530811530 0.4592434589 -0.1530811530
0.0000000000 0.6123246119 -0.3061623059
-0.3061623059 0.0000000000 0.3061623059
-0.1530811530 0.1530811530 0.1530811530
0.0000000000 0.3061623059 0.0000000000
0.1530811530 0.4592434589 -0.1530811530
-0.1530811530 -0.1530811530 0.4592434589
0.0000000000 0.0000000000 0.3061623059
0.1530811530 0.1530811530 0.1530811530
0.3061623059 0.3061623059 0.0000000000
0.0000000000 -0.3061623059 0.6123246119
0.1530811530 -0.1530811530 0.4592434589
0.3061623059 0.0000000000 0.3061623059
0.4592434589 0.1530811530 0.1530811530
-0.6123246119 0.3061623059 0.3061623059
-0.4592434589 0.4592434589 0.1530811530
-0.3061623059 0.6123246119 -0.0000000000
-0.1530811530 0.7654057648 -0.1530811530
-0.4592434589 0.1530811530 0.4592434589
-0.3061623059 0.3061623059 0.3061623059
-0.1530811530 0.4592434589 0.1530811530
0.0000000000 0.6123246119 0.0000000000
-0.3061623059 0.0000000000 0.6123246119
-0.1530811530 0.1530811530 0.4592434589
0.0000000000 0.3061623059 0.3061623059
0.1530811530 0.4592434589 0.1530811530
-0.1530811530 -0.1530811530 0.7654057648
0.0000000000 0.0000000000 0.6123246119
0.1530811530 0.1530811530 0.4592434589
0.3061623059 0.3061623059 0.3061623059
 There are 14 alpha and 14 beta electrons
 Start computing overlap matrix
 Allocate 14258176 B from available memory: 1048575734752 B
 Time for computing overlap matrix: 3.6460000000 s
 ====== Initialize compute kernels for all-electron RI-J (kpts) ====== 
 ========================================================== 
 Range-separated parameter omega        = 0.599999999999999978
 Threshold for 1e2c shellpair           = 0.000000000000010000
 Threshold for 2e2c SR integral         = 0.000000000000000001
 Threshold for 2e3c SR integral         = 0.000000000100000000
 Threshold for AFT G-space screening is = 0.000000000001000000
 The exponent cutoff for C/D classification (omega2 / 2) is  = 0.179999999999999993
 ========================================================== 
 === Post process the basis set for RI calculation (exp_cutoff = 0.179999999999999993 ) === 
nshells_b1 before uncontraction = 28
nshells_b1 after uncontraction = 28
nshells_baux before uncontraction = 80
nshells_baux after uncontraction = 80
===============================================
nbsf total   = 118
nbsf compact = 92
nbsf diffuse = 26
naux total   = 296
naux compact = 296
naux diffuse = 0
nshells_bnuc = 2

 Number of unique atoms is 1
 Unique atom #0 (si) has 9 shells.

Shell 0 to 8 belongs to atom si
Shell 9 to 17 belongs to atom si

 Number of unique atoms is 1
 Unique atom #0 (si) has 5 shells.

Shell 0 to 4 belongs to atom si
Shell 5 to 9 belongs to atom si

 Number of unique atom is 1
 Unique atom #0 (si) has 40 auxiliary shells.

Auxiliary Shell 0 to 39 belongs to atom si
Auxiliary Shell 40 to 79 belongs to atom si

================= Automatically determine grid size for reciprocal space summation =================
 Range-separated parameter = 0.60000000000000 and G-space screening threshold = 0.00000000000100
The number of grid points along each axis dimension is (7, 7, 7)
Total number of grid points = 3375

Use nonortho shellpair for diffuse density
======== Initializing relevant kernel for RIJ (DD type) ========
There are 55 shellpairs in the reference unit cell
There are 3757 images and we expect to have 206635 in total
There are 11898 shellpairs in the lattice sum after screening
======== Initializing relevant kernel for RIJ (CD type) ========
There are 180 shellpairs in the reference unit cell
There are 2659 images and we expect to have 478620 in total
There are 19974 shellpairs in the lattice sum after screening
****** AFT -> SR ******
Maximum bra distance cutoff is 23.000000000000
Maximum bra ket distance cutoff is 24.132153614458
Maximum bra ket screening distance is 21.593750000000
Number of auxiliary image is 647
There are 180 shellpairs in the reference unit cell
There are 551 images and we expect to have 99180 in total
There are 19974 shellpairs in the lattice sum after screening
Available memory per thread for 2e3c calculation is 32.767546143000Gb
Finish initializing 2e3c SR with the lattice sum!
=================================================
======== Initializing relevant kernel for RIJ (CC type) ========
There are 171 shellpairs in the reference unit cell
There are 1241 images and we expect to have 212211 in total
There are 4082 shellpairs in the lattice sum after screening
****** AFT -> SR ******
Maximum bra distance cutoff is 15.000000000000
Maximum bra ket distance cutoff is 25.131175705795
Maximum bra ket screening distance is 21.156250000000
Number of auxiliary image is 647
There are 171 shellpairs in the reference unit cell
There are 237 images and we expect to have 40527 in total
There are 4082 shellpairs in the lattice sum after screening
Available memory per thread for 2e3c calculation is 32.767546143000Gb
Finish initializing 2e3c SR with the lattice sum!
=================================================
======== Initializing the SR component for Vnuc (CD type) ========
Maximum bra distance cutoff is 23.000000000000
Maximum bra ket distance cutoff is 16.737418337388
Maximum bra ket screening distance is 14.115333913559
Number of auxiliary image is 551
There are 180 shellpairs in the reference unit cell
There are 551 images and we expect to have 99180 in total
There are 19974 shellpairs in the lattice sum after screening
Available memory per thread for 2e3c calculation is 32.767546143000Gb
Finish initializing 2e3c SR with the lattice sum!
=================================================
======== Initialize the SR component for Vnuc (CC type) ========
Maximum bra distance cutoff is 15.000000000000
Maximum bra ket distance cutoff is 17.743801426189
Maximum bra ket screening distance is 13.222397966002
Number of auxiliary image is 285
There are 171 shellpairs in the reference unit cell
There are 237 images and we expect to have 40527 in total
There are 4082 shellpairs in the lattice sum after screening
Available memory per thread for 2e3c calculation is 32.767546143000Gb
Finish initializing 2e3c SR with the lattice sum!
=================================================
 Aufbau occupation scheme, occupation determined by eigenvalue
 == 0-th k-point nmo = 115 (-0.15308,-0.15308,-0.15308) ==
 == 1-th k-point nmo = 114 (-0.00000,-0.00000,-0.30616) ==
 == 2-th k-point nmo = 114 (0.15308,0.15308,-0.45924) ==
 == 3-th k-point nmo = 114 (0.30616,0.30616,-0.61232) ==
 == 4-th k-point nmo = 114 (-0.00000,-0.30616,0.00000) ==
 == 5-th k-point nmo = 115 (0.15308,-0.15308,-0.15308) ==
 == 6-th k-point nmo = 114 (0.30616,0.00000,-0.30616) ==
 == 7-th k-point nmo = 114 (0.45924,0.15308,-0.45924) ==
 == 8-th k-point nmo = 114 (0.15308,-0.45924,0.15308) ==
 == 9-th k-point nmo = 114 (0.30616,-0.30616,0.00000) ==
 == 10-th k-point nmo = 114 (0.45924,-0.15308,-0.15308) ==
 == 11-th k-point nmo = 114 (0.61232,0.00000,-0.30616) ==
 == 12-th k-point nmo = 114 (0.30616,-0.61232,0.30616) ==
 == 13-th k-point nmo = 114 (0.45924,-0.45924,0.15308) ==
 == 14-th k-point nmo = 114 (0.61232,-0.30616,0.00000) ==
 == 15-th k-point nmo = 114 (0.76541,-0.15308,-0.15308) ==
 == 16-th k-point nmo = 114 (-0.30616,-0.00000,-0.00000) ==
 == 17-th k-point nmo = 115 (-0.15308,0.15308,-0.15308) ==
 == 18-th k-point nmo = 114 (0.00000,0.30616,-0.30616) ==
 == 19-th k-point nmo = 114 (0.15308,0.45924,-0.45924) ==
 == 20-th k-point nmo = 115 (-0.15308,-0.15308,0.15308) ==
 == 21-th k-point nmo = 115 (0.00000,0.00000,0.00000) ==
 == 22-th k-point nmo = 115 (0.15308,0.15308,-0.15308) ==
 == 23-th k-point nmo = 114 (0.30616,0.30616,-0.30616) ==
 == 24-th k-point nmo = 114 (-0.00000,-0.30616,0.30616) ==
 == 25-th k-point nmo = 115 (0.15308,-0.15308,0.15308) ==
 == 26-th k-point nmo = 114 (0.30616,0.00000,0.00000) ==
 == 27-th k-point nmo = 114 (0.45924,0.15308,-0.15308) ==
 == 28-th k-point nmo = 114 (0.15308,-0.45924,0.45924) ==
 == 29-th k-point nmo = 114 (0.30616,-0.30616,0.30616) ==
 == 30-th k-point nmo = 114 (0.45924,-0.15308,0.15308) ==
 == 31-th k-point nmo = 114 (0.61232,0.00000,0.00000) ==
 == 32-th k-point nmo = 114 (-0.45924,0.15308,0.15308) ==
 == 33-th k-point nmo = 114 (-0.30616,0.30616,-0.00000) ==
 == 34-th k-point nmo = 114 (-0.15308,0.45924,-0.15308) ==
 == 35-th k-point nmo = 114 (0.00000,0.61232,-0.30616) ==
 == 36-th k-point nmo = 114 (-0.30616,0.00000,0.30616) ==
 == 37-th k-point nmo = 115 (-0.15308,0.15308,0.15308) ==
 == 38-th k-point nmo = 114 (0.00000,0.30616,0.00000) ==
 == 39-th k-point nmo = 114 (0.15308,0.45924,-0.15308) ==
 == 40-th k-point nmo = 114 (-0.15308,-0.15308,0.45924) ==
 == 41-th k-point nmo = 114 (0.00000,0.00000,0.30616) ==
 == 42-th k-point nmo = 115 (0.15308,0.15308,0.15308) ==
 == 43-th k-point nmo = 114 (0.30616,0.30616,0.00000) ==
 == 44-th k-point nmo = 114 (0.00000,-0.30616,0.61232) ==
 == 45-th k-point nmo = 114 (0.15308,-0.15308,0.45924) ==
 == 46-th k-point nmo = 114 (0.30616,0.00000,0.30616) ==
 == 47-th k-point nmo = 114 (0.45924,0.15308,0.15308) ==
 == 48-th k-point nmo = 114 (-0.61232,0.30616,0.30616) ==
 == 49-th k-point nmo = 114 (-0.45924,0.45924,0.15308) ==
 == 50-th k-point nmo = 114 (-0.30616,0.61232,-0.00000) ==
 == 51-th k-point nmo = 114 (-0.15308,0.76541,-0.15308) ==
 == 52-th k-point nmo = 114 (-0.45924,0.15308,0.45924) ==
 == 53-th k-point nmo = 114 (-0.30616,0.30616,0.30616) ==
 == 54-th k-point nmo = 114 (-0.15308,0.45924,0.15308) ==
 == 55-th k-point nmo = 114 (0.00000,0.61232,0.00000) ==
 == 56-th k-point nmo = 114 (-0.30616,0.00000,0.61232) ==
 == 57-th k-point nmo = 114 (-0.15308,0.15308,0.45924) ==
 == 58-th k-point nmo = 114 (0.00000,0.30616,0.30616) ==
 == 59-th k-point nmo = 114 (0.15308,0.45924,0.15308) ==
 == 60-th k-point nmo = 114 (-0.15308,-0.15308,0.76541) ==
 == 61-th k-point nmo = 114 (0.00000,0.00000,0.61232) ==
 == 62-th k-point nmo = 114 (0.15308,0.15308,0.45924) ==
 == 63-th k-point nmo = 114 (0.30616,0.30616,0.30616) ==

 Generate autoSAD guess
backing up fragment data
Atom # 0: si, charge: 0, multiplicity: 3.000000
writing autosad to fragment context
Settings for isolated fragments: 
  frgm_gamma: TRUE
  frgm_center: FALSE

    Running SCF for isolated atom #0
    Fragment Input file: /n/netscratch/joonholee_lab/Lab/hieudinh//si_2_ccpvqz_omega_0.6_444.scratch20250909030225/autosad_frgmt_0/frgmt_input.in
    Fragment Output file: /n/netscratch/joonholee_lab/Lab/hieudinh//si_2_ccpvqz_omega_0.6_444.scratch20250909030225/autosad_frgmt_0/frgmt_job.out
    Fragment job begins at Tue Sep  9 03:02:31 2025

 Integrated density by DFT XC:
   Numerical integral  =    13.999999643759
   Relative error      =     0.0000025446 %
Final energy components:
 DFT Correlation            Energy =  -0.48370207231611
 DFT Exchange               Energy = -20.13940840112213
 Kinetic (alpha)            Energy = 145.05483363964760
 Kinetic (beta)             Energy = 143.11842945473211
 Nuclear Attraction (alpha) Energy = -351.06191315317898
 Nuclear Attraction (beta)  Energy = -337.54515075030258
 Nuclear Repulsion          Energy =   0.00000000000000
 SEOQF                      Energy =  -0.00000000010144
 Total Coulomb              Energy = 131.82731983024468
----------------------------------------------
    SCF Energy: -289.2295914524
   Total fragment job time:  0.56 s.
restoring fragment data

 ------------------------------------------------------------------------
 Allocate 44418656 B from available memory: 1048561476576 B
 Time for generating SCF guess: 0.59 s

 Allocate 97424 B from available memory: 1048517057920 B
 Selected algorithms for each term:
  kpts_kinetic -> @0x151b9c5d7680
  kpts_nn -> @0x151b9c5d7800
  kpts_rij_bigmem -> @0x151b9c5d73e0
  kpts_vnuc_df -> @0x151b9c5d7380
  kpts_xc -> @0x151b9c5d72c0
 Time for computing kinetic matrix is 3.43 s
Start calculating Vnuc DD type!
Start calculating Vnuc CD type!
Start calculating Vnuc CC type!
 Time for computing nuclear attraction matrix is 7.54 s
Compute (P|Q) and use solve on the fly!
Maximum distance between P and Q is 29.79462221820766
Number of images for (P|Qn) is 911
 Time for computing 2e2c SR integral is 0.12 s
Maximum dynamic memory per thread for 2e3c SR integrals: 0.067 GiB
Batch size for basis function pair is 2392 out of 2392
 === bvk cell = 0 has 100.000 % of the basis function pairs === 
 === bvk cell = 1 has 100.000 % of the basis function pairs === 
 === bvk cell = 2 has 99.247 % of the basis function pairs === 
 === bvk cell = 3 has 100.000 % of the basis function pairs === 
 === bvk cell = 4 has 100.000 % of the basis function pairs === 
 === bvk cell = 5 has 90.552 % of the basis function pairs === 
 === bvk cell = 6 has 97.617 % of the basis function pairs === 
 === bvk cell = 7 has 100.000 % of the basis function pairs === 
 === bvk cell = 8 has 99.247 % of the basis function pairs === 
 === bvk cell = 9 has 97.617 % of the basis function pairs === 
 === bvk cell = 10 has 94.482 % of the basis function pairs === 
 === bvk cell = 11 has 97.617 % of the basis function pairs === 
 === bvk cell = 12 has 100.000 % of the basis function pairs === 
 === bvk cell = 13 has 100.000 % of the basis function pairs === 
 === bvk cell = 14 has 97.617 % of the basis function pairs === 
 === bvk cell = 15 has 90.552 % of the basis function pairs === 
 === bvk cell = 16 has 100.000 % of the basis function pairs === 
 === bvk cell = 17 has 90.552 % of the basis function pairs === 
 === bvk cell = 18 has 97.617 % of the basis function pairs === 
 === bvk cell = 19 has 100.000 % of the basis function pairs === 
 === bvk cell = 20 has 90.552 % of the basis function pairs === 
 === bvk cell = 21 has 60.953 % of the basis function pairs === 
 === bvk cell = 22 has 100.000 % of the basis function pairs === 
 === bvk cell = 23 has 100.000 % of the basis function pairs === 
 === bvk cell = 24 has 97.617 % of the basis function pairs === 
 === bvk cell = 25 has 100.000 % of the basis function pairs === 
 === bvk cell = 26 has 67.642 % of the basis function pairs === 
 === bvk cell = 27 has 85.870 % of the basis function pairs === 
 === bvk cell = 28 has 100.000 % of the basis function pairs === 
 === bvk cell = 29 has 100.000 % of the basis function pairs === 
 === bvk cell = 30 has 85.870 % of the basis function pairs === 
 === bvk cell = 31 has 100.000 % of the basis function pairs === 
 === bvk cell = 32 has 99.247 % of the basis function pairs === 
 === bvk cell = 33 has 97.617 % of the basis function pairs === 
 === bvk cell = 34 has 94.482 % of the basis function pairs === 
 === bvk cell = 35 has 97.617 % of the basis function pairs === 
 === bvk cell = 36 has 97.617 % of the basis function pairs === 
 === bvk cell = 37 has 100.000 % of the basis function pairs === 
 === bvk cell = 38 has 67.642 % of the basis function pairs === 
 === bvk cell = 39 has 85.870 % of the basis function pairs === 
 === bvk cell = 40 has 94.482 % of the basis function pairs === 
 === bvk cell = 41 has 67.642 % of the basis function pairs === 
 === bvk cell = 42 has 33.696 % of the basis function pairs === 
 === bvk cell = 43 has 67.642 % of the basis function pairs === 
 === bvk cell = 44 has 97.617 % of the basis function pairs === 
 === bvk cell = 45 has 85.870 % of the basis function pairs === 
 === bvk cell = 46 has 67.642 % of the basis function pairs === 
 === bvk cell = 47 has 100.000 % of the basis function pairs === 
 === bvk cell = 48 has 100.000 % of the basis function pairs === 
 === bvk cell = 49 has 100.000 % of the basis function pairs === 
 === bvk cell = 50 has 97.617 % of the basis function pairs === 
 === bvk cell = 51 has 90.552 % of the basis function pairs === 
 === bvk cell = 52 has 100.000 % of the basis function pairs === 
 === bvk cell = 53 has 100.000 % of the basis function pairs === 
 === bvk cell = 54 has 85.870 % of the basis function pairs === 
 === bvk cell = 55 has 100.000 % of the basis function pairs === 
 === bvk cell = 56 has 97.617 % of the basis function pairs === 
 === bvk cell = 57 has 85.870 % of the basis function pairs === 
 === bvk cell = 58 has 67.642 % of the basis function pairs === 
 === bvk cell = 59 has 100.000 % of the basis function pairs === 
 === bvk cell = 60 has 90.552 % of the basis function pairs === 
 === bvk cell = 61 has 100.000 % of the basis function pairs === 
 === bvk cell = 62 has 100.000 % of the basis function pairs === 
 === bvk cell = 63 has 60.953 % of the basis function pairs === 
Static memory requirement for 2e3c SR integrals: 0.310 GB
There are 1 munu batches for computing 2e3c SR integrals with latsum
There are 5 Q batches for computing 2e3c SR integrals with latsum
 Time for computing 2e3c SR integral (CD) is 2.75 s
Maximum dynamic memory per thread for 2e3c SR integrals: 0.052 GiB
Batch size for basis function pair is 4516 out of 4516
 === bvk cell = 0 has 100.000 % of the basis function pairs === 
 === bvk cell = 1 has 89.393 % of the basis function pairs === 
 === bvk cell = 2 has 26.395 % of the basis function pairs === 
 === bvk cell = 3 has 84.035 % of the basis function pairs === 
 === bvk cell = 4 has 89.393 % of the basis function pairs === 
 === bvk cell = 5 has 39.925 % of the basis function pairs === 
 === bvk cell = 6 has 23.494 % of the basis function pairs === 
 === bvk cell = 7 has 95.018 % of the basis function pairs === 
 === bvk cell = 8 has 26.395 % of the basis function pairs === 
 === bvk cell = 9 has 23.494 % of the basis function pairs === 
 === bvk cell = 10 has 4.805 % of the basis function pairs === 
 === bvk cell = 11 has 27.547 % of the basis function pairs === 
 === bvk cell = 12 has 84.035 % of the basis function pairs === 
 === bvk cell = 13 has 95.018 % of the basis function pairs === 
 === bvk cell = 14 has 27.547 % of the basis function pairs === 
 === bvk cell = 15 has 30.425 % of the basis function pairs === 
 === bvk cell = 16 has 89.393 % of the basis function pairs === 
 === bvk cell = 17 has 39.925 % of the basis function pairs === 
 === bvk cell = 18 has 23.494 % of the basis function pairs === 
 === bvk cell = 19 has 95.018 % of the basis function pairs === 
 === bvk cell = 20 has 39.925 % of the basis function pairs === 
 === bvk cell = 21 has 6.709 % of the basis function pairs === 
 === bvk cell = 22 has 23.251 % of the basis function pairs === 
 === bvk cell = 23 has 67.316 % of the basis function pairs === 
 === bvk cell = 24 has 23.494 % of the basis function pairs === 
 === bvk cell = 25 has 23.251 % of the basis function pairs === 
 === bvk cell = 26 has 1.085 % of the basis function pairs === 
 === bvk cell = 27 has 9.610 % of the basis function pairs === 
 === bvk cell = 28 has 95.018 % of the basis function pairs === 
 === bvk cell = 29 has 67.316 % of the basis function pairs === 
 === bvk cell = 30 has 9.610 % of the basis function pairs === 
 === bvk cell = 31 has 61.625 % of the basis function pairs === 
 === bvk cell = 32 has 26.395 % of the basis function pairs === 
 === bvk cell = 33 has 23.494 % of the basis function pairs === 
 === bvk cell = 34 has 4.805 % of the basis function pairs === 
 === bvk cell = 35 has 27.547 % of the basis function pairs === 
 === bvk cell = 36 has 23.494 % of the basis function pairs === 
 === bvk cell = 37 has 23.251 % of the basis function pairs === 
 === bvk cell = 38 has 1.085 % of the basis function pairs === 
 === bvk cell = 39 has 9.610 % of the basis function pairs === 
 === bvk cell = 40 has 4.805 % of the basis function pairs === 
 === bvk cell = 41 has 1.085 % of the basis function pairs === 
 === bvk cell = 42 has 0.000 % of the basis function pairs === 
 === bvk cell = 43 has 0.000 % of the basis function pairs === 
 === bvk cell = 44 has 27.547 % of the basis function pairs === 
 === bvk cell = 45 has 9.610 % of the basis function pairs === 
 === bvk cell = 46 has 0.000 % of the basis function pairs === 
 === bvk cell = 47 has 23.251 % of the basis function pairs === 
 === bvk cell = 48 has 84.035 % of the basis function pairs === 
 === bvk cell = 49 has 95.018 % of the basis function pairs === 
 === bvk cell = 50 has 27.547 % of the basis function pairs === 
 === bvk cell = 51 has 30.425 % of the basis function pairs === 
 === bvk cell = 52 has 95.018 % of the basis function pairs === 
 === bvk cell = 53 has 67.316 % of the basis function pairs === 
 === bvk cell = 54 has 9.610 % of the basis function pairs === 
 === bvk cell = 55 has 61.625 % of the basis function pairs === 
 === bvk cell = 56 has 27.547 % of the basis function pairs === 
 === bvk cell = 57 has 9.610 % of the basis function pairs === 
 === bvk cell = 58 has 0.000 % of the basis function pairs === 
 === bvk cell = 59 has 23.251 % of the basis function pairs === 
 === bvk cell = 60 has 30.425 % of the basis function pairs === 
 === bvk cell = 61 has 61.625 % of the basis function pairs === 
 === bvk cell = 62 has 23.251 % of the basis function pairs === 
 === bvk cell = 63 has 2.901 % of the basis function pairs === 
Static memory requirement for 2e3c SR integrals: 0.239 GB
There are 1 munu batches for computing 2e3c SR integrals with latsum
There are 5 Q batches for computing 2e3c SR integrals with latsum
 Time for computing 2e3c SR integral (CC) is 1.51 s
 Time for RI-J this SCF iteration is 5.31 s
 Time for RI-J this SCF iteration is 0.95 s
 ----------------------------------------------
 Guess energy: -578.7814960575
 ----------------------------------------------
 Guess energy components:
 DFT Correlation    Energy =  -1.09214411398161
 DFT Exchange       Energy = -40.56971171290072
 Kinetic            Energy = 577.43237673920578
 Nuclear Attraction Energy = -1186.20086128846242
 Nuclear Repulsion  Energy = -102.89365928466421
 Total Coulomb      Energy = 174.54250360334495
 ----------------------------------------------
  Cycle       Energy         DIIS error
 ----------------------------------------------
 Time for RI-J this SCF iteration is 0.86 s
    1    -578.7868268855      1.06e-03  
 Energy components after cycle 1:
 DFT Correlation    Energy =  -1.09644943858985
 DFT Exchange       Energy = -40.47945251193476
 Kinetic            Energy = 576.58990336409397
 Nuclear Attraction Energy = -1184.38637118666429
 Nuclear Repulsion  Energy = -102.89365928466421
 Total Coulomb      Energy = 173.47920217226257
    2    -578.7868268855      5.61e-04  
 Energy components after cycle 2:
 DFT Correlation    Energy =  -1.09644943858985
 DFT Exchange       Energy = -40.47945251193476
 Kinetic            Energy = 576.58990336409397
 Nuclear Attraction Energy = -1184.38637118666429
 Nuclear Repulsion  Energy = -102.89365928466421
 Total Coulomb      Energy = 173.47920217226257
 ----------------------------------------------
  Cycle       Energy        RMS Gradient
 ----------------------------------------------
 Time for RI-J this SCF iteration is 0.86 s
    1    -578.7874427351      2.10e-02   Descent step
 Energy components after cycle 1:
 DFT Correlation    Energy =  -1.09527543672120
 DFT Exchange       Energy = -40.52146576262493
 Kinetic            Energy = 577.04343905866688
 Nuclear Attraction Energy = -1185.24426394146940
 Nuclear Repulsion  Energy = -102.89365928466421
 Total Coulomb      Energy = 173.92378263174524
 Time for RI-J this SCF iteration is 1.05 s
    2    -578.7879171405      1.99e-02   Normal BFGS step
 Energy components after cycle 2:
 DFT Correlation    Energy =  -1.09541066872061
 DFT Exchange       Energy = -40.51316874331337
 Kinetic            Energy = 576.94738192264981
 Nuclear Attraction Energy = -1185.07474257458853
 Nuclear Repulsion  Energy = -102.89365928466421
 Total Coulomb      Energy = 173.84168220812472
 Time for RI-J this SCF iteration is 0.86 s
    3    -578.7879368560      3.99e-03   Normal BFGS step
 Energy components after cycle 3:
 DFT Correlation    Energy =  -1.09559882930045
 DFT Exchange       Energy = -40.50585030426961
 Kinetic            Energy = 576.86751983999204
 Nuclear Attraction Energy = -1184.92586979358703
 Nuclear Repulsion  Energy = -102.89365928466421
 Total Coulomb      Energy = 173.76552151578773
 Time for RI-J this SCF iteration is 0.86 s
    4    -578.7879461651      2.09e-03   Normal BFGS step
 Energy components after cycle 4:
 DFT Correlation    Energy =  -1.09553461851788
 DFT Exchange       Energy = -40.50899794814315
 Kinetic            Energy = 576.90324350803007
 Nuclear Attraction Energy = -1184.99052141960647
 Nuclear Repulsion  Energy = -102.89365928466421
 Total Coulomb      Energy = 173.79752359783075
 Time for RI-J this SCF iteration is 0.92 s
    5    -578.7879461923      1.26e-04   Normal BFGS step
 Energy components after cycle 5:
 DFT Correlation    Energy =  -1.09552871297489
 DFT Exchange       Energy = -40.50909218366487
 Kinetic            Energy = 576.90400330689988
 Nuclear Attraction Energy = -1184.99236126003461
 Nuclear Repulsion  Energy = -102.89365928466421
 Total Coulomb      Energy = 173.79869194212012
 Time for RI-J this SCF iteration is 0.86 s
    6    -578.7879462009      5.65e-05   Normal BFGS step
 Energy components after cycle 6:
 DFT Correlation    Energy =  -1.09553070183179
 DFT Exchange       Energy = -40.50901850873267
 Kinetic            Energy = 576.90320632931071
 Nuclear Attraction Energy = -1184.99086380945187
 Nuclear Repulsion  Energy = -102.89365928466421
 Total Coulomb      Energy = 173.79791977451885
 Time for RI-J this SCF iteration is 0.86 s
    7    -578.7879462009      3.65e-06   Normal BFGS step
 Energy components after cycle 7:
 DFT Correlation    Energy =  -1.09553088491957
 DFT Exchange       Energy = -40.50902468585983
 Kinetic            Energy = 576.90330063778288
 Nuclear Attraction Energy = -1184.99099874657873
 Nuclear Repulsion  Energy = -102.89365928466421
 Total Coulomb      Energy = 173.79796676336073
    7    -578.7879462009      3.65e-06  Convergence criterion met
 ----------------------------------------------
 Final energy components:
 DFT Correlation    Energy =  -1.09553088491957
 DFT Exchange       Energy = -40.50902468585983
 Kinetic            Energy = 576.90330063778288
 Nuclear Attraction Energy = -1184.99099874657873
 Nuclear Repulsion  Energy = -102.89365928466421
 Total Coulomb      Energy = 173.79796676336073
 ----------------------------------------------
 Final energy is -578.7879462009

 SCF time:   CPU 1645.68s  wall 66.00s 
 Total wall time for computing Kinetic: 0.01 s (10)
 Total wall time for computing RIJ-BIGMEM: 13.40 s (10)
 Total wall time for computing RSDF Vnuc: 0.05 s (10)
 Total wall time for computing DFT XC: 30.66 s (10)
 ---------------------------------------------------------------------------
                        Orbital Energies (a.u.)
 ---------------------------------------------------------------------------
 == 0-th k-point (-0.15308,-0.15308,-0.15308) occupation: 14==
 -65.00276 -65.00275 -4.62533 -4.62510 -3.03705 -3.03705 -3.03699 -3.03649 -3.03640 -3.03640
 -0.13339 0.13218 0.24841 0.24841 0.35251 0.40641 0.40641 0.53159 0.54582 0.54582
 0.60636 0.71191 0.82191 0.82191 0.93964 0.93964 0.94600 1.01502 1.18275 1.18275
 1.26987 1.26987 1.32155 1.37948 1.38198 1.46630 1.46630 1.53593 1.53593 1.56713
 1.56713 1.70094 1.70094 1.71371 1.74405 1.77927 1.84676 1.84676 1.90589 1.93045
 1.94225 1.94225 2.04982 2.06968 2.06968 2.17471 2.17471 2.21379 2.24195 2.24195
 2.28732 2.53183 2.54721 2.57952 2.57952 2.64251 2.64251 2.67342 2.73837 2.73837
 2.92194 2.92293 2.92293 2.97567 3.03081 3.03081 3.07408 3.07408 3.12504 3.16495
 3.21130 3.21130 3.31723 3.31723 3.34980 3.42992 3.42992 3.46967 3.50343 3.50343
 3.51309 3.63568 3.64919 3.64919 3.78485 3.78485 3.80178 3.85581 3.85581 3.88952
 3.94609 4.02183 4.02183 4.32848 4.52524 4.52524 4.62886 7.58118 7.66522 7.66522
 8.55466 8.55466 10.62354 11.76393 13.98008
 == 1-th k-point (-0.00000,-0.00000,-0.30616) occupation: 14==
 -65.00276 -65.00276 -4.62532 -4.62511 -3.03707 -3.03707 -3.03695 -3.03650 -3.03641 -3.03641
 -0.12302 0.14806 0.20643 0.20643 0.31838 0.39307 0.49007 0.49007 0.57556 0.61201
 0.69524 0.75907 0.75907 0.78431 0.92174 0.92174 0.96175 1.03456 1.06022 1.22165
 1.26671 1.29605 1.29606 1.37167 1.37168 1.39297 1.40382 1.58733 1.59890 1.59890
 1.60431 1.66829 1.66836 1.66980 1.79773 1.79790 1.80702 1.82134 1.84902 1.95159
 1.95875 1.95944 2.02901 2.09473 2.12746 2.12762 2.19261 2.26929 2.26938 2.37631
 2.47181 2.54004 2.59028 2.59153 2.60185 2.61840 2.63340 2.65986 2.65993 2.81780
 2.84613 2.93338 2.93369 2.97161 2.97436 3.04769 3.18004 3.18051 3.18095 3.25359
 3.26373 3.31676 3.33366 3.33591 3.33917 3.34171 3.37433 3.38751 3.44902 3.45158
 3.54919 3.55235 3.60736 3.61513 3.76492 3.80867 3.80872 3.85162 3.99988 4.03151
 4.05017 4.05321 4.21515 4.45118 4.56476 4.57203 7.69092 7.69145 8.01769 9.69640
 9.88833 9.91199 12.54078 13.36608
 == 2-th k-point (0.15308,0.15308,-0.45924) occupation: 14==
 -65.00276 -65.00276 -4.62527 -4.62516 -3.03711 -3.03709 -3.03686 -3.03659 -3.03638 -3.03635
 -0.06269 0.04219 0.14585 0.19471 0.33317 0.44170 0.48945 0.49650 0.65417 0.67063
 0.73040 0.74680 0.75647 0.90153 0.93781 0.97010 0.99465 1.00784 1.01867 1.12576
 1.16621 1.21227 1.22968 1.32315 1.35893 1.37064 1.37262 1.44844 1.50048 1.56429
 1.60445 1.64006 1.67123 1.68540 1.71839 1.81800 1.90837 1.93057 1.93829 1.99385
 2.01834 2.04445 2.08193 2.13793 2.16602 2.20079 2.28397 2.31966 2.32997 2.37314
 2.45097 2.46174 2.50328 2.51923 2.61502 2.61704 2.66036 2.74328 2.79602 2.81440
 2.84025 2.90498 2.93428 2.95319 2.95995 3.02548 3.03614 3.05359 3.08484 3.13136
 3.15933 3.23568 3.31752 3.32652 3.33953 3.35023 3.35918 3.43831 3.49732 3.50680
 3.56629 3.65448 3.65757 3.71745 3.72134 3.79102 3.80181 3.84889 3.87836 3.98619
 4.07506 4.21198 4.25411 4.29575 4.56056 4.56946 8.10260 8.34327 8.40451 8.86069
 9.78046 9.94236 13.16276 14.19204
 == 3-th k-point (0.30616,0.30616,-0.61232) occupation: 14==
 -65.00276 -65.00276 -4.62529 -4.62514 -3.03710 -3.03708 -3.03691 -3.03655 -3.03638 -3.03635
 -0.08755 0.07551 0.13762 0.22727 0.36765 0.45367 0.46752 0.50331 0.51804 0.63297
 0.74338 0.76797 0.77288 0.89267 0.91795 0.92571 0.97310 1.07247 1.09003 1.16989
 1.20387 1.22067 1.27449 1.28463 1.32069 1.36385 1.41325 1.45518 1.56549 1.56923
 1.63750 1.66867 1.69226 1.69472 1.71592 1.72095 1.76742 1.88248 1.94777 1.98520
 2.01081 2.04095 2.11366 2.15912 2.21344 2.21691 2.26406 2.35167 2.36123 2.44056
 2.47263 2.49397 2.49614 2.52493 2.57543 2.58063 2.59756 2.75863 2.77343 2.81522
 2.83665 2.87226 2.88769 2.92085 2.94481 2.98758 3.08080 3.11230 3.12270 3.15943
 3.19804 3.30959 3.33877 3.38207 3.38666 3.40392 3.41058 3.42376 3.47848 3.48231
 3.48482 3.49007 3.63809 3.67813 3.70908 3.74326 3.79672 3.82669 3.91829 3.94243
 4.09106 4.14688 4.23923 4.35446 4.52690 4.60844 7.77163 8.29051 8.29868 9.00365
 9.32348 9.85756 13.08324 14.28094
 == 4-th k-point (-0.00000,-0.30616,0.00000) occupation: 14==
 -65.00276 -65.00276 -4.62532 -4.62511 -3.03707 -3.03707 -3.03695 -3.03650 -3.03641 -3.03641
 -0.12302 0.14806 0.20643 0.20643 0.31838 0.39307 0.49007 0.49007 0.57556 0.61201
 0.69524 0.75907 0.75907 0.78431 0.92174 0.92174 0.96175 1.03456 1.06022 1.22165
 1.26671 1.29605 1.29606 1.37167 1.37168 1.39297 1.40382 1.58733 1.59890 1.59890
 1.60431 1.66829 1.66836 1.66980 1.79773 1.79790 1.80702 1.82134 1.84902 1.95159
 1.95875 1.95944 2.02901 2.09473 2.12746 2.12762 2.19261 2.26929 2.26938 2.37631
 2.47181 2.54004 2.59028 2.59153 2.60185 2.61840 2.63340 2.65986 2.65993 2.81780
 2.84613 2.93338 2.93369 2.97161 2.97436 3.04769 3.18004 3.18051 3.18095 3.25359
 3.26373 3.31676 3.33366 3.33591 3.33917 3.34171 3.37433 3.38751 3.44902 3.45158
 3.54919 3.55235 3.60736 3.61513 3.76492 3.80867 3.80872 3.85162 3.99988 4.03151
 4.05017 4.05321 4.21515 4.45118 4.56476 4.57203 7.69092 7.69145 8.01769 9.69640
 9.88833 9.91199 12.54078 13.36608
 == 5-th k-point (0.15308,-0.15308,-0.15308) occupation: 14==
 -65.00276 -65.00275 -4.62533 -4.62510 -3.03705 -3.03705 -3.03699 -3.03649 -3.03640 -3.03640
 -0.13339 0.13218 0.24841 0.24841 0.35251 0.40641 0.40641 0.53159 0.54582 0.54582
 0.60636 0.71191 0.82191 0.82191 0.93964 0.93966 0.94600 1.01512 1.18275 1.18280
 1.26987 1.26988 1.32158 1.37948 1.38197 1.46630 1.46630 1.53593 1.53597 1.56713
 1.56713 1.70094 1.70107 1.71381 1.74405 1.77938 1.84676 1.84747 1.90595 1.93051
 1.94225 1.94265 2.05001 2.06968 2.06968 2.17470 2.17489 2.21401 2.24194 2.24311
 2.28743 2.53213 2.54721 2.57953 2.58077 2.64251 2.64254 2.67359 2.73840 2.74288
 2.92195 2.92294 2.92502 2.97585 3.03081 3.03233 3.07407 3.07497 3.12504 3.16552
 3.21130 3.21255 3.31724 3.32053 3.35295 3.42992 3.42993 3.46986 3.50344 3.50368
 3.51309 3.63950 3.64917 3.64982 3.78484 3.78537 3.80215 3.85582 3.85604 3.88976
 3.94609 4.02183 4.02186 4.32866 4.52522 4.52733 4.63066 7.58135 7.66520 7.66522
 8.55469 8.56137 10.63070 11.76407 13.98756
 == 6-th k-point (0.30616,0.00000,-0.30616) occupation: 14==
 -65.00276 -65.00276 -4.62529 -4.62514 -3.03710 -3.03708 -3.03691 -3.03655 -3.03638 -3.03635
 -0.08755 0.07550 0.13762 0.22727 0.36765 0.45367 0.46752 0.50331 0.51804 0.63297
 0.74337 0.76797 0.77288 0.89266 0.91795 0.92571 0.97310 1.07247 1.09003 1.16987
 1.20379 1.22069 1.27449 1.28463 1.32069 1.36385 1.41325 1.45509 1.56549 1.56945
 1.63750 1.66868 1.69225 1.69462 1.71592 1.72086 1.76740 1.88236 1.94779 1.98519
 2.01080 2.04069 2.11364 2.15904 2.21331 2.21813 2.26394 2.35167 2.36121 2.44474
 2.47263 2.49394 2.49697 2.52451 2.57533 2.58082 2.59750 2.75925 2.77339 2.81507
 2.83660 2.87206 2.88766 2.92086 2.94481 2.98759 3.08032 3.11278 3.12255 3.15930
 3.19856 3.30955 3.33796 3.38203 3.38623 3.40389 3.41059 3.42328 3.48071 3.48471
 3.48588 3.49020 3.63733 3.67778 3.70934 3.73860 3.79668 3.82893 3.91811 3.94223
 4.09111 4.14661 4.23923 4.35426 4.52728 4.60801 7.77163 8.29045 8.29991 9.00326
 9.31991 9.85629 13.08021 14.28077
 == 7-th k-point (0.45924,0.15308,-0.45924) occupation: 14==
 -65.00276 -65.00276 -4.62527 -4.62516 -3.03711 -3.03709 -3.03686 -3.03659 -3.03638 -3.03635
 -0.06269 0.04219 0.14585 0.19471 0.33317 0.44170 0.48945 0.49650 0.65417 0.67063
 0.73040 0.74680 0.75647 0.90153 0.93782 0.97010 0.99465 1.00784 1.01867 1.12576
 1.16621 1.21227 1.22968 1.32315 1.35893 1.37065 1.37262 1.44844 1.50047 1.56429
 1.60445 1.64005 1.67122 1.68539 1.71839 1.81800 1.90837 1.93059 1.93828 1.99385
 2.01834 2.04444 2.08188 2.13782 2.16601 2.20081 2.28397 2.31966 2.32993 2.37318
 2.45096 2.46173 2.50325 2.51923 2.61502 2.61702 2.66035 2.74328 2.79601 2.81440
 2.84022 2.90496 2.93410 2.95318 2.95994 3.02549 3.03611 3.05360 3.08484 3.13099
 3.15923 3.23560 3.31750 3.32637 3.33950 3.35022 3.35918 3.43827 3.49727 3.50676
 3.56628 3.65443 3.65761 3.71740 3.72137 3.79104 3.80171 3.84886 3.87817 3.98614
 4.07500 4.21159 4.25409 4.29575 4.56015 4.56932 8.10261 8.34325 8.40449 8.86056
 9.77920 9.94181 13.16277 14.19176
 == 8-th k-point (0.15308,-0.45924,0.15308) occupation: 14==
 -65.00276 -65.00276 -4.62527 -4.62516 -3.03711 -3.03709 -3.03686 -3.03659 -3.03638 -3.03635
 -0.06269 0.04219 0.14585 0.19471 0.33317 0.44170 0.48945 0.49650 0.65417 0.67063
 0.73040 0.74680 0.75647 0.90153 0.93781 0.97010 0.99465 1.00784 1.01867 1.12576
 1.16621 1.21227 1.22968 1.32315 1.35893 1.37064 1.37262 1.44844 1.50048 1.56429
 1.60445 1.64006 1.67123 1.68540 1.71839 1.81800 1.90837 1.93057 1.93829 1.99385
 2.01834 2.04445 2.08193 2.13793 2.16602 2.20079 2.28397 2.31966 2.32997 2.37314
 2.45097 2.46174 2.50328 2.51923 2.61502 2.61704 2.66036 2.74328 2.79602 2.81440
 2.84025 2.90498 2.93428 2.95319 2.95995 3.02548 3.03614 3.05359 3.08484 3.13136
 3.15933 3.23568 3.31752 3.32652 3.33953 3.35023 3.35918 3.43831 3.49732 3.50680
 3.56629 3.65448 3.65757 3.71745 3.72134 3.79102 3.80181 3.84889 3.87836 3.98619
 4.07506 4.21198 4.25411 4.29575 4.56056 4.56946 8.10260 8.34327 8.40451 8.86069
 9.78046 9.94236 13.16276 14.19204
 == 9-th k-point (0.30616,-0.30616,0.00000) occupation: 14==
 -65.00276 -65.00276 -4.62529 -4.62514 -3.03710 -3.03708 -3.03691 -3.03655 -3.03638 -3.03635
 -0.08755 0.07550 0.13762 0.22727 0.36765 0.45367 0.46752 0.50331 0.51804 0.63297
 0.74337 0.76797 0.77288 0.89266 0.91795 0.92571 0.97310 1.07247 1.09003 1.16987
 1.20379 1.22069 1.27449 1.28463 1.32069 1.36385 1.41325 1.45509 1.56549 1.56945
 1.63750 1.66868 1.69225 1.69462 1.71592 1.72086 1.76740 1.88236 1.94779 1.98519
 2.01080 2.04069 2.11364 2.15904 2.21331 2.21813 2.26394 2.35167 2.36121 2.44474
 2.47263 2.49394 2.49697 2.52451 2.57533 2.58082 2.59750 2.75925 2.77339 2.81507
 2.83660 2.87206 2.88766 2.92086 2.94481 2.98759 3.08032 3.11278 3.12255 3.15930
 3.19856 3.30955 3.33796 3.38203 3.38623 3.40389 3.41059 3.42328 3.48071 3.48471
 3.48588 3.49020 3.63733 3.67778 3.70934 3.73860 3.79668 3.82893 3.91811 3.94223
 4.09111 4.14661 4.23923 4.35426 4.52728 4.60801 7.77163 8.29045 8.29991 9.00326
 9.31991 9.85629 13.08021 14.28077
 == 10-th k-point (0.45924,-0.15308,-0.15308) occupation: 14==
 -65.00276 -65.00276 -4.62527 -4.62516 -3.03711 -3.03709 -3.03686 -3.03659 -3.03638 -3.03635
 -0.06269 0.04219 0.14585 0.19471 0.33317 0.44170 0.48945 0.49650 0.65417 0.67063
 0.73040 0.74680 0.75647 0.90153 0.93781 0.97010 0.99465 1.00784 1.01867 1.12576
 1.16621 1.21227 1.22968 1.32315 1.35893 1.37064 1.37262 1.44844 1.50048 1.56429
 1.60445 1.64006 1.67123 1.68540 1.71839 1.81800 1.90837 1.93057 1.93829 1.99385
 2.01834 2.04445 2.08193 2.13793 2.16602 2.20079 2.28397 2.31966 2.32997 2.37314
 2.45097 2.46174 2.50328 2.51923 2.61502 2.61704 2.66036 2.74328 2.79602 2.81440
 2.84025 2.90498 2.93428 2.95319 2.95995 3.02548 3.03614 3.05359 3.08484 3.13136
 3.15933 3.23568 3.31752 3.32652 3.33953 3.35023 3.35918 3.43831 3.49732 3.50680
 3.56629 3.65448 3.65757 3.71745 3.72134 3.79102 3.80181 3.84889 3.87836 3.98619
 4.07506 4.21198 4.25411 4.29575 4.56056 4.56946 8.10260 8.34327 8.40451 8.86069
 9.78046 9.94236 13.16276 14.19204
 == 11-th k-point (0.61232,0.00000,-0.30616) occupation: 14==
 -65.00276 -65.00276 -4.62521 -4.62521 -3.03711 -3.03711 -3.03673 -3.03673 -3.03635 -3.03635
 -0.00410 -0.00410 0.13378 0.13378 0.43513 0.43513 0.46184 0.46184 0.67068 0.67068
 0.76029 0.76029 0.88543 0.88543 0.96330 0.96330 0.98284 0.98284 1.02057 1.02057
 1.15492 1.15492 1.29985 1.29987 1.30778 1.30778 1.38099 1.38099 1.51143 1.51149
 1.68389 1.68390 1.69799 1.69803 1.79626 1.79628 1.89085 1.89086 1.95338 1.95339
 2.04410 2.04411 2.17246 2.17252 2.17532 2.17533 2.33996 2.34005 2.38859 2.38864
 2.39118 2.39123 2.54079 2.54098 2.62643 2.62643 2.72553 2.72594 2.85527 2.85535
 2.88145 2.88146 2.88988 2.88989 2.98391 2.98424 3.04194 3.04208 3.11420 3.11422
 3.24260 3.24262 3.34380 3.34389 3.34540 3.34561 3.46581 3.46585 3.47639 3.47650
 3.55789 3.55807 3.56529 3.56563 3.68108 3.68197 3.77731 3.77732 4.00463 4.00481
 4.11349 4.11392 4.26380 4.26381 4.57938 4.58102 8.41210 8.41211 8.77793 8.77817
 9.54180 9.54484 13.73254 13.73271
 == 12-th k-point (0.30616,-0.61232,0.30616) occupation: 14==
 -65.00276 -65.00276 -4.62529 -4.62514 -3.03710 -3.03708 -3.03691 -3.03655 -3.03638 -3.03635
 -0.08755 0.07551 0.13762 0.22727 0.36765 0.45367 0.46752 0.50331 0.51804 0.63297
 0.74338 0.76797 0.77288 0.89267 0.91795 0.92571 0.97310 1.07247 1.09003 1.16989
 1.20387 1.22067 1.27449 1.28463 1.32069 1.36385 1.41325 1.45518 1.56549 1.56923
 1.63750 1.66867 1.69226 1.69472 1.71592 1.72095 1.76742 1.88248 1.94777 1.98520
 2.01081 2.04095 2.11366 2.15912 2.21344 2.21691 2.26406 2.35167 2.36123 2.44056
 2.47263 2.49397 2.49614 2.52493 2.57543 2.58063 2.59756 2.75863 2.77343 2.81522
 2.83665 2.87226 2.88769 2.92085 2.94481 2.98758 3.08080 3.11230 3.12270 3.15943
 3.19804 3.30959 3.33877 3.38207 3.38666 3.40392 3.41058 3.42376 3.47848 3.48231
 3.48482 3.49007 3.63809 3.67813 3.70908 3.74326 3.79672 3.82669 3.91829 3.94243
 4.09106 4.14688 4.23923 4.35446 4.52690 4.60844 7.77163 8.29051 8.29868 9.00365
 9.32348 9.85756 13.08324 14.28094
 == 13-th k-point (0.45924,-0.45924,0.15308) occupation: 14==
 -65.00276 -65.00276 -4.62527 -4.62516 -3.03711 -3.03709 -3.03686 -3.03659 -3.03638 -3.03635
 -0.06269 0.04219 0.14585 0.19471 0.33317 0.44170 0.48945 0.49650 0.65417 0.67063
 0.73040 0.74680 0.75647 0.90153 0.93782 0.97010 0.99465 1.00784 1.01867 1.12576
 1.16621 1.21227 1.22968 1.32315 1.35893 1.37065 1.37262 1.44844 1.50047 1.56429
 1.60445 1.64005 1.67122 1.68539 1.71839 1.81800 1.90837 1.93059 1.93828 1.99385
 2.01834 2.04444 2.08188 2.13782 2.16601 2.20081 2.28397 2.31966 2.32993 2.37318
 2.45096 2.46173 2.50325 2.51923 2.61502 2.61702 2.66035 2.74328 2.79601 2.81440
 2.84022 2.90496 2.93410 2.95318 2.95994 3.02549 3.03611 3.05360 3.08484 3.13099
 3.15923 3.23560 3.31750 3.32637 3.33950 3.35022 3.35918 3.43827 3.49727 3.50676
 3.56628 3.65443 3.65761 3.71740 3.72137 3.79104 3.80171 3.84886 3.87817 3.98614
 4.07500 4.21159 4.25409 4.29575 4.56015 4.56932 8.10261 8.34325 8.40449 8.86056
 9.77920 9.94181 13.16277 14.19176
 == 14-th k-point (0.61232,-0.30616,0.00000) occupation: 14==
 -65.00276 -65.00276 -4.62521 -4.62521 -3.03711 -3.03711 -3.03673 -3.03673 -3.03635 -3.03635
 -0.00410 -0.00410 0.13378 0.13378 0.43513 0.43513 0.46184 0.46184 0.67068 0.67068
 0.76029 0.76029 0.88543 0.88543 0.96330 0.96330 0.98284 0.98284 1.02057 1.02057
 1.15492 1.15492 1.29985 1.29987 1.30778 1.30778 1.38099 1.38099 1.51143 1.51149
 1.68389 1.68390 1.69799 1.69803 1.79626 1.79628 1.89085 1.89086 1.95338 1.95339
 2.04410 2.04411 2.17246 2.17252 2.17532 2.17533 2.33996 2.34005 2.38859 2.38864
 2.39118 2.39123 2.54079 2.54098 2.62643 2.62643 2.72553 2.72594 2.85527 2.85535
 2.88145 2.88146 2.88988 2.88989 2.98391 2.98424 3.04194 3.04208 3.11420 3.11422
 3.24260 3.24262 3.34380 3.34389 3.34540 3.34561 3.46581 3.46585 3.47639 3.47650
 3.55789 3.55807 3.56529 3.56563 3.68108 3.68197 3.77731 3.77732 4.00463 4.00481
 4.11349 4.11392 4.26380 4.26381 4.57938 4.58102 8.41210 8.41211 8.77793 8.77817
 9.54180 9.54484 13.73254 13.73271
 == 15-th k-point (0.76541,-0.15308,-0.15308) occupation: 14==
 -65.00276 -65.00276 -4.62527 -4.62516 -3.03711 -3.03709 -3.03686 -3.03659 -3.03638 -3.03635
 -0.06269 0.04219 0.14585 0.19471 0.33317 0.44170 0.48945 0.49650 0.65417 0.67063
 0.73040 0.74680 0.75647 0.90154 0.93781 0.97010 0.99465 1.00784 1.01867 1.12576
 1.16621 1.21227 1.22968 1.32316 1.35893 1.37065 1.37262 1.44844 1.50047 1.56429
 1.60445 1.64006 1.67123 1.68539 1.71839 1.81800 1.90836 1.93059 1.93829 1.99385
 2.01835 2.04445 2.08193 2.13792 2.16601 2.20079 2.28395 2.31966 2.32997 2.37319
 2.45097 2.46174 2.50325 2.51923 2.61500 2.61703 2.66034 2.74329 2.79601 2.81440
 2.84025 2.90496 2.93428 2.95319 2.95994 3.02548 3.03614 3.05359 3.08484 3.13134
 3.15933 3.23563 3.31747 3.32652 3.33948 3.35024 3.35918 3.43830 3.49730 3.50672
 3.56627 3.65447 3.65756 3.71755 3.72134 3.79102 3.80177 3.84889 3.87839 3.98620
 4.07505 4.21198 4.25408 4.29575 4.56054 4.56940 8.10261 8.34324 8.40450 8.86057
 9.78042 9.94215 13.16278 14.19193
 == 16-th k-point (-0.30616,-0.00000,-0.00000) occupation: 14==
 -65.00276 -65.00276 -4.62532 -4.62511 -3.03707 -3.03707 -3.03695 -3.03650 -3.03641 -3.03641
 -0.12302 0.14806 0.20643 0.20643 0.31838 0.39307 0.49007 0.49007 0.57556 0.61201
 0.69524 0.75907 0.75907 0.78431 0.92174 0.92174 0.96175 1.03456 1.06022 1.22165
 1.26671 1.29605 1.29606 1.37167 1.37168 1.39297 1.40382 1.58733 1.59890 1.59890
 1.60431 1.66829 1.66836 1.66980 1.79773 1.79790 1.80702 1.82134 1.84902 1.95159
 1.95875 1.95944 2.02901 2.09473 2.12746 2.12762 2.19261 2.26929 2.26938 2.37631
 2.47181 2.54004 2.59028 2.59153 2.60185 2.61840 2.63340 2.65986 2.65993 2.81780
 2.84613 2.93338 2.93369 2.97161 2.97436 3.04769 3.18004 3.18051 3.18095 3.25359
 3.26373 3.31676 3.33366 3.33591 3.33917 3.34171 3.37433 3.38751 3.44902 3.45158
 3.54919 3.55235 3.60736 3.61513 3.76492 3.80867 3.80872 3.85162 3.99988 4.03151
 4.05017 4.05321 4.21515 4.45118 4.56476 4.57203 7.69092 7.69145 8.01769 9.69640
 9.88833 9.91199 12.54078 13.36608
 == 17-th k-point (-0.15308,0.15308,-0.15308) occupation: 14==
 -65.00276 -65.00275 -4.62533 -4.62510 -3.03705 -3.03705 -3.03699 -3.03649 -3.03640 -3.03640
 -0.13339 0.13218 0.24841 0.24841 0.35251 0.40641 0.40641 0.53159 0.54582 0.54582
 0.60636 0.71191 0.82191 0.82191 0.93964 0.93966 0.94600 1.01512 1.18275 1.18280
 1.26987 1.26988 1.32158 1.37948 1.38197 1.46630 1.46630 1.53593 1.53597 1.56713
 1.56713 1.70094 1.70107 1.71381 1.74405 1.77938 1.84676 1.84747 1.90595 1.93051
 1.94225 1.94265 2.05001 2.06968 2.06968 2.17470 2.17489 2.21401 2.24194 2.24311
 2.28743 2.53213 2.54721 2.57953 2.58077 2.64251 2.64254 2.67359 2.73840 2.74288
 2.92195 2.92294 2.92502 2.97585 3.03081 3.03233 3.07407 3.07497 3.12504 3.16552
 3.21130 3.21255 3.31724 3.32053 3.35295 3.42992 3.42993 3.46986 3.50344 3.50368
 3.51309 3.63950 3.64917 3.64982 3.78484 3.78537 3.80215 3.85582 3.85604 3.88976
 3.94609 4.02183 4.02186 4.32866 4.52522 4.52733 4.63067 7.58135 7.66520 7.66522
 8.55469 8.56137 10.63070 11.76407 13.98756
 == 18-th k-point (0.00000,0.30616,-0.30616) occupation: 14==
 -65.00276 -65.00276 -4.62529 -4.62514 -3.03710 -3.03708 -3.03691 -3.03655 -3.03638 -3.03635
 -0.08755 0.07550 0.13762 0.22727 0.36765 0.45367 0.46752 0.50331 0.51804 0.63297
 0.74337 0.76797 0.77288 0.89266 0.91795 0.92571 0.97310 1.07247 1.09003 1.16987
 1.20379 1.22069 1.27449 1.28463 1.32069 1.36385 1.41325 1.45509 1.56549 1.56945
 1.63750 1.66868 1.69225 1.69462 1.71592 1.72086 1.76740 1.88236 1.94779 1.98519
 2.01080 2.04069 2.11364 2.15904 2.21331 2.21813 2.26394 2.35167 2.36121 2.44474
 2.47263 2.49394 2.49697 2.52451 2.57533 2.58082 2.59750 2.75925 2.77339 2.81507
 2.83660 2.87206 2.88766 2.92086 2.94481 2.98759 3.08032 3.11278 3.12255 3.15930
 3.19856 3.30955 3.33796 3.38203 3.38623 3.40389 3.41059 3.42328 3.48071 3.48471
 3.48588 3.49020 3.63733 3.67778 3.70934 3.73860 3.79668 3.82893 3.91811 3.94223
 4.09111 4.14661 4.23923 4.35426 4.52728 4.60801 7.77163 8.29045 8.29991 9.00326
 9.31991 9.85629 13.08021 14.28077
 == 19-th k-point (0.15308,0.45924,-0.45924) occupation: 14==
 -65.00276 -65.00276 -4.62527 -4.62516 -3.03711 -3.03709 -3.03686 -3.03659 -3.03638 -3.03635
 -0.06269 0.04219 0.14585 0.19471 0.33317 0.44170 0.48945 0.49650 0.65417 0.67063
 0.73040 0.74680 0.75647 0.90153 0.93782 0.97010 0.99465 1.00784 1.01867 1.12576
 1.16621 1.21227 1.22968 1.32315 1.35893 1.37065 1.37262 1.44844 1.50047 1.56429
 1.60445 1.64005 1.67122 1.68539 1.71839 1.81800 1.90837 1.93059 1.93828 1.99385
 2.01834 2.04444 2.08188 2.13782 2.16601 2.20081 2.28397 2.31966 2.32993 2.37318
 2.45096 2.46173 2.50325 2.51923 2.61502 2.61702 2.66035 2.74328 2.79601 2.81440
 2.84022 2.90496 2.93410 2.95318 2.95994 3.02549 3.03611 3.05360 3.08484 3.13099
 3.15923 3.23560 3.31750 3.32637 3.33950 3.35022 3.35918 3.43827 3.49727 3.50676
 3.56628 3.65443 3.65761 3.71740 3.72137 3.79104 3.80171 3.84886 3.87817 3.98614
 4.07500 4.21159 4.25409 4.29575 4.56015 4.56932 8.10261 8.34325 8.40449 8.86056
 9.77920 9.94181 13.16277 14.19176
 == 20-th k-point (-0.15308,-0.15308,0.15308) occupation: 14==
 -65.00276 -65.00275 -4.62533 -4.62510 -3.03705 -3.03705 -3.03699 -3.03649 -3.03640 -3.03640
 -0.13339 0.13218 0.24841 0.24841 0.35251 0.40641 0.40641 0.53159 0.54582 0.54582
 0.60636 0.71191 0.82191 0.82191 0.93964 0.93966 0.94600 1.01512 1.18275 1.18280
 1.26987 1.26988 1.32158 1.37948 1.38197 1.46630 1.46630 1.53593 1.53597 1.56713
 1.56713 1.70094 1.70107 1.71381 1.74405 1.77938 1.84676 1.84747 1.90595 1.93051
 1.94225 1.94265 2.05001 2.06968 2.06968 2.17470 2.17489 2.21401 2.24194 2.24311
 2.28743 2.53213 2.54721 2.57953 2.58077 2.64251 2.64254 2.67359 2.73840 2.74288
 2.92195 2.92294 2.92502 2.97585 3.03081 3.03233 3.07407 3.07497 3.12504 3.16552
 3.21130 3.21255 3.31724 3.32053 3.35295 3.42992 3.42993 3.46986 3.50344 3.50368
 3.51309 3.63950 3.64917 3.64982 3.78484 3.78537 3.80215 3.85582 3.85604 3.88976
 3.94609 4.02183 4.02186 4.32866 4.52522 4.52733 4.63067 7.58135 7.66520 7.66522
 8.55469 8.56137 10.63070 11.76407 13.98756
 == 21-th k-point (0.00000,0.00000,0.00000) occupation: 14==
 -65.00276 -65.00275 -4.62536 -4.62507 -3.03701 -3.03701 -3.03701 -3.03641 -3.03641 -3.03641
 -0.16283 0.27685 0.27685 0.27685 0.37108 0.37108 0.37108 0.40256 0.56727 0.56727
 0.56740 0.69087 0.69088 0.69088 0.84089 1.14349 1.14370 1.14370 1.18899 1.18899
 1.23464 1.23464 1.23465 1.35528 1.35528 1.35528 1.59039 1.59039 1.59046 1.73477
 1.73477 1.81238 1.81238 1.82501 1.83968 1.84138 1.84138 1.90330 1.90330 1.90331
 1.92145 1.93711 1.93711 1.93711 1.94379 1.94446 1.94446 2.14142 2.29522 2.29522
 2.29522 2.31306 2.32939 2.32939 2.39547 2.39547 2.39638 2.50312 2.89243 2.94965
 2.94965 2.94966 2.97921 2.97921 3.13104 3.13762 3.13762 3.17837 3.17837 3.17837
 3.18985 3.18985 3.33851 3.33851 3.33859 3.40976 3.40976 3.48451 3.48451 3.48451
 3.54899 3.54899 3.55718 3.63780 3.63780 3.63806 3.68452 3.68655 3.68655 4.07702
 4.25042 4.25042 4.25042 4.39136 4.39136 4.39239 4.42859 7.41519 7.41607 7.41607
 7.56115 7.56115 7.56155 11.12416 12.56745
 == 22-th k-point (0.15308,0.15308,-0.15308) occupation: 14==
 -65.00276 -65.00275 -4.62533 -4.62510 -3.03705 -3.03705 -3.03699 -3.03649 -3.03640 -3.03640
 -0.13339 0.13218 0.24841 0.24841 0.35251 0.40641 0.40641 0.53159 0.54582 0.54582
 0.60636 0.71191 0.82191 0.82191 0.93964 0.93966 0.94600 1.01512 1.18275 1.18280
 1.26987 1.26988 1.32158 1.37948 1.38197 1.46630 1.46630 1.53593 1.53597 1.56713
 1.56713 1.70094 1.70107 1.71381 1.74405 1.77938 1.84676 1.84747 1.90595 1.93051
 1.94225 1.94265 2.05001 2.06968 2.06968 2.17470 2.17489 2.21401 2.24194 2.24311
 2.28743 2.53213 2.54721 2.57953 2.58077 2.64251 2.64254 2.67359 2.73840 2.74288
 2.92195 2.92294 2.92502 2.97585 3.03081 3.03233 3.07407 3.07497 3.12504 3.16552
 3.21130 3.21255 3.31724 3.32053 3.35295 3.42992 3.42993 3.46986 3.50344 3.50368
 3.51309 3.63950 3.64917 3.64982 3.78484 3.78537 3.80215 3.85582 3.85604 3.88976
 3.94609 4.02183 4.02186 4.32866 4.52522 4.52733 4.63067 7.58135 7.66520 7.66522
 8.55469 8.56137 10.63070 11.76407 13.98756
 == 23-th k-point (0.30616,0.30616,-0.30616) occupation: 14==
 -65.00277 -65.00275 -4.62529 -4.62514 -3.03708 -3.03708 -3.03696 -3.03650 -3.03638 -3.03638
 -0.07677 0.01986 0.23203 0.23203 0.33480 0.40070 0.40070 0.55934 0.67360 0.67360
 0.69471 0.69616 0.69617 0.75535 1.00161 1.01602 1.09170 1.09171 1.09555 1.09561
 1.24036 1.26116 1.26117 1.30851 1.30852 1.35809 1.41740 1.49147 1.49158 1.50192
 1.50201 1.58530 1.62574 1.65449 1.88052 1.88053 1.88788 1.90897 1.90913 1.92100
 2.12847 2.12869 2.19299 2.19691 2.19727 2.24643 2.26948 2.27134 2.33310 2.33469
 2.46260 2.46332 2.55686 2.55801 2.60264 2.68086 2.74918 2.77537 2.77574 2.79596
 2.81771 2.81921 2.82903 2.92126 2.95130 2.96314 3.09682 3.09716 3.09865 3.09907
 3.19324 3.19336 3.21168 3.21380 3.31621 3.46624 3.46707 3.55331 3.55611 3.55734
 3.56550 3.66566 3.67482 3.69278 3.73204 3.76183 3.93323 3.93494 4.00225 4.00655
 4.12964 4.14772 4.15022 4.33769 4.43931 4.44083 8.25659 8.26061 8.33163 9.36529
 9.36684 10.00790 11.95278 14.72427
 == 24-th k-point (-0.00000,-0.30616,0.30616) occupation: 14==
 -65.00276 -65.00276 -4.62529 -4.62514 -3.03710 -3.03708 -3.03691 -3.03655 -3.03638 -3.03635
 -0.08755 0.07550 0.13762 0.22727 0.36765 0.45367 0.46752 0.50331 0.51804 0.63297
 0.74337 0.76797 0.77288 0.89266 0.91795 0.92571 0.97310 1.07247 1.09003 1.16987
 1.20379 1.22069 1.27449 1.28463 1.32069 1.36385 1.41325 1.45509 1.56549 1.56945
 1.63750 1.66868 1.69225 1.69462 1.71592 1.72086 1.76740 1.88236 1.94779 1.98519
 2.01080 2.04069 2.11364 2.15904 2.21331 2.21813 2.26394 2.35167 2.36121 2.44474
 2.47263 2.49394 2.49697 2.52451 2.57533 2.58082 2.59750 2.75925 2.77339 2.81507
 2.83660 2.87206 2.88766 2.92086 2.94481 2.98759 3.08032 3.11278 3.12255 3.15930
 3.19856 3.30955 3.33796 3.38203 3.38623 3.40389 3.41059 3.42328 3.48071 3.48471
 3.48588 3.49020 3.63733 3.67778 3.70934 3.73860 3.79668 3.82893 3.91811 3.94223
 4.09111 4.14661 4.23923 4.35426 4.52728 4.60801 7.77163 8.29045 8.29991 9.00326
 9.31991 9.85629 13.08021 14.28077
 == 25-th k-point (0.15308,-0.15308,0.15308) occupation: 14==
 -65.00276 -65.00275 -4.62533 -4.62510 -3.03705 -3.03705 -3.03699 -3.03649 -3.03640 -3.03640
 -0.13339 0.13218 0.24841 0.24841 0.35251 0.40641 0.40641 0.53159 0.54582 0.54582
 0.60636 0.71191 0.82191 0.82191 0.93964 0.93966 0.94600 1.01512 1.18275 1.18280
 1.26987 1.26988 1.32158 1.37948 1.38197 1.46630 1.46630 1.53593 1.53597 1.56713
 1.56713 1.70094 1.70107 1.71381 1.74405 1.77938 1.84676 1.84747 1.90595 1.93051
 1.94225 1.94265 2.05001 2.06968 2.06968 2.17470 2.17489 2.21401 2.24194 2.24311
 2.28743 2.53213 2.54721 2.57953 2.58077 2.64251 2.64254 2.67359 2.73840 2.74288
 2.92195 2.92294 2.92502 2.97585 3.03081 3.03233 3.07407 3.07497 3.12504 3.16552
 3.21130 3.21255 3.31724 3.32053 3.35295 3.42992 3.42993 3.46986 3.50344 3.50368
 3.51309 3.63950 3.64917 3.64982 3.78484 3.78537 3.80215 3.85582 3.85604 3.88976
 3.94609 4.02183 4.02186 4.32866 4.52522 4.52733 4.63067 7.58135 7.66520 7.66522
 8.55469 8.56137 10.63070 11.76407 13.98756
 == 26-th k-point (0.30616,0.00000,0.00000) occupation: 14==
 -65.00276 -65.00276 -4.62532 -4.62511 -3.03707 -3.03707 -3.03695 -3.03650 -3.03641 -3.03641
 -0.12302 0.14806 0.20643 0.20643 0.31838 0.39307 0.49007 0.49007 0.57556 0.61201
 0.69524 0.75907 0.75907 0.78431 0.92174 0.92174 0.96175 1.03456 1.06022 1.22165
 1.26671 1.29605 1.29606 1.37167 1.37168 1.39297 1.40382 1.58733 1.59890 1.59890
 1.60431 1.66829 1.66836 1.66980 1.79773 1.79790 1.80702 1.82134 1.84902 1.95159
 1.95875 1.95944 2.02901 2.09473 2.12746 2.12762 2.19261 2.26929 2.26938 2.37631
 2.47181 2.54004 2.59028 2.59153 2.60185 2.61840 2.63340 2.65986 2.65993 2.81780
 2.84613 2.93338 2.93369 2.97161 2.97436 3.04769 3.18004 3.18051 3.18095 3.25359
 3.26373 3.31676 3.33366 3.33591 3.33917 3.34171 3.37433 3.38751 3.44902 3.45158
 3.54919 3.55235 3.60736 3.61513 3.76492 3.80867 3.80872 3.85162 3.99988 4.03151
 4.05017 4.05321 4.21515 4.45118 4.56476 4.57203 7.69092 7.69145 8.01769 9.69640
 9.88833 9.91199 12.54078 13.36608
 == 27-th k-point (0.45924,0.15308,-0.15308) occupation: 14==
 -65.00276 -65.00276 -4.62527 -4.62516 -3.03711 -3.03709 -3.03686 -3.03659 -3.03638 -3.03635
 -0.06269 0.04219 0.14585 0.19471 0.33317 0.44170 0.48945 0.49650 0.65417 0.67063
 0.73040 0.74680 0.75647 0.90153 0.93782 0.97010 0.99465 1.00784 1.01867 1.12576
 1.16621 1.21227 1.22968 1.32315 1.35893 1.37065 1.37262 1.44844 1.50047 1.56429
 1.60445 1.64005 1.67122 1.68539 1.71839 1.81800 1.90837 1.93059 1.93828 1.99385
 2.01834 2.04444 2.08188 2.13782 2.16601 2.20081 2.28397 2.31966 2.32993 2.37318
 2.45096 2.46173 2.50325 2.51923 2.61502 2.61702 2.66035 2.74328 2.79601 2.81440
 2.84022 2.90496 2.93410 2.95318 2.95994 3.02549 3.03611 3.05360 3.08484 3.13099
 3.15923 3.23560 3.31750 3.32637 3.33950 3.35022 3.35918 3.43827 3.49727 3.50676
 3.56628 3.65443 3.65761 3.71740 3.72137 3.79104 3.80171 3.84886 3.87817 3.98614
 4.07500 4.21159 4.25409 4.29575 4.56015 4.56932 8.10261 8.34325 8.40449 8.86056
 9.77920 9.94181 13.16277 14.19176
 == 28-th k-point (0.15308,-0.45924,0.45924) occupation: 14==
 -65.00276 -65.00276 -4.62527 -4.62516 -3.03711 -3.03709 -3.03686 -3.03659 -3.03638 -3.03635
 -0.06269 0.04219 0.14585 0.19471 0.33317 0.44170 0.48945 0.49650 0.65417 0.67063
 0.73040 0.74680 0.75647 0.90153 0.93782 0.97010 0.99465 1.00784 1.01867 1.12576
 1.16621 1.21227 1.22968 1.32315 1.35893 1.37065 1.37262 1.44844 1.50047 1.56429
 1.60445 1.64005 1.67122 1.68539 1.71839 1.81800 1.90837 1.93059 1.93828 1.99385
 2.01834 2.04444 2.08188 2.13782 2.16601 2.20081 2.28397 2.31966 2.32993 2.37318
 2.45096 2.46173 2.50325 2.51923 2.61502 2.61702 2.66035 2.74328 2.79601 2.81440
 2.84022 2.90496 2.93410 2.95318 2.95994 3.02549 3.03611 3.05360 3.08484 3.13099
 3.15923 3.23560 3.31750 3.32637 3.33950 3.35022 3.35918 3.43827 3.49727 3.50676
 3.56628 3.65443 3.65761 3.71740 3.72137 3.79104 3.80171 3.84886 3.87817 3.98614
 4.07500 4.21159 4.25409 4.29575 4.56015 4.56932 8.10261 8.34325 8.40449 8.86056
 9.77920 9.94181 13.16277 14.19176
 == 29-th k-point (0.30616,-0.30616,0.30616) occupation: 14==
 -65.00277 -65.00275 -4.62529 -4.62514 -3.03708 -3.03708 -3.03696 -3.03650 -3.03638 -3.03638
 -0.07677 0.01986 0.23203 0.23203 0.33480 0.40070 0.40070 0.55934 0.67360 0.67360
 0.69471 0.69616 0.69617 0.75535 1.00161 1.01602 1.09170 1.09171 1.09555 1.09561
 1.24036 1.26116 1.26117 1.30851 1.30852 1.35809 1.41740 1.49147 1.49158 1.50192
 1.50201 1.58530 1.62574 1.65449 1.88052 1.88053 1.88788 1.90897 1.90913 1.92100
 2.12847 2.12869 2.19299 2.19691 2.19727 2.24643 2.26948 2.27134 2.33310 2.33469
 2.46260 2.46332 2.55686 2.55801 2.60264 2.68086 2.74918 2.77537 2.77574 2.79596
 2.81771 2.81921 2.82903 2.92126 2.95130 2.96314 3.09682 3.09716 3.09865 3.09907
 3.19324 3.19336 3.21168 3.21380 3.31621 3.46624 3.46707 3.55331 3.55611 3.55734
 3.56550 3.66566 3.67482 3.69278 3.73204 3.76183 3.93323 3.93494 4.00225 4.00655
 4.12964 4.14772 4.15022 4.33769 4.43931 4.44083 8.25659 8.26061 8.33163 9.36529
 9.36684 10.00790 11.95278 14.72427
 == 30-th k-point (0.45924,-0.15308,0.15308) occupation: 14==
 -65.00276 -65.00276 -4.62527 -4.62516 -3.03711 -3.03709 -3.03686 -3.03659 -3.03638 -3.03635
 -0.06269 0.04219 0.14585 0.19471 0.33317 0.44170 0.48945 0.49650 0.65417 0.67063
 0.73040 0.74680 0.75647 0.90153 0.93782 0.97010 0.99465 1.00784 1.01867 1.12576
 1.16621 1.21227 1.22968 1.32315 1.35893 1.37065 1.37262 1.44844 1.50047 1.56429
 1.60445 1.64005 1.67122 1.68539 1.71839 1.81800 1.90837 1.93059 1.93828 1.99385
 2.01834 2.04444 2.08188 2.13782 2.16601 2.20081 2.28397 2.31966 2.32993 2.37318
 2.45096 2.46173 2.50325 2.51923 2.61502 2.61702 2.66035 2.74328 2.79601 2.81440
 2.84022 2.90496 2.93410 2.95318 2.95994 3.02549 3.03611 3.05360 3.08484 3.13099
 3.15923 3.23560 3.31750 3.32637 3.33950 3.35022 3.35918 3.43827 3.49727 3.50676
 3.56628 3.65443 3.65761 3.71740 3.72137 3.79104 3.80171 3.84886 3.87817 3.98614
 4.07500 4.21159 4.25409 4.29575 4.56015 4.56932 8.10261 8.34325 8.40449 8.86056
 9.77920 9.94181 13.16277 14.19176
 == 31-th k-point (0.61232,0.00000,0.00000) occupation: 14==
 -65.00276 -65.00276 -4.62521 -4.62521 -3.03712 -3.03712 -3.03672 -3.03672 -3.03636 -3.03636
 -0.01028 -0.01028 0.17071 0.17071 0.30327 0.30327 0.64917 0.64917 0.68999 0.68999
 0.74518 0.74518 0.75666 0.75666 0.97893 0.97893 1.00360 1.00361 1.02369 1.02369
 1.07069 1.07069 1.23946 1.23946 1.37548 1.37550 1.54544 1.54545 1.58299 1.58299
 1.63190 1.63190 1.69219 1.69219 1.74579 1.74580 1.82892 1.82925 1.85696 1.85696
 2.08174 2.08257 2.09847 2.09853 2.18845 2.18845 2.30624 2.30625 2.43210 2.43213
 2.45623 2.45623 2.50463 2.50463 2.52216 2.52328 2.73835 2.73835 2.77850 2.77864
 2.86858 2.86916 2.98974 2.98975 3.01031 3.01031 3.02776 3.02776 3.08262 3.08275
 3.23497 3.23511 3.25153 3.25169 3.26436 3.26437 3.45359 3.45730 3.49333 3.49334
 3.55905 3.55913 3.64421 3.64421 3.73034 3.73034 3.93719 3.93795 4.07037 4.07037
 4.29196 4.29258 4.35601 4.35602 4.60968 4.61461 8.31950 8.31951 8.62716 8.62726
 9.65875 9.66723 13.41309 13.41309
 == 32-th k-point (-0.45924,0.15308,0.15308) occupation: 14==
 -65.00276 -65.00276 -4.62527 -4.62516 -3.03711 -3.03709 -3.03686 -3.03659 -3.03638 -3.03635
 -0.06269 0.04219 0.14585 0.19471 0.33317 0.44170 0.48945 0.49650 0.65417 0.67063
 0.73040 0.74680 0.75647 0.90153 0.93781 0.97010 0.99465 1.00784 1.01867 1.12576
 1.16621 1.21227 1.22968 1.32315 1.35893 1.37064 1.37262 1.44844 1.50048 1.56429
 1.60445 1.64006 1.67123 1.68540 1.71839 1.81800 1.90837 1.93057 1.93829 1.99385
 2.01834 2.04445 2.08193 2.13793 2.16602 2.20079 2.28397 2.31966 2.32997 2.37314
 2.45097 2.46174 2.50328 2.51923 2.61502 2.61704 2.66036 2.74328 2.79602 2.81440
 2.84025 2.90498 2.93428 2.95319 2.95995 3.02548 3.03614 3.05359 3.08484 3.13136
 3.15933 3.23568 3.31752 3.32652 3.33953 3.35023 3.35918 3.43831 3.49732 3.50680
 3.56629 3.65448 3.65757 3.71745 3.72134 3.79102 3.80181 3.84889 3.87836 3.98619
 4.07506 4.21198 4.25411 4.29575 4.56056 4.56946 8.10260 8.34327 8.40451 8.86069
 9.78046 9.94236 13.16276 14.19204
 == 33-th k-point (-0.30616,0.30616,-0.00000) occupation: 14==
 -65.00276 -65.00276 -4.62529 -4.62514 -3.03710 -3.03708 -3.03691 -3.03655 -3.03638 -3.03635
 -0.08755 0.07550 0.13762 0.22727 0.36765 0.45367 0.46752 0.50331 0.51804 0.63297
 0.74337 0.76797 0.77288 0.89266 0.91795 0.92571 0.97310 1.07247 1.09003 1.16987
 1.20379 1.22069 1.27449 1.28463 1.32069 1.36385 1.41325 1.45509 1.56549 1.56945
 1.63750 1.66868 1.69225 1.69462 1.71592 1.72086 1.76740 1.88236 1.94779 1.98519
 2.01080 2.04069 2.11364 2.15904 2.21331 2.21813 2.26394 2.35167 2.36121 2.44474
 2.47263 2.49394 2.49697 2.52451 2.57533 2.58082 2.59750 2.75925 2.77339 2.81507
 2.83660 2.87206 2.88766 2.92086 2.94481 2.98759 3.08032 3.11278 3.12255 3.15930
 3.19856 3.30955 3.33796 3.38203 3.38623 3.40389 3.41059 3.42328 3.48071 3.48471
 3.48588 3.49020 3.63733 3.67778 3.70934 3.73860 3.79668 3.82893 3.91811 3.94223
 4.09111 4.14661 4.23923 4.35426 4.52728 4.60801 7.77163 8.29045 8.29991 9.00326
 9.31991 9.85629 13.08021 14.28077
 == 34-th k-point (-0.15308,0.45924,-0.15308) occupation: 14==
 -65.00276 -65.00276 -4.62527 -4.62516 -3.03711 -3.03709 -3.03686 -3.03659 -3.03638 -3.03635
 -0.06269 0.04219 0.14585 0.19471 0.33317 0.44170 0.48945 0.49650 0.65417 0.67063
 0.73040 0.74680 0.75647 0.90153 0.93781 0.97010 0.99465 1.00784 1.01867 1.12576
 1.16621 1.21227 1.22968 1.32315 1.35893 1.37064 1.37262 1.44844 1.50048 1.56429
 1.60445 1.64006 1.67123 1.68540 1.71839 1.81800 1.90837 1.93057 1.93829 1.99385
 2.01834 2.04445 2.08193 2.13793 2.16602 2.20079 2.28397 2.31966 2.32997 2.37314
 2.45097 2.46174 2.50328 2.51923 2.61502 2.61704 2.66036 2.74328 2.79602 2.81440
 2.84025 2.90498 2.93428 2.95319 2.95995 3.02548 3.03614 3.05359 3.08484 3.13136
 3.15933 3.23568 3.31752 3.32652 3.33953 3.35023 3.35918 3.43831 3.49732 3.50680
 3.56629 3.65448 3.65757 3.71745 3.72134 3.79102 3.80181 3.84889 3.87836 3.98619
 4.07506 4.21198 4.25411 4.29575 4.56056 4.56946 8.10260 8.34327 8.40451 8.86069
 9.78046 9.94236 13.16276 14.19204
 == 35-th k-point (0.00000,0.61232,-0.30616) occupation: 14==
 -65.00276 -65.00276 -4.62521 -4.62521 -3.03711 -3.03711 -3.03673 -3.03673 -3.03635 -3.03635
 -0.00410 -0.00410 0.13378 0.13378 0.43513 0.43513 0.46184 0.46184 0.67068 0.67068
 0.76029 0.76029 0.88543 0.88543 0.96330 0.96330 0.98284 0.98284 1.02057 1.02057
 1.15492 1.15492 1.29985 1.29987 1.30778 1.30778 1.38099 1.38099 1.51143 1.51149
 1.68389 1.68390 1.69799 1.69803 1.79626 1.79628 1.89085 1.89086 1.95338 1.95339
 2.04410 2.04411 2.17246 2.17252 2.17532 2.17533 2.33996 2.34005 2.38859 2.38864
 2.39118 2.39123 2.54079 2.54098 2.62643 2.62643 2.72553 2.72594 2.85527 2.85535
 2.88145 2.88146 2.88988 2.88989 2.98391 2.98424 3.04194 3.04208 3.11420 3.11422
 3.24260 3.24262 3.34380 3.34389 3.34540 3.34561 3.46581 3.46585 3.47639 3.47650
 3.55789 3.55807 3.56529 3.56563 3.68108 3.68197 3.77731 3.77732 4.00463 4.00481
 4.11349 4.11392 4.26380 4.26381 4.57938 4.58102 8.41210 8.41211 8.77793 8.77817
 9.54180 9.54484 13.73254 13.73271
 == 36-th k-point (-0.30616,0.00000,0.30616) occupation: 14==
 -65.00276 -65.00276 -4.62529 -4.62514 -3.03710 -3.03708 -3.03691 -3.03655 -3.03638 -3.03635
 -0.08755 0.07550 0.13762 0.22727 0.36765 0.45367 0.46752 0.50331 0.51804 0.63297
 0.74337 0.76797 0.77288 0.89266 0.91795 0.92571 0.97310 1.07247 1.09003 1.16987
 1.20379 1.22069 1.27449 1.28463 1.32069 1.36385 1.41325 1.45509 1.56549 1.56945
 1.63750 1.66868 1.69225 1.69462 1.71592 1.72086 1.76740 1.88236 1.94779 1.98519
 2.01080 2.04069 2.11364 2.15904 2.21331 2.21813 2.26394 2.35167 2.36121 2.44474
 2.47263 2.49394 2.49697 2.52451 2.57533 2.58082 2.59750 2.75925 2.77339 2.81507
 2.83660 2.87206 2.88766 2.92086 2.94481 2.98759 3.08032 3.11278 3.12255 3.15930
 3.19856 3.30955 3.33796 3.38203 3.38623 3.40389 3.41059 3.42328 3.48071 3.48471
 3.48588 3.49020 3.63733 3.67778 3.70934 3.73860 3.79668 3.82893 3.91811 3.94223
 4.09111 4.14661 4.23923 4.35426 4.52728 4.60801 7.77163 8.29045 8.29991 9.00326
 9.31991 9.85629 13.08021 14.28077
 == 37-th k-point (-0.15308,0.15308,0.15308) occupation: 14==
 -65.00276 -65.00275 -4.62533 -4.62510 -3.03705 -3.03705 -3.03699 -3.03649 -3.03640 -3.03640
 -0.13339 0.13218 0.24841 0.24841 0.35251 0.40641 0.40641 0.53159 0.54582 0.54582
 0.60636 0.71191 0.82191 0.82191 0.93964 0.93966 0.94600 1.01512 1.18275 1.18280
 1.26987 1.26988 1.32158 1.37948 1.38197 1.46630 1.46630 1.53593 1.53597 1.56713
 1.56713 1.70094 1.70107 1.71381 1.74405 1.77938 1.84676 1.84747 1.90595 1.93051
 1.94225 1.94265 2.05001 2.06968 2.06968 2.17470 2.17489 2.21401 2.24194 2.24311
 2.28743 2.53213 2.54721 2.57953 2.58077 2.64251 2.64254 2.67359 2.73840 2.74288
 2.92195 2.92294 2.92502 2.97585 3.03081 3.03233 3.07407 3.07497 3.12504 3.16552
 3.21130 3.21255 3.31724 3.32053 3.35295 3.42992 3.42993 3.46986 3.50344 3.50368
 3.51309 3.63950 3.64917 3.64982 3.78484 3.78537 3.80215 3.85582 3.85604 3.88976
 3.94609 4.02183 4.02186 4.32866 4.52522 4.52733 4.63066 7.58135 7.66520 7.66522
 8.55469 8.56137 10.63070 11.76407 13.98756
 == 38-th k-point (0.00000,0.30616,0.00000) occupation: 14==
 -65.00276 -65.00276 -4.62532 -4.62511 -3.03707 -3.03707 -3.03695 -3.03650 -3.03641 -3.03641
 -0.12302 0.14806 0.20643 0.20643 0.31838 0.39307 0.49007 0.49007 0.57556 0.61201
 0.69524 0.75907 0.75907 0.78431 0.92174 0.92174 0.96175 1.03456 1.06022 1.22165
 1.26671 1.29605 1.29606 1.37167 1.37168 1.39297 1.40382 1.58733 1.59890 1.59890
 1.60431 1.66829 1.66836 1.66980 1.79773 1.79790 1.80702 1.82134 1.84902 1.95159
 1.95875 1.95944 2.02901 2.09473 2.12746 2.12762 2.19261 2.26929 2.26938 2.37631
 2.47181 2.54004 2.59028 2.59153 2.60185 2.61840 2.63340 2.65986 2.65993 2.81780
 2.84613 2.93338 2.93369 2.97161 2.97436 3.04769 3.18004 3.18051 3.18095 3.25359
 3.26373 3.31676 3.33366 3.33591 3.33917 3.34171 3.37433 3.38751 3.44902 3.45158
 3.54919 3.55235 3.60736 3.61513 3.76492 3.80867 3.80872 3.85162 3.99988 4.03151
 4.05017 4.05321 4.21515 4.45118 4.56476 4.57203 7.69092 7.69145 8.01769 9.69640
 9.88833 9.91199 12.54078 13.36608
 == 39-th k-point (0.15308,0.45924,-0.15308) occupation: 14==
 -65.00276 -65.00276 -4.62527 -4.62516 -3.03711 -3.03709 -3.03686 -3.03659 -3.03638 -3.03635
 -0.06269 0.04219 0.14585 0.19471 0.33317 0.44170 0.48945 0.49650 0.65417 0.67063
 0.73040 0.74680 0.75647 0.90153 0.93782 0.97010 0.99465 1.00784 1.01867 1.12576
 1.16621 1.21227 1.22968 1.32315 1.35893 1.37065 1.37262 1.44844 1.50047 1.56429
 1.60445 1.64005 1.67122 1.68539 1.71839 1.81800 1.90837 1.93059 1.93828 1.99385
 2.01834 2.04444 2.08188 2.13782 2.16601 2.20081 2.28397 2.31966 2.32993 2.37318
 2.45096 2.46173 2.50325 2.51923 2.61502 2.61702 2.66035 2.74328 2.79601 2.81440
 2.84022 2.90496 2.93410 2.95318 2.95994 3.02549 3.03611 3.05360 3.08484 3.13099
 3.15923 3.23560 3.31750 3.32637 3.33950 3.35022 3.35918 3.43827 3.49727 3.50676
 3.56628 3.65443 3.65761 3.71740 3.72137 3.79104 3.80171 3.84886 3.87817 3.98614
 4.07500 4.21159 4.25409 4.29575 4.56015 4.56932 8.10261 8.34325 8.40449 8.86056
 9.77920 9.94181 13.16277 14.19176
 == 40-th k-point (-0.15308,-0.15308,0.45924) occupation: 14==
 -65.00276 -65.00276 -4.62527 -4.62516 -3.03711 -3.03709 -3.03686 -3.03659 -3.03638 -3.03635
 -0.06269 0.04219 0.14585 0.19471 0.33317 0.44170 0.48945 0.49650 0.65417 0.67063
 0.73040 0.74680 0.75647 0.90153 0.93781 0.97010 0.99465 1.00784 1.01867 1.12576
 1.16621 1.21227 1.22968 1.32315 1.35893 1.37064 1.37262 1.44844 1.50048 1.56429
 1.60445 1.64006 1.67123 1.68540 1.71839 1.81800 1.90837 1.93057 1.93829 1.99385
 2.01834 2.04445 2.08193 2.13793 2.16602 2.20079 2.28397 2.31966 2.32997 2.37314
 2.45097 2.46174 2.50328 2.51923 2.61502 2.61704 2.66036 2.74328 2.79602 2.81440
 2.84025 2.90498 2.93428 2.95319 2.95995 3.02548 3.03614 3.05359 3.08484 3.13136
 3.15933 3.23568 3.31752 3.32652 3.33953 3.35023 3.35918 3.43831 3.49732 3.50680
 3.56629 3.65448 3.65757 3.71745 3.72134 3.79102 3.80181 3.84889 3.87836 3.98619
 4.07506 4.21198 4.25411 4.29575 4.56056 4.56946 8.10260 8.34327 8.40451 8.86069
 9.78046 9.94236 13.16276 14.19204
 == 41-th k-point (0.00000,0.00000,0.30616) occupation: 14==
 -65.00276 -65.00276 -4.62532 -4.62511 -3.03707 -3.03707 -3.03695 -3.03650 -3.03641 -3.03641
 -0.12302 0.14806 0.20643 0.20643 0.31838 0.39307 0.49007 0.49007 0.57556 0.61201
 0.69524 0.75907 0.75907 0.78431 0.92174 0.92174 0.96175 1.03456 1.06022 1.22165
 1.26671 1.29605 1.29606 1.37167 1.37168 1.39297 1.40382 1.58733 1.59890 1.59890
 1.60431 1.66829 1.66836 1.66980 1.79773 1.79790 1.80702 1.82134 1.84902 1.95159
 1.95875 1.95944 2.02901 2.09473 2.12746 2.12762 2.19261 2.26929 2.26938 2.37631
 2.47181 2.54004 2.59028 2.59153 2.60185 2.61840 2.63340 2.65986 2.65993 2.81780
 2.84613 2.93338 2.93369 2.97161 2.97436 3.04769 3.18004 3.18051 3.18095 3.25359
[...]
 -0.06269 0.04219 0.14585 0.19471 0.33317 0.44170 0.48945 0.49650 0.65417 0.67063
 0.73040 0.74680 0.75647 0.90153 0.93782 0.97010 0.99465 1.00784 1.01867 1.12576
 1.16621 1.21227 1.22968 1.32315 1.35893 1.37065 1.37262 1.44844 1.50047 1.56429
 1.60445 1.64005 1.67122 1.68539 1.71839 1.81800 1.90837 1.93059 1.93828 1.99385
 2.01834 2.04444 2.08188 2.13782 2.16601 2.20081 2.28397 2.31966 2.32993 2.37318
 2.45096 2.46173 2.50325 2.51923 2.61502 2.61702 2.66035 2.74328 2.79601 2.81440
 2.84022 2.90496 2.93410 2.95318 2.95994 3.02549 3.03611 3.05360 3.08484 3.13099
 3.15923 3.23560 3.31750 3.32637 3.33950 3.35022 3.35918 3.43827 3.49727 3.50676
 3.56628 3.65443 3.65761 3.71740 3.72137 3.79104 3.80171 3.84886 3.87817 3.98614
 4.07500 4.21159 4.25409 4.29575 4.56015 4.56932 8.10261 8.34325 8.40449 8.86056
 9.77920 9.94181 13.16277 14.19176
 == 46-th k-point (0.30616,0.00000,0.30616) occupation: 14==
 -65.00276 -65.00276 -4.62529 -4.62514 -3.03710 -3.03708 -3.03691 -3.03655 -3.03638 -3.03635
 -0.08755 0.07551 0.13762 0.22727 0.36765 0.45367 0.46752 0.50331 0.51804 0.63297
 0.74338 0.76797 0.77288 0.89267 0.91795 0.92571 0.97310 1.07247 1.09003 1.16989
 1.20387 1.22067 1.27449 1.28463 1.32069 1.36385 1.41325 1.45518 1.56549 1.56923
 1.63750 1.66867 1.69226 1.69472 1.71592 1.72095 1.76742 1.88248 1.94777 1.98520
 2.01081 2.04095 2.11366 2.15912 2.21344 2.21691 2.26406 2.35167 2.36123 2.44056
 2.47263 2.49397 2.49614 2.52493 2.57543 2.58063 2.59756 2.75863 2.77343 2.81522
 2.83665 2.87226 2.88769 2.92085 2.94481 2.98758 3.08080 3.11230 3.12270 3.15943
 3.19804 3.30959 3.33877 3.38207 3.38666 3.40392 3.41058 3.42376 3.47848 3.48231
 3.48482 3.49007 3.63809 3.67813 3.70908 3.74326 3.79672 3.82669 3.91829 3.94243
 4.09106 4.14688 4.23923 4.35446 4.52690 4.60844 7.77163 8.29051 8.29868 9.00365
 9.32348 9.85756 13.08324 14.28094
 == 47-th k-point (0.45924,0.15308,0.15308) occupation: 14==
 -65.00276 -65.00276 -4.62527 -4.62516 -3.03711 -3.03709 -3.03686 -3.03659 -3.03638 -3.03635
 -0.06269 0.04219 0.14585 0.19471 0.33317 0.44170 0.48945 0.49650 0.65417 0.67063
 0.73040 0.74680 0.75647 0.90154 0.93781 0.97010 0.99465 1.00784 1.01867 1.12576
 1.16621 1.21227 1.22968 1.32316 1.35893 1.37065 1.37262 1.44844 1.50047 1.56429
 1.60445 1.64006 1.67123 1.68539 1.71839 1.81800 1.90836 1.93059 1.93829 1.99385
 2.01835 2.04445 2.08193 2.13792 2.16601 2.20079 2.28395 2.31966 2.32997 2.37319
 2.45097 2.46174 2.50325 2.51923 2.61500 2.61703 2.66034 2.74329 2.79601 2.81440
 2.84025 2.90496 2.93428 2.95319 2.95994 3.02548 3.03614 3.05359 3.08484 3.13134
 3.15933 3.23563 3.31747 3.32652 3.33948 3.35024 3.35918 3.43830 3.49730 3.50672
 3.56627 3.65447 3.65756 3.71755 3.72134 3.79102 3.80177 3.84889 3.87839 3.98620
 4.07505 4.21198 4.25408 4.29575 4.56054 4.56940 8.10261 8.34324 8.40450 8.86057
 9.78042 9.94215 13.16278 14.19193
 == 48-th k-point (-0.61232,0.30616,0.30616) occupation: 14==
 -65.00276 -65.00276 -4.62529 -4.62514 -3.03710 -3.03708 -3.03691 -3.03655 -3.03638 -3.03635
 -0.08755 0.07551 0.13762 0.22727 0.36765 0.45367 0.46752 0.50331 0.51804 0.63297
 0.74338 0.76797 0.77288 0.89267 0.91795 0.92571 0.97310 1.07247 1.09003 1.16989
 1.20387 1.22067 1.27449 1.28463 1.32069 1.36385 1.41325 1.45518 1.56549 1.56923
 1.63750 1.66867 1.69226 1.69472 1.71592 1.72095 1.76742 1.88248 1.94777 1.98520
 2.01081 2.04095 2.11366 2.15912 2.21344 2.21691 2.26406 2.35167 2.36123 2.44056
 2.47263 2.49397 2.49614 2.52493 2.57543 2.58063 2.59756 2.75863 2.77343 2.81522
 2.83665 2.87226 2.88769 2.92085 2.94481 2.98758 3.08080 3.11230 3.12270 3.15943
 3.19804 3.30959 3.33877 3.38207 3.38666 3.40392 3.41058 3.42376 3.47848 3.48231
 3.48482 3.49007 3.63809 3.67813 3.70908 3.74326 3.79672 3.82669 3.91829 3.94243
 4.09106 4.14688 4.23923 4.35446 4.52690 4.60844 7.77163 8.29051 8.29868 9.00365
 9.32348 9.85756 13.08324 14.28094
 == 49-th k-point (-0.45924,0.45924,0.15308) occupation: 14==
 -65.00276 -65.00276 -4.62527 -4.62516 -3.03711 -3.03709 -3.03686 -3.03659 -3.03638 -3.03635
 -0.06269 0.04219 0.14585 0.19471 0.33317 0.44170 0.48945 0.49650 0.65417 0.67063
 0.73040 0.74680 0.75647 0.90153 0.93782 0.97010 0.99465 1.00784 1.01867 1.12576
 1.16621 1.21227 1.22968 1.32315 1.35893 1.37065 1.37262 1.44844 1.50047 1.56429
 1.60445 1.64005 1.67122 1.68539 1.71839 1.81800 1.90837 1.93059 1.93828 1.99385
 2.01834 2.04444 2.08188 2.13782 2.16601 2.20081 2.28397 2.31966 2.32993 2.37318
 2.45096 2.46173 2.50325 2.51923 2.61502 2.61702 2.66035 2.74328 2.79601 2.81440
 2.84022 2.90496 2.93410 2.95318 2.95994 3.02549 3.03611 3.05360 3.08484 3.13099
 3.15923 3.23560 3.31750 3.32637 3.33950 3.35022 3.35918 3.43827 3.49727 3.50676
 3.56628 3.65443 3.65761 3.71740 3.72137 3.79104 3.80171 3.84886 3.87817 3.98614
 4.07500 4.21159 4.25409 4.29575 4.56015 4.56932 8.10261 8.34325 8.40449 8.86056
 9.77920 9.94181 13.16277 14.19176
 == 50-th k-point (-0.30616,0.61232,-0.00000) occupation: 14==
 -65.00276 -65.00276 -4.62521 -4.62521 -3.03711 -3.03711 -3.03673 -3.03673 -3.03635 -3.03635
 -0.00410 -0.00410 0.13378 0.13378 0.43513 0.43513 0.46184 0.46184 0.67068 0.67068
 0.76029 0.76029 0.88543 0.88543 0.96330 0.96330 0.98284 0.98284 1.02057 1.02057
 1.15492 1.15492 1.29985 1.29987 1.30778 1.30778 1.38099 1.38099 1.51143 1.51149
 1.68389 1.68390 1.69799 1.69803 1.79626 1.79628 1.89085 1.89086 1.95338 1.95339
 2.04410 2.04411 2.17246 2.17252 2.17532 2.17533 2.33996 2.34005 2.38859 2.38864
 2.39118 2.39123 2.54079 2.54098 2.62643 2.62643 2.72553 2.72594 2.85527 2.85535
 2.88145 2.88146 2.88988 2.88989 2.98391 2.98424 3.04194 3.04208 3.11420 3.11422
 3.24260 3.24262 3.34380 3.34389 3.34540 3.34561 3.46581 3.46585 3.47639 3.47650
 3.55789 3.55807 3.56529 3.56563 3.68108 3.68197 3.77731 3.77732 4.00463 4.00481
 4.11349 4.11392 4.26380 4.26381 4.57938 4.58102 8.41210 8.41211 8.77793 8.77817
 9.54180 9.54484 13.73254 13.73271
 == 51-th k-point (-0.15308,0.76541,-0.15308) occupation: 14==
 -65.00276 -65.00276 -4.62527 -4.62516 -3.03711 -3.03709 -3.03686 -3.03659 -3.03638 -3.03635
 -0.06269 0.04219 0.14585 0.19471 0.33317 0.44170 0.48945 0.49650 0.65417 0.67063
 0.73040 0.74680 0.75647 0.90154 0.93781 0.97010 0.99465 1.00784 1.01867 1.12576
 1.16621 1.21227 1.22968 1.32316 1.35893 1.37065 1.37262 1.44844 1.50047 1.56429
 1.60445 1.64006 1.67123 1.68539 1.71839 1.81800 1.90836 1.93059 1.93829 1.99385
 2.01835 2.04445 2.08193 2.13792 2.16601 2.20079 2.28395 2.31966 2.32997 2.37319
 2.45097 2.46174 2.50325 2.51923 2.61500 2.61703 2.66034 2.74329 2.79601 2.81440
 2.84025 2.90496 2.93428 2.95319 2.95994 3.02548 3.03614 3.05359 3.08484 3.13134
 3.15933 3.23563 3.31747 3.32652 3.33948 3.35024 3.35918 3.43830 3.49730 3.50672
 3.56627 3.65447 3.65756 3.71755 3.72134 3.79102 3.80177 3.84889 3.87839 3.98620
 4.07505 4.21198 4.25408 4.29575 4.56054 4.56940 8.10261 8.34324 8.40450 8.86057
 9.78042 9.94215 13.16278 14.19193
 == 52-th k-point (-0.45924,0.15308,0.45924) occupation: 14==
 -65.00276 -65.00276 -4.62527 -4.62516 -3.03711 -3.03709 -3.03686 -3.03659 -3.03638 -3.03635
 -0.06269 0.04219 0.14585 0.19471 0.33317 0.44170 0.48945 0.49650 0.65417 0.67063
 0.73040 0.74680 0.75647 0.90153 0.93782 0.97010 0.99465 1.00784 1.01867 1.12576
 1.16621 1.21227 1.22968 1.32315 1.35893 1.37065 1.37262 1.44844 1.50047 1.56429
 1.60445 1.64005 1.67122 1.68539 1.71839 1.81800 1.90837 1.93059 1.93828 1.99385
 2.01834 2.04444 2.08188 2.13782 2.16601 2.20081 2.28397 2.31966 2.32993 2.37318
 2.45096 2.46173 2.50325 2.51923 2.61502 2.61702 2.66035 2.74328 2.79601 2.81440
 2.84022 2.90496 2.93410 2.95318 2.95994 3.02549 3.03611 3.05360 3.08484 3.13099
 3.15923 3.23560 3.31750 3.32637 3.33950 3.35022 3.35918 3.43827 3.49727 3.50676
 3.56628 3.65443 3.65761 3.71740 3.72137 3.79104 3.80171 3.84886 3.87817 3.98614
 4.07500 4.21159 4.25409 4.29575 4.56015 4.56932 8.10261 8.34325 8.40449 8.86056
 9.77920 9.94181 13.16277 14.19176
 == 53-th k-point (-0.30616,0.30616,0.30616) occupation: 14==
 -65.00277 -65.00275 -4.62529 -4.62514 -3.03708 -3.03708 -3.03696 -3.03650 -3.03638 -3.03638
 -0.07677 0.01986 0.23203 0.23203 0.33480 0.40070 0.40070 0.55934 0.67360 0.67360
 0.69471 0.69616 0.69617 0.75535 1.00161 1.01602 1.09170 1.09171 1.09555 1.09561
 1.24036 1.26116 1.26117 1.30851 1.30852 1.35809 1.41740 1.49147 1.49158 1.50192
 1.50201 1.58530 1.62574 1.65449 1.88052 1.88053 1.88788 1.90897 1.90913 1.92100
 2.12847 2.12869 2.19299 2.19691 2.19727 2.24643 2.26948 2.27134 2.33310 2.33469
 2.46260 2.46332 2.55686 2.55801 2.60264 2.68086 2.74918 2.77537 2.77574 2.79596
 2.81771 2.81921 2.82903 2.92126 2.95130 2.96314 3.09682 3.09716 3.09865 3.09907
 3.19324 3.19336 3.21168 3.21380 3.31621 3.46624 3.46707 3.55331 3.55611 3.55734
 3.56550 3.66566 3.67482 3.69278 3.73204 3.76183 3.93323 3.93494 4.00225 4.00655
 4.12964 4.14772 4.15022 4.33769 4.43931 4.44083 8.25659 8.26061 8.33163 9.36529
 9.36684 10.00790 11.95278 14.72427
 == 54-th k-point (-0.15308,0.45924,0.15308) occupation: 14==
 -65.00276 -65.00276 -4.62527 -4.62516 -3.03711 -3.03709 -3.03686 -3.03659 -3.03638 -3.03635
 -0.06269 0.04219 0.14585 0.19471 0.33317 0.44170 0.48945 0.49650 0.65417 0.67063
 0.73040 0.74680 0.75647 0.90153 0.93782 0.97010 0.99465 1.00784 1.01867 1.12576
 1.16621 1.21227 1.22968 1.32315 1.35893 1.37065 1.37262 1.44844 1.50047 1.56429
 1.60445 1.64005 1.67122 1.68539 1.71839 1.81800 1.90837 1.93059 1.93828 1.99385
 2.01834 2.04444 2.08188 2.13782 2.16601 2.20081 2.28397 2.31966 2.32993 2.37318
 2.45096 2.46173 2.50325 2.51923 2.61502 2.61702 2.66035 2.74328 2.79601 2.81440
 2.84022 2.90496 2.93410 2.95318 2.95994 3.02549 3.03611 3.05360 3.08484 3.13099
 3.15923 3.23560 3.31750 3.32637 3.33950 3.35022 3.35918 3.43827 3.49727 3.50676
 3.56628 3.65443 3.65761 3.71740 3.72137 3.79104 3.80171 3.84886 3.87817 3.98614
 4.07500 4.21159 4.25409 4.29575 4.56015 4.56932 8.10261 8.34325 8.40449 8.86056
 9.77920 9.94181 13.16277 14.19176
 == 55-th k-point (0.00000,0.61232,0.00000) occupation: 14==
 -65.00276 -65.00276 -4.62521 -4.62521 -3.03712 -3.03712 -3.03672 -3.03672 -3.03636 -3.03636
 -0.01028 -0.01028 0.17071 0.17071 0.30327 0.30327 0.64917 0.64917 0.68999 0.68999
 0.74518 0.74518 0.75666 0.75666 0.97893 0.97893 1.00360 1.00361 1.02369 1.02369
 1.07069 1.07069 1.23946 1.23946 1.37548 1.37550 1.54544 1.54545 1.58299 1.58299
 1.63190 1.63190 1.69219 1.69219 1.74579 1.74580 1.82892 1.82925 1.85696 1.85696
 2.08174 2.08257 2.09847 2.09853 2.18845 2.18845 2.30624 2.30625 2.43210 2.43213
 2.45623 2.45623 2.50463 2.50463 2.52216 2.52328 2.73835 2.73835 2.77850 2.77864
 2.86858 2.86916 2.98974 2.98975 3.01031 3.01031 3.02776 3.02776 3.08262 3.08275
 3.23497 3.23511 3.25153 3.25169 3.26436 3.26437 3.45359 3.45730 3.49333 3.49334
 3.55905 3.55913 3.64421 3.64421 3.73034 3.73034 3.93719 3.93795 4.07037 4.07037
 4.29196 4.29258 4.35601 4.35602 4.60968 4.61461 8.31950 8.31951 8.62716 8.62726
 9.65875 9.66723 13.41309 13.41309
 == 56-th k-point (-0.30616,0.00000,0.61232) occupation: 14==
 -65.00276 -65.00276 -4.62521 -4.62521 -3.03711 -3.03711 -3.03673 -3.03673 -3.03635 -3.03635
 -0.00410 -0.00410 0.13378 0.13378 0.43513 0.43513 0.46184 0.46184 0.67068 0.67068
 0.76029 0.76029 0.88543 0.88543 0.96330 0.96330 0.98284 0.98284 1.02057 1.02057
 1.15492 1.15492 1.29985 1.29987 1.30778 1.30778 1.38099 1.38099 1.51143 1.51149
 1.68389 1.68390 1.69799 1.69803 1.79626 1.79628 1.89085 1.89086 1.95338 1.95339
 2.04410 2.04411 2.17246 2.17252 2.17532 2.17533 2.33996 2.34005 2.38859 2.38864
 2.39118 2.39123 2.54079 2.54098 2.62643 2.62643 2.72553 2.72594 2.85527 2.85535
 2.88145 2.88146 2.88988 2.88989 2.98391 2.98424 3.04194 3.04208 3.11420 3.11422
 3.24260 3.24262 3.34380 3.34389 3.34540 3.34561 3.46581 3.46585 3.47639 3.47650
 3.55789 3.55807 3.56529 3.56563 3.68108 3.68197 3.77731 3.77732 4.00463 4.00481
 4.11349 4.11392 4.26380 4.26381 4.57938 4.58102 8.41210 8.41211 8.77793 8.77817
 9.54180 9.54484 13.73254 13.73271
 == 57-th k-point (-0.15308,0.15308,0.45924) occupation: 14==
 -65.00276 -65.00276 -4.62527 -4.62516 -3.03711 -3.03709 -3.03686 -3.03659 -3.03638 -3.03635
 -0.06269 0.04219 0.14585 0.19471 0.33317 0.44170 0.48945 0.49650 0.65417 0.67063
 0.73040 0.74680 0.75647 0.90153 0.93782 0.97010 0.99465 1.00784 1.01867 1.12576
 1.16621 1.21227 1.22968 1.32315 1.35893 1.37065 1.37262 1.44844 1.50047 1.56429
 1.60445 1.64005 1.67122 1.68539 1.71839 1.81800 1.90837 1.93059 1.93828 1.99385
 2.01834 2.04444 2.08188 2.13782 2.16601 2.20081 2.28397 2.31966 2.32993 2.37318
 2.45096 2.46173 2.50325 2.51923 2.61502 2.61702 2.66035 2.74328 2.79601 2.81440
 2.84022 2.90496 2.93410 2.95318 2.95994 3.02549 3.03611 3.05360 3.08484 3.13099
 3.15923 3.23560 3.31750 3.32637 3.33950 3.35022 3.35918 3.43827 3.49727 3.50676
 3.56628 3.65443 3.65761 3.71740 3.72137 3.79104 3.80171 3.84886 3.87817 3.98614
 4.07500 4.21159 4.25409 4.29575 4.56015 4.56932 8.10261 8.34325 8.40449 8.86056
 9.77920 9.94181 13.16277 14.19176
 == 58-th k-point (0.00000,0.30616,0.30616) occupation: 14==
 -65.00276 -65.00276 -4.62529 -4.62514 -3.03710 -3.03708 -3.03691 -3.03655 -3.03638 -3.03635
 -0.08755 0.07551 0.13762 0.22727 0.36765 0.45367 0.46752 0.50331 0.51804 0.63297
 0.74338 0.76797 0.77288 0.89267 0.91795 0.92571 0.97310 1.07247 1.09003 1.16989
 1.20387 1.22067 1.27449 1.28463 1.32069 1.36385 1.41325 1.45518 1.56549 1.56923
 1.63750 1.66867 1.69226 1.69472 1.71592 1.72095 1.76742 1.88248 1.94777 1.98520
 2.01081 2.04095 2.11366 2.15912 2.21344 2.21691 2.26406 2.35167 2.36123 2.44056
 2.47263 2.49397 2.49614 2.52493 2.57543 2.58063 2.59756 2.75863 2.77343 2.81522
 2.83665 2.87226 2.88769 2.92085 2.94481 2.98758 3.08080 3.11230 3.12270 3.15943
 3.19804 3.30959 3.33877 3.38207 3.38666 3.40392 3.41058 3.42376 3.47848 3.48231
 3.48482 3.49007 3.63809 3.67813 3.70908 3.74326 3.79672 3.82669 3.91829 3.94243
 4.09106 4.14688 4.23923 4.35446 4.52690 4.60844 7.77163 8.29051 8.29868 9.00365
 9.32348 9.85756 13.08324 14.28094
 == 59-th k-point (0.15308,0.45924,0.15308) occupation: 14==
 -65.00276 -65.00276 -4.62527 -4.62516 -3.03711 -3.03709 -3.03686 -3.03659 -3.03638 -3.03635
 -0.06269 0.04219 0.14585 0.19471 0.33317 0.44170 0.48945 0.49650 0.65417 0.67063
 0.73040 0.74680 0.75647 0.90154 0.93781 0.97010 0.99465 1.00784 1.01867 1.12576
 1.16621 1.21227 1.22968 1.32316 1.35893 1.37065 1.37262 1.44844 1.50047 1.56429
 1.60445 1.64006 1.67123 1.68539 1.71839 1.81800 1.90836 1.93059 1.93829 1.99385
 2.01835 2.04445 2.08193 2.13792 2.16601 2.20079 2.28395 2.31966 2.32997 2.37319
 2.45097 2.46174 2.50325 2.51923 2.61500 2.61703 2.66034 2.74329 2.79601 2.81440
 2.84025 2.90496 2.93428 2.95319 2.95994 3.02548 3.03614 3.05359 3.08484 3.13134
 3.15933 3.23563 3.31747 3.32652 3.33948 3.35024 3.35918 3.43830 3.49730 3.50672
 3.56627 3.65447 3.65756 3.71755 3.72134 3.79102 3.80177 3.84889 3.87839 3.98620
 4.07505 4.21198 4.25408 4.29575 4.56054 4.56940 8.10261 8.34324 8.40450 8.86057
 9.78042 9.94215 13.16278 14.19193
 == 60-th k-point (-0.15308,-0.15308,0.76541) occupation: 14==
 -65.00276 -65.00276 -4.62527 -4.62516 -3.03711 -3.03709 -3.03686 -3.03659 -3.03638 -3.03635
 -0.06269 0.04219 0.14585 0.19471 0.33317 0.44170 0.48945 0.49650 0.65417 0.67063
 0.73040 0.74680 0.75647 0.90154 0.93781 0.97010 0.99465 1.00784 1.01867 1.12576
 1.16621 1.21227 1.22968 1.32316 1.35893 1.37065 1.37262 1.44844 1.50047 1.56429
 1.60445 1.64006 1.67123 1.68539 1.71839 1.81800 1.90836 1.93059 1.93829 1.99385
 2.01835 2.04445 2.08193 2.13792 2.16601 2.20079 2.28395 2.31966 2.32997 2.37319
 2.45097 2.46174 2.50325 2.51923 2.61500 2.61703 2.66034 2.74329 2.79601 2.81440
 2.84025 2.90496 2.93428 2.95319 2.95994 3.02548 3.03614 3.05359 3.08484 3.13134
 3.15933 3.23563 3.31747 3.32652 3.33948 3.35024 3.35918 3.43830 3.49730 3.50672
 3.56627 3.65447 3.65756 3.71755 3.72134 3.79102 3.80177 3.84889 3.87839 3.98620
 4.07505 4.21198 4.25408 4.29575 4.56054 4.56940 8.10261 8.34324 8.40450 8.86057
 9.78042 9.94215 13.16278 14.19193
 == 61-th k-point (0.00000,0.00000,0.61232) occupation: 14==
 -65.00276 -65.00276 -4.62521 -4.62521 -3.03712 -3.03712 -3.03672 -3.03672 -3.03636 -3.03636
 -0.01028 -0.01028 0.17071 0.17071 0.30327 0.30327 0.64917 0.64917 0.68999 0.68999
 0.74518 0.74518 0.75666 0.75666 0.97893 0.97893 1.00360 1.00361 1.02369 1.02369
 1.07069 1.07069 1.23946 1.23946 1.37548 1.37550 1.54544 1.54545 1.58299 1.58299
 1.63190 1.63190 1.69219 1.69219 1.74579 1.74580 1.82892 1.82925 1.85696 1.85696
 2.08174 2.08257 2.09847 2.09853 2.18845 2.18845 2.30624 2.30625 2.43210 2.43213
 2.45623 2.45623 2.50463 2.50463 2.52216 2.52328 2.73835 2.73835 2.77850 2.77864
 2.86858 2.86916 2.98974 2.98975 3.01031 3.01031 3.02776 3.02776 3.08262 3.08275
 3.23497 3.23511 3.25153 3.25169 3.26436 3.26437 3.45359 3.45730 3.49333 3.49334
 3.55905 3.55913 3.64421 3.64421 3.73034 3.73034 3.93719 3.93795 4.07037 4.07037
 4.29196 4.29258 4.35601 4.35602 4.60968 4.61461 8.31950 8.31951 8.62716 8.62726
 9.65875 9.66723 13.41309 13.41309
 == 62-th k-point (0.15308,0.15308,0.45924) occupation: 14==
 -65.00276 -65.00276 -4.62527 -4.62516 -3.03711 -3.03709 -3.03686 -3.03659 -3.03638 -3.03635
 -0.06269 0.04219 0.14585 0.19471 0.33317 0.44170 0.48945 0.49650 0.65417 0.67063
 0.73040 0.74680 0.75647 0.90154 0.93781 0.97010 0.99465 1.00784 1.01867 1.12576
 1.16621 1.21227 1.22968 1.32316 1.35893 1.37065 1.37262 1.44844 1.50047 1.56429
 1.60445 1.64006 1.67123 1.68539 1.71839 1.81800 1.90836 1.93059 1.93829 1.99385
 2.01835 2.04445 2.08193 2.13792 2.16601 2.20079 2.28395 2.31966 2.32997 2.37319
 2.45097 2.46174 2.50325 2.51923 2.61500 2.61703 2.66034 2.74329 2.79601 2.81440
 2.84025 2.90496 2.93428 2.95319 2.95994 3.02548 3.03614 3.05359 3.08484 3.13134
 3.15933 3.23563 3.31747 3.32652 3.33948 3.35024 3.35918 3.43830 3.49730 3.50672
 3.56627 3.65447 3.65756 3.71755 3.72134 3.79102 3.80177 3.84889 3.87839 3.98620
 4.07505 4.21198 4.25408 4.29575 4.56054 4.56940 8.10261 8.34324 8.40450 8.86057
 9.78042 9.94215 13.16278 14.19193
 == 63-th k-point (0.30616,0.30616,0.30616) occupation: 14==
 -65.00277 -65.00275 -4.62529 -4.62514 -3.03708 -3.03708 -3.03696 -3.03650 -3.03638 -3.03638
 -0.07677 0.01986 0.23203 0.23203 0.33480 0.40070 0.40070 0.55934 0.67360 0.67360
 0.69471 0.69617 0.69617 0.75535 1.00160 1.01601 1.09170 1.09170 1.09561 1.09561
 1.24023 1.26117 1.26117 1.30852 1.30852 1.35808 1.41740 1.49157 1.49157 1.50201
 1.50201 1.58523 1.62574 1.65447 1.88053 1.88053 1.88786 1.90913 1.90913 1.92094
 2.12870 2.12870 2.19293 2.19727 2.19727 2.24637 2.27109 2.27109 2.33476 2.33476
 2.46327 2.46327 2.55804 2.55804 2.60256 2.68085 2.74879 2.77573 2.77573 2.79595
 2.81926 2.81926 2.82903 2.92122 2.95129 2.96314 3.09711 3.09711 3.09909 3.09909
 3.19337 3.19337 3.21371 3.21371 3.31621 3.46705 3.46705 3.55330 3.55713 3.55713
 3.56550 3.67520 3.67520 3.69138 3.73204 3.76177 3.93501 3.93501 4.00661 4.00661
 4.12944 4.15021 4.15021 4.33691 4.44085 4.44085 8.26073 8.26073 8.33162 9.36683
 9.36683 10.00661 11.95248 14.72335
 ---------------------------------------------------------------------------
 VBM is at 21-th k-point with 7.53357 eV
 CBM is at 31-th k-point with 8.25228 eV
 Band gap is 0.71871 eV


           Ground-State Mulliken Net Atomic Charges

      Atom                 Charge (a.u.)          Spin (a.u.)
   --------------------------------------------------------
      1 Si              (-0.000001,-0.000000)    (0.000000,0.000000)
      2 Si                (0.000001,0.000000)    (0.000000,0.000000)
   --------------------------------------------------------
  Sum of atomic charges =     (-0.000000,-0.000000)
  Sum of spin   charges =       (0.000000,0.000000)



 Total job time:  66.31 s.
 Tue Sep  9 03:03:32 2025


        *************************************************************
        *                                                           *
        *  Thank you very much for using QCPBC. Have a nice day.    *
        *                                                           *
        *************************************************************

Running job 1 of 1
