                  Welcome to Q-Chem
           with Periodic Boundary Condition
     A Quantum Leap Into The Future Of Chemistry

 Adam Rettig, Xintian Feng, Meng-Fu Chen, Hieu Dinh, Stephen Quiton,
 Anton Ni, Paul J. Robinson, Jinghong Zhang, Joonho Lee

Contributors to earlier versions of Q-Chem not listed above:
 Evgeny Epifanovsky, Leo Cunha, Jerome F. Gonthier, Kuan-Yu Liu
 Input file: /n/netscratch/joonholee_lab/Lab/hieudinh//si_2_ccpvqz_omega_0.6_777.scratch20250909032717/si_2_ccpvqz_omega_0.6_777.0
 Scratch folder: /n/netscratch/joonholee_lab/Lab/hieudinh//si_2_ccpvqz_omega_0.6_777.scratch20250909032717
 Auxillary files located at: /n/holylabs/LABS/joonholee_lab/Lab/qchem_base/qcaux
 Q-Chem begins on Tue Sep  9 03:27:18 2025

 -------------------------------------------------------------
 User input:
 -------------------------------------------------------------
 $lattice
 3
 0.000000 5.130600 5.130600
 5.130600 0.000000 5.130600
 5.130600 5.130600 0.000000
 $end
 
 $unitcell
 ABSOLUTE
 0 1
 Si 0.000000 0.000000 0.000000
 Si 2.565300 2.565300 2.565300
 $end
 
 $rem
 jobtype = sp
 method = pbe
 scf_convergence = 5
 scf_guess = autosad
 scf_algorithm = diis_gdm
 basis = cc-pvqz
 aux_basis = cc-pvqz-jk
 input_bohr = true
 symmetry = false
 rsdf_print_level 1
 is_basis_uctr true
 
 mp_mesh = [7,7,7]
 
 integral_direct true
 bvk_cgto true
 
 thresh 14
 mem_total 1000000
 threads 32
 
 MAX_SCF_CYCLES 500
 madelung = false
 omega 0.6
 do_rij_bigmem true
 automate_g true
 print_level 10
 grid_type_xc 1
 
 thresh_1e2c_sp 1e-14
 thresh_2e3c_bra_ket_sep 1e-10
 thresh_g 1e-12
 $end
 
 -------------------------------------------------------------
 Running PBC job

 Requested Exchange Correlation Functionals: 
  DFT Exchange:  1.00000 pbe_x
  DFT Correlation:  1.00000 pbe_c
 using 32 threads for computing.
 ---------------------------------------------------------------
      Coordinates of Atoms in Central Unit Cell (Angstroms)
    I     Atom         X            Y            Z
 ---------------------------------------------------------------
    1      Si      0.000000     0.000000     0.000000
    2      Si      1.357498     1.357498     1.357498
 ---------------------------------------------------------------
 --------------------------------------------------
              Lattice Vectors (Angstroms)
              X            Y            Z
 --------------------------------------------------
   X       0.000000     2.714997     2.714997
   Y       2.714997     0.000000     2.714997
   Z       2.714997     2.714997     0.000000
 --------------------------------------------------
 --------------------------------------------------
       Reciprocal Lattice Vectors (Angstroms^-1)
              X            Y            Z
 --------------------------------------------------
   X      -1.157126     1.157126     1.157126
   Y       1.157126    -1.157126     1.157126
   Z       1.157126     1.157126    -1.157126
 --------------------------------------------------

 Single point calculation requested

 Hamiltonian contributions:
 List of terms in Hamiltonian: kpts_nn, kpts_kinetic, kpts_vnuc_df, kpts_xc, kpts_rij_bigmem

 K-Points calculation started.

 Basis set information about using solid harmonic (1) or Cartesian (0):
  si : D(1) D(1) D(1) F(1) F(1) G(1) 

 Basis set information about using solid harmonic (1) or Cartesian (0):
  si : D(1) D(1) D(1) D(1) D(1) D(1) D(1) D(1) D(1) F(1) F(1) F(1) F(1) G(1) G(1) H(1) 

 There are 118 basis functions in the central unit cell.
 Print atomic basis of atoms in the central unit cell:
 -------------------------------------------------------------
2 66 134 28

  0.00000000000000e+00  0.00000000000000e+00  0.00000000000000e+00
  2.56530000000000e+00  2.56530000000000e+00  2.56530000000000e+00

  5.13000000000000e+05
  7.68200000000000e+04
  1.74700000000000e+04
  4.93500000000000e+03
  1.60200000000000e+03
  5.74100000000000e+02
  2.21500000000000e+02
  9.05400000000000e+01
  3.87400000000000e+01
  1.69500000000000e+01
  6.45200000000000e+00
  2.87400000000000e+00
  1.25000000000000e+00
  3.59900000000000e-01
  1.69900000000000e-01
  7.06600000000000e-02
  1.12200000000000e+03
  2.66000000000000e+02
  8.59200000000000e+01
  3.23300000000000e+01
  1.33700000000000e+01
  5.80000000000000e+00
  2.55900000000000e+00
  1.12400000000000e+00
  3.98800000000000e-01
  1.53300000000000e-01
  5.72800000000000e-02
  7.60000000000000e-01
  3.02000000000000e-01
  1.20000000000000e-01
  5.41000000000000e-01
  2.12000000000000e-01
  4.61000000000000e-01
  5.13000000000000e+05
  7.68200000000000e+04
  1.74700000000000e+04
  4.93500000000000e+03
  1.60200000000000e+03
  5.74100000000000e+02
  2.21500000000000e+02
  9.05400000000000e+01
  3.87400000000000e+01
  1.69500000000000e+01
  6.45200000000000e+00
  2.87400000000000e+00
  1.25000000000000e+00
  3.59900000000000e-01
  1.69900000000000e-01
  7.06600000000000e-02
  1.12200000000000e+03
  2.66000000000000e+02
  8.59200000000000e+01
  3.23300000000000e+01
  1.33700000000000e+01
  5.80000000000000e+00
  2.55900000000000e+00
  1.12400000000000e+00
  3.98800000000000e-01
  1.53300000000000e-01
  5.72800000000000e-02
  7.60000000000000e-01
  3.02000000000000e-01
  1.20000000000000e-01
  5.41000000000000e-01
  2.12000000000000e-01
  4.61000000000000e-01

  3.56439732356011e-01
  6.67250935594825e-01
  1.15567538346971e+00
  1.89079471139597e+00
  2.92997535092854e+00
  4.25377897422013e+00
  5.53035652706994e+00
  5.88407857713363e+00
  4.26432221020809e+00
  1.46246852660687e+00
  9.90009037975635e-02
 -5.26805361731285e-03
  1.58075269248041e-03
 -9.63604858609034e-02
 -1.80140685379119e-01
 -3.12991611081079e-01
 -5.12013980868736e-01
 -8.03092560139717e-01
 -1.18597193899895e+00
 -1.63453354628192e+00
 -1.94138718043020e+00
 -1.86039340932271e+00
 -9.21642524314205e-01
  4.93552860211257e-01
  9.09065541611183e-01
  3.40430003714153e-01
  4.89002727192571e-02
  9.13245846186842e-02
  1.58921585782757e-01
  2.59526822498432e-01
  4.08347517411705e-01
  6.02266139654795e-01
  8.36774006155092e-01
  9.98775610751853e-01
  9.86583994360998e-01
  5.01500269670235e-01
 -2.91439000418814e-01
 -6.84883633703988e-01
 -4.85138432421684e-01
  3.31166560285492e-01
  1.88605835767988e-01
  9.76765512168845e-02
  4.17977074735086e+00
  5.88843070847456e+00
  7.44317185052013e+00
  8.05001094515016e+00
  6.97099017282640e+00
  4.33955185260449e+00
  1.76355858703549e+00
  3.34437932089088e-01
 -4.09551658476811e+00
 -5.70145272051300e+00
 -7.35388974061730e+00
 -7.93663059323219e+00
 -7.17813870370958e+00
 -4.42768957771269e+00
 -2.05517820096269e+00
 -1.72105843348797e-01
  4.51735295769850e-01
  1.36731249153695e-01
  3.99432914781939e-02
  1.01820035164008e+00
  2.02498404800701e-01
  4.02695370421242e-02
  3.69528803814005e-01
  4.48962571437413e-02
  1.32316184864580e-01
  3.56439732356011e-01
  6.67250935594825e-01
  1.15567538346971e+00
  1.89079471139597e+00
  2.92997535092854e+00
  4.25377897422013e+00
  5.53035652706994e+00
  5.88407857713363e+00
  4.26432221020809e+00
  1.46246852660687e+00
  9.90009037975635e-02
 -5.26805361731285e-03
  1.58075269248041e-03
 -9.63604858609034e-02
 -1.80140685379119e-01
 -3.12991611081079e-01
 -5.12013980868736e-01
 -8.03092560139717e-01
 -1.18597193899895e+00
 -1.63453354628192e+00
 -1.94138718043020e+00
 -1.86039340932271e+00
 -9.21642524314205e-01
  4.93552860211257e-01
  9.09065541611183e-01
  3.40430003714153e-01
  4.89002727192571e-02
  9.13245846186842e-02
  1.58921585782757e-01
  2.59526822498432e-01
  4.08347517411705e-01
  6.02266139654795e-01
  8.36774006155092e-01
  9.98775610751853e-01
  9.86583994360998e-01
  5.01500269670235e-01
 -2.91439000418814e-01
 -6.84883633703988e-01
 -4.85138432421684e-01
  3.31166560285492e-01
  1.88605835767988e-01
  9.76765512168845e-02
  4.17977074735086e+00
  5.88843070847456e+00
  7.44317185052013e+00
  8.05001094515016e+00
  6.97099017282640e+00
  4.33955185260449e+00
  1.76355858703549e+00
  3.34437932089088e-01
 -4.09551658476811e+00
 -5.70145272051300e+00
 -7.35388974061730e+00
 -7.93663059323219e+00
 -7.17813870370958e+00
 -4.42768957771269e+00
 -2.05517820096269e+00
 -1.72105843348797e-01
  4.51735295769850e-01
  1.36731249153695e-01
  3.99432914781939e-02
  1.01820035164008e+00
  2.02498404800701e-01
  4.02695370421242e-02
  3.69528803814005e-01
  4.48962571437413e-02
  1.32316184864580e-01

0 0 0 0 3 3 3
0 0 13 0 26 0 
13 0

0 3 3 13 1 1 1
39 0 
1 0

0 4 4 14 1 1 1
40 0 
1 0

0 5 5 15 1 1 1
41 0 
1 0

0 6 6 16 2 6 6
42 1 50 1 
8 0

0 12 12 24 1 3 3
58 1 
1 0

0 15 15 25 1 3 3
59 1 
1 0

0 18 18 26 1 3 3
60 1 
1 0

0 21 21 27 1 5 6
61 2 
1 1

0 26 26 28 1 5 6
62 2 
1 1

0 31 31 29 1 5 6
63 2 
1 1

0 36 36 30 1 7 10
64 3 
1 1

0 43 43 31 1 7 10
65 3 
1 1

0 50 50 32 1 9 15
66 4 
1 1

1 59 59 33 3 3 3
67 0 80 0 93 0 
13 0

1 62 62 46 1 1 1
106 0 
1 0

1 63 63 47 1 1 1
107 0 
1 0

1 64 64 48 1 1 1
108 0 
1 0

1 65 65 49 2 6 6
109 1 117 1 
8 0

1 71 71 57 1 3 3
125 1 
1 0

1 74 74 58 1 3 3
126 1 
1 0

1 77 77 59 1 3 3
127 1 
1 0

1 80 80 60 1 5 6
128 2 
1 1

1 85 85 61 1 5 6
129 2 
1 1

1 90 90 62 1 5 6
130 2 
1 1

1 95 95 63 1 7 10
131 3 
1 1

1 102 102 64 1 7 10
132 3 
1 1

1 109 109 65 1 9 15
133 4 
1 1

 -------------------------------------------------------------
 Allocate 265256 B from available memory: 1048576000000 B
 There are 2197 image cells after screening.
 There are 2061 image cells for CGTO evaluation after screening.
 Real-Space grid for FFT initialized based on kinetic energy cutoff (eV) = 500.0
 Real-Space grid for FFT: (10,10,10)
 There are 9261 real-space grid points.
 There are 64 batches of real-space grid points. 
 Size of each grid batch is around 128
 Grid for AFT initialized based on kinetic energy cutoff (eV) = 500.0
 Real-Space grid for AFT: (10,10,10)
 There are 9261 real-space grid points.

 There are 5628 atom-centered grid points.

 Spacegroup symmetry group: Fd-3m
 Reducing spacegroup symmetry to symmorphic group: F -4 3 m
 Monkhorst-Pack mesh is [7,7,7]
 There are 343 k points.
kpoints in Bohr
-0.2624248337 -0.2624248337 -0.2624248337
-0.1749498891 -0.1749498891 -0.3498997782
-0.0874749446 -0.0874749446 -0.4373747228
-0.0000000000 -0.0000000000 -0.5248496673
0.0874749446 0.0874749446 -0.6123246119
0.1749498891 0.1749498891 -0.6997995564
0.2624248337 0.2624248337 -0.7872745010
-0.1749498891 -0.3498997782 -0.1749498891
-0.0874749446 -0.2624248337 -0.2624248337
-0.0000000000 -0.1749498891 -0.3498997782
0.0874749446 -0.0874749446 -0.4373747228
0.1749498891 -0.0000000000 -0.5248496673
0.2624248337 0.0874749446 -0.6123246119
0.3498997782 0.1749498891 -0.6997995564
-0.0874749446 -0.4373747228 -0.0874749446
-0.0000000000 -0.3498997782 -0.1749498891
0.0874749446 -0.2624248337 -0.2624248337
0.1749498891 -0.1749498891 -0.3498997782
0.2624248337 -0.0874749446 -0.4373747228
0.3498997782 -0.0000000000 -0.5248496673
0.4373747228 0.0874749446 -0.6123246119
-0.0000000000 -0.5248496673 0.0000000000
0.0874749446 -0.4373747228 -0.0874749446
0.1749498891 -0.3498997782 -0.1749498891
0.2624248337 -0.2624248337 -0.2624248337
0.3498997782 -0.1749498891 -0.3498997782
0.4373747228 -0.0874749446 -0.4373747228
0.5248496673 0.0000000000 -0.5248496673
0.0874749446 -0.6123246119 0.0874749446
0.1749498891 -0.5248496673 0.0000000000
0.2624248337 -0.4373747228 -0.0874749446
0.3498997782 -0.3498997782 -0.1749498891
0.4373747228 -0.2624248337 -0.2624248337
0.5248496673 -0.1749498891 -0.3498997782
0.6123246119 -0.0874749446 -0.4373747228
0.1749498891 -0.6997995564 0.1749498891
0.2624248337 -0.6123246119 0.0874749446
0.3498997782 -0.5248496673 0.0000000000
0.4373747228 -0.4373747228 -0.0874749446
0.5248496673 -0.3498997782 -0.1749498891
0.6123246119 -0.2624248337 -0.2624248337
0.6997995564 -0.1749498891 -0.3498997782
0.2624248337 -0.7872745010 0.2624248337
0.3498997782 -0.6997995564 0.1749498891
0.4373747228 -0.6123246119 0.0874749446
0.5248496673 -0.5248496673 0.0000000000
0.6123246119 -0.4373747228 -0.0874749446
0.6997995564 -0.3498997782 -0.1749498891
0.7872745010 -0.2624248337 -0.2624248337
-0.3498997782 -0.1749498891 -0.1749498891
-0.2624248337 -0.0874749446 -0.2624248337
-0.1749498891 -0.0000000000 -0.3498997782
-0.0874749446 0.0874749446 -0.4373747228
-0.0000000000 0.1749498891 -0.5248496673
0.0874749446 0.2624248337 -0.6123246119
0.1749498891 0.3498997782 -0.6997995564
-0.2624248337 -0.2624248337 -0.0874749446
-0.1749498891 -0.1749498891 -0.1749498891
-0.0874749446 -0.0874749446 -0.2624248337
-0.0000000000 -0.0000000000 -0.3498997782
0.0874749446 0.0874749446 -0.4373747228
0.1749498891 0.1749498891 -0.5248496673
0.2624248337 0.2624248337 -0.6123246119
-0.1749498891 -0.3498997782 0.0000000000
-0.0874749446 -0.2624248337 -0.0874749446
-0.0000000000 -0.1749498891 -0.1749498891
0.0874749446 -0.0874749446 -0.2624248337
0.1749498891 -0.0000000000 -0.3498997782
0.2624248337 0.0874749446 -0.4373747228
0.3498997782 0.1749498891 -0.5248496673
-0.0874749446 -0.4373747228 0.0874749446
-0.0000000000 -0.3498997782 0.0000000000
0.0874749446 -0.2624248337 -0.0874749446
0.1749498891 -0.1749498891 -0.1749498891
0.2624248337 -0.0874749446 -0.2624248337
0.3498997782 0.0000000000 -0.3498997782
0.4373747228 0.0874749446 -0.4373747228
-0.0000000000 -0.5248496673 0.1749498891
0.0874749446 -0.4373747228 0.0874749446
0.1749498891 -0.3498997782 0.0000000000
0.2624248337 -0.2624248337 -0.0874749446
0.3498997782 -0.1749498891 -0.1749498891
0.4373747228 -0.0874749446 -0.2624248337
0.5248496673 0.0000000000 -0.3498997782
0.0874749446 -0.6123246119 0.2624248337
0.1749498891 -0.5248496673 0.1749498891
0.2624248337 -0.4373747228 0.0874749446
0.3498997782 -0.3498997782 0.0000000000
0.4373747228 -0.2624248337 -0.0874749446
0.5248496673 -0.1749498891 -0.1749498891
0.6123246119 -0.0874749446 -0.2624248337
0.1749498891 -0.6997995564 0.3498997782
0.2624248337 -0.6123246119 0.2624248337
0.3498997782 -0.5248496673 0.1749498891
0.4373747228 -0.4373747228 0.0874749446
0.5248496673 -0.3498997782 0.0000000000
0.6123246119 -0.2624248337 -0.0874749446
0.6997995564 -0.1749498891 -0.1749498891
-0.4373747228 -0.0874749446 -0.0874749446
-0.3498997782 -0.0000000000 -0.1749498891
-0.2624248337 0.0874749446 -0.2624248337
-0.1749498891 0.1749498891 -0.3498997782
-0.0874749446 0.2624248337 -0.4373747228
-0.0000000000 0.3498997782 -0.5248496673
0.0874749446 0.4373747228 -0.6123246119
-0.3498997782 -0.1749498891 0.0000000000
-0.2624248337 -0.0874749446 -0.0874749446
-0.1749498891 -0.0000000000 -0.1749498891
-0.0874749446 0.0874749446 -0.2624248337
-0.0000000000 0.1749498891 -0.3498997782
0.0874749446 0.2624248337 -0.4373747228
0.1749498891 0.3498997782 -0.5248496673
-0.2624248337 -0.2624248337 0.0874749446
-0.1749498891 -0.1749498891 0.0000000000
-0.0874749446 -0.0874749446 -0.0874749446
-0.0000000000 -0.0000000000 -0.1749498891
0.0874749446 0.0874749446 -0.2624248337
0.1749498891 0.1749498891 -0.3498997782
0.2624248337 0.2624248337 -0.4373747228
-0.1749498891 -0.3498997782 0.1749498891
-0.0874749446 -0.2624248337 0.0874749446
-0.0000000000 -0.1749498891 0.0000000000
0.0874749446 -0.0874749446 -0.0874749446
0.1749498891 0.0000000000 -0.1749498891
0.2624248337 0.0874749446 -0.2624248337
0.3498997782 0.1749498891 -0.3498997782
-0.0874749446 -0.4373747228 0.2624248337
-0.0000000000 -0.3498997782 0.1749498891
0.0874749446 -0.2624248337 0.0874749446
0.1749498891 -0.1749498891 0.0000000000
0.2624248337 -0.0874749446 -0.0874749446
0.3498997782 0.0000000000 -0.1749498891
0.4373747228 0.0874749446 -0.2624248337
-0.0000000000 -0.5248496673 0.3498997782
0.0874749446 -0.4373747228 0.2624248337
0.1749498891 -0.3498997782 0.1749498891
0.2624248337 -0.2624248337 0.0874749446
0.3498997782 -0.1749498891 0.0000000000
0.4373747228 -0.0874749446 -0.0874749446
0.5248496673 0.0000000000 -0.1749498891
0.0874749446 -0.6123246119 0.4373747228
0.1749498891 -0.5248496673 0.3498997782
0.2624248337 -0.4373747228 0.2624248337
0.3498997782 -0.3498997782 0.1749498891
0.4373747228 -0.2624248337 0.0874749446
0.5248496673 -0.1749498891 0.0000000000
0.6123246119 -0.0874749446 -0.0874749446
-0.5248496673 -0.0000000000 -0.0000000000
-0.4373747228 0.0874749446 -0.0874749446
-0.3498997782 0.1749498891 -0.1749498891
-0.2624248337 0.2624248337 -0.2624248337
-0.1749498891 0.3498997782 -0.3498997782
-0.0874749446 0.4373747228 -0.4373747228
0.0000000000 0.5248496673 -0.5248496673
-0.4373747228 -0.0874749446 0.0874749446
-0.3498997782 -0.0000000000 -0.0000000000
-0.2624248337 0.0874749446 -0.0874749446
-0.1749498891 0.1749498891 -0.1749498891
-0.0874749446 0.2624248337 -0.2624248337
0.0000000000 0.3498997782 -0.3498997782
0.0874749446 0.4373747228 -0.4373747228
-0.3498997782 -0.1749498891 0.1749498891
-0.2624248337 -0.0874749446 0.0874749446
-0.1749498891 -0.0000000000 -0.0000000000
-0.0874749446 0.0874749446 -0.0874749446
0.0000000000 0.1749498891 -0.1749498891
0.0874749446 0.2624248337 -0.2624248337
0.1749498891 0.3498997782 -0.3498997782
-0.2624248337 -0.2624248337 0.2624248337
-0.1749498891 -0.1749498891 0.1749498891
-0.0874749446 -0.0874749446 0.0874749446
0.0000000000 0.0000000000 0.0000000000
0.0874749446 0.0874749446 -0.0874749446
0.1749498891 0.1749498891 -0.1749498891
0.2624248337 0.2624248337 -0.2624248337
-0.1749498891 -0.3498997782 0.3498997782
-0.0874749446 -0.2624248337 0.2624248337
-0.0000000000 -0.1749498891 0.1749498891
0.0874749446 -0.0874749446 0.0874749446
0.1749498891 0.0000000000 0.0000000000
0.2624248337 0.0874749446 -0.0874749446
0.3498997782 0.1749498891 -0.1749498891
-0.0874749446 -0.4373747228 0.4373747228
-0.0000000000 -0.3498997782 0.3498997782
0.0874749446 -0.2624248337 0.2624248337
0.1749498891 -0.1749498891 0.1749498891
0.2624248337 -0.0874749446 0.0874749446
0.3498997782 0.0000000000 0.0000000000
0.4373747228 0.0874749446 -0.0874749446
-0.0000000000 -0.5248496673 0.5248496673
0.0874749446 -0.4373747228 0.4373747228
0.1749498891 -0.3498997782 0.3498997782
0.2624248337 -0.2624248337 0.2624248337
0.3498997782 -0.1749498891 0.1749498891
0.4373747228 -0.0874749446 0.0874749446
0.5248496673 0.0000000000 0.0000000000
-0.6123246119 0.0874749446 0.0874749446
-0.5248496673 0.1749498891 -0.0000000000
-0.4373747228 0.2624248337 -0.0874749446
-0.3498997782 0.3498997782 -0.1749498891
-0.2624248337 0.4373747228 -0.2624248337
-0.1749498891 0.5248496673 -0.3498997782
-0.0874749446 0.6123246119 -0.4373747228
-0.5248496673 -0.0000000000 0.1749498891
-0.4373747228 0.0874749446 0.0874749446
-0.3498997782 0.1749498891 -0.0000000000
-0.2624248337 0.2624248337 -0.0874749446
-0.1749498891 0.3498997782 -0.1749498891
-0.0874749446 0.4373747228 -0.2624248337
0.0000000000 0.5248496673 -0.3498997782
-0.4373747228 -0.0874749446 0.2624248337
-0.3498997782 -0.0000000000 0.1749498891
-0.2624248337 0.0874749446 0.0874749446
-0.1749498891 0.1749498891 -0.0000000000
-0.0874749446 0.2624248337 -0.0874749446
0.0000000000 0.3498997782 -0.1749498891
0.0874749446 0.4373747228 -0.2624248337
-0.3498997782 -0.1749498891 0.3498997782
-0.2624248337 -0.0874749446 0.2624248337
-0.1749498891 0.0000000000 0.1749498891
-0.0874749446 0.0874749446 0.0874749446
0.0000000000 0.1749498891 0.0000000000
0.0874749446 0.2624248337 -0.0874749446
0.1749498891 0.3498997782 -0.1749498891
-0.2624248337 -0.2624248337 0.4373747228
-0.1749498891 -0.1749498891 0.3498997782
-0.0874749446 -0.0874749446 0.2624248337
0.0000000000 0.0000000000 0.1749498891
0.0874749446 0.0874749446 0.0874749446
0.1749498891 0.1749498891 0.0000000000
0.2624248337 0.2624248337 -0.0874749446
-0.1749498891 -0.3498997782 0.5248496673
-0.0874749446 -0.2624248337 0.4373747228
0.0000000000 -0.1749498891 0.3498997782
0.0874749446 -0.0874749446 0.2624248337
0.1749498891 0.0000000000 0.1749498891
0.2624248337 0.0874749446 0.0874749446
0.3498997782 0.1749498891 0.0000000000
-0.0874749446 -0.4373747228 0.6123246119
0.0000000000 -0.3498997782 0.5248496673
0.0874749446 -0.2624248337 0.4373747228
0.1749498891 -0.1749498891 0.3498997782
0.2624248337 -0.0874749446 0.2624248337
0.3498997782 0.0000000000 0.1749498891
0.4373747228 0.0874749446 0.0874749446
-0.6997995564 0.1749498891 0.1749498891
-0.6123246119 0.2624248337 0.0874749446
-0.5248496673 0.3498997782 -0.0000000000
-0.4373747228 0.4373747228 -0.0874749446
-0.3498997782 0.5248496673 -0.1749498891
-0.2624248337 0.6123246119 -0.2624248337
-0.1749498891 0.6997995564 -0.3498997782
-0.6123246119 0.0874749446 0.2624248337
-0.5248496673 0.1749498891 0.1749498891
-0.4373747228 0.2624248337 0.0874749446
-0.3498997782 0.3498997782 -0.0000000000
-0.2624248337 0.4373747228 -0.0874749446
-0.1749498891 0.5248496673 -0.1749498891
-0.0874749446 0.6123246119 -0.2624248337
-0.5248496673 -0.0000000000 0.3498997782
-0.4373747228 0.0874749446 0.2624248337
-0.3498997782 0.1749498891 0.1749498891
-0.2624248337 0.2624248337 0.0874749446
-0.1749498891 0.3498997782 -0.0000000000
-0.0874749446 0.4373747228 -0.0874749446
0.0000000000 0.5248496673 -0.1749498891
-0.4373747228 -0.0874749446 0.4373747228
-0.3498997782 0.0000000000 0.3498997782
-0.2624248337 0.0874749446 0.2624248337
-0.1749498891 0.1749498891 0.1749498891
-0.0874749446 0.2624248337 0.0874749446
0.0000000000 0.3498997782 0.0000000000
0.0874749446 0.4373747228 -0.0874749446
-0.3498997782 -0.1749498891 0.5248496673
-0.2624248337 -0.0874749446 0.4373747228
-0.1749498891 0.0000000000 0.3498997782
-0.0874749446 0.0874749446 0.2624248337
0.0000000000 0.1749498891 0.1749498891
0.0874749446 0.2624248337 0.0874749446
0.1749498891 0.3498997782 0.0000000000
-0.2624248337 -0.2624248337 0.6123246119
-0.1749498891 -0.1749498891 0.5248496673
-0.0874749446 -0.0874749446 0.4373747228
0.0000000000 0.0000000000 0.3498997782
0.0874749446 0.0874749446 0.2624248337
0.1749498891 0.1749498891 0.1749498891
0.2624248337 0.2624248337 0.0874749446
-0.1749498891 -0.3498997782 0.6997995564
-0.0874749446 -0.2624248337 0.6123246119
0.0000000000 -0.1749498891 0.5248496673
0.0874749446 -0.0874749446 0.4373747228
0.1749498891 0.0000000000 0.3498997782
0.2624248337 0.0874749446 0.2624248337
0.3498997782 0.1749498891 0.1749498891
-0.7872745010 0.2624248337 0.2624248337
-0.6997995564 0.3498997782 0.1749498891
-0.6123246119 0.4373747228 0.0874749446
-0.5248496673 0.5248496673 -0.0000000000
-0.4373747228 0.6123246119 -0.0874749446
-0.3498997782 0.6997995564 -0.1749498891
-0.2624248337 0.7872745010 -0.2624248337
-0.6997995564 0.1749498891 0.3498997782
-0.6123246119 0.2624248337 0.2624248337
-0.5248496673 0.3498997782 0.1749498891
-0.4373747228 0.4373747228 0.0874749446
-0.3498997782 0.5248496673 -0.0000000000
-0.2624248337 0.6123246119 -0.0874749446
-0.1749498891 0.6997995564 -0.1749498891
-0.6123246119 0.0874749446 0.4373747228
-0.5248496673 0.1749498891 0.3498997782
-0.4373747228 0.2624248337 0.2624248337
-0.3498997782 0.3498997782 0.1749498891
-0.2624248337 0.4373747228 0.0874749446
-0.1749498891 0.5248496673 0.0000000000
-0.0874749446 0.6123246119 -0.0874749446
-0.5248496673 0.0000000000 0.5248496673
-0.4373747228 0.0874749446 0.4373747228
-0.3498997782 0.1749498891 0.3498997782
-0.2624248337 0.2624248337 0.2624248337
-0.1749498891 0.3498997782 0.1749498891
-0.0874749446 0.4373747228 0.0874749446
0.0000000000 0.5248496673 0.0000000000
-0.4373747228 -0.0874749446 0.6123246119
-0.3498997782 0.0000000000 0.5248496673
-0.2624248337 0.0874749446 0.4373747228
-0.1749498891 0.1749498891 0.3498997782
-0.0874749446 0.2624248337 0.2624248337
0.0000000000 0.3498997782 0.1749498891
0.0874749446 0.4373747228 0.0874749446
-0.3498997782 -0.1749498891 0.6997995564
-0.2624248337 -0.0874749446 0.6123246119
-0.1749498891 0.0000000000 0.5248496673
-0.0874749446 0.0874749446 0.4373747228
0.0000000000 0.1749498891 0.3498997782
0.0874749446 0.2624248337 0.2624248337
0.1749498891 0.3498997782 0.1749498891
-0.2624248337 -0.2624248337 0.7872745010
-0.1749498891 -0.1749498891 0.6997995564
-0.0874749446 -0.0874749446 0.6123246119
0.0000000000 0.0000000000 0.5248496673
0.0874749446 0.0874749446 0.4373747228
0.1749498891 0.1749498891 0.3498997782
0.2624248337 0.2624248337 0.2624248337
 There are 14 alpha and 14 beta electrons
 Start computing overlap matrix
 Allocate 76414912 B from available memory: 1048575734752 B
 Time for computing overlap matrix: 3.6540000000 s
 ====== Initialize compute kernels for all-electron RI-J (kpts) ====== 
 ========================================================== 
 Range-separated parameter omega        = 0.599999999999999978
 Threshold for 1e2c shellpair           = 0.000000000000010000
 Threshold for 2e2c SR integral         = 0.000000000000000001
 Threshold for 2e3c SR integral         = 0.000000000100000000
 Threshold for AFT G-space screening is = 0.000000000001000000
 The exponent cutoff for C/D classification (omega2 / 2) is  = 0.179999999999999993
 ========================================================== 
 === Post process the basis set for RI calculation (exp_cutoff = 0.179999999999999993 ) === 
nshells_b1 before uncontraction = 28
nshells_b1 after uncontraction = 28
nshells_baux before uncontraction = 80
nshells_baux after uncontraction = 80
===============================================
nbsf total   = 118
nbsf compact = 92
nbsf diffuse = 26
naux total   = 296
naux compact = 296
naux diffuse = 0
nshells_bnuc = 2

 Number of unique atoms is 1
 Unique atom #0 (si) has 9 shells.

Shell 0 to 8 belongs to atom si
Shell 9 to 17 belongs to atom si

 Number of unique atoms is 1
 Unique atom #0 (si) has 5 shells.

Shell 0 to 4 belongs to atom si
Shell 5 to 9 belongs to atom si

 Number of unique atom is 1
 Unique atom #0 (si) has 40 auxiliary shells.

Auxiliary Shell 0 to 39 belongs to atom si
Auxiliary Shell 40 to 79 belongs to atom si

================= Automatically determine grid size for reciprocal space summation =================
 Range-separated parameter = 0.60000000000000 and G-space screening threshold = 0.00000000000100
The number of grid points along each axis dimension is (7, 7, 7)
Total number of grid points = 3375

Use nonortho shellpair for diffuse density
======== Initializing relevant kernel for RIJ (DD type) ========
There are 55 shellpairs in the reference unit cell
There are 3757 images and we expect to have 206635 in total
There are 11898 shellpairs in the lattice sum after screening
======== Initializing relevant kernel for RIJ (CD type) ========
There are 180 shellpairs in the reference unit cell
There are 2659 images and we expect to have 478620 in total
There are 19974 shellpairs in the lattice sum after screening
****** AFT -> SR ******
Maximum bra distance cutoff is 23.000000000000
Maximum bra ket distance cutoff is 24.132153614458
Maximum bra ket screening distance is 21.593750000000
Number of auxiliary image is 647
There are 180 shellpairs in the reference unit cell
There are 551 images and we expect to have 99180 in total
There are 19974 shellpairs in the lattice sum after screening
Available memory per thread for 2e3c calculation is 32.765603745000Gb
Finish initializing 2e3c SR with the lattice sum!
=================================================
======== Initializing relevant kernel for RIJ (CC type) ========
There are 171 shellpairs in the reference unit cell
There are 1241 images and we expect to have 212211 in total
There are 4082 shellpairs in the lattice sum after screening
****** AFT -> SR ******
Maximum bra distance cutoff is 15.000000000000
Maximum bra ket distance cutoff is 25.131175705795
Maximum bra ket screening distance is 21.156250000000
Number of auxiliary image is 647
There are 171 shellpairs in the reference unit cell
There are 237 images and we expect to have 40527 in total
There are 4082 shellpairs in the lattice sum after screening
Available memory per thread for 2e3c calculation is 32.765603745000Gb
Finish initializing 2e3c SR with the lattice sum!
=================================================
======== Initializing the SR component for Vnuc (CD type) ========
Maximum bra distance cutoff is 23.000000000000
Maximum bra ket distance cutoff is 16.737418337388
Maximum bra ket screening distance is 14.115333913559
Number of auxiliary image is 551
There are 180 shellpairs in the reference unit cell
There are 551 images and we expect to have 99180 in total
There are 19974 shellpairs in the lattice sum after screening
Available memory per thread for 2e3c calculation is 32.765603745000Gb
Finish initializing 2e3c SR with the lattice sum!
=================================================
======== Initialize the SR component for Vnuc (CC type) ========
Maximum bra distance cutoff is 15.000000000000
Maximum bra ket distance cutoff is 17.743801426189
Maximum bra ket screening distance is 13.222397966002
Number of auxiliary image is 285
There are 171 shellpairs in the reference unit cell
There are 237 images and we expect to have 40527 in total
There are 4082 shellpairs in the lattice sum after screening
Available memory per thread for 2e3c calculation is 32.765603745000Gb
Finish initializing 2e3c SR with the lattice sum!
=================================================
 Aufbau occupation scheme, occupation determined by eigenvalue
 == 0-th k-point nmo = 114 (-0.26242,-0.26242,-0.26242) ==
 == 1-th k-point nmo = 114 (-0.17495,-0.17495,-0.34990) ==
 == 2-th k-point nmo = 114 (-0.08747,-0.08747,-0.43737) ==
 == 3-th k-point nmo = 114 (-0.00000,-0.00000,-0.52485) ==
 == 4-th k-point nmo = 114 (0.08747,0.08747,-0.61232) ==
 == 5-th k-point nmo = 114 (0.17495,0.17495,-0.69980) ==
 == 6-th k-point nmo = 114 (0.26242,0.26242,-0.78727) ==
 == 7-th k-point nmo = 114 (-0.17495,-0.34990,-0.17495) ==
 == 8-th k-point nmo = 114 (-0.08747,-0.26242,-0.26242) ==
 == 9-th k-point nmo = 114 (-0.00000,-0.17495,-0.34990) ==
 == 10-th k-point nmo = 114 (0.08747,-0.08747,-0.43737) ==
 == 11-th k-point nmo = 114 (0.17495,-0.00000,-0.52485) ==
 == 12-th k-point nmo = 114 (0.26242,0.08747,-0.61232) ==
 == 13-th k-point nmo = 114 (0.34990,0.17495,-0.69980) ==
 == 14-th k-point nmo = 114 (-0.08747,-0.43737,-0.08747) ==
 == 15-th k-point nmo = 114 (-0.00000,-0.34990,-0.17495) ==
 == 16-th k-point nmo = 114 (0.08747,-0.26242,-0.26242) ==
 == 17-th k-point nmo = 114 (0.17495,-0.17495,-0.34990) ==
 == 18-th k-point nmo = 114 (0.26242,-0.08747,-0.43737) ==
 == 19-th k-point nmo = 114 (0.34990,-0.00000,-0.52485) ==
 == 20-th k-point nmo = 114 (0.43737,0.08747,-0.61232) ==
 == 21-th k-point nmo = 114 (-0.00000,-0.52485,0.00000) ==
 == 22-th k-point nmo = 114 (0.08747,-0.43737,-0.08747) ==
 == 23-th k-point nmo = 114 (0.17495,-0.34990,-0.17495) ==
 == 24-th k-point nmo = 114 (0.26242,-0.26242,-0.26242) ==
 == 25-th k-point nmo = 114 (0.34990,-0.17495,-0.34990) ==
 == 26-th k-point nmo = 114 (0.43737,-0.08747,-0.43737) ==
 == 27-th k-point nmo = 114 (0.52485,0.00000,-0.52485) ==
 == 28-th k-point nmo = 114 (0.08747,-0.61232,0.08747) ==
 == 29-th k-point nmo = 114 (0.17495,-0.52485,0.00000) ==
 == 30-th k-point nmo = 114 (0.26242,-0.43737,-0.08747) ==
 == 31-th k-point nmo = 114 (0.34990,-0.34990,-0.17495) ==
 == 32-th k-point nmo = 114 (0.43737,-0.26242,-0.26242) ==
 == 33-th k-point nmo = 114 (0.52485,-0.17495,-0.34990) ==
 == 34-th k-point nmo = 114 (0.61232,-0.08747,-0.43737) ==
 == 35-th k-point nmo = 114 (0.17495,-0.69980,0.17495) ==
 == 36-th k-point nmo = 114 (0.26242,-0.61232,0.08747) ==
 == 37-th k-point nmo = 114 (0.34990,-0.52485,0.00000) ==
 == 38-th k-point nmo = 114 (0.43737,-0.43737,-0.08747) ==
 == 39-th k-point nmo = 114 (0.52485,-0.34990,-0.17495) ==
 == 40-th k-point nmo = 114 (0.61232,-0.26242,-0.26242) ==
 == 41-th k-point nmo = 114 (0.69980,-0.17495,-0.34990) ==
 == 42-th k-point nmo = 114 (0.26242,-0.78727,0.26242) ==
 == 43-th k-point nmo = 114 (0.34990,-0.69980,0.17495) ==
 == 44-th k-point nmo = 114 (0.43737,-0.61232,0.08747) ==
 == 45-th k-point nmo = 114 (0.52485,-0.52485,0.00000) ==
 == 46-th k-point nmo = 114 (0.61232,-0.43737,-0.08747) ==
 == 47-th k-point nmo = 114 (0.69980,-0.34990,-0.17495) ==
 == 48-th k-point nmo = 114 (0.78727,-0.26242,-0.26242) ==
 == 49-th k-point nmo = 114 (-0.34990,-0.17495,-0.17495) ==
 == 50-th k-point nmo = 114 (-0.26242,-0.08747,-0.26242) ==
 == 51-th k-point nmo = 114 (-0.17495,-0.00000,-0.34990) ==
 == 52-th k-point nmo = 114 (-0.08747,0.08747,-0.43737) ==
 == 53-th k-point nmo = 114 (-0.00000,0.17495,-0.52485) ==
 == 54-th k-point nmo = 114 (0.08747,0.26242,-0.61232) ==
 == 55-th k-point nmo = 114 (0.17495,0.34990,-0.69980) ==
 == 56-th k-point nmo = 114 (-0.26242,-0.26242,-0.08747) ==
 == 57-th k-point nmo = 114 (-0.17495,-0.17495,-0.17495) ==
 == 58-th k-point nmo = 114 (-0.08747,-0.08747,-0.26242) ==
 == 59-th k-point nmo = 114 (-0.00000,-0.00000,-0.34990) ==
 == 60-th k-point nmo = 114 (0.08747,0.08747,-0.43737) ==
 == 61-th k-point nmo = 114 (0.17495,0.17495,-0.52485) ==
 == 62-th k-point nmo = 114 (0.26242,0.26242,-0.61232) ==
 == 63-th k-point nmo = 114 (-0.17495,-0.34990,0.00000) ==
 == 64-th k-point nmo = 114 (-0.08747,-0.26242,-0.08747) ==
 == 65-th k-point nmo = 115 (-0.00000,-0.17495,-0.17495) ==
 == 66-th k-point nmo = 114 (0.08747,-0.08747,-0.26242) ==
 == 67-th k-point nmo = 114 (0.17495,-0.00000,-0.34990) ==
 == 68-th k-point nmo = 114 (0.26242,0.08747,-0.43737) ==
 == 69-th k-point nmo = 114 (0.34990,0.17495,-0.52485) ==
 == 70-th k-point nmo = 114 (-0.08747,-0.43737,0.08747) ==
 == 71-th k-point nmo = 114 (-0.00000,-0.34990,0.00000) ==
 == 72-th k-point nmo = 114 (0.08747,-0.26242,-0.08747) ==
 == 73-th k-point nmo = 114 (0.17495,-0.17495,-0.17495) ==
 == 74-th k-point nmo = 114 (0.26242,-0.08747,-0.26242) ==
 == 75-th k-point nmo = 114 (0.34990,0.00000,-0.34990) ==
 == 76-th k-point nmo = 114 (0.43737,0.08747,-0.43737) ==
 == 77-th k-point nmo = 114 (-0.00000,-0.52485,0.17495) ==
 == 78-th k-point nmo = 114 (0.08747,-0.43737,0.08747) ==
 == 79-th k-point nmo = 114 (0.17495,-0.34990,0.00000) ==
 == 80-th k-point nmo = 114 (0.26242,-0.26242,-0.08747) ==
 == 81-th k-point nmo = 114 (0.34990,-0.17495,-0.17495) ==
 == 82-th k-point nmo = 114 (0.43737,-0.08747,-0.26242) ==
 == 83-th k-point nmo = 114 (0.52485,0.00000,-0.34990) ==
 == 84-th k-point nmo = 114 (0.08747,-0.61232,0.26242) ==
 == 85-th k-point nmo = 114 (0.17495,-0.52485,0.17495) ==
 == 86-th k-point nmo = 114 (0.26242,-0.43737,0.08747) ==
 == 87-th k-point nmo = 114 (0.34990,-0.34990,0.00000) ==
 == 88-th k-point nmo = 114 (0.43737,-0.26242,-0.08747) ==
 == 89-th k-point nmo = 114 (0.52485,-0.17495,-0.17495) ==
 == 90-th k-point nmo = 114 (0.61232,-0.08747,-0.26242) ==
 == 91-th k-point nmo = 114 (0.17495,-0.69980,0.34990) ==
 == 92-th k-point nmo = 114 (0.26242,-0.61232,0.26242) ==
 == 93-th k-point nmo = 114 (0.34990,-0.52485,0.17495) ==
 == 94-th k-point nmo = 114 (0.43737,-0.43737,0.08747) ==
 == 95-th k-point nmo = 114 (0.52485,-0.34990,0.00000) ==
 == 96-th k-point nmo = 114 (0.61232,-0.26242,-0.08747) ==
 == 97-th k-point nmo = 114 (0.69980,-0.17495,-0.17495) ==
 == 98-th k-point nmo = 114 (-0.43737,-0.08747,-0.08747) ==
 == 99-th k-point nmo = 114 (-0.34990,-0.00000,-0.17495) ==
 == 100-th k-point nmo = 114 (-0.26242,0.08747,-0.26242) ==
 == 101-th k-point nmo = 114 (-0.17495,0.17495,-0.34990) ==
 == 102-th k-point nmo = 114 (-0.08747,0.26242,-0.43737) ==
 == 103-th k-point nmo = 114 (-0.00000,0.34990,-0.52485) ==
 == 104-th k-point nmo = 114 (0.08747,0.43737,-0.61232) ==
 == 105-th k-point nmo = 114 (-0.34990,-0.17495,0.00000) ==
 == 106-th k-point nmo = 114 (-0.26242,-0.08747,-0.08747) ==
 == 107-th k-point nmo = 115 (-0.17495,-0.00000,-0.17495) ==
 == 108-th k-point nmo = 114 (-0.08747,0.08747,-0.26242) ==
 == 109-th k-point nmo = 114 (-0.00000,0.17495,-0.34990) ==
 == 110-th k-point nmo = 114 (0.08747,0.26242,-0.43737) ==
 == 111-th k-point nmo = 114 (0.17495,0.34990,-0.52485) ==
 == 112-th k-point nmo = 114 (-0.26242,-0.26242,0.08747) ==
 == 113-th k-point nmo = 115 (-0.17495,-0.17495,0.00000) ==
 == 114-th k-point nmo = 115 (-0.08747,-0.08747,-0.08747) ==
 == 115-th k-point nmo = 115 (-0.00000,-0.00000,-0.17495) ==
 == 116-th k-point nmo = 114 (0.08747,0.08747,-0.26242) ==
 == 117-th k-point nmo = 114 (0.17495,0.17495,-0.34990) ==
 == 118-th k-point nmo = 114 (0.26242,0.26242,-0.43737) ==
 == 119-th k-point nmo = 114 (-0.17495,-0.34990,0.17495) ==
 == 120-th k-point nmo = 114 (-0.08747,-0.26242,0.08747) ==
 == 121-th k-point nmo = 115 (-0.00000,-0.17495,0.00000) ==
 == 122-th k-point nmo = 115 (0.08747,-0.08747,-0.08747) ==
 == 123-th k-point nmo = 115 (0.17495,0.00000,-0.17495) ==
 == 124-th k-point nmo = 114 (0.26242,0.08747,-0.26242) ==
 == 125-th k-point nmo = 114 (0.34990,0.17495,-0.34990) ==
 == 126-th k-point nmo = 114 (-0.08747,-0.43737,0.26242) ==
 == 127-th k-point nmo = 114 (-0.00000,-0.34990,0.17495) ==
 == 128-th k-point nmo = 114 (0.08747,-0.26242,0.08747) ==
 == 129-th k-point nmo = 115 (0.17495,-0.17495,0.00000) ==
 == 130-th k-point nmo = 114 (0.26242,-0.08747,-0.08747) ==
 == 131-th k-point nmo = 114 (0.34990,0.00000,-0.17495) ==
 == 132-th k-point nmo = 114 (0.43737,0.08747,-0.26242) ==
 == 133-th k-point nmo = 114 (-0.00000,-0.52485,0.34990) ==
 == 134-th k-point nmo = 114 (0.08747,-0.43737,0.26242) ==
 == 135-th k-point nmo = 114 (0.17495,-0.34990,0.17495) ==
 == 136-th k-point nmo = 114 (0.26242,-0.26242,0.08747) ==
 == 137-th k-point nmo = 114 (0.34990,-0.17495,0.00000) ==
 == 138-th k-point nmo = 114 (0.43737,-0.08747,-0.08747) ==
 == 139-th k-point nmo = 114 (0.52485,0.00000,-0.17495) ==
 == 140-th k-point nmo = 114 (0.08747,-0.61232,0.43737) ==
 == 141-th k-point nmo = 114 (0.17495,-0.52485,0.34990) ==
 == 142-th k-point nmo = 114 (0.26242,-0.43737,0.26242) ==
 == 143-th k-point nmo = 114 (0.34990,-0.34990,0.17495) ==
 == 144-th k-point nmo = 114 (0.43737,-0.26242,0.08747) ==
 == 145-th k-point nmo = 114 (0.52485,-0.17495,0.00000) ==
 == 146-th k-point nmo = 114 (0.61232,-0.08747,-0.08747) ==
 == 147-th k-point nmo = 114 (-0.52485,-0.00000,-0.00000) ==
 == 148-th k-point nmo = 114 (-0.43737,0.08747,-0.08747) ==
 == 149-th k-point nmo = 114 (-0.34990,0.17495,-0.17495) ==
 == 150-th k-point nmo = 114 (-0.26242,0.26242,-0.26242) ==
 == 151-th k-point nmo = 114 (-0.17495,0.34990,-0.34990) ==
 == 152-th k-point nmo = 114 (-0.08747,0.43737,-0.43737) ==
 == 153-th k-point nmo = 114 (0.00000,0.52485,-0.52485) ==
 == 154-th k-point nmo = 114 (-0.43737,-0.08747,0.08747) ==
 == 155-th k-point nmo = 114 (-0.34990,-0.00000,-0.00000) ==
 == 156-th k-point nmo = 114 (-0.26242,0.08747,-0.08747) ==
 == 157-th k-point nmo = 114 (-0.17495,0.17495,-0.17495) ==
 == 158-th k-point nmo = 114 (-0.08747,0.26242,-0.26242) ==
 == 159-th k-point nmo = 114 (0.00000,0.34990,-0.34990) ==
 == 160-th k-point nmo = 114 (0.08747,0.43737,-0.43737) ==
 == 161-th k-point nmo = 114 (-0.34990,-0.17495,0.17495) ==
 == 162-th k-point nmo = 114 (-0.26242,-0.08747,0.08747) ==
 == 163-th k-point nmo = 115 (-0.17495,-0.00000,-0.00000) ==
 == 164-th k-point nmo = 115 (-0.08747,0.08747,-0.08747) ==
 == 165-th k-point nmo = 115 (0.00000,0.17495,-0.17495) ==
 == 166-th k-point nmo = 114 (0.08747,0.26242,-0.26242) ==
 == 167-th k-point nmo = 114 (0.17495,0.34990,-0.34990) ==
 == 168-th k-point nmo = 114 (-0.26242,-0.26242,0.26242) ==
 == 169-th k-point nmo = 114 (-0.17495,-0.17495,0.17495) ==
 == 170-th k-point nmo = 115 (-0.08747,-0.08747,0.08747) ==
 == 171-th k-point nmo = 115 (0.00000,0.00000,0.00000) ==
 == 172-th k-point nmo = 115 (0.08747,0.08747,-0.08747) ==
 == 173-th k-point nmo = 114 (0.17495,0.17495,-0.17495) ==
 == 174-th k-point nmo = 114 (0.26242,0.26242,-0.26242) ==
 == 175-th k-point nmo = 114 (-0.17495,-0.34990,0.34990) ==
 == 176-th k-point nmo = 114 (-0.08747,-0.26242,0.26242) ==
 == 177-th k-point nmo = 115 (-0.00000,-0.17495,0.17495) ==
 == 178-th k-point nmo = 115 (0.08747,-0.08747,0.08747) ==
 == 179-th k-point nmo = 115 (0.17495,0.00000,0.00000) ==
 == 180-th k-point nmo = 114 (0.26242,0.08747,-0.08747) ==
 == 181-th k-point nmo = 114 (0.34990,0.17495,-0.17495) ==
 == 182-th k-point nmo = 114 (-0.08747,-0.43737,0.43737) ==
 == 183-th k-point nmo = 114 (-0.00000,-0.34990,0.34990) ==
 == 184-th k-point nmo = 114 (0.08747,-0.26242,0.26242) ==
 == 185-th k-point nmo = 114 (0.17495,-0.17495,0.17495) ==
 == 186-th k-point nmo = 114 (0.26242,-0.08747,0.08747) ==
 == 187-th k-point nmo = 114 (0.34990,0.00000,0.00000) ==
 == 188-th k-point nmo = 114 (0.43737,0.08747,-0.08747) ==
 == 189-th k-point nmo = 114 (-0.00000,-0.52485,0.52485) ==
 == 190-th k-point nmo = 114 (0.08747,-0.43737,0.43737) ==
 == 191-th k-point nmo = 114 (0.17495,-0.34990,0.34990) ==
 == 192-th k-point nmo = 114 (0.26242,-0.26242,0.26242) ==
 == 193-th k-point nmo = 114 (0.34990,-0.17495,0.17495) ==
 == 194-th k-point nmo = 114 (0.43737,-0.08747,0.08747) ==
 == 195-th k-point nmo = 114 (0.52485,0.00000,0.00000) ==
 == 196-th k-point nmo = 114 (-0.61232,0.08747,0.08747) ==
 == 197-th k-point nmo = 114 (-0.52485,0.17495,-0.00000) ==
 == 198-th k-point nmo = 114 (-0.43737,0.26242,-0.08747) ==
 == 199-th k-point nmo = 114 (-0.34990,0.34990,-0.17495) ==
 == 200-th k-point nmo = 114 (-0.26242,0.43737,-0.26242) ==
 == 201-th k-point nmo = 114 (-0.17495,0.52485,-0.34990) ==
 == 202-th k-point nmo = 114 (-0.08747,0.61232,-0.43737) ==
 == 203-th k-point nmo = 114 (-0.52485,-0.00000,0.17495) ==
 == 204-th k-point nmo = 114 (-0.43737,0.08747,0.08747) ==
 == 205-th k-point nmo = 114 (-0.34990,0.17495,-0.00000) ==
 == 206-th k-point nmo = 114 (-0.26242,0.26242,-0.08747) ==
 == 207-th k-point nmo = 114 (-0.17495,0.34990,-0.17495) ==
 == 208-th k-point nmo = 114 (-0.08747,0.43737,-0.26242) ==
 == 209-th k-point nmo = 114 (0.00000,0.52485,-0.34990) ==
 == 210-th k-point nmo = 114 (-0.43737,-0.08747,0.26242) ==
 == 211-th k-point nmo = 114 (-0.34990,-0.00000,0.17495) ==
 == 212-th k-point nmo = 114 (-0.26242,0.08747,0.08747) ==
 == 213-th k-point nmo = 115 (-0.17495,0.17495,-0.00000) ==
 == 214-th k-point nmo = 114 (-0.08747,0.26242,-0.08747) ==
 == 215-th k-point nmo = 114 (0.00000,0.34990,-0.17495) ==
 == 216-th k-point nmo = 114 (0.08747,0.43737,-0.26242) ==
 == 217-th k-point nmo = 114 (-0.34990,-0.17495,0.34990) ==
 == 218-th k-point nmo = 114 (-0.26242,-0.08747,0.26242) ==
 == 219-th k-point nmo = 115 (-0.17495,0.00000,0.17495) ==
 == 220-th k-point nmo = 115 (-0.08747,0.08747,0.08747) ==
 == 221-th k-point nmo = 115 (0.00000,0.17495,0.00000) ==
 == 222-th k-point nmo = 114 (0.08747,0.26242,-0.08747) ==
 == 223-th k-point nmo = 114 (0.17495,0.34990,-0.17495) ==
 == 224-th k-point nmo = 114 (-0.26242,-0.26242,0.43737) ==
 == 225-th k-point nmo = 114 (-0.17495,-0.17495,0.34990) ==
 == 226-th k-point nmo = 114 (-0.08747,-0.08747,0.26242) ==
 == 227-th k-point nmo = 115 (0.00000,0.00000,0.17495) ==
 == 228-th k-point nmo = 115 (0.08747,0.08747,0.08747) ==
 == 229-th k-point nmo = 115 (0.17495,0.17495,0.00000) ==
 == 230-th k-point nmo = 114 (0.26242,0.26242,-0.08747) ==
 == 231-th k-point nmo = 114 (-0.17495,-0.34990,0.52485) ==
 == 232-th k-point nmo = 114 (-0.08747,-0.26242,0.43737) ==
 == 233-th k-point nmo = 114 (0.00000,-0.17495,0.34990) ==
 == 234-th k-point nmo = 114 (0.08747,-0.08747,0.26242) ==
 == 235-th k-point nmo = 115 (0.17495,0.00000,0.17495) ==
 == 236-th k-point nmo = 114 (0.26242,0.08747,0.08747) ==
 == 237-th k-point nmo = 114 (0.34990,0.17495,0.00000) ==
 == 238-th k-point nmo = 114 (-0.08747,-0.43737,0.61232) ==
 == 239-th k-point nmo = 114 (0.00000,-0.34990,0.52485) ==
 == 240-th k-point nmo = 114 (0.08747,-0.26242,0.43737) ==
 == 241-th k-point nmo = 114 (0.17495,-0.17495,0.34990) ==
 == 242-th k-point nmo = 114 (0.26242,-0.08747,0.26242) ==
 == 243-th k-point nmo = 114 (0.34990,0.00000,0.17495) ==
 == 244-th k-point nmo = 114 (0.43737,0.08747,0.08747) ==
 == 245-th k-point nmo = 114 (-0.69980,0.17495,0.17495) ==
 == 246-th k-point nmo = 114 (-0.61232,0.26242,0.08747) ==
 == 247-th k-point nmo = 114 (-0.52485,0.34990,-0.00000) ==
 == 248-th k-point nmo = 114 (-0.43737,0.43737,-0.08747) ==
 == 249-th k-point nmo = 114 (-0.34990,0.52485,-0.17495) ==
 == 250-th k-point nmo = 114 (-0.26242,0.61232,-0.26242) ==
 == 251-th k-point nmo = 114 (-0.17495,0.69980,-0.34990) ==
 == 252-th k-point nmo = 114 (-0.61232,0.08747,0.26242) ==
 == 253-th k-point nmo = 114 (-0.52485,0.17495,0.17495) ==
 == 254-th k-point nmo = 114 (-0.43737,0.26242,0.08747) ==
 == 255-th k-point nmo = 114 (-0.34990,0.34990,-0.00000) ==
 == 256-th k-point nmo = 114 (-0.26242,0.43737,-0.08747) ==
 == 257-th k-point nmo = 114 (-0.17495,0.52485,-0.17495) ==
 == 258-th k-point nmo = 114 (-0.08747,0.61232,-0.26242) ==
 == 259-th k-point nmo = 114 (-0.52485,-0.00000,0.34990) ==
 == 260-th k-point nmo = 114 (-0.43737,0.08747,0.26242) ==
 == 261-th k-point nmo = 114 (-0.34990,0.17495,0.17495) ==
 == 262-th k-point nmo = 114 (-0.26242,0.26242,0.08747) ==
 == 263-th k-point nmo = 114 (-0.17495,0.34990,-0.00000) ==
 == 264-th k-point nmo = 114 (-0.08747,0.43737,-0.08747) ==
 == 265-th k-point nmo = 114 (0.00000,0.52485,-0.17495) ==
 == 266-th k-point nmo = 114 (-0.43737,-0.08747,0.43737) ==
 == 267-th k-point nmo = 114 (-0.34990,0.00000,0.34990) ==
 == 268-th k-point nmo = 114 (-0.26242,0.08747,0.26242) ==
 == 269-th k-point nmo = 114 (-0.17495,0.17495,0.17495) ==
 == 270-th k-point nmo = 114 (-0.08747,0.26242,0.08747) ==
 == 271-th k-point nmo = 114 (0.00000,0.34990,0.00000) ==
 == 272-th k-point nmo = 114 (0.08747,0.43737,-0.08747) ==
 == 273-th k-point nmo = 114 (-0.34990,-0.17495,0.52485) ==
 == 274-th k-point nmo = 114 (-0.26242,-0.08747,0.43737) ==
 == 275-th k-point nmo = 114 (-0.17495,0.00000,0.34990) ==
 == 276-th k-point nmo = 114 (-0.08747,0.08747,0.26242) ==
 == 277-th k-point nmo = 115 (0.00000,0.17495,0.17495) ==
 == 278-th k-point nmo = 114 (0.08747,0.26242,0.08747) ==
 == 279-th k-point nmo = 114 (0.17495,0.34990,0.00000) ==
 == 280-th k-point nmo = 114 (-0.26242,-0.26242,0.61232) ==
 == 281-th k-point nmo = 114 (-0.17495,-0.17495,0.52485) ==
 == 282-th k-point nmo = 114 (-0.08747,-0.08747,0.43737) ==
 == 283-th k-point nmo = 114 (0.00000,0.00000,0.34990) ==
 == 284-th k-point nmo = 114 (0.08747,0.08747,0.26242) ==
 == 285-th k-point nmo = 114 (0.17495,0.17495,0.17495) ==
 == 286-th k-point nmo = 114 (0.26242,0.26242,0.08747) ==
 == 287-th k-point nmo = 114 (-0.17495,-0.34990,0.69980) ==
 == 288-th k-point nmo = 114 (-0.08747,-0.26242,0.61232) ==
 == 289-th k-point nmo = 114 (0.00000,-0.17495,0.52485) ==
 == 290-th k-point nmo = 114 (0.08747,-0.08747,0.43737) ==
 == 291-th k-point nmo = 114 (0.17495,0.00000,0.34990) ==
 == 292-th k-point nmo = 114 (0.26242,0.08747,0.26242) ==
 == 293-th k-point nmo = 114 (0.34990,0.17495,0.17495) ==
 == 294-th k-point nmo = 114 (-0.78727,0.26242,0.26242) ==
 == 295-th k-point nmo = 114 (-0.69980,0.34990,0.17495) ==
 == 296-th k-point nmo = 114 (-0.61232,0.43737,0.08747) ==
 == 297-th k-point nmo = 114 (-0.52485,0.52485,-0.00000) ==
 == 298-th k-point nmo = 114 (-0.43737,0.61232,-0.08747) ==
 == 299-th k-point nmo = 114 (-0.34990,0.69980,-0.17495) ==
 == 300-th k-point nmo = 114 (-0.26242,0.78727,-0.26242) ==
 == 301-th k-point nmo = 114 (-0.69980,0.17495,0.34990) ==
 == 302-th k-point nmo = 114 (-0.61232,0.26242,0.26242) ==
 == 303-th k-point nmo = 114 (-0.52485,0.34990,0.17495) ==
 == 304-th k-point nmo = 114 (-0.43737,0.43737,0.08747) ==
 == 305-th k-point nmo = 114 (-0.34990,0.52485,-0.00000) ==
 == 306-th k-point nmo = 114 (-0.26242,0.61232,-0.08747) ==
 == 307-th k-point nmo = 114 (-0.17495,0.69980,-0.17495) ==
 == 308-th k-point nmo = 114 (-0.61232,0.08747,0.43737) ==
 == 309-th k-point nmo = 114 (-0.52485,0.17495,0.34990) ==
 == 310-th k-point nmo = 114 (-0.43737,0.26242,0.26242) ==
 == 311-th k-point nmo = 114 (-0.34990,0.34990,0.17495) ==
 == 312-th k-point nmo = 114 (-0.26242,0.43737,0.08747) ==
 == 313-th k-point nmo = 114 (-0.17495,0.52485,0.00000) ==
 == 314-th k-point nmo = 114 (-0.08747,0.61232,-0.08747) ==
 == 315-th k-point nmo = 114 (-0.52485,0.00000,0.52485) ==
 == 316-th k-point nmo = 114 (-0.43737,0.08747,0.43737) ==
 == 317-th k-point nmo = 114 (-0.34990,0.17495,0.34990) ==
 == 318-th k-point nmo = 114 (-0.26242,0.26242,0.26242) ==
 == 319-th k-point nmo = 114 (-0.17495,0.34990,0.17495) ==
 == 320-th k-point nmo = 114 (-0.08747,0.43737,0.08747) ==
 == 321-th k-point nmo = 114 (0.00000,0.52485,0.00000) ==
 == 322-th k-point nmo = 114 (-0.43737,-0.08747,0.61232) ==
 == 323-th k-point nmo = 114 (-0.34990,0.00000,0.52485) ==
 == 324-th k-point nmo = 114 (-0.26242,0.08747,0.43737) ==
 == 325-th k-point nmo = 114 (-0.17495,0.17495,0.34990) ==
 == 326-th k-point nmo = 114 (-0.08747,0.26242,0.26242) ==
 == 327-th k-point nmo = 114 (0.00000,0.34990,0.17495) ==
 == 328-th k-point nmo = 114 (0.08747,0.43737,0.08747) ==
 == 329-th k-point nmo = 114 (-0.34990,-0.17495,0.69980) ==
 == 330-th k-point nmo = 114 (-0.26242,-0.08747,0.61232) ==
 == 331-th k-point nmo = 114 (-0.17495,0.00000,0.52485) ==
 == 332-th k-point nmo = 114 (-0.08747,0.08747,0.43737) ==
 == 333-th k-point nmo = 114 (0.00000,0.17495,0.34990) ==
 == 334-th k-point nmo = 114 (0.08747,0.26242,0.26242) ==
 == 335-th k-point nmo = 114 (0.17495,0.34990,0.17495) ==
 == 336-th k-point nmo = 114 (-0.26242,-0.26242,0.78727) ==
 == 337-th k-point nmo = 114 (-0.17495,-0.17495,0.69980) ==
 == 338-th k-point nmo = 114 (-0.08747,-0.08747,0.61232) ==
 == 339-th k-point nmo = 114 (0.00000,0.00000,0.52485) ==
 == 340-th k-point nmo = 114 (0.08747,0.08747,0.43737) ==
 == 341-th k-point nmo = 114 (0.17495,0.17495,0.34990) ==
 == 342-th k-point nmo = 114 (0.26242,0.26242,0.26242) ==

 Generate autoSAD guess
backing up fragment data
Atom # 0: si, charge: 0, multiplicity: 3.000000
writing autosad to fragment context
Settings for isolated fragments: 
  frgm_gamma: TRUE
  frgm_center: FALSE

    Running SCF for isolated atom #0
    Fragment Input file: /n/netscratch/joonholee_lab/Lab/hieudinh//si_2_ccpvqz_omega_0.6_777.scratch20250909032717/autosad_frgmt_0/frgmt_input.in
    Fragment Output file: /n/netscratch/joonholee_lab/Lab/hieudinh//si_2_ccpvqz_omega_0.6_777.scratch20250909032717/autosad_frgmt_0/frgmt_job.out
    Fragment job begins at Tue Sep  9 03:27:25 2025

 Integrated density by DFT XC:
   Numerical integral  =    13.999999643759
   Relative error      =     0.0000025446 %
Final energy components:
 DFT Correlation            Energy =  -0.48370207231611
 DFT Exchange               Energy = -20.13940840112220
 Kinetic (alpha)            Energy = 145.05483363964768
 Kinetic (beta)             Energy = 143.11842945473299
 Nuclear Attraction (alpha) Energy = -351.06191315317909
 Nuclear Attraction (beta)  Energy = -337.54515075030457
 Nuclear Repulsion          Energy =   0.00000000000000
 SEOQF                      Energy =  -0.00000000010144
 Total Coulomb              Energy = 131.82731983024499
----------------------------------------------
    SCF Energy: -289.2295914524
   Total fragment job time:  0.53 s.
restoring fragment data

 ------------------------------------------------------------------------
 Allocate 238016144 B from available memory: 1048499319840 B
 Time for generating SCF guess: 0.62 s

 Allocate 97424 B from available memory: 1048261303712 B
 Selected algorithms for each term:
  kpts_kinetic -> @0x14a32a7dd680
  kpts_nn -> @0x14a32a7dd800
  kpts_rij_bigmem -> @0x14a32a7dd3e0
  kpts_vnuc_df -> @0x14a32a7dd380
  kpts_xc -> @0x14a32a7dd2c0
 Time for computing kinetic matrix is 3.33 s
Start calculating Vnuc DD type!
Start calculating Vnuc CD type!
Start calculating Vnuc CC type!
 Time for computing nuclear attraction matrix is 8.42 s
Compute (P|Q) and use solve on the fly!
Maximum distance between P and Q is 29.79462221820766
Number of images for (P|Qn) is 911
 Time for computing 2e2c SR integral is 0.13 s
Maximum dynamic memory per thread for 2e3c SR integrals: 0.122 GiB
Batch size for basis function pair is 2392 out of 2392
 === bvk cell = 0 has 100.000 % of the basis function pairs === 
 === bvk cell = 1 has 100.000 % of the basis function pairs === 
 === bvk cell = 2 has 83.403 % of the basis function pairs === 
 === bvk cell = 3 has 22.032 % of the basis function pairs === 
 === bvk cell = 4 has 22.032 % of the basis function pairs === 
 === bvk cell = 5 has 83.403 % of the basis function pairs === 
 === bvk cell = 6 has 100.000 % of the basis function pairs === 
 === bvk cell = 7 has 100.000 % of the basis function pairs === 
 === bvk cell = 8 has 90.552 % of the basis function pairs === 
 === bvk cell = 9 has 40.008 % of the basis function pairs === 
 === bvk cell = 10 has 8.278 % of the basis function pairs === 
 === bvk cell = 11 has 37.207 % of the basis function pairs === 
 === bvk cell = 12 has 97.617 % of the basis function pairs === 
 === bvk cell = 13 has 100.000 % of the basis function pairs === 
 === bvk cell = 14 has 83.403 % of the basis function pairs === 
 === bvk cell = 15 has 40.008 % of the basis function pairs === 
 === bvk cell = 16 has 7.692 % of the basis function pairs === 
 === bvk cell = 17 has 2.007 % of the basis function pairs === 
 === bvk cell = 18 has 32.232 % of the basis function pairs === 
 === bvk cell = 19 has 94.482 % of the basis function pairs === 
 === bvk cell = 20 has 97.617 % of the basis function pairs === 
 === bvk cell = 21 has 22.032 % of the basis function pairs === 
 === bvk cell = 22 has 8.278 % of the basis function pairs === 
 === bvk cell = 23 has 2.007 % of the basis function pairs === 
 === bvk cell = 24 has 0.000 % of the basis function pairs === 
 === bvk cell = 25 has 25.418 % of the basis function pairs === 
 === bvk cell = 26 has 32.232 % of the basis function pairs === 
 === bvk cell = 27 has 37.207 % of the basis function pairs === 
 === bvk cell = 28 has 22.032 % of the basis function pairs === 
 === bvk cell = 29 has 37.207 % of the basis function pairs === 
 === bvk cell = 30 has 32.232 % of the basis function pairs === 
 === bvk cell = 31 has 25.418 % of the basis function pairs === 
 === bvk cell = 32 has 0.000 % of the basis function pairs === 
 === bvk cell = 33 has 2.007 % of the basis function pairs === 
 === bvk cell = 34 has 8.278 % of the basis function pairs === 
 === bvk cell = 35 has 83.403 % of the basis function pairs === 
 === bvk cell = 36 has 97.617 % of the basis function pairs === 
 === bvk cell = 37 has 94.482 % of the basis function pairs === 
 === bvk cell = 38 has 32.232 % of the basis function pairs === 
 === bvk cell = 39 has 2.007 % of the basis function pairs === 
 === bvk cell = 40 has 7.692 % of the basis function pairs === 
 === bvk cell = 41 has 40.008 % of the basis function pairs === 
 === bvk cell = 42 has 100.000 % of the basis function pairs === 
 === bvk cell = 43 has 100.000 % of the basis function pairs === 
 === bvk cell = 44 has 97.617 % of the basis function pairs === 
 === bvk cell = 45 has 37.207 % of the basis function pairs === 
 === bvk cell = 46 has 8.278 % of the basis function pairs === 
 === bvk cell = 47 has 40.008 % of the basis function pairs === 
 === bvk cell = 48 has 90.552 % of the basis function pairs === 
 === bvk cell = 49 has 100.000 % of the basis function pairs === 
 === bvk cell = 50 has 90.552 % of the basis function pairs === 
 === bvk cell = 51 has 40.008 % of the basis function pairs === 
 === bvk cell = 52 has 8.278 % of the basis function pairs === 
 === bvk cell = 53 has 37.207 % of the basis function pairs === 
 === bvk cell = 54 has 97.617 % of the basis function pairs === 
 === bvk cell = 55 has 100.000 % of the basis function pairs === 
 === bvk cell = 56 has 90.552 % of the basis function pairs === 
 === bvk cell = 57 has 51.672 % of the basis function pairs === 
 === bvk cell = 58 has 7.692 % of the basis function pairs === 
 === bvk cell = 59 has 6.271 % of the basis function pairs === 
 === bvk cell = 60 has 43.645 % of the basis function pairs === 
 === bvk cell = 61 has 100.000 % of the basis function pairs === 
 === bvk cell = 62 has 100.000 % of the basis function pairs === 
 === bvk cell = 63 has 40.008 % of the basis function pairs === 
 === bvk cell = 64 has 7.692 % of the basis function pairs === 
 === bvk cell = 65 has 0.000 % of the basis function pairs === 
 === bvk cell = 66 has 2.007 % of the basis function pairs === 
 === bvk cell = 67 has 30.769 % of the basis function pairs === 
 === bvk cell = 68 has 67.642 % of the basis function pairs === 
 === bvk cell = 69 has 68.562 % of the basis function pairs === 
 === bvk cell = 70 has 8.278 % of the basis function pairs === 
 === bvk cell = 71 has 6.271 % of the basis function pairs === 
 === bvk cell = 72 has 2.007 % of the basis function pairs === 
 === bvk cell = 73 has 0.000 % of the basis function pairs === 
 === bvk cell = 74 has 17.809 % of the basis function pairs === 
 === bvk cell = 75 has 20.569 % of the basis function pairs === 
 === bvk cell = 76 has 19.231 % of the basis function pairs === 
 === bvk cell = 77 has 37.207 % of the basis function pairs === 
 === bvk cell = 78 has 43.645 % of the basis function pairs === 
 === bvk cell = 79 has 30.769 % of the basis function pairs === 
 === bvk cell = 80 has 17.809 % of the basis function pairs === 
 === bvk cell = 81 has 0.000 % of the basis function pairs === 
 === bvk cell = 82 has 0.000 % of the basis function pairs === 
 === bvk cell = 83 has 19.231 % of the basis function pairs === 
 === bvk cell = 84 has 97.617 % of the basis function pairs === 
 === bvk cell = 85 has 100.000 % of the basis function pairs === 
 === bvk cell = 86 has 67.642 % of the basis function pairs === 
 === bvk cell = 87 has 20.569 % of the basis function pairs === 
 === bvk cell = 88 has 0.000 % of the basis function pairs === 
 === bvk cell = 89 has 22.032 % of the basis function pairs === 
 === bvk cell = 90 has 68.562 % of the basis function pairs === 
 === bvk cell = 91 has 100.000 % of the basis function pairs === 
 === bvk cell = 92 has 100.000 % of the basis function pairs === 
 === bvk cell = 93 has 68.562 % of the basis function pairs === 
 === bvk cell = 94 has 19.231 % of the basis function pairs === 
 === bvk cell = 95 has 19.231 % of the basis function pairs === 
 === bvk cell = 96 has 68.562 % of the basis function pairs === 
 === bvk cell = 97 has 100.000 % of the basis function pairs === 
 === bvk cell = 98 has 83.403 % of the basis function pairs === 
 === bvk cell = 99 has 40.008 % of the basis function pairs === 
 === bvk cell = 100 has 7.692 % of the basis function pairs === 
 === bvk cell = 101 has 2.007 % of the basis function pairs === 
 === bvk cell = 102 has 32.232 % of the basis function pairs === 
 === bvk cell = 103 has 94.482 % of the basis function pairs === 
 === bvk cell = 104 has 97.617 % of the basis function pairs === 
 === bvk cell = 105 has 40.008 % of the basis function pairs === 
 === bvk cell = 106 has 7.692 % of the basis function pairs === 
 === bvk cell = 107 has 0.000 % of the basis function pairs === 
 === bvk cell = 108 has 2.007 % of the basis function pairs === 
 === bvk cell = 109 has 30.769 % of the basis function pairs === 
 === bvk cell = 110 has 67.642 % of the basis function pairs === 
 === bvk cell = 111 has 68.562 % of the basis function pairs === 
 === bvk cell = 112 has 7.692 % of the basis function pairs === 
 === bvk cell = 113 has 0.000 % of the basis function pairs === 
 === bvk cell = 114 has 0.000 % of the basis function pairs === 
 === bvk cell = 115 has 0.000 % of the basis function pairs === 
 === bvk cell = 116 has 22.575 % of the basis function pairs === 
 === bvk cell = 117 has 26.547 % of the basis function pairs === 
 === bvk cell = 118 has 22.032 % of the basis function pairs === 
 === bvk cell = 119 has 2.007 % of the basis function pairs === 
 === bvk cell = 120 has 2.007 % of the basis function pairs === 
 === bvk cell = 121 has 0.000 % of the basis function pairs === 
 === bvk cell = 122 has 0.000 % of the basis function pairs === 
 === bvk cell = 123 has 0.000 % of the basis function pairs === 
 === bvk cell = 124 has 2.007 % of the basis function pairs === 
 === bvk cell = 125 has 0.000 % of the basis function pairs === 
 === bvk cell = 126 has 32.232 % of the basis function pairs === 
 === bvk cell = 127 has 30.769 % of the basis function pairs === 
 === bvk cell = 128 has 22.575 % of the basis function pairs === 
 === bvk cell = 129 has 0.000 % of the basis function pairs === 
 === bvk cell = 130 has 0.000 % of the basis function pairs === 
 === bvk cell = 131 has 2.007 % of the basis function pairs === 
 === bvk cell = 132 has 20.569 % of the basis function pairs === 
 === bvk cell = 133 has 94.482 % of the basis function pairs === 
 === bvk cell = 134 has 67.642 % of the basis function pairs === 
 === bvk cell = 135 has 26.547 % of the basis function pairs === 
 === bvk cell = 136 has 2.007 % of the basis function pairs === 
 === bvk cell = 137 has 2.007 % of the basis function pairs === 
 === bvk cell = 138 has 26.547 % of the basis function pairs === 
 === bvk cell = 139 has 67.642 % of the basis function pairs === 
 === bvk cell = 140 has 97.617 % of the basis function pairs === 
 === bvk cell = 141 has 68.562 % of the basis function pairs === 
 === bvk cell = 142 has 22.032 % of the basis function pairs === 
 === bvk cell = 143 has 0.000 % of the basis function pairs === 
 === bvk cell = 144 has 20.569 % of the basis function pairs === 
 === bvk cell = 145 has 67.642 % of the basis function pairs === 
 === bvk cell = 146 has 100.000 % of the basis function pairs === 
 === bvk cell = 147 has 22.032 % of the basis function pairs === 
 === bvk cell = 148 has 8.278 % of the basis function pairs === 
 === bvk cell = 149 has 2.007 % of the basis function pairs === 
 === bvk cell = 150 has 0.000 % of the basis function pairs === 
 === bvk cell = 151 has 25.418 % of the basis function pairs === 
 === bvk cell = 152 has 32.232 % of the basis function pairs === 
 === bvk cell = 153 has 37.207 % of the basis function pairs === 
 === bvk cell = 154 has 8.278 % of the basis function pairs === 
 === bvk cell = 155 has 6.271 % of the basis function pairs === 
 === bvk cell = 156 has 2.007 % of the basis function pairs === 
 === bvk cell = 157 has 0.000 % of the basis function pairs === 
 === bvk cell = 158 has 17.809 % of the basis function pairs === 
 === bvk cell = 159 has 20.569 % of the basis function pairs === 
 === bvk cell = 160 has 19.231 % of the basis function pairs === 
 === bvk cell = 161 has 2.007 % of the basis function pairs === 
 === bvk cell = 162 has 2.007 % of the basis function pairs === 
 === bvk cell = 163 has 0.000 % of the basis function pairs === 
 === bvk cell = 164 has 0.000 % of the basis function pairs === 
 === bvk cell = 165 has 0.000 % of the basis function pairs === 
 === bvk cell = 166 has 2.007 % of the basis function pairs === 
 === bvk cell = 167 has 0.000 % of the basis function pairs === 
 === bvk cell = 168 has 0.000 % of the basis function pairs === 
 === bvk cell = 169 has 0.000 % of the basis function pairs === 
 === bvk cell = 170 has 0.000 % of the basis function pairs === 
 === bvk cell = 171 has 0.000 % of the basis function pairs === 
 === bvk cell = 172 has 0.000 % of the basis function pairs === 
 === bvk cell = 173 has 0.000 % of the basis function pairs === 
 === bvk cell = 174 has 0.000 % of the basis function pairs === 
 === bvk cell = 175 has 25.418 % of the basis function pairs === 
 === bvk cell = 176 has 17.809 % of the basis function pairs === 
 === bvk cell = 177 has 0.000 % of the basis function pairs === 
 === bvk cell = 178 has 0.000 % of the basis function pairs === 
 === bvk cell = 179 has 0.000 % of the basis function pairs === 
 === bvk cell = 180 has 0.000 % of the basis function pairs === 
 === bvk cell = 181 has 17.809 % of the basis function pairs === 
 === bvk cell = 182 has 32.232 % of the basis function pairs === 
 === bvk cell = 183 has 20.569 % of the basis function pairs === 
 === bvk cell = 184 has 2.007 % of the basis function pairs === 
 === bvk cell = 185 has 0.000 % of the basis function pairs === 
 === bvk cell = 186 has 0.000 % of the basis function pairs === 
 === bvk cell = 187 has 22.575 % of the basis function pairs === 
 === bvk cell = 188 has 30.769 % of the basis function pairs === 
 === bvk cell = 189 has 37.207 % of the basis function pairs === 
 === bvk cell = 190 has 19.231 % of the basis function pairs === 
 === bvk cell = 191 has 0.000 % of the basis function pairs === 
 === bvk cell = 192 has 0.000 % of the basis function pairs === 
 === bvk cell = 193 has 17.809 % of the basis function pairs === 
 === bvk cell = 194 has 30.769 % of the basis function pairs === 
 === bvk cell = 195 has 43.645 % of the basis function pairs === 
 === bvk cell = 196 has 22.032 % of the basis function pairs === 
 === bvk cell = 197 has 37.207 % of the basis function pairs === 
 === bvk cell = 198 has 32.232 % of the basis function pairs === 
 === bvk cell = 199 has 25.418 % of the basis function pairs === 
 === bvk cell = 200 has 0.000 % of the basis function pairs === 
 === bvk cell = 201 has 2.007 % of the basis function pairs === 
 === bvk cell = 202 has 8.278 % of the basis function pairs === 
 === bvk cell = 203 has 37.207 % of the basis function pairs === 
 === bvk cell = 204 has 43.645 % of the basis function pairs === 
 === bvk cell = 205 has 30.769 % of the basis function pairs === 
 === bvk cell = 206 has 17.809 % of the basis function pairs === 
 === bvk cell = 207 has 0.000 % of the basis function pairs === 
 === bvk cell = 208 has 0.000 % of the basis function pairs === 
 === bvk cell = 209 has 19.231 % of the basis function pairs === 
 === bvk cell = 210 has 32.232 % of the basis function pairs === 
 === bvk cell = 211 has 30.769 % of the basis function pairs === 
 === bvk cell = 212 has 22.575 % of the basis function pairs === 
 === bvk cell = 213 has 0.000 % of the basis function pairs === 
 === bvk cell = 214 has 0.000 % of the basis function pairs === 
 === bvk cell = 215 has 2.007 % of the basis function pairs === 
 === bvk cell = 216 has 20.569 % of the basis function pairs === 
 === bvk cell = 217 has 25.418 % of the basis function pairs === 
 === bvk cell = 218 has 17.809 % of the basis function pairs === 
 === bvk cell = 219 has 0.000 % of the basis function pairs === 
 === bvk cell = 220 has 0.000 % of the basis function pairs === 
 === bvk cell = 221 has 0.000 % of the basis function pairs === 
 === bvk cell = 222 has 0.000 % of the basis function pairs === 
 === bvk cell = 223 has 17.809 % of the basis function pairs === 
 === bvk cell = 224 has 0.000 % of the basis function pairs === 
 === bvk cell = 225 has 0.000 % of the basis function pairs === 
 === bvk cell = 226 has 0.000 % of the basis function pairs === 
 === bvk cell = 227 has 0.000 % of the basis function pairs === 
 === bvk cell = 228 has 0.000 % of the basis function pairs === 
 === bvk cell = 229 has 0.000 % of the basis function pairs === 
 === bvk cell = 230 has 0.000 % of the basis function pairs === 
 === bvk cell = 231 has 2.007 % of the basis function pairs === 
 === bvk cell = 232 has 0.000 % of the basis function pairs === 
 === bvk cell = 233 has 2.007 % of the basis function pairs === 
 === bvk cell = 234 has 0.000 % of the basis function pairs === 
 === bvk cell = 235 has 0.000 % of the basis function pairs === 
 === bvk cell = 236 has 0.000 % of the basis function pairs === 
 === bvk cell = 237 has 2.007 % of the basis function pairs === 
 === bvk cell = 238 has 8.278 % of the basis function pairs === 
 === bvk cell = 239 has 19.231 % of the basis function pairs === 
 === bvk cell = 240 has 20.569 % of the basis function pairs === 
 === bvk cell = 241 has 17.809 % of the basis function pairs === 
 === bvk cell = 242 has 0.000 % of the basis function pairs === 
 === bvk cell = 243 has 2.007 % of the basis function pairs === 
 === bvk cell = 244 has 6.271 % of the basis function pairs === 
 === bvk cell = 245 has 83.403 % of the basis function pairs === 
 === bvk cell = 246 has 97.617 % of the basis function pairs === 
 === bvk cell = 247 has 94.482 % of the basis function pairs === 
 === bvk cell = 248 has 32.232 % of the basis function pairs === 
 === bvk cell = 249 has 2.007 % of the basis function pairs === 
 === bvk cell = 250 has 7.692 % of the basis function pairs === 
 === bvk cell = 251 has 40.008 % of the basis function pairs === 
 === bvk cell = 252 has 97.617 % of the basis function pairs === 
 === bvk cell = 253 has 100.000 % of the basis function pairs === 
 === bvk cell = 254 has 67.642 % of the basis function pairs === 
 === bvk cell = 255 has 20.569 % of the basis function pairs === 
 === bvk cell = 256 has 0.000 % of the basis function pairs === 
 === bvk cell = 257 has 22.032 % of the basis function pairs === 
 === bvk cell = 258 has 68.562 % of the basis function pairs === 
 === bvk cell = 259 has 94.482 % of the basis function pairs === 
 === bvk cell = 260 has 67.642 % of the basis function pairs === 
 === bvk cell = 261 has 26.547 % of the basis function pairs === 
 === bvk cell = 262 has 2.007 % of the basis function pairs === 
 === bvk cell = 263 has 2.007 % of the basis function pairs === 
 === bvk cell = 264 has 26.547 % of the basis function pairs === 
 === bvk cell = 265 has 67.642 % of the basis function pairs === 
 === bvk cell = 266 has 32.232 % of the basis function pairs === 
 === bvk cell = 267 has 20.569 % of the basis function pairs === 
 === bvk cell = 268 has 2.007 % of the basis function pairs === 
 === bvk cell = 269 has 0.000 % of the basis function pairs === 
 === bvk cell = 270 has 0.000 % of the basis function pairs === 
 === bvk cell = 271 has 22.575 % of the basis function pairs === 
 === bvk cell = 272 has 30.769 % of the basis function pairs === 
 === bvk cell = 273 has 2.007 % of the basis function pairs === 
 === bvk cell = 274 has 0.000 % of the basis function pairs === 
 === bvk cell = 275 has 2.007 % of the basis function pairs === 
 === bvk cell = 276 has 0.000 % of the basis function pairs === 
 === bvk cell = 277 has 0.000 % of the basis function pairs === 
 === bvk cell = 278 has 0.000 % of the basis function pairs === 
 === bvk cell = 279 has 2.007 % of the basis function pairs === 
 === bvk cell = 280 has 7.692 % of the basis function pairs === 
 === bvk cell = 281 has 22.032 % of the basis function pairs === 
 === bvk cell = 282 has 26.547 % of the basis function pairs === 
 === bvk cell = 283 has 22.575 % of the basis function pairs === 
 === bvk cell = 284 has 0.000 % of the basis function pairs === 
 === bvk cell = 285 has 0.000 % of the basis function pairs === 
 === bvk cell = 286 has 0.000 % of the basis function pairs === 
 === bvk cell = 287 has 40.008 % of the basis function pairs === 
 === bvk cell = 288 has 68.562 % of the basis function pairs === 
 === bvk cell = 289 has 67.642 % of the basis function pairs === 
 === bvk cell = 290 has 30.769 % of the basis function pairs === 
 === bvk cell = 291 has 2.007 % of the basis function pairs === 
 === bvk cell = 292 has 0.000 % of the basis function pairs === 
 === bvk cell = 293 has 7.692 % of the basis function pairs === 
 === bvk cell = 294 has 100.000 % of the basis function pairs === 
 === bvk cell = 295 has 100.000 % of the basis function pairs === 
 === bvk cell = 296 has 97.617 % of the basis function pairs === 
 === bvk cell = 297 has 37.207 % of the basis function pairs === 
 === bvk cell = 298 has 8.278 % of the basis function pairs === 
 === bvk cell = 299 has 40.008 % of the basis function pairs === 
 === bvk cell = 300 has 90.552 % of the basis function pairs === 
 === bvk cell = 301 has 100.000 % of the basis function pairs === 
 === bvk cell = 302 has 100.000 % of the basis function pairs === 
 === bvk cell = 303 has 68.562 % of the basis function pairs === 
 === bvk cell = 304 has 19.231 % of the basis function pairs === 
 === bvk cell = 305 has 19.231 % of the basis function pairs === 
 === bvk cell = 306 has 68.562 % of the basis function pairs === 
 === bvk cell = 307 has 100.000 % of the basis function pairs === 
 === bvk cell = 308 has 97.617 % of the basis function pairs === 
 === bvk cell = 309 has 68.562 % of the basis function pairs === 
 === bvk cell = 310 has 22.032 % of the basis function pairs === 
 === bvk cell = 311 has 0.000 % of the basis function pairs === 
 === bvk cell = 312 has 20.569 % of the basis function pairs === 
 === bvk cell = 313 has 67.642 % of the basis function pairs === 
 === bvk cell = 314 has 100.000 % of the basis function pairs === 
 === bvk cell = 315 has 37.207 % of the basis function pairs === 
 === bvk cell = 316 has 19.231 % of the basis function pairs === 
 === bvk cell = 317 has 0.000 % of the basis function pairs === 
 === bvk cell = 318 has 0.000 % of the basis function pairs === 
 === bvk cell = 319 has 17.809 % of the basis function pairs === 
 === bvk cell = 320 has 30.769 % of the basis function pairs === 
 === bvk cell = 321 has 43.645 % of the basis function pairs === 
 === bvk cell = 322 has 8.278 % of the basis function pairs === 
 === bvk cell = 323 has 19.231 % of the basis function pairs === 
 === bvk cell = 324 has 20.569 % of the basis function pairs === 
 === bvk cell = 325 has 17.809 % of the basis function pairs === 
 === bvk cell = 326 has 0.000 % of the basis function pairs === 
 === bvk cell = 327 has 2.007 % of the basis function pairs === 
 === bvk cell = 328 has 6.271 % of the basis function pairs === 
 === bvk cell = 329 has 40.008 % of the basis function pairs === 
 === bvk cell = 330 has 68.562 % of the basis function pairs === 
 === bvk cell = 331 has 67.642 % of the basis function pairs === 
 === bvk cell = 332 has 30.769 % of the basis function pairs === 
 === bvk cell = 333 has 2.007 % of the basis function pairs === 
 === bvk cell = 334 has 0.000 % of the basis function pairs === 
 === bvk cell = 335 has 7.692 % of the basis function pairs === 
 === bvk cell = 336 has 90.552 % of the basis function pairs === 
 === bvk cell = 337 has 100.000 % of the basis function pairs === 
 === bvk cell = 338 has 100.000 % of the basis function pairs === 
 === bvk cell = 339 has 43.645 % of the basis function pairs === 
 === bvk cell = 340 has 6.271 % of the basis function pairs === 
 === bvk cell = 341 has 7.692 % of the basis function pairs === 
 === bvk cell = 342 has 51.672 % of the basis function pairs === 
Static memory requirement for 2e3c SR integrals: 0.563 GB
There are 1 munu batches for computing 2e3c SR integrals with latsum
There are 5 Q batches for computing 2e3c SR integrals with latsum
 Time for computing 2e3c SR integral (CD) is 3.13 s
Maximum dynamic memory per thread for 2e3c SR integrals: 0.052 GiB
Batch size for basis function pair is 4516 out of 4516
 === bvk cell = 0 has 100.000 % of the basis function pairs === 
 === bvk cell = 1 has 89.393 % of the basis function pairs === 
 === bvk cell = 2 has 17.626 % of the basis function pairs === 
 === bvk cell = 3 has 0.000 % of the basis function pairs === 
 === bvk cell = 4 has 0.000 % of the basis function pairs === 
 === bvk cell = 5 has 12.489 % of the basis function pairs === 
 === bvk cell = 6 has 84.035 % of the basis function pairs === 
 === bvk cell = 7 has 89.393 % of the basis function pairs === 
 === bvk cell = 8 has 39.925 % of the basis function pairs === 
 === bvk cell = 9 has 1.085 % of the basis function pairs === 
 === bvk cell = 10 has 0.000 % of the basis function pairs === 
 === bvk cell = 11 has 0.000 % of the basis function pairs === 
 === bvk cell = 12 has 23.494 % of the basis function pairs === 
 === bvk cell = 13 has 95.018 % of the basis function pairs === 
 === bvk cell = 14 has 17.626 % of the basis function pairs === 
 === bvk cell = 15 has 1.085 % of the basis function pairs === 
 === bvk cell = 16 has 0.000 % of the basis function pairs === 
 === bvk cell = 17 has 0.000 % of the basis function pairs === 
 === bvk cell = 18 has 0.000 % of the basis function pairs === 
 === bvk cell = 19 has 4.805 % of the basis function pairs === 
 === bvk cell = 20 has 27.547 % of the basis function pairs === 
 === bvk cell = 21 has 0.000 % of the basis function pairs === 
 === bvk cell = 22 has 0.000 % of the basis function pairs === 
 === bvk cell = 23 has 0.000 % of the basis function pairs === 
 === bvk cell = 24 has 0.000 % of the basis function pairs === 
 === bvk cell = 25 has 0.000 % of the basis function pairs === 
 === bvk cell = 26 has 0.000 % of the basis function pairs === 
 === bvk cell = 27 has 0.000 % of the basis function pairs === 
 === bvk cell = 28 has 0.000 % of the basis function pairs === 
 === bvk cell = 29 has 0.000 % of the basis function pairs === 
 === bvk cell = 30 has 0.000 % of the basis function pairs === 
 === bvk cell = 31 has 0.000 % of the basis function pairs === 
 === bvk cell = 32 has 0.000 % of the basis function pairs === 
 === bvk cell = 33 has 0.000 % of the basis function pairs === 
 === bvk cell = 34 has 0.000 % of the basis function pairs === 
 === bvk cell = 35 has 12.489 % of the basis function pairs === 
 === bvk cell = 36 has 23.494 % of the basis function pairs === 
 === bvk cell = 37 has 4.805 % of the basis function pairs === 
 === bvk cell = 38 has 0.000 % of the basis function pairs === 
 === bvk cell = 39 has 0.000 % of the basis function pairs === 
 === bvk cell = 40 has 0.000 % of the basis function pairs === 
 === bvk cell = 41 has 0.000 % of the basis function pairs === 
 === bvk cell = 42 has 84.035 % of the basis function pairs === 
 === bvk cell = 43 has 95.018 % of the basis function pairs === 
 === bvk cell = 44 has 27.547 % of the basis function pairs === 
 === bvk cell = 45 has 0.000 % of the basis function pairs === 
 === bvk cell = 46 has 0.000 % of the basis function pairs === 
 === bvk cell = 47 has 0.000 % of the basis function pairs === 
 === bvk cell = 48 has 30.425 % of the basis function pairs === 
 === bvk cell = 49 has 89.393 % of the basis function pairs === 
 === bvk cell = 50 has 39.925 % of the basis function pairs === 
 === bvk cell = 51 has 1.085 % of the basis function pairs === 
 === bvk cell = 52 has 0.000 % of the basis function pairs === 
 === bvk cell = 53 has 0.000 % of the basis function pairs === 
 === bvk cell = 54 has 23.494 % of the basis function pairs === 
 === bvk cell = 55 has 95.018 % of the basis function pairs === 
 === bvk cell = 56 has 39.925 % of the basis function pairs === 
 === bvk cell = 57 has 6.709 % of the basis function pairs === 
 === bvk cell = 58 has 0.000 % of the basis function pairs === 
 === bvk cell = 59 has 0.000 % of the basis function pairs === 
 === bvk cell = 60 has 0.000 % of the basis function pairs === 
 === bvk cell = 61 has 23.251 % of the basis function pairs === 
 === bvk cell = 62 has 67.316 % of the basis function pairs === 
 === bvk cell = 63 has 1.085 % of the basis function pairs === 
 === bvk cell = 64 has 0.000 % of the basis function pairs === 
 === bvk cell = 65 has 0.000 % of the basis function pairs === 
 === bvk cell = 66 has 0.000 % of the basis function pairs === 
 === bvk cell = 67 has 0.000 % of the basis function pairs === 
 === bvk cell = 68 has 1.085 % of the basis function pairs === 
 === bvk cell = 69 has 6.709 % of the basis function pairs === 
 === bvk cell = 70 has 0.000 % of the basis function pairs === 
 === bvk cell = 71 has 0.000 % of the basis function pairs === 
 === bvk cell = 72 has 0.000 % of the basis function pairs === 
 === bvk cell = 73 has 0.000 % of the basis function pairs === 
 === bvk cell = 74 has 0.000 % of the basis function pairs === 
 === bvk cell = 75 has 0.000 % of the basis function pairs === 
 === bvk cell = 76 has 0.000 % of the basis function pairs === 
 === bvk cell = 77 has 0.000 % of the basis function pairs === 
 === bvk cell = 78 has 0.000 % of the basis function pairs === 
 === bvk cell = 79 has 0.000 % of the basis function pairs === 
 === bvk cell = 80 has 0.000 % of the basis function pairs === 
 === bvk cell = 81 has 0.000 % of the basis function pairs === 
 === bvk cell = 82 has 0.000 % of the basis function pairs === 
 === bvk cell = 83 has 0.000 % of the basis function pairs === 
 === bvk cell = 84 has 23.494 % of the basis function pairs === 
 === bvk cell = 85 has 23.251 % of the basis function pairs === 
 === bvk cell = 86 has 1.085 % of the basis function pairs === 
 === bvk cell = 87 has 0.000 % of the basis function pairs === 
[...]
 -0.06234 0.03906 0.13909 0.18910 0.38948 0.40499 0.47853 0.52073 0.58460 0.64749
 0.72684 0.77288 0.81914 0.86936 0.92754 0.95660 0.98853 1.03959 1.07480 1.11913
 1.15383 1.18431 1.25675 1.30501 1.33348 1.35427 1.41379 1.45549 1.47515 1.53054
 1.55092 1.62536 1.66829 1.76418 1.77251 1.82566 1.85505 1.90289 1.94051 1.97196
 2.04088 2.06162 2.09106 2.16579 2.17304 2.24184 2.28009 2.32786 2.34467 2.39340
 2.41643 2.43795 2.47450 2.52746 2.57104 2.64516 2.68447 2.73454 2.80956 2.81876
 2.82797 2.91286 2.92497 2.94951 2.97136 2.98637 3.00808 3.07255 3.09173 3.16531
 3.20187 3.26700 3.28011 3.30829 3.33308 3.38858 3.41717 3.42429 3.48522 3.50338
 3.54542 3.58943 3.62849 3.64780 3.69129 3.73414 3.81886 3.86834 3.89387 3.99129
 4.07260 4.13038 4.23456 4.29184 4.52892 4.57893 8.16772 8.37372 8.40487 8.79308
 9.42830 9.87433 13.24640 14.30949
 == 325-th k-point (-0.17495,0.17495,0.34990) occupation: 14==
 -65.00547 -65.00546 -4.62766 -4.62751 -3.03950 -3.03949 -3.03934 -3.03894 -3.03881 -3.03877
 -0.09134 0.05672 0.19254 0.21204 0.35535 0.41764 0.44414 0.49021 0.62447 0.65887
 0.68005 0.73200 0.75726 0.85911 0.92836 0.93044 0.99466 1.08217 1.10818 1.15864
 1.18914 1.21555 1.30042 1.32869 1.35605 1.37891 1.42316 1.45060 1.50786 1.51496
 1.56962 1.62408 1.68686 1.70307 1.75407 1.77721 1.87746 1.89347 1.95033 1.99502
 1.99596 2.05279 2.05810 2.15247 2.15406 2.20211 2.28371 2.31971 2.33680 2.37353
 2.41193 2.44538 2.51918 2.59009 2.62401 2.65592 2.75764 2.75846 2.76863 2.77016
 2.79677 2.85359 2.87511 2.90437 2.98498 3.03258 3.04805 3.06265 3.10343 3.13031
 3.15194 3.24056 3.29849 3.31302 3.37492 3.39112 3.43158 3.47375 3.52907 3.53462
 3.59958 3.61590 3.66565 3.71574 3.75345 3.76425 3.83324 3.83574 3.89188 3.97711
 4.04116 4.13073 4.23652 4.34538 4.54112 4.54895 7.96911 8.20462 8.27621 9.32737
 9.92386 10.12493 12.74003 14.52316
 == 326-th k-point (-0.08747,0.26242,0.26242) occupation: 14==
 -65.00547 -65.00546 -4.62767 -4.62750 -3.03949 -3.03949 -3.03935 -3.03893 -3.03879 -3.03878
 -0.10495 0.08185 0.17722 0.23844 0.37429 0.42021 0.42149 0.52150 0.52819 0.63822
 0.69182 0.72876 0.79955 0.86501 0.88350 0.92939 0.99407 1.09553 1.11169 1.14772
 1.20193 1.24772 1.30272 1.34402 1.35967 1.40679 1.40702 1.49080 1.52404 1.55242
 1.56375 1.67581 1.68716 1.72837 1.73623 1.74606 1.82886 1.86064 1.86239 1.96913
 2.04039 2.04590 2.07664 2.12132 2.16279 2.16543 2.25234 2.31788 2.39860 2.40390
 2.43554 2.53935 2.54302 2.56314 2.59389 2.63693 2.68797 2.75769 2.76255 2.78950
 2.80632 2.87022 2.87098 2.91044 2.96060 2.97954 3.06903 3.11877 3.13157 3.16864
 3.17834 3.27865 3.32919 3.32965 3.35279 3.44246 3.45145 3.47584 3.52046 3.54890
 3.55816 3.62629 3.62830 3.66554 3.72737 3.77879 3.81163 3.86510 3.90800 3.92295
 4.04538 4.06880 4.23414 4.41399 4.51924 4.58525 7.71782 8.07994 8.14030 9.51771
 9.82296 10.02605 12.74096 14.35457
 == 327-th k-point (0.00000,0.34990,0.17495) occupation: 14==
 -65.00547 -65.00546 -4.62767 -4.62751 -3.03950 -3.03949 -3.03933 -3.03895 -3.03879 -3.03879
 -0.10083 0.09571 0.16004 0.20906 0.37127 0.41821 0.42934 0.50349 0.58318 0.68064
 0.69983 0.74061 0.78539 0.84637 0.86104 0.96709 0.96881 1.04985 1.07442 1.19096
 1.20465 1.20715 1.25833 1.34707 1.35259 1.43658 1.46616 1.47283 1.50732 1.53625
 1.59022 1.62239 1.66314 1.76016 1.77732 1.79616 1.84110 1.84876 1.90633 1.91682
 2.00742 2.01217 2.06194 2.09544 2.13923 2.17572 2.24141 2.27663 2.39784 2.44089
 2.45146 2.48267 2.49912 2.59423 2.61445 2.61835 2.62904 2.74447 2.77345 2.79771
 2.80803 2.86903 2.88373 2.93408 2.96797 3.01964 3.03646 3.09694 3.16346 3.19741
 3.23007 3.29883 3.30060 3.35573 3.37207 3.39123 3.42380 3.42575 3.45354 3.51472
 3.53950 3.57559 3.62826 3.68922 3.71645 3.78419 3.83545 3.89713 3.91112 3.94324
 4.04320 4.11188 4.25694 4.39010 4.55583 4.60052 7.85300 7.97925 8.21654 9.37609
 9.74341 10.40071 13.19680 13.84096
 == 328-th k-point (0.08747,0.43737,0.08747) occupation: 14==
 -65.00546 -65.00546 -4.62765 -4.62753 -3.03951 -3.03950 -3.03927 -3.03899 -3.03880 -3.03878
 -0.07897 0.06759 0.15992 0.18635 0.32083 0.37600 0.52100 0.52751 0.68360 0.69257
 0.70709 0.73240 0.79658 0.83418 0.88089 0.93909 0.94187 1.00323 1.09560 1.11823
 1.20497 1.21842 1.23259 1.30947 1.32846 1.35497 1.44024 1.49924 1.51324 1.58251
 1.64011 1.65884 1.68753 1.69959 1.73388 1.80550 1.83454 1.88286 1.89508 1.96495
 1.97307 2.03651 2.05003 2.14037 2.15716 2.16460 2.19289 2.35334 2.39359 2.39521
 2.42767 2.46004 2.53308 2.57324 2.60539 2.61772 2.63152 2.78419 2.78679 2.81352
 2.84674 2.87344 2.89927 2.92678 2.92772 3.00723 3.03157 3.05994 3.09827 3.18557
 3.21199 3.23942 3.25823 3.33000 3.34642 3.38116 3.41702 3.45442 3.52337 3.52638
 3.55847 3.57801 3.60357 3.68312 3.69542 3.77149 3.86285 3.90443 3.93553 4.09631
 4.10084 4.20190 4.27711 4.34248 4.60310 4.60320 8.03217 8.20986 8.24671 8.93962
 10.33561 10.46602 13.16680 13.65582
 == 329-th k-point (-0.34990,-0.17495,0.69980) occupation: 14==
 -65.00547 -65.00546 -4.62764 -4.62754 -3.03952 -3.03950 -3.03927 -3.03900 -3.03878 -3.03875
 -0.06234 0.03906 0.13909 0.18910 0.38948 0.40499 0.47853 0.52073 0.58460 0.64749
 0.72684 0.77288 0.81914 0.86936 0.92754 0.95660 0.98854 1.03959 1.07480 1.11913
 1.15383 1.18432 1.25676 1.30501 1.33349 1.35428 1.41385 1.45549 1.47515 1.53053
 1.55093 1.62537 1.66831 1.76422 1.77252 1.82568 1.85508 1.90291 1.94052 1.97209
 2.04100 2.06168 2.09105 2.16576 2.17318 2.24188 2.28012 2.32796 2.34480 2.39370
 2.41676 2.43796 2.47498 2.52745 2.57113 2.64598 2.68448 2.73454 2.80956 2.81949
 2.82799 2.91290 2.92548 2.94955 2.97140 2.98658 3.00811 3.07251 3.09176 3.16558
 3.20185 3.26703 3.28043 3.30839 3.33310 3.38903 3.41726 3.42461 3.48553 3.50429
 3.54545 3.59025 3.63013 3.64796 3.69142 3.73507 3.81891 3.86828 3.89529 3.99159
 4.07281 4.13036 4.23460 4.29193 4.53035 4.57936 8.16775 8.37391 8.40647 8.79314
 9.43048 9.87446 13.24633 14.30988
 == 330-th k-point (-0.26242,-0.08747,0.61232) occupation: 14==
 -65.00547 -65.00546 -4.62761 -4.62757 -3.03952 -3.03951 -3.03919 -3.03908 -3.03877 -3.03875
 -0.02626 0.01312 0.11840 0.16066 0.37725 0.45536 0.48477 0.49037 0.61294 0.65719
 0.76595 0.81255 0.84156 0.88471 0.93391 0.95983 0.97900 0.98800 1.03293 1.08100
 1.11886 1.18610 1.25985 1.26851 1.28706 1.34699 1.43309 1.44264 1.47775 1.48147
 1.62964 1.67007 1.70763 1.73079 1.75839 1.82832 1.88049 1.90440 1.92655 1.93542
 2.03770 2.08295 2.12258 2.18569 2.21838 2.22716 2.27673 2.31701 2.33040 2.38703
 2.40237 2.48279 2.48873 2.50942 2.59870 2.65025 2.68516 2.72990 2.77106 2.84429
 2.86386 2.89894 2.90663 2.92924 2.99994 3.01181 3.02985 3.09816 3.10120 3.12526
 3.23375 3.25904 3.27964 3.32759 3.34281 3.37413 3.43524 3.43657 3.45256 3.46021
 3.50949 3.55150 3.60992 3.63040 3.68080 3.70844 3.81273 3.84330 3.97339 3.98765
 4.03033 4.17093 4.25451 4.26173 4.56182 4.58693 8.26796 8.44088 8.61576 8.82496
 9.28709 9.71110 13.43803 14.03295
 == 331-th k-point (-0.17495,0.00000,0.52485) occupation: 14==
 -65.00546 -65.00546 -4.62762 -4.62756 -3.03952 -3.03952 -3.03920 -3.03906 -3.03877 -3.03877
 -0.04249 0.02781 0.14210 0.15722 0.35767 0.37146 0.50391 0.59628 0.61674 0.68764
 0.73991 0.79527 0.81826 0.84847 0.89884 0.92875 0.99416 1.04319 1.05194 1.06550
 1.12537 1.15383 1.19686 1.25032 1.37173 1.41459 1.45303 1.46902 1.47920 1.51898
 1.56345 1.68526 1.71559 1.75605 1.77634 1.81838 1.84215 1.86688 1.87355 1.91671
 2.02147 2.06069 2.14664 2.15502 2.17908 2.23700 2.26802 2.32544 2.32671 2.40514
 2.41282 2.45093 2.52311 2.53890 2.59585 2.63628 2.67536 2.75161 2.78150 2.81576
 2.85151 2.88749 2.90664 2.94136 2.97645 2.99629 3.01666 3.06746 3.10172 3.13718
 3.15440 3.23347 3.30476 3.30788 3.35676 3.37729 3.39961 3.40489 3.49475 3.51610
 3.54437 3.54735 3.64122 3.64172 3.70966 3.72112 3.85200 3.90773 3.99777 4.01268
 4.16083 4.17013 4.28251 4.31410 4.57999 4.60614 8.21901 8.39301 8.49176 8.70775
 9.90618 9.91512 13.37141 13.58958
 == 332-th k-point (-0.08747,0.08747,0.43737) occupation: 14==
 -65.00546 -65.00546 -4.62765 -4.62753 -3.03951 -3.03950 -3.03927 -3.03899 -3.03880 -3.03878
 -0.07897 0.06759 0.15992 0.18635 0.32083 0.37600 0.52100 0.52751 0.68360 0.69257
 0.70709 0.73240 0.79658 0.83418 0.88089 0.93909 0.94186 1.00322 1.09559 1.11823
 1.20496 1.21840 1.23259 1.30945 1.32845 1.35496 1.44024 1.49924 1.51320 1.58251
 1.64009 1.65881 1.68744 1.69957 1.73387 1.80546 1.83452 1.88285 1.89480 1.96481
 1.97307 2.03628 2.04997 2.14025 2.15710 2.16452 2.19253 2.35332 2.39355 2.39519
 2.42767 2.45998 2.53307 2.57323 2.60507 2.61766 2.63150 2.78403 2.78641 2.81350
 2.84674 2.87342 2.89908 2.92641 2.92752 3.00708 3.03133 3.05955 3.09819 3.18525
 3.21087 3.23762 3.25783 3.32992 3.34566 3.38111 3.41701 3.45433 3.51854 3.52535
 3.55845 3.57743 3.60358 3.68265 3.69541 3.77088 3.86272 3.90440 3.93300 4.09637
 4.09789 4.20058 4.27648 4.34244 4.59760 4.60117 8.03205 8.20925 8.24647 8.93950
 10.31962 10.45992 13.16544 13.65200
 == 333-th k-point (0.00000,0.17495,0.34990) occupation: 14==
 -65.00547 -65.00546 -4.62767 -4.62751 -3.03950 -3.03949 -3.03933 -3.03895 -3.03879 -3.03879
 -0.10083 0.09571 0.16004 0.20906 0.37127 0.41821 0.42934 0.50349 0.58318 0.68064
 0.69983 0.74061 0.78539 0.84637 0.86104 0.96709 0.96881 1.04985 1.07442 1.19096
 1.20465 1.20715 1.25833 1.34707 1.35259 1.43658 1.46616 1.47283 1.50732 1.53625
 1.59022 1.62239 1.66314 1.76016 1.77732 1.79616 1.84110 1.84876 1.90633 1.91682
 2.00742 2.01217 2.06194 2.09544 2.13923 2.17572 2.24141 2.27663 2.39784 2.44089
 2.45146 2.48267 2.49912 2.59423 2.61445 2.61835 2.62904 2.74447 2.77345 2.79771
 2.80803 2.86903 2.88373 2.93408 2.96797 3.01964 3.03646 3.09694 3.16346 3.19741
 3.23007 3.29883 3.30060 3.35573 3.37207 3.39123 3.42380 3.42575 3.45354 3.51472
 3.53950 3.57559 3.62826 3.68922 3.71645 3.78419 3.83545 3.89713 3.91112 3.94324
 4.04320 4.11188 4.25694 4.39010 4.55583 4.60052 7.85300 7.97925 8.21654 9.37609
 9.74341 10.40071 13.19680 13.84096
 == 334-th k-point (0.08747,0.26242,0.26242) occupation: 14==
 -65.00547 -65.00546 -4.62767 -4.62750 -3.03949 -3.03949 -3.03935 -3.03893 -3.03879 -3.03878
 -0.10495 0.08185 0.17722 0.23844 0.37429 0.42021 0.42150 0.52150 0.52819 0.63822
 0.69182 0.72876 0.79955 0.86502 0.88350 0.92939 0.99407 1.09553 1.11172 1.14788
 1.20194 1.24772 1.30273 1.34402 1.35970 1.40679 1.40705 1.49081 1.52404 1.55249
 1.56374 1.67611 1.68716 1.72843 1.73623 1.74608 1.82906 1.86064 1.86247 1.96935
 2.04064 2.04588 2.07689 2.12145 2.16275 2.16562 2.25255 2.31784 2.39863 2.40377
 2.43566 2.53935 2.54339 2.56365 2.59428 2.63688 2.68794 2.75775 2.76254 2.79000
 2.80637 2.87042 2.87096 2.91040 2.96063 2.97951 3.07089 3.11893 3.13155 3.16863
 3.17860 3.27911 3.32962 3.33219 3.35373 3.44244 3.45155 3.47589 3.52438 3.54874
 3.55928 3.62593 3.62874 3.66552 3.72878 3.77862 3.81163 3.86819 3.90791 3.92436
 4.04537 4.06914 4.23436 4.41484 4.51920 4.58786 7.71831 8.07991 8.14038 9.52482
 9.82279 10.03084 12.74505 14.36042
 == 335-th k-point (0.17495,0.34990,0.17495) occupation: 14==
 -65.00547 -65.00546 -4.62766 -4.62751 -3.03950 -3.03949 -3.03934 -3.03894 -3.03881 -3.03877
 -0.09134 0.05672 0.19254 0.21204 0.35535 0.41764 0.44414 0.49021 0.62447 0.65887
 0.68005 0.73200 0.75726 0.85911 0.92837 0.93044 0.99467 1.08217 1.10820 1.15864
 1.18915 1.21560 1.30043 1.32869 1.35605 1.37893 1.42317 1.45061 1.50790 1.51497
 1.56967 1.62416 1.68698 1.70310 1.75408 1.77722 1.87746 1.89366 1.95045 1.99527
 1.99606 2.05281 2.05813 2.15360 2.15410 2.20225 2.28377 2.31982 2.33689 2.37377
 2.41198 2.44559 2.51924 2.59041 2.62411 2.65596 2.75831 2.75855 2.76870 2.77027
 2.79697 2.85363 2.87596 2.90468 2.98510 3.03306 3.05200 3.06273 3.10357 3.13177
 3.15228 3.24059 3.30324 3.31302 3.37494 3.39141 3.43164 3.47458 3.53076 3.53508
 3.59984 3.61629 3.66582 3.71608 3.75432 3.77044 3.83376 3.83631 3.89260 3.97802
 4.04161 4.13303 4.23674 4.34594 4.54210 4.55338 7.96928 8.20568 8.27642 9.32817
 9.92874 10.14139 12.74184 14.52765
 == 336-th k-point (-0.26242,-0.26242,0.78727) occupation: 14==
 -65.00547 -65.00546 -4.62765 -4.62752 -3.03950 -3.03949 -3.03933 -3.03895 -3.03879 -3.03876
 -0.07061 0.02469 0.17719 0.21936 0.35927 0.41420 0.42939 0.57682 0.59832 0.61360
 0.68116 0.76657 0.78468 0.80233 0.95153 1.02097 1.04025 1.05298 1.09359 1.10028
 1.19908 1.23792 1.26922 1.30195 1.31456 1.35779 1.38229 1.43531 1.50670 1.52819
 1.54333 1.61658 1.67442 1.69851 1.73018 1.80757 1.84473 1.92465 1.97134 2.00514
 2.07517 2.10744 2.13581 2.17017 2.18808 2.22202 2.28160 2.28227 2.33240 2.34610
 2.44440 2.46782 2.48960 2.50512 2.53849 2.67236 2.71856 2.74505 2.78951 2.83647
 2.84804 2.86885 2.92561 2.94380 2.94956 2.97435 3.02943 3.04508 3.09739 3.13633
 3.19221 3.19375 3.24026 3.25083 3.37326 3.40905 3.43740 3.47168 3.50052 3.52436
 3.57988 3.63327 3.64632 3.65774 3.73160 3.74966 3.75642 3.89193 3.95837 3.96727
 4.02320 4.15968 4.26319 4.28950 4.48949 4.51258 8.14337 8.36992 8.40247 9.10502
 9.12717 9.93470 12.77305 14.59489
 == 337-th k-point (-0.17495,-0.17495,0.69980) occupation: 14==
 -65.00547 -65.00546 -4.62762 -4.62755 -3.03952 -3.03950 -3.03924 -3.03903 -3.03878 -3.03875
 -0.04499 0.02393 0.12473 0.19260 0.32985 0.45913 0.50880 0.51109 0.61066 0.61414
 0.76966 0.79005 0.80307 0.92701 0.92719 0.94407 0.95577 1.02322 1.03319 1.11626
 1.16553 1.17975 1.18822 1.31838 1.32996 1.36253 1.36621 1.44087 1.52326 1.56555
 1.60213 1.62009 1.68777 1.70399 1.71510 1.79219 1.89418 1.91278 1.91777 2.02626
 2.03858 2.09220 2.09992 2.14371 2.20314 2.27206 2.30033 2.31277 2.31320 2.33395
 2.38390 2.43362 2.49599 2.54614 2.56444 2.59420 2.65366 2.75924 2.79042 2.79832
 2.86737 2.91418 2.93899 2.96213 3.00550 3.03476 3.05472 3.07193 3.07466 3.11055
 3.20038 3.25945 3.28613 3.29457 3.32781 3.33435 3.38016 3.43732 3.45011 3.47373
 3.54123 3.58100 3.68268 3.71349 3.71532 3.76162 3.80489 3.86275 3.90229 3.92534
 4.03956 4.22189 4.24537 4.28190 4.54682 4.57528 8.11852 8.42726 8.49237 8.78830
 9.20253 9.82230 13.25240 14.19813
 == 338-th k-point (-0.08747,-0.08747,0.61232) occupation: 14==
 -65.00546 -65.00546 -4.62759 -4.62758 -3.03953 -3.03952 -3.03915 -3.03910 -3.03877 -3.03876
 -0.01500 -0.00447 0.13958 0.17485 0.30846 0.35500 0.60198 0.61736 0.62834 0.64060
 0.78433 0.79130 0.79486 0.82600 0.91131 0.92387 1.01030 1.02659 1.03868 1.07811
 1.08452 1.12693 1.17004 1.21911 1.37290 1.44527 1.45155 1.48416 1.55747 1.59398
 1.62004 1.62266 1.67728 1.71174 1.71390 1.78528 1.81587 1.88457 1.89764 1.92094
 2.02023 2.06506 2.09676 2.17264 2.24820 2.27829 2.30465 2.30523 2.31397 2.37812
 2.38355 2.43894 2.49321 2.50448 2.55021 2.66865 2.71094 2.75118 2.76141 2.79678
 2.84760 2.87994 2.89188 2.95365 2.98726 3.03930 3.05348 3.05374 3.11185 3.14923
 3.20186 3.24664 3.25104 3.25968 3.27850 3.33807 3.35054 3.40720 3.47930 3.52103
 3.56303 3.58577 3.63899 3.69205 3.71511 3.73520 3.90769 3.92247 3.98545 4.00999
 4.19119 4.27546 4.31799 4.32332 4.58583 4.61950 8.24617 8.38226 8.61146 8.63032
 9.44518 9.95721 13.39126 13.45017
 == 339-th k-point (0.00000,0.00000,0.52485) occupation: 14==
 -65.00546 -65.00546 -4.62762 -4.62755 -3.03952 -3.03952 -3.03920 -3.03906 -3.03878 -3.03878
 -0.05012 0.03092 0.17257 0.17257 0.29722 0.31647 0.61098 0.61098 0.69752 0.71021
 0.72697 0.72697 0.78105 0.79822 0.91299 0.93704 0.93705 0.98446 1.08750 1.10003
 1.10003 1.14248 1.20207 1.27470 1.36740 1.36741 1.45810 1.55768 1.55769 1.62394
 1.62875 1.63541 1.71877 1.74953 1.74954 1.75181 1.80619 1.80632 1.85547 1.87701
 2.02399 2.02434 2.05912 2.15774 2.15797 2.23481 2.31124 2.33663 2.36148 2.41084
 2.41086 2.43564 2.51955 2.51995 2.57143 2.58298 2.72034 2.75038 2.81381 2.81415
 2.87409 2.87440 2.91383 2.93956 2.96425 2.99784 3.01639 3.01652 3.08116 3.13426
 3.22261 3.23041 3.23077 3.32258 3.32703 3.32729 3.44684 3.44849 3.49187 3.49190
 3.56208 3.56217 3.56286 3.69880 3.73554 3.73656 3.92319 3.92361 3.96028 4.16567
 4.26831 4.26906 4.30111 4.38691 4.61637 4.61972 8.10631 8.48968 8.49002 8.59477
 9.99338 9.99995 13.36127 13.36405
 == 340-th k-point (0.08747,0.08747,0.43737) occupation: 14==
 -65.00546 -65.00546 -4.62765 -4.62753 -3.03951 -3.03950 -3.03927 -3.03899 -3.03880 -3.03878
 -0.07897 0.06759 0.15992 0.18635 0.32083 0.37600 0.52100 0.52751 0.68360 0.69257
 0.70709 0.73240 0.79658 0.83418 0.88089 0.93909 0.94187 1.00323 1.09560 1.11823
 1.20497 1.21842 1.23259 1.30947 1.32846 1.35497 1.44024 1.49924 1.51324 1.58251
 1.64011 1.65884 1.68753 1.69959 1.73388 1.80550 1.83454 1.88286 1.89508 1.96495
 1.97307 2.03651 2.05003 2.14037 2.15716 2.16460 2.19289 2.35334 2.39359 2.39521
 2.42767 2.46004 2.53308 2.57324 2.60539 2.61772 2.63152 2.78419 2.78679 2.81352
 2.84674 2.87344 2.89927 2.92678 2.92772 3.00723 3.03157 3.05994 3.09827 3.18557
 3.21199 3.23942 3.25823 3.33000 3.34642 3.38116 3.41702 3.45442 3.52337 3.52638
 3.55847 3.57801 3.60357 3.68312 3.69542 3.77149 3.86285 3.90443 3.93553 4.09631
 4.10084 4.20190 4.27711 4.34248 4.60310 4.60320 8.03217 8.20986 8.24671 8.93962
 10.33561 10.46602 13.16680 13.65582
 == 341-th k-point (0.17495,0.17495,0.34990) occupation: 14==
 -65.00547 -65.00546 -4.62766 -4.62751 -3.03950 -3.03949 -3.03934 -3.03894 -3.03881 -3.03877
 -0.09134 0.05672 0.19254 0.21204 0.35535 0.41764 0.44414 0.49021 0.62447 0.65887
 0.68005 0.73200 0.75726 0.85911 0.92837 0.93044 0.99467 1.08217 1.10820 1.15864
 1.18915 1.21560 1.30043 1.32869 1.35605 1.37893 1.42317 1.45061 1.50790 1.51497
 1.56967 1.62416 1.68698 1.70310 1.75408 1.77722 1.87746 1.89366 1.95045 1.99527
 1.99606 2.05281 2.05813 2.15360 2.15410 2.20225 2.28377 2.31982 2.33689 2.37377
 2.41198 2.44559 2.51924 2.59041 2.62411 2.65596 2.75831 2.75855 2.76870 2.77027
 2.79697 2.85363 2.87596 2.90468 2.98510 3.03306 3.05200 3.06273 3.10357 3.13177
 3.15228 3.24059 3.30324 3.31302 3.37494 3.39141 3.43164 3.47458 3.53076 3.53508
 3.59984 3.61629 3.66582 3.71608 3.75432 3.77044 3.83376 3.83631 3.89260 3.97802
 4.04161 4.13303 4.23674 4.34594 4.54210 4.55338 7.96928 8.20568 8.27642 9.32817
 9.92874 10.14139 12.74184 14.52765
 == 342-th k-point (0.26242,0.26242,0.26242) occupation: 14==
 -65.00547 -65.00546 -4.62766 -4.62751 -3.03948 -3.03948 -3.03937 -3.03890 -3.03879 -3.03879
 -0.08753 0.03290 0.23209 0.23209 0.33510 0.40142 0.40142 0.56065 0.63002 0.63002
 0.66433 0.74377 0.74377 0.77900 0.93106 1.01887 1.01887 1.09384 1.15467 1.15467
 1.19470 1.26728 1.26728 1.31251 1.31251 1.39207 1.41163 1.49026 1.49026 1.51437
 1.51437 1.58669 1.63688 1.67229 1.86629 1.86629 1.89005 1.89587 1.89587 1.92173
 2.05401 2.05401 2.14561 2.21899 2.21899 2.27346 2.27346 2.28739 2.35683 2.35683
 2.40830 2.40830 2.58711 2.60801 2.60801 2.63587 2.78021 2.78103 2.79869 2.80112
 2.80112 2.82411 2.82411 2.86736 2.99939 3.03448 3.03448 3.05713 3.10132 3.10132
 3.14572 3.14572 3.30830 3.30830 3.31138 3.46835 3.46835 3.54466 3.54466 3.54561
 3.55610 3.69025 3.69317 3.69317 3.75255 3.76659 3.89363 3.89363 3.97775 3.97775
 4.10610 4.10610 4.12426 4.37942 4.47220 4.47220 8.19832 8.19832 8.20806 9.68329
 9.68329 10.01702 11.94884 14.76691
 ---------------------------------------------------------------------------
 VBM is at 171-th k-point with 7.49408 eV
 CBM is at 21-th k-point with 8.08773 eV
 Band gap is 0.59365 eV


           Ground-State Mulliken Net Atomic Charges

      Atom                 Charge (a.u.)          Spin (a.u.)
   --------------------------------------------------------
      1 Si              (-0.000000,-0.000000)    (0.000000,0.000000)
      2 Si                (0.000000,0.000000)    (0.000000,0.000000)
   --------------------------------------------------------
  Sum of atomic charges =     (-0.000000,-0.000000)
  Sum of spin   charges =       (0.000000,0.000000)



 Total job time:  336.56 s.
 Tue Sep  9 03:32:54 2025


        *************************************************************
        *                                                           *
        *  Thank you very much for using QCPBC. Have a nice day.    *
        *                                                           *
        *************************************************************

Running job 1 of 1
