                  Welcome to Q-Chem
           with Periodic Boundary Condition
     A Quantum Leap Into The Future Of Chemistry

 Adam Rettig, Xintian Feng, Meng-Fu Chen, Hieu Dinh, Stephen Quiton,
 Anton Ni, Paul J. Robinson, Jinghong Zhang, Joonho Lee

Contributors to earlier versions of Q-Chem not listed above:
 Evgeny Epifanovsky, Leo Cunha, Jerome F. Gonthier, Kuan-Yu Liu
 Input file: /n/netscratch/joonholee_lab/Lab/hieudinh//si_2_ccpvqz_omega_0.6_111111.scratch20250909064109/si_2_ccpvqz_omega_0.6_111111.0
 Scratch folder: /n/netscratch/joonholee_lab/Lab/hieudinh//si_2_ccpvqz_omega_0.6_111111.scratch20250909064109
 Auxillary files located at: /n/holylabs/LABS/joonholee_lab/Lab/qchem_base/qcaux
 Q-Chem begins on Tue Sep  9 06:41:10 2025

 -------------------------------------------------------------
 User input:
 -------------------------------------------------------------
 $lattice
 3
 0.000000 5.130600 5.130600
 5.130600 0.000000 5.130600
 5.130600 5.130600 0.000000
 $end
 
 $unitcell
 ABSOLUTE
 0 1
 Si 0.000000 0.000000 0.000000
 Si 2.565300 2.565300 2.565300
 $end
 
 $rem
 jobtype = sp
 method = pbe
 scf_convergence = 5
 scf_guess = autosad
 scf_algorithm = diis_gdm
 basis = cc-pvqz
 aux_basis = cc-pvqz-jk
 input_bohr = true
 symmetry = false
 rsdf_print_level 1
 is_basis_uctr true
 
 mp_mesh = [11,11,11]
 
 integral_direct true
 bvk_cgto true
 
 thresh 14
 mem_total 1000000
 threads 32
 
 MAX_SCF_CYCLES 500
 madelung = false
 omega 0.6
 do_rij_bigmem true
 automate_g true
 print_level 10
 grid_type_xc 1
 
 thresh_1e2c_sp 1e-14
 thresh_2e3c_bra_ket_sep 1e-10
 thresh_g 1e-12
 $end
 
 -------------------------------------------------------------
 Running PBC job

 Requested Exchange Correlation Functionals: 
  DFT Exchange:  1.00000 pbe_x
  DFT Correlation:  1.00000 pbe_c
 using 32 threads for computing.
 ---------------------------------------------------------------
      Coordinates of Atoms in Central Unit Cell (Angstroms)
    I     Atom         X            Y            Z
 ---------------------------------------------------------------
    1      Si      0.000000     0.000000     0.000000
    2      Si      1.357498     1.357498     1.357498
 ---------------------------------------------------------------
 --------------------------------------------------
              Lattice Vectors (Angstroms)
              X            Y            Z
 --------------------------------------------------
   X       0.000000     2.714997     2.714997
   Y       2.714997     0.000000     2.714997
   Z       2.714997     2.714997     0.000000
 --------------------------------------------------
 --------------------------------------------------
       Reciprocal Lattice Vectors (Angstroms^-1)
              X            Y            Z
 --------------------------------------------------
   X      -1.157126     1.157126     1.157126
   Y       1.157126    -1.157126     1.157126
   Z       1.157126     1.157126    -1.157126
 --------------------------------------------------

 Single point calculation requested

 Hamiltonian contributions:
 List of terms in Hamiltonian: kpts_nn, kpts_kinetic, kpts_vnuc_df, kpts_xc, kpts_rij_bigmem

 K-Points calculation started.

 Basis set information about using solid harmonic (1) or Cartesian (0):
  si : D(1) D(1) D(1) F(1) F(1) G(1) 

 Basis set information about using solid harmonic (1) or Cartesian (0):
  si : D(1) D(1) D(1) D(1) D(1) D(1) D(1) D(1) D(1) F(1) F(1) F(1) F(1) G(1) G(1) H(1) 

 There are 118 basis functions in the central unit cell.
 Print atomic basis of atoms in the central unit cell:
 -------------------------------------------------------------
2 66 134 28

  0.00000000000000e+00  0.00000000000000e+00  0.00000000000000e+00
  2.56530000000000e+00  2.56530000000000e+00  2.56530000000000e+00

  5.13000000000000e+05
  7.68200000000000e+04
  1.74700000000000e+04
  4.93500000000000e+03
  1.60200000000000e+03
  5.74100000000000e+02
  2.21500000000000e+02
  9.05400000000000e+01
  3.87400000000000e+01
  1.69500000000000e+01
  6.45200000000000e+00
  2.87400000000000e+00
  1.25000000000000e+00
  3.59900000000000e-01
  1.69900000000000e-01
  7.06600000000000e-02
  1.12200000000000e+03
  2.66000000000000e+02
  8.59200000000000e+01
  3.23300000000000e+01
  1.33700000000000e+01
  5.80000000000000e+00
  2.55900000000000e+00
  1.12400000000000e+00
  3.98800000000000e-01
  1.53300000000000e-01
  5.72800000000000e-02
  7.60000000000000e-01
  3.02000000000000e-01
  1.20000000000000e-01
  5.41000000000000e-01
  2.12000000000000e-01
  4.61000000000000e-01
  5.13000000000000e+05
  7.68200000000000e+04
  1.74700000000000e+04
  4.93500000000000e+03
  1.60200000000000e+03
  5.74100000000000e+02
  2.21500000000000e+02
  9.05400000000000e+01
  3.87400000000000e+01
  1.69500000000000e+01
  6.45200000000000e+00
  2.87400000000000e+00
  1.25000000000000e+00
  3.59900000000000e-01
  1.69900000000000e-01
  7.06600000000000e-02
  1.12200000000000e+03
  2.66000000000000e+02
  8.59200000000000e+01
  3.23300000000000e+01
  1.33700000000000e+01
  5.80000000000000e+00
  2.55900000000000e+00
  1.12400000000000e+00
  3.98800000000000e-01
  1.53300000000000e-01
  5.72800000000000e-02
  7.60000000000000e-01
  3.02000000000000e-01
  1.20000000000000e-01
  5.41000000000000e-01
  2.12000000000000e-01
  4.61000000000000e-01

  3.56439732356011e-01
  6.67250935594825e-01
  1.15567538346971e+00
  1.89079471139597e+00
  2.92997535092854e+00
  4.25377897422013e+00
  5.53035652706994e+00
  5.88407857713363e+00
  4.26432221020809e+00
  1.46246852660687e+00
  9.90009037975635e-02
 -5.26805361731285e-03
  1.58075269248041e-03
 -9.63604858609034e-02
 -1.80140685379119e-01
 -3.12991611081079e-01
 -5.12013980868736e-01
 -8.03092560139717e-01
 -1.18597193899895e+00
 -1.63453354628192e+00
 -1.94138718043020e+00
 -1.86039340932271e+00
 -9.21642524314205e-01
  4.93552860211257e-01
  9.09065541611183e-01
  3.40430003714153e-01
  4.89002727192571e-02
  9.13245846186842e-02
  1.58921585782757e-01
  2.59526822498432e-01
  4.08347517411705e-01
  6.02266139654795e-01
  8.36774006155092e-01
  9.98775610751853e-01
  9.86583994360998e-01
  5.01500269670235e-01
 -2.91439000418814e-01
 -6.84883633703988e-01
 -4.85138432421684e-01
  3.31166560285492e-01
  1.88605835767988e-01
  9.76765512168845e-02
  4.17977074735086e+00
  5.88843070847456e+00
  7.44317185052013e+00
  8.05001094515016e+00
  6.97099017282640e+00
  4.33955185260449e+00
  1.76355858703549e+00
  3.34437932089088e-01
 -4.09551658476811e+00
 -5.70145272051300e+00
 -7.35388974061730e+00
 -7.93663059323219e+00
 -7.17813870370958e+00
 -4.42768957771269e+00
 -2.05517820096269e+00
 -1.72105843348797e-01
  4.51735295769850e-01
  1.36731249153695e-01
  3.99432914781939e-02
  1.01820035164008e+00
  2.02498404800701e-01
  4.02695370421242e-02
  3.69528803814005e-01
  4.48962571437413e-02
  1.32316184864580e-01
  3.56439732356011e-01
  6.67250935594825e-01
  1.15567538346971e+00
  1.89079471139597e+00
  2.92997535092854e+00
  4.25377897422013e+00
  5.53035652706994e+00
  5.88407857713363e+00
  4.26432221020809e+00
  1.46246852660687e+00
  9.90009037975635e-02
 -5.26805361731285e-03
  1.58075269248041e-03
 -9.63604858609034e-02
 -1.80140685379119e-01
 -3.12991611081079e-01
 -5.12013980868736e-01
 -8.03092560139717e-01
 -1.18597193899895e+00
 -1.63453354628192e+00
 -1.94138718043020e+00
 -1.86039340932271e+00
 -9.21642524314205e-01
  4.93552860211257e-01
  9.09065541611183e-01
  3.40430003714153e-01
  4.89002727192571e-02
  9.13245846186842e-02
  1.58921585782757e-01
  2.59526822498432e-01
  4.08347517411705e-01
  6.02266139654795e-01
  8.36774006155092e-01
  9.98775610751853e-01
  9.86583994360998e-01
  5.01500269670235e-01
 -2.91439000418814e-01
 -6.84883633703988e-01
 -4.85138432421684e-01
  3.31166560285492e-01
  1.88605835767988e-01
  9.76765512168845e-02
  4.17977074735086e+00
  5.88843070847456e+00
  7.44317185052013e+00
  8.05001094515016e+00
  6.97099017282640e+00
  4.33955185260449e+00
  1.76355858703549e+00
  3.34437932089088e-01
 -4.09551658476811e+00
 -5.70145272051300e+00
 -7.35388974061730e+00
 -7.93663059323219e+00
 -7.17813870370958e+00
 -4.42768957771269e+00
 -2.05517820096269e+00
 -1.72105843348797e-01
  4.51735295769850e-01
  1.36731249153695e-01
  3.99432914781939e-02
  1.01820035164008e+00
  2.02498404800701e-01
  4.02695370421242e-02
  3.69528803814005e-01
  4.48962571437413e-02
  1.32316184864580e-01

0 0 0 0 3 3 3
0 0 13 0 26 0 
13 0

0 3 3 13 1 1 1
39 0 
1 0

0 4 4 14 1 1 1
40 0 
1 0

0 5 5 15 1 1 1
41 0 
1 0

0 6 6 16 2 6 6
42 1 50 1 
8 0

0 12 12 24 1 3 3
58 1 
1 0

0 15 15 25 1 3 3
59 1 
1 0

0 18 18 26 1 3 3
60 1 
1 0

0 21 21 27 1 5 6
61 2 
1 1

0 26 26 28 1 5 6
62 2 
1 1

0 31 31 29 1 5 6
63 2 
1 1

0 36 36 30 1 7 10
64 3 
1 1

0 43 43 31 1 7 10
65 3 
1 1

0 50 50 32 1 9 15
66 4 
1 1

1 59 59 33 3 3 3
67 0 80 0 93 0 
13 0

1 62 62 46 1 1 1
106 0 
1 0

1 63 63 47 1 1 1
107 0 
1 0

1 64 64 48 1 1 1
108 0 
1 0

1 65 65 49 2 6 6
109 1 117 1 
8 0

1 71 71 57 1 3 3
125 1 
1 0

1 74 74 58 1 3 3
126 1 
1 0

1 77 77 59 1 3 3
127 1 
1 0

1 80 80 60 1 5 6
128 2 
1 1

1 85 85 61 1 5 6
129 2 
1 1

1 90 90 62 1 5 6
130 2 
1 1

1 95 95 63 1 7 10
131 3 
1 1

1 102 102 64 1 7 10
132 3 
1 1

1 109 109 65 1 9 15
133 4 
1 1

 -------------------------------------------------------------
 Allocate 265256 B from available memory: 1048576000000 B
 There are 2197 image cells after screening.
 There are 2061 image cells for CGTO evaluation after screening.
 Real-Space grid for FFT initialized based on kinetic energy cutoff (eV) = 500.0
 Real-Space grid for FFT: (10,10,10)
 There are 9261 real-space grid points.
 There are 64 batches of real-space grid points. 
 Size of each grid batch is around 128
 Grid for AFT initialized based on kinetic energy cutoff (eV) = 500.0
 Real-Space grid for AFT: (10,10,10)
 There are 9261 real-space grid points.

 There are 5628 atom-centered grid points.

 Spacegroup symmetry group: Fd-3m
 Reducing spacegroup symmetry to symmorphic group: F -4 3 m
 Monkhorst-Pack mesh is [11,11,11]
 There are 1331 k points.
kpoints in Bohr
-0.2783293690 -0.2783293690 -0.2783293690
-0.2226634952 -0.2226634952 -0.3339952428
-0.1669976214 -0.1669976214 -0.3896611166
-0.1113317476 -0.1113317476 -0.4453269904
-0.0556658738 -0.0556658738 -0.5009928642
-0.0000000000 -0.0000000000 -0.5566587381
0.0556658738 0.0556658738 -0.6123246119
0.1113317476 0.1113317476 -0.6679904857
0.1669976214 0.1669976214 -0.7236563595
0.2226634952 0.2226634952 -0.7793222333
0.2783293690 0.2783293690 -0.8349881071
-0.2226634952 -0.3339952428 -0.2226634952
-0.1669976214 -0.2783293690 -0.2783293690
-0.1113317476 -0.2226634952 -0.3339952428
-0.0556658738 -0.1669976214 -0.3896611166
-0.0000000000 -0.1113317476 -0.4453269904
0.0556658738 -0.0556658738 -0.5009928642
0.1113317476 -0.0000000000 -0.5566587381
0.1669976214 0.0556658738 -0.6123246119
0.2226634952 0.1113317476 -0.6679904857
0.2783293690 0.1669976214 -0.7236563595
0.3339952428 0.2226634952 -0.7793222333
-0.1669976214 -0.3896611166 -0.1669976214
-0.1113317476 -0.3339952428 -0.2226634952
-0.0556658738 -0.2783293690 -0.2783293690
-0.0000000000 -0.2226634952 -0.3339952428
0.0556658738 -0.1669976214 -0.3896611166
0.1113317476 -0.1113317476 -0.4453269904
0.1669976214 -0.0556658738 -0.5009928642
0.2226634952 -0.0000000000 -0.5566587381
0.2783293690 0.0556658738 -0.6123246119
0.3339952428 0.1113317476 -0.6679904857
0.3896611166 0.1669976214 -0.7236563595
-0.1113317476 -0.4453269904 -0.1113317476
-0.0556658738 -0.3896611166 -0.1669976214
-0.0000000000 -0.3339952428 -0.2226634952
0.0556658738 -0.2783293690 -0.2783293690
0.1113317476 -0.2226634952 -0.3339952428
0.1669976214 -0.1669976214 -0.3896611166
0.2226634952 -0.1113317476 -0.4453269904
0.2783293690 -0.0556658738 -0.5009928642
0.3339952428 0.0000000000 -0.5566587381
0.3896611166 0.0556658738 -0.6123246119
0.4453269904 0.1113317476 -0.6679904857
-0.0556658738 -0.5009928642 -0.0556658738
-0.0000000000 -0.4453269904 -0.1113317476
0.0556658738 -0.3896611166 -0.1669976214
0.1113317476 -0.3339952428 -0.2226634952
0.1669976214 -0.2783293690 -0.2783293690
0.2226634952 -0.2226634952 -0.3339952428
0.2783293690 -0.1669976214 -0.3896611166
0.3339952428 -0.1113317476 -0.4453269904
0.3896611166 -0.0556658738 -0.5009928642
0.4453269904 0.0000000000 -0.5566587381
0.5009928642 0.0556658738 -0.6123246119
-0.0000000000 -0.5566587381 0.0000000000
0.0556658738 -0.5009928642 -0.0556658738
0.1113317476 -0.4453269904 -0.1113317476
0.1669976214 -0.3896611166 -0.1669976214
0.2226634952 -0.3339952428 -0.2226634952
0.2783293690 -0.2783293690 -0.2783293690
0.3339952428 -0.2226634952 -0.3339952428
0.3896611166 -0.1669976214 -0.3896611166
0.4453269904 -0.1113317476 -0.4453269904
0.5009928642 -0.0556658738 -0.5009928642
0.5566587381 0.0000000000 -0.5566587381
0.0556658738 -0.6123246119 0.0556658738
0.1113317476 -0.5566587381 0.0000000000
0.1669976214 -0.5009928642 -0.0556658738
0.2226634952 -0.4453269904 -0.1113317476
0.2783293690 -0.3896611166 -0.1669976214
0.3339952428 -0.3339952428 -0.2226634952
0.3896611166 -0.2783293690 -0.2783293690
0.4453269904 -0.2226634952 -0.3339952428
0.5009928642 -0.1669976214 -0.3896611166
0.5566587381 -0.1113317476 -0.4453269904
0.6123246119 -0.0556658738 -0.5009928642
0.1113317476 -0.6679904857 0.1113317476
0.1669976214 -0.6123246119 0.0556658738
0.2226634952 -0.5566587381 0.0000000000
0.2783293690 -0.5009928642 -0.0556658738
0.3339952428 -0.4453269904 -0.1113317476
0.3896611166 -0.3896611166 -0.1669976214
0.4453269904 -0.3339952428 -0.2226634952
0.5009928642 -0.2783293690 -0.2783293690
0.5566587381 -0.2226634952 -0.3339952428
0.6123246119 -0.1669976214 -0.3896611166
0.6679904857 -0.1113317476 -0.4453269904
0.1669976214 -0.7236563595 0.1669976214
0.2226634952 -0.6679904857 0.1113317476
0.2783293690 -0.6123246119 0.0556658738
0.3339952428 -0.5566587381 0.0000000000
0.3896611166 -0.5009928642 -0.0556658738
0.4453269904 -0.4453269904 -0.1113317476
0.5009928642 -0.3896611166 -0.1669976214
0.5566587381 -0.3339952428 -0.2226634952
0.6123246119 -0.2783293690 -0.2783293690
0.6679904857 -0.2226634952 -0.3339952428
0.7236563595 -0.1669976214 -0.3896611166
0.2226634952 -0.7793222333 0.2226634952
0.2783293690 -0.7236563595 0.1669976214
0.3339952428 -0.6679904857 0.1113317476
0.3896611166 -0.6123246119 0.0556658738
0.4453269904 -0.5566587381 0.0000000000
0.5009928642 -0.5009928642 -0.0556658738
0.5566587381 -0.4453269904 -0.1113317476
0.6123246119 -0.3896611166 -0.1669976214
0.6679904857 -0.3339952428 -0.2226634952
0.7236563595 -0.2783293690 -0.2783293690
0.7793222333 -0.2226634952 -0.3339952428
0.2783293690 -0.8349881071 0.2783293690
0.3339952428 -0.7793222333 0.2226634952
0.3896611166 -0.7236563595 0.1669976214
0.4453269904 -0.6679904857 0.1113317476
0.5009928642 -0.6123246119 0.0556658738
0.5566587381 -0.5566587381 0.0000000000
0.6123246119 -0.5009928642 -0.0556658738
0.6679904857 -0.4453269904 -0.1113317476
0.7236563595 -0.3896611166 -0.1669976214
0.7793222333 -0.3339952428 -0.2226634952
0.8349881071 -0.2783293690 -0.2783293690
-0.3339952428 -0.2226634952 -0.2226634952
-0.2783293690 -0.1669976214 -0.2783293690
-0.2226634952 -0.1113317476 -0.3339952428
-0.1669976214 -0.0556658738 -0.3896611166
-0.1113317476 -0.0000000000 -0.4453269904
-0.0556658738 0.0556658738 -0.5009928642
-0.0000000000 0.1113317476 -0.5566587381
0.0556658738 0.1669976214 -0.6123246119
0.1113317476 0.2226634952 -0.6679904857
0.1669976214 0.2783293690 -0.7236563595
0.2226634952 0.3339952428 -0.7793222333
-0.2783293690 -0.2783293690 -0.1669976214
-0.2226634952 -0.2226634952 -0.2226634952
-0.1669976214 -0.1669976214 -0.2783293690
-0.1113317476 -0.1113317476 -0.3339952428
-0.0556658738 -0.0556658738 -0.3896611166
-0.0000000000 -0.0000000000 -0.4453269904
0.0556658738 0.0556658738 -0.5009928642
0.1113317476 0.1113317476 -0.5566587381
0.1669976214 0.1669976214 -0.6123246119
0.2226634952 0.2226634952 -0.6679904857
0.2783293690 0.2783293690 -0.7236563595
-0.2226634952 -0.3339952428 -0.1113317476
-0.1669976214 -0.2783293690 -0.1669976214
-0.1113317476 -0.2226634952 -0.2226634952
-0.0556658738 -0.1669976214 -0.2783293690
-0.0000000000 -0.1113317476 -0.3339952428
0.0556658738 -0.0556658738 -0.3896611166
0.1113317476 -0.0000000000 -0.4453269904
0.1669976214 0.0556658738 -0.5009928642
0.2226634952 0.1113317476 -0.5566587381
0.2783293690 0.1669976214 -0.6123246119
0.3339952428 0.2226634952 -0.6679904857
-0.1669976214 -0.3896611166 -0.0556658738
-0.1113317476 -0.3339952428 -0.1113317476
-0.0556658738 -0.2783293690 -0.1669976214
-0.0000000000 -0.2226634952 -0.2226634952
0.0556658738 -0.1669976214 -0.2783293690
0.1113317476 -0.1113317476 -0.3339952428
0.1669976214 -0.0556658738 -0.3896611166
0.2226634952 -0.0000000000 -0.4453269904
0.2783293690 0.0556658738 -0.5009928642
0.3339952428 0.1113317476 -0.5566587381
0.3896611166 0.1669976214 -0.6123246119
-0.1113317476 -0.4453269904 0.0000000000
-0.0556658738 -0.3896611166 -0.0556658738
-0.0000000000 -0.3339952428 -0.1113317476
0.0556658738 -0.2783293690 -0.1669976214
0.1113317476 -0.2226634952 -0.2226634952
0.1669976214 -0.1669976214 -0.2783293690
0.2226634952 -0.1113317476 -0.3339952428
0.2783293690 -0.0556658738 -0.3896611166
0.3339952428 -0.0000000000 -0.4453269904
0.3896611166 0.0556658738 -0.5009928642
0.4453269904 0.1113317476 -0.5566587381
-0.0556658738 -0.5009928642 0.0556658738
-0.0000000000 -0.4453269904 0.0000000000
0.0556658738 -0.3896611166 -0.0556658738
0.1113317476 -0.3339952428 -0.1113317476
0.1669976214 -0.2783293690 -0.1669976214
0.2226634952 -0.2226634952 -0.2226634952
0.2783293690 -0.1669976214 -0.2783293690
0.3339952428 -0.1113317476 -0.3339952428
0.3896611166 -0.0556658738 -0.3896611166
0.4453269904 0.0000000000 -0.4453269904
0.5009928642 0.0556658738 -0.5009928642
-0.0000000000 -0.5566587381 0.1113317476
0.0556658738 -0.5009928642 0.0556658738
0.1113317476 -0.4453269904 -0.0000000000
0.1669976214 -0.3896611166 -0.0556658738
0.2226634952 -0.3339952428 -0.1113317476
0.2783293690 -0.2783293690 -0.1669976214
0.3339952428 -0.2226634952 -0.2226634952
0.3896611166 -0.1669976214 -0.2783293690
0.4453269904 -0.1113317476 -0.3339952428
0.5009928642 -0.0556658738 -0.3896611166
0.5566587381 0.0000000000 -0.4453269904
0.0556658738 -0.6123246119 0.1669976214
0.1113317476 -0.5566587381 0.1113317476
0.1669976214 -0.5009928642 0.0556658738
0.2226634952 -0.4453269904 0.0000000000
0.2783293690 -0.3896611166 -0.0556658738
0.3339952428 -0.3339952428 -0.1113317476
0.3896611166 -0.2783293690 -0.1669976214
0.4453269904 -0.2226634952 -0.2226634952
0.5009928642 -0.1669976214 -0.2783293690
0.5566587381 -0.1113317476 -0.3339952428
0.6123246119 -0.0556658738 -0.3896611166
0.1113317476 -0.6679904857 0.2226634952
0.1669976214 -0.6123246119 0.1669976214
0.2226634952 -0.5566587381 0.1113317476
0.2783293690 -0.5009928642 0.0556658738
0.3339952428 -0.4453269904 0.0000000000
0.3896611166 -0.3896611166 -0.0556658738
0.4453269904 -0.3339952428 -0.1113317476
0.5009928642 -0.2783293690 -0.1669976214
0.5566587381 -0.2226634952 -0.2226634952
0.6123246119 -0.1669976214 -0.2783293690
0.6679904857 -0.1113317476 -0.3339952428
0.1669976214 -0.7236563595 0.2783293690
0.2226634952 -0.6679904857 0.2226634952
0.2783293690 -0.6123246119 0.1669976214
0.3339952428 -0.5566587381 0.1113317476
0.3896611166 -0.5009928642 0.0556658738
0.4453269904 -0.4453269904 0.0000000000
0.5009928642 -0.3896611166 -0.0556658738
0.5566587381 -0.3339952428 -0.1113317476
0.6123246119 -0.2783293690 -0.1669976214
0.6679904857 -0.2226634952 -0.2226634952
0.7236563595 -0.1669976214 -0.2783293690
0.2226634952 -0.7793222333 0.3339952428
0.2783293690 -0.7236563595 0.2783293690
0.3339952428 -0.6679904857 0.2226634952
0.3896611166 -0.6123246119 0.1669976214
0.4453269904 -0.5566587381 0.1113317476
0.5009928642 -0.5009928642 0.0556658738
0.5566587381 -0.4453269904 -0.0000000000
0.6123246119 -0.3896611166 -0.0556658738
0.6679904857 -0.3339952428 -0.1113317476
0.7236563595 -0.2783293690 -0.1669976214
0.7793222333 -0.2226634952 -0.2226634952
-0.3896611166 -0.1669976214 -0.1669976214
-0.3339952428 -0.1113317476 -0.2226634952
-0.2783293690 -0.0556658738 -0.2783293690
-0.2226634952 -0.0000000000 -0.3339952428
-0.1669976214 0.0556658738 -0.3896611166
-0.1113317476 0.1113317476 -0.4453269904
-0.0556658738 0.1669976214 -0.5009928642
-0.0000000000 0.2226634952 -0.5566587381
0.0556658738 0.2783293690 -0.6123246119
0.1113317476 0.3339952428 -0.6679904857
0.1669976214 0.3896611166 -0.7236563595
-0.3339952428 -0.2226634952 -0.1113317476
-0.2783293690 -0.1669976214 -0.1669976214
-0.2226634952 -0.1113317476 -0.2226634952
-0.1669976214 -0.0556658738 -0.2783293690
-0.1113317476 -0.0000000000 -0.3339952428
-0.0556658738 0.0556658738 -0.3896611166
-0.0000000000 0.1113317476 -0.4453269904
0.0556658738 0.1669976214 -0.5009928642
0.1113317476 0.2226634952 -0.5566587381
0.1669976214 0.2783293690 -0.6123246119
0.2226634952 0.3339952428 -0.6679904857
-0.2783293690 -0.2783293690 -0.0556658738
-0.2226634952 -0.2226634952 -0.1113317476
-0.1669976214 -0.1669976214 -0.1669976214
-0.1113317476 -0.1113317476 -0.2226634952
-0.0556658738 -0.0556658738 -0.2783293690
-0.0000000000 -0.0000000000 -0.3339952428
0.0556658738 0.0556658738 -0.3896611166
0.1113317476 0.1113317476 -0.4453269904
0.1669976214 0.1669976214 -0.5009928642
0.2226634952 0.2226634952 -0.5566587381
0.2783293690 0.2783293690 -0.6123246119
-0.2226634952 -0.3339952428 0.0000000000
-0.1669976214 -0.2783293690 -0.0556658738
-0.1113317476 -0.2226634952 -0.1113317476
-0.0556658738 -0.1669976214 -0.1669976214
-0.0000000000 -0.1113317476 -0.2226634952
0.0556658738 -0.0556658738 -0.2783293690
0.1113317476 -0.0000000000 -0.3339952428
0.1669976214 0.0556658738 -0.3896611166
0.2226634952 0.1113317476 -0.4453269904
0.2783293690 0.1669976214 -0.5009928642
0.3339952428 0.2226634952 -0.5566587381
-0.1669976214 -0.3896611166 0.0556658738
-0.1113317476 -0.3339952428 0.0000000000
-0.0556658738 -0.2783293690 -0.0556658738
-0.0000000000 -0.2226634952 -0.1113317476
0.0556658738 -0.1669976214 -0.1669976214
0.1113317476 -0.1113317476 -0.2226634952
0.1669976214 -0.0556658738 -0.2783293690
0.2226634952 0.0000000000 -0.3339952428
0.2783293690 0.0556658738 -0.3896611166
0.3339952428 0.1113317476 -0.4453269904
0.3896611166 0.1669976214 -0.5009928642
-0.1113317476 -0.4453269904 0.1113317476
-0.0556658738 -0.3896611166 0.0556658738
-0.0000000000 -0.3339952428 0.0000000000
0.0556658738 -0.2783293690 -0.0556658738
0.1113317476 -0.2226634952 -0.1113317476
0.1669976214 -0.1669976214 -0.1669976214
0.2226634952 -0.1113317476 -0.2226634952
0.2783293690 -0.0556658738 -0.2783293690
0.3339952428 0.0000000000 -0.3339952428
0.3896611166 0.0556658738 -0.3896611166
0.4453269904 0.1113317476 -0.4453269904
-0.0556658738 -0.5009928642 0.1669976214
-0.0000000000 -0.4453269904 0.1113317476
0.0556658738 -0.3896611166 0.0556658738
0.1113317476 -0.3339952428 0.0000000000
0.1669976214 -0.2783293690 -0.0556658738
0.2226634952 -0.2226634952 -0.1113317476
0.2783293690 -0.1669976214 -0.1669976214
0.3339952428 -0.1113317476 -0.2226634952
0.3896611166 -0.0556658738 -0.2783293690
0.4453269904 0.0000000000 -0.3339952428
0.5009928642 0.0556658738 -0.3896611166
-0.0000000000 -0.5566587381 0.2226634952
0.0556658738 -0.5009928642 0.1669976214
0.1113317476 -0.4453269904 0.1113317476
0.1669976214 -0.3896611166 0.0556658738
0.2226634952 -0.3339952428 0.0000000000
0.2783293690 -0.2783293690 -0.0556658738
0.3339952428 -0.2226634952 -0.1113317476
0.3896611166 -0.1669976214 -0.1669976214
0.4453269904 -0.1113317476 -0.2226634952
0.5009928642 -0.0556658738 -0.2783293690
0.5566587381 0.0000000000 -0.3339952428
0.0556658738 -0.6123246119 0.2783293690
0.1113317476 -0.5566587381 0.2226634952
0.1669976214 -0.5009928642 0.1669976214
0.2226634952 -0.4453269904 0.1113317476
0.2783293690 -0.3896611166 0.0556658738
0.3339952428 -0.3339952428 0.0000000000
0.3896611166 -0.2783293690 -0.0556658738
0.4453269904 -0.2226634952 -0.1113317476
0.5009928642 -0.1669976214 -0.1669976214
0.5566587381 -0.1113317476 -0.2226634952
0.6123246119 -0.0556658738 -0.2783293690
0.1113317476 -0.6679904857 0.3339952428
0.1669976214 -0.6123246119 0.2783293690
0.2226634952 -0.5566587381 0.2226634952
0.2783293690 -0.5009928642 0.1669976214
0.3339952428 -0.4453269904 0.1113317476
0.3896611166 -0.3896611166 0.0556658738
0.4453269904 -0.3339952428 0.0000000000
0.5009928642 -0.2783293690 -0.0556658738
0.5566587381 -0.2226634952 -0.1113317476
0.6123246119 -0.1669976214 -0.1669976214
0.6679904857 -0.1113317476 -0.2226634952
0.1669976214 -0.7236563595 0.3896611166
0.2226634952 -0.6679904857 0.3339952428
0.2783293690 -0.6123246119 0.2783293690
0.3339952428 -0.5566587381 0.2226634952
0.3896611166 -0.5009928642 0.1669976214
0.4453269904 -0.4453269904 0.1113317476
0.5009928642 -0.3896611166 0.0556658738
0.5566587381 -0.3339952428 0.0000000000
0.6123246119 -0.2783293690 -0.0556658738
0.6679904857 -0.2226634952 -0.1113317476
0.7236563595 -0.1669976214 -0.1669976214
-0.4453269904 -0.1113317476 -0.1113317476
-0.3896611166 -0.0556658738 -0.1669976214
-0.3339952428 -0.0000000000 -0.2226634952
-0.2783293690 0.0556658738 -0.2783293690
-0.2226634952 0.1113317476 -0.3339952428
-0.1669976214 0.1669976214 -0.3896611166
-0.1113317476 0.2226634952 -0.4453269904
-0.0556658738 0.2783293690 -0.5009928642
-0.0000000000 0.3339952428 -0.5566587381
0.0556658738 0.3896611166 -0.6123246119
0.1113317476 0.4453269904 -0.6679904857
-0.3896611166 -0.1669976214 -0.0556658738
-0.3339952428 -0.1113317476 -0.1113317476
-0.2783293690 -0.0556658738 -0.1669976214
-0.2226634952 -0.0000000000 -0.2226634952
-0.1669976214 0.0556658738 -0.2783293690
-0.1113317476 0.1113317476 -0.3339952428
-0.0556658738 0.1669976214 -0.3896611166
-0.0000000000 0.2226634952 -0.4453269904
0.0556658738 0.2783293690 -0.5009928642
0.1113317476 0.3339952428 -0.5566587381
0.1669976214 0.3896611166 -0.6123246119
-0.3339952428 -0.2226634952 0.0000000000
-0.2783293690 -0.1669976214 -0.0556658738
-0.2226634952 -0.1113317476 -0.1113317476
-0.1669976214 -0.0556658738 -0.1669976214
-0.1113317476 -0.0000000000 -0.2226634952
-0.0556658738 0.0556658738 -0.2783293690
-0.0000000000 0.1113317476 -0.3339952428
0.0556658738 0.1669976214 -0.3896611166
0.1113317476 0.2226634952 -0.4453269904
0.1669976214 0.2783293690 -0.5009928642
0.2226634952 0.3339952428 -0.5566587381
-0.2783293690 -0.2783293690 0.0556658738
-0.2226634952 -0.2226634952 -0.0000000000
-0.1669976214 -0.1669976214 -0.0556658738
-0.1113317476 -0.1113317476 -0.1113317476
-0.0556658738 -0.0556658738 -0.1669976214
-0.0000000000 -0.0000000000 -0.2226634952
0.0556658738 0.0556658738 -0.2783293690
0.1113317476 0.1113317476 -0.3339952428
0.1669976214 0.1669976214 -0.3896611166
0.2226634952 0.2226634952 -0.4453269904
0.2783293690 0.2783293690 -0.5009928642
-0.2226634952 -0.3339952428 0.1113317476
-0.1669976214 -0.2783293690 0.0556658738
-0.1113317476 -0.2226634952 -0.0000000000
-0.0556658738 -0.1669976214 -0.0556658738
-0.0000000000 -0.1113317476 -0.1113317476
0.0556658738 -0.0556658738 -0.1669976214
0.1113317476 -0.0000000000 -0.2226634952
0.1669976214 0.0556658738 -0.2783293690
0.2226634952 0.1113317476 -0.3339952428
0.2783293690 0.1669976214 -0.3896611166
0.3339952428 0.2226634952 -0.4453269904
-0.1669976214 -0.3896611166 0.1669976214
-0.1113317476 -0.3339952428 0.1113317476
-0.0556658738 -0.2783293690 0.0556658738
-0.0000000000 -0.2226634952 0.0000000000
0.0556658738 -0.1669976214 -0.0556658738
0.1113317476 -0.1113317476 -0.1113317476
0.1669976214 -0.0556658738 -0.1669976214
0.2226634952 0.0000000000 -0.2226634952
0.2783293690 0.0556658738 -0.2783293690
0.3339952428 0.1113317476 -0.3339952428
0.3896611166 0.1669976214 -0.3896611166
-0.1113317476 -0.4453269904 0.2226634952
-0.0556658738 -0.3896611166 0.1669976214
-0.0000000000 -0.3339952428 0.1113317476
0.0556658738 -0.2783293690 0.0556658738
0.1113317476 -0.2226634952 0.0000000000
0.1669976214 -0.1669976214 -0.0556658738
0.2226634952 -0.1113317476 -0.1113317476
0.2783293690 -0.0556658738 -0.1669976214
0.3339952428 0.0000000000 -0.2226634952
0.3896611166 0.0556658738 -0.2783293690
0.4453269904 0.1113317476 -0.3339952428
-0.0556658738 -0.5009928642 0.2783293690
-0.0000000000 -0.4453269904 0.2226634952
0.0556658738 -0.3896611166 0.1669976214
0.1113317476 -0.3339952428 0.1113317476
0.1669976214 -0.2783293690 0.0556658738
0.2226634952 -0.2226634952 0.0000000000
0.2783293690 -0.1669976214 -0.0556658738
0.3339952428 -0.1113317476 -0.1113317476
0.3896611166 -0.0556658738 -0.1669976214
0.4453269904 0.0000000000 -0.2226634952
0.5009928642 0.0556658738 -0.2783293690
-0.0000000000 -0.5566587381 0.3339952428
0.0556658738 -0.5009928642 0.2783293690
0.1113317476 -0.4453269904 0.2226634952
0.1669976214 -0.3896611166 0.1669976214
0.2226634952 -0.3339952428 0.1113317476
0.2783293690 -0.2783293690 0.0556658738
0.3339952428 -0.2226634952 0.0000000000
0.3896611166 -0.1669976214 -0.0556658738
0.4453269904 -0.1113317476 -0.1113317476
0.5009928642 -0.0556658738 -0.1669976214
0.5566587381 0.0000000000 -0.2226634952
0.0556658738 -0.6123246119 0.3896611166
0.1113317476 -0.5566587381 0.3339952428
0.1669976214 -0.5009928642 0.2783293690
0.2226634952 -0.4453269904 0.2226634952
0.2783293690 -0.3896611166 0.1669976214
0.3339952428 -0.3339952428 0.1113317476
0.3896611166 -0.2783293690 0.0556658738
0.4453269904 -0.2226634952 0.0000000000
0.5009928642 -0.1669976214 -0.0556658738
0.5566587381 -0.1113317476 -0.1113317476
0.6123246119 -0.0556658738 -0.1669976214
0.1113317476 -0.6679904857 0.4453269904
0.1669976214 -0.6123246119 0.3896611166
0.2226634952 -0.5566587381 0.3339952428
0.2783293690 -0.5009928642 0.2783293690
0.3339952428 -0.4453269904 0.2226634952
0.3896611166 -0.3896611166 0.1669976214
0.4453269904 -0.3339952428 0.1113317476
0.5009928642 -0.2783293690 0.0556658738
0.5566587381 -0.2226634952 0.0000000000
0.6123246119 -0.1669976214 -0.0556658738
0.6679904857 -0.1113317476 -0.1113317476
-0.5009928642 -0.0556658738 -0.0556658738
-0.4453269904 -0.0000000000 -0.1113317476
-0.3896611166 0.0556658738 -0.1669976214
-0.3339952428 0.1113317476 -0.2226634952
-0.2783293690 0.1669976214 -0.2783293690
-0.2226634952 0.2226634952 -0.3339952428
-0.1669976214 0.2783293690 -0.3896611166
-0.1113317476 0.3339952428 -0.4453269904
-0.0556658738 0.3896611166 -0.5009928642
0.0000000000 0.4453269904 -0.5566587381
0.0556658738 0.5009928642 -0.6123246119
-0.4453269904 -0.1113317476 -0.0000000000
-0.3896611166 -0.0556658738 -0.0556658738
-0.3339952428 -0.0000000000 -0.1113317476
-0.2783293690 0.0556658738 -0.1669976214
-0.2226634952 0.1113317476 -0.2226634952
-0.1669976214 0.1669976214 -0.2783293690
-0.1113317476 0.2226634952 -0.3339952428
-0.0556658738 0.2783293690 -0.3896611166
0.0000000000 0.3339952428 -0.4453269904
0.0556658738 0.3896611166 -0.5009928642
0.1113317476 0.4453269904 -0.5566587381
-0.3896611166 -0.1669976214 0.0556658738
-0.3339952428 -0.1113317476 0.0000000000
-0.2783293690 -0.0556658738 -0.0556658738
-0.2226634952 -0.0000000000 -0.1113317476
-0.1669976214 0.0556658738 -0.1669976214
-0.1113317476 0.1113317476 -0.2226634952
-0.0556658738 0.1669976214 -0.2783293690
0.0000000000 0.2226634952 -0.3339952428
0.0556658738 0.2783293690 -0.3896611166
0.1113317476 0.3339952428 -0.4453269904
0.1669976214 0.3896611166 -0.5009928642
-0.3339952428 -0.2226634952 0.1113317476
-0.2783293690 -0.1669976214 0.0556658738
-0.2226634952 -0.1113317476 -0.0000000000
-0.1669976214 -0.0556658738 -0.0556658738
-0.1113317476 -0.0000000000 -0.1113317476
-0.0556658738 0.0556658738 -0.1669976214
-0.0000000000 0.1113317476 -0.2226634952
0.0556658738 0.1669976214 -0.2783293690
0.1113317476 0.2226634952 -0.3339952428
0.1669976214 0.2783293690 -0.3896611166
0.2226634952 0.3339952428 -0.4453269904
-0.2783293690 -0.2783293690 0.1669976214
-0.2226634952 -0.2226634952 0.1113317476
-0.1669976214 -0.1669976214 0.0556658738
-0.1113317476 -0.1113317476 -0.0000000000
-0.0556658738 -0.0556658738 -0.0556658738
-0.0000000000 -0.0000000000 -0.1113317476
0.0556658738 0.0556658738 -0.1669976214
0.1113317476 0.1113317476 -0.2226634952
0.1669976214 0.1669976214 -0.2783293690
0.2226634952 0.2226634952 -0.3339952428
0.2783293690 0.2783293690 -0.3896611166
-0.2226634952 -0.3339952428 0.2226634952
-0.1669976214 -0.2783293690 0.1669976214
-0.1113317476 -0.2226634952 0.1113317476
-0.0556658738 -0.1669976214 0.0556658738
-0.0000000000 -0.1113317476 0.0000000000
0.0556658738 -0.0556658738 -0.0556658738
0.1113317476 0.0000000000 -0.1113317476
0.1669976214 0.0556658738 -0.1669976214
0.2226634952 0.1113317476 -0.2226634952
0.2783293690 0.1669976214 -0.2783293690
0.3339952428 0.2226634952 -0.3339952428
-0.1669976214 -0.3896611166 0.2783293690
-0.1113317476 -0.3339952428 0.2226634952
-0.0556658738 -0.2783293690 0.1669976214
-0.0000000000 -0.2226634952 0.1113317476
0.0556658738 -0.1669976214 0.0556658738
0.1113317476 -0.1113317476 0.0000000000
0.1669976214 -0.0556658738 -0.0556658738
0.2226634952 0.0000000000 -0.1113317476
0.2783293690 0.0556658738 -0.1669976214
0.3339952428 0.1113317476 -0.2226634952
0.3896611166 0.1669976214 -0.2783293690
-0.1113317476 -0.4453269904 0.3339952428
-0.0556658738 -0.3896611166 0.2783293690
-0.0000000000 -0.3339952428 0.2226634952
0.0556658738 -0.2783293690 0.1669976214
0.1113317476 -0.2226634952 0.1113317476
0.1669976214 -0.1669976214 0.0556658738
0.2226634952 -0.1113317476 0.0000000000
0.2783293690 -0.0556658738 -0.0556658738
0.3339952428 0.0000000000 -0.1113317476
0.3896611166 0.0556658738 -0.1669976214
0.4453269904 0.1113317476 -0.2226634952
-0.0556658738 -0.5009928642 0.3896611166
-0.0000000000 -0.4453269904 0.3339952428
0.0556658738 -0.3896611166 0.2783293690
0.1113317476 -0.3339952428 0.2226634952
0.1669976214 -0.2783293690 0.1669976214
0.2226634952 -0.2226634952 0.1113317476
0.2783293690 -0.1669976214 0.0556658738
0.3339952428 -0.1113317476 0.0000000000
0.3896611166 -0.0556658738 -0.0556658738
0.4453269904 0.0000000000 -0.1113317476
0.5009928642 0.0556658738 -0.1669976214
0.0000000000 -0.5566587381 0.4453269904
0.0556658738 -0.5009928642 0.3896611166
0.1113317476 -0.4453269904 0.3339952428
0.1669976214 -0.3896611166 0.2783293690
0.2226634952 -0.3339952428 0.2226634952
0.2783293690 -0.2783293690 0.1669976214
0.3339952428 -0.2226634952 0.1113317476
0.3896611166 -0.1669976214 0.0556658738
0.4453269904 -0.1113317476 0.0000000000
0.5009928642 -0.0556658738 -0.0556658738
0.5566587381 0.0000000000 -0.1113317476
0.0556658738 -0.6123246119 0.5009928642
0.1113317476 -0.5566587381 0.4453269904
0.1669976214 -0.5009928642 0.3896611166
0.2226634952 -0.4453269904 0.3339952428
0.2783293690 -0.3896611166 0.2783293690
0.3339952428 -0.3339952428 0.2226634952
0.3896611166 -0.2783293690 0.1669976214
0.4453269904 -0.2226634952 0.1113317476
0.5009928642 -0.1669976214 0.0556658738
0.5566587381 -0.1113317476 0.0000000000
0.6123246119 -0.0556658738 -0.0556658738
-0.5566587381 -0.0000000000 0.0000000000
-0.5009928642 0.0556658738 -0.0556658738
-0.4453269904 0.1113317476 -0.1113317476
-0.3896611166 0.1669976214 -0.1669976214
-0.3339952428 0.2226634952 -0.2226634952
-0.2783293690 0.2783293690 -0.2783293690
-0.2226634952 0.3339952428 -0.3339952428
-0.1669976214 0.3896611166 -0.3896611166
-0.1113317476 0.4453269904 -0.4453269904
-0.0556658738 0.5009928642 -0.5009928642
0.0000000000 0.5566587381 -0.5566587381
-0.5009928642 -0.0556658738 0.0556658738
-0.4453269904 -0.0000000000 -0.0000000000
-0.3896611166 0.0556658738 -0.0556658738
-0.3339952428 0.1113317476 -0.1113317476
-0.2783293690 0.1669976214 -0.1669976214
-0.2226634952 0.2226634952 -0.2226634952
-0.1669976214 0.2783293690 -0.2783293690
-0.1113317476 0.3339952428 -0.3339952428
-0.0556658738 0.3896611166 -0.3896611166
0.0000000000 0.4453269904 -0.4453269904
0.0556658738 0.5009928642 -0.5009928642
-0.4453269904 -0.1113317476 0.1113317476
-0.3896611166 -0.0556658738 0.0556658738
-0.3339952428 -0.0000000000 -0.0000000000
-0.2783293690 0.0556658738 -0.0556658738
-0.2226634952 0.1113317476 -0.1113317476
-0.1669976214 0.1669976214 -0.1669976214
-0.1113317476 0.2226634952 -0.2226634952
-0.0556658738 0.2783293690 -0.2783293690
0.0000000000 0.3339952428 -0.3339952428
0.0556658738 0.3896611166 -0.3896611166
0.1113317476 0.4453269904 -0.4453269904
-0.3896611166 -0.1669976214 0.1669976214
-0.3339952428 -0.1113317476 0.1113317476
-0.2783293690 -0.0556658738 0.0556658738
-0.2226634952 -0.0000000000 -0.0000000000
-0.1669976214 0.0556658738 -0.0556658738
-0.1113317476 0.1113317476 -0.1113317476
-0.0556658738 0.1669976214 -0.1669976214
0.0000000000 0.2226634952 -0.2226634952
0.0556658738 0.2783293690 -0.2783293690
0.1113317476 0.3339952428 -0.3339952428
0.1669976214 0.3896611166 -0.3896611166
-0.3339952428 -0.2226634952 0.2226634952
-0.2783293690 -0.1669976214 0.1669976214
-0.2226634952 -0.1113317476 0.1113317476
-0.1669976214 -0.0556658738 0.0556658738
-0.1113317476 -0.0000000000 -0.0000000000
-0.0556658738 0.0556658738 -0.0556658738
0.0000000000 0.1113317476 -0.1113317476
0.0556658738 0.1669976214 -0.1669976214
0.1113317476 0.2226634952 -0.2226634952
0.1669976214 0.2783293690 -0.2783293690
0.2226634952 0.3339952428 -0.3339952428
-0.2783293690 -0.2783293690 0.2783293690
-0.2226634952 -0.2226634952 0.2226634952
-0.1669976214 -0.1669976214 0.1669976214
-0.1113317476 -0.1113317476 0.1113317476
-0.0556658738 -0.0556658738 0.0556658738
0.0000000000 0.0000000000 0.0000000000
0.0556658738 0.0556658738 -0.0556658738
0.1113317476 0.1113317476 -0.1113317476
0.1669976214 0.1669976214 -0.1669976214
0.2226634952 0.2226634952 -0.2226634952
0.2783293690 0.2783293690 -0.2783293690
-0.2226634952 -0.3339952428 0.3339952428
-0.1669976214 -0.2783293690 0.2783293690
-0.1113317476 -0.2226634952 0.2226634952
-0.0556658738 -0.1669976214 0.1669976214
-0.0000000000 -0.1113317476 0.1113317476
0.0556658738 -0.0556658738 0.0556658738
0.1113317476 0.0000000000 0.0000000000
0.1669976214 0.0556658738 -0.0556658738
0.2226634952 0.1113317476 -0.1113317476
0.2783293690 0.1669976214 -0.1669976214
0.3339952428 0.2226634952 -0.2226634952
-0.1669976214 -0.3896611166 0.3896611166
-0.1113317476 -0.3339952428 0.3339952428
-0.0556658738 -0.2783293690 0.2783293690
-0.0000000000 -0.2226634952 0.2226634952
0.0556658738 -0.1669976214 0.1669976214
0.1113317476 -0.1113317476 0.1113317476
0.1669976214 -0.0556658738 0.0556658738
0.2226634952 0.0000000000 0.0000000000
0.2783293690 0.0556658738 -0.0556658738
0.3339952428 0.1113317476 -0.1113317476
0.3896611166 0.1669976214 -0.1669976214
-0.1113317476 -0.4453269904 0.4453269904
-0.0556658738 -0.3896611166 0.3896611166
-0.0000000000 -0.3339952428 0.3339952428
0.0556658738 -0.2783293690 0.2783293690
0.1113317476 -0.2226634952 0.2226634952
0.1669976214 -0.1669976214 0.1669976214
0.2226634952 -0.1113317476 0.1113317476
0.2783293690 -0.0556658738 0.0556658738
0.3339952428 0.0000000000 0.0000000000
0.3896611166 0.0556658738 -0.0556658738
0.4453269904 0.1113317476 -0.1113317476
-0.0556658738 -0.5009928642 0.5009928642
-0.0000000000 -0.4453269904 0.4453269904
0.0556658738 -0.3896611166 0.3896611166
0.1113317476 -0.3339952428 0.3339952428
0.1669976214 -0.2783293690 0.2783293690
0.2226634952 -0.2226634952 0.2226634952
0.2783293690 -0.1669976214 0.1669976214
0.3339952428 -0.1113317476 0.1113317476
0.3896611166 -0.0556658738 0.0556658738
0.4453269904 0.0000000000 0.0000000000
0.5009928642 0.0556658738 -0.0556658738
0.0000000000 -0.5566587381 0.5566587381
0.0556658738 -0.5009928642 0.5009928642
0.1113317476 -0.4453269904 0.4453269904
0.1669976214 -0.3896611166 0.3896611166
0.2226634952 -0.3339952428 0.3339952428
0.2783293690 -0.2783293690 0.2783293690
0.3339952428 -0.2226634952 0.2226634952
0.3896611166 -0.1669976214 0.1669976214
0.4453269904 -0.1113317476 0.1113317476
0.5009928642 -0.0556658738 0.0556658738
0.5566587381 0.0000000000 0.0000000000
-0.6123246119 0.0556658738 0.0556658738
-0.5566587381 0.1113317476 0.0000000000
-0.5009928642 0.1669976214 -0.0556658738
-0.4453269904 0.2226634952 -0.1113317476
-0.3896611166 0.2783293690 -0.1669976214
-0.3339952428 0.3339952428 -0.2226634952
-0.2783293690 0.3896611166 -0.2783293690
-0.2226634952 0.4453269904 -0.3339952428
-0.1669976214 0.5009928642 -0.3896611166
-0.1113317476 0.5566587381 -0.4453269904
-0.0556658738 0.6123246119 -0.5009928642
-0.5566587381 -0.0000000000 0.1113317476
-0.5009928642 0.0556658738 0.0556658738
-0.4453269904 0.1113317476 -0.0000000000
-0.3896611166 0.1669976214 -0.0556658738
-0.3339952428 0.2226634952 -0.1113317476
-0.2783293690 0.2783293690 -0.1669976214
-0.2226634952 0.3339952428 -0.2226634952
-0.1669976214 0.3896611166 -0.2783293690
-0.1113317476 0.4453269904 -0.3339952428
-0.0556658738 0.5009928642 -0.3896611166
0.0000000000 0.5566587381 -0.4453269904
-0.5009928642 -0.0556658738 0.1669976214
-0.4453269904 -0.0000000000 0.1113317476
-0.3896611166 0.0556658738 0.0556658738
-0.3339952428 0.1113317476 -0.0000000000
-0.2783293690 0.1669976214 -0.0556658738
-0.2226634952 0.2226634952 -0.1113317476
-0.1669976214 0.2783293690 -0.1669976214
-0.1113317476 0.3339952428 -0.2226634952
-0.0556658738 0.3896611166 -0.2783293690
0.0000000000 0.4453269904 -0.3339952428
0.0556658738 0.5009928642 -0.3896611166
-0.4453269904 -0.1113317476 0.2226634952
-0.3896611166 -0.0556658738 0.1669976214
-0.3339952428 -0.0000000000 0.1113317476
-0.2783293690 0.0556658738 0.0556658738
-0.2226634952 0.1113317476 -0.0000000000
-0.1669976214 0.1669976214 -0.0556658738
-0.1113317476 0.2226634952 -0.1113317476
-0.0556658738 0.2783293690 -0.1669976214
0.0000000000 0.3339952428 -0.2226634952
0.0556658738 0.3896611166 -0.2783293690
0.1113317476 0.4453269904 -0.3339952428
-0.3896611166 -0.1669976214 0.2783293690
-0.3339952428 -0.1113317476 0.2226634952
-0.2783293690 -0.0556658738 0.1669976214
-0.2226634952 -0.0000000000 0.1113317476
-0.1669976214 0.0556658738 0.0556658738
-0.1113317476 0.1113317476 -0.0000000000
-0.0556658738 0.1669976214 -0.0556658738
0.0000000000 0.2226634952 -0.1113317476
0.0556658738 0.2783293690 -0.1669976214
0.1113317476 0.3339952428 -0.2226634952
0.1669976214 0.3896611166 -0.2783293690
-0.3339952428 -0.2226634952 0.3339952428
-0.2783293690 -0.1669976214 0.2783293690
-0.2226634952 -0.1113317476 0.2226634952
-0.1669976214 -0.0556658738 0.1669976214
-0.1113317476 0.0000000000 0.1113317476
-0.0556658738 0.0556658738 0.0556658738
0.0000000000 0.1113317476 0.0000000000
0.0556658738 0.1669976214 -0.0556658738
0.1113317476 0.2226634952 -0.1113317476
0.1669976214 0.2783293690 -0.1669976214
0.2226634952 0.3339952428 -0.2226634952
-0.2783293690 -0.2783293690 0.3896611166
-0.2226634952 -0.2226634952 0.3339952428
-0.1669976214 -0.1669976214 0.2783293690
-0.1113317476 -0.1113317476 0.2226634952
-0.0556658738 -0.0556658738 0.1669976214
0.0000000000 0.0000000000 0.1113317476
0.0556658738 0.0556658738 0.0556658738
0.1113317476 0.1113317476 0.0000000000
0.1669976214 0.1669976214 -0.0556658738
0.2226634952 0.2226634952 -0.1113317476
0.2783293690 0.2783293690 -0.1669976214
-0.2226634952 -0.3339952428 0.4453269904
-0.1669976214 -0.2783293690 0.3896611166
-0.1113317476 -0.2226634952 0.3339952428
-0.0556658738 -0.1669976214 0.2783293690
0.0000000000 -0.1113317476 0.2226634952
0.0556658738 -0.0556658738 0.1669976214
0.1113317476 0.0000000000 0.1113317476
0.1669976214 0.0556658738 0.0556658738
0.2226634952 0.1113317476 0.0000000000
0.2783293690 0.1669976214 -0.0556658738
0.3339952428 0.2226634952 -0.1113317476
-0.1669976214 -0.3896611166 0.5009928642
-0.1113317476 -0.3339952428 0.4453269904
-0.0556658738 -0.2783293690 0.3896611166
-0.0000000000 -0.2226634952 0.3339952428
0.0556658738 -0.1669976214 0.2783293690
0.1113317476 -0.1113317476 0.2226634952
0.1669976214 -0.0556658738 0.1669976214
0.2226634952 0.0000000000 0.1113317476
0.2783293690 0.0556658738 0.0556658738
0.3339952428 0.1113317476 0.0000000000
0.3896611166 0.1669976214 -0.0556658738
-0.1113317476 -0.4453269904 0.5566587381
-0.0556658738 -0.3896611166 0.5009928642
0.0000000000 -0.3339952428 0.4453269904
0.0556658738 -0.2783293690 0.3896611166
0.1113317476 -0.2226634952 0.3339952428
0.1669976214 -0.1669976214 0.2783293690
0.2226634952 -0.1113317476 0.2226634952
0.2783293690 -0.0556658738 0.1669976214
0.3339952428 0.0000000000 0.1113317476
0.3896611166 0.0556658738 0.0556658738
0.4453269904 0.1113317476 0.0000000000
-0.0556658738 -0.5009928642 0.6123246119
0.0000000000 -0.4453269904 0.5566587381
0.0556658738 -0.3896611166 0.5009928642
0.1113317476 -0.3339952428 0.4453269904
0.1669976214 -0.2783293690 0.3896611166
0.2226634952 -0.2226634952 0.3339952428
0.2783293690 -0.1669976214 0.2783293690
0.3339952428 -0.1113317476 0.2226634952
0.3896611166 -0.0556658738 0.1669976214
0.4453269904 0.0000000000 0.1113317476
0.5009928642 0.0556658738 0.0556658738
-0.6679904857 0.1113317476 0.1113317476
-0.6123246119 0.1669976214 0.0556658738
-0.5566587381 0.2226634952 -0.0000000000
-0.5009928642 0.2783293690 -0.0556658738
-0.4453269904 0.3339952428 -0.1113317476
-0.3896611166 0.3896611166 -0.1669976214
-0.3339952428 0.4453269904 -0.2226634952
-0.2783293690 0.5009928642 -0.2783293690
-0.2226634952 0.5566587381 -0.3339952428
-0.1669976214 0.6123246119 -0.3896611166
-0.1113317476 0.6679904857 -0.4453269904
-0.6123246119 0.0556658738 0.1669976214
-0.5566587381 0.1113317476 0.1113317476
-0.5009928642 0.1669976214 0.0556658738
-0.4453269904 0.2226634952 -0.0000000000
-0.3896611166 0.2783293690 -0.0556658738
-0.3339952428 0.3339952428 -0.1113317476
-0.2783293690 0.3896611166 -0.1669976214
-0.2226634952 0.4453269904 -0.2226634952
-0.1669976214 0.5009928642 -0.2783293690
-0.1113317476 0.5566587381 -0.3339952428
-0.0556658738 0.6123246119 -0.3896611166
-0.5566587381 -0.0000000000 0.2226634952
-0.5009928642 0.0556658738 0.1669976214
-0.4453269904 0.1113317476 0.1113317476
-0.3896611166 0.1669976214 0.0556658738
-0.3339952428 0.2226634952 -0.0000000000
-0.2783293690 0.2783293690 -0.0556658738
-0.2226634952 0.3339952428 -0.1113317476
-0.1669976214 0.3896611166 -0.1669976214
-0.1113317476 0.4453269904 -0.2226634952
-0.0556658738 0.5009928642 -0.2783293690
0.0000000000 0.5566587381 -0.3339952428
-0.5009928642 -0.0556658738 0.2783293690
-0.4453269904 -0.0000000000 0.2226634952
-0.3896611166 0.0556658738 0.1669976214
-0.3339952428 0.1113317476 0.1113317476
-0.2783293690 0.1669976214 0.0556658738
-0.2226634952 0.2226634952 -0.0000000000
-0.1669976214 0.2783293690 -0.0556658738
-0.1113317476 0.3339952428 -0.1113317476
-0.0556658738 0.3896611166 -0.1669976214
0.0000000000 0.4453269904 -0.2226634952
0.0556658738 0.5009928642 -0.2783293690
-0.4453269904 -0.1113317476 0.3339952428
-0.3896611166 -0.0556658738 0.2783293690
-0.3339952428 0.0000000000 0.2226634952
-0.2783293690 0.0556658738 0.1669976214
-0.2226634952 0.1113317476 0.1113317476
-0.1669976214 0.1669976214 0.0556658738
-0.1113317476 0.2226634952 -0.0000000000
-0.0556658738 0.2783293690 -0.0556658738
0.0000000000 0.3339952428 -0.1113317476
0.0556658738 0.3896611166 -0.1669976214
0.1113317476 0.4453269904 -0.2226634952
-0.3896611166 -0.1669976214 0.3896611166
-0.3339952428 -0.1113317476 0.3339952428
-0.2783293690 -0.0556658738 0.2783293690
-0.2226634952 0.0000000000 0.2226634952
-0.1669976214 0.0556658738 0.1669976214
-0.1113317476 0.1113317476 0.1113317476
-0.0556658738 0.1669976214 0.0556658738
0.0000000000 0.2226634952 0.0000000000
0.0556658738 0.2783293690 -0.0556658738
0.1113317476 0.3339952428 -0.1113317476
0.1669976214 0.3896611166 -0.1669976214
-0.3339952428 -0.2226634952 0.4453269904
-0.2783293690 -0.1669976214 0.3896611166
-0.2226634952 -0.1113317476 0.3339952428
-0.1669976214 -0.0556658738 0.2783293690
-0.1113317476 0.0000000000 0.2226634952
-0.0556658738 0.0556658738 0.1669976214
0.0000000000 0.1113317476 0.1113317476
0.0556658738 0.1669976214 0.0556658738
0.1113317476 0.2226634952 0.0000000000
0.1669976214 0.2783293690 -0.0556658738
0.2226634952 0.3339952428 -0.1113317476
-0.2783293690 -0.2783293690 0.5009928642
-0.2226634952 -0.2226634952 0.4453269904
-0.1669976214 -0.1669976214 0.3896611166
-0.1113317476 -0.1113317476 0.3339952428
-0.0556658738 -0.0556658738 0.2783293690
0.0000000000 0.0000000000 0.2226634952
0.0556658738 0.0556658738 0.1669976214
0.1113317476 0.1113317476 0.1113317476
0.1669976214 0.1669976214 0.0556658738
0.2226634952 0.2226634952 0.0000000000
0.2783293690 0.2783293690 -0.0556658738
-0.2226634952 -0.3339952428 0.5566587381
-0.1669976214 -0.2783293690 0.5009928642
-0.1113317476 -0.2226634952 0.4453269904
-0.0556658738 -0.1669976214 0.3896611166
0.0000000000 -0.1113317476 0.3339952428
0.0556658738 -0.0556658738 0.2783293690
0.1113317476 0.0000000000 0.2226634952
0.1669976214 0.0556658738 0.1669976214
0.2226634952 0.1113317476 0.1113317476
0.2783293690 0.1669976214 0.0556658738
0.3339952428 0.2226634952 0.0000000000
-0.1669976214 -0.3896611166 0.6123246119
-0.1113317476 -0.3339952428 0.5566587381
-0.0556658738 -0.2783293690 0.5009928642
0.0000000000 -0.2226634952 0.4453269904
0.0556658738 -0.1669976214 0.3896611166
0.1113317476 -0.1113317476 0.3339952428
0.1669976214 -0.0556658738 0.2783293690
0.2226634952 0.0000000000 0.2226634952
0.2783293690 0.0556658738 0.1669976214
0.3339952428 0.1113317476 0.1113317476
0.3896611166 0.1669976214 0.0556658738
-0.1113317476 -0.4453269904 0.6679904857
-0.0556658738 -0.3896611166 0.6123246119
0.0000000000 -0.3339952428 0.5566587381
0.0556658738 -0.2783293690 0.5009928642
0.1113317476 -0.2226634952 0.4453269904
0.1669976214 -0.1669976214 0.3896611166
0.2226634952 -0.1113317476 0.3339952428
0.2783293690 -0.0556658738 0.2783293690
0.3339952428 0.0000000000 0.2226634952
0.3896611166 0.0556658738 0.1669976214
0.4453269904 0.1113317476 0.1113317476
-0.7236563595 0.1669976214 0.1669976214
-0.6679904857 0.2226634952 0.1113317476
-0.6123246119 0.2783293690 0.0556658738
-0.5566587381 0.3339952428 -0.0000000000
-0.5009928642 0.3896611166 -0.0556658738
-0.4453269904 0.4453269904 -0.1113317476
-0.3896611166 0.5009928642 -0.1669976214
-0.3339952428 0.5566587381 -0.2226634952
-0.2783293690 0.6123246119 -0.2783293690
-0.2226634952 0.6679904857 -0.3339952428
-0.1669976214 0.7236563595 -0.3896611166
-0.6679904857 0.1113317476 0.2226634952
-0.6123246119 0.1669976214 0.1669976214
-0.5566587381 0.2226634952 0.1113317476
-0.5009928642 0.2783293690 0.0556658738
-0.4453269904 0.3339952428 -0.0000000000
-0.3896611166 0.3896611166 -0.0556658738
-0.3339952428 0.4453269904 -0.1113317476
-0.2783293690 0.5009928642 -0.1669976214
-0.2226634952 0.5566587381 -0.2226634952
-0.1669976214 0.6123246119 -0.2783293690
-0.1113317476 0.6679904857 -0.3339952428
-0.6123246119 0.0556658738 0.2783293690
-0.5566587381 0.1113317476 0.2226634952
-0.5009928642 0.1669976214 0.1669976214
-0.4453269904 0.2226634952 0.1113317476
-0.3896611166 0.2783293690 0.0556658738
-0.3339952428 0.3339952428 -0.0000000000
-0.2783293690 0.3896611166 -0.0556658738
-0.2226634952 0.4453269904 -0.1113317476
-0.1669976214 0.5009928642 -0.1669976214
-0.1113317476 0.5566587381 -0.2226634952
-0.0556658738 0.6123246119 -0.2783293690
-0.5566587381 0.0000000000 0.3339952428
-0.5009928642 0.0556658738 0.2783293690
-0.4453269904 0.1113317476 0.2226634952
-0.3896611166 0.1669976214 0.1669976214
-0.3339952428 0.2226634952 0.1113317476
-0.2783293690 0.2783293690 0.0556658738
-0.2226634952 0.3339952428 -0.0000000000
-0.1669976214 0.3896611166 -0.0556658738
-0.1113317476 0.4453269904 -0.1113317476
-0.0556658738 0.5009928642 -0.1669976214
0.0000000000 0.5566587381 -0.2226634952
-0.5009928642 -0.0556658738 0.3896611166
-0.4453269904 -0.0000000000 0.3339952428
-0.3896611166 0.0556658738 0.2783293690
-0.3339952428 0.1113317476 0.2226634952
-0.2783293690 0.1669976214 0.1669976214
-0.2226634952 0.2226634952 0.1113317476
-0.1669976214 0.2783293690 0.0556658738
-0.1113317476 0.3339952428 -0.0000000000
-0.0556658738 0.3896611166 -0.0556658738
0.0000000000 0.4453269904 -0.1113317476
0.0556658738 0.5009928642 -0.1669976214
-0.4453269904 -0.1113317476 0.4453269904
-0.3896611166 -0.0556658738 0.3896611166
-0.3339952428 0.0000000000 0.3339952428
-0.2783293690 0.0556658738 0.2783293690
-0.2226634952 0.1113317476 0.2226634952
-0.1669976214 0.1669976214 0.1669976214
-0.1113317476 0.2226634952 0.1113317476
-0.0556658738 0.2783293690 0.0556658738
0.0000000000 0.3339952428 0.0000000000
0.0556658738 0.3896611166 -0.0556658738
0.1113317476 0.4453269904 -0.1113317476
-0.3896611166 -0.1669976214 0.5009928642
-0.3339952428 -0.1113317476 0.4453269904
-0.2783293690 -0.0556658738 0.3896611166
-0.2226634952 0.0000000000 0.3339952428
-0.1669976214 0.0556658738 0.2783293690
-0.1113317476 0.1113317476 0.2226634952
-0.0556658738 0.1669976214 0.1669976214
0.0000000000 0.2226634952 0.1113317476
0.0556658738 0.2783293690 0.0556658738
0.1113317476 0.3339952428 -0.0000000000
0.1669976214 0.3896611166 -0.0556658738
-0.3339952428 -0.2226634952 0.5566587381
-0.2783293690 -0.1669976214 0.5009928642
-0.2226634952 -0.1113317476 0.4453269904
-0.1669976214 -0.0556658738 0.3896611166
-0.1113317476 0.0000000000 0.3339952428
-0.0556658738 0.0556658738 0.2783293690
0.0000000000 0.1113317476 0.2226634952
0.0556658738 0.1669976214 0.1669976214
0.1113317476 0.2226634952 0.1113317476
0.1669976214 0.2783293690 0.0556658738
0.2226634952 0.3339952428 0.0000000000
-0.2783293690 -0.2783293690 0.6123246119
-0.2226634952 -0.2226634952 0.5566587381
-0.1669976214 -0.1669976214 0.5009928642
-0.1113317476 -0.1113317476 0.4453269904
-0.0556658738 -0.0556658738 0.3896611166
0.0000000000 0.0000000000 0.3339952428
0.0556658738 0.0556658738 0.2783293690
0.1113317476 0.1113317476 0.2226634952
0.1669976214 0.1669976214 0.1669976214
0.2226634952 0.2226634952 0.1113317476
0.2783293690 0.2783293690 0.0556658738
-0.2226634952 -0.3339952428 0.6679904857
-0.1669976214 -0.2783293690 0.6123246119
-0.1113317476 -0.2226634952 0.5566587381
-0.0556658738 -0.1669976214 0.5009928642
0.0000000000 -0.1113317476 0.4453269904
0.0556658738 -0.0556658738 0.3896611166
0.1113317476 0.0000000000 0.3339952428
0.1669976214 0.0556658738 0.2783293690
0.2226634952 0.1113317476 0.2226634952
0.2783293690 0.1669976214 0.1669976214
0.3339952428 0.2226634952 0.1113317476
-0.1669976214 -0.3896611166 0.7236563595
-0.1113317476 -0.3339952428 0.6679904857
-0.0556658738 -0.2783293690 0.6123246119
0.0000000000 -0.2226634952 0.5566587381
0.0556658738 -0.1669976214 0.5009928642
0.1113317476 -0.1113317476 0.4453269904
0.1669976214 -0.0556658738 0.3896611166
0.2226634952 0.0000000000 0.3339952428
0.2783293690 0.0556658738 0.2783293690
0.3339952428 0.1113317476 0.2226634952
0.3896611166 0.1669976214 0.1669976214
-0.7793222333 0.2226634952 0.2226634952
-0.7236563595 0.2783293690 0.1669976214
-0.6679904857 0.3339952428 0.1113317476
-0.6123246119 0.3896611166 0.0556658738
-0.5566587381 0.4453269904 0.0000000000
-0.5009928642 0.5009928642 -0.0556658738
-0.4453269904 0.5566587381 -0.1113317476
-0.3896611166 0.6123246119 -0.1669976214
-0.3339952428 0.6679904857 -0.2226634952
-0.2783293690 0.7236563595 -0.2783293690
-0.2226634952 0.7793222333 -0.3339952428
-0.7236563595 0.1669976214 0.2783293690
-0.6679904857 0.2226634952 0.2226634952
-0.6123246119 0.2783293690 0.1669976214
-0.5566587381 0.3339952428 0.1113317476
-0.5009928642 0.3896611166 0.0556658738
-0.4453269904 0.4453269904 -0.0000000000
-0.3896611166 0.5009928642 -0.0556658738
-0.3339952428 0.5566587381 -0.1113317476
-0.2783293690 0.6123246119 -0.1669976214
-0.2226634952 0.6679904857 -0.2226634952
-0.1669976214 0.7236563595 -0.2783293690
-0.6679904857 0.1113317476 0.3339952428
-0.6123246119 0.1669976214 0.2783293690
-0.5566587381 0.2226634952 0.2226634952
-0.5009928642 0.2783293690 0.1669976214
-0.4453269904 0.3339952428 0.1113317476
-0.3896611166 0.3896611166 0.0556658738
-0.3339952428 0.4453269904 -0.0000000000
-0.2783293690 0.5009928642 -0.0556658738
-0.2226634952 0.5566587381 -0.1113317476
-0.1669976214 0.6123246119 -0.1669976214
-0.1113317476 0.6679904857 -0.2226634952
-0.6123246119 0.0556658738 0.3896611166
-0.5566587381 0.1113317476 0.3339952428
-0.5009928642 0.1669976214 0.2783293690
-0.4453269904 0.2226634952 0.2226634952
-0.3896611166 0.2783293690 0.1669976214
-0.3339952428 0.3339952428 0.1113317476
-0.2783293690 0.3896611166 0.0556658738
-0.2226634952 0.4453269904 -0.0000000000
-0.1669976214 0.5009928642 -0.0556658738
-0.1113317476 0.5566587381 -0.1113317476
-0.0556658738 0.6123246119 -0.1669976214
-0.5566587381 0.0000000000 0.4453269904
-0.5009928642 0.0556658738 0.3896611166
-0.4453269904 0.1113317476 0.3339952428
-0.3896611166 0.1669976214 0.2783293690
-0.3339952428 0.2226634952 0.2226634952
-0.2783293690 0.2783293690 0.1669976214
-0.2226634952 0.3339952428 0.1113317476
-0.1669976214 0.3896611166 0.0556658738
-0.1113317476 0.4453269904 0.0000000000
-0.0556658738 0.5009928642 -0.0556658738
0.0000000000 0.5566587381 -0.1113317476
-0.5009928642 -0.0556658738 0.5009928642
-0.4453269904 0.0000000000 0.4453269904
-0.3896611166 0.0556658738 0.3896611166
-0.3339952428 0.1113317476 0.3339952428
-0.2783293690 0.1669976214 0.2783293690
-0.2226634952 0.2226634952 0.2226634952
-0.1669976214 0.2783293690 0.1669976214
-0.1113317476 0.3339952428 0.1113317476
-0.0556658738 0.3896611166 0.0556658738
0.0000000000 0.4453269904 0.0000000000
0.0556658738 0.5009928642 -0.0556658738
-0.4453269904 -0.1113317476 0.5566587381
-0.3896611166 -0.0556658738 0.5009928642
-0.3339952428 0.0000000000 0.4453269904
-0.2783293690 0.0556658738 0.3896611166
-0.2226634952 0.1113317476 0.3339952428
-0.1669976214 0.1669976214 0.2783293690
-0.1113317476 0.2226634952 0.2226634952
-0.0556658738 0.2783293690 0.1669976214
0.0000000000 0.3339952428 0.1113317476
0.0556658738 0.3896611166 0.0556658738
0.1113317476 0.4453269904 0.0000000000
-0.3896611166 -0.1669976214 0.6123246119
-0.3339952428 -0.1113317476 0.5566587381
-0.2783293690 -0.0556658738 0.5009928642
-0.2226634952 0.0000000000 0.4453269904
-0.1669976214 0.0556658738 0.3896611166
-0.1113317476 0.1113317476 0.3339952428
-0.0556658738 0.1669976214 0.2783293690
0.0000000000 0.2226634952 0.2226634952
0.0556658738 0.2783293690 0.1669976214
0.1113317476 0.3339952428 0.1113317476
0.1669976214 0.3896611166 0.0556658738
-0.3339952428 -0.2226634952 0.6679904857
-0.2783293690 -0.1669976214 0.6123246119
-0.2226634952 -0.1113317476 0.5566587381
-0.1669976214 -0.0556658738 0.5009928642
-0.1113317476 0.0000000000 0.4453269904
-0.0556658738 0.0556658738 0.3896611166
0.0000000000 0.1113317476 0.3339952428
0.0556658738 0.1669976214 0.2783293690
0.1113317476 0.2226634952 0.2226634952
0.1669976214 0.2783293690 0.1669976214
0.2226634952 0.3339952428 0.1113317476
-0.2783293690 -0.2783293690 0.7236563595
-0.2226634952 -0.2226634952 0.6679904857
-0.1669976214 -0.1669976214 0.6123246119
-0.1113317476 -0.1113317476 0.5566587381
-0.0556658738 -0.0556658738 0.5009928642
0.0000000000 0.0000000000 0.4453269904
0.0556658738 0.0556658738 0.3896611166
0.1113317476 0.1113317476 0.3339952428
0.1669976214 0.1669976214 0.2783293690
0.2226634952 0.2226634952 0.2226634952
0.2783293690 0.2783293690 0.1669976214
-0.2226634952 -0.3339952428 0.7793222333
-0.1669976214 -0.2783293690 0.7236563595
-0.1113317476 -0.2226634952 0.6679904857
-0.0556658738 -0.1669976214 0.6123246119
0.0000000000 -0.1113317476 0.5566587381
0.0556658738 -0.0556658738 0.5009928642
0.1113317476 0.0000000000 0.4453269904
0.1669976214 0.0556658738 0.3896611166
0.2226634952 0.1113317476 0.3339952428
0.2783293690 0.1669976214 0.2783293690
0.3339952428 0.2226634952 0.2226634952
-0.8349881071 0.2783293690 0.2783293690
-0.7793222333 0.3339952428 0.2226634952
-0.7236563595 0.3896611166 0.1669976214
-0.6679904857 0.4453269904 0.1113317476
-0.6123246119 0.5009928642 0.0556658738
-0.5566587381 0.5566587381 0.0000000000
-0.5009928642 0.6123246119 -0.0556658738
-0.4453269904 0.6679904857 -0.1113317476
-0.3896611166 0.7236563595 -0.1669976214
-0.3339952428 0.7793222333 -0.2226634952
-0.2783293690 0.8349881071 -0.2783293690
-0.7793222333 0.2226634952 0.3339952428
-0.7236563595 0.2783293690 0.2783293690
-0.6679904857 0.3339952428 0.2226634952
-0.6123246119 0.3896611166 0.1669976214
-0.5566587381 0.4453269904 0.1113317476
-0.5009928642 0.5009928642 0.0556658738
-0.4453269904 0.5566587381 -0.0000000000
-0.3896611166 0.6123246119 -0.0556658738
-0.3339952428 0.6679904857 -0.1113317476
-0.2783293690 0.7236563595 -0.1669976214
-0.2226634952 0.7793222333 -0.2226634952
-0.7236563595 0.1669976214 0.3896611166
-0.6679904857 0.2226634952 0.3339952428
-0.6123246119 0.2783293690 0.2783293690
-0.5566587381 0.3339952428 0.2226634952
-0.5009928642 0.3896611166 0.1669976214
-0.4453269904 0.4453269904 0.1113317476
-0.3896611166 0.5009928642 0.0556658738
-0.3339952428 0.5566587381 -0.0000000000
-0.2783293690 0.6123246119 -0.0556658738
-0.2226634952 0.6679904857 -0.1113317476
-0.1669976214 0.7236563595 -0.1669976214
-0.6679904857 0.1113317476 0.4453269904
-0.6123246119 0.1669976214 0.3896611166
-0.5566587381 0.2226634952 0.3339952428
-0.5009928642 0.2783293690 0.2783293690
-0.4453269904 0.3339952428 0.2226634952
-0.3896611166 0.3896611166 0.1669976214
-0.3339952428 0.4453269904 0.1113317476
-0.2783293690 0.5009928642 0.0556658738
-0.2226634952 0.5566587381 0.0000000000
-0.1669976214 0.6123246119 -0.0556658738
-0.1113317476 0.6679904857 -0.1113317476
-0.6123246119 0.0556658738 0.5009928642
-0.5566587381 0.1113317476 0.4453269904
-0.5009928642 0.1669976214 0.3896611166
-0.4453269904 0.2226634952 0.3339952428
-0.3896611166 0.2783293690 0.2783293690
-0.3339952428 0.3339952428 0.2226634952
-0.2783293690 0.3896611166 0.1669976214
-0.2226634952 0.4453269904 0.1113317476
-0.1669976214 0.5009928642 0.0556658738
-0.1113317476 0.5566587381 -0.0000000000
-0.0556658738 0.6123246119 -0.0556658738
-0.5566587381 0.0000000000 0.5566587381
-0.5009928642 0.0556658738 0.5009928642
-0.4453269904 0.1113317476 0.4453269904
-0.3896611166 0.1669976214 0.3896611166
-0.3339952428 0.2226634952 0.3339952428
-0.2783293690 0.2783293690 0.2783293690
-0.2226634952 0.3339952428 0.2226634952
-0.1669976214 0.3896611166 0.1669976214
-0.1113317476 0.4453269904 0.1113317476
-0.0556658738 0.5009928642 0.0556658738
0.0000000000 0.5566587381 0.0000000000
-0.5009928642 -0.0556658738 0.6123246119
-0.4453269904 -0.0000000000 0.5566587381
-0.3896611166 0.0556658738 0.5009928642
-0.3339952428 0.1113317476 0.4453269904
-0.2783293690 0.1669976214 0.3896611166
-0.2226634952 0.2226634952 0.3339952428
-0.1669976214 0.2783293690 0.2783293690
-0.1113317476 0.3339952428 0.2226634952
-0.0556658738 0.3896611166 0.1669976214
0.0000000000 0.4453269904 0.1113317476
0.0556658738 0.5009928642 0.0556658738
-0.4453269904 -0.1113317476 0.6679904857
-0.3896611166 -0.0556658738 0.6123246119
-0.3339952428 0.0000000000 0.5566587381
-0.2783293690 0.0556658738 0.5009928642
-0.2226634952 0.1113317476 0.4453269904
-0.1669976214 0.1669976214 0.3896611166
-0.1113317476 0.2226634952 0.3339952428
-0.0556658738 0.2783293690 0.2783293690
0.0000000000 0.3339952428 0.2226634952
0.0556658738 0.3896611166 0.1669976214
0.1113317476 0.4453269904 0.1113317476
-0.3896611166 -0.1669976214 0.7236563595
-0.3339952428 -0.1113317476 0.6679904857
-0.2783293690 -0.0556658738 0.6123246119
-0.2226634952 0.0000000000 0.5566587381
-0.1669976214 0.0556658738 0.5009928642
-0.1113317476 0.1113317476 0.4453269904
-0.0556658738 0.1669976214 0.3896611166
0.0000000000 0.2226634952 0.3339952428
0.0556658738 0.2783293690 0.2783293690
0.1113317476 0.3339952428 0.2226634952
0.1669976214 0.3896611166 0.1669976214
-0.3339952428 -0.2226634952 0.7793222333
-0.2783293690 -0.1669976214 0.7236563595
-0.2226634952 -0.1113317476 0.6679904857
-0.1669976214 -0.0556658738 0.6123246119
-0.1113317476 0.0000000000 0.5566587381
-0.0556658738 0.0556658738 0.5009928642
0.0000000000 0.1113317476 0.4453269904
0.0556658738 0.1669976214 0.3896611166
0.1113317476 0.2226634952 0.3339952428
0.1669976214 0.2783293690 0.2783293690
0.2226634952 0.3339952428 0.2226634952
-0.2783293690 -0.2783293690 0.8349881071
-0.2226634952 -0.2226634952 0.7793222333
-0.1669976214 -0.1669976214 0.7236563595
-0.1113317476 -0.1113317476 0.6679904857
-0.0556658738 -0.0556658738 0.6123246119
0.0000000000 0.0000000000 0.5566587381
0.0556658738 0.0556658738 0.5009928642
0.1113317476 0.1113317476 0.4453269904
0.1669976214 0.1669976214 0.3896611166
0.2226634952 0.2226634952 0.3339952428
0.2783293690 0.2783293690 0.2783293690
 There are 14 alpha and 14 beta electrons
 Start computing overlap matrix
 Allocate 296525504 B from available memory: 1048575734752 B
 Time for computing overlap matrix: 3.7230000000 s
 ====== Initialize compute kernels for all-electron RI-J (kpts) ====== 
 ========================================================== 
 Range-separated parameter omega        = 0.599999999999999978
 Threshold for 1e2c shellpair           = 0.000000000000010000
 Threshold for 2e2c SR integral         = 0.000000000000000001
 Threshold for 2e3c SR integral         = 0.000000000100000000
 Threshold for AFT G-space screening is = 0.000000000001000000
 The exponent cutoff for C/D classification (omega2 / 2) is  = 0.179999999999999993
 ========================================================== 
 === Post process the basis set for RI calculation (exp_cutoff = 0.179999999999999993 ) === 
nshells_b1 before uncontraction = 28
nshells_b1 after uncontraction = 28
nshells_baux before uncontraction = 80
nshells_baux after uncontraction = 80
===============================================
nbsf total   = 118
nbsf compact = 92
nbsf diffuse = 26
naux total   = 296
naux compact = 296
naux diffuse = 0
nshells_bnuc = 2

 Number of unique atoms is 1
 Unique atom #0 (si) has 9 shells.

Shell 0 to 8 belongs to atom si
Shell 9 to 17 belongs to atom si

 Number of unique atoms is 1
 Unique atom #0 (si) has 5 shells.

Shell 0 to 4 belongs to atom si
Shell 5 to 9 belongs to atom si

 Number of unique atom is 1
 Unique atom #0 (si) has 40 auxiliary shells.

Auxiliary Shell 0 to 39 belongs to atom si
Auxiliary Shell 40 to 79 belongs to atom si

================= Automatically determine grid size for reciprocal space summation =================
 Range-separated parameter = 0.60000000000000 and G-space screening threshold = 0.00000000000100
The number of grid points along each axis dimension is (7, 7, 7)
Total number of grid points = 3375

Use nonortho shellpair for diffuse density
======== Initializing relevant kernel for RIJ (DD type) ========
There are 55 shellpairs in the reference unit cell
There are 3757 images and we expect to have 206635 in total
There are 11898 shellpairs in the lattice sum after screening
======== Initializing relevant kernel for RIJ (CD type) ========
There are 180 shellpairs in the reference unit cell
There are 2659 images and we expect to have 478620 in total
There are 19974 shellpairs in the lattice sum after screening
****** AFT -> SR ******
Maximum bra distance cutoff is 23.000000000000
Maximum bra ket distance cutoff is 24.132153614458
Maximum bra ket screening distance is 21.593750000000
Number of auxiliary image is 647
There are 180 shellpairs in the reference unit cell
There are 551 images and we expect to have 99180 in total
There are 19974 shellpairs in the lattice sum after screening
Available memory per thread for 2e3c calculation is 32.758725289000Gb
Finish initializing 2e3c SR with the lattice sum!
=================================================
======== Initializing relevant kernel for RIJ (CC type) ========
There are 171 shellpairs in the reference unit cell
There are 1241 images and we expect to have 212211 in total
There are 4082 shellpairs in the lattice sum after screening
****** AFT -> SR ******
Maximum bra distance cutoff is 15.000000000000
Maximum bra ket distance cutoff is 25.131175705795
Maximum bra ket screening distance is 21.156250000000
Number of auxiliary image is 647
There are 171 shellpairs in the reference unit cell
There are 237 images and we expect to have 40527 in total
There are 4082 shellpairs in the lattice sum after screening
Available memory per thread for 2e3c calculation is 32.758725289000Gb
Finish initializing 2e3c SR with the lattice sum!
=================================================
======== Initializing the SR component for Vnuc (CD type) ========
Maximum bra distance cutoff is 23.000000000000
Maximum bra ket distance cutoff is 16.737418337388
Maximum bra ket screening distance is 14.115333913559
Number of auxiliary image is 551
There are 180 shellpairs in the reference unit cell
There are 551 images and we expect to have 99180 in total
There are 19974 shellpairs in the lattice sum after screening
Available memory per thread for 2e3c calculation is 32.758725289000Gb
Finish initializing 2e3c SR with the lattice sum!
=================================================
======== Initialize the SR component for Vnuc (CC type) ========
Maximum bra distance cutoff is 15.000000000000
Maximum bra ket distance cutoff is 17.743801426189
Maximum bra ket screening distance is 13.222397966002
Number of auxiliary image is 285
There are 171 shellpairs in the reference unit cell
There are 237 images and we expect to have 40527 in total
There are 4082 shellpairs in the lattice sum after screening
Available memory per thread for 2e3c calculation is 32.758725289000Gb
Finish initializing 2e3c SR with the lattice sum!
=================================================
 Aufbau occupation scheme, occupation determined by eigenvalue
 == 0-th k-point nmo = 114 (-0.27833,-0.27833,-0.27833) ==
 == 1-th k-point nmo = 114 (-0.22266,-0.22266,-0.33400) ==
 == 2-th k-point nmo = 114 (-0.16700,-0.16700,-0.38966) ==
 == 3-th k-point nmo = 114 (-0.11133,-0.11133,-0.44533) ==
 == 4-th k-point nmo = 114 (-0.05567,-0.05567,-0.50099) ==
 == 5-th k-point nmo = 114 (-0.00000,-0.00000,-0.55666) ==
 == 6-th k-point nmo = 114 (0.05567,0.05567,-0.61232) ==
 == 7-th k-point nmo = 114 (0.11133,0.11133,-0.66799) ==
 == 8-th k-point nmo = 114 (0.16700,0.16700,-0.72366) ==
 == 9-th k-point nmo = 114 (0.22266,0.22266,-0.77932) ==
 == 10-th k-point nmo = 114 (0.27833,0.27833,-0.83499) ==
 == 11-th k-point nmo = 114 (-0.22266,-0.33400,-0.22266) ==
 == 12-th k-point nmo = 114 (-0.16700,-0.27833,-0.27833) ==
 == 13-th k-point nmo = 114 (-0.11133,-0.22266,-0.33400) ==
 == 14-th k-point nmo = 114 (-0.05567,-0.16700,-0.38966) ==
 == 15-th k-point nmo = 114 (-0.00000,-0.11133,-0.44533) ==
 == 16-th k-point nmo = 114 (0.05567,-0.05567,-0.50099) ==
 == 17-th k-point nmo = 114 (0.11133,-0.00000,-0.55666) ==
 == 18-th k-point nmo = 114 (0.16700,0.05567,-0.61232) ==
 == 19-th k-point nmo = 114 (0.22266,0.11133,-0.66799) ==
 == 20-th k-point nmo = 114 (0.27833,0.16700,-0.72366) ==
 == 21-th k-point nmo = 114 (0.33400,0.22266,-0.77932) ==
 == 22-th k-point nmo = 114 (-0.16700,-0.38966,-0.16700) ==
 == 23-th k-point nmo = 114 (-0.11133,-0.33400,-0.22266) ==
 == 24-th k-point nmo = 114 (-0.05567,-0.27833,-0.27833) ==
 == 25-th k-point nmo = 114 (-0.00000,-0.22266,-0.33400) ==
 == 26-th k-point nmo = 114 (0.05567,-0.16700,-0.38966) ==
 == 27-th k-point nmo = 114 (0.11133,-0.11133,-0.44533) ==
 == 28-th k-point nmo = 114 (0.16700,-0.05567,-0.50099) ==
 == 29-th k-point nmo = 114 (0.22266,-0.00000,-0.55666) ==
 == 30-th k-point nmo = 114 (0.27833,0.05567,-0.61232) ==
 == 31-th k-point nmo = 114 (0.33400,0.11133,-0.66799) ==
 == 32-th k-point nmo = 114 (0.38966,0.16700,-0.72366) ==
 == 33-th k-point nmo = 114 (-0.11133,-0.44533,-0.11133) ==
 == 34-th k-point nmo = 114 (-0.05567,-0.38966,-0.16700) ==
 == 35-th k-point nmo = 114 (-0.00000,-0.33400,-0.22266) ==
 == 36-th k-point nmo = 114 (0.05567,-0.27833,-0.27833) ==
 == 37-th k-point nmo = 114 (0.11133,-0.22266,-0.33400) ==
 == 38-th k-point nmo = 114 (0.16700,-0.16700,-0.38966) ==
 == 39-th k-point nmo = 114 (0.22266,-0.11133,-0.44533) ==
 == 40-th k-point nmo = 114 (0.27833,-0.05567,-0.50099) ==
 == 41-th k-point nmo = 114 (0.33400,0.00000,-0.55666) ==
 == 42-th k-point nmo = 114 (0.38966,0.05567,-0.61232) ==
 == 43-th k-point nmo = 114 (0.44533,0.11133,-0.66799) ==
 == 44-th k-point nmo = 114 (-0.05567,-0.50099,-0.05567) ==
 == 45-th k-point nmo = 114 (-0.00000,-0.44533,-0.11133) ==
 == 46-th k-point nmo = 114 (0.05567,-0.38966,-0.16700) ==
 == 47-th k-point nmo = 114 (0.11133,-0.33400,-0.22266) ==
 == 48-th k-point nmo = 114 (0.16700,-0.27833,-0.27833) ==
 == 49-th k-point nmo = 114 (0.22266,-0.22266,-0.33400) ==
 == 50-th k-point nmo = 114 (0.27833,-0.16700,-0.38966) ==
 == 51-th k-point nmo = 114 (0.33400,-0.11133,-0.44533) ==
 == 52-th k-point nmo = 114 (0.38966,-0.05567,-0.50099) ==
 == 53-th k-point nmo = 114 (0.44533,0.00000,-0.55666) ==
 == 54-th k-point nmo = 114 (0.50099,0.05567,-0.61232) ==
 == 55-th k-point nmo = 114 (-0.00000,-0.55666,0.00000) ==
 == 56-th k-point nmo = 114 (0.05567,-0.50099,-0.05567) ==
 == 57-th k-point nmo = 114 (0.11133,-0.44533,-0.11133) ==
 == 58-th k-point nmo = 114 (0.16700,-0.38966,-0.16700) ==
 == 59-th k-point nmo = 114 (0.22266,-0.33400,-0.22266) ==
 == 60-th k-point nmo = 114 (0.27833,-0.27833,-0.27833) ==
 == 61-th k-point nmo = 114 (0.33400,-0.22266,-0.33400) ==
 == 62-th k-point nmo = 114 (0.38966,-0.16700,-0.38966) ==
 == 63-th k-point nmo = 114 (0.44533,-0.11133,-0.44533) ==
 == 64-th k-point nmo = 114 (0.50099,-0.05567,-0.50099) ==
 == 65-th k-point nmo = 114 (0.55666,0.00000,-0.55666) ==
 == 66-th k-point nmo = 114 (0.05567,-0.61232,0.05567) ==
 == 67-th k-point nmo = 114 (0.11133,-0.55666,0.00000) ==
 == 68-th k-point nmo = 114 (0.16700,-0.50099,-0.05567) ==
 == 69-th k-point nmo = 114 (0.22266,-0.44533,-0.11133) ==
 == 70-th k-point nmo = 114 (0.27833,-0.38966,-0.16700) ==
 == 71-th k-point nmo = 114 (0.33400,-0.33400,-0.22266) ==
 == 72-th k-point nmo = 114 (0.38966,-0.27833,-0.27833) ==
 == 73-th k-point nmo = 114 (0.44533,-0.22266,-0.33400) ==
 == 74-th k-point nmo = 114 (0.50099,-0.16700,-0.38966) ==
 == 75-th k-point nmo = 114 (0.55666,-0.11133,-0.44533) ==
 == 76-th k-point nmo = 114 (0.61232,-0.05567,-0.50099) ==
 == 77-th k-point nmo = 114 (0.11133,-0.66799,0.11133) ==
 == 78-th k-point nmo = 114 (0.16700,-0.61232,0.05567) ==
 == 79-th k-point nmo = 114 (0.22266,-0.55666,0.00000) ==
 == 80-th k-point nmo = 114 (0.27833,-0.50099,-0.05567) ==
 == 81-th k-point nmo = 114 (0.33400,-0.44533,-0.11133) ==
 == 82-th k-point nmo = 114 (0.38966,-0.38966,-0.16700) ==
 == 83-th k-point nmo = 114 (0.44533,-0.33400,-0.22266) ==
 == 84-th k-point nmo = 114 (0.50099,-0.27833,-0.27833) ==
 == 85-th k-point nmo = 114 (0.55666,-0.22266,-0.33400) ==
 == 86-th k-point nmo = 114 (0.61232,-0.16700,-0.38966) ==
 == 87-th k-point nmo = 114 (0.66799,-0.11133,-0.44533) ==
 == 88-th k-point nmo = 114 (0.16700,-0.72366,0.16700) ==
 == 89-th k-point nmo = 114 (0.22266,-0.66799,0.11133) ==
 == 90-th k-point nmo = 114 (0.27833,-0.61232,0.05567) ==
 == 91-th k-point nmo = 114 (0.33400,-0.55666,0.00000) ==
 == 92-th k-point nmo = 114 (0.38966,-0.50099,-0.05567) ==
 == 93-th k-point nmo = 114 (0.44533,-0.44533,-0.11133) ==
 == 94-th k-point nmo = 114 (0.50099,-0.38966,-0.16700) ==
 == 95-th k-point nmo = 114 (0.55666,-0.33400,-0.22266) ==
 == 96-th k-point nmo = 114 (0.61232,-0.27833,-0.27833) ==
 == 97-th k-point nmo = 114 (0.66799,-0.22266,-0.33400) ==
 == 98-th k-point nmo = 114 (0.72366,-0.16700,-0.38966) ==
 == 99-th k-point nmo = 114 (0.22266,-0.77932,0.22266) ==
 == 100-th k-point nmo = 114 (0.27833,-0.72366,0.16700) ==
 == 101-th k-point nmo = 114 (0.33400,-0.66799,0.11133) ==
 == 102-th k-point nmo = 114 (0.38966,-0.61232,0.05567) ==
 == 103-th k-point nmo = 114 (0.44533,-0.55666,0.00000) ==
 == 104-th k-point nmo = 114 (0.50099,-0.50099,-0.05567) ==
 == 105-th k-point nmo = 114 (0.55666,-0.44533,-0.11133) ==
 == 106-th k-point nmo = 114 (0.61232,-0.38966,-0.16700) ==
 == 107-th k-point nmo = 114 (0.66799,-0.33400,-0.22266) ==
 == 108-th k-point nmo = 114 (0.72366,-0.27833,-0.27833) ==
 == 109-th k-point nmo = 114 (0.77932,-0.22266,-0.33400) ==
 == 110-th k-point nmo = 114 (0.27833,-0.83499,0.27833) ==
 == 111-th k-point nmo = 114 (0.33400,-0.77932,0.22266) ==
 == 112-th k-point nmo = 114 (0.38966,-0.72366,0.16700) ==
 == 113-th k-point nmo = 114 (0.44533,-0.66799,0.11133) ==
 == 114-th k-point nmo = 114 (0.50099,-0.61232,0.05567) ==
 == 115-th k-point nmo = 114 (0.55666,-0.55666,0.00000) ==
 == 116-th k-point nmo = 114 (0.61232,-0.50099,-0.05567) ==
 == 117-th k-point nmo = 114 (0.66799,-0.44533,-0.11133) ==
 == 118-th k-point nmo = 114 (0.72366,-0.38966,-0.16700) ==
 == 119-th k-point nmo = 114 (0.77932,-0.33400,-0.22266) ==
 == 120-th k-point nmo = 114 (0.83499,-0.27833,-0.27833) ==
 == 121-th k-point nmo = 114 (-0.33400,-0.22266,-0.22266) ==
 == 122-th k-point nmo = 114 (-0.27833,-0.16700,-0.27833) ==
 == 123-th k-point nmo = 114 (-0.22266,-0.11133,-0.33400) ==
 == 124-th k-point nmo = 114 (-0.16700,-0.05567,-0.38966) ==
 == 125-th k-point nmo = 114 (-0.11133,-0.00000,-0.44533) ==
 == 126-th k-point nmo = 114 (-0.05567,0.05567,-0.50099) ==
 == 127-th k-point nmo = 114 (-0.00000,0.11133,-0.55666) ==
 == 128-th k-point nmo = 114 (0.05567,0.16700,-0.61232) ==
 == 129-th k-point nmo = 114 (0.11133,0.22266,-0.66799) ==
 == 130-th k-point nmo = 114 (0.16700,0.27833,-0.72366) ==
 == 131-th k-point nmo = 114 (0.22266,0.33400,-0.77932) ==
 == 132-th k-point nmo = 114 (-0.27833,-0.27833,-0.16700) ==
 == 133-th k-point nmo = 114 (-0.22266,-0.22266,-0.22266) ==
 == 134-th k-point nmo = 114 (-0.16700,-0.16700,-0.27833) ==
 == 135-th k-point nmo = 114 (-0.11133,-0.11133,-0.33400) ==
 == 136-th k-point nmo = 114 (-0.05567,-0.05567,-0.38966) ==
 == 137-th k-point nmo = 114 (-0.00000,-0.00000,-0.44533) ==
 == 138-th k-point nmo = 114 (0.05567,0.05567,-0.50099) ==
 == 139-th k-point nmo = 114 (0.11133,0.11133,-0.55666) ==
 == 140-th k-point nmo = 114 (0.16700,0.16700,-0.61232) ==
 == 141-th k-point nmo = 114 (0.22266,0.22266,-0.66799) ==
 == 142-th k-point nmo = 114 (0.27833,0.27833,-0.72366) ==
 == 143-th k-point nmo = 114 (-0.22266,-0.33400,-0.11133) ==
 == 144-th k-point nmo = 114 (-0.16700,-0.27833,-0.16700) ==
 == 145-th k-point nmo = 114 (-0.11133,-0.22266,-0.22266) ==
 == 146-th k-point nmo = 114 (-0.05567,-0.16700,-0.27833) ==
 == 147-th k-point nmo = 114 (-0.00000,-0.11133,-0.33400) ==
 == 148-th k-point nmo = 114 (0.05567,-0.05567,-0.38966) ==
 == 149-th k-point nmo = 114 (0.11133,-0.00000,-0.44533) ==
 == 150-th k-point nmo = 114 (0.16700,0.05567,-0.50099) ==
 == 151-th k-point nmo = 114 (0.22266,0.11133,-0.55666) ==
 == 152-th k-point nmo = 114 (0.27833,0.16700,-0.61232) ==
 == 153-th k-point nmo = 114 (0.33400,0.22266,-0.66799) ==
 == 154-th k-point nmo = 114 (-0.16700,-0.38966,-0.05567) ==
 == 155-th k-point nmo = 114 (-0.11133,-0.33400,-0.11133) ==
 == 156-th k-point nmo = 114 (-0.05567,-0.27833,-0.16700) ==
 == 157-th k-point nmo = 113 (-0.00000,-0.22266,-0.22266) ==
 == 158-th k-point nmo = 114 (0.05567,-0.16700,-0.27833) ==
 == 159-th k-point nmo = 114 (0.11133,-0.11133,-0.33400) ==
 == 160-th k-point nmo = 114 (0.16700,-0.05567,-0.38966) ==
 == 161-th k-point nmo = 114 (0.22266,-0.00000,-0.44533) ==
 == 162-th k-point nmo = 114 (0.27833,0.05567,-0.50099) ==
 == 163-th k-point nmo = 114 (0.33400,0.11133,-0.55666) ==
 == 164-th k-point nmo = 114 (0.38966,0.16700,-0.61232) ==
 == 165-th k-point nmo = 114 (-0.11133,-0.44533,0.00000) ==
 == 166-th k-point nmo = 114 (-0.05567,-0.38966,-0.05567) ==
 == 167-th k-point nmo = 114 (-0.00000,-0.33400,-0.11133) ==
 == 168-th k-point nmo = 114 (0.05567,-0.27833,-0.16700) ==
 == 169-th k-point nmo = 114 (0.11133,-0.22266,-0.22266) ==
 == 170-th k-point nmo = 114 (0.16700,-0.16700,-0.27833) ==
 == 171-th k-point nmo = 114 (0.22266,-0.11133,-0.33400) ==
 == 172-th k-point nmo = 114 (0.27833,-0.05567,-0.38966) ==
 == 173-th k-point nmo = 114 (0.33400,-0.00000,-0.44533) ==
 == 174-th k-point nmo = 114 (0.38966,0.05567,-0.50099) ==
 == 175-th k-point nmo = 114 (0.44533,0.11133,-0.55666) ==
 == 176-th k-point nmo = 114 (-0.05567,-0.50099,0.05567) ==
 == 177-th k-point nmo = 114 (-0.00000,-0.44533,0.00000) ==
 == 178-th k-point nmo = 114 (0.05567,-0.38966,-0.05567) ==
 == 179-th k-point nmo = 114 (0.11133,-0.33400,-0.11133) ==
 == 180-th k-point nmo = 114 (0.16700,-0.27833,-0.16700) ==
 == 181-th k-point nmo = 114 (0.22266,-0.22266,-0.22266) ==
 == 182-th k-point nmo = 114 (0.27833,-0.16700,-0.27833) ==
 == 183-th k-point nmo = 114 (0.33400,-0.11133,-0.33400) ==
 == 184-th k-point nmo = 114 (0.38966,-0.05567,-0.38966) ==
[...]
 0.75843 0.78875 0.85269 0.87872 0.89776 0.90870 0.98268 1.00843 1.06646 1.08212
 1.13006 1.14090 1.17499 1.19357 1.37709 1.41996 1.45394 1.45731 1.51450 1.52455
 1.63881 1.63951 1.66782 1.74528 1.75123 1.80837 1.82750 1.88029 1.91777 1.91813
 2.01865 2.06193 2.14516 2.20950 2.23372 2.24772 2.28195 2.29999 2.33055 2.35270
 2.40679 2.44522 2.47393 2.52699 2.58009 2.71204 2.71983 2.72017 2.75750 2.77936
 2.85455 2.86551 2.90049 2.95530 2.96984 3.01046 3.06270 3.07193 3.12283 3.13914
 3.21142 3.23448 3.27799 3.28329 3.32686 3.33028 3.37274 3.37927 3.47864 3.50438
 3.58050 3.59581 3.62379 3.65456 3.70530 3.73311 3.84724 3.91502 3.95328 4.01104
 4.13980 4.22721 4.29220 4.30187 4.58208 4.60551 8.25781 8.40261 8.61137 8.65189
 9.49681 9.91581 13.38189 13.58422
 == 1313-th k-point (-0.11133,0.00000,0.55666) occupation: 14==
 -65.00572 -65.00572 -4.62781 -4.62777 -3.03973 -3.03973 -3.03938 -3.03929 -3.03898 -3.03898
 -0.03397 0.01512 0.15584 0.16030 0.32545 0.33553 0.56890 0.62061 0.64609 0.69961
 0.72510 0.77910 0.78874 0.84839 0.88981 0.94282 0.98440 1.02076 1.04926 1.05524
 1.13530 1.14357 1.16816 1.21655 1.39413 1.40652 1.47898 1.50813 1.54233 1.55007
 1.56042 1.68358 1.72605 1.74673 1.75506 1.75748 1.82027 1.82052 1.88670 1.89311
 2.03869 2.06014 2.13149 2.14823 2.17324 2.26356 2.26614 2.31308 2.36998 2.37417
 2.42420 2.45856 2.50043 2.52764 2.57196 2.59555 2.71554 2.75202 2.79344 2.80039
 2.85952 2.86193 2.93810 2.95752 2.97382 2.98617 2.99333 3.07788 3.10376 3.11291
 3.21462 3.21900 3.28228 3.30155 3.30431 3.32431 3.38540 3.40662 3.52067 3.52979
 3.53639 3.54785 3.64584 3.67171 3.70738 3.72188 3.92011 3.94481 3.97531 4.05280
 4.22603 4.23795 4.31416 4.34349 4.60307 4.60972 8.19390 8.43239 8.55600 8.62908
 9.83279 9.85946 13.35016 13.41465
 == 1314-th k-point (-0.05567,0.05567,0.50099) occupation: 14==
 -65.00572 -65.00572 -4.62783 -4.62775 -3.03973 -3.03972 -3.03942 -3.03925 -3.03899 -3.03899
 -0.05821 0.04185 0.16053 0.17640 0.30724 0.33792 0.57792 0.57797 0.70356 0.70361
 0.71583 0.72213 0.81377 0.83995 0.85674 0.93125 0.95066 0.99301 1.06881 1.13065
 1.13988 1.17184 1.18644 1.26636 1.36382 1.37904 1.44763 1.51973 1.54810 1.57466
 1.63048 1.65580 1.72511 1.73239 1.76610 1.77739 1.80271 1.82918 1.86092 1.90831
 1.98857 2.04919 2.07627 2.15192 2.16814 2.21571 2.24809 2.36448 2.36775 2.39324
 2.43263 2.43572 2.51543 2.53257 2.59046 2.59311 2.69057 2.75935 2.82772 2.83318
 2.85048 2.88429 2.90583 2.93872 2.95003 2.98282 3.00677 3.01382 3.08388 3.15542
 3.22493 3.23714 3.25913 3.32112 3.33747 3.34673 3.40294 3.43936 3.51547 3.53077
 3.53850 3.55094 3.60188 3.69116 3.71265 3.74563 3.90449 3.92216 3.94836 4.13613
 4.20140 4.25205 4.29725 4.36460 4.61039 4.61807 8.07977 8.39301 8.42863 8.69887
 10.08026 10.22416 13.29430 13.40685
 == 1315-th k-point (0.00000,0.11133,0.44533) occupation: 14==
 -65.00572 -65.00572 -4.62785 -4.62773 -3.03972 -3.03971 -3.03947 -3.03921 -3.03900 -3.03900
 -0.07709 0.06682 0.16297 0.17741 0.32796 0.35975 0.51203 0.56443 0.65342 0.69445
 0.71602 0.77209 0.79710 0.82165 0.87603 0.90239 0.95715 1.00450 1.11542 1.11556
 1.16967 1.20532 1.25341 1.29408 1.32002 1.37263 1.43638 1.52069 1.54844 1.55921
 1.56808 1.68382 1.70857 1.73610 1.78857 1.80249 1.81762 1.82265 1.86827 1.93909
 2.01188 2.03037 2.03280 2.15307 2.17141 2.17858 2.18591 2.35176 2.38164 2.42385
 2.42611 2.44521 2.52373 2.57662 2.61211 2.61943 2.62277 2.77472 2.78170 2.83593
 2.86093 2.88121 2.89456 2.92875 2.93259 2.99785 3.02322 3.04727 3.07559 3.17395
 3.20720 3.24611 3.30721 3.33590 3.36474 3.37929 3.42013 3.43551 3.50170 3.53288
 3.54240 3.54728 3.61393 3.68035 3.71857 3.71980 3.89956 3.90663 3.94956 4.09633
 4.14801 4.17115 4.28283 4.35855 4.59723 4.62123 8.05972 8.21171 8.24250 8.90813
 10.38695 10.49183 13.24213 13.49260
 == 1316-th k-point (0.05567,0.16700,0.38966) occupation: 14==
 -65.00572 -65.00572 -4.62786 -4.62772 -3.03971 -3.03970 -3.03951 -3.03918 -3.03900 -3.03898
 -0.08935 0.07721 0.15948 0.19556 0.35466 0.41348 0.44914 0.51414 0.62406 0.67230
 0.71777 0.74016 0.79832 0.82586 0.88151 0.95334 0.98122 1.03215 1.08060 1.14071
 1.19938 1.23019 1.25437 1.30253 1.36062 1.39353 1.45054 1.47359 1.50271 1.53780
 1.59601 1.63190 1.67186 1.73356 1.75553 1.82055 1.84826 1.88521 1.90443 1.95315
 1.99311 2.04249 2.06213 2.10283 2.15229 2.15948 2.24499 2.30427 2.38387 2.41623
 2.44501 2.47619 2.50469 2.57646 2.59674 2.62332 2.67218 2.72605 2.79379 2.80803
 2.83626 2.87227 2.88452 2.90550 2.96622 3.01812 3.05993 3.06529 3.11794 3.16109
 3.20875 3.29116 3.30600 3.31952 3.34678 3.39450 3.42378 3.45079 3.48899 3.52054
 3.54089 3.57212 3.65230 3.68110 3.71750 3.75961 3.83691 3.88987 3.93775 3.97708
 4.09089 4.11828 4.26249 4.35187 4.56141 4.60555 7.98231 8.11170 8.22933 9.14803
 9.95064 10.41565 13.18763 13.92460
 == 1317-th k-point (0.11133,0.22266,0.33400) occupation: 14==
 -65.00572 -65.00571 -4.62787 -4.62771 -3.03971 -3.03970 -3.03955 -3.03915 -3.03901 -3.03898
 -0.09464 0.06587 0.17715 0.21998 0.37563 0.40001 0.45383 0.48872 0.59697 0.63815
 0.70881 0.71858 0.80068 0.84594 0.90013 0.94024 0.99638 1.07540 1.11946 1.15673
 1.19485 1.20994 1.29526 1.30752 1.37479 1.38612 1.43007 1.46873 1.48898 1.54663
 1.56727 1.64413 1.65228 1.73947 1.74758 1.79190 1.82526 1.89496 1.90333 1.99083
 2.01708 2.03915 2.07902 2.11985 2.18427 2.19547 2.26626 2.32755 2.35984 2.40214
 2.40885 2.47305 2.52230 2.57556 2.60003 2.64618 2.69311 2.75742 2.78180 2.80322
 2.81352 2.85312 2.89501 2.91030 2.95306 2.98608 3.04909 3.08989 3.12426 3.16908
 3.17887 3.26022 3.30161 3.32614 3.34206 3.41316 3.46969 3.48284 3.49197 3.51464
 3.57932 3.60189 3.64482 3.71868 3.72279 3.77186 3.80391 3.85046 3.91832 3.95629
 4.06532 4.08569 4.24318 4.36505 4.52503 4.58301 7.90568 8.13037 8.27807 9.39397
 9.66398 10.11389 12.87735 14.41352
 == 1318-th k-point (0.16700,0.27833,0.27833) occupation: 14==
 -65.00572 -65.00571 -4.62787 -4.62771 -3.03970 -3.03970 -3.03957 -3.03913 -3.03900 -3.03900
 -0.09307 0.04899 0.20209 0.23392 0.35793 0.40618 0.40940 0.56173 0.57470 0.61563
 0.69330 0.71823 0.81232 0.81302 0.89980 0.95097 1.01983 1.13040 1.14231 1.14242
 1.18516 1.21908 1.30343 1.32310 1.32955 1.39779 1.43023 1.45219 1.47721 1.53465
 1.54966 1.61409 1.67745 1.71757 1.77239 1.81705 1.82941 1.85262 1.93706 1.98083
 2.02426 2.10641 2.10705 2.14323 2.15773 2.21460 2.31011 2.32467 2.37359 2.39099
 2.39714 2.42590 2.55706 2.58251 2.60338 2.63508 2.73567 2.77084 2.78430 2.79030
 2.81848 2.86673 2.88447 2.93187 2.93805 2.98122 2.98629 3.11430 3.11825 3.13260
 3.14941 3.18801 3.28061 3.35117 3.39070 3.43116 3.46525 3.48476 3.50750 3.54439
 3.61555 3.61656 3.69136 3.70165 3.74323 3.76101 3.79190 3.88368 3.95808 3.97813
 4.01658 4.09652 4.22032 4.37819 4.48032 4.54308 7.97568 8.12785 8.27631 9.57260
 9.61430 10.00201 12.40641 14.64882
 == 1319-th k-point (0.22266,0.33400,0.22266) occupation: 14==
 -65.00572 -65.00571 -4.62786 -4.62772 -3.03970 -3.03969 -3.03956 -3.03913 -3.03901 -3.03898
 -0.08515 0.03612 0.21009 0.22169 0.35497 0.39713 0.41932 0.54826 0.59977 0.66391
 0.68712 0.71355 0.74295 0.82843 0.92724 0.98301 1.03530 1.08558 1.12760 1.14712
 1.20722 1.21338 1.28418 1.31290 1.33161 1.40927 1.41450 1.44156 1.46522 1.51581
 1.54741 1.60277 1.67134 1.71035 1.76041 1.81526 1.85347 1.92256 1.95105 1.98010
 2.01024 2.09059 2.13411 2.18071 2.19658 2.23667 2.26230 2.30784 2.33316 2.37587
 2.40825 2.42385 2.55293 2.56705 2.61473 2.64808 2.75118 2.77454 2.77947 2.80105
 2.80524 2.85740 2.87230 2.90936 2.94065 3.00024 3.06563 3.06948 3.08508 3.11867
 3.14196 3.19634 3.26199 3.26800 3.40668 3.44626 3.45770 3.47815 3.54295 3.54389
 3.60744 3.64291 3.67402 3.68971 3.74970 3.76116 3.81916 3.85166 3.96564 3.97832
 4.04006 4.12884 4.21582 4.34634 4.49190 4.50845 8.09222 8.29285 8.30020 9.33525
 9.81253 9.99754 12.36587 14.70600
 == 1320-th k-point (-0.27833,-0.27833,0.83499) occupation: 14==
 -65.00572 -65.00571 -4.62786 -4.62772 -3.03970 -3.03969 -3.03956 -3.03914 -3.03900 -3.03898
 -0.07511 0.02121 0.20347 0.22546 0.35415 0.39912 0.41239 0.57177 0.62386 0.63655
 0.68150 0.73622 0.74819 0.77770 0.97918 1.02090 1.05053 1.07488 1.09769 1.11248
 1.21512 1.24018 1.25306 1.31675 1.32156 1.37158 1.41748 1.42268 1.47381 1.52318
 1.52963 1.59808 1.66226 1.69723 1.76325 1.82692 1.84380 1.92429 1.96932 1.99404
 2.08965 2.12275 2.14630 2.18918 2.19345 2.21054 2.27276 2.28107 2.32509 2.34489
 2.45306 2.47068 2.52160 2.52545 2.56307 2.68334 2.74869 2.74956 2.77125 2.81703
 2.82864 2.86157 2.88229 2.93255 2.94586 2.96123 3.04871 3.05532 3.11350 3.11850
 3.17386 3.19506 3.21393 3.23517 3.39749 3.40953 3.46102 3.50881 3.51883 3.53644
 3.60932 3.63177 3.67802 3.67851 3.73054 3.76070 3.78258 3.88405 3.98728 3.99069
 4.03006 4.14645 4.24034 4.30932 4.46902 4.48274 8.21701 8.34114 8.38666 9.24635
 9.25171 9.99409 12.39311 14.67062
 == 1321-th k-point (-0.22266,-0.22266,0.77932) occupation: 14==
 -65.00572 -65.00571 -4.62785 -4.62773 -3.03972 -3.03970 -3.03951 -3.03918 -3.03900 -3.03896
 -0.06456 0.02511 0.16106 0.20949 0.35089 0.43597 0.45007 0.53169 0.61192 0.63171
 0.70054 0.75273 0.77599 0.86004 0.97430 0.98122 1.01073 1.05793 1.06256 1.08967
 1.19548 1.24780 1.27067 1.27441 1.30578 1.36788 1.38572 1.44011 1.47047 1.54566
 1.58013 1.62468 1.66773 1.67444 1.72863 1.81110 1.87640 1.94722 1.96268 1.99442
 2.05752 2.10260 2.10963 2.16743 2.16772 2.26803 2.27555 2.27784 2.32561 2.34859
 2.42836 2.43259 2.50099 2.50540 2.53907 2.67408 2.68902 2.74653 2.78474 2.85069
 2.86248 2.89654 2.91259 2.95100 2.96229 3.00464 3.02411 3.05199 3.07567 3.12884
 3.17052 3.22772 3.24724 3.26384 3.35243 3.39739 3.41959 3.44612 3.50592 3.52242
 3.59232 3.61678 3.62404 3.65973 3.75526 3.76283 3.77978 3.86730 3.89604 3.94816
 4.04473 4.18328 4.25496 4.27785 4.51284 4.52483 8.14447 8.39209 8.41229 8.95074
 9.30122 9.88783 12.96927 14.54294
 == 1322-th k-point (-0.16700,-0.16700,0.72366) occupation: 14==
 -65.00572 -65.00572 -4.62783 -4.62775 -3.03973 -3.03971 -3.03946 -3.03923 -3.03899 -3.03896
 -0.05082 0.02835 0.13129 0.19240 0.33013 0.45162 0.50257 0.50391 0.62772 0.63355
 0.76038 0.76729 0.78428 0.93032 0.93537 0.95076 0.96788 1.01354 1.02123 1.12785
 1.15968 1.18110 1.20085 1.33540 1.33991 1.35580 1.36518 1.45290 1.50151 1.56313
 1.59991 1.62833 1.68844 1.69800 1.70681 1.81153 1.89801 1.91562 1.92707 2.01605
 2.02849 2.07821 2.09251 2.13352 2.18960 2.26523 2.28142 2.31778 2.32456 2.34520
 2.40241 2.43673 2.49554 2.54794 2.57166 2.60815 2.65803 2.75369 2.78819 2.81087
 2.84654 2.92372 2.93021 2.96601 2.98925 3.03228 3.05305 3.05384 3.06995 3.11728
 3.17920 3.24362 3.30065 3.31003 3.32434 3.34018 3.36950 3.43601 3.46785 3.48703
 3.55242 3.61346 3.67557 3.70961 3.72701 3.76361 3.80247 3.85804 3.89141 3.94322
 4.05604 4.22152 4.24548 4.28621 4.54939 4.57144 8.12265 8.40456 8.47009 8.79030
 9.38512 9.86559 13.22342 14.19548
 == 1323-th k-point (-0.11133,-0.11133,0.66799) occupation: 14==
 -65.00572 -65.00572 -4.62781 -4.62777 -3.03973 -3.03972 -3.03940 -3.03928 -3.03898 -3.03897
 -0.03327 0.01539 0.13169 0.17912 0.31359 0.38184 0.56717 0.57291 0.63772 0.64203
 0.77303 0.78216 0.83980 0.85009 0.87071 0.94810 0.99808 1.00006 1.05503 1.09517
 1.11827 1.13500 1.17554 1.23875 1.36973 1.40978 1.43867 1.47344 1.54718 1.56329
 1.61736 1.62345 1.68532 1.70301 1.74646 1.78826 1.83109 1.88170 1.92058 1.95520
 1.99647 2.08464 2.08952 2.21080 2.21371 2.24553 2.26037 2.32828 2.34012 2.36466
 2.40036 2.43265 2.49239 2.50389 2.56523 2.67579 2.68781 2.76107 2.77274 2.79273
 2.83122 2.89517 2.89881 2.95802 2.99536 3.00553 3.06465 3.07129 3.11493 3.11549
 3.21723 3.24082 3.25323 3.29226 3.29622 3.33062 3.35732 3.41777 3.46175 3.50338
 3.57651 3.62181 3.63808 3.68691 3.72723 3.73977 3.83267 3.90689 3.98155 3.99668
 4.13211 4.25950 4.29076 4.31104 4.57644 4.61171 8.16842 8.43516 8.56074 8.64863
 9.44795 10.01936 13.34343 13.62735
 == 1324-th k-point (-0.05567,-0.05567,0.61232) occupation: 14==
 -65.00572 -65.00572 -4.62779 -4.62779 -3.03973 -3.03973 -3.03934 -3.03932 -3.03898 -3.03897
 -0.01286 -0.00880 0.15437 0.17163 0.30479 0.32641 0.62497 0.63360 0.65584 0.66312
 0.76873 0.76916 0.76937 0.79222 0.93983 0.94906 1.00688 1.01235 1.02927 1.05897
 1.07769 1.09928 1.19604 1.22946 1.37358 1.41354 1.48834 1.53754 1.56296 1.58705
 1.61178 1.62636 1.69744 1.72592 1.73672 1.74036 1.82314 1.82398 1.88588 1.89702
 2.05398 2.07060 2.09614 2.12203 2.21644 2.23568 2.30633 2.30656 2.35890 2.40960
 2.42037 2.45704 2.49723 2.51610 2.51754 2.60343 2.72574 2.74720 2.76964 2.79193
 2.85687 2.87309 2.93868 2.96520 2.98780 3.03059 3.03213 3.03827 3.09514 3.12477
 3.22194 3.23954 3.24380 3.25135 3.27394 3.30128 3.40252 3.42719 3.51395 3.51515
 3.54034 3.54753 3.67127 3.68225 3.68317 3.73311 3.92970 3.96682 4.00043 4.04529
 4.24706 4.28469 4.34025 4.34122 4.59790 4.61896 8.28586 8.34468 8.62042 8.62636
 9.56721 9.82950 13.39189 13.40292
 == 1325-th k-point (0.00000,0.00000,0.55666) occupation: 14==
 -65.00572 -65.00572 -4.62781 -4.62777 -3.03973 -3.03973 -3.03938 -3.03929 -3.03898 -3.03898
 -0.03672 0.01497 0.17070 0.17070 0.29805 0.31021 0.62831 0.62831 0.70880 0.70880
 0.71370 0.72765 0.77496 0.77780 0.93688 0.96234 0.96234 0.99202 1.06576 1.06789
 1.06790 1.11299 1.21458 1.26118 1.37118 1.37120 1.50387 1.55007 1.55008 1.62466
 1.62947 1.63330 1.70630 1.71460 1.74676 1.74677 1.81899 1.81923 1.85362 1.86599
 2.04388 2.04436 2.10493 2.13611 2.13641 2.26085 2.26946 2.34305 2.37488 2.42086
 2.42091 2.45931 2.52103 2.52177 2.53817 2.54670 2.73000 2.74343 2.79284 2.79317
 2.87193 2.87236 2.95408 2.95768 2.97853 2.99730 3.04631 3.04644 3.05604 3.09661
 3.23017 3.23048 3.23189 3.29076 3.29095 3.30151 3.44956 3.45234 3.48908 3.49474
 3.55946 3.55990 3.59342 3.68261 3.72998 3.73388 3.93080 3.93142 3.99500 4.13850
 4.28156 4.28230 4.32042 4.37951 4.61162 4.61597 8.17122 8.48924 8.56793 8.56821
 9.79686 9.80476 13.38423 13.39776
 == 1326-th k-point (0.05567,0.05567,0.50099) occupation: 14==
 -65.00572 -65.00572 -4.62783 -4.62775 -3.03973 -3.03972 -3.03942 -3.03925 -3.03899 -3.03899
 -0.05821 0.04185 0.16053 0.17640 0.30724 0.33792 0.57792 0.57797 0.70356 0.70361
 0.71583 0.72213 0.81377 0.83995 0.85674 0.93124 0.95066 0.99301 1.06880 1.13065
 1.13990 1.17184 1.18645 1.26636 1.36381 1.37906 1.44764 1.51974 1.54810 1.57465
 1.63047 1.65580 1.72523 1.73239 1.76611 1.77734 1.80283 1.82917 1.86098 1.90831
 1.98842 2.04963 2.07618 2.15174 2.16855 2.21579 2.24807 2.36444 2.36774 2.39324
 2.43262 2.43571 2.51523 2.53289 2.59045 2.59322 2.69063 2.75962 2.82756 2.83325
 2.85114 2.88400 2.90583 2.93876 2.95034 2.98283 3.00665 3.01425 3.08388 3.15541
 3.22495 3.23664 3.26051 3.32123 3.33704 3.34702 3.40261 3.44073 3.51664 3.52996
 3.53946 3.55192 3.60185 3.69114 3.71255 3.74577 3.90430 3.92205 3.94932 4.13606
 4.20354 4.25151 4.29769 4.36464 4.60823 4.62399 8.07978 8.39352 8.42832 8.69898
 10.07582 10.23839 13.29472 13.40740
 == 1327-th k-point (0.11133,0.11133,0.44533) occupation: 14==
 -65.00572 -65.00572 -4.62785 -4.62773 -3.03972 -3.03971 -3.03947 -3.03921 -3.03900 -3.03898
 -0.07360 0.05813 0.15245 0.18823 0.32507 0.39675 0.50884 0.51621 0.68474 0.69840
 0.71070 0.71572 0.78015 0.85601 0.89891 0.95810 0.96532 1.00284 1.06735 1.10799
 1.20495 1.20759 1.22466 1.31470 1.34031 1.35691 1.44928 1.45174 1.51044 1.57459
 1.63558 1.64089 1.68316 1.68875 1.72608 1.80771 1.86655 1.90586 1.91937 1.96808
 1.98379 2.03464 2.09208 2.12584 2.14505 2.16438 2.22386 2.34348 2.36782 2.39030
 2.44962 2.47491 2.51704 2.56449 2.60287 2.60857 2.63625 2.77000 2.78939 2.82858
 2.83423 2.88450 2.90112 2.93033 2.94061 3.01595 3.02834 3.05896 3.09806 3.17213
 3.18025 3.22652 3.27549 3.33037 3.34307 3.36753 3.39664 3.46156 3.50487 3.51147
 3.56537 3.61429 3.64206 3.68291 3.69528 3.77779 3.85581 3.87391 3.92330 4.05990
 4.08842 4.20728 4.27458 4.31894 4.58837 4.59098 8.05137 8.25965 8.31287 8.91019
 10.16064 10.23348 13.17145 13.85144
 == 1328-th k-point (0.16700,0.16700,0.38966) occupation: 14==
 -65.00572 -65.00571 -4.62786 -4.62772 -3.03971 -3.03970 -3.03952 -3.03917 -3.03901 -3.03897
 -0.08250 0.05148 0.17351 0.20463 0.34704 0.44082 0.46097 0.47132 0.64177 0.68249
 0.70401 0.71012 0.74701 0.87465 0.93347 0.94627 1.00169 1.04516 1.07588 1.13953
 1.17975 1.24992 1.27879 1.29913 1.35489 1.36561 1.42263 1.43550 1.49773 1.55271
 1.58057 1.61804 1.67673 1.68499 1.74081 1.79402 1.90330 1.90336 1.96729 1.99148
 2.02806 2.03947 2.05037 2.13732 2.15287 2.19053 2.29376 2.32452 2.32803 2.36811
 2.43757 2.43770 2.51242 2.55105 2.62347 2.64728 2.71843 2.74630 2.78252 2.79696
 2.80211 2.86950 2.90220 2.91139 2.99835 3.01395 3.05473 3.07436 3.09188 3.09476
 3.15775 3.25373 3.31279 3.32032 3.36005 3.36461 3.40022 3.43737 3.52675 3.52676
 3.58943 3.62305 3.68187 3.70059 3.77833 3.78415 3.82250 3.82576 3.84572 3.98772
 4.06047 4.16459 4.25151 4.31127 4.54845 4.55590 8.03084 8.28189 8.30113 9.10681
 9.92662 10.10757 12.94593 14.42404
 == 1329-th k-point (0.22266,0.22266,0.33400) occupation: 14==
 -65.00572 -65.00571 -4.62786 -4.62772 -3.03970 -3.03969 -3.03956 -3.03913 -3.03901 -3.03898
 -0.08515 0.03612 0.21009 0.22169 0.35497 0.39713 0.41932 0.54826 0.59977 0.66391
 0.68712 0.71355 0.74295 0.82843 0.92724 0.98301 1.03530 1.08558 1.12760 1.14712
 1.20722 1.21338 1.28418 1.31290 1.33161 1.40927 1.41450 1.44156 1.46522 1.51581
 1.54741 1.60277 1.67134 1.71035 1.76041 1.81526 1.85347 1.92256 1.95105 1.98010
 2.01024 2.09059 2.13411 2.18071 2.19658 2.23667 2.26230 2.30784 2.33316 2.37587
 2.40825 2.42385 2.55293 2.56705 2.61473 2.64808 2.75118 2.77454 2.77947 2.80105
 2.80524 2.85740 2.87230 2.90936 2.94065 3.00024 3.06563 3.06948 3.08508 3.11867
 3.14196 3.19634 3.26199 3.26800 3.40668 3.44626 3.45770 3.47815 3.54295 3.54389
 3.60744 3.64291 3.67402 3.68971 3.74970 3.76116 3.81916 3.85166 3.96564 3.97832
 4.04006 4.12884 4.21582 4.34634 4.49190 4.50845 8.09222 8.29285 8.30020 9.33525
 9.81253 9.99754 12.36587 14.70600
 == 1330-th k-point (0.27833,0.27833,0.27833) occupation: 14==
 -65.00572 -65.00571 -4.62786 -4.62772 -3.03969 -3.03969 -3.03958 -3.03911 -3.03900 -3.03900
 -0.08231 0.02471 0.23116 0.23116 0.33409 0.40049 0.40049 0.55925 0.64769 0.64769
 0.67887 0.72245 0.72245 0.76674 0.95635 1.04576 1.04576 1.06218 1.13511 1.13511
 1.21751 1.26310 1.26310 1.30868 1.30868 1.37517 1.41441 1.48960 1.48960 1.50721
 1.50721 1.58393 1.63017 1.66155 1.87478 1.87478 1.88800 1.90283 1.90283 1.92066
 2.08656 2.08656 2.16696 2.22133 2.22133 2.26804 2.26809 2.26809 2.34021 2.34021
 2.43678 2.43678 2.58047 2.58047 2.59512 2.65727 2.76431 2.79716 2.79716 2.80091
 2.80597 2.81062 2.81062 2.87852 2.97967 3.01000 3.06711 3.06711 3.09897 3.09897
 3.15705 3.15705 3.27084 3.27084 3.31310 3.46730 3.46730 3.54940 3.55157 3.55157
 3.56073 3.68352 3.68352 3.69033 3.73979 3.76272 3.91651 3.91651 3.99372 3.99372
 4.12573 4.12855 4.12855 4.35367 4.45459 4.45459 8.23585 8.23585 8.27987 9.52462
 9.52462 10.00938 11.95012 14.74154
 ---------------------------------------------------------------------------
 VBM is at 665-th k-point with 7.49059 eV
 CBM is at 55-th k-point with 8.11029 eV
 Band gap is 0.61969 eV


           Ground-State Mulliken Net Atomic Charges

      Atom                 Charge (a.u.)          Spin (a.u.)
   --------------------------------------------------------
      1 Si              (-0.000000,-0.000000)    (0.000000,0.000000)
      2 Si                (0.000000,0.000000)    (0.000000,0.000000)
   --------------------------------------------------------
  Sum of atomic charges =     (-0.000000,-0.000000)
  Sum of spin   charges =       (0.000000,0.000000)



 Total job time:  1597.27 s.
 Tue Sep  9 07:07:48 2025


        *************************************************************
        *                                                           *
        *  Thank you very much for using QCPBC. Have a nice day.    *
        *                                                           *
        *************************************************************

Running job 1 of 1
