                  Welcome to Q-Chem
           with Periodic Boundary Condition
     A Quantum Leap Into The Future Of Chemistry

 Adam Rettig, Xintian Feng, Meng-Fu Chen, Hieu Dinh, Stephen Quiton,
 Anton Ni, Paul J. Robinson, Jinghong Zhang, Joonho Lee

Contributors to earlier versions of Q-Chem not listed above:
 Evgeny Epifanovsky, Leo Cunha, Jerome F. Gonthier, Kuan-Yu Liu
 Input file: /n/netscratch/joonholee_lab/Lab/hieudinh//si_2_ccpvqz_omega_0.6_555.scratch20250909030635/si_2_ccpvqz_omega_0.6_555.0
 Scratch folder: /n/netscratch/joonholee_lab/Lab/hieudinh//si_2_ccpvqz_omega_0.6_555.scratch20250909030635
 Auxillary files located at: /n/holylabs/LABS/joonholee_lab/Lab/qchem_base/qcaux
 Q-Chem begins on Tue Sep  9 03:06:36 2025

 -------------------------------------------------------------
 User input:
 -------------------------------------------------------------
 $lattice
 3
 0.000000 5.130600 5.130600
 5.130600 0.000000 5.130600
 5.130600 5.130600 0.000000
 $end
 
 $unitcell
 ABSOLUTE
 0 1
 Si 0.000000 0.000000 0.000000
 Si 2.565300 2.565300 2.565300
 $end
 
 $rem
 jobtype = sp
 method = pbe
 scf_convergence = 5
 scf_guess = autosad
 scf_algorithm = diis_gdm
 basis = cc-pvqz
 aux_basis = cc-pvqz-jk
 input_bohr = true
 symmetry = false
 rsdf_print_level 1
 is_basis_uctr true
 
 mp_mesh = [5,5,5]
 
 integral_direct true
 bvk_cgto true
 
 thresh 14
 mem_total 1000000
 threads 32
 
 MAX_SCF_CYCLES 500
 madelung = false
 omega 0.6
 do_rij_bigmem true
 automate_g true
 print_level 10
 grid_type_xc 1
 
 thresh_1e2c_sp 1e-14
 thresh_2e3c_bra_ket_sep 1e-10
 thresh_g 1e-12
 $end
 
 -------------------------------------------------------------
 Running PBC job

 Requested Exchange Correlation Functionals: 
  DFT Exchange:  1.00000 pbe_x
  DFT Correlation:  1.00000 pbe_c
 using 32 threads for computing.
 ---------------------------------------------------------------
      Coordinates of Atoms in Central Unit Cell (Angstroms)
    I     Atom         X            Y            Z
 ---------------------------------------------------------------
    1      Si      0.000000     0.000000     0.000000
    2      Si      1.357498     1.357498     1.357498
 ---------------------------------------------------------------
 --------------------------------------------------
              Lattice Vectors (Angstroms)
              X            Y            Z
 --------------------------------------------------
   X       0.000000     2.714997     2.714997
   Y       2.714997     0.000000     2.714997
   Z       2.714997     2.714997     0.000000
 --------------------------------------------------
 --------------------------------------------------
       Reciprocal Lattice Vectors (Angstroms^-1)
              X            Y            Z
 --------------------------------------------------
   X      -1.157126     1.157126     1.157126
   Y       1.157126    -1.157126     1.157126
   Z       1.157126     1.157126    -1.157126
 --------------------------------------------------

 Single point calculation requested

 Hamiltonian contributions:
 List of terms in Hamiltonian: kpts_nn, kpts_kinetic, kpts_vnuc_df, kpts_xc, kpts_rij_bigmem

 K-Points calculation started.

 Basis set information about using solid harmonic (1) or Cartesian (0):
  si : D(1) D(1) D(1) F(1) F(1) G(1) 

 Basis set information about using solid harmonic (1) or Cartesian (0):
  si : D(1) D(1) D(1) D(1) D(1) D(1) D(1) D(1) D(1) F(1) F(1) F(1) F(1) G(1) G(1) H(1) 

 There are 118 basis functions in the central unit cell.
 Print atomic basis of atoms in the central unit cell:
 -------------------------------------------------------------
2 66 134 28

  0.00000000000000e+00  0.00000000000000e+00  0.00000000000000e+00
  2.56530000000000e+00  2.56530000000000e+00  2.56530000000000e+00

  5.13000000000000e+05
  7.68200000000000e+04
  1.74700000000000e+04
  4.93500000000000e+03
  1.60200000000000e+03
  5.74100000000000e+02
  2.21500000000000e+02
  9.05400000000000e+01
  3.87400000000000e+01
  1.69500000000000e+01
  6.45200000000000e+00
  2.87400000000000e+00
  1.25000000000000e+00
  3.59900000000000e-01
  1.69900000000000e-01
  7.06600000000000e-02
  1.12200000000000e+03
  2.66000000000000e+02
  8.59200000000000e+01
  3.23300000000000e+01
  1.33700000000000e+01
  5.80000000000000e+00
  2.55900000000000e+00
  1.12400000000000e+00
  3.98800000000000e-01
  1.53300000000000e-01
  5.72800000000000e-02
  7.60000000000000e-01
  3.02000000000000e-01
  1.20000000000000e-01
  5.41000000000000e-01
  2.12000000000000e-01
  4.61000000000000e-01
  5.13000000000000e+05
  7.68200000000000e+04
  1.74700000000000e+04
  4.93500000000000e+03
  1.60200000000000e+03
  5.74100000000000e+02
  2.21500000000000e+02
  9.05400000000000e+01
  3.87400000000000e+01
  1.69500000000000e+01
  6.45200000000000e+00
  2.87400000000000e+00
  1.25000000000000e+00
  3.59900000000000e-01
  1.69900000000000e-01
  7.06600000000000e-02
  1.12200000000000e+03
  2.66000000000000e+02
  8.59200000000000e+01
  3.23300000000000e+01
  1.33700000000000e+01
  5.80000000000000e+00
  2.55900000000000e+00
  1.12400000000000e+00
  3.98800000000000e-01
  1.53300000000000e-01
  5.72800000000000e-02
  7.60000000000000e-01
  3.02000000000000e-01
  1.20000000000000e-01
  5.41000000000000e-01
  2.12000000000000e-01
  4.61000000000000e-01

  3.56439732356011e-01
  6.67250935594825e-01
  1.15567538346971e+00
  1.89079471139597e+00
  2.92997535092854e+00
  4.25377897422013e+00
  5.53035652706994e+00
  5.88407857713363e+00
  4.26432221020809e+00
  1.46246852660687e+00
  9.90009037975635e-02
 -5.26805361731285e-03
  1.58075269248041e-03
 -9.63604858609034e-02
 -1.80140685379119e-01
 -3.12991611081079e-01
 -5.12013980868736e-01
 -8.03092560139717e-01
 -1.18597193899895e+00
 -1.63453354628192e+00
 -1.94138718043020e+00
 -1.86039340932271e+00
 -9.21642524314205e-01
  4.93552860211257e-01
  9.09065541611183e-01
  3.40430003714153e-01
  4.89002727192571e-02
  9.13245846186842e-02
  1.58921585782757e-01
  2.59526822498432e-01
  4.08347517411705e-01
  6.02266139654795e-01
  8.36774006155092e-01
  9.98775610751853e-01
  9.86583994360998e-01
  5.01500269670235e-01
 -2.91439000418814e-01
 -6.84883633703988e-01
 -4.85138432421684e-01
  3.31166560285492e-01
  1.88605835767988e-01
  9.76765512168845e-02
  4.17977074735086e+00
  5.88843070847456e+00
  7.44317185052013e+00
  8.05001094515016e+00
  6.97099017282640e+00
  4.33955185260449e+00
  1.76355858703549e+00
  3.34437932089088e-01
 -4.09551658476811e+00
 -5.70145272051300e+00
 -7.35388974061730e+00
 -7.93663059323219e+00
 -7.17813870370958e+00
 -4.42768957771269e+00
 -2.05517820096269e+00
 -1.72105843348797e-01
  4.51735295769850e-01
  1.36731249153695e-01
  3.99432914781939e-02
  1.01820035164008e+00
  2.02498404800701e-01
  4.02695370421242e-02
  3.69528803814005e-01
  4.48962571437413e-02
  1.32316184864580e-01
  3.56439732356011e-01
  6.67250935594825e-01
  1.15567538346971e+00
  1.89079471139597e+00
  2.92997535092854e+00
  4.25377897422013e+00
  5.53035652706994e+00
  5.88407857713363e+00
  4.26432221020809e+00
  1.46246852660687e+00
  9.90009037975635e-02
 -5.26805361731285e-03
  1.58075269248041e-03
 -9.63604858609034e-02
 -1.80140685379119e-01
 -3.12991611081079e-01
 -5.12013980868736e-01
 -8.03092560139717e-01
 -1.18597193899895e+00
 -1.63453354628192e+00
 -1.94138718043020e+00
 -1.86039340932271e+00
 -9.21642524314205e-01
  4.93552860211257e-01
  9.09065541611183e-01
  3.40430003714153e-01
  4.89002727192571e-02
  9.13245846186842e-02
  1.58921585782757e-01
  2.59526822498432e-01
  4.08347517411705e-01
  6.02266139654795e-01
  8.36774006155092e-01
  9.98775610751853e-01
  9.86583994360998e-01
  5.01500269670235e-01
 -2.91439000418814e-01
 -6.84883633703988e-01
 -4.85138432421684e-01
  3.31166560285492e-01
  1.88605835767988e-01
  9.76765512168845e-02
  4.17977074735086e+00
  5.88843070847456e+00
  7.44317185052013e+00
  8.05001094515016e+00
  6.97099017282640e+00
  4.33955185260449e+00
  1.76355858703549e+00
  3.34437932089088e-01
 -4.09551658476811e+00
 -5.70145272051300e+00
 -7.35388974061730e+00
 -7.93663059323219e+00
 -7.17813870370958e+00
 -4.42768957771269e+00
 -2.05517820096269e+00
 -1.72105843348797e-01
  4.51735295769850e-01
  1.36731249153695e-01
  3.99432914781939e-02
  1.01820035164008e+00
  2.02498404800701e-01
  4.02695370421242e-02
  3.69528803814005e-01
  4.48962571437413e-02
  1.32316184864580e-01

0 0 0 0 3 3 3
0 0 13 0 26 0 
13 0

0 3 3 13 1 1 1
39 0 
1 0

0 4 4 14 1 1 1
40 0 
1 0

0 5 5 15 1 1 1
41 0 
1 0

0 6 6 16 2 6 6
42 1 50 1 
8 0

0 12 12 24 1 3 3
58 1 
1 0

0 15 15 25 1 3 3
59 1 
1 0

0 18 18 26 1 3 3
60 1 
1 0

0 21 21 27 1 5 6
61 2 
1 1

0 26 26 28 1 5 6
62 2 
1 1

0 31 31 29 1 5 6
63 2 
1 1

0 36 36 30 1 7 10
64 3 
1 1

0 43 43 31 1 7 10
65 3 
1 1

0 50 50 32 1 9 15
66 4 
1 1

1 59 59 33 3 3 3
67 0 80 0 93 0 
13 0

1 62 62 46 1 1 1
106 0 
1 0

1 63 63 47 1 1 1
107 0 
1 0

1 64 64 48 1 1 1
108 0 
1 0

1 65 65 49 2 6 6
109 1 117 1 
8 0

1 71 71 57 1 3 3
125 1 
1 0

1 74 74 58 1 3 3
126 1 
1 0

1 77 77 59 1 3 3
127 1 
1 0

1 80 80 60 1 5 6
128 2 
1 1

1 85 85 61 1 5 6
129 2 
1 1

1 90 90 62 1 5 6
130 2 
1 1

1 95 95 63 1 7 10
131 3 
1 1

1 102 102 64 1 7 10
132 3 
1 1

1 109 109 65 1 9 15
133 4 
1 1

 -------------------------------------------------------------
 Allocate 265256 B from available memory: 1048576000000 B
 There are 2197 image cells after screening.
 There are 2061 image cells for CGTO evaluation after screening.
 Real-Space grid for FFT initialized based on kinetic energy cutoff (eV) = 500.0
 Real-Space grid for FFT: (10,10,10)
 There are 9261 real-space grid points.
 There are 64 batches of real-space grid points. 
 Size of each grid batch is around 128
 Grid for AFT initialized based on kinetic energy cutoff (eV) = 500.0
 Real-Space grid for AFT: (10,10,10)
 There are 9261 real-space grid points.

 There are 5628 atom-centered grid points.

 Spacegroup symmetry group: Fd-3m
 Reducing spacegroup symmetry to symmorphic group: F -4 3 m
 Monkhorst-Pack mesh is [5,5,5]
 There are 125 k points.
kpoints in Bohr
-0.2449298447 -0.2449298447 -0.2449298447
-0.1224649224 -0.1224649224 -0.3673947671
-0.0000000000 -0.0000000000 -0.4898596895
0.1224649224 0.1224649224 -0.6123246119
0.2449298447 0.2449298447 -0.7347895342
-0.1224649224 -0.3673947671 -0.1224649224
-0.0000000000 -0.2449298447 -0.2449298447
0.1224649224 -0.1224649224 -0.3673947671
0.2449298447 -0.0000000000 -0.4898596895
0.3673947671 0.1224649224 -0.6123246119
-0.0000000000 -0.4898596895 0.0000000000
0.1224649224 -0.3673947671 -0.1224649224
0.2449298447 -0.2449298447 -0.2449298447
0.3673947671 -0.1224649224 -0.3673947671
0.4898596895 0.0000000000 -0.4898596895
0.1224649224 -0.6123246119 0.1224649224
0.2449298447 -0.4898596895 0.0000000000
0.3673947671 -0.3673947671 -0.1224649224
0.4898596895 -0.2449298447 -0.2449298447
0.6123246119 -0.1224649224 -0.3673947671
0.2449298447 -0.7347895342 0.2449298447
0.3673947671 -0.6123246119 0.1224649224
0.4898596895 -0.4898596895 0.0000000000
0.6123246119 -0.3673947671 -0.1224649224
0.7347895342 -0.2449298447 -0.2449298447
-0.3673947671 -0.1224649224 -0.1224649224
-0.2449298447 -0.0000000000 -0.2449298447
-0.1224649224 0.1224649224 -0.3673947671
-0.0000000000 0.2449298447 -0.4898596895
0.1224649224 0.3673947671 -0.6123246119
-0.2449298447 -0.2449298447 0.0000000000
-0.1224649224 -0.1224649224 -0.1224649224
-0.0000000000 -0.0000000000 -0.2449298447
0.1224649224 0.1224649224 -0.3673947671
0.2449298447 0.2449298447 -0.4898596895
-0.1224649224 -0.3673947671 0.1224649224
-0.0000000000 -0.2449298447 0.0000000000
0.1224649224 -0.1224649224 -0.1224649224
0.2449298447 0.0000000000 -0.2449298447
0.3673947671 0.1224649224 -0.3673947671
-0.0000000000 -0.4898596895 0.2449298447
0.1224649224 -0.3673947671 0.1224649224
0.2449298447 -0.2449298447 0.0000000000
0.3673947671 -0.1224649224 -0.1224649224
0.4898596895 0.0000000000 -0.2449298447
0.1224649224 -0.6123246119 0.3673947671
0.2449298447 -0.4898596895 0.2449298447
0.3673947671 -0.3673947671 0.1224649224
0.4898596895 -0.2449298447 0.0000000000
0.6123246119 -0.1224649224 -0.1224649224
-0.4898596895 -0.0000000000 -0.0000000000
-0.3673947671 0.1224649224 -0.1224649224
-0.2449298447 0.2449298447 -0.2449298447
-0.1224649224 0.3673947671 -0.3673947671
0.0000000000 0.4898596895 -0.4898596895
-0.3673947671 -0.1224649224 0.1224649224
-0.2449298447 -0.0000000000 -0.0000000000
-0.1224649224 0.1224649224 -0.1224649224
0.0000000000 0.2449298447 -0.2449298447
0.1224649224 0.3673947671 -0.3673947671
-0.2449298447 -0.2449298447 0.2449298447
-0.1224649224 -0.1224649224 0.1224649224
0.0000000000 0.0000000000 0.0000000000
0.1224649224 0.1224649224 -0.1224649224
0.2449298447 0.2449298447 -0.2449298447
-0.1224649224 -0.3673947671 0.3673947671
-0.0000000000 -0.2449298447 0.2449298447
0.1224649224 -0.1224649224 0.1224649224
0.2449298447 0.0000000000 0.0000000000
0.3673947671 0.1224649224 -0.1224649224
-0.0000000000 -0.4898596895 0.4898596895
0.1224649224 -0.3673947671 0.3673947671
0.2449298447 -0.2449298447 0.2449298447
0.3673947671 -0.1224649224 0.1224649224
0.4898596895 0.0000000000 0.0000000000
-0.6123246119 0.1224649224 0.1224649224
-0.4898596895 0.2449298447 -0.0000000000
-0.3673947671 0.3673947671 -0.1224649224
-0.2449298447 0.4898596895 -0.2449298447
-0.1224649224 0.6123246119 -0.3673947671
-0.4898596895 -0.0000000000 0.2449298447
-0.3673947671 0.1224649224 0.1224649224
-0.2449298447 0.2449298447 -0.0000000000
-0.1224649224 0.3673947671 -0.1224649224
0.0000000000 0.4898596895 -0.2449298447
-0.3673947671 -0.1224649224 0.3673947671
-0.2449298447 0.0000000000 0.2449298447
-0.1224649224 0.1224649224 0.1224649224
0.0000000000 0.2449298447 0.0000000000
0.1224649224 0.3673947671 -0.1224649224
-0.2449298447 -0.2449298447 0.4898596895
-0.1224649224 -0.1224649224 0.3673947671
0.0000000000 0.0000000000 0.2449298447
0.1224649224 0.1224649224 0.1224649224
0.2449298447 0.2449298447 0.0000000000
-0.1224649224 -0.3673947671 0.6123246119
0.0000000000 -0.2449298447 0.4898596895
0.1224649224 -0.1224649224 0.3673947671
0.2449298447 0.0000000000 0.2449298447
0.3673947671 0.1224649224 0.1224649224
-0.7347895342 0.2449298447 0.2449298447
-0.6123246119 0.3673947671 0.1224649224
-0.4898596895 0.4898596895 -0.0000000000
-0.3673947671 0.6123246119 -0.1224649224
-0.2449298447 0.7347895342 -0.2449298447
-0.6123246119 0.1224649224 0.3673947671
-0.4898596895 0.2449298447 0.2449298447
-0.3673947671 0.3673947671 0.1224649224
-0.2449298447 0.4898596895 -0.0000000000
-0.1224649224 0.6123246119 -0.1224649224
-0.4898596895 0.0000000000 0.4898596895
-0.3673947671 0.1224649224 0.3673947671
-0.2449298447 0.2449298447 0.2449298447
-0.1224649224 0.3673947671 0.1224649224
0.0000000000 0.4898596895 0.0000000000
-0.3673947671 -0.1224649224 0.6123246119
-0.2449298447 0.0000000000 0.4898596895
-0.1224649224 0.1224649224 0.3673947671
0.0000000000 0.2449298447 0.2449298447
0.1224649224 0.3673947671 0.1224649224
-0.2449298447 -0.2449298447 0.7347895342
-0.1224649224 -0.1224649224 0.6123246119
0.0000000000 0.0000000000 0.4898596895
0.1224649224 0.1224649224 0.3673947671
0.2449298447 0.2449298447 0.2449298447
 There are 14 alpha and 14 beta electrons
 Start computing overlap matrix
 Allocate 27848000 B from available memory: 1048575734752 B
 Time for computing overlap matrix: 3.7630000000 s
 ====== Initialize compute kernels for all-electron RI-J (kpts) ====== 
 ========================================================== 
 Range-separated parameter omega        = 0.599999999999999978
 Threshold for 1e2c shellpair           = 0.000000000000010000
 Threshold for 2e2c SR integral         = 0.000000000000000001
 Threshold for 2e3c SR integral         = 0.000000000100000000
 Threshold for AFT G-space screening is = 0.000000000001000000
 The exponent cutoff for C/D classification (omega2 / 2) is  = 0.179999999999999993
 ========================================================== 
 === Post process the basis set for RI calculation (exp_cutoff = 0.179999999999999993 ) === 
nshells_b1 before uncontraction = 28
nshells_b1 after uncontraction = 28
nshells_baux before uncontraction = 80
nshells_baux after uncontraction = 80
===============================================
nbsf total   = 118
nbsf compact = 92
nbsf diffuse = 26
naux total   = 296
naux compact = 296
naux diffuse = 0
nshells_bnuc = 2

 Number of unique atoms is 1
 Unique atom #0 (si) has 9 shells.

Shell 0 to 8 belongs to atom si
Shell 9 to 17 belongs to atom si

 Number of unique atoms is 1
 Unique atom #0 (si) has 5 shells.

Shell 0 to 4 belongs to atom si
Shell 5 to 9 belongs to atom si

 Number of unique atom is 1
 Unique atom #0 (si) has 40 auxiliary shells.

Auxiliary Shell 0 to 39 belongs to atom si
Auxiliary Shell 40 to 79 belongs to atom si

================= Automatically determine grid size for reciprocal space summation =================
 Range-separated parameter = 0.60000000000000 and G-space screening threshold = 0.00000000000100
The number of grid points along each axis dimension is (7, 7, 7)
Total number of grid points = 3375

Use nonortho shellpair for diffuse density
======== Initializing relevant kernel for RIJ (DD type) ========
There are 55 shellpairs in the reference unit cell
There are 3757 images and we expect to have 206635 in total
There are 11898 shellpairs in the lattice sum after screening
======== Initializing relevant kernel for RIJ (CD type) ========
There are 180 shellpairs in the reference unit cell
There are 2659 images and we expect to have 478620 in total
There are 19974 shellpairs in the lattice sum after screening
****** AFT -> SR ******
Maximum bra distance cutoff is 23.000000000000
Maximum bra ket distance cutoff is 24.132153614458
Maximum bra ket screening distance is 21.593750000000
Number of auxiliary image is 647
There are 180 shellpairs in the reference unit cell
There are 551 images and we expect to have 99180 in total
There are 19974 shellpairs in the lattice sum after screening
Available memory per thread for 2e3c calculation is 32.767121461000Gb
Finish initializing 2e3c SR with the lattice sum!
=================================================
======== Initializing relevant kernel for RIJ (CC type) ========
There are 171 shellpairs in the reference unit cell
There are 1241 images and we expect to have 212211 in total
There are 4082 shellpairs in the lattice sum after screening
****** AFT -> SR ******
Maximum bra distance cutoff is 15.000000000000
Maximum bra ket distance cutoff is 25.131175705795
Maximum bra ket screening distance is 21.156250000000
Number of auxiliary image is 647
There are 171 shellpairs in the reference unit cell
There are 237 images and we expect to have 40527 in total
There are 4082 shellpairs in the lattice sum after screening
Available memory per thread for 2e3c calculation is 32.767121461000Gb
Finish initializing 2e3c SR with the lattice sum!
=================================================
======== Initializing the SR component for Vnuc (CD type) ========
Maximum bra distance cutoff is 23.000000000000
Maximum bra ket distance cutoff is 16.737418337388
Maximum bra ket screening distance is 14.115333913559
Number of auxiliary image is 551
There are 180 shellpairs in the reference unit cell
There are 551 images and we expect to have 99180 in total
There are 19974 shellpairs in the lattice sum after screening
Available memory per thread for 2e3c calculation is 32.767121461000Gb
Finish initializing 2e3c SR with the lattice sum!
=================================================
======== Initialize the SR component for Vnuc (CC type) ========
Maximum bra distance cutoff is 15.000000000000
Maximum bra ket distance cutoff is 17.743801426189
Maximum bra ket screening distance is 13.222397966002
Number of auxiliary image is 285
There are 171 shellpairs in the reference unit cell
There are 237 images and we expect to have 40527 in total
There are 4082 shellpairs in the lattice sum after screening
Available memory per thread for 2e3c calculation is 32.767121461000Gb
Finish initializing 2e3c SR with the lattice sum!
=================================================
 Aufbau occupation scheme, occupation determined by eigenvalue
 == 0-th k-point nmo = 114 (-0.24493,-0.24493,-0.24493) ==
 == 1-th k-point nmo = 114 (-0.12246,-0.12246,-0.36739) ==
 == 2-th k-point nmo = 114 (-0.00000,-0.00000,-0.48986) ==
 == 3-th k-point nmo = 114 (0.12246,0.12246,-0.61232) ==
 == 4-th k-point nmo = 114 (0.24493,0.24493,-0.73479) ==
 == 5-th k-point nmo = 114 (-0.12246,-0.36739,-0.12246) ==
 == 6-th k-point nmo = 114 (-0.00000,-0.24493,-0.24493) ==
 == 7-th k-point nmo = 114 (0.12246,-0.12246,-0.36739) ==
 == 8-th k-point nmo = 114 (0.24493,-0.00000,-0.48986) ==
 == 9-th k-point nmo = 114 (0.36739,0.12246,-0.61232) ==
 == 10-th k-point nmo = 114 (-0.00000,-0.48986,0.00000) ==
 == 11-th k-point nmo = 114 (0.12246,-0.36739,-0.12246) ==
 == 12-th k-point nmo = 114 (0.24493,-0.24493,-0.24493) ==
 == 13-th k-point nmo = 114 (0.36739,-0.12246,-0.36739) ==
 == 14-th k-point nmo = 114 (0.48986,0.00000,-0.48986) ==
 == 15-th k-point nmo = 114 (0.12246,-0.61232,0.12246) ==
 == 16-th k-point nmo = 114 (0.24493,-0.48986,0.00000) ==
 == 17-th k-point nmo = 114 (0.36739,-0.36739,-0.12246) ==
 == 18-th k-point nmo = 114 (0.48986,-0.24493,-0.24493) ==
 == 19-th k-point nmo = 114 (0.61232,-0.12246,-0.36739) ==
 == 20-th k-point nmo = 114 (0.24493,-0.73479,0.24493) ==
 == 21-th k-point nmo = 114 (0.36739,-0.61232,0.12246) ==
 == 22-th k-point nmo = 114 (0.48986,-0.48986,0.00000) ==
 == 23-th k-point nmo = 114 (0.61232,-0.36739,-0.12246) ==
 == 24-th k-point nmo = 114 (0.73479,-0.24493,-0.24493) ==
 == 25-th k-point nmo = 114 (-0.36739,-0.12246,-0.12246) ==
 == 26-th k-point nmo = 114 (-0.24493,-0.00000,-0.24493) ==
 == 27-th k-point nmo = 114 (-0.12246,0.12246,-0.36739) ==
 == 28-th k-point nmo = 114 (-0.00000,0.24493,-0.48986) ==
 == 29-th k-point nmo = 114 (0.12246,0.36739,-0.61232) ==
 == 30-th k-point nmo = 114 (-0.24493,-0.24493,0.00000) ==
 == 31-th k-point nmo = 115 (-0.12246,-0.12246,-0.12246) ==
 == 32-th k-point nmo = 114 (-0.00000,-0.00000,-0.24493) ==
 == 33-th k-point nmo = 114 (0.12246,0.12246,-0.36739) ==
 == 34-th k-point nmo = 114 (0.24493,0.24493,-0.48986) ==
 == 35-th k-point nmo = 114 (-0.12246,-0.36739,0.12246) ==
 == 36-th k-point nmo = 114 (-0.00000,-0.24493,0.00000) ==
 == 37-th k-point nmo = 115 (0.12246,-0.12246,-0.12246) ==
 == 38-th k-point nmo = 114 (0.24493,0.00000,-0.24493) ==
 == 39-th k-point nmo = 114 (0.36739,0.12246,-0.36739) ==
 == 40-th k-point nmo = 114 (-0.00000,-0.48986,0.24493) ==
 == 41-th k-point nmo = 114 (0.12246,-0.36739,0.12246) ==
 == 42-th k-point nmo = 114 (0.24493,-0.24493,0.00000) ==
 == 43-th k-point nmo = 114 (0.36739,-0.12246,-0.12246) ==
 == 44-th k-point nmo = 114 (0.48986,0.00000,-0.24493) ==
 == 45-th k-point nmo = 114 (0.12246,-0.61232,0.36739) ==
 == 46-th k-point nmo = 114 (0.24493,-0.48986,0.24493) ==
 == 47-th k-point nmo = 114 (0.36739,-0.36739,0.12246) ==
 == 48-th k-point nmo = 114 (0.48986,-0.24493,0.00000) ==
 == 49-th k-point nmo = 114 (0.61232,-0.12246,-0.12246) ==
 == 50-th k-point nmo = 114 (-0.48986,-0.00000,-0.00000) ==
 == 51-th k-point nmo = 114 (-0.36739,0.12246,-0.12246) ==
 == 52-th k-point nmo = 114 (-0.24493,0.24493,-0.24493) ==
 == 53-th k-point nmo = 114 (-0.12246,0.36739,-0.36739) ==
 == 54-th k-point nmo = 114 (0.00000,0.48986,-0.48986) ==
 == 55-th k-point nmo = 114 (-0.36739,-0.12246,0.12246) ==
 == 56-th k-point nmo = 114 (-0.24493,-0.00000,-0.00000) ==
 == 57-th k-point nmo = 115 (-0.12246,0.12246,-0.12246) ==
 == 58-th k-point nmo = 114 (0.00000,0.24493,-0.24493) ==
 == 59-th k-point nmo = 114 (0.12246,0.36739,-0.36739) ==
 == 60-th k-point nmo = 114 (-0.24493,-0.24493,0.24493) ==
 == 61-th k-point nmo = 115 (-0.12246,-0.12246,0.12246) ==
 == 62-th k-point nmo = 115 (0.00000,0.00000,0.00000) ==
 == 63-th k-point nmo = 115 (0.12246,0.12246,-0.12246) ==
 == 64-th k-point nmo = 114 (0.24493,0.24493,-0.24493) ==
 == 65-th k-point nmo = 114 (-0.12246,-0.36739,0.36739) ==
 == 66-th k-point nmo = 114 (-0.00000,-0.24493,0.24493) ==
 == 67-th k-point nmo = 115 (0.12246,-0.12246,0.12246) ==
 == 68-th k-point nmo = 114 (0.24493,0.00000,0.00000) ==
 == 69-th k-point nmo = 114 (0.36739,0.12246,-0.12246) ==
 == 70-th k-point nmo = 114 (-0.00000,-0.48986,0.48986) ==
 == 71-th k-point nmo = 114 (0.12246,-0.36739,0.36739) ==
 == 72-th k-point nmo = 114 (0.24493,-0.24493,0.24493) ==
 == 73-th k-point nmo = 114 (0.36739,-0.12246,0.12246) ==
 == 74-th k-point nmo = 114 (0.48986,0.00000,0.00000) ==
 == 75-th k-point nmo = 114 (-0.61232,0.12246,0.12246) ==
 == 76-th k-point nmo = 114 (-0.48986,0.24493,-0.00000) ==
 == 77-th k-point nmo = 114 (-0.36739,0.36739,-0.12246) ==
 == 78-th k-point nmo = 114 (-0.24493,0.48986,-0.24493) ==
 == 79-th k-point nmo = 114 (-0.12246,0.61232,-0.36739) ==
 == 80-th k-point nmo = 114 (-0.48986,-0.00000,0.24493) ==
 == 81-th k-point nmo = 114 (-0.36739,0.12246,0.12246) ==
 == 82-th k-point nmo = 114 (-0.24493,0.24493,-0.00000) ==
 == 83-th k-point nmo = 114 (-0.12246,0.36739,-0.12246) ==
 == 84-th k-point nmo = 114 (0.00000,0.48986,-0.24493) ==
 == 85-th k-point nmo = 114 (-0.36739,-0.12246,0.36739) ==
 == 86-th k-point nmo = 114 (-0.24493,0.00000,0.24493) ==
 == 87-th k-point nmo = 115 (-0.12246,0.12246,0.12246) ==
 == 88-th k-point nmo = 114 (0.00000,0.24493,0.00000) ==
 == 89-th k-point nmo = 114 (0.12246,0.36739,-0.12246) ==
 == 90-th k-point nmo = 114 (-0.24493,-0.24493,0.48986) ==
 == 91-th k-point nmo = 114 (-0.12246,-0.12246,0.36739) ==
 == 92-th k-point nmo = 114 (0.00000,0.00000,0.24493) ==
 == 93-th k-point nmo = 115 (0.12246,0.12246,0.12246) ==
 == 94-th k-point nmo = 114 (0.24493,0.24493,0.00000) ==
 == 95-th k-point nmo = 114 (-0.12246,-0.36739,0.61232) ==
 == 96-th k-point nmo = 114 (0.00000,-0.24493,0.48986) ==
 == 97-th k-point nmo = 114 (0.12246,-0.12246,0.36739) ==
 == 98-th k-point nmo = 114 (0.24493,0.00000,0.24493) ==
 == 99-th k-point nmo = 114 (0.36739,0.12246,0.12246) ==
 == 100-th k-point nmo = 114 (-0.73479,0.24493,0.24493) ==
 == 101-th k-point nmo = 114 (-0.61232,0.36739,0.12246) ==
 == 102-th k-point nmo = 114 (-0.48986,0.48986,-0.00000) ==
 == 103-th k-point nmo = 114 (-0.36739,0.61232,-0.12246) ==
 == 104-th k-point nmo = 114 (-0.24493,0.73479,-0.24493) ==
 == 105-th k-point nmo = 114 (-0.61232,0.12246,0.36739) ==
 == 106-th k-point nmo = 114 (-0.48986,0.24493,0.24493) ==
 == 107-th k-point nmo = 114 (-0.36739,0.36739,0.12246) ==
 == 108-th k-point nmo = 114 (-0.24493,0.48986,-0.00000) ==
 == 109-th k-point nmo = 114 (-0.12246,0.61232,-0.12246) ==
 == 110-th k-point nmo = 114 (-0.48986,0.00000,0.48986) ==
 == 111-th k-point nmo = 114 (-0.36739,0.12246,0.36739) ==
 == 112-th k-point nmo = 114 (-0.24493,0.24493,0.24493) ==
 == 113-th k-point nmo = 114 (-0.12246,0.36739,0.12246) ==
 == 114-th k-point nmo = 114 (0.00000,0.48986,0.00000) ==
 == 115-th k-point nmo = 114 (-0.36739,-0.12246,0.61232) ==
 == 116-th k-point nmo = 114 (-0.24493,0.00000,0.48986) ==
 == 117-th k-point nmo = 114 (-0.12246,0.12246,0.36739) ==
 == 118-th k-point nmo = 114 (0.00000,0.24493,0.24493) ==
 == 119-th k-point nmo = 114 (0.12246,0.36739,0.12246) ==
 == 120-th k-point nmo = 114 (-0.24493,-0.24493,0.73479) ==
 == 121-th k-point nmo = 114 (-0.12246,-0.12246,0.61232) ==
 == 122-th k-point nmo = 114 (0.00000,0.00000,0.48986) ==
 == 123-th k-point nmo = 114 (0.12246,0.12246,0.36739) ==
 == 124-th k-point nmo = 114 (0.24493,0.24493,0.24493) ==

 Generate autoSAD guess
backing up fragment data
Atom # 0: si, charge: 0, multiplicity: 3.000000
writing autosad to fragment context
Settings for isolated fragments: 
  frgm_gamma: TRUE
  frgm_center: FALSE

    Running SCF for isolated atom #0
    Fragment Input file: /n/netscratch/joonholee_lab/Lab/hieudinh//si_2_ccpvqz_omega_0.6_555.scratch20250909030635/autosad_frgmt_0/frgmt_input.in
    Fragment Output file: /n/netscratch/joonholee_lab/Lab/hieudinh//si_2_ccpvqz_omega_0.6_555.scratch20250909030635/autosad_frgmt_0/frgmt_job.out
    Fragment job begins at Tue Sep  9 03:06:41 2025

 Integrated density by DFT XC:
   Numerical integral  =    13.999999643759
   Relative error      =     0.0000025446 %
Final energy components:
 DFT Correlation            Energy =  -0.48370207231611
 DFT Exchange               Energy = -20.13940840112211
 Kinetic (alpha)            Energy = 145.05483363964720
 Kinetic (beta)             Energy = 143.11842945473268
 Nuclear Attraction (alpha) Energy = -351.06191315317818
 Nuclear Attraction (beta)  Energy = -337.54515075030423
 Nuclear Repulsion          Energy =   0.00000000000000
 SEOQF                      Energy =  -0.00000000010144
 Total Coulomb              Energy = 131.82731983024416
----------------------------------------------
    SCF Energy: -289.2295914524
   Total fragment job time:  0.53 s.
restoring fragment data

 ------------------------------------------------------------------------
 Allocate 86738992 B from available memory: 1048547886752 B
 Time for generating SCF guess: 0.57 s

 Allocate 97424 B from available memory: 1048461147776 B
 Selected algorithms for each term:
  kpts_kinetic -> @0x1483de3b9680
  kpts_nn -> @0x1483de3b9800
  kpts_rij_bigmem -> @0x1483de3b93e0
  kpts_vnuc_df -> @0x1483de3b9380
  kpts_xc -> @0x1483de3b92c0
 Time for computing kinetic matrix is 3.76 s
Start calculating Vnuc DD type!
Start calculating Vnuc CD type!
Start calculating Vnuc CC type!
 Time for computing nuclear attraction matrix is 7.77 s
Compute (P|Q) and use solve on the fly!
Maximum distance between P and Q is 29.79462221820766
Number of images for (P|Qn) is 911
 Time for computing 2e2c SR integral is 0.12 s
Maximum dynamic memory per thread for 2e3c SR integrals: 0.099 GiB
Batch size for basis function pair is 2392 out of 2392
 === bvk cell = 0 has 100.000 % of the basis function pairs === 
 === bvk cell = 1 has 100.000 % of the basis function pairs === 
 === bvk cell = 2 has 83.403 % of the basis function pairs === 
 === bvk cell = 3 has 83.403 % of the basis function pairs === 
 === bvk cell = 4 has 100.000 % of the basis function pairs === 
 === bvk cell = 5 has 100.000 % of the basis function pairs === 
 === bvk cell = 6 has 90.552 % of the basis function pairs === 
 === bvk cell = 7 has 53.554 % of the basis function pairs === 
 === bvk cell = 8 has 97.617 % of the basis function pairs === 
 === bvk cell = 9 has 100.000 % of the basis function pairs === 
 === bvk cell = 10 has 83.403 % of the basis function pairs === 
 === bvk cell = 11 has 53.554 % of the basis function pairs === 
 === bvk cell = 12 has 32.232 % of the basis function pairs === 
 === bvk cell = 13 has 94.482 % of the basis function pairs === 
 === bvk cell = 14 has 97.617 % of the basis function pairs === 
 === bvk cell = 15 has 83.403 % of the basis function pairs === 
 === bvk cell = 16 has 97.617 % of the basis function pairs === 
 === bvk cell = 17 has 94.482 % of the basis function pairs === 
 === bvk cell = 18 has 32.232 % of the basis function pairs === 
 === bvk cell = 19 has 53.554 % of the basis function pairs === 
 === bvk cell = 20 has 100.000 % of the basis function pairs === 
 === bvk cell = 21 has 100.000 % of the basis function pairs === 
 === bvk cell = 22 has 97.617 % of the basis function pairs === 
 === bvk cell = 23 has 53.554 % of the basis function pairs === 
 === bvk cell = 24 has 90.552 % of the basis function pairs === 
 === bvk cell = 25 has 100.000 % of the basis function pairs === 
 === bvk cell = 26 has 90.552 % of the basis function pairs === 
 === bvk cell = 27 has 53.554 % of the basis function pairs === 
 === bvk cell = 28 has 97.617 % of the basis function pairs === 
 === bvk cell = 29 has 100.000 % of the basis function pairs === 
 === bvk cell = 30 has 90.552 % of the basis function pairs === 
 === bvk cell = 31 has 51.672 % of the basis function pairs === 
 === bvk cell = 32 has 43.645 % of the basis function pairs === 
 === bvk cell = 33 has 100.000 % of the basis function pairs === 
 === bvk cell = 34 has 100.000 % of the basis function pairs === 
 === bvk cell = 35 has 53.554 % of the basis function pairs === 
 === bvk cell = 36 has 43.645 % of the basis function pairs === 
 === bvk cell = 37 has 30.769 % of the basis function pairs === 
 === bvk cell = 38 has 67.642 % of the basis function pairs === 
 === bvk cell = 39 has 68.562 % of the basis function pairs === 
 === bvk cell = 40 has 97.617 % of the basis function pairs === 
 === bvk cell = 41 has 100.000 % of the basis function pairs === 
 === bvk cell = 42 has 67.642 % of the basis function pairs === 
 === bvk cell = 43 has 29.724 % of the basis function pairs === 
 === bvk cell = 44 has 68.562 % of the basis function pairs === 
 === bvk cell = 45 has 100.000 % of the basis function pairs === 
 === bvk cell = 46 has 100.000 % of the basis function pairs === 
 === bvk cell = 47 has 68.562 % of the basis function pairs === 
 === bvk cell = 48 has 68.562 % of the basis function pairs === 
 === bvk cell = 49 has 100.000 % of the basis function pairs === 
 === bvk cell = 50 has 83.403 % of the basis function pairs === 
 === bvk cell = 51 has 53.554 % of the basis function pairs === 
 === bvk cell = 52 has 32.232 % of the basis function pairs === 
 === bvk cell = 53 has 94.482 % of the basis function pairs === 
 === bvk cell = 54 has 97.617 % of the basis function pairs === 
 === bvk cell = 55 has 53.554 % of the basis function pairs === 
 === bvk cell = 56 has 43.645 % of the basis function pairs === 
 === bvk cell = 57 has 30.769 % of the basis function pairs === 
 === bvk cell = 58 has 67.642 % of the basis function pairs === 
 === bvk cell = 59 has 68.562 % of the basis function pairs === 
 === bvk cell = 60 has 32.232 % of the basis function pairs === 
 === bvk cell = 61 has 30.769 % of the basis function pairs === 
 === bvk cell = 62 has 22.575 % of the basis function pairs === 
 === bvk cell = 63 has 26.547 % of the basis function pairs === 
 === bvk cell = 64 has 29.724 % of the basis function pairs === 
 === bvk cell = 65 has 94.482 % of the basis function pairs === 
 === bvk cell = 66 has 67.642 % of the basis function pairs === 
 === bvk cell = 67 has 26.547 % of the basis function pairs === 
 === bvk cell = 68 has 26.547 % of the basis function pairs === 
 === bvk cell = 69 has 67.642 % of the basis function pairs === 
 === bvk cell = 70 has 97.617 % of the basis function pairs === 
 === bvk cell = 71 has 68.562 % of the basis function pairs === 
 === bvk cell = 72 has 29.724 % of the basis function pairs === 
 === bvk cell = 73 has 67.642 % of the basis function pairs === 
 === bvk cell = 74 has 100.000 % of the basis function pairs === 
 === bvk cell = 75 has 83.403 % of the basis function pairs === 
 === bvk cell = 76 has 97.617 % of the basis function pairs === 
 === bvk cell = 77 has 94.482 % of the basis function pairs === 
 === bvk cell = 78 has 32.232 % of the basis function pairs === 
 === bvk cell = 79 has 53.554 % of the basis function pairs === 
 === bvk cell = 80 has 97.617 % of the basis function pairs === 
 === bvk cell = 81 has 100.000 % of the basis function pairs === 
 === bvk cell = 82 has 67.642 % of the basis function pairs === 
 === bvk cell = 83 has 29.724 % of the basis function pairs === 
 === bvk cell = 84 has 68.562 % of the basis function pairs === 
 === bvk cell = 85 has 94.482 % of the basis function pairs === 
 === bvk cell = 86 has 67.642 % of the basis function pairs === 
 === bvk cell = 87 has 26.547 % of the basis function pairs === 
 === bvk cell = 88 has 26.547 % of the basis function pairs === 
 === bvk cell = 89 has 67.642 % of the basis function pairs === 
 === bvk cell = 90 has 32.232 % of the basis function pairs === 
 === bvk cell = 91 has 29.724 % of the basis function pairs === 
 === bvk cell = 92 has 26.547 % of the basis function pairs === 
 === bvk cell = 93 has 22.575 % of the basis function pairs === 
 === bvk cell = 94 has 30.769 % of the basis function pairs === 
 === bvk cell = 95 has 53.554 % of the basis function pairs === 
 === bvk cell = 96 has 68.562 % of the basis function pairs === 
 === bvk cell = 97 has 67.642 % of the basis function pairs === 
 === bvk cell = 98 has 30.769 % of the basis function pairs === 
 === bvk cell = 99 has 43.645 % of the basis function pairs === 
 === bvk cell = 100 has 100.000 % of the basis function pairs === 
 === bvk cell = 101 has 100.000 % of the basis function pairs === 
 === bvk cell = 102 has 97.617 % of the basis function pairs === 
 === bvk cell = 103 has 53.554 % of the basis function pairs === 
 === bvk cell = 104 has 90.552 % of the basis function pairs === 
 === bvk cell = 105 has 100.000 % of the basis function pairs === 
 === bvk cell = 106 has 100.000 % of the basis function pairs === 
 === bvk cell = 107 has 68.562 % of the basis function pairs === 
 === bvk cell = 108 has 68.562 % of the basis function pairs === 
 === bvk cell = 109 has 100.000 % of the basis function pairs === 
 === bvk cell = 110 has 97.617 % of the basis function pairs === 
 === bvk cell = 111 has 68.562 % of the basis function pairs === 
 === bvk cell = 112 has 29.724 % of the basis function pairs === 
 === bvk cell = 113 has 67.642 % of the basis function pairs === 
 === bvk cell = 114 has 100.000 % of the basis function pairs === 
 === bvk cell = 115 has 53.554 % of the basis function pairs === 
 === bvk cell = 116 has 68.562 % of the basis function pairs === 
 === bvk cell = 117 has 67.642 % of the basis function pairs === 
 === bvk cell = 118 has 30.769 % of the basis function pairs === 
 === bvk cell = 119 has 43.645 % of the basis function pairs === 
 === bvk cell = 120 has 90.552 % of the basis function pairs === 
 === bvk cell = 121 has 100.000 % of the basis function pairs === 
 === bvk cell = 122 has 100.000 % of the basis function pairs === 
 === bvk cell = 123 has 43.645 % of the basis function pairs === 
 === bvk cell = 124 has 51.672 % of the basis function pairs === 
Static memory requirement for 2e3c SR integrals: 0.458 GB
There are 1 munu batches for computing 2e3c SR integrals with latsum
There are 5 Q batches for computing 2e3c SR integrals with latsum
 Time for computing 2e3c SR integral (CD) is 2.87 s
Maximum dynamic memory per thread for 2e3c SR integrals: 0.052 GiB
Batch size for basis function pair is 4516 out of 4516
 === bvk cell = 0 has 100.000 % of the basis function pairs === 
 === bvk cell = 1 has 89.393 % of the basis function pairs === 
 === bvk cell = 2 has 17.626 % of the basis function pairs === 
 === bvk cell = 3 has 12.489 % of the basis function pairs === 
 === bvk cell = 4 has 84.035 % of the basis function pairs === 
 === bvk cell = 5 has 89.393 % of the basis function pairs === 
 === bvk cell = 6 has 39.925 % of the basis function pairs === 
 === bvk cell = 7 has 1.085 % of the basis function pairs === 
 === bvk cell = 8 has 23.494 % of the basis function pairs === 
 === bvk cell = 9 has 95.018 % of the basis function pairs === 
 === bvk cell = 10 has 17.626 % of the basis function pairs === 
 === bvk cell = 11 has 1.085 % of the basis function pairs === 
 === bvk cell = 12 has 0.000 % of the basis function pairs === 
 === bvk cell = 13 has 4.805 % of the basis function pairs === 
 === bvk cell = 14 has 27.547 % of the basis function pairs === 
 === bvk cell = 15 has 12.489 % of the basis function pairs === 
 === bvk cell = 16 has 23.494 % of the basis function pairs === 
 === bvk cell = 17 has 4.805 % of the basis function pairs === 
 === bvk cell = 18 has 0.000 % of the basis function pairs === 
 === bvk cell = 19 has 0.000 % of the basis function pairs === 
 === bvk cell = 20 has 84.035 % of the basis function pairs === 
 === bvk cell = 21 has 95.018 % of the basis function pairs === 
 === bvk cell = 22 has 27.547 % of the basis function pairs === 
 === bvk cell = 23 has 0.000 % of the basis function pairs === 
 === bvk cell = 24 has 30.425 % of the basis function pairs === 
 === bvk cell = 25 has 89.393 % of the basis function pairs === 
 === bvk cell = 26 has 39.925 % of the basis function pairs === 
 === bvk cell = 27 has 1.085 % of the basis function pairs === 
 === bvk cell = 28 has 23.494 % of the basis function pairs === 
 === bvk cell = 29 has 95.018 % of the basis function pairs === 
 === bvk cell = 30 has 39.925 % of the basis function pairs === 
 === bvk cell = 31 has 6.709 % of the basis function pairs === 
 === bvk cell = 32 has 0.000 % of the basis function pairs === 
 === bvk cell = 33 has 23.251 % of the basis function pairs === 
 === bvk cell = 34 has 67.316 % of the basis function pairs === 
 === bvk cell = 35 has 1.085 % of the basis function pairs === 
 === bvk cell = 36 has 0.000 % of the basis function pairs === 
 === bvk cell = 37 has 0.000 % of the basis function pairs === 
 === bvk cell = 38 has 1.085 % of the basis function pairs === 
 === bvk cell = 39 has 6.709 % of the basis function pairs === 
 === bvk cell = 40 has 23.494 % of the basis function pairs === 
 === bvk cell = 41 has 23.251 % of the basis function pairs === 
 === bvk cell = 42 has 1.085 % of the basis function pairs === 
 === bvk cell = 43 has 0.000 % of the basis function pairs === 
 === bvk cell = 44 has 2.901 % of the basis function pairs === 
 === bvk cell = 45 has 95.018 % of the basis function pairs === 
 === bvk cell = 46 has 67.316 % of the basis function pairs === 
 === bvk cell = 47 has 6.709 % of the basis function pairs === 
 === bvk cell = 48 has 2.901 % of the basis function pairs === 
 === bvk cell = 49 has 61.625 % of the basis function pairs === 
 === bvk cell = 50 has 17.626 % of the basis function pairs === 
 === bvk cell = 51 has 1.085 % of the basis function pairs === 
 === bvk cell = 52 has 0.000 % of the basis function pairs === 
 === bvk cell = 53 has 4.805 % of the basis function pairs === 
 === bvk cell = 54 has 27.547 % of the basis function pairs === 
 === bvk cell = 55 has 1.085 % of the basis function pairs === 
 === bvk cell = 56 has 0.000 % of the basis function pairs === 
 === bvk cell = 57 has 0.000 % of the basis function pairs === 
 === bvk cell = 58 has 1.085 % of the basis function pairs === 
 === bvk cell = 59 has 6.709 % of the basis function pairs === 
 === bvk cell = 60 has 0.000 % of the basis function pairs === 
 === bvk cell = 61 has 0.000 % of the basis function pairs === 
 === bvk cell = 62 has 0.000 % of the basis function pairs === 
 === bvk cell = 63 has 0.000 % of the basis function pairs === 
 === bvk cell = 64 has 0.000 % of the basis function pairs === 
 === bvk cell = 65 has 4.805 % of the basis function pairs === 
 === bvk cell = 66 has 1.085 % of the basis function pairs === 
 === bvk cell = 67 has 0.000 % of the basis function pairs === 
 === bvk cell = 68 has 0.000 % of the basis function pairs === 
 === bvk cell = 69 has 0.000 % of the basis function pairs === 
 === bvk cell = 70 has 27.547 % of the basis function pairs === 
 === bvk cell = 71 has 6.709 % of the basis function pairs === 
 === bvk cell = 72 has 0.000 % of the basis function pairs === 
 === bvk cell = 73 has 0.000 % of the basis function pairs === 
 === bvk cell = 74 has 23.251 % of the basis function pairs === 
 === bvk cell = 75 has 12.489 % of the basis function pairs === 
 === bvk cell = 76 has 23.494 % of the basis function pairs === 
 === bvk cell = 77 has 4.805 % of the basis function pairs === 
 === bvk cell = 78 has 0.000 % of the basis function pairs === 
 === bvk cell = 79 has 0.000 % of the basis function pairs === 
 === bvk cell = 80 has 23.494 % of the basis function pairs === 
 === bvk cell = 81 has 23.251 % of the basis function pairs === 
 === bvk cell = 82 has 1.085 % of the basis function pairs === 
 === bvk cell = 83 has 0.000 % of the basis function pairs === 
 === bvk cell = 84 has 2.901 % of the basis function pairs === 
 === bvk cell = 85 has 4.805 % of the basis function pairs === 
 === bvk cell = 86 has 1.085 % of the basis function pairs === 
 === bvk cell = 87 has 0.000 % of the basis function pairs === 
 === bvk cell = 88 has 0.000 % of the basis function pairs === 
 === bvk cell = 89 has 0.000 % of the basis function pairs === 
 === bvk cell = 90 has 0.000 % of the basis function pairs === 
 === bvk cell = 91 has 0.000 % of the basis function pairs === 
 === bvk cell = 92 has 0.000 % of the basis function pairs === 
 === bvk cell = 93 has 0.000 % of the basis function pairs === 
 === bvk cell = 94 has 0.000 % of the basis function pairs === 
 === bvk cell = 95 has 0.000 % of the basis function pairs === 
 === bvk cell = 96 has 2.901 % of the basis function pairs === 
 === bvk cell = 97 has 0.000 % of the basis function pairs === 
 === bvk cell = 98 has 0.000 % of the basis function pairs === 
 === bvk cell = 99 has 0.000 % of the basis function pairs === 
 === bvk cell = 100 has 84.035 % of the basis function pairs === 
 === bvk cell = 101 has 95.018 % of the basis function pairs === 
 === bvk cell = 102 has 27.547 % of the basis function pairs === 
 === bvk cell = 103 has 0.000 % of the basis function pairs === 
 === bvk cell = 104 has 30.425 % of the basis function pairs === 
 === bvk cell = 105 has 95.018 % of the basis function pairs === 
 === bvk cell = 106 has 67.316 % of the basis function pairs === 
 === bvk cell = 107 has 6.709 % of the basis function pairs === 
 === bvk cell = 108 has 2.901 % of the basis function pairs === 
 === bvk cell = 109 has 61.625 % of the basis function pairs === 
 === bvk cell = 110 has 27.547 % of the basis function pairs === 
 === bvk cell = 111 has 6.709 % of the basis function pairs === 
 === bvk cell = 112 has 0.000 % of the basis function pairs === 
 === bvk cell = 113 has 0.000 % of the basis function pairs === 
 === bvk cell = 114 has 23.251 % of the basis function pairs === 
 === bvk cell = 115 has 0.000 % of the basis function pairs === 
 === bvk cell = 116 has 2.901 % of the basis function pairs === 
 === bvk cell = 117 has 0.000 % of the basis function pairs === 
 === bvk cell = 118 has 0.000 % of the basis function pairs === 
 === bvk cell = 119 has 0.000 % of the basis function pairs === 
 === bvk cell = 120 has 30.425 % of the basis function pairs === 
 === bvk cell = 121 has 61.625 % of the basis function pairs === 
 === bvk cell = 122 has 23.251 % of the basis function pairs === 
 === bvk cell = 123 has 0.000 % of the basis function pairs === 
 === bvk cell = 124 has 2.901 % of the basis function pairs === 
Static memory requirement for 2e3c SR integrals: 0.242 GB
There are 1 munu batches for computing 2e3c SR integrals with latsum
There are 5 Q batches for computing 2e3c SR integrals with latsum
 Time for computing 2e3c SR integral (CC) is 1.58 s
 Time for RI-J this SCF iteration is 5.68 s
 Time for RI-J this SCF iteration is 1.02 s
 ----------------------------------------------
 Guess energy: -578.7908577192
 ----------------------------------------------
 Guess energy components:
 DFT Correlation    Energy =  -1.09394071760105
 DFT Exchange       Energy = -40.53398858802281
 Kinetic            Energy = 577.11792331980689
 Nuclear Attraction Energy = -1185.50189786252895
 Nuclear Repulsion  Energy = -102.89365928466421
 Total Coulomb      Energy = 174.11470541383937
 ----------------------------------------------
  Cycle       Energy         DIIS error
 ----------------------------------------------
 Time for RI-J this SCF iteration is 1.01 s
    1    -578.7922596139      5.28e-04  
 Energy components after cycle 1:
 DFT Correlation    Energy =  -1.09650134571720
 DFT Exchange       Energy = -40.49044708525643
 Kinetic            Energy = 576.74828964978644
 Nuclear Attraction Energy = -1184.65558786944530
 Nuclear Repulsion  Energy = -102.89365928466421
 Total Coulomb      Energy = 173.59564632138228
    2    -578.7922596139      2.21e-04  
 Energy components after cycle 2:
 DFT Correlation    Energy =  -1.09650134571720
 DFT Exchange       Energy = -40.49044708525643
 Kinetic            Energy = 576.74828964978644
 Nuclear Attraction Energy = -1184.65558786944530
 Nuclear Repulsion  Energy = -102.89365928466421
 Total Coulomb      Energy = 173.59564632138228
 ----------------------------------------------
  Cycle       Energy        RMS Gradient
 ----------------------------------------------
 Time for RI-J this SCF iteration is 0.91 s
    1    -578.7924171896      7.24e-03   Normal BFGS step
 Energy components after cycle 1:
 DFT Correlation    Energy =  -1.09573766201689
 DFT Exchange       Energy = -40.51255558967418
 Kinetic            Energy = 576.97545879080099
 Nuclear Attraction Energy = -1185.10075099706205
 Nuclear Repulsion  Energy = -102.89365928466421
 Total Coulomb      Energy = 173.83482755298854
 Time for RI-J this SCF iteration is 1.01 s
    2    -578.7924473543      2.64e-03   Normal BFGS step
 Energy components after cycle 2:
 DFT Correlation    Energy =  -1.09590870805128
 DFT Exchange       Energy = -40.50509642623400
 Kinetic            Energy = 576.89224308236930
 Nuclear Attraction Energy = -1184.94830982091639
 Nuclear Repulsion  Energy = -102.89365928466421
 Total Coulomb      Energy = 173.75828380323472
 Time for RI-J this SCF iteration is 1.07 s
    3    -578.7924474060      6.10e-05   Normal BFGS step
 Energy components after cycle 3:
 DFT Correlation    Energy =  -1.09592150616631
 DFT Exchange       Energy = -40.50540354355146
 Kinetic            Energy = 576.89721549199487
 Nuclear Attraction Energy = -1184.95511165181074
 Nuclear Repulsion  Energy = -102.89365928466421
 Total Coulomb      Energy = 173.76043308816466
 Time for RI-J this SCF iteration is 1.42 s
    4    -578.7924474100      1.73e-05   Normal BFGS step
 Energy components after cycle 4:
 DFT Correlation    Energy =  -1.09591851624109
 DFT Exchange       Energy = -40.50534925421015
 Kinetic            Energy = 576.89628006838302
 Nuclear Attraction Energy = -1184.95388935197684
 Nuclear Repulsion  Energy = -102.89365928466421
 Total Coulomb      Energy = 173.76008892875254
 Time for RI-J this SCF iteration is 0.90 s
    5    -578.7924474100      8.18e-08   Normal BFGS step
 Energy components after cycle 5:
 DFT Correlation    Energy =  -1.09591851463266
 DFT Exchange       Energy = -40.50534921573662
 Kinetic            Energy = 576.89627945010795
 Nuclear Attraction Energy = -1184.95388823314261
 Nuclear Repulsion  Energy = -102.89365928466421
 Total Coulomb      Energy = 173.76008838811200
    5    -578.7924474100      8.18e-08  Convergence criterion met
 ----------------------------------------------
 Final energy components:
 DFT Correlation    Energy =  -1.09591851463266
 DFT Exchange       Energy = -40.50534921573662
 Kinetic            Energy = 576.89627945010795
 Nuclear Attraction Energy = -1184.95388823314261
 Nuclear Repulsion  Energy = -102.89365928466421
 Total Coulomb      Energy = 173.76008838811200
 ----------------------------------------------
 Final energy is -578.7924474100

 SCF time:   CPU 2142.57s  wall 96.00s 
 Total wall time for computing Kinetic: 0.05 s (8)
 Total wall time for computing RIJ-BIGMEM: 13.03 s (8)
 Total wall time for computing RSDF Vnuc: 0.10 s (8)
 Total wall time for computing DFT XC: 58.62 s (8)
 ---------------------------------------------------------------------------
                        Orbital Energies (a.u.)
 ---------------------------------------------------------------------------
 == 0-th k-point (-0.24493,-0.24493,-0.24493) occupation: 14==
 -65.00446 -65.00444 -4.62679 -4.62663 -3.03859 -3.03859 -3.03848 -3.03801 -3.03791 -3.03791
 -0.09430 0.04499 0.23388 0.23388 0.33700 0.40296 0.40296 0.56289 0.61175 0.61175
 0.64751 0.76826 0.76826 0.79015 0.90909 0.99018 0.99018 1.12808 1.16869 1.17060
 1.17060 1.27270 1.27270 1.32219 1.32219 1.40758 1.40771 1.49306 1.49306 1.52416
 1.52416 1.59572 1.64740 1.68772 1.84996 1.84996 1.88699 1.88699 1.89335 1.92376
 2.02215 2.02215 2.12274 2.20108 2.20108 2.27514 2.27514 2.30581 2.36930 2.36930
 2.39525 2.39525 2.57591 2.61351 2.64165 2.64165 2.74717 2.77969 2.78872 2.78872
 2.80386 2.85720 2.85720 2.87718 2.99978 2.99978 3.02326 3.10522 3.10522 3.11313
 3.13829 3.13829 3.31023 3.34161 3.34161 3.46995 3.46995 3.53419 3.53419 3.54009
 3.54994 3.68953 3.69869 3.69869 3.77234 3.77336 3.86655 3.86655 3.95587 3.95587
 4.08122 4.08122 4.12381 4.41792 4.49346 4.49346 8.09733 8.13443 8.13443 9.78079
 9.78079 10.03215 11.94464 14.79728
 == 1-th k-point (-0.12246,-0.12246,-0.36739) occupation: 14==
 -65.00445 -65.00445 -4.62679 -4.62663 -3.03861 -3.03860 -3.03843 -3.03806 -3.03792 -3.03788
 -0.09597 0.08088 0.17888 0.20172 0.34191 0.42766 0.45894 0.47793 0.65458 0.66180
 0.67270 0.75421 0.77192 0.84001 0.88270 0.94201 1.00017 1.01880 1.09321 1.15588
 1.20409 1.25086 1.28002 1.30936 1.35726 1.41735 1.43673 1.44594 1.51315 1.56855
 1.60230 1.64326 1.67580 1.69323 1.73453 1.78561 1.89725 1.89751 1.93009 1.93070
 1.98953 2.04606 2.06740 2.08128 2.12656 2.14093 2.25082 2.34667 2.36160 2.37206
 2.42829 2.48280 2.50198 2.60879 2.61450 2.64754 2.71016 2.74153 2.74738 2.78433
 2.81962 2.85701 2.87034 2.89052 3.00620 3.04859 3.05744 3.11449 3.12577 3.13359
 3.19683 3.26067 3.31511 3.31834 3.35263 3.40746 3.40776 3.44344 3.51934 3.52236
 3.57003 3.61505 3.61609 3.69756 3.76543 3.79626 3.79710 3.85986 3.89936 4.03111
 4.04068 4.13508 4.25417 4.35445 4.57244 4.59178 7.89793 8.09441 8.20621 9.28181
 9.96109 10.49546 12.98704 14.04477
 == 2-th k-point (-0.00000,-0.00000,-0.48986) occupation: 14==
 -65.00445 -65.00445 -4.62675 -4.62666 -3.03862 -3.03862 -3.03833 -3.03814 -3.03789 -3.03789
 -0.06378 0.04926 0.17585 0.17585 0.29779 0.32503 0.59156 0.59156 0.68100 0.69031
 0.74755 0.74755 0.78172 0.82191 0.88811 0.91224 0.91224 0.97775 1.11865 1.13677
 1.13678 1.16921 1.19664 1.29007 1.36237 1.36238 1.40971 1.56939 1.56940 1.61726
 1.62789 1.63870 1.73363 1.75413 1.75414 1.78543 1.78547 1.79244 1.86082 1.89851
 2.00777 2.00791 2.01065 2.17354 2.17366 2.20686 2.28345 2.37130 2.37916 2.40010
 2.40011 2.41206 2.51853 2.51864 2.59815 2.62608 2.70197 2.76185 2.83674 2.83679
 2.86878 2.86901 2.87478 2.92892 2.94138 2.99980 3.00096 3.00104 3.10472 3.17343
 3.22210 3.23252 3.23272 3.34340 3.36243 3.36270 3.44633 3.44678 3.48366 3.50141
 3.52622 3.56613 3.56665 3.70832 3.73513 3.74998 3.91127 3.91142 3.93505 4.17991
 4.24751 4.24783 4.28204 4.38875 4.62234 4.62388 8.05715 8.37482 8.37504 8.71796
 10.28580 10.28904 13.29306 13.34621
 == 3-th k-point (0.12246,0.12246,-0.61232) occupation: 14==
 -65.00445 -65.00445 -4.62672 -4.62669 -3.03863 -3.03862 -3.03828 -3.03819 -3.03788 -3.03786
 -0.01928 0.00279 0.12534 0.18024 0.31451 0.39294 0.57552 0.59743 0.59887 0.61593
 0.80337 0.81550 0.82564 0.86174 0.88186 0.90045 1.01495 1.04967 1.05355 1.05442
 1.10267 1.14600 1.18181 1.21642 1.37199 1.41526 1.41866 1.46519 1.56462 1.59671
 1.61087 1.63217 1.63850 1.69666 1.72665 1.80301 1.84377 1.88958 1.92213 1.96744
 2.00868 2.06498 2.10403 2.22825 2.26290 2.27455 2.29327 2.30017 2.33392 2.33519
 2.35058 2.42603 2.48483 2.49416 2.57595 2.68351 2.71191 2.74909 2.75391 2.79214
 2.84728 2.87919 2.88810 2.96901 2.98680 3.04782 3.07052 3.07103 3.13419 3.14696
 3.19502 3.24837 3.27926 3.28490 3.28541 3.29451 3.37028 3.39309 3.44338 3.49836
 3.57993 3.62515 3.65867 3.68759 3.73121 3.74046 3.80220 3.90910 3.95773 3.98705
 4.11134 4.26034 4.28755 4.30243 4.57152 4.61096 8.19537 8.43096 8.59407 8.65220
 9.27097 9.96000 13.37210 13.66914
 == 4-th k-point (0.24493,0.24493,-0.73479) occupation: 14==
 -65.00446 -65.00445 -4.62676 -4.62665 -3.03862 -3.03860 -3.03840 -3.03809 -3.03789 -3.03786
 -0.06328 0.02937 0.14902 0.21216 0.35259 0.44685 0.45434 0.55655 0.58530 0.59116
 0.70405 0.80104 0.81624 0.83914 0.91527 1.01020 1.01690 1.03020 1.08674 1.09314
 1.20325 1.24502 1.25953 1.26247 1.30436 1.35271 1.36727 1.45941 1.49052 1.55062
 1.60243 1.63665 1.66204 1.66668 1.71895 1.82179 1.86164 1.92113 1.93551 1.98264
 2.08272 2.11889 2.13042 2.17051 2.18916 2.23939 2.27222 2.28507 2.33779 2.34693
 2.44319 2.44873 2.47109 2.52003 2.52318 2.64959 2.65278 2.74665 2.81908 2.84086
 2.85337 2.88176 2.93183 2.95929 2.96291 3.01569 3.03936 3.05434 3.07729 3.14414
 3.19141 3.23367 3.27280 3.27926 3.34818 3.39750 3.41768 3.43604 3.44075 3.51643
 3.55610 3.59383 3.62037 3.64047 3.73085 3.74211 3.79333 3.89776 3.92146 3.94323
 4.04206 4.17300 4.24917 4.28798 4.51143 4.54595 8.07456 8.39970 8.40965 8.97412
 9.01034 9.84343 13.04728 14.49678
 == 5-th k-point (-0.12246,-0.36739,-0.12246) occupation: 14==
 -65.00445 -65.00445 -4.62679 -4.62663 -3.03861 -3.03860 -3.03843 -3.03806 -3.03792 -3.03788
 -0.09597 0.08088 0.17888 0.20172 0.34191 0.42766 0.45894 0.47793 0.65458 0.66180
 0.67270 0.75421 0.77192 0.84001 0.88270 0.94201 1.00017 1.01880 1.09321 1.15588
 1.20409 1.25086 1.28002 1.30936 1.35726 1.41735 1.43673 1.44594 1.51315 1.56855
 1.60230 1.64326 1.67580 1.69323 1.73453 1.78561 1.89725 1.89751 1.93009 1.93070
 1.98953 2.04606 2.06740 2.08128 2.12656 2.14093 2.25082 2.34667 2.36160 2.37206
 2.42829 2.48280 2.50198 2.60879 2.61450 2.64754 2.71016 2.74153 2.74738 2.78433
 2.81962 2.85701 2.87034 2.89052 3.00620 3.04859 3.05744 3.11449 3.12577 3.13359
 3.19683 3.26067 3.31511 3.31834 3.35263 3.40746 3.40776 3.44344 3.51934 3.52236
 3.57003 3.61505 3.61609 3.69756 3.76543 3.79626 3.79710 3.85986 3.89936 4.03111
 4.04068 4.13508 4.25417 4.35445 4.57244 4.59178 7.89793 8.09441 8.20621 9.28181
 9.96109 10.49546 12.98704 14.04477
 == 6-th k-point (-0.00000,-0.24493,-0.24493) occupation: 14==
 -65.00445 -65.00445 -4.62680 -4.62661 -3.03860 -3.03859 -3.03847 -3.03804 -3.03790 -3.03789
 -0.11392 0.11160 0.16476 0.24437 0.38350 0.42361 0.43595 0.48799 0.50520 0.66991
 0.67682 0.71739 0.78975 0.82498 0.91193 0.95892 1.01716 1.03833 1.10134 1.11326
 1.25037 1.26873 1.31135 1.34237 1.38477 1.38832 1.46493 1.52506 1.52746 1.56209
 1.58889 1.62531 1.71054 1.72620 1.72621 1.75876 1.82180 1.82905 1.90570 1.96836
 1.97096 1.98941 2.08715 2.12187 2.12962 2.18514 2.21546 2.24803 2.38795 2.46451
 2.47119 2.54879 2.55288 2.55977 2.59847 2.66516 2.67032 2.73488 2.74822 2.76492
 2.80639 2.86617 2.88132 2.89806 2.97617 3.00655 3.12566 3.14845 3.15864 3.18650
 3.20654 3.28699 3.32533 3.35408 3.37903 3.41559 3.42805 3.43079 3.48627 3.53606
 3.60372 3.61913 3.64328 3.67670 3.74228 3.80949 3.81720 3.82007 3.89981 3.90410
 4.00932 4.08879 4.23402 4.45902 4.54178 4.57349 7.58470 8.00891 8.03680 9.55143
 9.87857 10.10814 12.96164 14.01466
 == 7-th k-point (0.12246,-0.12246,-0.36739) occupation: 14==
 -65.00445 -65.00445 -4.62679 -4.62663 -3.03861 -3.03860 -3.03843 -3.03806 -3.03792 -3.03788
 -0.09597 0.08088 0.17888 0.20172 0.34191 0.42766 0.45894 0.47793 0.65458 0.66180
 0.67270 0.75421 0.77192 0.84001 0.88269 0.94199 1.00017 1.01880 1.09318 1.15587
 1.20408 1.25085 1.28001 1.30935 1.35724 1.41732 1.43673 1.44593 1.51310 1.56854
 1.60229 1.64322 1.67568 1.69313 1.73451 1.78548 1.89696 1.89744 1.92982 1.93058
 1.98951 2.04573 2.06730 2.08125 2.12647 2.14028 2.25072 2.34649 2.36154 2.37194
 2.42827 2.48234 2.50190 2.60876 2.61432 2.64749 2.71005 2.74110 2.74735 2.78424
 2.81929 2.85696 2.87024 2.89013 3.00607 3.04856 3.05742 3.11437 3.12552 3.12753
 3.19674 3.26047 3.31338 3.31547 3.35249 3.40696 3.40767 3.43947 3.51632 3.52216
 3.56848 3.61451 3.61605 3.69750 3.75949 3.79529 3.79683 3.85716 3.89913 4.03088
 4.03969 4.13179 4.25357 4.35438 4.56859 4.58631 7.89757 8.09358 8.20595 9.28156
 9.94839 10.47533 12.98439 14.03748
 == 8-th k-point (0.24493,-0.00000,-0.48986) occupation: 14==
 -65.00445 -65.00445 -4.62674 -4.62667 -3.03863 -3.03862 -3.03833 -3.03815 -3.03788 -3.03786
 -0.04752 0.03515 0.12853 0.16495 0.40186 0.41593 0.44042 0.56463 0.59021 0.65569
 0.77138 0.80843 0.81168 0.85890 0.89010 0.97137 1.01943 1.02606 1.04422 1.07331
 1.14062 1.14560 1.23764 1.31969 1.35445 1.37572 1.40207 1.41798 1.46764 1.50549
 1.59076 1.67818 1.69816 1.73158 1.81352 1.82343 1.88098 1.90687 1.91642 1.92131
 2.00994 2.06015 2.12143 2.13880 2.18777 2.26888 2.30931 2.31071 2.32661 2.37696
 2.40353 2.47151 2.49787 2.57314 2.57486 2.65763 2.67830 2.70766 2.79889 2.82163
 2.83794 2.92292 2.92618 2.93772 2.96878 2.99714 3.02577 3.06620 3.10322 3.16074
 3.16530 3.24424 3.29175 3.35117 3.37071 3.39450 3.42908 3.43422 3.49279 3.49720
 3.51061 3.54831 3.63518 3.63817 3.66786 3.67847 3.81404 3.86503 3.98676 3.99719
 4.08618 4.12860 4.24577 4.28866 4.55339 4.60033 8.29349 8.36341 8.49097 8.73408
 9.66026 9.80472 13.44954 13.96991
 == 9-th k-point (0.36739,0.12246,-0.61232) occupation: 14==
 -65.00445 -65.00445 -4.62674 -4.62667 -3.03863 -3.03862 -3.03833 -3.03815 -3.03788 -3.03786
 -0.04752 0.03515 0.12853 0.16495 0.40186 0.41593 0.44042 0.56463 0.59021 0.65569
 0.77138 0.80843 0.81168 0.85890 0.89010 0.97137 1.01943 1.02606 1.04423 1.07331
 1.14062 1.14561 1.23765 1.31971 1.35448 1.37576 1.40208 1.41799 1.46764 1.50552
 1.59077 1.67822 1.69820 1.73165 1.81354 1.82344 1.88099 1.90696 1.91643 1.92135
 2.00994 2.06017 2.12149 2.13886 2.18810 2.26890 2.30940 2.31078 2.32692 2.37702
 2.40375 2.47157 2.49789 2.57327 2.57507 2.65846 2.67836 2.70773 2.79900 2.82181
 2.83801 2.92293 2.92636 2.93789 2.96891 2.99718 3.02589 3.06635 3.10325 3.16090
 3.16568 3.24426 3.29178 3.35117 3.37075 3.39620 3.42911 3.43467 3.49322 3.49731
 3.51111 3.54872 3.63533 3.63872 3.66903 3.67978 3.81422 3.86523 3.98723 3.99815
 4.08653 4.12897 4.24592 4.28871 4.55452 4.60151 8.29372 8.36352 8.49166 8.73473
 9.66221 9.80716 13.45031 13.97087
 == 10-th k-point (-0.00000,-0.48986,0.00000) occupation: 14==
 -65.00445 -65.00445 -4.62675 -4.62666 -3.03862 -3.03862 -3.03833 -3.03814 -3.03789 -3.03789
 -0.06378 0.04926 0.17585 0.17585 0.29779 0.32503 0.59156 0.59156 0.68100 0.69031
 0.74755 0.74755 0.78172 0.82191 0.88811 0.91224 0.91224 0.97775 1.11865 1.13677
 1.13678 1.16921 1.19664 1.29007 1.36237 1.36238 1.40971 1.56939 1.56940 1.61726
 1.62789 1.63870 1.73363 1.75413 1.75414 1.78543 1.78547 1.79244 1.86082 1.89851
 2.00777 2.00791 2.01065 2.17354 2.17366 2.20686 2.28345 2.37130 2.37916 2.40010
 2.40011 2.41206 2.51853 2.51864 2.59815 2.62608 2.70197 2.76185 2.83674 2.83679
 2.86878 2.86901 2.87478 2.92892 2.94138 2.99980 3.00096 3.00104 3.10472 3.17343
 3.22210 3.23252 3.23272 3.34340 3.36243 3.36270 3.44633 3.44678 3.48366 3.50141
 3.52622 3.56613 3.56665 3.70832 3.73513 3.74998 3.91127 3.91142 3.93505 4.17991
 4.24751 4.24783 4.28204 4.38875 4.62234 4.62388 8.05715 8.37482 8.37504 8.71796
 10.28580 10.28904 13.29306 13.34621
 == 11-th k-point (0.12246,-0.36739,-0.12246) occupation: 14==
 -65.00445 -65.00445 -4.62679 -4.62663 -3.03861 -3.03860 -3.03843 -3.03806 -3.03792 -3.03788
 -0.09597 0.08088 0.17888 0.20172 0.34191 0.42766 0.45894 0.47793 0.65458 0.66180
 0.67270 0.75421 0.77192 0.84001 0.88269 0.94199 1.00017 1.01880 1.09318 1.15587
 1.20408 1.25085 1.28001 1.30935 1.35724 1.41732 1.43673 1.44593 1.51310 1.56854
 1.60229 1.64322 1.67568 1.69313 1.73451 1.78548 1.89696 1.89744 1.92982 1.93058
 1.98951 2.04573 2.06730 2.08125 2.12647 2.14028 2.25072 2.34649 2.36154 2.37194
 2.42827 2.48234 2.50190 2.60876 2.61432 2.64749 2.71005 2.74110 2.74735 2.78424
 2.81929 2.85696 2.87024 2.89013 3.00607 3.04856 3.05742 3.11437 3.12552 3.12753
 3.19674 3.26047 3.31338 3.31547 3.35249 3.40696 3.40767 3.43947 3.51632 3.52216
 3.56848 3.61451 3.61605 3.69750 3.75949 3.79529 3.79683 3.85716 3.89913 4.03088
 4.03969 4.13179 4.25357 4.35438 4.56859 4.58631 7.89757 8.09358 8.20595 9.28156
 9.94839 10.47533 12.98439 14.03748
 == 12-th k-point (0.24493,-0.24493,-0.24493) occupation: 14==
 -65.00446 -65.00444 -4.62679 -4.62663 -3.03859 -3.03859 -3.03848 -3.03801 -3.03791 -3.03791
 -0.09430 0.04499 0.23388 0.23388 0.33700 0.40296 0.40296 0.56289 0.61175 0.61175
 0.64751 0.76826 0.76826 0.79015 0.90909 0.99017 0.99018 1.12805 1.16863 1.17059
 1.17060 1.27270 1.27270 1.32219 1.32219 1.40757 1.40771 1.49301 1.49306 1.52410
 1.52416 1.59566 1.64740 1.68772 1.84993 1.84996 1.88693 1.88699 1.89333 1.92372
 2.02199 2.02215 2.12271 2.20042 2.20114 2.27427 2.27527 2.30572 2.36871 2.36935
 2.39522 2.39525 2.57591 2.61336 2.64105 2.64171 2.74717 2.77963 2.78665 2.78876
 2.80382 2.85648 2.85722 2.87708 2.99953 2.99984 3.02326 3.10500 3.10522 3.11313
 3.13791 3.13830 3.31022 3.33863 3.34178 3.46987 3.46997 3.53320 3.53427 3.54003
 3.54994 3.68788 3.69223 3.69901 3.77234 3.77331 3.86596 3.86658 3.95411 3.95590
 4.08083 4.08124 4.12372 4.41724 4.49173 4.49355 8.09726 8.13322 8.13447 9.77353
 9.78096 10.03086 11.94447 14.79580
 == 13-th k-point (0.36739,-0.12246,-0.36739) occupation: 14==
 -65.00446 -65.00445 -4.62676 -4.62665 -3.03862 -3.03860 -3.03840 -3.03809 -3.03789 -3.03786
 -0.06328 0.02937 0.14902 0.21216 0.35259 0.44685 0.45434 0.55655 0.58530 0.59116
 0.70406 0.80104 0.81624 0.83914 0.91527 1.01020 1.01690 1.03020 1.08675 1.09315
 1.20325 1.24503 1.25954 1.26249 1.30443 1.35272 1.36727 1.45942 1.49055 1.55065
 1.60243 1.63667 1.66206 1.66671 1.71895 1.82180 1.86165 1.92114 1.93551 1.98266
 2.08276 2.11894 2.13055 2.17057 2.18925 2.23955 2.27222 2.28560 2.33784 2.34698
 2.44331 2.44876 2.47112 2.52004 2.52328 2.64969 2.65288 2.74679 2.81923 2.84101
 2.85378 2.88176 2.93192 2.95943 2.96293 3.01581 3.03941 3.05437 3.07729 3.14422
 3.19153 3.23372 3.27301 3.27931 3.34827 3.39760 3.41778 3.43619 3.44106 3.51649
 3.55620 3.59428 3.62085 3.64144 3.73206 3.74217 3.79356 3.89895 3.92246 3.94345
 4.04206 4.17312 4.24965 4.28810 4.51182 4.54636 8.07471 8.40035 8.40968 8.97442
 9.01088 9.84515 13.04837 14.49781
 == 14-th k-point (0.48986,0.00000,-0.48986) occupation: 14==
 -65.00445 -65.00445 -4.62672 -4.62669 -3.03863 -3.03862 -3.03828 -3.03819 -3.03788 -3.03786
 -0.01928 0.00279 0.12534 0.18024 0.31451 0.39294 0.57553 0.59743 0.59887 0.61593
 0.80337 0.81550 0.82564 0.86174 0.88186 0.90045 1.01495 1.04968 1.05355 1.05442
 1.10268 1.14602 1.18181 1.21643 1.37202 1.41526 1.41866 1.46525 1.56464 1.59675
 1.61096 1.63223 1.63858 1.69667 1.72667 1.80318 1.84380 1.88959 1.92213 1.96758
 2.00872 2.06586 2.10404 2.22860 2.26292 2.27538 2.29338 2.30034 2.33402 2.33524
 2.35066 2.42606 2.48571 2.49422 2.57607 2.68369 2.71197 2.74941 2.75403 2.79218
 2.84756 2.87923 2.88867 2.96909 2.98690 3.04783 3.07052 3.07107 3.13431 3.14698
 3.19555 3.24929 3.27947 3.28518 3.28551 3.29712 3.37031 3.39446 3.44342 3.49842
 3.57996 3.62599 3.66012 3.68820 3.73146 3.74058 3.80225 3.90983 3.95819 3.98756
 4.11198 4.26084 4.28781 4.30251 4.57499 4.61322 8.19543 8.43097 8.59421 8.65249
 9.27665 9.96480 13.37240 13.67031
 == 15-th k-point (0.12246,-0.61232,0.12246) occupation: 14==
 -65.00445 -65.00445 -4.62672 -4.62669 -3.03863 -3.03862 -3.03828 -3.03819 -3.03788 -3.03786
 -0.01928 0.00279 0.12534 0.18024 0.31451 0.39294 0.57552 0.59743 0.59887 0.61593
 0.80337 0.81550 0.82564 0.86174 0.88186 0.90045 1.01495 1.04967 1.05355 1.05442
 1.10267 1.14600 1.18181 1.21642 1.37199 1.41526 1.41866 1.46519 1.56462 1.59671
 1.61087 1.63217 1.63850 1.69666 1.72665 1.80301 1.84377 1.88958 1.92213 1.96744
 2.00868 2.06498 2.10403 2.22825 2.26290 2.27455 2.29327 2.30017 2.33392 2.33519
 2.35058 2.42603 2.48483 2.49416 2.57595 2.68351 2.71191 2.74909 2.75391 2.79214
 2.84728 2.87919 2.88810 2.96901 2.98680 3.04782 3.07052 3.07103 3.13419 3.14696
 3.19502 3.24837 3.27926 3.28490 3.28541 3.29451 3.37028 3.39309 3.44338 3.49836
 3.57993 3.62515 3.65867 3.68759 3.73121 3.74046 3.80220 3.90910 3.95773 3.98705
 4.11134 4.26034 4.28755 4.30243 4.57152 4.61096 8.19537 8.43096 8.59407 8.65220
 9.27097 9.96000 13.37210 13.66914
 == 16-th k-point (0.24493,-0.48986,0.00000) occupation: 14==
 -65.00445 -65.00445 -4.62674 -4.62667 -3.03863 -3.03862 -3.03833 -3.03815 -3.03788 -3.03786
 -0.04752 0.03515 0.12853 0.16495 0.40186 0.41593 0.44042 0.56463 0.59021 0.65569
 0.77138 0.80843 0.81168 0.85890 0.89010 0.97137 1.01943 1.02606 1.04422 1.07331
 1.14062 1.14560 1.23764 1.31969 1.35445 1.37572 1.40207 1.41798 1.46764 1.50549
 1.59076 1.67818 1.69816 1.73158 1.81352 1.82343 1.88098 1.90687 1.91642 1.92131
 2.00994 2.06015 2.12143 2.13880 2.18777 2.26888 2.30931 2.31071 2.32661 2.37696
 2.40353 2.47151 2.49787 2.57314 2.57486 2.65763 2.67830 2.70766 2.79889 2.82163
 2.83794 2.92292 2.92618 2.93772 2.96878 2.99714 3.02577 3.06620 3.10322 3.16074
 3.16530 3.24424 3.29175 3.35117 3.37071 3.39450 3.42908 3.43422 3.49279 3.49720
 3.51061 3.54831 3.63518 3.63817 3.66786 3.67847 3.81404 3.86503 3.98676 3.99719
 4.08618 4.12860 4.24577 4.28866 4.55339 4.60033 8.29349 8.36341 8.49097 8.73408
 9.66026 9.80472 13.44954 13.96991
 == 17-th k-point (0.36739,-0.36739,-0.12246) occupation: 14==
 -65.00446 -65.00445 -4.62676 -4.62665 -3.03862 -3.03860 -3.03840 -3.03809 -3.03789 -3.03786
 -0.06328 0.02937 0.14902 0.21216 0.35259 0.44685 0.45434 0.55655 0.58530 0.59116
 0.70406 0.80104 0.81624 0.83914 0.91527 1.01020 1.01690 1.03020 1.08675 1.09315
 1.20325 1.24503 1.25954 1.26249 1.30443 1.35272 1.36727 1.45942 1.49055 1.55065
 1.60243 1.63667 1.66206 1.66671 1.71895 1.82180 1.86165 1.92114 1.93551 1.98266
 2.08276 2.11894 2.13055 2.17057 2.18925 2.23955 2.27222 2.28560 2.33784 2.34698
 2.44331 2.44876 2.47112 2.52004 2.52328 2.64969 2.65288 2.74679 2.81923 2.84101
 2.85378 2.88176 2.93192 2.95943 2.96293 3.01581 3.03941 3.05437 3.07729 3.14422
 3.19153 3.23372 3.27301 3.27931 3.34827 3.39760 3.41778 3.43619 3.44106 3.51649
 3.55620 3.59428 3.62085 3.64144 3.73206 3.74217 3.79356 3.89895 3.92246 3.94345
 4.04206 4.17312 4.24965 4.28810 4.51182 4.54636 8.07471 8.40035 8.40968 8.97442
 9.01088 9.84515 13.04837 14.49781
 == 18-th k-point (0.48986,-0.24493,-0.24493) occupation: 14==
 -65.00446 -65.00445 -4.62676 -4.62665 -3.03862 -3.03860 -3.03840 -3.03809 -3.03789 -3.03786
 -0.06328 0.02937 0.14902 0.21216 0.35259 0.44685 0.45434 0.55655 0.58530 0.59116
 0.70406 0.80104 0.81624 0.83914 0.91528 1.01020 1.01691 1.03020 1.08675 1.09314
 1.20325 1.24503 1.25953 1.26253 1.30444 1.35279 1.36727 1.45945 1.49057 1.55061
 1.60243 1.63667 1.66204 1.66671 1.71896 1.82183 1.86164 1.92130 1.93551 1.98275
 2.08303 2.11916 2.13040 2.17041 2.18932 2.23955 2.27241 2.28476 2.33786 2.34691
 2.44317 2.44912 2.47131 2.52027 2.52315 2.64969 2.65275 2.74683 2.81926 2.84081
 2.85330 2.88177 2.93282 2.95989 2.96291 3.01619 3.03934 3.05442 3.07737 3.14411
 3.19132 3.23374 3.27270 3.27979 3.34814 3.39798 3.41782 3.43664 3.44054 3.51675
 3.55608 3.59519 3.62328 3.64026 3.73259 3.74207 3.79326 3.89953 3.92486 3.94321
 4.04211 4.17294 4.24983 4.28811 4.51136 4.54733 8.07536 8.39960 8.40987 8.97403
 9.01346 9.84536 13.05017 14.49792
 == 19-th k-point (0.61232,-0.12246,-0.36739) occupation: 14==
 -65.00445 -65.00445 -4.62674 -4.62667 -3.03863 -3.03862 -3.03833 -3.03815 -3.03788 -3.03786
 -0.04752 0.03515 0.12853 0.16495 0.40186 0.41593 0.44042 0.56463 0.59021 0.65569
 0.77138 0.80843 0.81168 0.85890 0.89010 0.97137 1.01943 1.02606 1.04423 1.07331
 1.14062 1.14561 1.23765 1.31971 1.35448 1.37576 1.40208 1.41799 1.46764 1.50552
 1.59077 1.67822 1.69820 1.73165 1.81354 1.82344 1.88099 1.90696 1.91643 1.92135
 2.00994 2.06017 2.12149 2.13886 2.18810 2.26890 2.30940 2.31078 2.32692 2.37702
 2.40375 2.47157 2.49789 2.57327 2.57507 2.65846 2.67836 2.70773 2.79900 2.82181
 2.83801 2.92293 2.92636 2.93789 2.96891 2.99718 3.02589 3.06635 3.10325 3.16090
 3.16568 3.24426 3.29178 3.35117 3.37075 3.39620 3.42911 3.43467 3.49322 3.49731
 3.51111 3.54872 3.63533 3.63872 3.66903 3.67978 3.81422 3.86523 3.98723 3.99815
 4.08653 4.12897 4.24592 4.28871 4.55452 4.60151 8.29372 8.36352 8.49166 8.73473
 9.66221 9.80716 13.45031 13.97087
 == 20-th k-point (0.24493,-0.73479,0.24493) occupation: 14==
 -65.00446 -65.00445 -4.62676 -4.62665 -3.03862 -3.03860 -3.03840 -3.03809 -3.03789 -3.03786
 -0.06328 0.02937 0.14902 0.21216 0.35259 0.44685 0.45434 0.55655 0.58530 0.59116
 0.70405 0.80104 0.81624 0.83914 0.91527 1.01020 1.01690 1.03020 1.08674 1.09314
 1.20325 1.24502 1.25953 1.26247 1.30436 1.35271 1.36727 1.45941 1.49052 1.55062
 1.60243 1.63665 1.66204 1.66668 1.71895 1.82179 1.86164 1.92113 1.93551 1.98264
 2.08272 2.11889 2.13042 2.17051 2.18916 2.23939 2.27222 2.28507 2.33779 2.34693
 2.44319 2.44873 2.47109 2.52003 2.52318 2.64959 2.65278 2.74665 2.81908 2.84086
 2.85337 2.88176 2.93183 2.95929 2.96291 3.01569 3.03936 3.05434 3.07729 3.14414
 3.19141 3.23367 3.27280 3.27926 3.34818 3.39750 3.41768 3.43604 3.44075 3.51643
 3.55610 3.59383 3.62037 3.64047 3.73085 3.74211 3.79333 3.89776 3.92146 3.94323
 4.04206 4.17300 4.24917 4.28798 4.51143 4.54595 8.07456 8.39970 8.40965 8.97412
 9.01034 9.84343 13.04728 14.49678
 == 21-th k-point (0.36739,-0.61232,0.12246) occupation: 14==
 -65.00445 -65.00445 -4.62674 -4.62667 -3.03863 -3.03862 -3.03833 -3.03815 -3.03788 -3.03786
 -0.04752 0.03515 0.12853 0.16495 0.40186 0.41593 0.44042 0.56463 0.59021 0.65569
 0.77138 0.80843 0.81168 0.85890 0.89010 0.97137 1.01943 1.02606 1.04423 1.07331
 1.14062 1.14561 1.23765 1.31971 1.35448 1.37576 1.40208 1.41799 1.46764 1.50552
 1.59077 1.67822 1.69820 1.73165 1.81354 1.82344 1.88099 1.90696 1.91643 1.92135
 2.00994 2.06017 2.12149 2.13886 2.18810 2.26890 2.30940 2.31078 2.32692 2.37702
 2.40375 2.47157 2.49789 2.57327 2.57507 2.65846 2.67836 2.70773 2.79900 2.82181
 2.83801 2.92293 2.92636 2.93789 2.96891 2.99718 3.02589 3.06635 3.10325 3.16090
 3.16568 3.24426 3.29178 3.35117 3.37075 3.39620 3.42911 3.43467 3.49322 3.49731
 3.51111 3.54872 3.63533 3.63872 3.66903 3.67978 3.81422 3.86523 3.98723 3.99815
 4.08653 4.12897 4.24592 4.28871 4.55452 4.60151 8.29372 8.36352 8.49166 8.73473
 9.66221 9.80716 13.45031 13.97087
 == 22-th k-point (0.48986,-0.48986,0.00000) occupation: 14==
 -65.00445 -65.00445 -4.62672 -4.62669 -3.03863 -3.03862 -3.03828 -3.03819 -3.03788 -3.03786
 -0.01928 0.00279 0.12534 0.18024 0.31451 0.39294 0.57553 0.59743 0.59887 0.61593
 0.80337 0.81550 0.82564 0.86174 0.88186 0.90045 1.01495 1.04968 1.05355 1.05442
 1.10268 1.14602 1.18181 1.21643 1.37202 1.41526 1.41866 1.46525 1.56464 1.59675
 1.61096 1.63223 1.63858 1.69667 1.72667 1.80318 1.84380 1.88959 1.92213 1.96758
 2.00872 2.06586 2.10404 2.22860 2.26292 2.27538 2.29338 2.30034 2.33402 2.33524
 2.35066 2.42606 2.48571 2.49422 2.57607 2.68369 2.71197 2.74941 2.75403 2.79218
 2.84756 2.87923 2.88867 2.96909 2.98690 3.04783 3.07052 3.07107 3.13431 3.14698
 3.19555 3.24929 3.27947 3.28518 3.28551 3.29712 3.37031 3.39446 3.44342 3.49842
 3.57996 3.62599 3.66012 3.68820 3.73146 3.74058 3.80225 3.90983 3.95819 3.98756
 4.11198 4.26084 4.28781 4.30251 4.57499 4.61322 8.19543 8.43097 8.59421 8.65249
 9.27665 9.96480 13.37240 13.67031
 == 23-th k-point (0.61232,-0.36739,-0.12246) occupation: 14==
 -65.00445 -65.00445 -4.62674 -4.62667 -3.03863 -3.03862 -3.03833 -3.03815 -3.03788 -3.03786
 -0.04752 0.03515 0.12853 0.16495 0.40186 0.41593 0.44042 0.56463 0.59021 0.65569
 0.77138 0.80843 0.81168 0.85890 0.89010 0.97137 1.01943 1.02606 1.04423 1.07331
 1.14062 1.14561 1.23765 1.31971 1.35448 1.37576 1.40208 1.41799 1.46764 1.50552
 1.59077 1.67822 1.69820 1.73165 1.81354 1.82344 1.88099 1.90696 1.91643 1.92135
 2.00994 2.06017 2.12149 2.13886 2.18810 2.26890 2.30940 2.31078 2.32692 2.37702
 2.40375 2.47157 2.49789 2.57327 2.57507 2.65846 2.67836 2.70773 2.79900 2.82181
 2.83801 2.92293 2.92636 2.93789 2.96891 2.99718 3.02589 3.06635 3.10325 3.16090
 3.16568 3.24426 3.29178 3.35117 3.37075 3.39620 3.42911 3.43467 3.49322 3.49731
 3.51111 3.54872 3.63533 3.63872 3.66903 3.67978 3.81422 3.86523 3.98723 3.99815
 4.08653 4.12897 4.24592 4.28871 4.55452 4.60151 8.29372 8.36352 8.49166 8.73473
 9.66221 9.80716 13.45031 13.97087
 == 24-th k-point (0.73479,-0.24493,-0.24493) occupation: 14==
 -65.00446 -65.00445 -4.62676 -4.62665 -3.03862 -3.03860 -3.03840 -3.03809 -3.03789 -3.03786
 -0.06328 0.02937 0.14902 0.21216 0.35259 0.44685 0.45434 0.55655 0.58530 0.59116
 0.70405 0.80104 0.81624 0.83914 0.91527 1.01020 1.01690 1.03020 1.08674 1.09314
 1.20325 1.24502 1.25953 1.26247 1.30436 1.35271 1.36727 1.45941 1.49052 1.55062
 1.60243 1.63665 1.66204 1.66668 1.71895 1.82179 1.86164 1.92113 1.93551 1.98264
 2.08272 2.11889 2.13042 2.17051 2.18916 2.23939 2.27222 2.28507 2.33779 2.34693
 2.44319 2.44873 2.47109 2.52003 2.52318 2.64959 2.65278 2.74665 2.81908 2.84086
 2.85337 2.88176 2.93183 2.95929 2.96291 3.01569 3.03936 3.05434 3.07729 3.14414
 3.19141 3.23367 3.27280 3.27926 3.34818 3.39750 3.41768 3.43604 3.44075 3.51643
 3.55610 3.59383 3.62037 3.64047 3.73085 3.74211 3.79333 3.89776 3.92146 3.94323
 4.04206 4.17300 4.24917 4.28798 4.51143 4.54595 8.07456 8.39970 8.40965 8.97412
 9.01034 9.84343 13.04728 14.49678
 == 25-th k-point (-0.36739,-0.12246,-0.12246) occupation: 14==
 -65.00445 -65.00445 -4.62679 -4.62663 -3.03861 -3.03860 -3.03843 -3.03806 -3.03792 -3.03788
 -0.09597 0.08088 0.17888 0.20172 0.34191 0.42766 0.45894 0.47793 0.65458 0.66180
 0.67270 0.75421 0.77192 0.84001 0.88270 0.94201 1.00017 1.01880 1.09321 1.15588
 1.20409 1.25086 1.28002 1.30936 1.35726 1.41735 1.43673 1.44594 1.51315 1.56855
 1.60230 1.64326 1.67580 1.69323 1.73453 1.78561 1.89725 1.89751 1.93009 1.93070
 1.98953 2.04606 2.06740 2.08128 2.12656 2.14093 2.25082 2.34667 2.36160 2.37206
 2.42829 2.48280 2.50198 2.60879 2.61450 2.64754 2.71016 2.74153 2.74738 2.78433
 2.81962 2.85701 2.87034 2.89052 3.00620 3.04859 3.05744 3.11449 3.12577 3.13359
 3.19683 3.26067 3.31511 3.31834 3.35263 3.40746 3.40776 3.44344 3.51934 3.52236
 3.57003 3.61505 3.61609 3.69756 3.76543 3.79626 3.79710 3.85986 3.89936 4.03111
 4.04068 4.13508 4.25417 4.35445 4.57244 4.59178 7.89793 8.09441 8.20621 9.28181
 9.96109 10.49546 12.98704 14.04477
 == 26-th k-point (-0.24493,-0.00000,-0.24493) occupation: 14==
 -65.00445 -65.00445 -4.62680 -4.62661 -3.03860 -3.03859 -3.03847 -3.03804 -3.03790 -3.03789
 -0.11392 0.11160 0.16476 0.24437 0.38350 0.42361 0.43595 0.48799 0.50520 0.66991
 0.67682 0.71739 0.78975 0.82498 0.91193 0.95892 1.01716 1.03833 1.10134 1.11326
 1.25037 1.26873 1.31135 1.34237 1.38477 1.38832 1.46493 1.52506 1.52746 1.56209
 1.58889 1.62531 1.71054 1.72620 1.72621 1.75876 1.82180 1.82905 1.90570 1.96836
 1.97096 1.98941 2.08715 2.12187 2.12962 2.18514 2.21546 2.24803 2.38795 2.46451
 2.47119 2.54879 2.55288 2.55977 2.59847 2.66516 2.67032 2.73488 2.74822 2.76492
 2.80639 2.86617 2.88132 2.89806 2.97617 3.00655 3.12566 3.14845 3.15864 3.18650
 3.20654 3.28699 3.32533 3.35408 3.37903 3.41559 3.42805 3.43079 3.48627 3.53606
 3.60372 3.61913 3.64328 3.67670 3.74228 3.80949 3.81720 3.82007 3.89981 3.90410
 4.00932 4.08879 4.23402 4.45902 4.54178 4.57349 7.58470 8.00891 8.03680 9.55143
 9.87857 10.10814 12.96164 14.01466
 == 27-th k-point (-0.12246,0.12246,-0.36739) occupation: 14==
 -65.00445 -65.00445 -4.62679 -4.62663 -3.03861 -3.03860 -3.03843 -3.03806 -3.03792 -3.03788
 -0.09597 0.08088 0.17888 0.20172 0.34191 0.42766 0.45894 0.47793 0.65458 0.66180
 0.67270 0.75421 0.77192 0.84001 0.88269 0.94199 1.00017 1.01880 1.09318 1.15587
 1.20408 1.25085 1.28001 1.30935 1.35724 1.41732 1.43673 1.44593 1.51310 1.56854
 1.60229 1.64322 1.67568 1.69313 1.73451 1.78548 1.89696 1.89744 1.92982 1.93058
 1.98951 2.04573 2.06730 2.08125 2.12647 2.14028 2.25072 2.34649 2.36154 2.37194
 2.42827 2.48234 2.50190 2.60876 2.61432 2.64749 2.71005 2.74110 2.74735 2.78424
 2.81929 2.85696 2.87024 2.89013 3.00607 3.04856 3.05742 3.11437 3.12552 3.12753
 3.19674 3.26047 3.31338 3.31547 3.35249 3.40696 3.40767 3.43947 3.51632 3.52216
 3.56848 3.61451 3.61605 3.69750 3.75949 3.79529 3.79683 3.85716 3.89913 4.03088
 4.03969 4.13179 4.25357 4.35438 4.56859 4.58631 7.89757 8.09358 8.20595 9.28156
 9.94839 10.47533 12.98439 14.03748
 == 28-th k-point (-0.00000,0.24493,-0.48986) occupation: 14==
 -65.00445 -65.00445 -4.62674 -4.62667 -3.03863 -3.03862 -3.03833 -3.03815 -3.03788 -3.03786
 -0.04752 0.03515 0.12853 0.16495 0.40186 0.41593 0.44042 0.56463 0.59021 0.65569
 0.77138 0.80843 0.81168 0.85890 0.89010 0.97137 1.01943 1.02606 1.04422 1.07331
 1.14062 1.14560 1.23764 1.31969 1.35445 1.37572 1.40207 1.41798 1.46764 1.50549
 1.59076 1.67818 1.69816 1.73158 1.81352 1.82343 1.88098 1.90687 1.91642 1.92131
 2.00994 2.06015 2.12143 2.13880 2.18777 2.26888 2.30931 2.31071 2.32661 2.37696
 2.40353 2.47151 2.49787 2.57314 2.57486 2.65763 2.67830 2.70766 2.79889 2.82163
[...]
 -0.06328 0.02937 0.14902 0.21216 0.35259 0.44685 0.45434 0.55655 0.58530 0.59116
 0.70406 0.80104 0.81624 0.83914 0.91528 1.01020 1.01691 1.03020 1.08675 1.09314
 1.20325 1.24503 1.25953 1.26253 1.30444 1.35279 1.36727 1.45945 1.49057 1.55061
 1.60243 1.63667 1.66204 1.66671 1.71896 1.82183 1.86164 1.92130 1.93551 1.98275
 2.08303 2.11916 2.13040 2.17041 2.18932 2.23955 2.27241 2.28476 2.33786 2.34691
 2.44317 2.44912 2.47131 2.52027 2.52315 2.64969 2.65275 2.74683 2.81926 2.84081
 2.85330 2.88177 2.93282 2.95989 2.96291 3.01619 3.03934 3.05442 3.07737 3.14411
 3.19132 3.23374 3.27270 3.27979 3.34814 3.39798 3.41782 3.43664 3.44054 3.51675
 3.55608 3.59519 3.62328 3.64026 3.73259 3.74207 3.79326 3.89953 3.92486 3.94321
 4.04211 4.17294 4.24983 4.28811 4.51136 4.54733 8.07536 8.39960 8.40987 8.97403
 9.01346 9.84536 13.05017 14.49792
 == 107-th k-point (-0.36739,0.36739,0.12246) occupation: 14==
 -65.00446 -65.00445 -4.62676 -4.62665 -3.03862 -3.03860 -3.03840 -3.03809 -3.03789 -3.03786
 -0.06328 0.02937 0.14902 0.21216 0.35259 0.44685 0.45434 0.55655 0.58530 0.59116
 0.70406 0.80104 0.81624 0.83914 0.91527 1.01020 1.01690 1.03020 1.08675 1.09315
 1.20325 1.24503 1.25954 1.26249 1.30443 1.35272 1.36727 1.45942 1.49055 1.55065
 1.60243 1.63667 1.66206 1.66671 1.71895 1.82180 1.86165 1.92114 1.93551 1.98266
 2.08276 2.11894 2.13055 2.17057 2.18925 2.23955 2.27222 2.28560 2.33784 2.34698
 2.44331 2.44876 2.47112 2.52004 2.52328 2.64969 2.65288 2.74679 2.81923 2.84101
 2.85378 2.88176 2.93192 2.95943 2.96293 3.01581 3.03941 3.05437 3.07729 3.14422
 3.19153 3.23372 3.27301 3.27931 3.34827 3.39760 3.41778 3.43619 3.44106 3.51649
 3.55620 3.59428 3.62085 3.64144 3.73206 3.74217 3.79356 3.89895 3.92246 3.94345
 4.04206 4.17312 4.24965 4.28810 4.51182 4.54636 8.07471 8.40035 8.40968 8.97442
 9.01088 9.84515 13.04837 14.49781
 == 108-th k-point (-0.24493,0.48986,-0.00000) occupation: 14==
 -65.00445 -65.00445 -4.62674 -4.62667 -3.03863 -3.03862 -3.03833 -3.03815 -3.03788 -3.03786
 -0.04752 0.03515 0.12853 0.16495 0.40186 0.41593 0.44042 0.56463 0.59021 0.65569
 0.77138 0.80843 0.81168 0.85890 0.89010 0.97137 1.01943 1.02606 1.04422 1.07331
 1.14062 1.14560 1.23764 1.31969 1.35445 1.37572 1.40207 1.41798 1.46764 1.50549
 1.59076 1.67818 1.69816 1.73158 1.81352 1.82343 1.88098 1.90687 1.91642 1.92131
 2.00994 2.06015 2.12143 2.13880 2.18777 2.26888 2.30931 2.31071 2.32661 2.37696
 2.40353 2.47151 2.49787 2.57314 2.57486 2.65763 2.67830 2.70766 2.79889 2.82163
 2.83794 2.92292 2.92618 2.93772 2.96878 2.99714 3.02577 3.06620 3.10322 3.16074
 3.16530 3.24424 3.29175 3.35117 3.37071 3.39450 3.42908 3.43422 3.49279 3.49720
 3.51061 3.54831 3.63518 3.63817 3.66786 3.67847 3.81404 3.86503 3.98676 3.99719
 4.08618 4.12860 4.24577 4.28866 4.55339 4.60033 8.29349 8.36341 8.49097 8.73408
 9.66026 9.80472 13.44954 13.96991
 == 109-th k-point (-0.12246,0.61232,-0.12246) occupation: 14==
 -65.00445 -65.00445 -4.62672 -4.62669 -3.03863 -3.03862 -3.03828 -3.03819 -3.03788 -3.03786
 -0.01928 0.00279 0.12534 0.18024 0.31451 0.39294 0.57552 0.59743 0.59887 0.61593
 0.80337 0.81550 0.82564 0.86174 0.88186 0.90045 1.01495 1.04967 1.05355 1.05442
 1.10267 1.14600 1.18181 1.21642 1.37199 1.41526 1.41866 1.46519 1.56462 1.59671
 1.61087 1.63217 1.63850 1.69666 1.72665 1.80301 1.84377 1.88958 1.92213 1.96744
 2.00868 2.06498 2.10403 2.22825 2.26290 2.27455 2.29327 2.30017 2.33392 2.33519
 2.35058 2.42603 2.48483 2.49416 2.57595 2.68351 2.71191 2.74909 2.75391 2.79214
 2.84728 2.87919 2.88810 2.96901 2.98680 3.04782 3.07052 3.07103 3.13419 3.14696
 3.19502 3.24837 3.27926 3.28490 3.28541 3.29451 3.37028 3.39309 3.44338 3.49836
 3.57993 3.62515 3.65867 3.68759 3.73121 3.74046 3.80220 3.90910 3.95773 3.98705
 4.11134 4.26034 4.28755 4.30243 4.57152 4.61096 8.19537 8.43096 8.59407 8.65220
 9.27097 9.96000 13.37210 13.66914
 == 110-th k-point (-0.48986,0.00000,0.48986) occupation: 14==
 -65.00445 -65.00445 -4.62672 -4.62669 -3.03863 -3.03862 -3.03828 -3.03819 -3.03788 -3.03786
 -0.01928 0.00279 0.12534 0.18024 0.31451 0.39294 0.57553 0.59743 0.59887 0.61593
 0.80337 0.81550 0.82564 0.86174 0.88186 0.90045 1.01495 1.04968 1.05355 1.05442
 1.10268 1.14602 1.18181 1.21643 1.37202 1.41526 1.41866 1.46525 1.56464 1.59675
 1.61096 1.63223 1.63858 1.69667 1.72667 1.80318 1.84380 1.88959 1.92213 1.96758
 2.00872 2.06586 2.10404 2.22860 2.26292 2.27538 2.29338 2.30034 2.33402 2.33524
 2.35066 2.42606 2.48571 2.49422 2.57607 2.68369 2.71197 2.74941 2.75403 2.79218
 2.84756 2.87923 2.88867 2.96909 2.98690 3.04783 3.07052 3.07107 3.13431 3.14698
 3.19555 3.24929 3.27947 3.28518 3.28551 3.29712 3.37031 3.39446 3.44342 3.49842
 3.57996 3.62599 3.66012 3.68820 3.73146 3.74058 3.80225 3.90983 3.95819 3.98756
 4.11198 4.26084 4.28781 4.30251 4.57499 4.61322 8.19543 8.43097 8.59421 8.65249
 9.27665 9.96480 13.37240 13.67031
 == 111-th k-point (-0.36739,0.12246,0.36739) occupation: 14==
 -65.00446 -65.00445 -4.62676 -4.62665 -3.03862 -3.03860 -3.03840 -3.03809 -3.03789 -3.03786
 -0.06328 0.02937 0.14902 0.21216 0.35259 0.44685 0.45434 0.55655 0.58530 0.59116
 0.70406 0.80104 0.81624 0.83914 0.91527 1.01020 1.01690 1.03020 1.08675 1.09315
 1.20325 1.24503 1.25954 1.26249 1.30443 1.35272 1.36727 1.45942 1.49055 1.55065
 1.60243 1.63667 1.66206 1.66671 1.71895 1.82180 1.86165 1.92114 1.93551 1.98266
 2.08276 2.11894 2.13055 2.17057 2.18925 2.23955 2.27222 2.28560 2.33784 2.34698
 2.44331 2.44876 2.47112 2.52004 2.52328 2.64969 2.65288 2.74679 2.81923 2.84101
 2.85378 2.88176 2.93192 2.95943 2.96293 3.01581 3.03941 3.05437 3.07729 3.14422
 3.19153 3.23372 3.27301 3.27931 3.34827 3.39760 3.41778 3.43619 3.44106 3.51649
 3.55620 3.59428 3.62085 3.64144 3.73206 3.74217 3.79356 3.89895 3.92246 3.94345
 4.04206 4.17312 4.24965 4.28810 4.51182 4.54636 8.07471 8.40035 8.40968 8.97442
 9.01088 9.84515 13.04837 14.49781
 == 112-th k-point (-0.24493,0.24493,0.24493) occupation: 14==
 -65.00446 -65.00444 -4.62679 -4.62663 -3.03859 -3.03859 -3.03848 -3.03801 -3.03791 -3.03791
 -0.09430 0.04499 0.23388 0.23388 0.33700 0.40296 0.40296 0.56289 0.61175 0.61175
 0.64751 0.76826 0.76826 0.79015 0.90909 0.99017 0.99018 1.12805 1.16863 1.17059
 1.17060 1.27270 1.27270 1.32219 1.32219 1.40757 1.40771 1.49301 1.49306 1.52410
 1.52416 1.59566 1.64740 1.68772 1.84993 1.84996 1.88693 1.88699 1.89333 1.92372
 2.02199 2.02215 2.12271 2.20042 2.20114 2.27427 2.27527 2.30572 2.36871 2.36935
 2.39522 2.39525 2.57591 2.61336 2.64105 2.64171 2.74717 2.77963 2.78665 2.78876
 2.80382 2.85648 2.85722 2.87708 2.99953 2.99984 3.02326 3.10500 3.10522 3.11313
 3.13791 3.13830 3.31022 3.33863 3.34178 3.46987 3.46997 3.53320 3.53427 3.54003
 3.54994 3.68788 3.69223 3.69901 3.77234 3.77331 3.86596 3.86658 3.95411 3.95590
 4.08083 4.08124 4.12372 4.41724 4.49173 4.49355 8.09726 8.13322 8.13447 9.77353
 9.78096 10.03086 11.94447 14.79580
 == 113-th k-point (-0.12246,0.36739,0.12246) occupation: 14==
 -65.00445 -65.00445 -4.62679 -4.62663 -3.03861 -3.03860 -3.03843 -3.03806 -3.03792 -3.03788
 -0.09597 0.08088 0.17888 0.20172 0.34191 0.42766 0.45894 0.47793 0.65458 0.66180
 0.67270 0.75421 0.77192 0.84001 0.88269 0.94199 1.00017 1.01880 1.09318 1.15587
 1.20408 1.25085 1.28001 1.30935 1.35724 1.41732 1.43673 1.44593 1.51310 1.56854
 1.60229 1.64322 1.67568 1.69313 1.73451 1.78548 1.89696 1.89744 1.92982 1.93058
 1.98951 2.04573 2.06730 2.08125 2.12647 2.14028 2.25072 2.34649 2.36154 2.37194
 2.42827 2.48234 2.50190 2.60876 2.61432 2.64749 2.71005 2.74110 2.74735 2.78424
 2.81929 2.85696 2.87024 2.89013 3.00607 3.04856 3.05742 3.11437 3.12552 3.12753
 3.19674 3.26047 3.31338 3.31547 3.35249 3.40696 3.40767 3.43947 3.51632 3.52216
 3.56848 3.61451 3.61605 3.69750 3.75949 3.79529 3.79683 3.85716 3.89913 4.03088
 4.03969 4.13179 4.25357 4.35438 4.56859 4.58631 7.89757 8.09358 8.20595 9.28156
 9.94839 10.47533 12.98439 14.03748
 == 114-th k-point (0.00000,0.48986,0.00000) occupation: 14==
 -65.00445 -65.00445 -4.62675 -4.62666 -3.03862 -3.03862 -3.03833 -3.03814 -3.03789 -3.03789
 -0.06378 0.04926 0.17585 0.17585 0.29779 0.32503 0.59156 0.59156 0.68100 0.69031
 0.74755 0.74755 0.78172 0.82191 0.88811 0.91224 0.91224 0.97775 1.11865 1.13677
 1.13678 1.16921 1.19664 1.29007 1.36237 1.36238 1.40971 1.56939 1.56940 1.61726
 1.62789 1.63870 1.73363 1.75413 1.75414 1.78543 1.78547 1.79244 1.86082 1.89851
 2.00777 2.00791 2.01065 2.17354 2.17366 2.20686 2.28345 2.37130 2.37916 2.40010
 2.40011 2.41206 2.51853 2.51864 2.59815 2.62608 2.70197 2.76185 2.83674 2.83679
 2.86878 2.86901 2.87478 2.92892 2.94138 2.99980 3.00096 3.00104 3.10472 3.17343
 3.22210 3.23252 3.23272 3.34340 3.36243 3.36270 3.44633 3.44678 3.48366 3.50141
 3.52622 3.56613 3.56665 3.70832 3.73513 3.74998 3.91127 3.91142 3.93505 4.17991
 4.24751 4.24783 4.28204 4.38875 4.62234 4.62388 8.05715 8.37482 8.37504 8.71796
 10.28580 10.28904 13.29306 13.34621
 == 115-th k-point (-0.36739,-0.12246,0.61232) occupation: 14==
 -65.00445 -65.00445 -4.62674 -4.62667 -3.03863 -3.03862 -3.03833 -3.03815 -3.03788 -3.03786
 -0.04752 0.03515 0.12853 0.16495 0.40186 0.41593 0.44042 0.56463 0.59021 0.65569
 0.77138 0.80843 0.81168 0.85890 0.89010 0.97137 1.01943 1.02606 1.04423 1.07331
 1.14062 1.14561 1.23765 1.31971 1.35448 1.37576 1.40208 1.41799 1.46764 1.50552
 1.59077 1.67822 1.69820 1.73165 1.81354 1.82344 1.88099 1.90696 1.91643 1.92135
 2.00994 2.06017 2.12149 2.13886 2.18810 2.26890 2.30940 2.31078 2.32692 2.37702
 2.40375 2.47157 2.49789 2.57327 2.57507 2.65846 2.67836 2.70773 2.79900 2.82181
 2.83801 2.92293 2.92636 2.93789 2.96891 2.99718 3.02589 3.06635 3.10325 3.16090
 3.16568 3.24426 3.29178 3.35117 3.37075 3.39620 3.42911 3.43467 3.49322 3.49731
 3.51111 3.54872 3.63533 3.63872 3.66903 3.67978 3.81422 3.86523 3.98723 3.99815
 4.08653 4.12897 4.24592 4.28871 4.55452 4.60151 8.29372 8.36352 8.49166 8.73473
 9.66221 9.80716 13.45031 13.97087
 == 116-th k-point (-0.24493,0.00000,0.48986) occupation: 14==
 -65.00445 -65.00445 -4.62674 -4.62667 -3.03863 -3.03862 -3.03833 -3.03815 -3.03788 -3.03786
 -0.04752 0.03515 0.12853 0.16495 0.40186 0.41593 0.44042 0.56463 0.59021 0.65569
 0.77138 0.80843 0.81168 0.85890 0.89010 0.97137 1.01943 1.02606 1.04422 1.07331
 1.14062 1.14560 1.23764 1.31969 1.35445 1.37572 1.40207 1.41798 1.46764 1.50549
 1.59076 1.67818 1.69816 1.73158 1.81352 1.82343 1.88098 1.90687 1.91642 1.92131
 2.00994 2.06015 2.12143 2.13880 2.18777 2.26888 2.30931 2.31071 2.32661 2.37696
 2.40353 2.47151 2.49787 2.57314 2.57486 2.65763 2.67830 2.70766 2.79889 2.82163
 2.83794 2.92292 2.92618 2.93772 2.96878 2.99714 3.02577 3.06620 3.10322 3.16074
 3.16530 3.24424 3.29175 3.35117 3.37071 3.39450 3.42908 3.43422 3.49279 3.49720
 3.51061 3.54831 3.63518 3.63817 3.66786 3.67847 3.81404 3.86503 3.98676 3.99719
 4.08618 4.12860 4.24577 4.28866 4.55339 4.60033 8.29349 8.36341 8.49097 8.73408
 9.66026 9.80472 13.44954 13.96991
 == 117-th k-point (-0.12246,0.12246,0.36739) occupation: 14==
 -65.00445 -65.00445 -4.62679 -4.62663 -3.03861 -3.03860 -3.03843 -3.03806 -3.03792 -3.03788
 -0.09597 0.08088 0.17888 0.20172 0.34191 0.42766 0.45894 0.47793 0.65458 0.66180
 0.67270 0.75421 0.77192 0.84001 0.88269 0.94199 1.00017 1.01880 1.09318 1.15587
 1.20408 1.25085 1.28001 1.30935 1.35724 1.41732 1.43673 1.44593 1.51310 1.56854
 1.60229 1.64322 1.67568 1.69313 1.73451 1.78548 1.89696 1.89744 1.92982 1.93058
 1.98951 2.04573 2.06730 2.08125 2.12647 2.14028 2.25072 2.34649 2.36154 2.37194
 2.42827 2.48234 2.50190 2.60876 2.61432 2.64749 2.71005 2.74110 2.74735 2.78424
 2.81929 2.85696 2.87024 2.89013 3.00607 3.04856 3.05742 3.11437 3.12552 3.12753
 3.19674 3.26047 3.31338 3.31547 3.35249 3.40696 3.40767 3.43947 3.51632 3.52216
 3.56848 3.61451 3.61605 3.69750 3.75949 3.79529 3.79683 3.85716 3.89913 4.03088
 4.03969 4.13179 4.25357 4.35438 4.56859 4.58631 7.89757 8.09358 8.20595 9.28156
 9.94839 10.47533 12.98439 14.03748
 == 118-th k-point (0.00000,0.24493,0.24493) occupation: 14==
 -65.00445 -65.00445 -4.62680 -4.62661 -3.03860 -3.03859 -3.03847 -3.03804 -3.03790 -3.03789
 -0.11392 0.11160 0.16476 0.24437 0.38350 0.42361 0.43595 0.48799 0.50520 0.66991
 0.67682 0.71739 0.78975 0.82498 0.91193 0.95892 1.01716 1.03833 1.10134 1.11326
 1.25037 1.26873 1.31135 1.34237 1.38477 1.38832 1.46493 1.52506 1.52746 1.56209
 1.58889 1.62531 1.71054 1.72620 1.72621 1.75876 1.82180 1.82905 1.90570 1.96836
 1.97096 1.98941 2.08715 2.12187 2.12962 2.18514 2.21546 2.24803 2.38795 2.46451
 2.47119 2.54879 2.55288 2.55977 2.59847 2.66516 2.67032 2.73488 2.74822 2.76492
 2.80639 2.86617 2.88132 2.89806 2.97617 3.00655 3.12566 3.14845 3.15864 3.18650
 3.20654 3.28699 3.32533 3.35408 3.37903 3.41559 3.42805 3.43079 3.48627 3.53606
 3.60372 3.61913 3.64328 3.67670 3.74228 3.80949 3.81720 3.82007 3.89981 3.90410
 4.00932 4.08879 4.23402 4.45902 4.54178 4.57349 7.58470 8.00891 8.03680 9.55143
 9.87857 10.10814 12.96164 14.01466
 == 119-th k-point (0.12246,0.36739,0.12246) occupation: 14==
 -65.00445 -65.00445 -4.62679 -4.62663 -3.03861 -3.03860 -3.03843 -3.03806 -3.03792 -3.03788
 -0.09597 0.08088 0.17888 0.20172 0.34191 0.42766 0.45894 0.47793 0.65458 0.66180
 0.67270 0.75421 0.77192 0.84001 0.88270 0.94201 1.00017 1.01880 1.09321 1.15588
 1.20409 1.25086 1.28002 1.30936 1.35726 1.41735 1.43673 1.44594 1.51315 1.56855
 1.60230 1.64326 1.67580 1.69323 1.73453 1.78561 1.89725 1.89751 1.93009 1.93070
 1.98953 2.04606 2.06740 2.08128 2.12656 2.14093 2.25082 2.34667 2.36160 2.37206
 2.42829 2.48280 2.50198 2.60879 2.61450 2.64754 2.71016 2.74153 2.74738 2.78433
 2.81962 2.85701 2.87034 2.89052 3.00620 3.04859 3.05744 3.11449 3.12577 3.13359
 3.19683 3.26067 3.31511 3.31834 3.35263 3.40746 3.40776 3.44344 3.51934 3.52236
 3.57003 3.61505 3.61609 3.69756 3.76543 3.79626 3.79710 3.85986 3.89936 4.03111
 4.04068 4.13508 4.25417 4.35445 4.57244 4.59178 7.89793 8.09441 8.20621 9.28181
 9.96109 10.49546 12.98704 14.04477
 == 120-th k-point (-0.24493,-0.24493,0.73479) occupation: 14==
 -65.00446 -65.00445 -4.62676 -4.62665 -3.03862 -3.03860 -3.03840 -3.03809 -3.03789 -3.03786
 -0.06328 0.02937 0.14902 0.21216 0.35259 0.44685 0.45434 0.55655 0.58530 0.59116
 0.70405 0.80104 0.81624 0.83914 0.91527 1.01020 1.01690 1.03020 1.08674 1.09314
 1.20325 1.24502 1.25953 1.26247 1.30436 1.35271 1.36727 1.45941 1.49052 1.55062
 1.60243 1.63665 1.66204 1.66668 1.71895 1.82179 1.86164 1.92113 1.93551 1.98264
 2.08272 2.11889 2.13042 2.17051 2.18916 2.23939 2.27222 2.28507 2.33779 2.34693
 2.44319 2.44873 2.47109 2.52003 2.52318 2.64959 2.65278 2.74665 2.81908 2.84086
 2.85337 2.88176 2.93183 2.95929 2.96291 3.01569 3.03936 3.05434 3.07729 3.14414
 3.19141 3.23367 3.27280 3.27926 3.34818 3.39750 3.41768 3.43604 3.44075 3.51643
 3.55610 3.59383 3.62037 3.64047 3.73085 3.74211 3.79333 3.89776 3.92146 3.94323
 4.04206 4.17300 4.24917 4.28798 4.51143 4.54595 8.07456 8.39970 8.40965 8.97412
 9.01034 9.84343 13.04728 14.49678
 == 121-th k-point (-0.12246,-0.12246,0.61232) occupation: 14==
 -65.00445 -65.00445 -4.62672 -4.62669 -3.03863 -3.03862 -3.03828 -3.03819 -3.03788 -3.03786
 -0.01928 0.00279 0.12534 0.18024 0.31451 0.39294 0.57552 0.59743 0.59887 0.61593
 0.80337 0.81550 0.82564 0.86174 0.88186 0.90045 1.01495 1.04967 1.05355 1.05442
 1.10267 1.14600 1.18181 1.21642 1.37199 1.41526 1.41866 1.46519 1.56462 1.59671
 1.61087 1.63217 1.63850 1.69666 1.72665 1.80301 1.84377 1.88958 1.92213 1.96744
 2.00868 2.06498 2.10403 2.22825 2.26290 2.27455 2.29327 2.30017 2.33392 2.33519
 2.35058 2.42603 2.48483 2.49416 2.57595 2.68351 2.71191 2.74909 2.75391 2.79214
 2.84728 2.87919 2.88810 2.96901 2.98680 3.04782 3.07052 3.07103 3.13419 3.14696
 3.19502 3.24837 3.27926 3.28490 3.28541 3.29451 3.37028 3.39309 3.44338 3.49836
 3.57993 3.62515 3.65867 3.68759 3.73121 3.74046 3.80220 3.90910 3.95773 3.98705
 4.11134 4.26034 4.28755 4.30243 4.57152 4.61096 8.19537 8.43096 8.59407 8.65220
 9.27097 9.96000 13.37210 13.66914
 == 122-th k-point (0.00000,0.00000,0.48986) occupation: 14==
 -65.00445 -65.00445 -4.62675 -4.62666 -3.03862 -3.03862 -3.03833 -3.03814 -3.03789 -3.03789
 -0.06378 0.04926 0.17585 0.17585 0.29779 0.32503 0.59156 0.59156 0.68100 0.69031
 0.74755 0.74755 0.78172 0.82191 0.88811 0.91224 0.91224 0.97775 1.11865 1.13677
 1.13678 1.16921 1.19664 1.29007 1.36237 1.36238 1.40971 1.56939 1.56940 1.61726
 1.62789 1.63870 1.73363 1.75413 1.75414 1.78543 1.78547 1.79244 1.86082 1.89851
 2.00777 2.00791 2.01065 2.17354 2.17366 2.20686 2.28345 2.37130 2.37916 2.40010
 2.40011 2.41206 2.51853 2.51864 2.59815 2.62608 2.70197 2.76185 2.83674 2.83679
 2.86878 2.86901 2.87478 2.92892 2.94138 2.99980 3.00096 3.00104 3.10472 3.17343
 3.22210 3.23252 3.23272 3.34340 3.36243 3.36270 3.44633 3.44678 3.48366 3.50141
 3.52622 3.56613 3.56665 3.70832 3.73513 3.74998 3.91127 3.91142 3.93505 4.17991
 4.24751 4.24783 4.28204 4.38875 4.62234 4.62388 8.05715 8.37482 8.37504 8.71796
 10.28580 10.28904 13.29306 13.34621
 == 123-th k-point (0.12246,0.12246,0.36739) occupation: 14==
 -65.00445 -65.00445 -4.62679 -4.62663 -3.03861 -3.03860 -3.03843 -3.03806 -3.03792 -3.03788
 -0.09597 0.08088 0.17888 0.20172 0.34191 0.42766 0.45894 0.47793 0.65458 0.66180
 0.67270 0.75421 0.77192 0.84001 0.88270 0.94201 1.00017 1.01880 1.09321 1.15588
 1.20409 1.25086 1.28002 1.30936 1.35726 1.41735 1.43673 1.44594 1.51315 1.56855
 1.60230 1.64326 1.67580 1.69323 1.73453 1.78561 1.89725 1.89751 1.93009 1.93070
 1.98953 2.04606 2.06740 2.08128 2.12656 2.14093 2.25082 2.34667 2.36160 2.37206
 2.42829 2.48280 2.50198 2.60879 2.61450 2.64754 2.71016 2.74153 2.74738 2.78433
 2.81962 2.85701 2.87034 2.89052 3.00620 3.04859 3.05744 3.11449 3.12577 3.13359
 3.19683 3.26067 3.31511 3.31834 3.35263 3.40746 3.40776 3.44344 3.51934 3.52236
 3.57003 3.61505 3.61609 3.69756 3.76543 3.79626 3.79710 3.85986 3.89936 4.03111
 4.04068 4.13508 4.25417 4.35445 4.57244 4.59178 7.89793 8.09441 8.20621 9.28181
 9.96109 10.49546 12.98704 14.04477
 == 124-th k-point (0.24493,0.24493,0.24493) occupation: 14==
 -65.00446 -65.00444 -4.62679 -4.62663 -3.03859 -3.03859 -3.03848 -3.03801 -3.03791 -3.03791
 -0.09430 0.04499 0.23388 0.23388 0.33700 0.40296 0.40296 0.56289 0.61175 0.61175
 0.64751 0.76826 0.76826 0.79015 0.90909 0.99018 0.99018 1.12808 1.16869 1.17060
 1.17060 1.27270 1.27270 1.32219 1.32219 1.40758 1.40771 1.49306 1.49306 1.52416
 1.52416 1.59572 1.64740 1.68772 1.84996 1.84996 1.88699 1.88699 1.89335 1.92376
 2.02215 2.02215 2.12274 2.20108 2.20108 2.27514 2.27514 2.30581 2.36930 2.36930
 2.39525 2.39525 2.57591 2.61351 2.64165 2.64165 2.74717 2.77969 2.78872 2.78872
 2.80386 2.85720 2.85720 2.87718 2.99978 2.99978 3.02326 3.10522 3.10522 3.11313
 3.13829 3.13829 3.31023 3.34161 3.34161 3.46995 3.46995 3.53419 3.53419 3.54009
 3.54994 3.68953 3.69869 3.69869 3.77234 3.77336 3.86655 3.86655 3.95587 3.95587
 4.08122 4.08122 4.12381 4.41792 4.49346 4.49346 8.09733 8.13443 8.13443 9.78079
 9.78079 10.03215 11.94464 14.79728
 ---------------------------------------------------------------------------
 VBM is at 62-th k-point with 7.50879 eV
 CBM is at 10-th k-point with 8.10321 eV
 Band gap is 0.59442 eV


           Ground-State Mulliken Net Atomic Charges

      Atom                 Charge (a.u.)          Spin (a.u.)
   --------------------------------------------------------
      1 Si               (-0.000000,0.000000)    (0.000000,0.000000)
      2 Si               (0.000000,-0.000000)    (0.000000,0.000000)
   --------------------------------------------------------
  Sum of atomic charges =      (-0.000000,0.000000)
  Sum of spin   charges =       (0.000000,0.000000)



 Total job time:  97.47 s.
 Tue Sep  9 03:08:13 2025


        *************************************************************
        *                                                           *
        *  Thank you very much for using QCPBC. Have a nice day.    *
        *                                                           *
        *************************************************************

Running job 1 of 1
