                  Welcome to Q-Chem
           with Periodic Boundary Condition
     A Quantum Leap Into The Future Of Chemistry

 Adam Rettig, Xintian Feng, Meng-Fu Chen, Hieu Dinh, Stephen Quiton,
 Anton Ni, Paul J. Robinson, Jinghong Zhang, Joonho Lee

Contributors to earlier versions of Q-Chem not listed above:
 Evgeny Epifanovsky, Leo Cunha, Jerome F. Gonthier, Kuan-Yu Liu
 Input file: /n/netscratch/joonholee_lab/Lab/hieudinh//si_2_ccpvqz_omega_0.3_666.scratch20250909031004/si_2_ccpvqz_omega_0.3_666.0
 Scratch folder: /n/netscratch/joonholee_lab/Lab/hieudinh//si_2_ccpvqz_omega_0.3_666.scratch20250909031004
 Auxillary files located at: /n/holylabs/LABS/joonholee_lab/Lab/qchem_base/qcaux
 Q-Chem begins on Tue Sep  9 03:10:05 2025

 -------------------------------------------------------------
 User input:
 -------------------------------------------------------------
 $lattice
 3
 0.000000 5.130600 5.130600
 5.130600 0.000000 5.130600
 5.130600 5.130600 0.000000
 $end
 
 $unitcell
 ABSOLUTE
 0 1
 Si 0.000000 0.000000 0.000000
 Si 2.565300 2.565300 2.565300
 $end
 
 $rem
 jobtype = sp
 method = pbe
 scf_convergence = 5
 scf_guess = autosad
 scf_algorithm = diis_gdm
 basis = cc-pvqz
 aux_basis = cc-pvqz-jk
 input_bohr = true
 symmetry = false
 rsdf_print_level 1
 is_basis_uctr true
 
 mp_mesh = [6,6,6]
 
 integral_direct true
 bvk_cgto true
 
 thresh 14
 mem_total 1000000
 threads 32
 
 MAX_SCF_CYCLES 500
 madelung = false
 omega 0.3
 do_rij_bigmem true
 automate_g true
 print_level 10
 grid_type_xc 1
 
 thresh_1e2c_sp 1e-14
 thresh_2e3c_bra_ket_sep 1e-10
 thresh_g 1e-12
 $end
 
 -------------------------------------------------------------
 Running PBC job

 Requested Exchange Correlation Functionals: 
  DFT Exchange:  1.00000 pbe_x
  DFT Correlation:  1.00000 pbe_c
 using 32 threads for computing.
 ---------------------------------------------------------------
      Coordinates of Atoms in Central Unit Cell (Angstroms)
    I     Atom         X            Y            Z
 ---------------------------------------------------------------
    1      Si      0.000000     0.000000     0.000000
    2      Si      1.357498     1.357498     1.357498
 ---------------------------------------------------------------
 --------------------------------------------------
              Lattice Vectors (Angstroms)
              X            Y            Z
 --------------------------------------------------
   X       0.000000     2.714997     2.714997
   Y       2.714997     0.000000     2.714997
   Z       2.714997     2.714997     0.000000
 --------------------------------------------------
 --------------------------------------------------
       Reciprocal Lattice Vectors (Angstroms^-1)
              X            Y            Z
 --------------------------------------------------
   X      -1.157126     1.157126     1.157126
   Y       1.157126    -1.157126     1.157126
   Z       1.157126     1.157126    -1.157126
 --------------------------------------------------

 Single point calculation requested

 Hamiltonian contributions:
 List of terms in Hamiltonian: kpts_nn, kpts_kinetic, kpts_vnuc_df, kpts_xc, kpts_rij_bigmem

 K-Points calculation started.

 Basis set information about using solid harmonic (1) or Cartesian (0):
  si : D(1) D(1) D(1) F(1) F(1) G(1) 

 Basis set information about using solid harmonic (1) or Cartesian (0):
  si : D(1) D(1) D(1) D(1) D(1) D(1) D(1) D(1) D(1) F(1) F(1) F(1) F(1) G(1) G(1) H(1) 

 There are 118 basis functions in the central unit cell.
 Print atomic basis of atoms in the central unit cell:
 -------------------------------------------------------------
2 66 134 28

  0.00000000000000e+00  0.00000000000000e+00  0.00000000000000e+00
  2.56530000000000e+00  2.56530000000000e+00  2.56530000000000e+00

  5.13000000000000e+05
  7.68200000000000e+04
  1.74700000000000e+04
  4.93500000000000e+03
  1.60200000000000e+03
  5.74100000000000e+02
  2.21500000000000e+02
  9.05400000000000e+01
  3.87400000000000e+01
  1.69500000000000e+01
  6.45200000000000e+00
  2.87400000000000e+00
  1.25000000000000e+00
  3.59900000000000e-01
  1.69900000000000e-01
  7.06600000000000e-02
  1.12200000000000e+03
  2.66000000000000e+02
  8.59200000000000e+01
  3.23300000000000e+01
  1.33700000000000e+01
  5.80000000000000e+00
  2.55900000000000e+00
  1.12400000000000e+00
  3.98800000000000e-01
  1.53300000000000e-01
  5.72800000000000e-02
  7.60000000000000e-01
  3.02000000000000e-01
  1.20000000000000e-01
  5.41000000000000e-01
  2.12000000000000e-01
  4.61000000000000e-01
  5.13000000000000e+05
  7.68200000000000e+04
  1.74700000000000e+04
  4.93500000000000e+03
  1.60200000000000e+03
  5.74100000000000e+02
  2.21500000000000e+02
  9.05400000000000e+01
  3.87400000000000e+01
  1.69500000000000e+01
  6.45200000000000e+00
  2.87400000000000e+00
  1.25000000000000e+00
  3.59900000000000e-01
  1.69900000000000e-01
  7.06600000000000e-02
  1.12200000000000e+03
  2.66000000000000e+02
  8.59200000000000e+01
  3.23300000000000e+01
  1.33700000000000e+01
  5.80000000000000e+00
  2.55900000000000e+00
  1.12400000000000e+00
  3.98800000000000e-01
  1.53300000000000e-01
  5.72800000000000e-02
  7.60000000000000e-01
  3.02000000000000e-01
  1.20000000000000e-01
  5.41000000000000e-01
  2.12000000000000e-01
  4.61000000000000e-01

  3.56439732356011e-01
  6.67250935594825e-01
  1.15567538346971e+00
  1.89079471139597e+00
  2.92997535092854e+00
  4.25377897422013e+00
  5.53035652706994e+00
  5.88407857713363e+00
  4.26432221020809e+00
  1.46246852660687e+00
  9.90009037975635e-02
 -5.26805361731285e-03
  1.58075269248041e-03
 -9.63604858609034e-02
 -1.80140685379119e-01
 -3.12991611081079e-01
 -5.12013980868736e-01
 -8.03092560139717e-01
 -1.18597193899895e+00
 -1.63453354628192e+00
 -1.94138718043020e+00
 -1.86039340932271e+00
 -9.21642524314205e-01
  4.93552860211257e-01
  9.09065541611183e-01
  3.40430003714153e-01
  4.89002727192571e-02
  9.13245846186842e-02
  1.58921585782757e-01
  2.59526822498432e-01
  4.08347517411705e-01
  6.02266139654795e-01
  8.36774006155092e-01
  9.98775610751853e-01
  9.86583994360998e-01
  5.01500269670235e-01
 -2.91439000418814e-01
 -6.84883633703988e-01
 -4.85138432421684e-01
  3.31166560285492e-01
  1.88605835767988e-01
  9.76765512168845e-02
  4.17977074735086e+00
  5.88843070847456e+00
  7.44317185052013e+00
  8.05001094515016e+00
  6.97099017282640e+00
  4.33955185260449e+00
  1.76355858703549e+00
  3.34437932089088e-01
 -4.09551658476811e+00
 -5.70145272051300e+00
 -7.35388974061730e+00
 -7.93663059323219e+00
 -7.17813870370958e+00
 -4.42768957771269e+00
 -2.05517820096269e+00
 -1.72105843348797e-01
  4.51735295769850e-01
  1.36731249153695e-01
  3.99432914781939e-02
  1.01820035164008e+00
  2.02498404800701e-01
  4.02695370421242e-02
  3.69528803814005e-01
  4.48962571437413e-02
  1.32316184864580e-01
  3.56439732356011e-01
  6.67250935594825e-01
  1.15567538346971e+00
  1.89079471139597e+00
  2.92997535092854e+00
  4.25377897422013e+00
  5.53035652706994e+00
  5.88407857713363e+00
  4.26432221020809e+00
  1.46246852660687e+00
  9.90009037975635e-02
 -5.26805361731285e-03
  1.58075269248041e-03
 -9.63604858609034e-02
 -1.80140685379119e-01
 -3.12991611081079e-01
 -5.12013980868736e-01
 -8.03092560139717e-01
 -1.18597193899895e+00
 -1.63453354628192e+00
 -1.94138718043020e+00
 -1.86039340932271e+00
 -9.21642524314205e-01
  4.93552860211257e-01
  9.09065541611183e-01
  3.40430003714153e-01
  4.89002727192571e-02
  9.13245846186842e-02
  1.58921585782757e-01
  2.59526822498432e-01
  4.08347517411705e-01
  6.02266139654795e-01
  8.36774006155092e-01
  9.98775610751853e-01
  9.86583994360998e-01
  5.01500269670235e-01
 -2.91439000418814e-01
 -6.84883633703988e-01
 -4.85138432421684e-01
  3.31166560285492e-01
  1.88605835767988e-01
  9.76765512168845e-02
  4.17977074735086e+00
  5.88843070847456e+00
  7.44317185052013e+00
  8.05001094515016e+00
  6.97099017282640e+00
  4.33955185260449e+00
  1.76355858703549e+00
  3.34437932089088e-01
 -4.09551658476811e+00
 -5.70145272051300e+00
 -7.35388974061730e+00
 -7.93663059323219e+00
 -7.17813870370958e+00
 -4.42768957771269e+00
 -2.05517820096269e+00
 -1.72105843348797e-01
  4.51735295769850e-01
  1.36731249153695e-01
  3.99432914781939e-02
  1.01820035164008e+00
  2.02498404800701e-01
  4.02695370421242e-02
  3.69528803814005e-01
  4.48962571437413e-02
  1.32316184864580e-01

0 0 0 0 3 3 3
0 0 13 0 26 0 
13 0

0 3 3 13 1 1 1
39 0 
1 0

0 4 4 14 1 1 1
40 0 
1 0

0 5 5 15 1 1 1
41 0 
1 0

0 6 6 16 2 6 6
42 1 50 1 
8 0

0 12 12 24 1 3 3
58 1 
1 0

0 15 15 25 1 3 3
59 1 
1 0

0 18 18 26 1 3 3
60 1 
1 0

0 21 21 27 1 5 6
61 2 
1 1

0 26 26 28 1 5 6
62 2 
1 1

0 31 31 29 1 5 6
63 2 
1 1

0 36 36 30 1 7 10
64 3 
1 1

0 43 43 31 1 7 10
65 3 
1 1

0 50 50 32 1 9 15
66 4 
1 1

1 59 59 33 3 3 3
67 0 80 0 93 0 
13 0

1 62 62 46 1 1 1
106 0 
1 0

1 63 63 47 1 1 1
107 0 
1 0

1 64 64 48 1 1 1
108 0 
1 0

1 65 65 49 2 6 6
109 1 117 1 
8 0

1 71 71 57 1 3 3
125 1 
1 0

1 74 74 58 1 3 3
126 1 
1 0

1 77 77 59 1 3 3
127 1 
1 0

1 80 80 60 1 5 6
128 2 
1 1

1 85 85 61 1 5 6
129 2 
1 1

1 90 90 62 1 5 6
130 2 
1 1

1 95 95 63 1 7 10
131 3 
1 1

1 102 102 64 1 7 10
132 3 
1 1

1 109 109 65 1 9 15
133 4 
1 1

 -------------------------------------------------------------
 Allocate 265256 B from available memory: 1048576000000 B
 There are 2197 image cells after screening.
 There are 2061 image cells for CGTO evaluation after screening.
 Real-Space grid for FFT initialized based on kinetic energy cutoff (eV) = 500.0
 Real-Space grid for FFT: (10,10,10)
 There are 9261 real-space grid points.
 There are 64 batches of real-space grid points. 
 Size of each grid batch is around 128
 Grid for AFT initialized based on kinetic energy cutoff (eV) = 500.0
 Real-Space grid for AFT: (10,10,10)
 There are 9261 real-space grid points.

 There are 5628 atom-centered grid points.

 Spacegroup symmetry group: Fd-3m
 Reducing spacegroup symmetry to symmorphic group: F -4 3 m
 Monkhorst-Pack mesh is [6,6,6]
 There are 216 k points.
kpoints in Bohr
-0.2041082040 -0.2041082040 -0.2041082040
-0.1020541020 -0.1020541020 -0.3061623059
-0.0000000000 -0.0000000000 -0.4082164079
0.1020541020 0.1020541020 -0.5102705099
0.2041082040 0.2041082040 -0.6123246119
0.3061623059 0.3061623059 -0.7143787138
-0.1020541020 -0.3061623059 -0.1020541020
-0.0000000000 -0.2041082040 -0.2041082040
0.1020541020 -0.1020541020 -0.3061623059
0.2041082040 -0.0000000000 -0.4082164079
0.3061623059 0.1020541020 -0.5102705099
0.4082164079 0.2041082040 -0.6123246119
-0.0000000000 -0.4082164079 0.0000000000
0.1020541020 -0.3061623059 -0.1020541020
0.2041082040 -0.2041082040 -0.2041082040
0.3061623059 -0.1020541020 -0.3061623059
0.4082164079 -0.0000000000 -0.4082164079
0.5102705099 0.1020541020 -0.5102705099
0.1020541020 -0.5102705099 0.1020541020
0.2041082040 -0.4082164079 0.0000000000
0.3061623059 -0.3061623059 -0.1020541020
0.4082164079 -0.2041082040 -0.2041082040
0.5102705099 -0.1020541020 -0.3061623059
0.6123246119 0.0000000000 -0.4082164079
0.2041082040 -0.6123246119 0.2041082040
0.3061623059 -0.5102705099 0.1020541020
0.4082164079 -0.4082164079 0.0000000000
0.5102705099 -0.3061623059 -0.1020541020
0.6123246119 -0.2041082040 -0.2041082040
0.7143787138 -0.1020541020 -0.3061623059
0.3061623059 -0.7143787138 0.3061623059
0.4082164079 -0.6123246119 0.2041082040
0.5102705099 -0.5102705099 0.1020541020
0.6123246119 -0.4082164079 0.0000000000
0.7143787138 -0.3061623059 -0.1020541020
0.8164328158 -0.2041082040 -0.2041082040
-0.3061623059 -0.1020541020 -0.1020541020
-0.2041082040 -0.0000000000 -0.2041082040
-0.1020541020 0.1020541020 -0.3061623059
-0.0000000000 0.2041082040 -0.4082164079
0.1020541020 0.3061623059 -0.5102705099
0.2041082040 0.4082164079 -0.6123246119
-0.2041082040 -0.2041082040 -0.0000000000
-0.1020541020 -0.1020541020 -0.1020541020
-0.0000000000 -0.0000000000 -0.2041082040
0.1020541020 0.1020541020 -0.3061623059
0.2041082040 0.2041082040 -0.4082164079
0.3061623059 0.3061623059 -0.5102705099
-0.1020541020 -0.3061623059 0.1020541020
-0.0000000000 -0.2041082040 0.0000000000
0.1020541020 -0.1020541020 -0.1020541020
0.2041082040 -0.0000000000 -0.2041082040
0.3061623059 0.1020541020 -0.3061623059
0.4082164079 0.2041082040 -0.4082164079
-0.0000000000 -0.4082164079 0.2041082040
0.1020541020 -0.3061623059 0.1020541020
0.2041082040 -0.2041082040 0.0000000000
0.3061623059 -0.1020541020 -0.1020541020
0.4082164079 0.0000000000 -0.2041082040
0.5102705099 0.1020541020 -0.3061623059
0.1020541020 -0.5102705099 0.3061623059
0.2041082040 -0.4082164079 0.2041082040
0.3061623059 -0.3061623059 0.1020541020
0.4082164079 -0.2041082040 0.0000000000
0.5102705099 -0.1020541020 -0.1020541020
0.6123246119 0.0000000000 -0.2041082040
0.2041082040 -0.6123246119 0.4082164079
0.3061623059 -0.5102705099 0.3061623059
0.4082164079 -0.4082164079 0.2041082040
0.5102705099 -0.3061623059 0.1020541020
0.6123246119 -0.2041082040 0.0000000000
0.7143787138 -0.1020541020 -0.1020541020
-0.4082164079 -0.0000000000 -0.0000000000
-0.3061623059 0.1020541020 -0.1020541020
-0.2041082040 0.2041082040 -0.2041082040
-0.1020541020 0.3061623059 -0.3061623059
0.0000000000 0.4082164079 -0.4082164079
0.1020541020 0.5102705099 -0.5102705099
-0.3061623059 -0.1020541020 0.1020541020
-0.2041082040 -0.0000000000 -0.0000000000
-0.1020541020 0.1020541020 -0.1020541020
0.0000000000 0.2041082040 -0.2041082040
0.1020541020 0.3061623059 -0.3061623059
0.2041082040 0.4082164079 -0.4082164079
-0.2041082040 -0.2041082040 0.2041082040
-0.1020541020 -0.1020541020 0.1020541020
0.0000000000 0.0000000000 0.0000000000
0.1020541020 0.1020541020 -0.1020541020
0.2041082040 0.2041082040 -0.2041082040
0.3061623059 0.3061623059 -0.3061623059
-0.1020541020 -0.3061623059 0.3061623059
-0.0000000000 -0.2041082040 0.2041082040
0.1020541020 -0.1020541020 0.1020541020
0.2041082040 0.0000000000 0.0000000000
0.3061623059 0.1020541020 -0.1020541020
0.4082164079 0.2041082040 -0.2041082040
-0.0000000000 -0.4082164079 0.4082164079
0.1020541020 -0.3061623059 0.3061623059
0.2041082040 -0.2041082040 0.2041082040
0.3061623059 -0.1020541020 0.1020541020
0.4082164079 0.0000000000 0.0000000000
0.5102705099 0.1020541020 -0.1020541020
0.1020541020 -0.5102705099 0.5102705099
0.2041082040 -0.4082164079 0.4082164079
0.3061623059 -0.3061623059 0.3061623059
0.4082164079 -0.2041082040 0.2041082040
0.5102705099 -0.1020541020 0.1020541020
0.6123246119 0.0000000000 0.0000000000
-0.5102705099 0.1020541020 0.1020541020
-0.4082164079 0.2041082040 -0.0000000000
-0.3061623059 0.3061623059 -0.1020541020
-0.2041082040 0.4082164079 -0.2041082040
-0.1020541020 0.5102705099 -0.3061623059
0.0000000000 0.6123246119 -0.4082164079
-0.4082164079 -0.0000000000 0.2041082040
-0.3061623059 0.1020541020 0.1020541020
-0.2041082040 0.2041082040 -0.0000000000
-0.1020541020 0.3061623059 -0.1020541020
0.0000000000 0.4082164079 -0.2041082040
0.1020541020 0.5102705099 -0.3061623059
-0.3061623059 -0.1020541020 0.3061623059
-0.2041082040 -0.0000000000 0.2041082040
-0.1020541020 0.1020541020 0.1020541020
0.0000000000 0.2041082040 0.0000000000
0.1020541020 0.3061623059 -0.1020541020
0.2041082040 0.4082164079 -0.2041082040
-0.2041082040 -0.2041082040 0.4082164079
-0.1020541020 -0.1020541020 0.3061623059
0.0000000000 0.0000000000 0.2041082040
0.1020541020 0.1020541020 0.1020541020
0.2041082040 0.2041082040 0.0000000000
0.3061623059 0.3061623059 -0.1020541020
-0.1020541020 -0.3061623059 0.5102705099
-0.0000000000 -0.2041082040 0.4082164079
0.1020541020 -0.1020541020 0.3061623059
0.2041082040 0.0000000000 0.2041082040
0.3061623059 0.1020541020 0.1020541020
0.4082164079 0.2041082040 0.0000000000
-0.0000000000 -0.4082164079 0.6123246119
0.1020541020 -0.3061623059 0.5102705099
0.2041082040 -0.2041082040 0.4082164079
0.3061623059 -0.1020541020 0.3061623059
0.4082164079 0.0000000000 0.2041082040
0.5102705099 0.1020541020 0.1020541020
-0.6123246119 0.2041082040 0.2041082040
-0.5102705099 0.3061623059 0.1020541020
-0.4082164079 0.4082164079 -0.0000000000
-0.3061623059 0.5102705099 -0.1020541020
-0.2041082040 0.6123246119 -0.2041082040
-0.1020541020 0.7143787138 -0.3061623059
-0.5102705099 0.1020541020 0.3061623059
-0.4082164079 0.2041082040 0.2041082040
-0.3061623059 0.3061623059 0.1020541020
-0.2041082040 0.4082164079 -0.0000000000
-0.1020541020 0.5102705099 -0.1020541020
0.0000000000 0.6123246119 -0.2041082040
-0.4082164079 -0.0000000000 0.4082164079
-0.3061623059 0.1020541020 0.3061623059
-0.2041082040 0.2041082040 0.2041082040
-0.1020541020 0.3061623059 0.1020541020
0.0000000000 0.4082164079 0.0000000000
0.1020541020 0.5102705099 -0.1020541020
-0.3061623059 -0.1020541020 0.5102705099
-0.2041082040 0.0000000000 0.4082164079
-0.1020541020 0.1020541020 0.3061623059
0.0000000000 0.2041082040 0.2041082040
0.1020541020 0.3061623059 0.1020541020
0.2041082040 0.4082164079 0.0000000000
-0.2041082040 -0.2041082040 0.6123246119
-0.1020541020 -0.1020541020 0.5102705099
0.0000000000 0.0000000000 0.4082164079
0.1020541020 0.1020541020 0.3061623059
0.2041082040 0.2041082040 0.2041082040
0.3061623059 0.3061623059 0.1020541020
-0.1020541020 -0.3061623059 0.7143787138
0.0000000000 -0.2041082040 0.6123246119
0.1020541020 -0.1020541020 0.5102705099
0.2041082040 0.0000000000 0.4082164079
0.3061623059 0.1020541020 0.3061623059
0.4082164079 0.2041082040 0.2041082040
-0.7143787138 0.3061623059 0.3061623059
-0.6123246119 0.4082164079 0.2041082040
-0.5102705099 0.5102705099 0.1020541020
-0.4082164079 0.6123246119 -0.0000000000
-0.3061623059 0.7143787138 -0.1020541020
-0.2041082040 0.8164328158 -0.2041082040
-0.6123246119 0.2041082040 0.4082164079
-0.5102705099 0.3061623059 0.3061623059
-0.4082164079 0.4082164079 0.2041082040
-0.3061623059 0.5102705099 0.1020541020
-0.2041082040 0.6123246119 0.0000000000
-0.1020541020 0.7143787138 -0.1020541020
-0.5102705099 0.1020541020 0.5102705099
-0.4082164079 0.2041082040 0.4082164079
-0.3061623059 0.3061623059 0.3061623059
-0.2041082040 0.4082164079 0.2041082040
-0.1020541020 0.5102705099 0.1020541020
0.0000000000 0.6123246119 0.0000000000
-0.4082164079 0.0000000000 0.6123246119
-0.3061623059 0.1020541020 0.5102705099
-0.2041082040 0.2041082040 0.4082164079
-0.1020541020 0.3061623059 0.3061623059
0.0000000000 0.4082164079 0.2041082040
0.1020541020 0.5102705099 0.1020541020
-0.3061623059 -0.1020541020 0.7143787138
-0.2041082040 0.0000000000 0.6123246119
-0.1020541020 0.1020541020 0.5102705099
0.0000000000 0.2041082040 0.4082164079
0.1020541020 0.3061623059 0.3061623059
0.2041082040 0.4082164079 0.2041082040
-0.2041082040 -0.2041082040 0.8164328158
-0.1020541020 -0.1020541020 0.7143787138
0.0000000000 0.0000000000 0.6123246119
0.1020541020 0.1020541020 0.5102705099
0.2041082040 0.2041082040 0.4082164079
0.3061623059 0.3061623059 0.3061623059
 There are 14 alpha and 14 beta electrons
 Start computing overlap matrix
 Allocate 48121344 B from available memory: 1048575734752 B
 Time for computing overlap matrix: 3.9270000000 s
 ====== Initialize compute kernels for all-electron RI-J (kpts) ====== 
 ========================================================== 
 Range-separated parameter omega        = 0.299999999999999989
 Threshold for 1e2c shellpair           = 0.000000000000010000
 Threshold for 2e2c SR integral         = 0.000000000000000001
 Threshold for 2e3c SR integral         = 0.000000000100000000
 Threshold for AFT G-space screening is = 0.000000000001000000
 The exponent cutoff for C/D classification (omega2 / 2) is  = 0.044999999999999998
 ========================================================== 
 === Post process the basis set for RI calculation (exp_cutoff = 0.044999999999999998 ) === 
nshells_b1 before uncontraction = 28
nshells_b1 after uncontraction = 28
nshells_baux before uncontraction = 80
nshells_baux after uncontraction = 80
===============================================
nbsf total   = 118
nbsf compact = 118
nbsf diffuse = 0
naux total   = 296
naux compact = 296
naux diffuse = 0
nshells_bnuc = 2

 Number of unique atoms is 1
 Unique atom #0 (si) has 14 shells.

Shell 0 to 13 belongs to atom si
Shell 14 to 27 belongs to atom si

 Number of unique atom is 1
 Unique atom #0 (si) has 40 auxiliary shells.

Auxiliary Shell 0 to 39 belongs to atom si
Auxiliary Shell 40 to 79 belongs to atom si

================= Automatically determine grid size for reciprocal space summation =================
 Range-separated parameter = 0.30000000000000 and G-space screening threshold = 0.00000000000100
The number of grid points along each axis dimension is (4, 4, 4)
Total number of grid points = 729

Use nonortho shellpair for diffuse density
======== Initializing relevant kernel for RIJ (CC type) ========
There are 406 shellpairs in the reference unit cell
There are 3757 images and we expect to have 1525342 in total
There are 35954 shellpairs in the lattice sum after screening
****** AFT -> SR ******
Maximum bra distance cutoff is 30.000000000000
Maximum bra ket distance cutoff is 37.583407605466
Maximum bra ket screening distance is 30.187500000000
Number of auxiliary image is 1657
There are 406 shellpairs in the reference unit cell
There are 1031 images and we expect to have 418586 in total
There are 35954 shellpairs in the lattice sum after screening
Available memory per thread for 2e3c calculation is 32.766487919000Gb
Finish initializing 2e3c SR with the lattice sum!
=================================================
======== Initialize the SR component for Vnuc (CC type) ========
Maximum bra distance cutoff is 30.000000000000
Maximum bra ket distance cutoff is 31.203423477913
Maximum bra ket screening distance is 23.767099300136
Number of auxiliary image is 1097
There are 406 shellpairs in the reference unit cell
There are 1031 images and we expect to have 418586 in total
There are 35954 shellpairs in the lattice sum after screening
Available memory per thread for 2e3c calculation is 32.766487919000Gb
Finish initializing 2e3c SR with the lattice sum!
=================================================
 Aufbau occupation scheme, occupation determined by eigenvalue
 == 0-th k-point nmo = 114 (-0.20411,-0.20411,-0.20411) ==
 == 1-th k-point nmo = 114 (-0.10205,-0.10205,-0.30616) ==
 == 2-th k-point nmo = 114 (-0.00000,-0.00000,-0.40822) ==
 == 3-th k-point nmo = 114 (0.10205,0.10205,-0.51027) ==
 == 4-th k-point nmo = 114 (0.20411,0.20411,-0.61232) ==
 == 5-th k-point nmo = 114 (0.30616,0.30616,-0.71438) ==
 == 6-th k-point nmo = 114 (-0.10205,-0.30616,-0.10205) ==
 == 7-th k-point nmo = 114 (-0.00000,-0.20411,-0.20411) ==
 == 8-th k-point nmo = 114 (0.10205,-0.10205,-0.30616) ==
 == 9-th k-point nmo = 114 (0.20411,-0.00000,-0.40822) ==
 == 10-th k-point nmo = 114 (0.30616,0.10205,-0.51027) ==
 == 11-th k-point nmo = 114 (0.40822,0.20411,-0.61232) ==
 == 12-th k-point nmo = 114 (-0.00000,-0.40822,0.00000) ==
 == 13-th k-point nmo = 114 (0.10205,-0.30616,-0.10205) ==
 == 14-th k-point nmo = 114 (0.20411,-0.20411,-0.20411) ==
 == 15-th k-point nmo = 114 (0.30616,-0.10205,-0.30616) ==
 == 16-th k-point nmo = 114 (0.40822,-0.00000,-0.40822) ==
 == 17-th k-point nmo = 114 (0.51027,0.10205,-0.51027) ==
 == 18-th k-point nmo = 114 (0.10205,-0.51027,0.10205) ==
 == 19-th k-point nmo = 114 (0.20411,-0.40822,0.00000) ==
 == 20-th k-point nmo = 114 (0.30616,-0.30616,-0.10205) ==
 == 21-th k-point nmo = 114 (0.40822,-0.20411,-0.20411) ==
 == 22-th k-point nmo = 114 (0.51027,-0.10205,-0.30616) ==
 == 23-th k-point nmo = 114 (0.61232,0.00000,-0.40822) ==
 == 24-th k-point nmo = 114 (0.20411,-0.61232,0.20411) ==
 == 25-th k-point nmo = 114 (0.30616,-0.51027,0.10205) ==
 == 26-th k-point nmo = 114 (0.40822,-0.40822,0.00000) ==
 == 27-th k-point nmo = 114 (0.51027,-0.30616,-0.10205) ==
 == 28-th k-point nmo = 114 (0.61232,-0.20411,-0.20411) ==
 == 29-th k-point nmo = 114 (0.71438,-0.10205,-0.30616) ==
 == 30-th k-point nmo = 114 (0.30616,-0.71438,0.30616) ==
 == 31-th k-point nmo = 114 (0.40822,-0.61232,0.20411) ==
 == 32-th k-point nmo = 114 (0.51027,-0.51027,0.10205) ==
 == 33-th k-point nmo = 114 (0.61232,-0.40822,0.00000) ==
 == 34-th k-point nmo = 114 (0.71438,-0.30616,-0.10205) ==
 == 35-th k-point nmo = 114 (0.81643,-0.20411,-0.20411) ==
 == 36-th k-point nmo = 114 (-0.30616,-0.10205,-0.10205) ==
 == 37-th k-point nmo = 114 (-0.20411,-0.00000,-0.20411) ==
 == 38-th k-point nmo = 114 (-0.10205,0.10205,-0.30616) ==
 == 39-th k-point nmo = 114 (-0.00000,0.20411,-0.40822) ==
 == 40-th k-point nmo = 114 (0.10205,0.30616,-0.51027) ==
 == 41-th k-point nmo = 114 (0.20411,0.40822,-0.61232) ==
 == 42-th k-point nmo = 114 (-0.20411,-0.20411,-0.00000) ==
 == 43-th k-point nmo = 115 (-0.10205,-0.10205,-0.10205) ==
 == 44-th k-point nmo = 114 (-0.00000,-0.00000,-0.20411) ==
 == 45-th k-point nmo = 114 (0.10205,0.10205,-0.30616) ==
 == 46-th k-point nmo = 114 (0.20411,0.20411,-0.40822) ==
 == 47-th k-point nmo = 114 (0.30616,0.30616,-0.51027) ==
 == 48-th k-point nmo = 114 (-0.10205,-0.30616,0.10205) ==
 == 49-th k-point nmo = 114 (-0.00000,-0.20411,0.00000) ==
 == 50-th k-point nmo = 115 (0.10205,-0.10205,-0.10205) ==
 == 51-th k-point nmo = 114 (0.20411,-0.00000,-0.20411) ==
 == 52-th k-point nmo = 114 (0.30616,0.10205,-0.30616) ==
 == 53-th k-point nmo = 114 (0.40822,0.20411,-0.40822) ==
 == 54-th k-point nmo = 114 (-0.00000,-0.40822,0.20411) ==
 == 55-th k-point nmo = 114 (0.10205,-0.30616,0.10205) ==
 == 56-th k-point nmo = 114 (0.20411,-0.20411,0.00000) ==
 == 57-th k-point nmo = 114 (0.30616,-0.10205,-0.10205) ==
 == 58-th k-point nmo = 114 (0.40822,0.00000,-0.20411) ==
 == 59-th k-point nmo = 114 (0.51027,0.10205,-0.30616) ==
 == 60-th k-point nmo = 114 (0.10205,-0.51027,0.30616) ==
 == 61-th k-point nmo = 114 (0.20411,-0.40822,0.20411) ==
 == 62-th k-point nmo = 114 (0.30616,-0.30616,0.10205) ==
 == 63-th k-point nmo = 114 (0.40822,-0.20411,0.00000) ==
 == 64-th k-point nmo = 114 (0.51027,-0.10205,-0.10205) ==
 == 65-th k-point nmo = 114 (0.61232,0.00000,-0.20411) ==
 == 66-th k-point nmo = 114 (0.20411,-0.61232,0.40822) ==
 == 67-th k-point nmo = 114 (0.30616,-0.51027,0.30616) ==
 == 68-th k-point nmo = 114 (0.40822,-0.40822,0.20411) ==
 == 69-th k-point nmo = 114 (0.51027,-0.30616,0.10205) ==
 == 70-th k-point nmo = 114 (0.61232,-0.20411,0.00000) ==
 == 71-th k-point nmo = 114 (0.71438,-0.10205,-0.10205) ==
 == 72-th k-point nmo = 114 (-0.40822,-0.00000,-0.00000) ==
 == 73-th k-point nmo = 114 (-0.30616,0.10205,-0.10205) ==
 == 74-th k-point nmo = 114 (-0.20411,0.20411,-0.20411) ==
 == 75-th k-point nmo = 114 (-0.10205,0.30616,-0.30616) ==
 == 76-th k-point nmo = 114 (0.00000,0.40822,-0.40822) ==
 == 77-th k-point nmo = 114 (0.10205,0.51027,-0.51027) ==
 == 78-th k-point nmo = 114 (-0.30616,-0.10205,0.10205) ==
 == 79-th k-point nmo = 114 (-0.20411,-0.00000,-0.00000) ==
 == 80-th k-point nmo = 115 (-0.10205,0.10205,-0.10205) ==
 == 81-th k-point nmo = 114 (0.00000,0.20411,-0.20411) ==
 == 82-th k-point nmo = 114 (0.10205,0.30616,-0.30616) ==
 == 83-th k-point nmo = 114 (0.20411,0.40822,-0.40822) ==
 == 84-th k-point nmo = 114 (-0.20411,-0.20411,0.20411) ==
 == 85-th k-point nmo = 115 (-0.10205,-0.10205,0.10205) ==
 == 86-th k-point nmo = 115 (0.00000,0.00000,0.00000) ==
 == 87-th k-point nmo = 115 (0.10205,0.10205,-0.10205) ==
 == 88-th k-point nmo = 114 (0.20411,0.20411,-0.20411) ==
 == 89-th k-point nmo = 114 (0.30616,0.30616,-0.30616) ==
 == 90-th k-point nmo = 114 (-0.10205,-0.30616,0.30616) ==
 == 91-th k-point nmo = 114 (-0.00000,-0.20411,0.20411) ==
 == 92-th k-point nmo = 115 (0.10205,-0.10205,0.10205) ==
 == 93-th k-point nmo = 114 (0.20411,0.00000,0.00000) ==
 == 94-th k-point nmo = 114 (0.30616,0.10205,-0.10205) ==
 == 95-th k-point nmo = 114 (0.40822,0.20411,-0.20411) ==
 == 96-th k-point nmo = 114 (-0.00000,-0.40822,0.40822) ==
 == 97-th k-point nmo = 114 (0.10205,-0.30616,0.30616) ==
 == 98-th k-point nmo = 114 (0.20411,-0.20411,0.20411) ==
 == 99-th k-point nmo = 114 (0.30616,-0.10205,0.10205) ==
 == 100-th k-point nmo = 114 (0.40822,0.00000,0.00000) ==
 == 101-th k-point nmo = 114 (0.51027,0.10205,-0.10205) ==
 == 102-th k-point nmo = 114 (0.10205,-0.51027,0.51027) ==
 == 103-th k-point nmo = 114 (0.20411,-0.40822,0.40822) ==
 == 104-th k-point nmo = 114 (0.30616,-0.30616,0.30616) ==
 == 105-th k-point nmo = 114 (0.40822,-0.20411,0.20411) ==
 == 106-th k-point nmo = 114 (0.51027,-0.10205,0.10205) ==
 == 107-th k-point nmo = 114 (0.61232,0.00000,0.00000) ==
 == 108-th k-point nmo = 114 (-0.51027,0.10205,0.10205) ==
 == 109-th k-point nmo = 114 (-0.40822,0.20411,-0.00000) ==
 == 110-th k-point nmo = 114 (-0.30616,0.30616,-0.10205) ==
 == 111-th k-point nmo = 114 (-0.20411,0.40822,-0.20411) ==
 == 112-th k-point nmo = 114 (-0.10205,0.51027,-0.30616) ==
 == 113-th k-point nmo = 114 (0.00000,0.61232,-0.40822) ==
 == 114-th k-point nmo = 114 (-0.40822,-0.00000,0.20411) ==
 == 115-th k-point nmo = 114 (-0.30616,0.10205,0.10205) ==
 == 116-th k-point nmo = 114 (-0.20411,0.20411,-0.00000) ==
 == 117-th k-point nmo = 114 (-0.10205,0.30616,-0.10205) ==
 == 118-th k-point nmo = 114 (0.00000,0.40822,-0.20411) ==
 == 119-th k-point nmo = 114 (0.10205,0.51027,-0.30616) ==
 == 120-th k-point nmo = 114 (-0.30616,-0.10205,0.30616) ==
 == 121-th k-point nmo = 114 (-0.20411,-0.00000,0.20411) ==
 == 122-th k-point nmo = 115 (-0.10205,0.10205,0.10205) ==
 == 123-th k-point nmo = 114 (0.00000,0.20411,0.00000) ==
 == 124-th k-point nmo = 114 (0.10205,0.30616,-0.10205) ==
 == 125-th k-point nmo = 114 (0.20411,0.40822,-0.20411) ==
 == 126-th k-point nmo = 114 (-0.20411,-0.20411,0.40822) ==
 == 127-th k-point nmo = 114 (-0.10205,-0.10205,0.30616) ==
 == 128-th k-point nmo = 114 (0.00000,0.00000,0.20411) ==
 == 129-th k-point nmo = 115 (0.10205,0.10205,0.10205) ==
 == 130-th k-point nmo = 114 (0.20411,0.20411,0.00000) ==
 == 131-th k-point nmo = 114 (0.30616,0.30616,-0.10205) ==
 == 132-th k-point nmo = 114 (-0.10205,-0.30616,0.51027) ==
 == 133-th k-point nmo = 114 (-0.00000,-0.20411,0.40822) ==
 == 134-th k-point nmo = 114 (0.10205,-0.10205,0.30616) ==
 == 135-th k-point nmo = 114 (0.20411,0.00000,0.20411) ==
 == 136-th k-point nmo = 114 (0.30616,0.10205,0.10205) ==
 == 137-th k-point nmo = 114 (0.40822,0.20411,0.00000) ==
 == 138-th k-point nmo = 114 (-0.00000,-0.40822,0.61232) ==
 == 139-th k-point nmo = 114 (0.10205,-0.30616,0.51027) ==
 == 140-th k-point nmo = 114 (0.20411,-0.20411,0.40822) ==
 == 141-th k-point nmo = 114 (0.30616,-0.10205,0.30616) ==
 == 142-th k-point nmo = 114 (0.40822,0.00000,0.20411) ==
 == 143-th k-point nmo = 114 (0.51027,0.10205,0.10205) ==
 == 144-th k-point nmo = 114 (-0.61232,0.20411,0.20411) ==
 == 145-th k-point nmo = 114 (-0.51027,0.30616,0.10205) ==
 == 146-th k-point nmo = 114 (-0.40822,0.40822,-0.00000) ==
 == 147-th k-point nmo = 114 (-0.30616,0.51027,-0.10205) ==
 == 148-th k-point nmo = 114 (-0.20411,0.61232,-0.20411) ==
 == 149-th k-point nmo = 114 (-0.10205,0.71438,-0.30616) ==
 == 150-th k-point nmo = 114 (-0.51027,0.10205,0.30616) ==
 == 151-th k-point nmo = 114 (-0.40822,0.20411,0.20411) ==
 == 152-th k-point nmo = 114 (-0.30616,0.30616,0.10205) ==
 == 153-th k-point nmo = 114 (-0.20411,0.40822,-0.00000) ==
 == 154-th k-point nmo = 114 (-0.10205,0.51027,-0.10205) ==
 == 155-th k-point nmo = 114 (0.00000,0.61232,-0.20411) ==
 == 156-th k-point nmo = 114 (-0.40822,-0.00000,0.40822) ==
 == 157-th k-point nmo = 114 (-0.30616,0.10205,0.30616) ==
 == 158-th k-point nmo = 114 (-0.20411,0.20411,0.20411) ==
 == 159-th k-point nmo = 114 (-0.10205,0.30616,0.10205) ==
 == 160-th k-point nmo = 114 (0.00000,0.40822,0.00000) ==
 == 161-th k-point nmo = 114 (0.10205,0.51027,-0.10205) ==
 == 162-th k-point nmo = 114 (-0.30616,-0.10205,0.51027) ==
 == 163-th k-point nmo = 114 (-0.20411,0.00000,0.40822) ==
 == 164-th k-point nmo = 114 (-0.10205,0.10205,0.30616) ==
 == 165-th k-point nmo = 114 (0.00000,0.20411,0.20411) ==
 == 166-th k-point nmo = 114 (0.10205,0.30616,0.10205) ==
 == 167-th k-point nmo = 114 (0.20411,0.40822,0.00000) ==
 == 168-th k-point nmo = 114 (-0.20411,-0.20411,0.61232) ==
 == 169-th k-point nmo = 114 (-0.10205,-0.10205,0.51027) ==
 == 170-th k-point nmo = 114 (0.00000,0.00000,0.40822) ==
 == 171-th k-point nmo = 114 (0.10205,0.10205,0.30616) ==
 == 172-th k-point nmo = 114 (0.20411,0.20411,0.20411) ==
 == 173-th k-point nmo = 114 (0.30616,0.30616,0.10205) ==
 == 174-th k-point nmo = 114 (-0.10205,-0.30616,0.71438) ==
 == 175-th k-point nmo = 114 (0.00000,-0.20411,0.61232) ==
 == 176-th k-point nmo = 114 (0.10205,-0.10205,0.51027) ==
 == 177-th k-point nmo = 114 (0.20411,0.00000,0.40822) ==
 == 178-th k-point nmo = 114 (0.30616,0.10205,0.30616) ==
 == 179-th k-point nmo = 114 (0.40822,0.20411,0.20411) ==
 == 180-th k-point nmo = 114 (-0.71438,0.30616,0.30616) ==
 == 181-th k-point nmo = 114 (-0.61232,0.40822,0.20411) ==
 == 182-th k-point nmo = 114 (-0.51027,0.51027,0.10205) ==
 == 183-th k-point nmo = 114 (-0.40822,0.61232,-0.00000) ==
 == 184-th k-point nmo = 114 (-0.30616,0.71438,-0.10205) ==
 == 185-th k-point nmo = 114 (-0.20411,0.81643,-0.20411) ==
 == 186-th k-point nmo = 114 (-0.61232,0.20411,0.40822) ==
 == 187-th k-point nmo = 114 (-0.51027,0.30616,0.30616) ==
 == 188-th k-point nmo = 114 (-0.40822,0.40822,0.20411) ==
 == 189-th k-point nmo = 114 (-0.30616,0.51027,0.10205) ==
 == 190-th k-point nmo = 114 (-0.20411,0.61232,0.00000) ==
 == 191-th k-point nmo = 114 (-0.10205,0.71438,-0.10205) ==
 == 192-th k-point nmo = 114 (-0.51027,0.10205,0.51027) ==
 == 193-th k-point nmo = 114 (-0.40822,0.20411,0.40822) ==
 == 194-th k-point nmo = 114 (-0.30616,0.30616,0.30616) ==
 == 195-th k-point nmo = 114 (-0.20411,0.40822,0.20411) ==
 == 196-th k-point nmo = 114 (-0.10205,0.51027,0.10205) ==
 == 197-th k-point nmo = 114 (0.00000,0.61232,0.00000) ==
 == 198-th k-point nmo = 114 (-0.40822,0.00000,0.61232) ==
 == 199-th k-point nmo = 114 (-0.30616,0.10205,0.51027) ==
 == 200-th k-point nmo = 114 (-0.20411,0.20411,0.40822) ==
 == 201-th k-point nmo = 114 (-0.10205,0.30616,0.30616) ==
 == 202-th k-point nmo = 114 (0.00000,0.40822,0.20411) ==
 == 203-th k-point nmo = 114 (0.10205,0.51027,0.10205) ==
 == 204-th k-point nmo = 114 (-0.30616,-0.10205,0.71438) ==
 == 205-th k-point nmo = 114 (-0.20411,0.00000,0.61232) ==
 == 206-th k-point nmo = 114 (-0.10205,0.10205,0.51027) ==
 == 207-th k-point nmo = 114 (0.00000,0.20411,0.40822) ==
 == 208-th k-point nmo = 114 (0.10205,0.30616,0.30616) ==
 == 209-th k-point nmo = 114 (0.20411,0.40822,0.20411) ==
 == 210-th k-point nmo = 114 (-0.20411,-0.20411,0.81643) ==
 == 211-th k-point nmo = 114 (-0.10205,-0.10205,0.71438) ==
 == 212-th k-point nmo = 114 (0.00000,0.00000,0.61232) ==
 == 213-th k-point nmo = 114 (0.10205,0.10205,0.51027) ==
 == 214-th k-point nmo = 114 (0.20411,0.20411,0.40822) ==
 == 215-th k-point nmo = 114 (0.30616,0.30616,0.30616) ==

 Generate autoSAD guess
backing up fragment data
Atom # 0: si, charge: 0, multiplicity: 3.000000
writing autosad to fragment context
Settings for isolated fragments: 
  frgm_gamma: TRUE
  frgm_center: FALSE

    Running SCF for isolated atom #0
    Fragment Input file: /n/netscratch/joonholee_lab/Lab/hieudinh//si_2_ccpvqz_omega_0.3_666.scratch20250909031004/autosad_frgmt_0/frgmt_input.in
    Fragment Output file: /n/netscratch/joonholee_lab/Lab/hieudinh//si_2_ccpvqz_omega_0.3_666.scratch20250909031004/autosad_frgmt_0/frgmt_job.out
    Fragment job begins at Tue Sep  9 03:10:12 2025

 Integrated density by DFT XC:
   Numerical integral  =    13.999999643759
   Relative error      =     0.0000025446 %
Final energy components:
 DFT Correlation            Energy =  -0.48370207231611
 DFT Exchange               Energy = -20.13940840112214
 Kinetic (alpha)            Energy = 145.05483363964748
 Kinetic (beta)             Energy = 143.11842945473299
 Nuclear Attraction (alpha) Energy = -351.06191315317852
 Nuclear Attraction (beta)  Energy = -337.54515075030469
 Nuclear Repulsion          Energy =   0.00000000000000
 SEOQF                      Energy =  -0.00000000010144
 Total Coulomb              Energy = 131.82731983024431
----------------------------------------------
    SCF Energy: -289.2295914524
   Total fragment job time:  0.64 s.
restoring fragment data

 ------------------------------------------------------------------------
 Allocate 149872608 B from available memory: 1048527613408 B
 Time for generating SCF guess: 0.71 s

 Allocate 97424 B from available memory: 1048377740800 B
 Selected algorithms for each term:
  kpts_kinetic -> @0x151adae5a680
  kpts_nn -> @0x151adae5a800
  kpts_rij_bigmem -> @0x151adae5a3e0
  kpts_vnuc_df -> @0x151adae5a380
  kpts_xc -> @0x151adae5a2c0
 Time for computing kinetic matrix is 3.65 s
Start calculating Vnuc CC type!
 Time for computing nuclear attraction matrix is 5.11 s
Compute (P|Q) and use solve on the fly!
Maximum distance between P and Q is 36.52149537122924
Number of images for (P|Qn) is 1633
 Time for computing 2e2c SR integral is 0.17 s
Maximum dynamic memory per thread for 2e3c SR integrals: 0.200 GiB
Batch size for basis function pair is 7291 out of 7291
 === bvk cell = 0 has 100.000 % of the basis function pairs === 
 === bvk cell = 1 has 93.430 % of the basis function pairs === 
 === bvk cell = 2 has 44.644 % of the basis function pairs === 
 === bvk cell = 3 has 13.894 % of the basis function pairs === 
 === bvk cell = 4 has 39.240 % of the basis function pairs === 
 === bvk cell = 5 has 90.111 % of the basis function pairs === 
 === bvk cell = 6 has 93.430 % of the basis function pairs === 
 === bvk cell = 7 has 60.458 % of the basis function pairs === 
 === bvk cell = 8 has 19.750 % of the basis function pairs === 
 === bvk cell = 9 has 16.157 % of the basis function pairs === 
 === bvk cell = 10 has 51.543 % of the basis function pairs === 
 === bvk cell = 11 has 96.914 % of the basis function pairs === 
 === bvk cell = 12 has 44.644 % of the basis function pairs === 
 === bvk cell = 13 has 19.750 % of the basis function pairs === 
 === bvk cell = 14 has 5.788 % of the basis function pairs === 
 === bvk cell = 15 has 14.923 % of the basis function pairs === 
 === bvk cell = 16 has 39.226 % of the basis function pairs === 
 === bvk cell = 17 has 54.629 % of the basis function pairs === 
 === bvk cell = 18 has 13.894 % of the basis function pairs === 
 === bvk cell = 19 has 16.157 % of the basis function pairs === 
 === bvk cell = 20 has 14.923 % of the basis function pairs === 
 === bvk cell = 21 has 10.890 % of the basis function pairs === 
 === bvk cell = 22 has 15.403 % of the basis function pairs === 
 === bvk cell = 23 has 17.432 % of the basis function pairs === 
 === bvk cell = 24 has 39.240 % of the basis function pairs === 
 === bvk cell = 25 has 51.543 % of the basis function pairs === 
 === bvk cell = 26 has 39.226 % of the basis function pairs === 
 === bvk cell = 27 has 15.403 % of the basis function pairs === 
 === bvk cell = 28 has 5.184 % of the basis function pairs === 
 === bvk cell = 29 has 16.349 % of the basis function pairs === 
 === bvk cell = 30 has 90.111 % of the basis function pairs === 
 === bvk cell = 31 has 96.914 % of the basis function pairs === 
 === bvk cell = 32 has 54.629 % of the basis function pairs === 
 === bvk cell = 33 has 17.432 % of the basis function pairs === 
 === bvk cell = 34 has 16.349 % of the basis function pairs === 
 === bvk cell = 35 has 53.038 % of the basis function pairs === 
 === bvk cell = 36 has 93.430 % of the basis function pairs === 
 === bvk cell = 37 has 60.458 % of the basis function pairs === 
 === bvk cell = 38 has 19.750 % of the basis function pairs === 
 === bvk cell = 39 has 16.157 % of the basis function pairs === 
 === bvk cell = 40 has 51.543 % of the basis function pairs === 
 === bvk cell = 41 has 96.914 % of the basis function pairs === 
 === bvk cell = 42 has 60.458 % of the basis function pairs === 
 === bvk cell = 43 has 27.212 % of the basis function pairs === 
 === bvk cell = 44 has 7.694 % of the basis function pairs === 
 === bvk cell = 45 has 19.051 % of the basis function pairs === 
 === bvk cell = 46 has 52.462 % of the basis function pairs === 
 === bvk cell = 47 has 79.756 % of the basis function pairs === 
 === bvk cell = 48 has 19.750 % of the basis function pairs === 
 === bvk cell = 49 has 7.694 % of the basis function pairs === 
 === bvk cell = 50 has 2.551 % of the basis function pairs === 
 === bvk cell = 51 has 15.019 % of the basis function pairs === 
 === bvk cell = 52 has 28.940 % of the basis function pairs === 
 === bvk cell = 53 has 32.972 % of the basis function pairs === 
 === bvk cell = 54 has 16.157 % of the basis function pairs === 
 === bvk cell = 55 has 19.051 % of the basis function pairs === 
 === bvk cell = 56 has 15.019 % of the basis function pairs === 
 === bvk cell = 57 has 8.723 % of the basis function pairs === 
 === bvk cell = 58 has 10.300 % of the basis function pairs === 
 === bvk cell = 59 has 12.275 % of the basis function pairs === 
 === bvk cell = 60 has 51.543 % of the basis function pairs === 
 === bvk cell = 61 has 52.462 % of the basis function pairs === 
 === bvk cell = 62 has 28.940 % of the basis function pairs === 
 === bvk cell = 63 has 10.300 % of the basis function pairs === 
 === bvk cell = 64 has 9.244 % of the basis function pairs === 
 === bvk cell = 65 has 28.254 % of the basis function pairs === 
 === bvk cell = 66 has 96.914 % of the basis function pairs === 
 === bvk cell = 67 has 79.756 % of the basis function pairs === 
 === bvk cell = 68 has 32.972 % of the basis function pairs === 
 === bvk cell = 69 has 12.275 % of the basis function pairs === 
 === bvk cell = 70 has 28.254 % of the basis function pairs === 
 === bvk cell = 71 has 76.231 % of the basis function pairs === 
 === bvk cell = 72 has 44.644 % of the basis function pairs === 
 === bvk cell = 73 has 19.750 % of the basis function pairs === 
 === bvk cell = 74 has 5.788 % of the basis function pairs === 
 === bvk cell = 75 has 14.923 % of the basis function pairs === 
 === bvk cell = 76 has 39.226 % of the basis function pairs === 
 === bvk cell = 77 has 54.629 % of the basis function pairs === 
 === bvk cell = 78 has 19.750 % of the basis function pairs === 
 === bvk cell = 79 has 7.694 % of the basis function pairs === 
 === bvk cell = 80 has 2.551 % of the basis function pairs === 
 === bvk cell = 81 has 15.019 % of the basis function pairs === 
 === bvk cell = 82 has 28.940 % of the basis function pairs === 
 === bvk cell = 83 has 32.972 % of the basis function pairs === 
 === bvk cell = 84 has 5.788 % of the basis function pairs === 
 === bvk cell = 85 has 2.551 % of the basis function pairs === 
 === bvk cell = 86 has 1.728 % of the basis function pairs === 
 === bvk cell = 87 has 10.259 % of the basis function pairs === 
 === bvk cell = 88 has 13.043 % of the basis function pairs === 
 === bvk cell = 89 has 10.849 % of the basis function pairs === 
 === bvk cell = 90 has 14.923 % of the basis function pairs === 
 === bvk cell = 91 has 15.019 % of the basis function pairs === 
 === bvk cell = 92 has 10.259 % of the basis function pairs === 
 === bvk cell = 93 has 1.138 % of the basis function pairs === 
 === bvk cell = 94 has 2.880 % of the basis function pairs === 
 === bvk cell = 95 has 9.080 % of the basis function pairs === 
 === bvk cell = 96 has 39.226 % of the basis function pairs === 
 === bvk cell = 97 has 28.940 % of the basis function pairs === 
 === bvk cell = 98 has 13.043 % of the basis function pairs === 
 === bvk cell = 99 has 2.880 % of the basis function pairs === 
 === bvk cell = 100 has 11.960 % of the basis function pairs === 
 === bvk cell = 101 has 26.622 % of the basis function pairs === 
 === bvk cell = 102 has 54.629 % of the basis function pairs === 
 === bvk cell = 103 has 32.972 % of the basis function pairs === 
 === bvk cell = 104 has 10.849 % of the basis function pairs === 
 === bvk cell = 105 has 9.080 % of the basis function pairs === 
 === bvk cell = 106 has 26.622 % of the basis function pairs === 
 === bvk cell = 107 has 52.462 % of the basis function pairs === 
 === bvk cell = 108 has 13.894 % of the basis function pairs === 
 === bvk cell = 109 has 16.157 % of the basis function pairs === 
 === bvk cell = 110 has 14.923 % of the basis function pairs === 
 === bvk cell = 111 has 10.890 % of the basis function pairs === 
 === bvk cell = 112 has 15.403 % of the basis function pairs === 
 === bvk cell = 113 has 17.432 % of the basis function pairs === 
 === bvk cell = 114 has 16.157 % of the basis function pairs === 
 === bvk cell = 115 has 19.051 % of the basis function pairs === 
 === bvk cell = 116 has 15.019 % of the basis function pairs === 
 === bvk cell = 117 has 8.723 % of the basis function pairs === 
 === bvk cell = 118 has 10.300 % of the basis function pairs === 
 === bvk cell = 119 has 12.275 % of the basis function pairs === 
 === bvk cell = 120 has 14.923 % of the basis function pairs === 
 === bvk cell = 121 has 15.019 % of the basis function pairs === 
 === bvk cell = 122 has 10.259 % of the basis function pairs === 
 === bvk cell = 123 has 1.138 % of the basis function pairs === 
 === bvk cell = 124 has 2.880 % of the basis function pairs === 
 === bvk cell = 125 has 9.080 % of the basis function pairs === 
 === bvk cell = 126 has 10.890 % of the basis function pairs === 
 === bvk cell = 127 has 8.723 % of the basis function pairs === 
 === bvk cell = 128 has 1.138 % of the basis function pairs === 
 === bvk cell = 129 has 0.206 % of the basis function pairs === 
 === bvk cell = 130 has 0.878 % of the basis function pairs === 
 === bvk cell = 131 has 7.955 % of the basis function pairs === 
 === bvk cell = 132 has 15.403 % of the basis function pairs === 
 === bvk cell = 133 has 10.300 % of the basis function pairs === 
 === bvk cell = 134 has 2.880 % of the basis function pairs === 
 === bvk cell = 135 has 0.878 % of the basis function pairs === 
 === bvk cell = 136 has 9.656 % of the basis function pairs === 
 === bvk cell = 137 has 15.019 % of the basis function pairs === 
 === bvk cell = 138 has 17.432 % of the basis function pairs === 
 === bvk cell = 139 has 12.275 % of the basis function pairs === 
 === bvk cell = 140 has 9.080 % of the basis function pairs === 
 === bvk cell = 141 has 7.955 % of the basis function pairs === 
 === bvk cell = 142 has 15.019 % of the basis function pairs === 
 === bvk cell = 143 has 19.874 % of the basis function pairs === 
 === bvk cell = 144 has 39.240 % of the basis function pairs === 
 === bvk cell = 145 has 51.543 % of the basis function pairs === 
 === bvk cell = 146 has 39.226 % of the basis function pairs === 
 === bvk cell = 147 has 15.403 % of the basis function pairs === 
 === bvk cell = 148 has 5.184 % of the basis function pairs === 
 === bvk cell = 149 has 16.349 % of the basis function pairs === 
 === bvk cell = 150 has 51.543 % of the basis function pairs === 
 === bvk cell = 151 has 52.462 % of the basis function pairs === 
 === bvk cell = 152 has 28.940 % of the basis function pairs === 
 === bvk cell = 153 has 10.300 % of the basis function pairs === 
 === bvk cell = 154 has 9.244 % of the basis function pairs === 
 === bvk cell = 155 has 28.254 % of the basis function pairs === 
 === bvk cell = 156 has 39.226 % of the basis function pairs === 
 === bvk cell = 157 has 28.940 % of the basis function pairs === 
 === bvk cell = 158 has 13.043 % of the basis function pairs === 
 === bvk cell = 159 has 2.880 % of the basis function pairs === 
 === bvk cell = 160 has 11.960 % of the basis function pairs === 
 === bvk cell = 161 has 26.622 % of the basis function pairs === 
 === bvk cell = 162 has 15.403 % of the basis function pairs === 
 === bvk cell = 163 has 10.300 % of the basis function pairs === 
 === bvk cell = 164 has 2.880 % of the basis function pairs === 
 === bvk cell = 165 has 0.878 % of the basis function pairs === 
 === bvk cell = 166 has 9.656 % of the basis function pairs === 
 === bvk cell = 167 has 15.019 % of the basis function pairs === 
 === bvk cell = 168 has 5.184 % of the basis function pairs === 
 === bvk cell = 169 has 9.244 % of the basis function pairs === 
 === bvk cell = 170 has 11.960 % of the basis function pairs === 
 === bvk cell = 171 has 9.656 % of the basis function pairs === 
 === bvk cell = 172 has 1.728 % of the basis function pairs === 
 === bvk cell = 173 has 3.072 % of the basis function pairs === 
 === bvk cell = 174 has 16.349 % of the basis function pairs === 
 === bvk cell = 175 has 28.254 % of the basis function pairs === 
 === bvk cell = 176 has 26.622 % of the basis function pairs === 
 === bvk cell = 177 has 15.019 % of the basis function pairs === 
 === bvk cell = 178 has 3.072 % of the basis function pairs === 
 === bvk cell = 179 has 7.242 % of the basis function pairs === 
 === bvk cell = 180 has 90.111 % of the basis function pairs === 
 === bvk cell = 181 has 96.914 % of the basis function pairs === 
 === bvk cell = 182 has 54.629 % of the basis function pairs === 
 === bvk cell = 183 has 17.432 % of the basis function pairs === 
 === bvk cell = 184 has 16.349 % of the basis function pairs === 
 === bvk cell = 185 has 53.038 % of the basis function pairs === 
 === bvk cell = 186 has 96.914 % of the basis function pairs === 
 === bvk cell = 187 has 79.756 % of the basis function pairs === 
 === bvk cell = 188 has 32.972 % of the basis function pairs === 
 === bvk cell = 189 has 12.275 % of the basis function pairs === 
 === bvk cell = 190 has 28.254 % of the basis function pairs === 
 === bvk cell = 191 has 76.231 % of the basis function pairs === 
 === bvk cell = 192 has 54.629 % of the basis function pairs === 
 === bvk cell = 193 has 32.972 % of the basis function pairs === 
 === bvk cell = 194 has 10.849 % of the basis function pairs === 
 === bvk cell = 195 has 9.080 % of the basis function pairs === 
 === bvk cell = 196 has 26.622 % of the basis function pairs === 
 === bvk cell = 197 has 52.462 % of the basis function pairs === 
 === bvk cell = 198 has 17.432 % of the basis function pairs === 
 === bvk cell = 199 has 12.275 % of the basis function pairs === 
 === bvk cell = 200 has 9.080 % of the basis function pairs === 
 === bvk cell = 201 has 7.955 % of the basis function pairs === 
 === bvk cell = 202 has 15.019 % of the basis function pairs === 
 === bvk cell = 203 has 19.874 % of the basis function pairs === 
 === bvk cell = 204 has 16.349 % of the basis function pairs === 
 === bvk cell = 205 has 28.254 % of the basis function pairs === 
 === bvk cell = 206 has 26.622 % of the basis function pairs === 
 === bvk cell = 207 has 15.019 % of the basis function pairs === 
 === bvk cell = 208 has 3.072 % of the basis function pairs === 
 === bvk cell = 209 has 7.242 % of the basis function pairs === 
 === bvk cell = 210 has 53.038 % of the basis function pairs === 
 === bvk cell = 211 has 76.231 % of the basis function pairs === 
 === bvk cell = 212 has 52.462 % of the basis function pairs === 
 === bvk cell = 213 has 19.874 % of the basis function pairs === 
 === bvk cell = 214 has 7.242 % of the basis function pairs === 
 === bvk cell = 215 has 22.041 % of the basis function pairs === 
Static memory requirement for 2e3c SR integrals: 0.926 GB
There are 1 munu batches for computing 2e3c SR integrals with latsum
There are 5 Q batches for computing 2e3c SR integrals with latsum
 Time for computing 2e3c SR integral (CC) is 11.65 s
 Time for RI-J this SCF iteration is 12.32 s
 Time for RI-J this SCF iteration is 0.54 s
 ----------------------------------------------
 Guess energy: -578.7876727864
 ----------------------------------------------
 Guess energy components:
 DFT Correlation    Energy =  -1.09266480735547
 DFT Exchange       Energy = -40.56289119001405
 Kinetic            Energy = 577.40495292608614
 Nuclear Attraction Energy = -1186.11498392426620
 Nuclear Repulsion  Energy = -102.89365928466421
 Total Coulomb      Energy = 174.47157349384045
 ----------------------------------------------
  Cycle       Energy         DIIS error
 ----------------------------------------------
 Time for RI-J this SCF iteration is 0.70 s
    1    -578.7927654022      1.04e-03  
 Energy components after cycle 1:
 DFT Correlation    Energy =  -1.09702883617071
 DFT Exchange       Energy = -40.47451368290685
 Kinetic            Energy = 576.58435478358854
 Nuclear Attraction Energy = -1184.33908491296620
 Nuclear Repulsion  Energy = -102.89365928466421
 Total Coulomb      Energy = 173.42716653088254
    2    -578.7927654022      5.62e-04  
 Energy components after cycle 2:
 DFT Correlation    Energy =  -1.09702883617071
 DFT Exchange       Energy = -40.47451368290685
 Kinetic            Energy = 576.58435478358854
 Nuclear Attraction Energy = -1184.33908491296620
 Nuclear Repulsion  Energy = -102.89365928466421
 Total Coulomb      Energy = 173.42716653088254
 ----------------------------------------------
  Cycle       Energy        RMS Gradient
 ----------------------------------------------
 Time for RI-J this SCF iteration is 0.51 s
    1    -578.7938552470      2.12e-02   Descent step
 Energy components after cycle 1:
 DFT Correlation    Energy =  -1.09637274439419
 DFT Exchange       Energy = -40.49681418466707
 Kinetic            Energy = 576.82426055309872
 Nuclear Attraction Energy = -1184.79618114308414
 Nuclear Repulsion  Energy = -102.89365928466421
 Total Coulomb      Energy = 173.66491155670491
 Time for RI-J this SCF iteration is 0.46 s
    2    -578.7938876786      4.79e-03   Normal BFGS step
 Energy components after cycle 2:
 DFT Correlation    Energy =  -1.09596169887864
 DFT Exchange       Energy = -40.50770454778452
 Kinetic            Energy = 576.93411656255853
 Nuclear Attraction Energy = -1185.01639849559228
 Nuclear Repulsion  Energy = -102.89365928466421
 Total Coulomb      Energy = 173.78571978576610
 Time for RI-J this SCF iteration is 0.49 s
    3    -578.7939132847      3.73e-03   Normal BFGS step
 Energy components after cycle 3:
 DFT Correlation    Energy =  -1.09606559865376
 DFT Exchange       Energy = -40.50381731176466
 Kinetic            Energy = 576.89189580098946
 Nuclear Attraction Energy = -1184.93741300458737
 Nuclear Repulsion  Energy = -102.89365928466421
 Total Coulomb      Energy = 173.74514611402844
 Time for RI-J this SCF iteration is 0.50 s
    4    -578.7939134268      2.67e-04   Normal BFGS step
 Energy components after cycle 4:
 DFT Correlation    Energy =  -1.09608682393924
 DFT Exchange       Energy = -40.50370449536399
 Kinetic            Energy = 576.89207680006359
 Nuclear Attraction Energy = -1184.93558791010923
 Nuclear Repulsion  Energy = -102.89365928466421
 Total Coulomb      Energy = 173.74304828718476
 Time for RI-J this SCF iteration is 0.47 s
    5    -578.7939134653      1.30e-04   Normal BFGS step
 Energy components after cycle 5:
 DFT Correlation    Energy =  -1.09608128243483
 DFT Exchange       Energy = -40.50380633445258
 Kinetic            Energy = 576.89296987071759
 Nuclear Attraction Energy = -1184.93759841448968
 Nuclear Repulsion  Energy = -102.89365928466421
 Total Coulomb      Energy = 173.74426198002260
 Time for RI-J this SCF iteration is 0.47 s
    6    -578.7939134656      1.02e-05   Normal BFGS step
 Energy components after cycle 6:
 DFT Correlation    Energy =  -1.09608056992244
 DFT Exchange       Energy = -40.50378536897907
 Kinetic            Energy = 576.89264421115547
 Nuclear Attraction Energy = -1184.93714166993050
 Nuclear Repulsion  Energy = -102.89365928466421
 Total Coulomb      Energy = 173.74410921675255
 Time for RI-J this SCF iteration is 0.41 s
    7    -578.7939134656      3.60e-06   Normal BFGS step
 Energy components after cycle 7:
 DFT Correlation    Energy =  -1.09608079569864
 DFT Exchange       Energy = -40.50378940477290
 Kinetic            Energy = 576.89271392621583
 Nuclear Attraction Energy = -1184.93723242964256
 Nuclear Repulsion  Energy = -102.89365928466421
 Total Coulomb      Energy = 173.74413452293282
    7    -578.7939134656      3.60e-06  Convergence criterion met
 ----------------------------------------------
 Final energy components:
 DFT Correlation    Energy =  -1.09608079569864
 DFT Exchange       Energy = -40.50378940477290
 Kinetic            Energy = 576.89271392621583
 Nuclear Attraction Energy = -1184.93723242964256
 Nuclear Repulsion  Energy = -102.89365928466421
 Total Coulomb      Energy = 173.74413452293282
 ----------------------------------------------
 Final energy is -578.7939134656

 SCF time:   CPU 3814.79s  wall 222.00s 
 Total wall time for computing Kinetic: 0.05 s (10)
 Total wall time for computing RIJ-BIGMEM: 16.87 s (10)
 Total wall time for computing RSDF Vnuc: 0.17 s (10)
 Total wall time for computing DFT XC: 172.79 s (10)
 ---------------------------------------------------------------------------
                        Orbital Energies (a.u.)
 ---------------------------------------------------------------------------
 == 0-th k-point (-0.20411,-0.20411,-0.20411) occupation: 14==
 -65.00520 -65.00518 -4.62743 -4.62724 -3.03921 -3.03921 -3.03913 -3.03864 -3.03855 -3.03855
 -0.11319 0.07926 0.23826 0.23826 0.34186 0.40598 0.40598 0.56396 0.57420 0.57420
 0.61106 0.77520 0.82191 0.82191 0.90265 0.93104 0.93104 1.09537 1.18427 1.18427
 1.21792 1.27556 1.27556 1.37330 1.37330 1.39505 1.41374 1.50576 1.50576 1.54858
 1.54858 1.64241 1.68250 1.73023 1.78369 1.78369 1.86559 1.86559 1.90027 1.93006
 1.97189 1.97189 2.07773 2.14304 2.14304 2.25914 2.25914 2.28177 2.28177 2.31199
 2.50088 2.50088 2.53351 2.59423 2.66022 2.67562 2.67562 2.72723 2.76582 2.76582
 2.85729 2.91576 2.91576 2.92493 2.96776 2.96776 3.07445 3.08724 3.08724 3.15457
 3.15457 3.23168 3.32413 3.34652 3.34652 3.47341 3.47341 3.51797 3.51797 3.52083
 3.53233 3.67237 3.67237 3.67818 3.79820 3.83053 3.83053 3.83581 3.90243 3.90243
 4.03377 4.03377 4.12587 4.52392 4.53131 4.53131 7.75878 7.91828 7.91828 9.42580
 9.42580 10.10166 11.90459 14.79216
 == 1-th k-point (-0.10205,-0.10205,-0.30616) occupation: 14==
 -65.00519 -65.00519 -4.62743 -4.62724 -3.03923 -3.03922 -3.03910 -3.03866 -3.03856 -3.03853
 -0.11606 0.11260 0.20191 0.21069 0.34857 0.42648 0.44379 0.46410 0.61395 0.61549
 0.65895 0.74930 0.78902 0.84691 0.86730 0.90527 1.01660 1.04572 1.08867 1.15684
 1.23307 1.26948 1.29935 1.37821 1.38359 1.41207 1.47251 1.48717 1.51452 1.54174
 1.61072 1.64355 1.68556 1.70572 1.75425 1.79594 1.82846 1.88457 1.91022 1.91526
 1.97525 2.01479 2.02632 2.06304 2.12724 2.12759 2.24506 2.29144 2.31043 2.35189
 2.49979 2.51454 2.53781 2.59104 2.60812 2.64522 2.66054 2.72396 2.75411 2.79022
 2.80278 2.86309 2.88268 2.92713 3.02485 3.05336 3.10024 3.13977 3.14057 3.19935
 3.23099 3.26420 3.26470 3.33675 3.36653 3.40939 3.43183 3.45311 3.48937 3.52787
 3.53494 3.54710 3.60757 3.69374 3.76153 3.79135 3.80546 3.87979 3.93805 3.98337
 4.00070 4.06660 4.22987 4.43160 4.56322 4.57317 7.71690 7.83774 8.08950 9.66576
 9.70366 9.99130 12.76016 13.84864
 == 2-th k-point (-0.00000,-0.00000,-0.40822) occupation: 14==
 -65.00519 -65.00519 -4.62740 -4.62726 -3.03924 -3.03924 -3.03903 -3.03871 -3.03855 -3.03855
 -0.09383 0.09186 0.18582 0.18582 0.30284 0.35006 0.54499 0.54499 0.63922 0.64604
 0.75460 0.78062 0.78062 0.83522 0.87813 0.87813 0.88035 0.98675 1.13758 1.19502
 1.22301 1.22301 1.27491 1.31040 1.32600 1.34883 1.34883 1.60173 1.60527 1.60527
 1.62053 1.64891 1.71258 1.71258 1.76791 1.76931 1.76931 1.83818 1.88721 1.90785
 1.98418 1.98418 1.99480 2.15126 2.16834 2.16834 2.19086 2.35896 2.35896 2.37252
 2.41294 2.48795 2.54896 2.54896 2.63279 2.64796 2.64896 2.75254 2.75254 2.79716
 2.85501 2.86745 2.90799 2.90799 2.93346 3.01125 3.06498 3.06498 3.14282 3.24073
 3.24073 3.25140 3.25296 3.37451 3.37696 3.37696 3.43961 3.44479 3.46936 3.46936
 3.55108 3.56509 3.56509 3.68321 3.72316 3.79408 3.86832 3.86832 3.94166 4.14279
 4.16455 4.16455 4.24544 4.38058 4.61339 4.61339 8.03881 8.04212 8.04212 9.05403
 10.86527 10.86527 13.02377 13.34165
 == 3-th k-point (0.10205,0.10205,-0.51027) occupation: 14==
 -65.00519 -65.00519 -4.62737 -4.62730 -3.03926 -3.03925 -3.03896 -3.03878 -3.03852 -3.03851
 -0.05097 0.03463 0.14108 0.18075 0.31549 0.37663 0.55240 0.55275 0.66932 0.67574
 0.73643 0.75176 0.81765 0.86241 0.87238 0.96289 0.97500 0.99871 1.04083 1.12259
 1.13594 1.15666 1.19095 1.27003 1.36543 1.38168 1.46111 1.48571 1.49770 1.56727
 1.62635 1.64058 1.68505 1.71453 1.75858 1.80102 1.82890 1.86651 1.91224 1.95088
 1.98429 2.06867 2.12058 2.15040 2.19631 2.19998 2.22870 2.34296 2.36260 2.37890
 2.44705 2.44988 2.51728 2.52340 2.55619 2.63158 2.67098 2.77111 2.79784 2.81266
 2.83010 2.90608 2.91430 2.95297 2.95391 3.00606 3.02544 3.05146 3.08301 3.14193
 3.22420 3.23269 3.24396 3.31938 3.32502 3.34680 3.36532 3.44350 3.48910 3.50750
 3.56343 3.61630 3.64240 3.66652 3.71387 3.75197 3.85772 3.89771 3.96760 4.04968
 4.13376 4.24898 4.28852 4.32141 4.58935 4.60658 8.11078 8.39751 8.47745 8.70716
 9.77687 10.12367 13.28615 13.63778
 == 4-th k-point (0.20411,0.20411,-0.61232) occupation: 14==
 -65.00520 -65.00519 -4.62737 -4.62730 -3.03927 -3.03924 -3.03898 -3.03877 -3.03851 -3.03848
 -0.04364 0.02699 0.11226 0.19712 0.33416 0.49144 0.51540 0.53783 0.54938 0.56308
 0.80616 0.82610 0.85768 0.86589 0.89475 0.93321 0.96222 1.01726 1.10640 1.11305
 1.12835 1.16378 1.26202 1.27689 1.29818 1.36650 1.37197 1.38103 1.58513 1.59405
 1.59838 1.65622 1.66262 1.67926 1.72775 1.75226 1.83858 1.91462 1.92441 2.05785
 2.07155 2.07738 2.15735 2.19043 2.22224 2.23163 2.23731 2.27175 2.30871 2.39043
 2.45372 2.46165 2.46374 2.49652 2.53273 2.57868 2.61858 2.76675 2.76748 2.84192
 2.88319 2.91290 2.94855 2.95699 3.01192 3.03531 3.04487 3.04557 3.11581 3.19938
 3.20679 3.27168 3.28848 3.32474 3.34114 3.35011 3.40224 3.40540 3.40734 3.45305
 3.47389 3.50049 3.65571 3.66424 3.75382 3.77400 3.80621 3.87457 3.90720 3.93138
 4.01011 4.20285 4.25991 4.26192 4.54626 4.58440 8.05416 8.44064 8.52575 8.81584
 8.89855 9.71446 13.27687 14.26802
 == 5-th k-point (0.30616,0.30616,-0.71438) occupation: 14==
 -65.00520 -65.00519 -4.62740 -4.62726 -3.03924 -3.03923 -3.03907 -3.03869 -3.03853 -3.03851
 -0.08633 0.05467 0.16294 0.22726 0.36701 0.42862 0.43270 0.54498 0.54964 0.62323
 0.69975 0.75153 0.82573 0.85166 0.88248 0.94180 1.02206 1.09883 1.10725 1.13209
 1.19637 1.21237 1.29967 1.30848 1.33485 1.34235 1.37822 1.49689 1.52853 1.54734
 1.56580 1.63966 1.67909 1.69664 1.73117 1.79079 1.82625 1.88011 1.89578 1.98794
 2.07197 2.08682 2.09063 2.16183 2.18262 2.20356 2.28065 2.35538 2.37031 2.38489
 2.44075 2.46274 2.49615 2.55173 2.58776 2.58983 2.67606 2.77015 2.77389 2.81209
 2.81918 2.89439 2.90026 2.93133 2.94121 2.95942 3.03921 3.09910 3.13888 3.14626
 3.16533 3.25244 3.31188 3.33219 3.36712 3.42032 3.43896 3.43985 3.47177 3.50931
 3.58089 3.58469 3.63028 3.66491 3.71985 3.72139 3.78683 3.90193 3.93134 3.94254
 4.08148 4.10944 4.24723 4.34596 4.50441 4.57867 7.89575 8.24186 8.32443 9.13320
 9.31827 9.91445 12.89396 14.44757
 == 6-th k-point (-0.10205,-0.30616,-0.10205) occupation: 14==
 -65.00519 -65.00519 -4.62743 -4.62724 -3.03923 -3.03922 -3.03910 -3.03866 -3.03856 -3.03853
 -0.11606 0.11260 0.20191 0.21069 0.34857 0.42648 0.44379 0.46410 0.61395 0.61549
 0.65895 0.74930 0.78902 0.84691 0.86730 0.90527 1.01660 1.04572 1.08867 1.15684
 1.23307 1.26948 1.29935 1.37821 1.38359 1.41207 1.47251 1.48717 1.51452 1.54174
 1.61072 1.64355 1.68556 1.70572 1.75425 1.79594 1.82846 1.88457 1.91022 1.91526
 1.97525 2.01479 2.02632 2.06304 2.12724 2.12759 2.24506 2.29144 2.31043 2.35189
 2.49979 2.51454 2.53781 2.59104 2.60812 2.64522 2.66054 2.72396 2.75411 2.79022
 2.80278 2.86309 2.88268 2.92713 3.02485 3.05336 3.10024 3.13977 3.14057 3.19935
 3.23099 3.26420 3.26470 3.33675 3.36653 3.40939 3.43183 3.45311 3.48937 3.52787
 3.53494 3.54710 3.60757 3.69374 3.76153 3.79135 3.80546 3.87979 3.93805 3.98337
 4.00070 4.06660 4.22987 4.43160 4.56322 4.57317 7.71690 7.83774 8.08950 9.66576
 9.70366 9.99130 12.76016 13.84864
 == 7-th k-point (-0.00000,-0.20411,-0.20411) occupation: 14==
 -65.00519 -65.00519 -4.62744 -4.62722 -3.03921 -3.03921 -3.03912 -3.03865 -3.03854 -3.03854
 -0.12894 0.13911 0.18620 0.25444 0.38865 0.40725 0.41830 0.48511 0.50464 0.62512
 0.65990 0.70184 0.77171 0.85354 0.87422 0.97337 1.04091 1.04737 1.06289 1.11932
 1.27579 1.27797 1.33940 1.37935 1.41210 1.44661 1.45687 1.53819 1.55157 1.55569
 1.56143 1.61675 1.72388 1.73567 1.75155 1.75473 1.82913 1.85265 1.89182 1.94060
 1.94216 1.98999 2.06129 2.09267 2.10173 2.14624 2.16127 2.16831 2.31964 2.45670
 2.46169 2.48917 2.55112 2.55310 2.62984 2.64245 2.69002 2.73607 2.75047 2.80098
 2.82484 2.84945 2.92104 2.93567 2.98901 3.07855 3.11082 3.16290 3.18944 3.21994
 3.22208 3.26320 3.28835 3.33275 3.34700 3.40172 3.41234 3.46493 3.47643 3.51176
 3.57184 3.59802 3.63550 3.70643 3.75880 3.79248 3.79478 3.84406 3.89731 3.92422
 4.02080 4.04022 4.23773 4.53733 4.53900 4.53980 7.51512 7.76345 7.88605 8.84080
 9.51026 9.99302 12.61538 13.54155
 == 8-th k-point (0.10205,-0.10205,-0.30616) occupation: 14==
 -65.00519 -65.00519 -4.62743 -4.62724 -3.03923 -3.03922 -3.03910 -3.03866 -3.03856 -3.03853
 -0.11606 0.11260 0.20191 0.21069 0.34857 0.42648 0.44379 0.46410 0.61395 0.61549
 0.65895 0.74930 0.78902 0.84691 0.86730 0.90527 1.01660 1.04572 1.08867 1.15684
 1.23307 1.26948 1.29935 1.37821 1.38359 1.41207 1.47251 1.48717 1.51452 1.54174
 1.61072 1.64355 1.68556 1.70572 1.75425 1.79594 1.82846 1.88457 1.91022 1.91526
 1.97525 2.01479 2.02632 2.06304 2.12724 2.12759 2.24506 2.29144 2.31043 2.35189
 2.49979 2.51454 2.53781 2.59104 2.60812 2.64522 2.66054 2.72396 2.75411 2.79022
 2.80278 2.86309 2.88268 2.92713 3.02485 3.05336 3.10024 3.13977 3.14057 3.19935
 3.23099 3.26420 3.26470 3.33675 3.36653 3.40939 3.43183 3.45311 3.48937 3.52787
 3.53494 3.54710 3.60757 3.69374 3.76153 3.79135 3.80546 3.87979 3.93805 3.98337
 4.00070 4.06660 4.22987 4.43160 4.56322 4.57317 7.71690 7.83774 8.08950 9.66576
 9.70366 9.99130 12.76016 13.84864
 == 9-th k-point (0.20411,-0.00000,-0.40822) occupation: 14==
 -65.00519 -65.00519 -4.62739 -4.62727 -3.03925 -3.03924 -3.03903 -3.03873 -3.03852 -3.03851
 -0.07962 0.06847 0.14344 0.19046 0.38142 0.41373 0.43282 0.53788 0.61092 0.64277
 0.75846 0.76737 0.78852 0.83137 0.88946 0.94185 1.00600 1.05810 1.06007 1.11819
 1.18100 1.18547 1.27940 1.30211 1.33056 1.39994 1.45036 1.47060 1.50001 1.51513
 1.54733 1.65290 1.70478 1.74353 1.78164 1.78885 1.86672 1.87739 1.90223 1.94570
 2.01393 2.03835 2.10389 2.11490 2.14552 2.19313 2.28851 2.29119 2.35515 2.43887
 2.45352 2.48513 2.50207 2.53809 2.59161 2.59890 2.65652 2.74284 2.79753 2.82152
 2.84857 2.89333 2.90409 2.93661 2.96144 2.96587 3.01888 3.07326 3.12948 3.14920
 3.20965 3.29015 3.31055 3.32513 3.38221 3.40103 3.43167 3.43390 3.47410 3.50742
 3.51129 3.57075 3.64256 3.67731 3.70452 3.72600 3.84597 3.88151 3.94165 3.96756
 4.08385 4.13665 4.25195 4.33584 4.55044 4.61357 8.06851 8.17876 8.28640 9.01646
 9.80502 10.19517 13.34676 13.94079
 == 10-th k-point (0.30616,0.10205,-0.51027) occupation: 14==
 -65.00520 -65.00519 -4.62737 -4.62730 -3.03926 -3.03925 -3.03898 -3.03878 -3.03851 -3.03849
 -0.04325 0.02420 0.12729 0.17318 0.40013 0.40783 0.50230 0.51688 0.55641 0.69020
 0.71846 0.77269 0.87875 0.90175 0.90975 0.94528 0.96618 1.04178 1.05613 1.08429
 1.13074 1.23157 1.23458 1.23800 1.33704 1.37870 1.41389 1.43610 1.46036 1.50231
 1.55155 1.64399 1.69987 1.76385 1.79472 1.83460 1.87640 1.89688 1.93318 1.97444
 1.99914 2.08619 2.12345 2.15965 2.20605 2.24663 2.28171 2.30273 2.35340 2.37859
 2.43439 2.44430 2.46350 2.50358 2.60245 2.62893 2.71040 2.71320 2.80619 2.83438
 2.86623 2.87625 2.94022 2.95676 2.95784 2.99122 3.03603 3.07128 3.10325 3.16136
 3.23705 3.24209 3.28769 3.28961 3.33634 3.35568 3.40954 3.45930 3.48961 3.50141
 3.54866 3.56847 3.57788 3.61905 3.69312 3.70589 3.83939 3.84969 3.92610 4.00486
 4.02330 4.14239 4.25025 4.25346 4.54128 4.57776 8.26636 8.40966 8.52007 8.80457
 9.26225 9.77189 13.34313 14.25528
 == 11-th k-point (0.40822,0.20411,-0.61232) occupation: 14==
 -65.00519 -65.00519 -4.62739 -4.62727 -3.03925 -3.03924 -3.03903 -3.03873 -3.03852 -3.03851
 -0.07962 0.06847 0.14344 0.19046 0.38142 0.41373 0.43282 0.53788 0.61092 0.64277
 0.75846 0.76737 0.78852 0.83137 0.88946 0.94185 1.00600 1.05810 1.06007 1.11819
 1.18100 1.18547 1.27940 1.30211 1.33056 1.39994 1.45036 1.47060 1.50001 1.51513
 1.54733 1.65290 1.70478 1.74353 1.78164 1.78885 1.86672 1.87739 1.90223 1.94570
 2.01393 2.03835 2.10389 2.11490 2.14552 2.19313 2.28851 2.29119 2.35515 2.43887
 2.45352 2.48513 2.50207 2.53809 2.59161 2.59890 2.65652 2.74284 2.79753 2.82152
 2.84857 2.89333 2.90409 2.93661 2.96144 2.96587 3.01888 3.07326 3.12948 3.14920
 3.20965 3.29015 3.31055 3.32513 3.38221 3.40103 3.43167 3.43390 3.47410 3.50742
 3.51129 3.57075 3.64256 3.67731 3.70452 3.72600 3.84597 3.88151 3.94165 3.96756
 4.08385 4.13665 4.25195 4.33584 4.55044 4.61357 8.06851 8.17876 8.28640 9.01646
 9.80502 10.19517 13.34676 13.94079
 == 12-th k-point (-0.00000,-0.40822,0.00000) occupation: 14==
 -65.00519 -65.00519 -4.62740 -4.62726 -3.03924 -3.03924 -3.03903 -3.03871 -3.03855 -3.03855
 -0.09383 0.09186 0.18582 0.18582 0.30284 0.35006 0.54499 0.54499 0.63922 0.64604
 0.75460 0.78062 0.78062 0.83522 0.87813 0.87813 0.88035 0.98675 1.13758 1.19502
 1.22301 1.22301 1.27491 1.31040 1.32600 1.34883 1.34883 1.60173 1.60527 1.60527
 1.62053 1.64891 1.71258 1.71258 1.76791 1.76931 1.76931 1.83818 1.88721 1.90785
 1.98418 1.98418 1.99480 2.15126 2.16834 2.16834 2.19086 2.35896 2.35896 2.37252
 2.41294 2.48795 2.54896 2.54896 2.63279 2.64796 2.64896 2.75254 2.75254 2.79716
 2.85501 2.86745 2.90799 2.90799 2.93346 3.01125 3.06498 3.06498 3.14282 3.24073
 3.24073 3.25140 3.25296 3.37451 3.37696 3.37696 3.43961 3.44479 3.46936 3.46936
 3.55108 3.56509 3.56509 3.68321 3.72316 3.79408 3.86832 3.86832 3.94166 4.14279
 4.16455 4.16455 4.24544 4.38058 4.61339 4.61339 8.03881 8.04212 8.04212 9.05403
 10.86527 10.86527 13.02377 13.34165
 == 13-th k-point (0.10205,-0.30616,-0.10205) occupation: 14==
 -65.00519 -65.00519 -4.62743 -4.62724 -3.03923 -3.03922 -3.03910 -3.03866 -3.03856 -3.03853
 -0.11606 0.11260 0.20191 0.21069 0.34857 0.42648 0.44379 0.46410 0.61395 0.61549
 0.65895 0.74930 0.78902 0.84691 0.86730 0.90527 1.01660 1.04572 1.08867 1.15684
 1.23307 1.26948 1.29935 1.37821 1.38359 1.41207 1.47251 1.48717 1.51452 1.54174
 1.61072 1.64355 1.68556 1.70572 1.75425 1.79594 1.82846 1.88457 1.91022 1.91526
 1.97525 2.01479 2.02632 2.06304 2.12724 2.12759 2.24506 2.29144 2.31043 2.35189
 2.49979 2.51454 2.53781 2.59104 2.60812 2.64522 2.66054 2.72396 2.75411 2.79022
 2.80278 2.86309 2.88268 2.92713 3.02485 3.05336 3.10024 3.13977 3.14057 3.19935
 3.23099 3.26420 3.26470 3.33675 3.36653 3.40939 3.43183 3.45311 3.48937 3.52787
 3.53494 3.54710 3.60757 3.69374 3.76153 3.79135 3.80546 3.87979 3.93805 3.98337
 4.00070 4.06660 4.22987 4.43160 4.56322 4.57317 7.71690 7.83774 8.08950 9.66576
 9.70366 9.99130 12.76016 13.84864
 == 14-th k-point (0.20411,-0.20411,-0.20411) occupation: 14==
 -65.00520 -65.00518 -4.62743 -4.62724 -3.03921 -3.03921 -3.03913 -3.03864 -3.03855 -3.03855
 -0.11319 0.07926 0.23826 0.23826 0.34186 0.40598 0.40598 0.56396 0.57420 0.57420
 0.61106 0.77520 0.82191 0.82191 0.90265 0.93104 0.93104 1.09537 1.18427 1.18427
 1.21792 1.27556 1.27556 1.37330 1.37330 1.39505 1.41374 1.50576 1.50576 1.54858
 1.54858 1.64241 1.68250 1.73023 1.78369 1.78369 1.86559 1.86559 1.90027 1.93006
 1.97189 1.97189 2.07773 2.14304 2.14304 2.25914 2.25914 2.28177 2.28177 2.31199
 2.50088 2.50088 2.53351 2.59423 2.66022 2.67562 2.67562 2.72723 2.76582 2.76582
 2.85729 2.91576 2.91576 2.92493 2.96776 2.96776 3.07445 3.08724 3.08724 3.15457
 3.15457 3.23168 3.32413 3.34652 3.34652 3.47341 3.47341 3.51797 3.51797 3.52083
 3.53233 3.67237 3.67237 3.67818 3.79820 3.83053 3.83053 3.83581 3.90243 3.90243
 4.03377 4.03377 4.12587 4.52392 4.53131 4.53131 7.75878 7.91828 7.91828 9.42581
 9.42581 10.10166 11.90459 14.79216
 == 15-th k-point (0.30616,-0.10205,-0.30616) occupation: 14==
 -65.00520 -65.00519 -4.62740 -4.62726 -3.03924 -3.03923 -3.03907 -3.03869 -3.03853 -3.03851
 -0.08633 0.05467 0.16294 0.22726 0.36701 0.42862 0.43270 0.54498 0.54964 0.62323
 0.69975 0.75153 0.82573 0.85166 0.88248 0.94180 1.02206 1.09883 1.10725 1.13209
 1.19637 1.21237 1.29967 1.30848 1.33485 1.34235 1.37822 1.49689 1.52853 1.54734
 1.56580 1.63966 1.67909 1.69664 1.73117 1.79079 1.82625 1.88011 1.89578 1.98794
 2.07197 2.08682 2.09063 2.16183 2.18262 2.20356 2.28065 2.35538 2.37031 2.38489
 2.44075 2.46274 2.49615 2.55173 2.58776 2.58983 2.67606 2.77015 2.77389 2.81209
 2.81918 2.89439 2.90026 2.93133 2.94121 2.95942 3.03921 3.09910 3.13888 3.14626
 3.16533 3.25244 3.31188 3.33219 3.36712 3.42032 3.43896 3.43985 3.47177 3.50931
 3.58088 3.58469 3.63028 3.66491 3.71985 3.72139 3.78683 3.90193 3.93134 3.94254
 4.08148 4.10944 4.24723 4.34596 4.50441 4.57867 7.89575 8.24186 8.32443 9.13320
 9.31827 9.91445 12.89396 14.44757
 == 16-th k-point (0.40822,-0.00000,-0.40822) occupation: 14==
 -65.00520 -65.00519 -4.62737 -4.62730 -3.03927 -3.03924 -3.03898 -3.03877 -3.03851 -3.03848
 -0.04364 0.02699 0.11226 0.19712 0.33416 0.49144 0.51540 0.53783 0.54938 0.56308
 0.80616 0.82610 0.85768 0.86589 0.89475 0.93321 0.96222 1.01726 1.10640 1.11305
 1.12835 1.16378 1.26202 1.27689 1.29818 1.36650 1.37197 1.38103 1.58513 1.59405
 1.59838 1.65622 1.66262 1.67926 1.72775 1.75226 1.83858 1.91462 1.92441 2.05785
 2.07155 2.07738 2.15735 2.19043 2.22224 2.23163 2.23731 2.27175 2.30871 2.39043
 2.45372 2.46165 2.46374 2.49652 2.53273 2.57868 2.61858 2.76675 2.76748 2.84192
 2.88319 2.91290 2.94855 2.95699 3.01192 3.03531 3.04487 3.04557 3.11581 3.19938
 3.20679 3.27168 3.28848 3.32474 3.34114 3.35011 3.40224 3.40540 3.40734 3.45305
 3.47389 3.50049 3.65572 3.66424 3.75382 3.77400 3.80621 3.87457 3.90720 3.93138
 4.01011 4.20285 4.25991 4.26192 4.54626 4.58440 8.05416 8.44064 8.52575 8.81584
 8.89855 9.71446 13.27687 14.26802
 == 17-th k-point (0.51027,0.10205,-0.51027) occupation: 14==
 -65.00519 -65.00519 -4.62737 -4.62730 -3.03926 -3.03925 -3.03896 -3.03878 -3.03852 -3.03851
 -0.05097 0.03463 0.14108 0.18075 0.31549 0.37663 0.55240 0.55275 0.66932 0.67574
 0.73643 0.75176 0.81765 0.86241 0.87238 0.96289 0.97500 0.99871 1.04083 1.12259
 1.13594 1.15666 1.19095 1.27003 1.36543 1.38168 1.46111 1.48571 1.49770 1.56727
 1.62635 1.64058 1.68505 1.71453 1.75858 1.80102 1.82890 1.86651 1.91224 1.95088
 1.98429 2.06867 2.12058 2.15040 2.19631 2.19998 2.22870 2.34296 2.36260 2.37890
 2.44705 2.44988 2.51728 2.52340 2.55619 2.63158 2.67098 2.77111 2.79784 2.81266
 2.83010 2.90608 2.91430 2.95297 2.95391 3.00606 3.02544 3.05146 3.08301 3.14193
 3.22420 3.23269 3.24396 3.31938 3.32502 3.34680 3.36532 3.44350 3.48910 3.50750
 3.56343 3.61630 3.64240 3.66652 3.71387 3.75197 3.85772 3.89771 3.96760 4.04968
 4.13376 4.24898 4.28852 4.32141 4.58935 4.60658 8.11078 8.39751 8.47745 8.70716
 9.77687 10.12367 13.28615 13.63778
 == 18-th k-point (0.10205,-0.51027,0.10205) occupation: 14==
 -65.00519 -65.00519 -4.62737 -4.62730 -3.03926 -3.03925 -3.03896 -3.03878 -3.03852 -3.03851
 -0.05097 0.03463 0.14108 0.18075 0.31549 0.37663 0.55240 0.55275 0.66932 0.67574
 0.73643 0.75176 0.81765 0.86241 0.87238 0.96289 0.97500 0.99871 1.04083 1.12259
 1.13594 1.15666 1.19095 1.27003 1.36543 1.38168 1.46111 1.48571 1.49770 1.56727
 1.62635 1.64058 1.68505 1.71453 1.75858 1.80102 1.82890 1.86651 1.91224 1.95088
 1.98429 2.06867 2.12058 2.15040 2.19631 2.19998 2.22870 2.34296 2.36260 2.37890
 2.44705 2.44988 2.51728 2.52340 2.55619 2.63158 2.67098 2.77111 2.79784 2.81266
 2.83010 2.90608 2.91430 2.95297 2.95391 3.00606 3.02544 3.05146 3.08301 3.14193
 3.22420 3.23269 3.24396 3.31938 3.32502 3.34680 3.36532 3.44350 3.48910 3.50750
 3.56343 3.61630 3.64240 3.66652 3.71387 3.75197 3.85772 3.89771 3.96760 4.04968
 4.13376 4.24898 4.28852 4.32141 4.58935 4.60658 8.11078 8.39751 8.47745 8.70716
 9.77687 10.12367 13.28615 13.63778
 == 19-th k-point (0.20411,-0.40822,0.00000) occupation: 14==
 -65.00519 -65.00519 -4.62739 -4.62727 -3.03925 -3.03924 -3.03903 -3.03873 -3.03852 -3.03851
 -0.07962 0.06847 0.14344 0.19046 0.38142 0.41373 0.43282 0.53788 0.61092 0.64277
 0.75846 0.76737 0.78852 0.83137 0.88946 0.94185 1.00600 1.05810 1.06007 1.11819
 1.18100 1.18547 1.27940 1.30211 1.33056 1.39994 1.45036 1.47060 1.50001 1.51513
 1.54733 1.65290 1.70478 1.74353 1.78164 1.78885 1.86672 1.87739 1.90223 1.94570
 2.01393 2.03835 2.10389 2.11490 2.14552 2.19313 2.28851 2.29119 2.35515 2.43887
 2.45352 2.48513 2.50207 2.53809 2.59161 2.59890 2.65652 2.74284 2.79753 2.82152
 2.84857 2.89333 2.90409 2.93661 2.96144 2.96587 3.01888 3.07326 3.12948 3.14920
 3.20965 3.29015 3.31055 3.32513 3.38221 3.40103 3.43167 3.43390 3.47410 3.50742
 3.51129 3.57075 3.64256 3.67731 3.70452 3.72600 3.84597 3.88151 3.94165 3.96756
 4.08385 4.13665 4.25195 4.33584 4.55044 4.61357 8.06851 8.17876 8.28640 9.01646
 9.80502 10.19517 13.34676 13.94079
 == 20-th k-point (0.30616,-0.30616,-0.10205) occupation: 14==
 -65.00520 -65.00519 -4.62740 -4.62726 -3.03924 -3.03923 -3.03907 -3.03869 -3.03853 -3.03851
 -0.08633 0.05467 0.16294 0.22726 0.36701 0.42862 0.43270 0.54498 0.54964 0.62323
 0.69975 0.75153 0.82573 0.85166 0.88248 0.94180 1.02206 1.09883 1.10725 1.13209
 1.19637 1.21237 1.29967 1.30848 1.33485 1.34235 1.37822 1.49689 1.52853 1.54734
 1.56580 1.63966 1.67909 1.69664 1.73117 1.79079 1.82625 1.88011 1.89578 1.98794
 2.07197 2.08682 2.09063 2.16183 2.18262 2.20356 2.28065 2.35538 2.37031 2.38489
 2.44075 2.46274 2.49615 2.55173 2.58776 2.58983 2.67606 2.77015 2.77389 2.81209
 2.81918 2.89439 2.90026 2.93133 2.94121 2.95942 3.03921 3.09910 3.13888 3.14626
 3.16533 3.25244 3.31188 3.33219 3.36712 3.42032 3.43896 3.43985 3.47177 3.50931
 3.58088 3.58469 3.63028 3.66491 3.71985 3.72139 3.78683 3.90193 3.93134 3.94254
 4.08148 4.10944 4.24723 4.34596 4.50441 4.57867 7.89575 8.24186 8.32443 9.13320
 9.31827 9.91445 12.89396 14.44757
 == 21-th k-point (0.40822,-0.20411,-0.20411) occupation: 14==
 -65.00520 -65.00519 -4.62739 -4.62727 -3.03925 -3.03923 -3.03906 -3.03870 -3.03854 -3.03850
 -0.07210 0.03253 0.17300 0.20953 0.35177 0.42841 0.44757 0.51364 0.62330 0.66794
 0.71030 0.71603 0.74425 0.87421 0.94531 0.98342 1.02768 1.04608 1.06515 1.12762
 1.16941 1.26870 1.28309 1.28920 1.30375 1.36913 1.41427 1.42422 1.48227 1.54268
 1.56421 1.61764 1.67495 1.68498 1.73764 1.80063 1.87811 1.93002 1.98096 2.03037
 2.03694 2.05252 2.09078 2.15400 2.17088 2.26184 2.28510 2.29073 2.30123 2.37594
 2.40674 2.46679 2.48441 2.52051 2.57967 2.67551 2.72104 2.74024 2.78348 2.82048
 2.83199 2.89735 2.91408 2.93119 2.96088 2.99079 3.04972 3.06346 3.07310 3.11496
 3.13587 3.24227 3.26868 3.26978 3.35872 3.39335 3.42434 3.45213 3.52294 3.53115
 3.59294 3.61530 3.68014 3.68333 3.73401 3.78346 3.80188 3.84902 3.87828 3.95637
 4.05571 4.17309 4.25383 4.28956 4.51931 4.52376 8.13270 8.35762 8.37795 9.00085
 9.65139 9.92092 12.88205 14.56804
 == 22-th k-point (0.51027,-0.10205,-0.30616) occupation: 14==
 -65.00520 -65.00519 -4.62737 -4.62730 -3.03926 -3.03925 -3.03898 -3.03878 -3.03851 -3.03849
 -0.04325 0.02420 0.12729 0.17318 0.40013 0.40783 0.50230 0.51688 0.55641 0.69020
 0.71846 0.77269 0.87875 0.90175 0.90975 0.94528 0.96618 1.04178 1.05613 1.08429
 1.13074 1.23157 1.23458 1.23800 1.33704 1.37870 1.41389 1.43610 1.46036 1.50231
 1.55155 1.64399 1.69987 1.76385 1.79472 1.83460 1.87640 1.89688 1.93318 1.97444
 1.99914 2.08619 2.12345 2.15965 2.20605 2.24663 2.28171 2.30273 2.35340 2.37859
 2.43439 2.44430 2.46350 2.50358 2.60245 2.62893 2.71040 2.71320 2.80619 2.83438
 2.86623 2.87625 2.94022 2.95676 2.95784 2.99122 3.03603 3.07128 3.10325 3.16136
 3.23705 3.24209 3.28769 3.28961 3.33634 3.35568 3.40954 3.45930 3.48961 3.50141
 3.54866 3.56847 3.57788 3.61905 3.69312 3.70589 3.83939 3.84969 3.92610 4.00486
 4.02330 4.14239 4.25025 4.25346 4.54128 4.57776 8.26636 8.40966 8.52007 8.80457
 9.26225 9.77189 13.34313 14.25528
 == 23-th k-point (0.61232,0.00000,-0.40822) occupation: 14==
[...]
 -0.01141 -0.01141 0.16971 0.16971 0.30250 0.30250 0.64813 0.64813 0.68888 0.68888
 0.74450 0.74450 0.75528 0.75528 0.97765 0.97765 1.00291 1.00291 1.02315 1.02315
 1.07003 1.07003 1.23811 1.23811 1.37438 1.37438 1.54483 1.54483 1.58210 1.58210
 1.63112 1.63112 1.69146 1.69146 1.74511 1.74511 1.82836 1.82836 1.85641 1.85641
 2.08237 2.08237 2.09766 2.09766 2.18739 2.18739 2.30516 2.30516 2.43103 2.43103
 2.45563 2.45563 2.50320 2.50320 2.52336 2.52336 2.73730 2.73730 2.77765 2.77765
 2.86873 2.86873 2.98852 2.98852 3.00937 3.00937 3.02689 3.02689 3.08186 3.08186
 3.23403 3.23403 3.25089 3.25089 3.26337 3.26337 3.45965 3.45965 3.49260 3.49260
 3.55791 3.55791 3.64319 3.64319 3.72942 3.72942 3.93774 3.93774 4.06958 4.06958
 4.29213 4.29213 4.35452 4.35452 4.61778 4.61778 8.31803 8.31803 8.62603 8.62603
 9.67381 9.67381 13.41143 13.41143
 == 198-th k-point (-0.40822,0.00000,0.61232) occupation: 14==
 -65.00519 -65.00519 -4.62733 -4.62733 -3.03926 -3.03926 -3.03887 -3.03887 -3.03850 -3.03850
 -0.00692 -0.00692 0.14057 0.14057 0.37776 0.37776 0.52643 0.52643 0.66947 0.66947
 0.75644 0.75644 0.88694 0.88694 0.91713 0.91713 0.97292 0.97292 1.07776 1.07776
 1.14046 1.14046 1.19585 1.19585 1.39414 1.39414 1.43462 1.43462 1.49625 1.49625
 1.66132 1.66132 1.69974 1.69974 1.80106 1.80106 1.86840 1.86840 1.90982 1.90982
 2.04561 2.04561 2.17957 2.17957 2.22276 2.22276 2.28814 2.28814 2.35510 2.35510
 2.45186 2.45186 2.48558 2.48558 2.67131 2.67131 2.73282 2.73282 2.76096 2.76096
 2.86655 2.86655 2.91012 2.91012 2.98858 2.98858 3.05802 3.05802 3.12267 3.12267
 3.23092 3.23092 3.29003 3.29003 3.34633 3.34633 3.40342 3.40342 3.49396 3.49396
 3.58107 3.58107 3.60039 3.60039 3.70537 3.70537 3.85075 3.85075 4.00160 4.00160
 4.15887 4.15887 4.28672 4.28672 4.58925 4.58925 8.36096 8.36096 8.65494 8.65494
 9.73372 9.73372 13.52112 13.52112
 == 199-th k-point (-0.30616,0.10205,0.51027) occupation: 14==
 -65.00520 -65.00519 -4.62737 -4.62730 -3.03926 -3.03925 -3.03898 -3.03878 -3.03851 -3.03849
 -0.04325 0.02420 0.12729 0.17318 0.40013 0.40783 0.50230 0.51688 0.55641 0.69020
 0.71846 0.77269 0.87875 0.90175 0.90975 0.94528 0.96618 1.04178 1.05613 1.08429
 1.13074 1.23157 1.23458 1.23800 1.33704 1.37870 1.41389 1.43610 1.46036 1.50231
 1.55155 1.64399 1.69987 1.76385 1.79472 1.83460 1.87640 1.89688 1.93318 1.97444
 1.99914 2.08619 2.12345 2.15965 2.20605 2.24663 2.28171 2.30273 2.35340 2.37859
 2.43439 2.44430 2.46350 2.50358 2.60245 2.62893 2.71040 2.71320 2.80619 2.83438
 2.86623 2.87625 2.94022 2.95676 2.95784 2.99122 3.03603 3.07128 3.10325 3.16136
 3.23705 3.24209 3.28769 3.28961 3.33634 3.35568 3.40954 3.45930 3.48961 3.50141
 3.54866 3.56847 3.57788 3.61905 3.69312 3.70589 3.83939 3.84969 3.92610 4.00486
 4.02330 4.14239 4.25025 4.25346 4.54128 4.57776 8.26636 8.40966 8.52007 8.80457
 9.26225 9.77189 13.34313 14.25528
 == 200-th k-point (-0.20411,0.20411,0.40822) occupation: 14==
 -65.00520 -65.00519 -4.62739 -4.62727 -3.03925 -3.03923 -3.03906 -3.03870 -3.03854 -3.03850
 -0.07210 0.03253 0.17300 0.20953 0.35177 0.42841 0.44756 0.51364 0.62330 0.66794
 0.71030 0.71603 0.74425 0.87421 0.94531 0.98342 1.02768 1.04608 1.06515 1.12762
 1.16941 1.26870 1.28309 1.28920 1.30375 1.36913 1.41427 1.42422 1.48227 1.54268
 1.56421 1.61764 1.67495 1.68498 1.73764 1.80063 1.87811 1.93002 1.98096 2.03037
 2.03694 2.05252 2.09078 2.15400 2.17087 2.26184 2.28510 2.29073 2.30123 2.37594
 2.40674 2.46679 2.48441 2.52051 2.57967 2.67551 2.72104 2.74024 2.78348 2.82048
 2.83199 2.89735 2.91408 2.93119 2.96088 2.99079 3.04972 3.06346 3.07310 3.11496
 3.13587 3.24227 3.26868 3.26978 3.35872 3.39335 3.42434 3.45213 3.52294 3.53115
 3.59294 3.61530 3.68014 3.68333 3.73401 3.78346 3.80188 3.84902 3.87828 3.95637
 4.05571 4.17309 4.25383 4.28956 4.51930 4.52376 8.13270 8.35762 8.37795 9.00085
 9.65139 9.92092 12.88205 14.56804
 == 201-th k-point (-0.10205,0.30616,0.30616) occupation: 14==
 -65.00520 -65.00519 -4.62740 -4.62726 -3.03924 -3.03923 -3.03907 -3.03869 -3.03853 -3.03851
 -0.08633 0.05467 0.16294 0.22726 0.36701 0.42862 0.43270 0.54498 0.54964 0.62323
 0.69975 0.75153 0.82573 0.85166 0.88248 0.94180 1.02206 1.09883 1.10725 1.13209
 1.19637 1.21237 1.29967 1.30848 1.33485 1.34235 1.37822 1.49689 1.52853 1.54734
 1.56580 1.63966 1.67909 1.69664 1.73117 1.79079 1.82625 1.88011 1.89578 1.98794
 2.07197 2.08682 2.09063 2.16183 2.18262 2.20356 2.28065 2.35538 2.37031 2.38489
 2.44075 2.46274 2.49615 2.55173 2.58776 2.58983 2.67606 2.77015 2.77389 2.81209
 2.81918 2.89439 2.90026 2.93133 2.94121 2.95942 3.03921 3.09910 3.13888 3.14626
 3.16533 3.25244 3.31188 3.33219 3.36712 3.42032 3.43896 3.43985 3.47177 3.50931
 3.58088 3.58469 3.63028 3.66491 3.71985 3.72139 3.78683 3.90193 3.93134 3.94254
 4.08148 4.10944 4.24723 4.34596 4.50441 4.57867 7.89575 8.24186 8.32443 9.13320
 9.31827 9.91445 12.89396 14.44757
 == 202-th k-point (0.00000,0.40822,0.20411) occupation: 14==
 -65.00519 -65.00519 -4.62739 -4.62727 -3.03925 -3.03924 -3.03903 -3.03873 -3.03852 -3.03851
 -0.07962 0.06847 0.14344 0.19046 0.38142 0.41373 0.43282 0.53788 0.61092 0.64277
 0.75846 0.76737 0.78852 0.83137 0.88946 0.94185 1.00600 1.05810 1.06007 1.11819
 1.18100 1.18547 1.27940 1.30211 1.33056 1.39994 1.45036 1.47060 1.50001 1.51513
 1.54733 1.65290 1.70478 1.74353 1.78164 1.78885 1.86672 1.87739 1.90223 1.94570
 2.01393 2.03835 2.10389 2.11490 2.14552 2.19313 2.28851 2.29119 2.35515 2.43887
 2.45352 2.48513 2.50207 2.53809 2.59161 2.59890 2.65652 2.74284 2.79753 2.82152
 2.84857 2.89333 2.90409 2.93661 2.96144 2.96587 3.01888 3.07326 3.12948 3.14920
 3.20965 3.29015 3.31055 3.32513 3.38221 3.40103 3.43167 3.43390 3.47410 3.50742
 3.51129 3.57075 3.64256 3.67731 3.70452 3.72600 3.84597 3.88151 3.94165 3.96756
 4.08385 4.13665 4.25195 4.33584 4.55044 4.61357 8.06851 8.17876 8.28640 9.01646
 9.80502 10.19517 13.34676 13.94079
 == 203-th k-point (0.10205,0.51027,0.10205) occupation: 14==
 -65.00519 -65.00519 -4.62737 -4.62730 -3.03926 -3.03925 -3.03896 -3.03878 -3.03852 -3.03851
 -0.05097 0.03463 0.14108 0.18075 0.31549 0.37663 0.55240 0.55275 0.66932 0.67574
 0.73643 0.75176 0.81765 0.86241 0.87238 0.96289 0.97500 0.99871 1.04083 1.12259
 1.13594 1.15666 1.19095 1.27003 1.36543 1.38168 1.46111 1.48571 1.49770 1.56727
 1.62635 1.64058 1.68505 1.71453 1.75858 1.80102 1.82890 1.86651 1.91224 1.95088
 1.98429 2.06867 2.12058 2.15040 2.19631 2.19998 2.22870 2.34296 2.36260 2.37890
 2.44705 2.44988 2.51728 2.52340 2.55619 2.63158 2.67098 2.77111 2.79784 2.81266
 2.83010 2.90608 2.91430 2.95297 2.95391 3.00606 3.02544 3.05146 3.08301 3.14193
 3.22420 3.23269 3.24396 3.31938 3.32502 3.34680 3.36532 3.44350 3.48910 3.50750
 3.56343 3.61630 3.64240 3.66652 3.71387 3.75197 3.85772 3.89771 3.96760 4.04968
 4.13376 4.24898 4.28852 4.32141 4.58935 4.60658 8.11078 8.39751 8.47745 8.70716
 9.77687 10.12367 13.28615 13.63778
 == 204-th k-point (-0.30616,-0.10205,0.71438) occupation: 14==
 -65.00520 -65.00519 -4.62737 -4.62730 -3.03926 -3.03925 -3.03898 -3.03878 -3.03851 -3.03849
 -0.04325 0.02420 0.12729 0.17318 0.40013 0.40783 0.50230 0.51688 0.55641 0.69020
 0.71846 0.77269 0.87875 0.90175 0.90975 0.94528 0.96618 1.04178 1.05613 1.08429
 1.13074 1.23157 1.23458 1.23800 1.33704 1.37870 1.41389 1.43610 1.46036 1.50231
 1.55155 1.64399 1.69987 1.76385 1.79472 1.83460 1.87640 1.89688 1.93318 1.97444
 1.99914 2.08619 2.12345 2.15965 2.20605 2.24663 2.28171 2.30273 2.35340 2.37859
 2.43439 2.44430 2.46350 2.50358 2.60245 2.62893 2.71040 2.71320 2.80619 2.83438
 2.86623 2.87625 2.94022 2.95676 2.95784 2.99122 3.03603 3.07128 3.10325 3.16136
 3.23705 3.24209 3.28769 3.28961 3.33634 3.35568 3.40954 3.45930 3.48961 3.50141
 3.54866 3.56847 3.57788 3.61905 3.69312 3.70589 3.83939 3.84969 3.92610 4.00486
 4.02330 4.14239 4.25025 4.25346 4.54128 4.57776 8.26636 8.40966 8.52007 8.80457
 9.26225 9.77189 13.34313 14.25528
 == 205-th k-point (-0.20411,0.00000,0.61232) occupation: 14==
 -65.00519 -65.00519 -4.62733 -4.62733 -3.03926 -3.03926 -3.03887 -3.03887 -3.03850 -3.03850
 -0.00692 -0.00692 0.14057 0.14057 0.37776 0.37776 0.52643 0.52643 0.66947 0.66947
 0.75644 0.75644 0.88694 0.88694 0.91713 0.91713 0.97292 0.97292 1.07776 1.07776
 1.14046 1.14046 1.19585 1.19585 1.39414 1.39414 1.43462 1.43462 1.49625 1.49625
 1.66132 1.66132 1.69974 1.69974 1.80106 1.80106 1.86840 1.86840 1.90982 1.90982
 2.04561 2.04561 2.17957 2.17957 2.22276 2.22276 2.28814 2.28814 2.35510 2.35510
 2.45186 2.45186 2.48558 2.48558 2.67131 2.67131 2.73282 2.73282 2.76096 2.76096
 2.86655 2.86655 2.91012 2.91012 2.98858 2.98858 3.05802 3.05802 3.12267 3.12267
 3.23092 3.23092 3.29003 3.29003 3.34633 3.34633 3.40342 3.40342 3.49396 3.49396
 3.58107 3.58107 3.60039 3.60039 3.70537 3.70537 3.85075 3.85075 4.00160 4.00160
 4.15887 4.15887 4.28672 4.28672 4.58925 4.58925 8.36096 8.36096 8.65494 8.65494
 9.73372 9.73372 13.52112 13.52112
 == 206-th k-point (-0.10205,0.10205,0.51027) occupation: 14==
 -65.00519 -65.00519 -4.62737 -4.62730 -3.03926 -3.03925 -3.03896 -3.03878 -3.03852 -3.03851
 -0.05097 0.03463 0.14108 0.18075 0.31549 0.37663 0.55240 0.55275 0.66932 0.67574
 0.73643 0.75176 0.81765 0.86241 0.87238 0.96289 0.97500 0.99871 1.04083 1.12259
 1.13594 1.15666 1.19095 1.27003 1.36543 1.38168 1.46111 1.48571 1.49770 1.56727
 1.62635 1.64058 1.68505 1.71453 1.75858 1.80102 1.82890 1.86651 1.91224 1.95088
 1.98429 2.06867 2.12058 2.15040 2.19631 2.19998 2.22870 2.34296 2.36260 2.37890
 2.44705 2.44988 2.51728 2.52340 2.55619 2.63158 2.67098 2.77111 2.79784 2.81266
 2.83010 2.90608 2.91430 2.95297 2.95391 3.00606 3.02544 3.05146 3.08301 3.14193
 3.22420 3.23269 3.24396 3.31938 3.32502 3.34680 3.36532 3.44350 3.48910 3.50750
 3.56343 3.61630 3.64240 3.66652 3.71387 3.75197 3.85772 3.89771 3.96760 4.04968
 4.13376 4.24898 4.28852 4.32141 4.58935 4.60658 8.11078 8.39751 8.47745 8.70716
 9.77687 10.12367 13.28615 13.63778
 == 207-th k-point (0.00000,0.20411,0.40822) occupation: 14==
 -65.00519 -65.00519 -4.62739 -4.62727 -3.03925 -3.03924 -3.03903 -3.03873 -3.03852 -3.03851
 -0.07962 0.06847 0.14344 0.19046 0.38142 0.41373 0.43282 0.53788 0.61092 0.64277
 0.75846 0.76737 0.78852 0.83137 0.88946 0.94185 1.00600 1.05810 1.06007 1.11819
 1.18100 1.18547 1.27940 1.30211 1.33056 1.39994 1.45036 1.47060 1.50001 1.51513
 1.54733 1.65290 1.70478 1.74353 1.78164 1.78885 1.86672 1.87739 1.90223 1.94570
 2.01393 2.03835 2.10389 2.11490 2.14552 2.19313 2.28851 2.29119 2.35515 2.43887
 2.45352 2.48513 2.50207 2.53809 2.59161 2.59890 2.65652 2.74284 2.79753 2.82152
 2.84857 2.89333 2.90409 2.93661 2.96144 2.96587 3.01888 3.07326 3.12948 3.14920
 3.20965 3.29015 3.31055 3.32513 3.38221 3.40103 3.43167 3.43390 3.47410 3.50742
 3.51129 3.57075 3.64256 3.67731 3.70452 3.72600 3.84597 3.88151 3.94165 3.96756
 4.08385 4.13665 4.25195 4.33584 4.55044 4.61357 8.06851 8.17876 8.28640 9.01646
 9.80502 10.19517 13.34676 13.94079
 == 208-th k-point (0.10205,0.30616,0.30616) occupation: 14==
 -65.00520 -65.00519 -4.62740 -4.62726 -3.03924 -3.03923 -3.03907 -3.03869 -3.03853 -3.03851
 -0.08633 0.05467 0.16294 0.22726 0.36701 0.42862 0.43270 0.54498 0.54964 0.62323
 0.69975 0.75153 0.82573 0.85166 0.88248 0.94180 1.02206 1.09883 1.10725 1.13209
 1.19637 1.21237 1.29967 1.30848 1.33485 1.34235 1.37822 1.49689 1.52853 1.54734
 1.56580 1.63966 1.67909 1.69664 1.73117 1.79079 1.82625 1.88011 1.89578 1.98794
 2.07197 2.08682 2.09063 2.16183 2.18262 2.20356 2.28065 2.35538 2.37031 2.38489
 2.44075 2.46274 2.49615 2.55173 2.58776 2.58983 2.67606 2.77015 2.77389 2.81209
 2.81918 2.89439 2.90026 2.93133 2.94121 2.95942 3.03921 3.09910 3.13888 3.14626
 3.16533 3.25244 3.31188 3.33219 3.36712 3.42032 3.43896 3.43985 3.47177 3.50931
 3.58089 3.58469 3.63028 3.66491 3.71985 3.72139 3.78683 3.90193 3.93134 3.94254
 4.08148 4.10944 4.24723 4.34596 4.50441 4.57867 7.89575 8.24186 8.32443 9.13320
 9.31827 9.91445 12.89396 14.44757
 == 209-th k-point (0.20411,0.40822,0.20411) occupation: 14==
 -65.00520 -65.00519 -4.62739 -4.62727 -3.03925 -3.03923 -3.03906 -3.03870 -3.03854 -3.03850
 -0.07210 0.03253 0.17300 0.20953 0.35177 0.42841 0.44756 0.51364 0.62330 0.66794
 0.71030 0.71603 0.74425 0.87421 0.94531 0.98342 1.02768 1.04608 1.06515 1.12762
 1.16941 1.26870 1.28309 1.28920 1.30375 1.36913 1.41427 1.42422 1.48227 1.54268
 1.56421 1.61764 1.67495 1.68498 1.73764 1.80063 1.87811 1.93002 1.98096 2.03037
 2.03694 2.05252 2.09078 2.15400 2.17088 2.26184 2.28510 2.29073 2.30123 2.37594
 2.40674 2.46679 2.48441 2.52051 2.57967 2.67551 2.72104 2.74024 2.78348 2.82048
 2.83199 2.89735 2.91408 2.93119 2.96088 2.99079 3.04972 3.06346 3.07310 3.11496
 3.13587 3.24227 3.26868 3.26978 3.35872 3.39335 3.42434 3.45213 3.52294 3.53115
 3.59294 3.61530 3.68014 3.68333 3.73401 3.78346 3.80188 3.84902 3.87828 3.95637
 4.05571 4.17309 4.25383 4.28956 4.51930 4.52376 8.13270 8.35762 8.37795 9.00085
 9.65139 9.92092 12.88205 14.56804
 == 210-th k-point (-0.20411,-0.20411,0.81643) occupation: 14==
 -65.00520 -65.00519 -4.62739 -4.62727 -3.03925 -3.03923 -3.03906 -3.03870 -3.03854 -3.03850
 -0.07210 0.03253 0.17300 0.20953 0.35177 0.42841 0.44756 0.51364 0.62330 0.66794
 0.71030 0.71603 0.74425 0.87421 0.94531 0.98342 1.02768 1.04608 1.06515 1.12762
 1.16941 1.26870 1.28309 1.28920 1.30375 1.36913 1.41427 1.42422 1.48227 1.54268
 1.56421 1.61764 1.67495 1.68498 1.73764 1.80063 1.87811 1.93002 1.98096 2.03037
 2.03694 2.05252 2.09078 2.15400 2.17088 2.26184 2.28510 2.29073 2.30123 2.37594
 2.40674 2.46679 2.48441 2.52051 2.57967 2.67551 2.72104 2.74024 2.78348 2.82048
 2.83199 2.89735 2.91408 2.93119 2.96088 2.99079 3.04972 3.06346 3.07310 3.11496
 3.13587 3.24227 3.26868 3.26978 3.35872 3.39335 3.42434 3.45213 3.52294 3.53115
 3.59294 3.61530 3.68014 3.68333 3.73401 3.78346 3.80188 3.84902 3.87828 3.95637
 4.05571 4.17309 4.25383 4.28956 4.51930 4.52376 8.13270 8.35762 8.37795 9.00085
 9.65139 9.92092 12.88205 14.56804
 == 211-th k-point (-0.10205,-0.10205,0.71438) occupation: 14==
 -65.00519 -65.00519 -4.62737 -4.62730 -3.03926 -3.03925 -3.03896 -3.03878 -3.03852 -3.03851
 -0.05097 0.03463 0.14108 0.18075 0.31549 0.37663 0.55240 0.55275 0.66932 0.67574
 0.73643 0.75176 0.81765 0.86241 0.87238 0.96289 0.97500 0.99871 1.04083 1.12259
 1.13594 1.15666 1.19095 1.27003 1.36543 1.38168 1.46111 1.48571 1.49770 1.56727
 1.62635 1.64058 1.68505 1.71453 1.75858 1.80102 1.82890 1.86651 1.91224 1.95088
 1.98429 2.06867 2.12058 2.15040 2.19631 2.19998 2.22870 2.34296 2.36260 2.37890
 2.44705 2.44988 2.51728 2.52340 2.55619 2.63158 2.67098 2.77111 2.79784 2.81266
 2.83010 2.90608 2.91430 2.95297 2.95391 3.00606 3.02544 3.05146 3.08301 3.14193
 3.22420 3.23269 3.24396 3.31938 3.32502 3.34680 3.36532 3.44350 3.48910 3.50750
 3.56343 3.61630 3.64240 3.66652 3.71387 3.75197 3.85772 3.89771 3.96760 4.04968
 4.13376 4.24898 4.28852 4.32141 4.58935 4.60658 8.11078 8.39751 8.47745 8.70716
 9.77687 10.12367 13.28615 13.63778
 == 212-th k-point (0.00000,0.00000,0.61232) occupation: 14==
 -65.00519 -65.00519 -4.62733 -4.62733 -3.03926 -3.03926 -3.03887 -3.03887 -3.03851 -3.03851
 -0.01141 -0.01141 0.16971 0.16971 0.30250 0.30250 0.64813 0.64813 0.68888 0.68888
 0.74450 0.74450 0.75528 0.75528 0.97765 0.97765 1.00291 1.00291 1.02315 1.02315
 1.07003 1.07003 1.23811 1.23811 1.37438 1.37438 1.54483 1.54483 1.58210 1.58210
 1.63112 1.63112 1.69146 1.69146 1.74511 1.74511 1.82836 1.82836 1.85641 1.85641
 2.08237 2.08237 2.09766 2.09766 2.18739 2.18739 2.30516 2.30516 2.43103 2.43103
 2.45563 2.45563 2.50320 2.50320 2.52336 2.52336 2.73730 2.73730 2.77765 2.77765
 2.86873 2.86873 2.98852 2.98852 3.00937 3.00937 3.02689 3.02689 3.08186 3.08186
 3.23403 3.23403 3.25089 3.25089 3.26337 3.26337 3.45965 3.45965 3.49260 3.49260
 3.55791 3.55791 3.64319 3.64319 3.72942 3.72942 3.93774 3.93774 4.06958 4.06958
 4.29213 4.29213 4.35452 4.35452 4.61778 4.61778 8.31803 8.31803 8.62603 8.62603
 9.67381 9.67381 13.41143 13.41143
 == 213-th k-point (0.10205,0.10205,0.51027) occupation: 14==
 -65.00519 -65.00519 -4.62737 -4.62730 -3.03926 -3.03925 -3.03896 -3.03878 -3.03852 -3.03851
 -0.05097 0.03463 0.14108 0.18075 0.31549 0.37663 0.55240 0.55275 0.66932 0.67574
 0.73643 0.75176 0.81765 0.86241 0.87238 0.96289 0.97500 0.99871 1.04083 1.12259
 1.13594 1.15666 1.19095 1.27003 1.36543 1.38168 1.46111 1.48571 1.49770 1.56727
 1.62635 1.64058 1.68505 1.71453 1.75858 1.80102 1.82890 1.86651 1.91224 1.95088
 1.98429 2.06867 2.12058 2.15040 2.19631 2.19998 2.22870 2.34296 2.36260 2.37890
 2.44705 2.44988 2.51728 2.52340 2.55619 2.63158 2.67098 2.77111 2.79784 2.81266
 2.83010 2.90608 2.91430 2.95297 2.95391 3.00606 3.02544 3.05146 3.08301 3.14193
 3.22420 3.23269 3.24396 3.31938 3.32502 3.34680 3.36532 3.44350 3.48910 3.50750
 3.56343 3.61630 3.64240 3.66652 3.71387 3.75197 3.85772 3.89771 3.96760 4.04968
 4.13376 4.24898 4.28852 4.32141 4.58935 4.60658 8.11078 8.39751 8.47745 8.70716
 9.77687 10.12367 13.28615 13.63778
 == 214-th k-point (0.20411,0.20411,0.40822) occupation: 14==
 -65.00520 -65.00519 -4.62739 -4.62727 -3.03925 -3.03923 -3.03906 -3.03870 -3.03854 -3.03850
 -0.07210 0.03253 0.17300 0.20953 0.35177 0.42841 0.44756 0.51364 0.62330 0.66794
 0.71030 0.71603 0.74425 0.87421 0.94531 0.98342 1.02768 1.04608 1.06515 1.12762
 1.16941 1.26870 1.28309 1.28920 1.30375 1.36913 1.41427 1.42422 1.48227 1.54268
 1.56421 1.61764 1.67495 1.68498 1.73764 1.80063 1.87811 1.93002 1.98096 2.03037
 2.03694 2.05252 2.09078 2.15400 2.17088 2.26184 2.28510 2.29073 2.30123 2.37594
 2.40674 2.46679 2.48441 2.52051 2.57967 2.67551 2.72104 2.74024 2.78348 2.82048
 2.83199 2.89735 2.91408 2.93119 2.96088 2.99079 3.04972 3.06346 3.07310 3.11496
 3.13587 3.24227 3.26868 3.26978 3.35872 3.39335 3.42434 3.45213 3.52294 3.53115
 3.59294 3.61530 3.68014 3.68333 3.73401 3.78346 3.80188 3.84902 3.87828 3.95637
 4.05571 4.17309 4.25383 4.28956 4.51930 4.52376 8.13270 8.35762 8.37795 9.00085
 9.65139 9.92092 12.88205 14.56804
 == 215-th k-point (0.30616,0.30616,0.30616) occupation: 14==
 -65.00520 -65.00518 -4.62740 -4.62726 -3.03923 -3.03923 -3.03911 -3.03865 -3.03853 -3.03853
 -0.07789 0.01888 0.23087 0.23087 0.33372 0.40003 0.40003 0.55846 0.67277 0.67277
 0.69325 0.69534 0.69534 0.75412 1.00022 1.01510 1.09091 1.09091 1.09468 1.09468
 1.23882 1.26036 1.26036 1.30722 1.30722 1.35752 1.41664 1.49048 1.49048 1.50109
 1.50109 1.58406 1.62555 1.65356 1.87981 1.87981 1.88682 1.90811 1.90811 1.92018
 2.12724 2.12724 2.19157 2.19581 2.19581 2.24504 2.26833 2.26833 2.33181 2.33181
 2.46166 2.46166 2.55521 2.55521 2.60155 2.67947 2.74745 2.77426 2.77426 2.79499
 2.81608 2.81608 2.82835 2.92006 2.95021 2.96196 3.09535 3.09535 3.09747 3.09747
 3.19220 3.19220 3.21022 3.21022 3.31496 3.46487 3.46487 3.55235 3.55508 3.55508
 3.56454 3.66059 3.66059 3.69021 3.73102 3.76045 3.93147 3.93147 3.99952 3.99952
 4.12780 4.14583 4.14583 4.33512 4.43735 4.43735 8.25340 8.25340 8.33020 9.36330
 9.36330 10.00471 11.95060 14.72157
 ---------------------------------------------------------------------------
 VBM is at 86-th k-point with 7.49850 eV
 CBM is at 197-th k-point with 8.23134 eV
 Band gap is 0.73284 eV


           Ground-State Mulliken Net Atomic Charges

      Atom                 Charge (a.u.)          Spin (a.u.)
   --------------------------------------------------------
      1 Si               (0.000000,-0.000000)    (0.000000,0.000000)
      2 Si               (-0.000000,0.000000)    (0.000000,0.000000)
   --------------------------------------------------------
  Sum of atomic charges =      (-0.000000,0.000000)
  Sum of spin   charges =       (0.000000,0.000000)



 Total job time:  223.01 s.
 Tue Sep  9 03:13:48 2025


        *************************************************************
        *                                                           *
        *  Thank you very much for using QCPBC. Have a nice day.    *
        *                                                           *
        *************************************************************

Running job 1 of 1
