                  Welcome to Q-Chem
           with Periodic Boundary Condition
     A Quantum Leap Into The Future Of Chemistry

 Adam Rettig, Xintian Feng, Meng-Fu Chen, Hieu Dinh, Stephen Quiton,
 Anton Ni, Paul J. Robinson, Jinghong Zhang, Joonho Lee

Contributors to earlier versions of Q-Chem not listed above:
 Evgeny Epifanovsky, Leo Cunha, Jerome F. Gonthier, Kuan-Yu Liu
 Input file: /n/netscratch/joonholee_lab/Lab/hieudinh//si_2_ccpvqz_omega_0.3_121212.scratch20250909073444/si_2_ccpvqz_omega_0.3_121212.0
 Scratch folder: /n/netscratch/joonholee_lab/Lab/hieudinh//si_2_ccpvqz_omega_0.3_121212.scratch20250909073444
 Auxillary files located at: /n/holylabs/LABS/joonholee_lab/Lab/qchem_base/qcaux
 Q-Chem begins on Tue Sep  9 07:34:45 2025

 -------------------------------------------------------------
 User input:
 -------------------------------------------------------------
 $lattice
 3
 0.000000 5.130600 5.130600
 5.130600 0.000000 5.130600
 5.130600 5.130600 0.000000
 $end
 
 $unitcell
 ABSOLUTE
 0 1
 Si 0.000000 0.000000 0.000000
 Si 2.565300 2.565300 2.565300
 $end
 
 $rem
 jobtype = sp
 method = pbe
 scf_convergence = 5
 scf_guess = autosad
 scf_algorithm = diis_gdm
 basis = cc-pvqz
 aux_basis = cc-pvqz-jk
 input_bohr = true
 symmetry = false
 rsdf_print_level 1
 is_basis_uctr true
 
 mp_mesh = [12,12,12]
 
 integral_direct true
 bvk_cgto true
 
 thresh 14
 mem_total 1000000
 threads 32
 
 MAX_SCF_CYCLES 500
 madelung = false
 omega 0.3
 do_rij_bigmem true
 automate_g true
 print_level 10
 grid_type_xc 1
 
 thresh_1e2c_sp 1e-14
 thresh_2e3c_bra_ket_sep 1e-10
 thresh_g 1e-12
 $end
 
 -------------------------------------------------------------
 Running PBC job

 Requested Exchange Correlation Functionals: 
  DFT Exchange:  1.00000 pbe_x
  DFT Correlation:  1.00000 pbe_c
 using 32 threads for computing.
 ---------------------------------------------------------------
      Coordinates of Atoms in Central Unit Cell (Angstroms)
    I     Atom         X            Y            Z
 ---------------------------------------------------------------
    1      Si      0.000000     0.000000     0.000000
    2      Si      1.357498     1.357498     1.357498
 ---------------------------------------------------------------
 --------------------------------------------------
              Lattice Vectors (Angstroms)
              X            Y            Z
 --------------------------------------------------
   X       0.000000     2.714997     2.714997
   Y       2.714997     0.000000     2.714997
   Z       2.714997     2.714997     0.000000
 --------------------------------------------------
 --------------------------------------------------
       Reciprocal Lattice Vectors (Angstroms^-1)
              X            Y            Z
 --------------------------------------------------
   X      -1.157126     1.157126     1.157126
   Y       1.157126    -1.157126     1.157126
   Z       1.157126     1.157126    -1.157126
 --------------------------------------------------

 Single point calculation requested

 Hamiltonian contributions:
 List of terms in Hamiltonian: kpts_nn, kpts_kinetic, kpts_vnuc_df, kpts_xc, kpts_rij_bigmem

 K-Points calculation started.

 Basis set information about using solid harmonic (1) or Cartesian (0):
  si : D(1) D(1) D(1) F(1) F(1) G(1) 

 Basis set information about using solid harmonic (1) or Cartesian (0):
  si : D(1) D(1) D(1) D(1) D(1) D(1) D(1) D(1) D(1) F(1) F(1) F(1) F(1) G(1) G(1) H(1) 

 There are 118 basis functions in the central unit cell.
 Print atomic basis of atoms in the central unit cell:
 -------------------------------------------------------------
2 66 134 28

  0.00000000000000e+00  0.00000000000000e+00  0.00000000000000e+00
  2.56530000000000e+00  2.56530000000000e+00  2.56530000000000e+00

  5.13000000000000e+05
  7.68200000000000e+04
  1.74700000000000e+04
  4.93500000000000e+03
  1.60200000000000e+03
  5.74100000000000e+02
  2.21500000000000e+02
  9.05400000000000e+01
  3.87400000000000e+01
  1.69500000000000e+01
  6.45200000000000e+00
  2.87400000000000e+00
  1.25000000000000e+00
  3.59900000000000e-01
  1.69900000000000e-01
  7.06600000000000e-02
  1.12200000000000e+03
  2.66000000000000e+02
  8.59200000000000e+01
  3.23300000000000e+01
  1.33700000000000e+01
  5.80000000000000e+00
  2.55900000000000e+00
  1.12400000000000e+00
  3.98800000000000e-01
  1.53300000000000e-01
  5.72800000000000e-02
  7.60000000000000e-01
  3.02000000000000e-01
  1.20000000000000e-01
  5.41000000000000e-01
  2.12000000000000e-01
  4.61000000000000e-01
  5.13000000000000e+05
  7.68200000000000e+04
  1.74700000000000e+04
  4.93500000000000e+03
  1.60200000000000e+03
  5.74100000000000e+02
  2.21500000000000e+02
  9.05400000000000e+01
  3.87400000000000e+01
  1.69500000000000e+01
  6.45200000000000e+00
  2.87400000000000e+00
  1.25000000000000e+00
  3.59900000000000e-01
  1.69900000000000e-01
  7.06600000000000e-02
  1.12200000000000e+03
  2.66000000000000e+02
  8.59200000000000e+01
  3.23300000000000e+01
  1.33700000000000e+01
  5.80000000000000e+00
  2.55900000000000e+00
  1.12400000000000e+00
  3.98800000000000e-01
  1.53300000000000e-01
  5.72800000000000e-02
  7.60000000000000e-01
  3.02000000000000e-01
  1.20000000000000e-01
  5.41000000000000e-01
  2.12000000000000e-01
  4.61000000000000e-01

  3.56439732356011e-01
  6.67250935594825e-01
  1.15567538346971e+00
  1.89079471139597e+00
  2.92997535092854e+00
  4.25377897422013e+00
  5.53035652706994e+00
  5.88407857713363e+00
  4.26432221020809e+00
  1.46246852660687e+00
  9.90009037975635e-02
 -5.26805361731285e-03
  1.58075269248041e-03
 -9.63604858609034e-02
 -1.80140685379119e-01
 -3.12991611081079e-01
 -5.12013980868736e-01
 -8.03092560139717e-01
 -1.18597193899895e+00
 -1.63453354628192e+00
 -1.94138718043020e+00
 -1.86039340932271e+00
 -9.21642524314205e-01
  4.93552860211257e-01
  9.09065541611183e-01
  3.40430003714153e-01
  4.89002727192571e-02
  9.13245846186842e-02
  1.58921585782757e-01
  2.59526822498432e-01
  4.08347517411705e-01
  6.02266139654795e-01
  8.36774006155092e-01
  9.98775610751853e-01
  9.86583994360998e-01
  5.01500269670235e-01
 -2.91439000418814e-01
 -6.84883633703988e-01
 -4.85138432421684e-01
  3.31166560285492e-01
  1.88605835767988e-01
  9.76765512168845e-02
  4.17977074735086e+00
  5.88843070847456e+00
  7.44317185052013e+00
  8.05001094515016e+00
  6.97099017282640e+00
  4.33955185260449e+00
  1.76355858703549e+00
  3.34437932089088e-01
 -4.09551658476811e+00
 -5.70145272051300e+00
 -7.35388974061730e+00
 -7.93663059323219e+00
 -7.17813870370958e+00
 -4.42768957771269e+00
 -2.05517820096269e+00
 -1.72105843348797e-01
  4.51735295769850e-01
  1.36731249153695e-01
  3.99432914781939e-02
  1.01820035164008e+00
  2.02498404800701e-01
  4.02695370421242e-02
  3.69528803814005e-01
  4.48962571437413e-02
  1.32316184864580e-01
  3.56439732356011e-01
  6.67250935594825e-01
  1.15567538346971e+00
  1.89079471139597e+00
  2.92997535092854e+00
  4.25377897422013e+00
  5.53035652706994e+00
  5.88407857713363e+00
  4.26432221020809e+00
  1.46246852660687e+00
  9.90009037975635e-02
 -5.26805361731285e-03
  1.58075269248041e-03
 -9.63604858609034e-02
 -1.80140685379119e-01
 -3.12991611081079e-01
 -5.12013980868736e-01
 -8.03092560139717e-01
 -1.18597193899895e+00
 -1.63453354628192e+00
 -1.94138718043020e+00
 -1.86039340932271e+00
 -9.21642524314205e-01
  4.93552860211257e-01
  9.09065541611183e-01
  3.40430003714153e-01
  4.89002727192571e-02
  9.13245846186842e-02
  1.58921585782757e-01
  2.59526822498432e-01
  4.08347517411705e-01
  6.02266139654795e-01
  8.36774006155092e-01
  9.98775610751853e-01
  9.86583994360998e-01
  5.01500269670235e-01
 -2.91439000418814e-01
 -6.84883633703988e-01
 -4.85138432421684e-01
  3.31166560285492e-01
  1.88605835767988e-01
  9.76765512168845e-02
  4.17977074735086e+00
  5.88843070847456e+00
  7.44317185052013e+00
  8.05001094515016e+00
  6.97099017282640e+00
  4.33955185260449e+00
  1.76355858703549e+00
  3.34437932089088e-01
 -4.09551658476811e+00
 -5.70145272051300e+00
 -7.35388974061730e+00
 -7.93663059323219e+00
 -7.17813870370958e+00
 -4.42768957771269e+00
 -2.05517820096269e+00
 -1.72105843348797e-01
  4.51735295769850e-01
  1.36731249153695e-01
  3.99432914781939e-02
  1.01820035164008e+00
  2.02498404800701e-01
  4.02695370421242e-02
  3.69528803814005e-01
  4.48962571437413e-02
  1.32316184864580e-01

0 0 0 0 3 3 3
0 0 13 0 26 0 
13 0

0 3 3 13 1 1 1
39 0 
1 0

0 4 4 14 1 1 1
40 0 
1 0

0 5 5 15 1 1 1
41 0 
1 0

0 6 6 16 2 6 6
42 1 50 1 
8 0

0 12 12 24 1 3 3
58 1 
1 0

0 15 15 25 1 3 3
59 1 
1 0

0 18 18 26 1 3 3
60 1 
1 0

0 21 21 27 1 5 6
61 2 
1 1

0 26 26 28 1 5 6
62 2 
1 1

0 31 31 29 1 5 6
63 2 
1 1

0 36 36 30 1 7 10
64 3 
1 1

0 43 43 31 1 7 10
65 3 
1 1

0 50 50 32 1 9 15
66 4 
1 1

1 59 59 33 3 3 3
67 0 80 0 93 0 
13 0

1 62 62 46 1 1 1
106 0 
1 0

1 63 63 47 1 1 1
107 0 
1 0

1 64 64 48 1 1 1
108 0 
1 0

1 65 65 49 2 6 6
109 1 117 1 
8 0

1 71 71 57 1 3 3
125 1 
1 0

1 74 74 58 1 3 3
126 1 
1 0

1 77 77 59 1 3 3
127 1 
1 0

1 80 80 60 1 5 6
128 2 
1 1

1 85 85 61 1 5 6
129 2 
1 1

1 90 90 62 1 5 6
130 2 
1 1

1 95 95 63 1 7 10
131 3 
1 1

1 102 102 64 1 7 10
132 3 
1 1

1 109 109 65 1 9 15
133 4 
1 1

 -------------------------------------------------------------
 Allocate 265256 B from available memory: 1048576000000 B
 There are 2197 image cells after screening.
 There are 2061 image cells for CGTO evaluation after screening.
 Real-Space grid for FFT initialized based on kinetic energy cutoff (eV) = 500.0
 Real-Space grid for FFT: (10,10,10)
 There are 9261 real-space grid points.
 There are 64 batches of real-space grid points. 
 Size of each grid batch is around 128
 Grid for AFT initialized based on kinetic energy cutoff (eV) = 500.0
 Real-Space grid for AFT: (10,10,10)
 There are 9261 real-space grid points.

 There are 5628 atom-centered grid points.

 Spacegroup symmetry group: Fd-3m
 Reducing spacegroup symmetry to symmorphic group: F -4 3 m
 Monkhorst-Pack mesh is [12,12,12]
 There are 1728 k points.
kpoints in Bohr
-0.2551352549 -0.2551352549 -0.2551352549
-0.2041082040 -0.2041082040 -0.3061623059
-0.1530811530 -0.1530811530 -0.3571893569
-0.1020541020 -0.1020541020 -0.4082164079
-0.0510270510 -0.0510270510 -0.4592434589
-0.0000000000 -0.0000000000 -0.5102705099
0.0510270510 0.0510270510 -0.5612975609
0.1020541020 0.1020541020 -0.6123246119
0.1530811530 0.1530811530 -0.6633516628
0.2041082040 0.2041082040 -0.7143787138
0.2551352549 0.2551352549 -0.7654057648
0.3061623059 0.3061623059 -0.8164328158
-0.2041082040 -0.3061623059 -0.2041082040
-0.1530811530 -0.2551352549 -0.2551352549
-0.1020541020 -0.2041082040 -0.3061623059
-0.0510270510 -0.1530811530 -0.3571893569
-0.0000000000 -0.1020541020 -0.4082164079
0.0510270510 -0.0510270510 -0.4592434589
0.1020541020 -0.0000000000 -0.5102705099
0.1530811530 0.0510270510 -0.5612975609
0.2041082040 0.1020541020 -0.6123246119
0.2551352549 0.1530811530 -0.6633516628
0.3061623059 0.2041082040 -0.7143787138
0.3571893569 0.2551352549 -0.7654057648
-0.1530811530 -0.3571893569 -0.1530811530
-0.1020541020 -0.3061623059 -0.2041082040
-0.0510270510 -0.2551352549 -0.2551352549
-0.0000000000 -0.2041082040 -0.3061623059
0.0510270510 -0.1530811530 -0.3571893569
0.1020541020 -0.1020541020 -0.4082164079
0.1530811530 -0.0510270510 -0.4592434589
0.2041082040 -0.0000000000 -0.5102705099
0.2551352549 0.0510270510 -0.5612975609
0.3061623059 0.1020541020 -0.6123246119
0.3571893569 0.1530811530 -0.6633516628
0.4082164079 0.2041082040 -0.7143787138
-0.1020541020 -0.4082164079 -0.1020541020
-0.0510270510 -0.3571893569 -0.1530811530
-0.0000000000 -0.3061623059 -0.2041082040
0.0510270510 -0.2551352549 -0.2551352549
0.1020541020 -0.2041082040 -0.3061623059
0.1530811530 -0.1530811530 -0.3571893569
0.2041082040 -0.1020541020 -0.4082164079
0.2551352549 -0.0510270510 -0.4592434589
0.3061623059 -0.0000000000 -0.5102705099
0.3571893569 0.0510270510 -0.5612975609
0.4082164079 0.1020541020 -0.6123246119
0.4592434589 0.1530811530 -0.6633516628
-0.0510270510 -0.4592434589 -0.0510270510
-0.0000000000 -0.4082164079 -0.1020541020
0.0510270510 -0.3571893569 -0.1530811530
0.1020541020 -0.3061623059 -0.2041082040
0.1530811530 -0.2551352549 -0.2551352549
0.2041082040 -0.2041082040 -0.3061623059
0.2551352549 -0.1530811530 -0.3571893569
0.3061623059 -0.1020541020 -0.4082164079
0.3571893569 -0.0510270510 -0.4592434589
0.4082164079 0.0000000000 -0.5102705099
0.4592434589 0.0510270510 -0.5612975609
0.5102705099 0.1020541020 -0.6123246119
-0.0000000000 -0.5102705099 0.0000000000
0.0510270510 -0.4592434589 -0.0510270510
0.1020541020 -0.4082164079 -0.1020541020
0.1530811530 -0.3571893569 -0.1530811530
0.2041082040 -0.3061623059 -0.2041082040
0.2551352549 -0.2551352549 -0.2551352549
0.3061623059 -0.2041082040 -0.3061623059
0.3571893569 -0.1530811530 -0.3571893569
0.4082164079 -0.1020541020 -0.4082164079
0.4592434589 -0.0510270510 -0.4592434589
0.5102705099 0.0000000000 -0.5102705099
0.5612975609 0.0510270510 -0.5612975609
0.0510270510 -0.5612975609 0.0510270510
0.1020541020 -0.5102705099 0.0000000000
0.1530811530 -0.4592434589 -0.0510270510
0.2041082040 -0.4082164079 -0.1020541020
0.2551352549 -0.3571893569 -0.1530811530
0.3061623059 -0.3061623059 -0.2041082040
0.3571893569 -0.2551352549 -0.2551352549
0.4082164079 -0.2041082040 -0.3061623059
0.4592434589 -0.1530811530 -0.3571893569
0.5102705099 -0.1020541020 -0.4082164079
0.5612975609 -0.0510270510 -0.4592434589
0.6123246119 0.0000000000 -0.5102705099
0.1020541020 -0.6123246119 0.1020541020
0.1530811530 -0.5612975609 0.0510270510
0.2041082040 -0.5102705099 0.0000000000
0.2551352549 -0.4592434589 -0.0510270510
0.3061623059 -0.4082164079 -0.1020541020
0.3571893569 -0.3571893569 -0.1530811530
0.4082164079 -0.3061623059 -0.2041082040
0.4592434589 -0.2551352549 -0.2551352549
0.5102705099 -0.2041082040 -0.3061623059
0.5612975609 -0.1530811530 -0.3571893569
0.6123246119 -0.1020541020 -0.4082164079
0.6633516628 -0.0510270510 -0.4592434589
0.1530811530 -0.6633516628 0.1530811530
0.2041082040 -0.6123246119 0.1020541020
0.2551352549 -0.5612975609 0.0510270510
0.3061623059 -0.5102705099 0.0000000000
0.3571893569 -0.4592434589 -0.0510270510
0.4082164079 -0.4082164079 -0.1020541020
0.4592434589 -0.3571893569 -0.1530811530
0.5102705099 -0.3061623059 -0.2041082040
0.5612975609 -0.2551352549 -0.2551352549
0.6123246119 -0.2041082040 -0.3061623059
0.6633516628 -0.1530811530 -0.3571893569
0.7143787138 -0.1020541020 -0.4082164079
0.2041082040 -0.7143787138 0.2041082040
0.2551352549 -0.6633516628 0.1530811530
0.3061623059 -0.6123246119 0.1020541020
0.3571893569 -0.5612975609 0.0510270510
0.4082164079 -0.5102705099 0.0000000000
0.4592434589 -0.4592434589 -0.0510270510
0.5102705099 -0.4082164079 -0.1020541020
0.5612975609 -0.3571893569 -0.1530811530
0.6123246119 -0.3061623059 -0.2041082040
0.6633516628 -0.2551352549 -0.2551352549
0.7143787138 -0.2041082040 -0.3061623059
0.7654057648 -0.1530811530 -0.3571893569
0.2551352549 -0.7654057648 0.2551352549
0.3061623059 -0.7143787138 0.2041082040
0.3571893569 -0.6633516628 0.1530811530
0.4082164079 -0.6123246119 0.1020541020
0.4592434589 -0.5612975609 0.0510270510
0.5102705099 -0.5102705099 0.0000000000
0.5612975609 -0.4592434589 -0.0510270510
0.6123246119 -0.4082164079 -0.1020541020
0.6633516628 -0.3571893569 -0.1530811530
0.7143787138 -0.3061623059 -0.2041082040
0.7654057648 -0.2551352549 -0.2551352549
0.8164328158 -0.2041082040 -0.3061623059
0.3061623059 -0.8164328158 0.3061623059
0.3571893569 -0.7654057648 0.2551352549
0.4082164079 -0.7143787138 0.2041082040
0.4592434589 -0.6633516628 0.1530811530
0.5102705099 -0.6123246119 0.1020541020
0.5612975609 -0.5612975609 0.0510270510
0.6123246119 -0.5102705099 0.0000000000
0.6633516628 -0.4592434589 -0.0510270510
0.7143787138 -0.4082164079 -0.1020541020
0.7654057648 -0.3571893569 -0.1530811530
0.8164328158 -0.3061623059 -0.2041082040
0.8674598668 -0.2551352549 -0.2551352549
-0.3061623059 -0.2041082040 -0.2041082040
-0.2551352549 -0.1530811530 -0.2551352549
-0.2041082040 -0.1020541020 -0.3061623059
-0.1530811530 -0.0510270510 -0.3571893569
-0.1020541020 -0.0000000000 -0.4082164079
-0.0510270510 0.0510270510 -0.4592434589
-0.0000000000 0.1020541020 -0.5102705099
0.0510270510 0.1530811530 -0.5612975609
0.1020541020 0.2041082040 -0.6123246119
0.1530811530 0.2551352549 -0.6633516628
0.2041082040 0.3061623059 -0.7143787138
0.2551352549 0.3571893569 -0.7654057648
-0.2551352549 -0.2551352549 -0.1530811530
-0.2041082040 -0.2041082040 -0.2041082040
-0.1530811530 -0.1530811530 -0.2551352549
-0.1020541020 -0.1020541020 -0.3061623059
-0.0510270510 -0.0510270510 -0.3571893569
-0.0000000000 -0.0000000000 -0.4082164079
0.0510270510 0.0510270510 -0.4592434589
0.1020541020 0.1020541020 -0.5102705099
0.1530811530 0.1530811530 -0.5612975609
0.2041082040 0.2041082040 -0.6123246119
0.2551352549 0.2551352549 -0.6633516628
0.3061623059 0.3061623059 -0.7143787138
-0.2041082040 -0.3061623059 -0.1020541020
-0.1530811530 -0.2551352549 -0.1530811530
-0.1020541020 -0.2041082040 -0.2041082040
-0.0510270510 -0.1530811530 -0.2551352549
-0.0000000000 -0.1020541020 -0.3061623059
0.0510270510 -0.0510270510 -0.3571893569
0.1020541020 -0.0000000000 -0.4082164079
0.1530811530 0.0510270510 -0.4592434589
0.2041082040 0.1020541020 -0.5102705099
0.2551352549 0.1530811530 -0.5612975609
0.3061623059 0.2041082040 -0.6123246119
0.3571893569 0.2551352549 -0.6633516628
-0.1530811530 -0.3571893569 -0.0510270510
-0.1020541020 -0.3061623059 -0.1020541020
-0.0510270510 -0.2551352549 -0.1530811530
-0.0000000000 -0.2041082040 -0.2041082040
0.0510270510 -0.1530811530 -0.2551352549
0.1020541020 -0.1020541020 -0.3061623059
0.1530811530 -0.0510270510 -0.3571893569
0.2041082040 -0.0000000000 -0.4082164079
0.2551352549 0.0510270510 -0.4592434589
0.3061623059 0.1020541020 -0.5102705099
0.3571893569 0.1530811530 -0.5612975609
0.4082164079 0.2041082040 -0.6123246119
-0.1020541020 -0.4082164079 0.0000000000
-0.0510270510 -0.3571893569 -0.0510270510
-0.0000000000 -0.3061623059 -0.1020541020
0.0510270510 -0.2551352549 -0.1530811530
0.1020541020 -0.2041082040 -0.2041082040
0.1530811530 -0.1530811530 -0.2551352549
0.2041082040 -0.1020541020 -0.3061623059
0.2551352549 -0.0510270510 -0.3571893569
0.3061623059 0.0000000000 -0.4082164079
0.3571893569 0.0510270510 -0.4592434589
0.4082164079 0.1020541020 -0.5102705099
0.4592434589 0.1530811530 -0.5612975609
-0.0510270510 -0.4592434589 0.0510270510
-0.0000000000 -0.4082164079 0.0000000000
0.0510270510 -0.3571893569 -0.0510270510
0.1020541020 -0.3061623059 -0.1020541020
0.1530811530 -0.2551352549 -0.1530811530
0.2041082040 -0.2041082040 -0.2041082040
0.2551352549 -0.1530811530 -0.2551352549
0.3061623059 -0.1020541020 -0.3061623059
0.3571893569 -0.0510270510 -0.3571893569
0.4082164079 0.0000000000 -0.4082164079
0.4592434589 0.0510270510 -0.4592434589
0.5102705099 0.1020541020 -0.5102705099
-0.0000000000 -0.5102705099 0.1020541020
0.0510270510 -0.4592434589 0.0510270510
0.1020541020 -0.4082164079 0.0000000000
0.1530811530 -0.3571893569 -0.0510270510
0.2041082040 -0.3061623059 -0.1020541020
0.2551352549 -0.2551352549 -0.1530811530
0.3061623059 -0.2041082040 -0.2041082040
0.3571893569 -0.1530811530 -0.2551352549
0.4082164079 -0.1020541020 -0.3061623059
0.4592434589 -0.0510270510 -0.3571893569
0.5102705099 0.0000000000 -0.4082164079
0.5612975609 0.0510270510 -0.4592434589
0.0510270510 -0.5612975609 0.1530811530
0.1020541020 -0.5102705099 0.1020541020
0.1530811530 -0.4592434589 0.0510270510
0.2041082040 -0.4082164079 0.0000000000
0.2551352549 -0.3571893569 -0.0510270510
0.3061623059 -0.3061623059 -0.1020541020
0.3571893569 -0.2551352549 -0.1530811530
0.4082164079 -0.2041082040 -0.2041082040
0.4592434589 -0.1530811530 -0.2551352549
0.5102705099 -0.1020541020 -0.3061623059
0.5612975609 -0.0510270510 -0.3571893569
0.6123246119 0.0000000000 -0.4082164079
0.1020541020 -0.6123246119 0.2041082040
0.1530811530 -0.5612975609 0.1530811530
0.2041082040 -0.5102705099 0.1020541020
0.2551352549 -0.4592434589 0.0510270510
0.3061623059 -0.4082164079 0.0000000000
0.3571893569 -0.3571893569 -0.0510270510
0.4082164079 -0.3061623059 -0.1020541020
0.4592434589 -0.2551352549 -0.1530811530
0.5102705099 -0.2041082040 -0.2041082040
0.5612975609 -0.1530811530 -0.2551352549
0.6123246119 -0.1020541020 -0.3061623059
0.6633516628 -0.0510270510 -0.3571893569
0.1530811530 -0.6633516628 0.2551352549
0.2041082040 -0.6123246119 0.2041082040
0.2551352549 -0.5612975609 0.1530811530
0.3061623059 -0.5102705099 0.1020541020
0.3571893569 -0.4592434589 0.0510270510
0.4082164079 -0.4082164079 0.0000000000
0.4592434589 -0.3571893569 -0.0510270510
0.5102705099 -0.3061623059 -0.1020541020
0.5612975609 -0.2551352549 -0.1530811530
0.6123246119 -0.2041082040 -0.2041082040
0.6633516628 -0.1530811530 -0.2551352549
0.7143787138 -0.1020541020 -0.3061623059
0.2041082040 -0.7143787138 0.3061623059
0.2551352549 -0.6633516628 0.2551352549
0.3061623059 -0.6123246119 0.2041082040
0.3571893569 -0.5612975609 0.1530811530
0.4082164079 -0.5102705099 0.1020541020
0.4592434589 -0.4592434589 0.0510270510
0.5102705099 -0.4082164079 0.0000000000
0.5612975609 -0.3571893569 -0.0510270510
0.6123246119 -0.3061623059 -0.1020541020
0.6633516628 -0.2551352549 -0.1530811530
0.7143787138 -0.2041082040 -0.2041082040
0.7654057648 -0.1530811530 -0.2551352549
0.2551352549 -0.7654057648 0.3571893569
0.3061623059 -0.7143787138 0.3061623059
0.3571893569 -0.6633516628 0.2551352549
0.4082164079 -0.6123246119 0.2041082040
0.4592434589 -0.5612975609 0.1530811530
0.5102705099 -0.5102705099 0.1020541020
0.5612975609 -0.4592434589 0.0510270510
0.6123246119 -0.4082164079 0.0000000000
0.6633516628 -0.3571893569 -0.0510270510
0.7143787138 -0.3061623059 -0.1020541020
0.7654057648 -0.2551352549 -0.1530811530
0.8164328158 -0.2041082040 -0.2041082040
-0.3571893569 -0.1530811530 -0.1530811530
-0.3061623059 -0.1020541020 -0.2041082040
-0.2551352549 -0.0510270510 -0.2551352549
-0.2041082040 -0.0000000000 -0.3061623059
-0.1530811530 0.0510270510 -0.3571893569
-0.1020541020 0.1020541020 -0.4082164079
-0.0510270510 0.1530811530 -0.4592434589
-0.0000000000 0.2041082040 -0.5102705099
0.0510270510 0.2551352549 -0.5612975609
0.1020541020 0.3061623059 -0.6123246119
0.1530811530 0.3571893569 -0.6633516628
0.2041082040 0.4082164079 -0.7143787138
-0.3061623059 -0.2041082040 -0.1020541020
-0.2551352549 -0.1530811530 -0.1530811530
-0.2041082040 -0.1020541020 -0.2041082040
-0.1530811530 -0.0510270510 -0.2551352549
-0.1020541020 -0.0000000000 -0.3061623059
-0.0510270510 0.0510270510 -0.3571893569
-0.0000000000 0.1020541020 -0.4082164079
0.0510270510 0.1530811530 -0.4592434589
0.1020541020 0.2041082040 -0.5102705099
0.1530811530 0.2551352549 -0.5612975609
0.2041082040 0.3061623059 -0.6123246119
0.2551352549 0.3571893569 -0.6633516628
-0.2551352549 -0.2551352549 -0.0510270510
-0.2041082040 -0.2041082040 -0.1020541020
-0.1530811530 -0.1530811530 -0.1530811530
-0.1020541020 -0.1020541020 -0.2041082040
-0.0510270510 -0.0510270510 -0.2551352549
-0.0000000000 -0.0000000000 -0.3061623059
0.0510270510 0.0510270510 -0.3571893569
0.1020541020 0.1020541020 -0.4082164079
0.1530811530 0.1530811530 -0.4592434589
0.2041082040 0.2041082040 -0.5102705099
0.2551352549 0.2551352549 -0.5612975609
0.3061623059 0.3061623059 -0.6123246119
-0.2041082040 -0.3061623059 -0.0000000000
-0.1530811530 -0.2551352549 -0.0510270510
-0.1020541020 -0.2041082040 -0.1020541020
-0.0510270510 -0.1530811530 -0.1530811530
-0.0000000000 -0.1020541020 -0.2041082040
0.0510270510 -0.0510270510 -0.2551352549
0.1020541020 -0.0000000000 -0.3061623059
0.1530811530 0.0510270510 -0.3571893569
0.2041082040 0.1020541020 -0.4082164079
0.2551352549 0.1530811530 -0.4592434589
0.3061623059 0.2041082040 -0.5102705099
0.3571893569 0.2551352549 -0.5612975609
-0.1530811530 -0.3571893569 0.0510270510
-0.1020541020 -0.3061623059 -0.0000000000
-0.0510270510 -0.2551352549 -0.0510270510
-0.0000000000 -0.2041082040 -0.1020541020
0.0510270510 -0.1530811530 -0.1530811530
0.1020541020 -0.1020541020 -0.2041082040
0.1530811530 -0.0510270510 -0.2551352549
0.2041082040 -0.0000000000 -0.3061623059
0.2551352549 0.0510270510 -0.3571893569
0.3061623059 0.1020541020 -0.4082164079
0.3571893569 0.1530811530 -0.4592434589
0.4082164079 0.2041082040 -0.5102705099
-0.1020541020 -0.4082164079 0.1020541020
-0.0510270510 -0.3571893569 0.0510270510
-0.0000000000 -0.3061623059 0.0000000000
0.0510270510 -0.2551352549 -0.0510270510
0.1020541020 -0.2041082040 -0.1020541020
0.1530811530 -0.1530811530 -0.1530811530
0.2041082040 -0.1020541020 -0.2041082040
0.2551352549 -0.0510270510 -0.2551352549
0.3061623059 0.0000000000 -0.3061623059
0.3571893569 0.0510270510 -0.3571893569
0.4082164079 0.1020541020 -0.4082164079
0.4592434589 0.1530811530 -0.4592434589
-0.0510270510 -0.4592434589 0.1530811530
-0.0000000000 -0.4082164079 0.1020541020
0.0510270510 -0.3571893569 0.0510270510
0.1020541020 -0.3061623059 0.0000000000
0.1530811530 -0.2551352549 -0.0510270510
0.2041082040 -0.2041082040 -0.1020541020
0.2551352549 -0.1530811530 -0.1530811530
0.3061623059 -0.1020541020 -0.2041082040
0.3571893569 -0.0510270510 -0.2551352549
0.4082164079 0.0000000000 -0.3061623059
0.4592434589 0.0510270510 -0.3571893569
0.5102705099 0.1020541020 -0.4082164079
-0.0000000000 -0.5102705099 0.2041082040
0.0510270510 -0.4592434589 0.1530811530
0.1020541020 -0.4082164079 0.1020541020
0.1530811530 -0.3571893569 0.0510270510
0.2041082040 -0.3061623059 0.0000000000
0.2551352549 -0.2551352549 -0.0510270510
0.3061623059 -0.2041082040 -0.1020541020
0.3571893569 -0.1530811530 -0.1530811530
0.4082164079 -0.1020541020 -0.2041082040
0.4592434589 -0.0510270510 -0.2551352549
0.5102705099 0.0000000000 -0.3061623059
0.5612975609 0.0510270510 -0.3571893569
0.0510270510 -0.5612975609 0.2551352549
0.1020541020 -0.5102705099 0.2041082040
0.1530811530 -0.4592434589 0.1530811530
0.2041082040 -0.4082164079 0.1020541020
0.2551352549 -0.3571893569 0.0510270510
0.3061623059 -0.3061623059 0.0000000000
0.3571893569 -0.2551352549 -0.0510270510
0.4082164079 -0.2041082040 -0.1020541020
0.4592434589 -0.1530811530 -0.1530811530
0.5102705099 -0.1020541020 -0.2041082040
0.5612975609 -0.0510270510 -0.2551352549
0.6123246119 0.0000000000 -0.3061623059
0.1020541020 -0.6123246119 0.3061623059
0.1530811530 -0.5612975609 0.2551352549
0.2041082040 -0.5102705099 0.2041082040
0.2551352549 -0.4592434589 0.1530811530
0.3061623059 -0.4082164079 0.1020541020
0.3571893569 -0.3571893569 0.0510270510
0.4082164079 -0.3061623059 0.0000000000
0.4592434589 -0.2551352549 -0.0510270510
0.5102705099 -0.2041082040 -0.1020541020
0.5612975609 -0.1530811530 -0.1530811530
0.6123246119 -0.1020541020 -0.2041082040
0.6633516628 -0.0510270510 -0.2551352549
0.1530811530 -0.6633516628 0.3571893569
0.2041082040 -0.6123246119 0.3061623059
0.2551352549 -0.5612975609 0.2551352549
0.3061623059 -0.5102705099 0.2041082040
0.3571893569 -0.4592434589 0.1530811530
0.4082164079 -0.4082164079 0.1020541020
0.4592434589 -0.3571893569 0.0510270510
0.5102705099 -0.3061623059 0.0000000000
0.5612975609 -0.2551352549 -0.0510270510
0.6123246119 -0.2041082040 -0.1020541020
0.6633516628 -0.1530811530 -0.1530811530
0.7143787138 -0.1020541020 -0.2041082040
0.2041082040 -0.7143787138 0.4082164079
0.2551352549 -0.6633516628 0.3571893569
0.3061623059 -0.6123246119 0.3061623059
0.3571893569 -0.5612975609 0.2551352549
0.4082164079 -0.5102705099 0.2041082040
0.4592434589 -0.4592434589 0.1530811530
0.5102705099 -0.4082164079 0.1020541020
0.5612975609 -0.3571893569 0.0510270510
0.6123246119 -0.3061623059 0.0000000000
0.6633516628 -0.2551352549 -0.0510270510
0.7143787138 -0.2041082040 -0.1020541020
0.7654057648 -0.1530811530 -0.1530811530
-0.4082164079 -0.1020541020 -0.1020541020
-0.3571893569 -0.0510270510 -0.1530811530
-0.3061623059 -0.0000000000 -0.2041082040
-0.2551352549 0.0510270510 -0.2551352549
-0.2041082040 0.1020541020 -0.3061623059
-0.1530811530 0.1530811530 -0.3571893569
-0.1020541020 0.2041082040 -0.4082164079
-0.0510270510 0.2551352549 -0.4592434589
0.0000000000 0.3061623059 -0.5102705099
0.0510270510 0.3571893569 -0.5612975609
0.1020541020 0.4082164079 -0.6123246119
0.1530811530 0.4592434589 -0.6633516628
-0.3571893569 -0.1530811530 -0.0510270510
-0.3061623059 -0.1020541020 -0.1020541020
-0.2551352549 -0.0510270510 -0.1530811530
-0.2041082040 -0.0000000000 -0.2041082040
-0.1530811530 0.0510270510 -0.2551352549
-0.1020541020 0.1020541020 -0.3061623059
-0.0510270510 0.1530811530 -0.3571893569
0.0000000000 0.2041082040 -0.4082164079
0.0510270510 0.2551352549 -0.4592434589
0.1020541020 0.3061623059 -0.5102705099
0.1530811530 0.3571893569 -0.5612975609
0.2041082040 0.4082164079 -0.6123246119
-0.3061623059 -0.2041082040 -0.0000000000
-0.2551352549 -0.1530811530 -0.0510270510
-0.2041082040 -0.1020541020 -0.1020541020
-0.1530811530 -0.0510270510 -0.1530811530
-0.1020541020 -0.0000000000 -0.2041082040
-0.0510270510 0.0510270510 -0.2551352549
-0.0000000000 0.1020541020 -0.3061623059
0.0510270510 0.1530811530 -0.3571893569
0.1020541020 0.2041082040 -0.4082164079
0.1530811530 0.2551352549 -0.4592434589
0.2041082040 0.3061623059 -0.5102705099
0.2551352549 0.3571893569 -0.5612975609
-0.2551352549 -0.2551352549 0.0510270510
-0.2041082040 -0.2041082040 -0.0000000000
-0.1530811530 -0.1530811530 -0.0510270510
-0.1020541020 -0.1020541020 -0.1020541020
-0.0510270510 -0.0510270510 -0.1530811530
-0.0000000000 -0.0000000000 -0.2041082040
0.0510270510 0.0510270510 -0.2551352549
0.1020541020 0.1020541020 -0.3061623059
0.1530811530 0.1530811530 -0.3571893569
0.2041082040 0.2041082040 -0.4082164079
0.2551352549 0.2551352549 -0.4592434589
0.3061623059 0.3061623059 -0.5102705099
-0.2041082040 -0.3061623059 0.1020541020
-0.1530811530 -0.2551352549 0.0510270510
-0.1020541020 -0.2041082040 -0.0000000000
-0.0510270510 -0.1530811530 -0.0510270510
-0.0000000000 -0.1020541020 -0.1020541020
0.0510270510 -0.0510270510 -0.1530811530
0.1020541020 -0.0000000000 -0.2041082040
0.1530811530 0.0510270510 -0.2551352549
0.2041082040 0.1020541020 -0.3061623059
0.2551352549 0.1530811530 -0.3571893569
0.3061623059 0.2041082040 -0.4082164079
0.3571893569 0.2551352549 -0.4592434589
-0.1530811530 -0.3571893569 0.1530811530
-0.1020541020 -0.3061623059 0.1020541020
-0.0510270510 -0.2551352549 0.0510270510
-0.0000000000 -0.2041082040 0.0000000000
0.0510270510 -0.1530811530 -0.0510270510
0.1020541020 -0.1020541020 -0.1020541020
0.1530811530 -0.0510270510 -0.1530811530
0.2041082040 -0.0000000000 -0.2041082040
0.2551352549 0.0510270510 -0.2551352549
0.3061623059 0.1020541020 -0.3061623059
0.3571893569 0.1530811530 -0.3571893569
0.4082164079 0.2041082040 -0.4082164079
-0.1020541020 -0.4082164079 0.2041082040
-0.0510270510 -0.3571893569 0.1530811530
-0.0000000000 -0.3061623059 0.1020541020
0.0510270510 -0.2551352549 0.0510270510
0.1020541020 -0.2041082040 0.0000000000
0.1530811530 -0.1530811530 -0.0510270510
0.2041082040 -0.1020541020 -0.1020541020
0.2551352549 -0.0510270510 -0.1530811530
0.3061623059 0.0000000000 -0.2041082040
0.3571893569 0.0510270510 -0.2551352549
0.4082164079 0.1020541020 -0.3061623059
0.4592434589 0.1530811530 -0.3571893569
-0.0510270510 -0.4592434589 0.2551352549
-0.0000000000 -0.4082164079 0.2041082040
0.0510270510 -0.3571893569 0.1530811530
0.1020541020 -0.3061623059 0.1020541020
0.1530811530 -0.2551352549 0.0510270510
0.2041082040 -0.2041082040 0.0000000000
0.2551352549 -0.1530811530 -0.0510270510
0.3061623059 -0.1020541020 -0.1020541020
0.3571893569 -0.0510270510 -0.1530811530
0.4082164079 0.0000000000 -0.2041082040
0.4592434589 0.0510270510 -0.2551352549
0.5102705099 0.1020541020 -0.3061623059
-0.0000000000 -0.5102705099 0.3061623059
0.0510270510 -0.4592434589 0.2551352549
0.1020541020 -0.4082164079 0.2041082040
0.1530811530 -0.3571893569 0.1530811530
0.2041082040 -0.3061623059 0.1020541020
0.2551352549 -0.2551352549 0.0510270510
0.3061623059 -0.2041082040 0.0000000000
0.3571893569 -0.1530811530 -0.0510270510
0.4082164079 -0.1020541020 -0.1020541020
0.4592434589 -0.0510270510 -0.1530811530
0.5102705099 0.0000000000 -0.2041082040
0.5612975609 0.0510270510 -0.2551352549
0.0510270510 -0.5612975609 0.3571893569
0.1020541020 -0.5102705099 0.3061623059
0.1530811530 -0.4592434589 0.2551352549
0.2041082040 -0.4082164079 0.2041082040
0.2551352549 -0.3571893569 0.1530811530
0.3061623059 -0.3061623059 0.1020541020
0.3571893569 -0.2551352549 0.0510270510
0.4082164079 -0.2041082040 0.0000000000
0.4592434589 -0.1530811530 -0.0510270510
0.5102705099 -0.1020541020 -0.1020541020
0.5612975609 -0.0510270510 -0.1530811530
0.6123246119 0.0000000000 -0.2041082040
0.1020541020 -0.6123246119 0.4082164079
0.1530811530 -0.5612975609 0.3571893569
0.2041082040 -0.5102705099 0.3061623059
0.2551352549 -0.4592434589 0.2551352549
0.3061623059 -0.4082164079 0.2041082040
0.3571893569 -0.3571893569 0.1530811530
0.4082164079 -0.3061623059 0.1020541020
0.4592434589 -0.2551352549 0.0510270510
0.5102705099 -0.2041082040 0.0000000000
0.5612975609 -0.1530811530 -0.0510270510
0.6123246119 -0.1020541020 -0.1020541020
0.6633516628 -0.0510270510 -0.1530811530
0.1530811530 -0.6633516628 0.4592434589
0.2041082040 -0.6123246119 0.4082164079
0.2551352549 -0.5612975609 0.3571893569
0.3061623059 -0.5102705099 0.3061623059
0.3571893569 -0.4592434589 0.2551352549
0.4082164079 -0.4082164079 0.2041082040
0.4592434589 -0.3571893569 0.1530811530
0.5102705099 -0.3061623059 0.1020541020
0.5612975609 -0.2551352549 0.0510270510
0.6123246119 -0.2041082040 0.0000000000
0.6633516628 -0.1530811530 -0.0510270510
0.7143787138 -0.1020541020 -0.1020541020
-0.4592434589 -0.0510270510 -0.0510270510
-0.4082164079 -0.0000000000 -0.1020541020
-0.3571893569 0.0510270510 -0.1530811530
-0.3061623059 0.1020541020 -0.2041082040
-0.2551352549 0.1530811530 -0.2551352549
-0.2041082040 0.2041082040 -0.3061623059
-0.1530811530 0.2551352549 -0.3571893569
-0.1020541020 0.3061623059 -0.4082164079
-0.0510270510 0.3571893569 -0.4592434589
0.0000000000 0.4082164079 -0.5102705099
0.0510270510 0.4592434589 -0.5612975609
0.1020541020 0.5102705099 -0.6123246119
-0.4082164079 -0.1020541020 -0.0000000000
-0.3571893569 -0.0510270510 -0.0510270510
-0.3061623059 -0.0000000000 -0.1020541020
-0.2551352549 0.0510270510 -0.1530811530
-0.2041082040 0.1020541020 -0.2041082040
-0.1530811530 0.1530811530 -0.2551352549
-0.1020541020 0.2041082040 -0.3061623059
-0.0510270510 0.2551352549 -0.3571893569
0.0000000000 0.3061623059 -0.4082164079
0.0510270510 0.3571893569 -0.4592434589
0.1020541020 0.4082164079 -0.5102705099
0.1530811530 0.4592434589 -0.5612975609
-0.3571893569 -0.1530811530 0.0510270510
-0.3061623059 -0.1020541020 -0.0000000000
-0.2551352549 -0.0510270510 -0.0510270510
-0.2041082040 -0.0000000000 -0.1020541020
-0.1530811530 0.0510270510 -0.1530811530
-0.1020541020 0.1020541020 -0.2041082040
-0.0510270510 0.1530811530 -0.2551352549
0.0000000000 0.2041082040 -0.3061623059
0.0510270510 0.2551352549 -0.3571893569
0.1020541020 0.3061623059 -0.4082164079
0.1530811530 0.3571893569 -0.4592434589
0.2041082040 0.4082164079 -0.5102705099
-0.3061623059 -0.2041082040 0.1020541020
-0.2551352549 -0.1530811530 0.0510270510
-0.2041082040 -0.1020541020 -0.0000000000
-0.1530811530 -0.0510270510 -0.0510270510
-0.1020541020 -0.0000000000 -0.1020541020
-0.0510270510 0.0510270510 -0.1530811530
-0.0000000000 0.1020541020 -0.2041082040
0.0510270510 0.1530811530 -0.2551352549
0.1020541020 0.2041082040 -0.3061623059
0.1530811530 0.2551352549 -0.3571893569
0.2041082040 0.3061623059 -0.4082164079
0.2551352549 0.3571893569 -0.4592434589
-0.2551352549 -0.2551352549 0.1530811530
-0.2041082040 -0.2041082040 0.1020541020
-0.1530811530 -0.1530811530 0.0510270510
-0.1020541020 -0.1020541020 -0.0000000000
-0.0510270510 -0.0510270510 -0.0510270510
-0.0000000000 -0.0000000000 -0.1020541020
0.0510270510 0.0510270510 -0.1530811530
0.1020541020 0.1020541020 -0.2041082040
0.1530811530 0.1530811530 -0.2551352549
0.2041082040 0.2041082040 -0.3061623059
0.2551352549 0.2551352549 -0.3571893569
0.3061623059 0.3061623059 -0.4082164079
-0.2041082040 -0.3061623059 0.2041082040
-0.1530811530 -0.2551352549 0.1530811530
-0.1020541020 -0.2041082040 0.1020541020
-0.0510270510 -0.1530811530 0.0510270510
-0.0000000000 -0.1020541020 0.0000000000
0.0510270510 -0.0510270510 -0.0510270510
0.1020541020 -0.0000000000 -0.1020541020
0.1530811530 0.0510270510 -0.1530811530
0.2041082040 0.1020541020 -0.2041082040
0.2551352549 0.1530811530 -0.2551352549
0.3061623059 0.2041082040 -0.3061623059
0.3571893569 0.2551352549 -0.3571893569
-0.1530811530 -0.3571893569 0.2551352549
-0.1020541020 -0.3061623059 0.2041082040
-0.0510270510 -0.2551352549 0.1530811530
-0.0000000000 -0.2041082040 0.1020541020
0.0510270510 -0.1530811530 0.0510270510
0.1020541020 -0.1020541020 0.0000000000
0.1530811530 -0.0510270510 -0.0510270510
0.2041082040 0.0000000000 -0.1020541020
0.2551352549 0.0510270510 -0.1530811530
0.3061623059 0.1020541020 -0.2041082040
0.3571893569 0.1530811530 -0.2551352549
0.4082164079 0.2041082040 -0.3061623059
-0.1020541020 -0.4082164079 0.3061623059
-0.0510270510 -0.3571893569 0.2551352549
-0.0000000000 -0.3061623059 0.2041082040
0.0510270510 -0.2551352549 0.1530811530
0.1020541020 -0.2041082040 0.1020541020
0.1530811530 -0.1530811530 0.0510270510
0.2041082040 -0.1020541020 0.0000000000
0.2551352549 -0.0510270510 -0.0510270510
0.3061623059 0.0000000000 -0.1020541020
0.3571893569 0.0510270510 -0.1530811530
0.4082164079 0.1020541020 -0.2041082040
0.4592434589 0.1530811530 -0.2551352549
-0.0510270510 -0.4592434589 0.3571893569
-0.0000000000 -0.4082164079 0.3061623059
0.0510270510 -0.3571893569 0.2551352549
0.1020541020 -0.3061623059 0.2041082040
0.1530811530 -0.2551352549 0.1530811530
0.2041082040 -0.2041082040 0.1020541020
0.2551352549 -0.1530811530 0.0510270510
0.3061623059 -0.1020541020 0.0000000000
0.3571893569 -0.0510270510 -0.0510270510
0.4082164079 0.0000000000 -0.1020541020
0.4592434589 0.0510270510 -0.1530811530
0.5102705099 0.1020541020 -0.2041082040
-0.0000000000 -0.5102705099 0.4082164079
0.0510270510 -0.4592434589 0.3571893569
0.1020541020 -0.4082164079 0.3061623059
0.1530811530 -0.3571893569 0.2551352549
0.2041082040 -0.3061623059 0.2041082040
0.2551352549 -0.2551352549 0.1530811530
0.3061623059 -0.2041082040 0.1020541020
0.3571893569 -0.1530811530 0.0510270510
0.4082164079 -0.1020541020 0.0000000000
0.4592434589 -0.0510270510 -0.0510270510
0.5102705099 0.0000000000 -0.1020541020
0.5612975609 0.0510270510 -0.1530811530
0.0510270510 -0.5612975609 0.4592434589
0.1020541020 -0.5102705099 0.4082164079
0.1530811530 -0.4592434589 0.3571893569
0.2041082040 -0.4082164079 0.3061623059
0.2551352549 -0.3571893569 0.2551352549
0.3061623059 -0.3061623059 0.2041082040
0.3571893569 -0.2551352549 0.1530811530
0.4082164079 -0.2041082040 0.1020541020
0.4592434589 -0.1530811530 0.0510270510
0.5102705099 -0.1020541020 0.0000000000
0.5612975609 -0.0510270510 -0.0510270510
0.6123246119 0.0000000000 -0.1020541020
0.1020541020 -0.6123246119 0.5102705099
0.1530811530 -0.5612975609 0.4592434589
0.2041082040 -0.5102705099 0.4082164079
0.2551352549 -0.4592434589 0.3571893569
0.3061623059 -0.4082164079 0.3061623059
0.3571893569 -0.3571893569 0.2551352549
0.4082164079 -0.3061623059 0.2041082040
0.4592434589 -0.2551352549 0.1530811530
0.5102705099 -0.2041082040 0.1020541020
0.5612975609 -0.1530811530 0.0510270510
0.6123246119 -0.1020541020 0.0000000000
0.6633516628 -0.0510270510 -0.0510270510
-0.5102705099 -0.0000000000 -0.0000000000
-0.4592434589 0.0510270510 -0.0510270510
-0.4082164079 0.1020541020 -0.1020541020
-0.3571893569 0.1530811530 -0.1530811530
-0.3061623059 0.2041082040 -0.2041082040
-0.2551352549 0.2551352549 -0.2551352549
-0.2041082040 0.3061623059 -0.3061623059
-0.1530811530 0.3571893569 -0.3571893569
-0.1020541020 0.4082164079 -0.4082164079
-0.0510270510 0.4592434589 -0.4592434589
0.0000000000 0.5102705099 -0.5102705099
0.0510270510 0.5612975609 -0.5612975609
-0.4592434589 -0.0510270510 0.0510270510
-0.4082164079 -0.0000000000 -0.0000000000
-0.3571893569 0.0510270510 -0.0510270510
-0.3061623059 0.1020541020 -0.1020541020
-0.2551352549 0.1530811530 -0.1530811530
-0.2041082040 0.2041082040 -0.2041082040
-0.1530811530 0.2551352549 -0.2551352549
-0.1020541020 0.3061623059 -0.3061623059
-0.0510270510 0.3571893569 -0.3571893569
0.0000000000 0.4082164079 -0.4082164079
0.0510270510 0.4592434589 -0.4592434589
0.1020541020 0.5102705099 -0.5102705099
-0.4082164079 -0.1020541020 0.1020541020
-0.3571893569 -0.0510270510 0.0510270510
-0.3061623059 -0.0000000000 -0.0000000000
-0.2551352549 0.0510270510 -0.0510270510
-0.2041082040 0.1020541020 -0.1020541020
-0.1530811530 0.1530811530 -0.1530811530
-0.1020541020 0.2041082040 -0.2041082040
-0.0510270510 0.2551352549 -0.2551352549
0.0000000000 0.3061623059 -0.3061623059
0.0510270510 0.3571893569 -0.3571893569
0.1020541020 0.4082164079 -0.4082164079
0.1530811530 0.4592434589 -0.4592434589
-0.3571893569 -0.1530811530 0.1530811530
-0.3061623059 -0.1020541020 0.1020541020
-0.2551352549 -0.0510270510 0.0510270510
-0.2041082040 -0.0000000000 -0.0000000000
-0.1530811530 0.0510270510 -0.0510270510
-0.1020541020 0.1020541020 -0.1020541020
-0.0510270510 0.1530811530 -0.1530811530
0.0000000000 0.2041082040 -0.2041082040
0.0510270510 0.2551352549 -0.2551352549
0.1020541020 0.3061623059 -0.3061623059
0.1530811530 0.3571893569 -0.3571893569
0.2041082040 0.4082164079 -0.4082164079
-0.3061623059 -0.2041082040 0.2041082040
-0.2551352549 -0.1530811530 0.1530811530
-0.2041082040 -0.1020541020 0.1020541020
-0.1530811530 -0.0510270510 0.0510270510
-0.1020541020 -0.0000000000 -0.0000000000
-0.0510270510 0.0510270510 -0.0510270510
0.0000000000 0.1020541020 -0.1020541020
0.0510270510 0.1530811530 -0.1530811530
0.1020541020 0.2041082040 -0.2041082040
0.1530811530 0.2551352549 -0.2551352549
0.2041082040 0.3061623059 -0.3061623059
0.2551352549 0.3571893569 -0.3571893569
-0.2551352549 -0.2551352549 0.2551352549
-0.2041082040 -0.2041082040 0.2041082040
-0.1530811530 -0.1530811530 0.1530811530
-0.1020541020 -0.1020541020 0.1020541020
-0.0510270510 -0.0510270510 0.0510270510
0.0000000000 0.0000000000 0.0000000000
0.0510270510 0.0510270510 -0.0510270510
0.1020541020 0.1020541020 -0.1020541020
0.1530811530 0.1530811530 -0.1530811530
0.2041082040 0.2041082040 -0.2041082040
0.2551352549 0.2551352549 -0.2551352549
0.3061623059 0.3061623059 -0.3061623059
-0.2041082040 -0.3061623059 0.3061623059
-0.1530811530 -0.2551352549 0.2551352549
-0.1020541020 -0.2041082040 0.2041082040
-0.0510270510 -0.1530811530 0.1530811530
-0.0000000000 -0.1020541020 0.1020541020
0.0510270510 -0.0510270510 0.0510270510
0.1020541020 0.0000000000 0.0000000000
0.1530811530 0.0510270510 -0.0510270510
0.2041082040 0.1020541020 -0.1020541020
0.2551352549 0.1530811530 -0.1530811530
0.3061623059 0.2041082040 -0.2041082040
0.3571893569 0.2551352549 -0.2551352549
-0.1530811530 -0.3571893569 0.3571893569
-0.1020541020 -0.3061623059 0.3061623059
-0.0510270510 -0.2551352549 0.2551352549
-0.0000000000 -0.2041082040 0.2041082040
0.0510270510 -0.1530811530 0.1530811530
0.1020541020 -0.1020541020 0.1020541020
0.1530811530 -0.0510270510 0.0510270510
0.2041082040 0.0000000000 0.0000000000
0.2551352549 0.0510270510 -0.0510270510
0.3061623059 0.1020541020 -0.1020541020
0.3571893569 0.1530811530 -0.1530811530
0.4082164079 0.2041082040 -0.2041082040
-0.1020541020 -0.4082164079 0.4082164079
-0.0510270510 -0.3571893569 0.3571893569
-0.0000000000 -0.3061623059 0.3061623059
0.0510270510 -0.2551352549 0.2551352549
0.1020541020 -0.2041082040 0.2041082040
0.1530811530 -0.1530811530 0.1530811530
0.2041082040 -0.1020541020 0.1020541020
0.2551352549 -0.0510270510 0.0510270510
0.3061623059 0.0000000000 0.0000000000
0.3571893569 0.0510270510 -0.0510270510
0.4082164079 0.1020541020 -0.1020541020
0.4592434589 0.1530811530 -0.1530811530
-0.0510270510 -0.4592434589 0.4592434589
-0.0000000000 -0.4082164079 0.4082164079
0.0510270510 -0.3571893569 0.3571893569
0.1020541020 -0.3061623059 0.3061623059
0.1530811530 -0.2551352549 0.2551352549
0.2041082040 -0.2041082040 0.2041082040
0.2551352549 -0.1530811530 0.1530811530
0.3061623059 -0.1020541020 0.1020541020
0.3571893569 -0.0510270510 0.0510270510
0.4082164079 0.0000000000 0.0000000000
0.4592434589 0.0510270510 -0.0510270510
0.5102705099 0.1020541020 -0.1020541020
-0.0000000000 -0.5102705099 0.5102705099
0.0510270510 -0.4592434589 0.4592434589
0.1020541020 -0.4082164079 0.4082164079
0.1530811530 -0.3571893569 0.3571893569
0.2041082040 -0.3061623059 0.3061623059
0.2551352549 -0.2551352549 0.2551352549
0.3061623059 -0.2041082040 0.2041082040
0.3571893569 -0.1530811530 0.1530811530
0.4082164079 -0.1020541020 0.1020541020
0.4592434589 -0.0510270510 0.0510270510
0.5102705099 0.0000000000 0.0000000000
0.5612975609 0.0510270510 -0.0510270510
0.0510270510 -0.5612975609 0.5612975609
0.1020541020 -0.5102705099 0.5102705099
0.1530811530 -0.4592434589 0.4592434589
0.2041082040 -0.4082164079 0.4082164079
0.2551352549 -0.3571893569 0.3571893569
0.3061623059 -0.3061623059 0.3061623059
0.3571893569 -0.2551352549 0.2551352549
0.4082164079 -0.2041082040 0.2041082040
0.4592434589 -0.1530811530 0.1530811530
0.5102705099 -0.1020541020 0.1020541020
0.5612975609 -0.0510270510 0.0510270510
0.6123246119 0.0000000000 0.0000000000
-0.5612975609 0.0510270510 0.0510270510
-0.5102705099 0.1020541020 -0.0000000000
-0.4592434589 0.1530811530 -0.0510270510
-0.4082164079 0.2041082040 -0.1020541020
-0.3571893569 0.2551352549 -0.1530811530
-0.3061623059 0.3061623059 -0.2041082040
-0.2551352549 0.3571893569 -0.2551352549
-0.2041082040 0.4082164079 -0.3061623059
-0.1530811530 0.4592434589 -0.3571893569
-0.1020541020 0.5102705099 -0.4082164079
-0.0510270510 0.5612975609 -0.4592434589
0.0000000000 0.6123246119 -0.5102705099
-0.5102705099 -0.0000000000 0.1020541020
-0.4592434589 0.0510270510 0.0510270510
-0.4082164079 0.1020541020 -0.0000000000
-0.3571893569 0.1530811530 -0.0510270510
-0.3061623059 0.2041082040 -0.1020541020
-0.2551352549 0.2551352549 -0.1530811530
-0.2041082040 0.3061623059 -0.2041082040
-0.1530811530 0.3571893569 -0.2551352549
-0.1020541020 0.4082164079 -0.3061623059
-0.0510270510 0.4592434589 -0.3571893569
0.0000000000 0.5102705099 -0.4082164079
0.0510270510 0.5612975609 -0.4592434589
-0.4592434589 -0.0510270510 0.1530811530
-0.4082164079 -0.0000000000 0.1020541020
-0.3571893569 0.0510270510 0.0510270510
-0.3061623059 0.1020541020 -0.0000000000
-0.2551352549 0.1530811530 -0.0510270510
-0.2041082040 0.2041082040 -0.1020541020
-0.1530811530 0.2551352549 -0.1530811530
-0.1020541020 0.3061623059 -0.2041082040
-0.0510270510 0.3571893569 -0.2551352549
0.0000000000 0.4082164079 -0.3061623059
0.0510270510 0.4592434589 -0.3571893569
0.1020541020 0.5102705099 -0.4082164079
-0.4082164079 -0.1020541020 0.2041082040
-0.3571893569 -0.0510270510 0.1530811530
-0.3061623059 -0.0000000000 0.1020541020
-0.2551352549 0.0510270510 0.0510270510
-0.2041082040 0.1020541020 -0.0000000000
-0.1530811530 0.1530811530 -0.0510270510
-0.1020541020 0.2041082040 -0.1020541020
-0.0510270510 0.2551352549 -0.1530811530
0.0000000000 0.3061623059 -0.2041082040
0.0510270510 0.3571893569 -0.2551352549
0.1020541020 0.4082164079 -0.3061623059
0.1530811530 0.4592434589 -0.3571893569
-0.3571893569 -0.1530811530 0.2551352549
-0.3061623059 -0.1020541020 0.2041082040
-0.2551352549 -0.0510270510 0.1530811530
-0.2041082040 -0.0000000000 0.1020541020
-0.1530811530 0.0510270510 0.0510270510
-0.1020541020 0.1020541020 -0.0000000000
-0.0510270510 0.1530811530 -0.0510270510
0.0000000000 0.2041082040 -0.1020541020
0.0510270510 0.2551352549 -0.1530811530
0.1020541020 0.3061623059 -0.2041082040
0.1530811530 0.3571893569 -0.2551352549
0.2041082040 0.4082164079 -0.3061623059
-0.3061623059 -0.2041082040 0.3061623059
-0.2551352549 -0.1530811530 0.2551352549
-0.2041082040 -0.1020541020 0.2041082040
-0.1530811530 -0.0510270510 0.1530811530
-0.1020541020 -0.0000000000 0.1020541020
-0.0510270510 0.0510270510 0.0510270510
0.0000000000 0.1020541020 0.0000000000
0.0510270510 0.1530811530 -0.0510270510
0.1020541020 0.2041082040 -0.1020541020
0.1530811530 0.2551352549 -0.1530811530
0.2041082040 0.3061623059 -0.2041082040
0.2551352549 0.3571893569 -0.2551352549
-0.2551352549 -0.2551352549 0.3571893569
-0.2041082040 -0.2041082040 0.3061623059
-0.1530811530 -0.1530811530 0.2551352549
-0.1020541020 -0.1020541020 0.2041082040
-0.0510270510 -0.0510270510 0.1530811530
0.0000000000 0.0000000000 0.1020541020
0.0510270510 0.0510270510 0.0510270510
0.1020541020 0.1020541020 0.0000000000
0.1530811530 0.1530811530 -0.0510270510
0.2041082040 0.2041082040 -0.1020541020
0.2551352549 0.2551352549 -0.1530811530
0.3061623059 0.3061623059 -0.2041082040
-0.2041082040 -0.3061623059 0.4082164079
-0.1530811530 -0.2551352549 0.3571893569
-0.1020541020 -0.2041082040 0.3061623059
-0.0510270510 -0.1530811530 0.2551352549
-0.0000000000 -0.1020541020 0.2041082040
0.0510270510 -0.0510270510 0.1530811530
0.1020541020 0.0000000000 0.1020541020
0.1530811530 0.0510270510 0.0510270510
0.2041082040 0.1020541020 0.0000000000
0.2551352549 0.1530811530 -0.0510270510
0.3061623059 0.2041082040 -0.1020541020
0.3571893569 0.2551352549 -0.1530811530
-0.1530811530 -0.3571893569 0.4592434589
-0.1020541020 -0.3061623059 0.4082164079
-0.0510270510 -0.2551352549 0.3571893569
-0.0000000000 -0.2041082040 0.3061623059
0.0510270510 -0.1530811530 0.2551352549
0.1020541020 -0.1020541020 0.2041082040
0.1530811530 -0.0510270510 0.1530811530
0.2041082040 0.0000000000 0.1020541020
0.2551352549 0.0510270510 0.0510270510
0.3061623059 0.1020541020 0.0000000000
0.3571893569 0.1530811530 -0.0510270510
0.4082164079 0.2041082040 -0.1020541020
-0.1020541020 -0.4082164079 0.5102705099
-0.0510270510 -0.3571893569 0.4592434589
0.0000000000 -0.3061623059 0.4082164079
0.0510270510 -0.2551352549 0.3571893569
0.1020541020 -0.2041082040 0.3061623059
0.1530811530 -0.1530811530 0.2551352549
0.2041082040 -0.1020541020 0.2041082040
0.2551352549 -0.0510270510 0.1530811530
0.3061623059 0.0000000000 0.1020541020
0.3571893569 0.0510270510 0.0510270510
0.4082164079 0.1020541020 0.0000000000
0.4592434589 0.1530811530 -0.0510270510
-0.0510270510 -0.4592434589 0.5612975609
-0.0000000000 -0.4082164079 0.5102705099
0.0510270510 -0.3571893569 0.4592434589
0.1020541020 -0.3061623059 0.4082164079
0.1530811530 -0.2551352549 0.3571893569
0.2041082040 -0.2041082040 0.3061623059
0.2551352549 -0.1530811530 0.2551352549
0.3061623059 -0.1020541020 0.2041082040
0.3571893569 -0.0510270510 0.1530811530
0.4082164079 0.0000000000 0.1020541020
0.4592434589 0.0510270510 0.0510270510
0.5102705099 0.1020541020 0.0000000000
0.0000000000 -0.5102705099 0.6123246119
0.0510270510 -0.4592434589 0.5612975609
0.1020541020 -0.4082164079 0.5102705099
0.1530811530 -0.3571893569 0.4592434589
0.2041082040 -0.3061623059 0.4082164079
0.2551352549 -0.2551352549 0.3571893569
0.3061623059 -0.2041082040 0.3061623059
0.3571893569 -0.1530811530 0.2551352549
0.4082164079 -0.1020541020 0.2041082040
0.4592434589 -0.0510270510 0.1530811530
0.5102705099 0.0000000000 0.1020541020
0.5612975609 0.0510270510 0.0510270510
-0.6123246119 0.1020541020 0.1020541020
-0.5612975609 0.1530811530 0.0510270510
-0.5102705099 0.2041082040 -0.0000000000
-0.4592434589 0.2551352549 -0.0510270510
-0.4082164079 0.3061623059 -0.1020541020
-0.3571893569 0.3571893569 -0.1530811530
-0.3061623059 0.4082164079 -0.2041082040
-0.2551352549 0.4592434589 -0.2551352549
-0.2041082040 0.5102705099 -0.3061623059
-0.1530811530 0.5612975609 -0.3571893569
-0.1020541020 0.6123246119 -0.4082164079
-0.0510270510 0.6633516628 -0.4592434589
-0.5612975609 0.0510270510 0.1530811530
-0.5102705099 0.1020541020 0.1020541020
-0.4592434589 0.1530811530 0.0510270510
-0.4082164079 0.2041082040 -0.0000000000
-0.3571893569 0.2551352549 -0.0510270510
-0.3061623059 0.3061623059 -0.1020541020
-0.2551352549 0.3571893569 -0.1530811530
-0.2041082040 0.4082164079 -0.2041082040
-0.1530811530 0.4592434589 -0.2551352549
-0.1020541020 0.5102705099 -0.3061623059
-0.0510270510 0.5612975609 -0.3571893569
0.0000000000 0.6123246119 -0.4082164079
-0.5102705099 -0.0000000000 0.2041082040
-0.4592434589 0.0510270510 0.1530811530
-0.4082164079 0.1020541020 0.1020541020
-0.3571893569 0.1530811530 0.0510270510
-0.3061623059 0.2041082040 -0.0000000000
-0.2551352549 0.2551352549 -0.0510270510
-0.2041082040 0.3061623059 -0.1020541020
-0.1530811530 0.3571893569 -0.1530811530
-0.1020541020 0.4082164079 -0.2041082040
-0.0510270510 0.4592434589 -0.2551352549
0.0000000000 0.5102705099 -0.3061623059
0.0510270510 0.5612975609 -0.3571893569
-0.4592434589 -0.0510270510 0.2551352549
-0.4082164079 -0.0000000000 0.2041082040
-0.3571893569 0.0510270510 0.1530811530
-0.3061623059 0.1020541020 0.1020541020
-0.2551352549 0.1530811530 0.0510270510
-0.2041082040 0.2041082040 -0.0000000000
-0.1530811530 0.2551352549 -0.0510270510
-0.1020541020 0.3061623059 -0.1020541020
-0.0510270510 0.3571893569 -0.1530811530
0.0000000000 0.4082164079 -0.2041082040
0.0510270510 0.4592434589 -0.2551352549
0.1020541020 0.5102705099 -0.3061623059
-0.4082164079 -0.1020541020 0.3061623059
-0.3571893569 -0.0510270510 0.2551352549
-0.3061623059 0.0000000000 0.2041082040
-0.2551352549 0.0510270510 0.1530811530
-0.2041082040 0.1020541020 0.1020541020
-0.1530811530 0.1530811530 0.0510270510
-0.1020541020 0.2041082040 -0.0000000000
-0.0510270510 0.2551352549 -0.0510270510
0.0000000000 0.3061623059 -0.1020541020
0.0510270510 0.3571893569 -0.1530811530
0.1020541020 0.4082164079 -0.2041082040
0.1530811530 0.4592434589 -0.2551352549
-0.3571893569 -0.1530811530 0.3571893569
-0.3061623059 -0.1020541020 0.3061623059
-0.2551352549 -0.0510270510 0.2551352549
-0.2041082040 -0.0000000000 0.2041082040
-0.1530811530 0.0510270510 0.1530811530
-0.1020541020 0.1020541020 0.1020541020
-0.0510270510 0.1530811530 0.0510270510
0.0000000000 0.2041082040 0.0000000000
0.0510270510 0.2551352549 -0.0510270510
0.1020541020 0.3061623059 -0.1020541020
0.1530811530 0.3571893569 -0.1530811530
0.2041082040 0.4082164079 -0.2041082040
-0.3061623059 -0.2041082040 0.4082164079
-0.2551352549 -0.1530811530 0.3571893569
-0.2041082040 -0.1020541020 0.3061623059
-0.1530811530 -0.0510270510 0.2551352549
-0.1020541020 0.0000000000 0.2041082040
-0.0510270510 0.0510270510 0.1530811530
0.0000000000 0.1020541020 0.1020541020
0.0510270510 0.1530811530 0.0510270510
0.1020541020 0.2041082040 0.0000000000
0.1530811530 0.2551352549 -0.0510270510
0.2041082040 0.3061623059 -0.1020541020
0.2551352549 0.3571893569 -0.1530811530
-0.2551352549 -0.2551352549 0.4592434589
-0.2041082040 -0.2041082040 0.4082164079
-0.1530811530 -0.1530811530 0.3571893569
-0.1020541020 -0.1020541020 0.3061623059
-0.0510270510 -0.0510270510 0.2551352549
0.0000000000 0.0000000000 0.2041082040
0.0510270510 0.0510270510 0.1530811530
0.1020541020 0.1020541020 0.1020541020
0.1530811530 0.1530811530 0.0510270510
0.2041082040 0.2041082040 0.0000000000
0.2551352549 0.2551352549 -0.0510270510
0.3061623059 0.3061623059 -0.1020541020
-0.2041082040 -0.3061623059 0.5102705099
-0.1530811530 -0.2551352549 0.4592434589
-0.1020541020 -0.2041082040 0.4082164079
-0.0510270510 -0.1530811530 0.3571893569
0.0000000000 -0.1020541020 0.3061623059
0.0510270510 -0.0510270510 0.2551352549
0.1020541020 0.0000000000 0.2041082040
0.1530811530 0.0510270510 0.1530811530
0.2041082040 0.1020541020 0.1020541020
0.2551352549 0.1530811530 0.0510270510
0.3061623059 0.2041082040 0.0000000000
0.3571893569 0.2551352549 -0.0510270510
-0.1530811530 -0.3571893569 0.5612975609
-0.1020541020 -0.3061623059 0.5102705099
-0.0510270510 -0.2551352549 0.4592434589
0.0000000000 -0.2041082040 0.4082164079
0.0510270510 -0.1530811530 0.3571893569
0.1020541020 -0.1020541020 0.3061623059
0.1530811530 -0.0510270510 0.2551352549
0.2041082040 0.0000000000 0.2041082040
0.2551352549 0.0510270510 0.1530811530
0.3061623059 0.1020541020 0.1020541020
0.3571893569 0.1530811530 0.0510270510
0.4082164079 0.2041082040 0.0000000000
-0.1020541020 -0.4082164079 0.6123246119
-0.0510270510 -0.3571893569 0.5612975609
0.0000000000 -0.3061623059 0.5102705099
0.0510270510 -0.2551352549 0.4592434589
0.1020541020 -0.2041082040 0.4082164079
0.1530811530 -0.1530811530 0.3571893569
0.2041082040 -0.1020541020 0.3061623059
0.2551352549 -0.0510270510 0.2551352549
0.3061623059 0.0000000000 0.2041082040
0.3571893569 0.0510270510 0.1530811530
0.4082164079 0.1020541020 0.1020541020
0.4592434589 0.1530811530 0.0510270510
-0.0510270510 -0.4592434589 0.6633516628
0.0000000000 -0.4082164079 0.6123246119
0.0510270510 -0.3571893569 0.5612975609
0.1020541020 -0.3061623059 0.5102705099
0.1530811530 -0.2551352549 0.4592434589
0.2041082040 -0.2041082040 0.4082164079
0.2551352549 -0.1530811530 0.3571893569
0.3061623059 -0.1020541020 0.3061623059
0.3571893569 -0.0510270510 0.2551352549
0.4082164079 0.0000000000 0.2041082040
0.4592434589 0.0510270510 0.1530811530
0.5102705099 0.1020541020 0.1020541020
-0.6633516628 0.1530811530 0.1530811530
-0.6123246119 0.2041082040 0.1020541020
-0.5612975609 0.2551352549 0.0510270510
-0.5102705099 0.3061623059 -0.0000000000
-0.4592434589 0.3571893569 -0.0510270510
-0.4082164079 0.4082164079 -0.1020541020
-0.3571893569 0.4592434589 -0.1530811530
-0.3061623059 0.5102705099 -0.2041082040
-0.2551352549 0.5612975609 -0.2551352549
-0.2041082040 0.6123246119 -0.3061623059
-0.1530811530 0.6633516628 -0.3571893569
-0.1020541020 0.7143787138 -0.4082164079
-0.6123246119 0.1020541020 0.2041082040
-0.5612975609 0.1530811530 0.1530811530
-0.5102705099 0.2041082040 0.1020541020
-0.4592434589 0.2551352549 0.0510270510
-0.4082164079 0.3061623059 -0.0000000000
-0.3571893569 0.3571893569 -0.0510270510
-0.3061623059 0.4082164079 -0.1020541020
-0.2551352549 0.4592434589 -0.1530811530
-0.2041082040 0.5102705099 -0.2041082040
-0.1530811530 0.5612975609 -0.2551352549
-0.1020541020 0.6123246119 -0.3061623059
-0.0510270510 0.6633516628 -0.3571893569
-0.5612975609 0.0510270510 0.2551352549
-0.5102705099 0.1020541020 0.2041082040
-0.4592434589 0.1530811530 0.1530811530
-0.4082164079 0.2041082040 0.1020541020
-0.3571893569 0.2551352549 0.0510270510
-0.3061623059 0.3061623059 -0.0000000000
-0.2551352549 0.3571893569 -0.0510270510
-0.2041082040 0.4082164079 -0.1020541020
-0.1530811530 0.4592434589 -0.1530811530
-0.1020541020 0.5102705099 -0.2041082040
-0.0510270510 0.5612975609 -0.2551352549
0.0000000000 0.6123246119 -0.3061623059
-0.5102705099 0.0000000000 0.3061623059
-0.4592434589 0.0510270510 0.2551352549
-0.4082164079 0.1020541020 0.2041082040
-0.3571893569 0.1530811530 0.1530811530
-0.3061623059 0.2041082040 0.1020541020
-0.2551352549 0.2551352549 0.0510270510
-0.2041082040 0.3061623059 -0.0000000000
-0.1530811530 0.3571893569 -0.0510270510
-0.1020541020 0.4082164079 -0.1020541020
-0.0510270510 0.4592434589 -0.1530811530
0.0000000000 0.5102705099 -0.2041082040
0.0510270510 0.5612975609 -0.2551352549
-0.4592434589 -0.0510270510 0.3571893569
-0.4082164079 0.0000000000 0.3061623059
-0.3571893569 0.0510270510 0.2551352549
-0.3061623059 0.1020541020 0.2041082040
-0.2551352549 0.1530811530 0.1530811530
-0.2041082040 0.2041082040 0.1020541020
-0.1530811530 0.2551352549 0.0510270510
-0.1020541020 0.3061623059 0.0000000000
-0.0510270510 0.3571893569 -0.0510270510
0.0000000000 0.4082164079 -0.1020541020
0.0510270510 0.4592434589 -0.1530811530
0.1020541020 0.5102705099 -0.2041082040
-0.4082164079 -0.1020541020 0.4082164079
-0.3571893569 -0.0510270510 0.3571893569
-0.3061623059 0.0000000000 0.3061623059
-0.2551352549 0.0510270510 0.2551352549
-0.2041082040 0.1020541020 0.2041082040
-0.1530811530 0.1530811530 0.1530811530
-0.1020541020 0.2041082040 0.1020541020
-0.0510270510 0.2551352549 0.0510270510
0.0000000000 0.3061623059 0.0000000000
0.0510270510 0.3571893569 -0.0510270510
0.1020541020 0.4082164079 -0.1020541020
0.1530811530 0.4592434589 -0.1530811530
-0.3571893569 -0.1530811530 0.4592434589
-0.3061623059 -0.1020541020 0.4082164079
-0.2551352549 -0.0510270510 0.3571893569
-0.2041082040 0.0000000000 0.3061623059
-0.1530811530 0.0510270510 0.2551352549
-0.1020541020 0.1020541020 0.2041082040
-0.0510270510 0.1530811530 0.1530811530
0.0000000000 0.2041082040 0.1020541020
0.0510270510 0.2551352549 0.0510270510
0.1020541020 0.3061623059 0.0000000000
0.1530811530 0.3571893569 -0.0510270510
0.2041082040 0.4082164079 -0.1020541020
-0.3061623059 -0.2041082040 0.5102705099
-0.2551352549 -0.1530811530 0.4592434589
-0.2041082040 -0.1020541020 0.4082164079
-0.1530811530 -0.0510270510 0.3571893569
-0.1020541020 0.0000000000 0.3061623059
-0.0510270510 0.0510270510 0.2551352549
0.0000000000 0.1020541020 0.2041082040
0.0510270510 0.1530811530 0.1530811530
0.1020541020 0.2041082040 0.1020541020
0.1530811530 0.2551352549 0.0510270510
0.2041082040 0.3061623059 0.0000000000
0.2551352549 0.3571893569 -0.0510270510
-0.2551352549 -0.2551352549 0.5612975609
-0.2041082040 -0.2041082040 0.5102705099
-0.1530811530 -0.1530811530 0.4592434589
-0.1020541020 -0.1020541020 0.4082164079
-0.0510270510 -0.0510270510 0.3571893569
0.0000000000 0.0000000000 0.3061623059
0.0510270510 0.0510270510 0.2551352549
0.1020541020 0.1020541020 0.2041082040
0.1530811530 0.1530811530 0.1530811530
0.2041082040 0.2041082040 0.1020541020
0.2551352549 0.2551352549 0.0510270510
0.3061623059 0.3061623059 0.0000000000
-0.2041082040 -0.3061623059 0.6123246119
-0.1530811530 -0.2551352549 0.5612975609
-0.1020541020 -0.2041082040 0.5102705099
-0.0510270510 -0.1530811530 0.4592434589
0.0000000000 -0.1020541020 0.4082164079
0.0510270510 -0.0510270510 0.3571893569
0.1020541020 0.0000000000 0.3061623059
0.1530811530 0.0510270510 0.2551352549
0.2041082040 0.1020541020 0.2041082040
0.2551352549 0.1530811530 0.1530811530
0.3061623059 0.2041082040 0.1020541020
0.3571893569 0.2551352549 0.0510270510
-0.1530811530 -0.3571893569 0.6633516628
-0.1020541020 -0.3061623059 0.6123246119
-0.0510270510 -0.2551352549 0.5612975609
0.0000000000 -0.2041082040 0.5102705099
0.0510270510 -0.1530811530 0.4592434589
0.1020541020 -0.1020541020 0.4082164079
0.1530811530 -0.0510270510 0.3571893569
0.2041082040 0.0000000000 0.3061623059
0.2551352549 0.0510270510 0.2551352549
0.3061623059 0.1020541020 0.2041082040
0.3571893569 0.1530811530 0.1530811530
0.4082164079 0.2041082040 0.1020541020
-0.1020541020 -0.4082164079 0.7143787138
-0.0510270510 -0.3571893569 0.6633516628
0.0000000000 -0.3061623059 0.6123246119
0.0510270510 -0.2551352549 0.5612975609
0.1020541020 -0.2041082040 0.5102705099
0.1530811530 -0.1530811530 0.4592434589
0.2041082040 -0.1020541020 0.4082164079
0.2551352549 -0.0510270510 0.3571893569
0.3061623059 0.0000000000 0.3061623059
0.3571893569 0.0510270510 0.2551352549
0.4082164079 0.1020541020 0.2041082040
0.4592434589 0.1530811530 0.1530811530
-0.7143787138 0.2041082040 0.2041082040
-0.6633516628 0.2551352549 0.1530811530
-0.6123246119 0.3061623059 0.1020541020
-0.5612975609 0.3571893569 0.0510270510
-0.5102705099 0.4082164079 -0.0000000000
-0.4592434589 0.4592434589 -0.0510270510
-0.4082164079 0.5102705099 -0.1020541020
-0.3571893569 0.5612975609 -0.1530811530
-0.3061623059 0.6123246119 -0.2041082040
-0.2551352549 0.6633516628 -0.2551352549
-0.2041082040 0.7143787138 -0.3061623059
-0.1530811530 0.7654057648 -0.3571893569
-0.6633516628 0.1530811530 0.2551352549
-0.6123246119 0.2041082040 0.2041082040
-0.5612975609 0.2551352549 0.1530811530
-0.5102705099 0.3061623059 0.1020541020
-0.4592434589 0.3571893569 0.0510270510
-0.4082164079 0.4082164079 -0.0000000000
-0.3571893569 0.4592434589 -0.0510270510
-0.3061623059 0.5102705099 -0.1020541020
-0.2551352549 0.5612975609 -0.1530811530
-0.2041082040 0.6123246119 -0.2041082040
-0.1530811530 0.6633516628 -0.2551352549
-0.1020541020 0.7143787138 -0.3061623059
-0.6123246119 0.1020541020 0.3061623059
-0.5612975609 0.1530811530 0.2551352549
-0.5102705099 0.2041082040 0.2041082040
-0.4592434589 0.2551352549 0.1530811530
-0.4082164079 0.3061623059 0.1020541020
-0.3571893569 0.3571893569 0.0510270510
-0.3061623059 0.4082164079 -0.0000000000
-0.2551352549 0.4592434589 -0.0510270510
-0.2041082040 0.5102705099 -0.1020541020
-0.1530811530 0.5612975609 -0.1530811530
-0.1020541020 0.6123246119 -0.2041082040
-0.0510270510 0.6633516628 -0.2551352549
-0.5612975609 0.0510270510 0.3571893569
-0.5102705099 0.1020541020 0.3061623059
-0.4592434589 0.1530811530 0.2551352549
-0.4082164079 0.2041082040 0.2041082040
-0.3571893569 0.2551352549 0.1530811530
-0.3061623059 0.3061623059 0.1020541020
-0.2551352549 0.3571893569 0.0510270510
-0.2041082040 0.4082164079 -0.0000000000
-0.1530811530 0.4592434589 -0.0510270510
-0.1020541020 0.5102705099 -0.1020541020
-0.0510270510 0.5612975609 -0.1530811530
0.0000000000 0.6123246119 -0.2041082040
-0.5102705099 0.0000000000 0.4082164079
-0.4592434589 0.0510270510 0.3571893569
-0.4082164079 0.1020541020 0.3061623059
-0.3571893569 0.1530811530 0.2551352549
-0.3061623059 0.2041082040 0.2041082040
-0.2551352549 0.2551352549 0.1530811530
-0.2041082040 0.3061623059 0.1020541020
-0.1530811530 0.3571893569 0.0510270510
-0.1020541020 0.4082164079 0.0000000000
-0.0510270510 0.4592434589 -0.0510270510
0.0000000000 0.5102705099 -0.1020541020
0.0510270510 0.5612975609 -0.1530811530
-0.4592434589 -0.0510270510 0.4592434589
-0.4082164079 0.0000000000 0.4082164079
-0.3571893569 0.0510270510 0.3571893569
-0.3061623059 0.1020541020 0.3061623059
-0.2551352549 0.1530811530 0.2551352549
-0.2041082040 0.2041082040 0.2041082040
-0.1530811530 0.2551352549 0.1530811530
-0.1020541020 0.3061623059 0.1020541020
-0.0510270510 0.3571893569 0.0510270510
0.0000000000 0.4082164079 0.0000000000
0.0510270510 0.4592434589 -0.0510270510
0.1020541020 0.5102705099 -0.1020541020
-0.4082164079 -0.1020541020 0.5102705099
-0.3571893569 -0.0510270510 0.4592434589
-0.3061623059 0.0000000000 0.4082164079
-0.2551352549 0.0510270510 0.3571893569
-0.2041082040 0.1020541020 0.3061623059
-0.1530811530 0.1530811530 0.2551352549
-0.1020541020 0.2041082040 0.2041082040
-0.0510270510 0.2551352549 0.1530811530
0.0000000000 0.3061623059 0.1020541020
0.0510270510 0.3571893569 0.0510270510
0.1020541020 0.4082164079 0.0000000000
0.1530811530 0.4592434589 -0.0510270510
-0.3571893569 -0.1530811530 0.5612975609
-0.3061623059 -0.1020541020 0.5102705099
-0.2551352549 -0.0510270510 0.4592434589
-0.2041082040 0.0000000000 0.4082164079
-0.1530811530 0.0510270510 0.3571893569
-0.1020541020 0.1020541020 0.3061623059
-0.0510270510 0.1530811530 0.2551352549
0.0000000000 0.2041082040 0.2041082040
0.0510270510 0.2551352549 0.1530811530
0.1020541020 0.3061623059 0.1020541020
0.1530811530 0.3571893569 0.0510270510
0.2041082040 0.4082164079 0.0000000000
-0.3061623059 -0.2041082040 0.6123246119
-0.2551352549 -0.1530811530 0.5612975609
-0.2041082040 -0.1020541020 0.5102705099
-0.1530811530 -0.0510270510 0.4592434589
-0.1020541020 0.0000000000 0.4082164079
-0.0510270510 0.0510270510 0.3571893569
0.0000000000 0.1020541020 0.3061623059
0.0510270510 0.1530811530 0.2551352549
0.1020541020 0.2041082040 0.2041082040
0.1530811530 0.2551352549 0.1530811530
0.2041082040 0.3061623059 0.1020541020
0.2551352549 0.3571893569 0.0510270510
-0.2551352549 -0.2551352549 0.6633516628
-0.2041082040 -0.2041082040 0.6123246119
-0.1530811530 -0.1530811530 0.5612975609
-0.1020541020 -0.1020541020 0.5102705099
-0.0510270510 -0.0510270510 0.4592434589
0.0000000000 0.0000000000 0.4082164079
0.0510270510 0.0510270510 0.3571893569
0.1020541020 0.1020541020 0.3061623059
0.1530811530 0.1530811530 0.2551352549
0.2041082040 0.2041082040 0.2041082040
0.2551352549 0.2551352549 0.1530811530
0.3061623059 0.3061623059 0.1020541020
-0.2041082040 -0.3061623059 0.7143787138
-0.1530811530 -0.2551352549 0.6633516628
-0.1020541020 -0.2041082040 0.6123246119
-0.0510270510 -0.1530811530 0.5612975609
0.0000000000 -0.1020541020 0.5102705099
0.0510270510 -0.0510270510 0.4592434589
0.1020541020 0.0000000000 0.4082164079
0.1530811530 0.0510270510 0.3571893569
0.2041082040 0.1020541020 0.3061623059
0.2551352549 0.1530811530 0.2551352549
0.3061623059 0.2041082040 0.2041082040
0.3571893569 0.2551352549 0.1530811530
-0.1530811530 -0.3571893569 0.7654057648
-0.1020541020 -0.3061623059 0.7143787138
-0.0510270510 -0.2551352549 0.6633516628
0.0000000000 -0.2041082040 0.6123246119
0.0510270510 -0.1530811530 0.5612975609
0.1020541020 -0.1020541020 0.5102705099
0.1530811530 -0.0510270510 0.4592434589
0.2041082040 0.0000000000 0.4082164079
0.2551352549 0.0510270510 0.3571893569
0.3061623059 0.1020541020 0.3061623059
0.3571893569 0.1530811530 0.2551352549
0.4082164079 0.2041082040 0.2041082040
-0.7654057648 0.2551352549 0.2551352549
-0.7143787138 0.3061623059 0.2041082040
-0.6633516628 0.3571893569 0.1530811530
-0.6123246119 0.4082164079 0.1020541020
-0.5612975609 0.4592434589 0.0510270510
-0.5102705099 0.5102705099 -0.0000000000
-0.4592434589 0.5612975609 -0.0510270510
-0.4082164079 0.6123246119 -0.1020541020
-0.3571893569 0.6633516628 -0.1530811530
-0.3061623059 0.7143787138 -0.2041082040
-0.2551352549 0.7654057648 -0.2551352549
-0.2041082040 0.8164328158 -0.3061623059
-0.7143787138 0.2041082040 0.3061623059
-0.6633516628 0.2551352549 0.2551352549
-0.6123246119 0.3061623059 0.2041082040
-0.5612975609 0.3571893569 0.1530811530
-0.5102705099 0.4082164079 0.1020541020
-0.4592434589 0.4592434589 0.0510270510
-0.4082164079 0.5102705099 -0.0000000000
-0.3571893569 0.5612975609 -0.0510270510
-0.3061623059 0.6123246119 -0.1020541020
-0.2551352549 0.6633516628 -0.1530811530
-0.2041082040 0.7143787138 -0.2041082040
-0.1530811530 0.7654057648 -0.2551352549
-0.6633516628 0.1530811530 0.3571893569
-0.6123246119 0.2041082040 0.3061623059
-0.5612975609 0.2551352549 0.2551352549
-0.5102705099 0.3061623059 0.2041082040
-0.4592434589 0.3571893569 0.1530811530
-0.4082164079 0.4082164079 0.1020541020
-0.3571893569 0.4592434589 0.0510270510
-0.3061623059 0.5102705099 -0.0000000000
-0.2551352549 0.5612975609 -0.0510270510
-0.2041082040 0.6123246119 -0.1020541020
-0.1530811530 0.6633516628 -0.1530811530
-0.1020541020 0.7143787138 -0.2041082040
-0.6123246119 0.1020541020 0.4082164079
-0.5612975609 0.1530811530 0.3571893569
-0.5102705099 0.2041082040 0.3061623059
-0.4592434589 0.2551352549 0.2551352549
-0.4082164079 0.3061623059 0.2041082040
-0.3571893569 0.3571893569 0.1530811530
-0.3061623059 0.4082164079 0.1020541020
-0.2551352549 0.4592434589 0.0510270510
-0.2041082040 0.5102705099 -0.0000000000
-0.1530811530 0.5612975609 -0.0510270510
-0.1020541020 0.6123246119 -0.1020541020
-0.0510270510 0.6633516628 -0.1530811530
-0.5612975609 0.0510270510 0.4592434589
-0.5102705099 0.1020541020 0.4082164079
-0.4592434589 0.1530811530 0.3571893569
-0.4082164079 0.2041082040 0.3061623059
-0.3571893569 0.2551352549 0.2551352549
-0.3061623059 0.3061623059 0.2041082040
-0.2551352549 0.3571893569 0.1530811530
-0.2041082040 0.4082164079 0.1020541020
-0.1530811530 0.4592434589 0.0510270510
-0.1020541020 0.5102705099 -0.0000000000
-0.0510270510 0.5612975609 -0.0510270510
0.0000000000 0.6123246119 -0.1020541020
-0.5102705099 0.0000000000 0.5102705099
-0.4592434589 0.0510270510 0.4592434589
-0.4082164079 0.1020541020 0.4082164079
-0.3571893569 0.1530811530 0.3571893569
-0.3061623059 0.2041082040 0.3061623059
-0.2551352549 0.2551352549 0.2551352549
-0.2041082040 0.3061623059 0.2041082040
-0.1530811530 0.3571893569 0.1530811530
-0.1020541020 0.4082164079 0.1020541020
-0.0510270510 0.4592434589 0.0510270510
0.0000000000 0.5102705099 0.0000000000
0.0510270510 0.5612975609 -0.0510270510
-0.4592434589 -0.0510270510 0.5612975609
-0.4082164079 0.0000000000 0.5102705099
-0.3571893569 0.0510270510 0.4592434589
-0.3061623059 0.1020541020 0.4082164079
-0.2551352549 0.1530811530 0.3571893569
-0.2041082040 0.2041082040 0.3061623059
-0.1530811530 0.2551352549 0.2551352549
-0.1020541020 0.3061623059 0.2041082040
-0.0510270510 0.3571893569 0.1530811530
0.0000000000 0.4082164079 0.1020541020
0.0510270510 0.4592434589 0.0510270510
0.1020541020 0.5102705099 0.0000000000
-0.4082164079 -0.1020541020 0.6123246119
-0.3571893569 -0.0510270510 0.5612975609
-0.3061623059 0.0000000000 0.5102705099
-0.2551352549 0.0510270510 0.4592434589
-0.2041082040 0.1020541020 0.4082164079
-0.1530811530 0.1530811530 0.3571893569
-0.1020541020 0.2041082040 0.3061623059
-0.0510270510 0.2551352549 0.2551352549
0.0000000000 0.3061623059 0.2041082040
0.0510270510 0.3571893569 0.1530811530
0.1020541020 0.4082164079 0.1020541020
0.1530811530 0.4592434589 0.0510270510
-0.3571893569 -0.1530811530 0.6633516628
-0.3061623059 -0.1020541020 0.6123246119
-0.2551352549 -0.0510270510 0.5612975609
-0.2041082040 0.0000000000 0.5102705099
-0.1530811530 0.0510270510 0.4592434589
-0.1020541020 0.1020541020 0.4082164079
-0.0510270510 0.1530811530 0.3571893569
0.0000000000 0.2041082040 0.3061623059
0.0510270510 0.2551352549 0.2551352549
0.1020541020 0.3061623059 0.2041082040
0.1530811530 0.3571893569 0.1530811530
0.2041082040 0.4082164079 0.1020541020
-0.3061623059 -0.2041082040 0.7143787138
-0.2551352549 -0.1530811530 0.6633516628
-0.2041082040 -0.1020541020 0.6123246119
-0.1530811530 -0.0510270510 0.5612975609
-0.1020541020 0.0000000000 0.5102705099
-0.0510270510 0.0510270510 0.4592434589
0.0000000000 0.1020541020 0.4082164079
0.0510270510 0.1530811530 0.3571893569
0.1020541020 0.2041082040 0.3061623059
0.1530811530 0.2551352549 0.2551352549
0.2041082040 0.3061623059 0.2041082040
0.2551352549 0.3571893569 0.1530811530
-0.2551352549 -0.2551352549 0.7654057648
-0.2041082040 -0.2041082040 0.7143787138
-0.1530811530 -0.1530811530 0.6633516628
-0.1020541020 -0.1020541020 0.6123246119
-0.0510270510 -0.0510270510 0.5612975609
0.0000000000 0.0000000000 0.5102705099
0.0510270510 0.0510270510 0.4592434589
0.1020541020 0.1020541020 0.4082164079
0.1530811530 0.1530811530 0.3571893569
0.2041082040 0.2041082040 0.3061623059
0.2551352549 0.2551352549 0.2551352549
0.3061623059 0.3061623059 0.2041082040
-0.2041082040 -0.3061623059 0.8164328158
-0.1530811530 -0.2551352549 0.7654057648
-0.1020541020 -0.2041082040 0.7143787138
-0.0510270510 -0.1530811530 0.6633516628
0.0000000000 -0.1020541020 0.6123246119
0.0510270510 -0.0510270510 0.5612975609
0.1020541020 0.0000000000 0.5102705099
0.1530811530 0.0510270510 0.4592434589
0.2041082040 0.1020541020 0.4082164079
0.2551352549 0.1530811530 0.3571893569
0.3061623059 0.2041082040 0.3061623059
0.3571893569 0.2551352549 0.2551352549
-0.8164328158 0.3061623059 0.3061623059
-0.7654057648 0.3571893569 0.2551352549
-0.7143787138 0.4082164079 0.2041082040
-0.6633516628 0.4592434589 0.1530811530
-0.6123246119 0.5102705099 0.1020541020
-0.5612975609 0.5612975609 0.0510270510
-0.5102705099 0.6123246119 -0.0000000000
-0.4592434589 0.6633516628 -0.0510270510
-0.4082164079 0.7143787138 -0.1020541020
-0.3571893569 0.7654057648 -0.1530811530
-0.3061623059 0.8164328158 -0.2041082040
-0.2551352549 0.8674598668 -0.2551352549
-0.7654057648 0.2551352549 0.3571893569
-0.7143787138 0.3061623059 0.3061623059
-0.6633516628 0.3571893569 0.2551352549
-0.6123246119 0.4082164079 0.2041082040
-0.5612975609 0.4592434589 0.1530811530
-0.5102705099 0.5102705099 0.1020541020
-0.4592434589 0.5612975609 0.0510270510
-0.4082164079 0.6123246119 -0.0000000000
-0.3571893569 0.6633516628 -0.0510270510
-0.3061623059 0.7143787138 -0.1020541020
-0.2551352549 0.7654057648 -0.1530811530
-0.2041082040 0.8164328158 -0.2041082040
-0.7143787138 0.2041082040 0.4082164079
-0.6633516628 0.2551352549 0.3571893569
-0.6123246119 0.3061623059 0.3061623059
-0.5612975609 0.3571893569 0.2551352549
-0.5102705099 0.4082164079 0.2041082040
-0.4592434589 0.4592434589 0.1530811530
-0.4082164079 0.5102705099 0.1020541020
-0.3571893569 0.5612975609 0.0510270510
-0.3061623059 0.6123246119 -0.0000000000
-0.2551352549 0.6633516628 -0.0510270510
-0.2041082040 0.7143787138 -0.1020541020
-0.1530811530 0.7654057648 -0.1530811530
-0.6633516628 0.1530811530 0.4592434589
-0.6123246119 0.2041082040 0.4082164079
-0.5612975609 0.2551352549 0.3571893569
-0.5102705099 0.3061623059 0.3061623059
-0.4592434589 0.3571893569 0.2551352549
-0.4082164079 0.4082164079 0.2041082040
-0.3571893569 0.4592434589 0.1530811530
-0.3061623059 0.5102705099 0.1020541020
-0.2551352549 0.5612975609 0.0510270510
-0.2041082040 0.6123246119 -0.0000000000
-0.1530811530 0.6633516628 -0.0510270510
-0.1020541020 0.7143787138 -0.1020541020
-0.6123246119 0.1020541020 0.5102705099
-0.5612975609 0.1530811530 0.4592434589
-0.5102705099 0.2041082040 0.4082164079
-0.4592434589 0.2551352549 0.3571893569
-0.4082164079 0.3061623059 0.3061623059
-0.3571893569 0.3571893569 0.2551352549
-0.3061623059 0.4082164079 0.2041082040
-0.2551352549 0.4592434589 0.1530811530
-0.2041082040 0.5102705099 0.1020541020
-0.1530811530 0.5612975609 0.0510270510
-0.1020541020 0.6123246119 0.0000000000
-0.0510270510 0.6633516628 -0.0510270510
-0.5612975609 0.0510270510 0.5612975609
-0.5102705099 0.1020541020 0.5102705099
-0.4592434589 0.1530811530 0.4592434589
-0.4082164079 0.2041082040 0.4082164079
-0.3571893569 0.2551352549 0.3571893569
-0.3061623059 0.3061623059 0.3061623059
-0.2551352549 0.3571893569 0.2551352549
-0.2041082040 0.4082164079 0.2041082040
-0.1530811530 0.4592434589 0.1530811530
-0.1020541020 0.5102705099 0.1020541020
-0.0510270510 0.5612975609 0.0510270510
0.0000000000 0.6123246119 0.0000000000
-0.5102705099 0.0000000000 0.6123246119
-0.4592434589 0.0510270510 0.5612975609
-0.4082164079 0.1020541020 0.5102705099
-0.3571893569 0.1530811530 0.4592434589
-0.3061623059 0.2041082040 0.4082164079
-0.2551352549 0.2551352549 0.3571893569
-0.2041082040 0.3061623059 0.3061623059
-0.1530811530 0.3571893569 0.2551352549
-0.1020541020 0.4082164079 0.2041082040
-0.0510270510 0.4592434589 0.1530811530
0.0000000000 0.5102705099 0.1020541020
0.0510270510 0.5612975609 0.0510270510
-0.4592434589 -0.0510270510 0.6633516628
-0.4082164079 0.0000000000 0.6123246119
-0.3571893569 0.0510270510 0.5612975609
-0.3061623059 0.1020541020 0.5102705099
-0.2551352549 0.1530811530 0.4592434589
-0.2041082040 0.2041082040 0.4082164079
-0.1530811530 0.2551352549 0.3571893569
-0.1020541020 0.3061623059 0.3061623059
-0.0510270510 0.3571893569 0.2551352549
0.0000000000 0.4082164079 0.2041082040
0.0510270510 0.4592434589 0.1530811530
0.1020541020 0.5102705099 0.1020541020
-0.4082164079 -0.1020541020 0.7143787138
-0.3571893569 -0.0510270510 0.6633516628
-0.3061623059 0.0000000000 0.6123246119
-0.2551352549 0.0510270510 0.5612975609
-0.2041082040 0.1020541020 0.5102705099
-0.1530811530 0.1530811530 0.4592434589
-0.1020541020 0.2041082040 0.4082164079
-0.0510270510 0.2551352549 0.3571893569
0.0000000000 0.3061623059 0.3061623059
0.0510270510 0.3571893569 0.2551352549
0.1020541020 0.4082164079 0.2041082040
0.1530811530 0.4592434589 0.1530811530
-0.3571893569 -0.1530811530 0.7654057648
-0.3061623059 -0.1020541020 0.7143787138
-0.2551352549 -0.0510270510 0.6633516628
-0.2041082040 0.0000000000 0.6123246119
-0.1530811530 0.0510270510 0.5612975609
-0.1020541020 0.1020541020 0.5102705099
-0.0510270510 0.1530811530 0.4592434589
0.0000000000 0.2041082040 0.4082164079
0.0510270510 0.2551352549 0.3571893569
0.1020541020 0.3061623059 0.3061623059
0.1530811530 0.3571893569 0.2551352549
0.2041082040 0.4082164079 0.2041082040
-0.3061623059 -0.2041082040 0.8164328158
-0.2551352549 -0.1530811530 0.7654057648
-0.2041082040 -0.1020541020 0.7143787138
-0.1530811530 -0.0510270510 0.6633516628
-0.1020541020 0.0000000000 0.6123246119
-0.0510270510 0.0510270510 0.5612975609
0.0000000000 0.1020541020 0.5102705099
0.0510270510 0.1530811530 0.4592434589
0.1020541020 0.2041082040 0.4082164079
0.1530811530 0.2551352549 0.3571893569
0.2041082040 0.3061623059 0.3061623059
0.2551352549 0.3571893569 0.2551352549
-0.2551352549 -0.2551352549 0.8674598668
-0.2041082040 -0.2041082040 0.8164328158
-0.1530811530 -0.1530811530 0.7654057648
-0.1020541020 -0.1020541020 0.7143787138
-0.0510270510 -0.0510270510 0.6633516628
0.0000000000 0.0000000000 0.6123246119
0.0510270510 0.0510270510 0.5612975609
0.1020541020 0.1020541020 0.5102705099
0.1530811530 0.1530811530 0.4592434589
0.2041082040 0.2041082040 0.4082164079
0.2551352549 0.2551352549 0.3571893569
0.3061623059 0.3061623059 0.3061623059
 There are 14 alpha and 14 beta electrons
 Start computing overlap matrix
 Allocate 384970752 B from available memory: 1048575734752 B
[...]
 -0.03362 0.01288 0.15767 0.17229 0.30461 0.32564 0.61171 0.61499 0.67986 0.68374
 0.73548 0.74919 0.79808 0.79972 0.90574 0.97411 0.98054 0.99291 1.04470 1.06896
 1.09215 1.12849 1.19060 1.24230 1.37138 1.40273 1.49187 1.53435 1.54411 1.56999
 1.62788 1.64904 1.70838 1.72825 1.74013 1.75591 1.81063 1.82043 1.87849 1.89343
 2.02535 2.07300 2.11058 2.14122 2.15114 2.26547 2.28752 2.32811 2.34208 2.40519
 2.44425 2.44877 2.50329 2.51587 2.54243 2.58781 2.72197 2.74795 2.78531 2.80703
 2.85440 2.87828 2.94569 2.96065 2.97316 2.98534 3.03495 3.05563 3.09285 3.09768
 3.22510 3.23853 3.24793 3.28584 3.29266 3.30469 3.41128 3.43398 3.50866 3.52459
 3.53661 3.54979 3.63988 3.69042 3.69939 3.73520 3.92685 3.95966 3.96703 4.09563
 4.24411 4.27987 4.32195 4.35990 4.61019 4.62112 8.18532 8.44968 8.57680 8.59830
 9.70974 9.90912 13.37577 13.39543
 == 1710-th k-point (0.00000,0.10205,0.51027) occupation: 14==
 -65.00572 -65.00572 -4.62783 -4.62776 -3.03973 -3.03973 -3.03942 -3.03926 -3.03899 -3.03899
 -0.05334 0.03686 0.15959 0.16680 0.32103 0.34022 0.55141 0.60236 0.67011 0.68992
 0.73262 0.75787 0.79455 0.85882 0.86143 0.91550 0.98985 0.99821 1.05890 1.09278
 1.15744 1.16607 1.18441 1.24532 1.38305 1.38366 1.45651 1.51873 1.54026 1.55751
 1.56579 1.68926 1.72550 1.75304 1.76833 1.78800 1.81191 1.81442 1.87472 1.88412
 2.02344 2.05071 2.10032 2.14952 2.16604 2.22669 2.23494 2.34661 2.38148 2.39717
 2.42235 2.44134 2.53379 2.53797 2.57043 2.59117 2.68758 2.75999 2.81400 2.83656
 2.85835 2.86862 2.92608 2.94040 2.96131 2.98310 2.99921 3.02398 3.07487 3.15237
 3.20927 3.22717 3.29519 3.31863 3.32289 3.35215 3.39773 3.43114 3.52284 3.52289
 3.53061 3.54636 3.63272 3.68755 3.70843 3.72066 3.90512 3.93153 3.96119 4.10276
 4.20708 4.22647 4.30213 4.35488 4.60661 4.61810 8.10871 8.41604 8.44405 8.68827
 10.07489 10.09918 13.30728 13.42127
 == 1711-th k-point (0.05103,0.15308,0.45924) occupation: 14==
 -65.00572 -65.00572 -4.62785 -4.62774 -3.03973 -3.03972 -3.03946 -3.03922 -3.03900 -3.03898
 -0.06813 0.05434 0.14847 0.17783 0.33971 0.38729 0.48920 0.55677 0.65537 0.66947
 0.74139 0.75518 0.80069 0.82940 0.90806 0.91811 1.00045 1.01405 1.06601 1.10214
 1.15524 1.18996 1.24086 1.31350 1.33484 1.36310 1.45943 1.47790 1.50446 1.53479
 1.57634 1.66067 1.70086 1.72476 1.78512 1.81251 1.85135 1.85457 1.91633 1.93404
 2.01431 2.03815 2.08772 2.14058 2.15192 2.19887 2.22332 2.32561 2.37452 2.41231
 2.43826 2.46104 2.52918 2.56359 2.57997 2.62419 2.63011 2.75836 2.78707 2.83511
 2.85694 2.89741 2.91312 2.91503 2.95550 3.00116 3.02594 3.05023 3.08478 3.13464
 3.18439 3.26393 3.29872 3.32365 3.33548 3.38100 3.41015 3.45182 3.48967 3.51829
 3.54441 3.56743 3.65483 3.66833 3.70705 3.73232 3.86205 3.89996 3.96194 4.03187
 4.12079 4.17676 4.27524 4.32822 4.57622 4.60833 8.10637 8.27732 8.32971 8.86207
 10.10012 10.19888 13.26393 13.74140
 == 1712-th k-point (0.10205,0.20411,0.40822) occupation: 14==
 -65.00572 -65.00572 -4.62786 -4.62773 -3.03972 -3.03971 -3.03951 -3.03919 -3.03900 -3.03897
 -0.07758 0.05390 0.15620 0.19640 0.35892 0.43179 0.45387 0.49847 0.63978 0.65108
 0.71340 0.75089 0.77233 0.85878 0.92754 0.95968 0.98586 1.04169 1.07197 1.12269
 1.17257 1.22966 1.26774 1.28842 1.35516 1.38168 1.41119 1.45447 1.50356 1.52708
 1.60226 1.61534 1.64178 1.72405 1.76631 1.81447 1.87230 1.91148 1.93550 1.97552
 2.02258 2.04391 2.06759 2.14056 2.15555 2.19416 2.27050 2.32847 2.35758 2.39254
 2.42390 2.45460 2.49503 2.56448 2.58425 2.63485 2.70529 2.71946 2.79606 2.81894
 2.81942 2.89317 2.90493 2.92516 2.97696 2.99925 3.02948 3.05837 3.09708 3.14268
 3.18714 3.27379 3.30494 3.31242 3.34145 3.38057 3.39772 3.44398 3.50349 3.51025
 3.56326 3.60710 3.68159 3.68453 3.72706 3.76106 3.80175 3.85092 3.90793 3.97188
 4.09819 4.13065 4.24870 4.31697 4.54003 4.58356 8.07096 8.26991 8.31232 9.00295
 9.79305 10.07120 13.13607 14.26066
 == 1713-th k-point (0.15308,0.25514,0.35719) occupation: 14==
 -65.00572 -65.00572 -4.62786 -4.62772 -3.03971 -3.03970 -3.03954 -3.03916 -3.03900 -3.03898
 -0.08181 0.04130 0.18063 0.21748 0.37247 0.39439 0.44416 0.52620 0.61027 0.63445
 0.69239 0.73786 0.77111 0.85518 0.91090 0.96593 1.03301 1.07912 1.10338 1.13614
 1.18029 1.23190 1.28991 1.30417 1.31176 1.38328 1.41940 1.45340 1.47935 1.52811
 1.56141 1.62022 1.65295 1.73783 1.76125 1.76708 1.85180 1.90675 1.95771 1.98339
 2.05385 2.06896 2.10342 2.14799 2.19317 2.23218 2.28058 2.29820 2.35393 2.38764
 2.41122 2.43078 2.50585 2.55423 2.59178 2.63976 2.72848 2.76776 2.78323 2.80282
 2.82440 2.87302 2.89824 2.91770 2.95883 2.98824 3.01114 3.08153 3.10293 3.14244
 3.16390 3.22479 3.26820 3.29566 3.35671 3.41932 3.46150 3.47475 3.50754 3.52066
 3.55761 3.61789 3.67828 3.70125 3.71875 3.74378 3.80934 3.85436 3.92890 3.97982
 4.04446 4.12342 4.24482 4.32601 4.50045 4.54513 8.07605 8.25432 8.35394 9.13975
 9.52413 9.98518 12.78786 14.56759
 == 1714-th k-point (0.20411,0.30616,0.30616) occupation: 14==
 -65.00572 -65.00571 -4.62787 -4.62772 -3.03970 -3.03970 -3.03957 -3.03914 -3.03900 -3.03900
 -0.08127 0.02909 0.20583 0.22936 0.35310 0.40125 0.40883 0.56987 0.61009 0.62813
 0.68883 0.72296 0.76596 0.79048 0.93947 1.00493 1.06130 1.07122 1.12086 1.13514
 1.20938 1.22515 1.27222 1.31167 1.32125 1.38838 1.42797 1.43115 1.46924 1.52690
 1.53437 1.59702 1.66280 1.69833 1.77700 1.83262 1.83975 1.89358 1.96331 1.99557
 2.04238 2.12742 2.14108 2.17949 2.18213 2.21080 2.29798 2.31400 2.32488 2.35844
 2.42730 2.44915 2.53086 2.56954 2.57555 2.65314 2.74860 2.76009 2.78783 2.80662
 2.81840 2.85390 2.88430 2.90188 2.96173 2.98621 3.00616 3.08868 3.10909 3.12046
 3.14972 3.17332 3.23404 3.31763 3.37074 3.41454 3.46559 3.49579 3.52066 3.54384
 3.62075 3.62180 3.68694 3.69398 3.74683 3.74980 3.78031 3.89119 3.98229 3.98889
 4.02553 4.13292 4.22662 4.33492 4.46148 4.49811 8.14956 8.23753 8.37090 9.29923
 9.41940 9.99581 12.35233 14.67646
 == 1715-th k-point (0.25514,0.35719,0.25514) occupation: 14==
 -65.00572 -65.00571 -4.62786 -4.62772 -3.03971 -3.03970 -3.03957 -3.03914 -3.03901 -3.03899
 -0.07679 0.02252 0.20937 0.22406 0.35209 0.39695 0.41299 0.56627 0.61161 0.66999
 0.69677 0.70193 0.73203 0.79269 0.97296 1.03132 1.03528 1.08021 1.09888 1.11913
 1.22392 1.24277 1.24423 1.31425 1.32739 1.37606 1.42037 1.43264 1.46375 1.51730
 1.53353 1.59662 1.65987 1.69358 1.77136 1.82957 1.85112 1.94037 1.95301 1.97975
 2.07662 2.11860 2.15043 2.19606 2.21796 2.22066 2.23974 2.28038 2.33141 2.34305
 2.44996 2.45231 2.52366 2.55786 2.56812 2.67958 2.75316 2.75923 2.77285 2.80143
 2.82095 2.85296 2.87200 2.92061 2.95963 2.96777 3.03493 3.08653 3.09906 3.12008
 3.15539 3.19835 3.21682 3.22373 3.41462 3.41517 3.45924 3.49780 3.53647 3.53964
 3.61762 3.63853 3.65423 3.67721 3.73637 3.76131 3.80767 3.86663 3.98326 3.99246
 4.04369 4.13989 4.22722 4.31693 4.47246 4.47586 8.21345 8.34908 8.35531 9.21589
 9.46473 10.00291 12.31204 14.69454
 == 1716-th k-point (-0.25514,-0.25514,0.86746) occupation: 14==
 -65.00572 -65.00571 -4.62786 -4.62772 -3.03971 -3.03970 -3.03957 -3.03914 -3.03901 -3.03899
 -0.07679 0.02252 0.20937 0.22406 0.35209 0.39695 0.41299 0.56627 0.61161 0.66999
 0.69677 0.70193 0.73203 0.79269 0.97296 1.03132 1.03528 1.08021 1.09888 1.11913
 1.22392 1.24277 1.24423 1.31425 1.32739 1.37606 1.42037 1.43264 1.46375 1.51730
 1.53353 1.59662 1.65987 1.69358 1.77136 1.82957 1.85112 1.94037 1.95301 1.97975
 2.07662 2.11860 2.15043 2.19606 2.21796 2.22066 2.23974 2.28038 2.33141 2.34305
 2.44996 2.45231 2.52366 2.55786 2.56812 2.67958 2.75316 2.75923 2.77285 2.80143
 2.82095 2.85296 2.87200 2.92061 2.95963 2.96777 3.03493 3.08653 3.09906 3.12008
 3.15539 3.19835 3.21682 3.22373 3.41462 3.41517 3.45924 3.49780 3.53647 3.53964
 3.61762 3.63853 3.65423 3.67721 3.73637 3.76131 3.80767 3.86663 3.98326 3.99246
 4.04369 4.13989 4.22722 4.31693 4.47246 4.47586 8.21345 8.34908 8.35531 9.21589
 9.46473 10.00291 12.31204 14.69454
 == 1717-th k-point (-0.20411,-0.20411,0.81643) occupation: 14==
 -65.00572 -65.00572 -4.62786 -4.62773 -3.03972 -3.03970 -3.03953 -3.03917 -3.03901 -3.03897
 -0.07235 0.03230 0.17277 0.20928 0.35159 0.42818 0.44739 0.51343 0.62309 0.66775
 0.71007 0.71584 0.74398 0.87395 0.94505 0.98326 1.02746 1.04586 1.06492 1.12740
 1.16922 1.26846 1.28291 1.28902 1.30355 1.36894 1.41402 1.42405 1.48209 1.54251
 1.56400 1.61740 1.67479 1.68482 1.73745 1.80043 1.87797 1.92979 1.98076 2.03019
 2.03672 2.05228 2.09059 2.15376 2.17067 2.26163 2.28487 2.29051 2.30102 2.37568
 2.40651 2.46659 2.48420 2.52026 2.57944 2.67524 2.72080 2.74000 2.78323 2.82028
 2.83179 2.89709 2.91388 2.93094 2.96063 2.99056 3.04946 3.06324 3.07286 3.11473
 3.13562 3.24202 3.26843 3.26953 3.35847 3.39313 3.42411 3.45188 3.52271 3.53092
 3.59273 3.61506 3.67991 3.68305 3.73379 3.78336 3.80166 3.84882 3.87806 3.95618
 4.05549 4.17286 4.25351 4.28924 4.51899 4.52345 8.13238 8.35731 8.37766 9.00058
 9.65110 9.92065 12.88169 14.56769
 == 1718-th k-point (-0.15308,-0.15308,0.76541) occupation: 14==
 -65.00572 -65.00572 -4.62785 -4.62774 -3.03973 -3.03971 -3.03948 -3.03921 -3.03900 -3.03897
 -0.06405 0.04083 0.14468 0.19343 0.33221 0.44059 0.48813 0.49549 0.65285 0.66957
 0.72935 0.74543 0.75518 0.90006 0.93689 0.96869 0.99364 1.00666 1.01747 1.12477
 1.16479 1.21133 1.22860 1.32197 1.35774 1.36939 1.37173 1.44745 1.49934 1.56347
 1.60340 1.63901 1.67001 1.68443 1.71742 1.81671 1.90722 1.92949 1.93720 1.99284
 2.01727 2.04350 2.08079 2.13670 2.16465 2.19984 2.28268 2.31832 2.32872 2.37173
 2.44967 2.46060 2.50183 2.51832 2.61369 2.61567 2.65890 2.74202 2.79473 2.81325
 2.83900 2.90347 2.93266 2.95208 2.95849 3.02424 3.03492 3.05235 3.08344 3.12953
 3.15782 3.23434 3.31619 3.32476 3.33823 3.34890 3.35789 3.43704 3.49607 3.50547
 3.56509 3.65322 3.65633 3.71683 3.72004 3.79000 3.80055 3.84767 3.87727 3.98495
 4.07392 4.21006 4.25236 4.29395 4.55818 4.56779 8.10085 8.34158 8.40292 8.85902
 9.77662 9.94108 13.16066 14.19017
 == 1719-th k-point (-0.10205,-0.10205,0.71438) occupation: 14==
 -65.00572 -65.00572 -4.62783 -4.62776 -3.03973 -3.03972 -3.03943 -3.03925 -3.03899 -3.03898
 -0.05122 0.03437 0.14087 0.18052 0.31532 0.37644 0.55220 0.55250 0.66906 0.67554
 0.73624 0.75147 0.81745 0.86213 0.87218 0.96275 0.97477 0.99850 1.04064 1.12236
 1.13578 1.15648 1.19069 1.26980 1.36519 1.38147 1.46095 1.48552 1.49748 1.56713
 1.62616 1.64039 1.68490 1.71436 1.75832 1.80080 1.82873 1.86630 1.91204 1.95070
 1.98410 2.06848 2.12037 2.15019 2.19616 2.19972 2.22847 2.34272 2.36236 2.37863
 2.44680 2.44967 2.51705 2.52311 2.55603 2.63131 2.67074 2.77089 2.79760 2.81241
 2.82987 2.90587 2.91401 2.95272 2.95370 3.00581 3.02522 3.05124 3.08279 3.14171
 3.22395 3.23245 3.24372 3.31912 3.32478 3.34656 3.36509 3.44328 3.48885 3.50725
 3.56319 3.61609 3.64216 3.66627 3.71361 3.75174 3.85753 3.89750 3.96739 4.04948
 4.13354 4.24873 4.28819 4.32108 4.58902 4.60628 8.11045 8.39722 8.47716 8.70684
 9.77653 10.12342 13.28576 13.63741
 == 1720-th k-point (-0.05103,-0.05103,0.66335) occupation: 14==
 -65.00572 -65.00572 -4.62781 -4.62778 -3.03973 -3.03973 -3.03938 -3.03930 -3.03898 -3.03898
 -0.03362 0.01288 0.15767 0.17229 0.30461 0.32564 0.61171 0.61499 0.67986 0.68374
 0.73548 0.74919 0.79808 0.79972 0.90574 0.97411 0.98054 0.99291 1.04470 1.06896
 1.09215 1.12849 1.19060 1.24230 1.37138 1.40273 1.49187 1.53435 1.54411 1.56999
 1.62788 1.64904 1.70838 1.72825 1.74013 1.75591 1.81063 1.82043 1.87849 1.89343
 2.02535 2.07300 2.11058 2.14122 2.15114 2.26547 2.28752 2.32811 2.34208 2.40519
 2.44425 2.44877 2.50329 2.51587 2.54243 2.58781 2.72197 2.74795 2.78531 2.80703
 2.85440 2.87828 2.94569 2.96065 2.97316 2.98534 3.03495 3.05563 3.09285 3.09768
 3.22510 3.23853 3.24793 3.28584 3.29266 3.30469 3.41128 3.43398 3.50866 3.52459
 3.53661 3.54979 3.63988 3.69042 3.69939 3.73520 3.92685 3.95966 3.96703 4.09563
 4.24411 4.27987 4.32195 4.35990 4.61019 4.62112 8.18532 8.44968 8.57680 8.59830
 9.70974 9.90912 13.37577 13.39543
 == 1721-th k-point (0.00000,0.00000,0.61232) occupation: 14==
 -65.00572 -65.00572 -4.62779 -4.62779 -3.03974 -3.03974 -3.03934 -3.03934 -3.03898 -3.03898
 -0.01167 -0.01167 0.16949 0.16949 0.30233 0.30233 0.64789 0.64789 0.68863 0.68863
 0.74435 0.74435 0.75497 0.75497 0.97738 0.97738 1.00276 1.00276 1.02303 1.02303
 1.06988 1.06988 1.23781 1.23781 1.37413 1.37413 1.54469 1.54469 1.58190 1.58190
 1.63094 1.63094 1.69129 1.69129 1.74495 1.74495 1.82809 1.82809 1.85625 1.85625
 2.08217 2.08217 2.09744 2.09744 2.18715 2.18715 2.30489 2.30489 2.43078 2.43078
 2.45549 2.45549 2.50287 2.50287 2.52315 2.52315 2.73706 2.73706 2.77740 2.77740
 2.86851 2.86851 2.98825 2.98825 3.00916 3.00916 3.02669 3.02669 3.08164 3.08164
 3.23376 3.23376 3.25068 3.25068 3.26314 3.26314 3.45942 3.45942 3.49236 3.49236
 3.55762 3.55762 3.64296 3.64296 3.72920 3.72920 3.93754 3.93754 4.06937 4.06937
 4.29190 4.29190 4.35418 4.35418 4.61746 4.61746 8.31771 8.31771 8.62573 8.62573
 9.67353 9.67353 13.41104 13.41104
 == 1722-th k-point (0.05103,0.05103,0.56130) occupation: 14==
 -65.00572 -65.00572 -4.62781 -4.62778 -3.03973 -3.03973 -3.03938 -3.03930 -3.03898 -3.03898
 -0.03362 0.01288 0.15767 0.17229 0.30461 0.32564 0.61171 0.61499 0.67986 0.68374
 0.73548 0.74919 0.79808 0.79972 0.90574 0.97411 0.98054 0.99291 1.04470 1.06896
 1.09215 1.12849 1.19060 1.24230 1.37138 1.40273 1.49187 1.53435 1.54411 1.56999
 1.62788 1.64904 1.70838 1.72825 1.74013 1.75591 1.81063 1.82043 1.87849 1.89343
 2.02535 2.07300 2.11058 2.14122 2.15114 2.26547 2.28752 2.32811 2.34208 2.40519
 2.44425 2.44877 2.50329 2.51587 2.54243 2.58781 2.72197 2.74795 2.78531 2.80703
 2.85440 2.87828 2.94569 2.96065 2.97316 2.98534 3.03495 3.05563 3.09285 3.09768
 3.22510 3.23853 3.24793 3.28584 3.29266 3.30469 3.41128 3.43398 3.50866 3.52459
 3.53661 3.54979 3.63988 3.69042 3.69939 3.73520 3.92685 3.95966 3.96703 4.09563
 4.24411 4.27987 4.32195 4.35990 4.61019 4.62112 8.18532 8.44968 8.57680 8.59830
 9.70974 9.90912 13.37577 13.39543
 == 1723-th k-point (0.10205,0.10205,0.51027) occupation: 14==
 -65.00572 -65.00572 -4.62783 -4.62776 -3.03973 -3.03972 -3.03943 -3.03925 -3.03899 -3.03898
 -0.05122 0.03437 0.14087 0.18052 0.31532 0.37644 0.55220 0.55250 0.66906 0.67554
 0.73624 0.75147 0.81745 0.86213 0.87218 0.96275 0.97477 0.99850 1.04064 1.12236
 1.13578 1.15648 1.19069 1.26980 1.36519 1.38147 1.46095 1.48552 1.49748 1.56713
 1.62616 1.64039 1.68490 1.71436 1.75832 1.80080 1.82873 1.86630 1.91204 1.95070
 1.98410 2.06848 2.12037 2.15019 2.19616 2.19972 2.22847 2.34272 2.36236 2.37863
 2.44680 2.44967 2.51705 2.52311 2.55603 2.63131 2.67074 2.77089 2.79760 2.81241
 2.82987 2.90587 2.91401 2.95272 2.95370 3.00581 3.02522 3.05124 3.08279 3.14171
 3.22395 3.23245 3.24372 3.31912 3.32478 3.34656 3.36509 3.44328 3.48885 3.50725
 3.56319 3.61609 3.64216 3.66627 3.71361 3.75174 3.85753 3.89750 3.96739 4.04948
 4.13354 4.24873 4.28819 4.32108 4.58902 4.60628 8.11045 8.39722 8.47716 8.70684
 9.77653 10.12342 13.28576 13.63741
 == 1724-th k-point (0.15308,0.15308,0.45924) occupation: 14==
 -65.00572 -65.00572 -4.62785 -4.62774 -3.03973 -3.03971 -3.03948 -3.03921 -3.03900 -3.03897
 -0.06405 0.04083 0.14468 0.19343 0.33221 0.44059 0.48813 0.49549 0.65285 0.66957
 0.72935 0.74543 0.75518 0.90006 0.93689 0.96869 0.99364 1.00666 1.01747 1.12477
 1.16479 1.21133 1.22860 1.32197 1.35774 1.36939 1.37173 1.44745 1.49934 1.56347
 1.60340 1.63901 1.67001 1.68443 1.71742 1.81671 1.90722 1.92949 1.93720 1.99284
 2.01727 2.04350 2.08079 2.13670 2.16465 2.19984 2.28268 2.31832 2.32872 2.37173
 2.44967 2.46060 2.50183 2.51832 2.61369 2.61567 2.65890 2.74202 2.79473 2.81325
 2.83900 2.90347 2.93266 2.95208 2.95849 3.02424 3.03492 3.05235 3.08344 3.12953
 3.15782 3.23434 3.31619 3.32476 3.33823 3.34890 3.35789 3.43704 3.49607 3.50547
 3.56509 3.65322 3.65633 3.71683 3.72004 3.79000 3.80055 3.84767 3.87727 3.98495
 4.07392 4.21006 4.25236 4.29395 4.55818 4.56779 8.10085 8.34158 8.40292 8.85902
 9.77662 9.94108 13.16066 14.19017
 == 1725-th k-point (0.20411,0.20411,0.40822) occupation: 14==
 -65.00572 -65.00572 -4.62786 -4.62773 -3.03972 -3.03970 -3.03953 -3.03917 -3.03901 -3.03897
 -0.07235 0.03230 0.17277 0.20928 0.35159 0.42818 0.44739 0.51343 0.62309 0.66775
 0.71007 0.71584 0.74398 0.87395 0.94505 0.98326 1.02746 1.04586 1.06492 1.12740
 1.16922 1.26846 1.28291 1.28902 1.30355 1.36894 1.41402 1.42405 1.48209 1.54251
 1.56400 1.61740 1.67479 1.68482 1.73745 1.80043 1.87797 1.92979 1.98076 2.03019
 2.03672 2.05228 2.09059 2.15376 2.17067 2.26163 2.28487 2.29051 2.30102 2.37568
 2.40651 2.46659 2.48420 2.52026 2.57944 2.67524 2.72080 2.74000 2.78323 2.82028
 2.83179 2.89709 2.91388 2.93094 2.96063 2.99056 3.04946 3.06324 3.07286 3.11473
 3.13562 3.24202 3.26843 3.26953 3.35847 3.39313 3.42411 3.45188 3.52271 3.53092
 3.59273 3.61506 3.67991 3.68305 3.73379 3.78336 3.80166 3.84882 3.87806 3.95618
 4.05549 4.17286 4.25351 4.28924 4.51899 4.52345 8.13238 8.35731 8.37766 9.00058
 9.65110 9.92065 12.88169 14.56769
 == 1726-th k-point (0.25514,0.25514,0.35719) occupation: 14==
 -65.00572 -65.00571 -4.62786 -4.62772 -3.03971 -3.03970 -3.03957 -3.03914 -3.03901 -3.03899
 -0.07679 0.02252 0.20937 0.22406 0.35209 0.39695 0.41299 0.56627 0.61161 0.66999
 0.69677 0.70193 0.73203 0.79269 0.97296 1.03132 1.03528 1.08021 1.09888 1.11913
 1.22392 1.24277 1.24423 1.31425 1.32739 1.37606 1.42037 1.43264 1.46375 1.51730
 1.53353 1.59662 1.65987 1.69358 1.77136 1.82957 1.85112 1.94037 1.95301 1.97975
 2.07662 2.11860 2.15043 2.19606 2.21796 2.22066 2.23974 2.28038 2.33141 2.34305
 2.44996 2.45231 2.52366 2.55786 2.56812 2.67958 2.75316 2.75923 2.77285 2.80143
 2.82095 2.85296 2.87200 2.92061 2.95963 2.96777 3.03493 3.08653 3.09906 3.12008
 3.15539 3.19835 3.21682 3.22373 3.41462 3.41517 3.45924 3.49780 3.53647 3.53964
 3.61762 3.63853 3.65423 3.67721 3.73637 3.76131 3.80767 3.86663 3.98326 3.99246
 4.04369 4.13989 4.22722 4.31693 4.47246 4.47586 8.21345 8.34908 8.35531 9.21589
 9.46473 10.00291 12.31204 14.69454
 == 1727-th k-point (0.30616,0.30616,0.30616) occupation: 14==
 -65.00572 -65.00571 -4.62787 -4.62772 -3.03970 -3.03970 -3.03958 -3.03912 -3.03900 -3.03900
 -0.07815 0.01866 0.23060 0.23060 0.33347 0.39988 0.39988 0.55828 0.67258 0.67258
 0.69293 0.69515 0.69515 0.75384 0.99991 1.01490 1.09073 1.09073 1.09449 1.09449
 1.23853 1.26018 1.26018 1.30693 1.30693 1.35740 1.41647 1.49026 1.49026 1.50092
 1.50092 1.58380 1.62551 1.65336 1.87965 1.87965 1.88660 1.90793 1.90793 1.92000
 2.12699 2.12699 2.19128 2.19557 2.19557 2.24475 2.26798 2.26798 2.33169 2.33169
 2.46139 2.46139 2.55496 2.55496 2.60133 2.67916 2.74719 2.77403 2.77403 2.79478
 2.81586 2.81586 2.82819 2.91981 2.94997 2.96170 3.09501 3.09501 3.09725 3.09725
 3.19197 3.19197 3.20979 3.20979 3.31468 3.46461 3.46461 3.55213 3.55485 3.55485
 3.56433 3.66038 3.66038 3.69000 3.73079 3.76016 3.93124 3.93124 3.99915 3.99915
 4.12743 4.14540 4.14540 4.33479 4.43705 4.43705 8.25308 8.25308 8.32989 9.36290
 9.36290 10.00440 11.95021 14.72120
 ---------------------------------------------------------------------------
 VBM is at 785-th k-point with 7.49049 eV
 CBM is at 850-th k-point with 8.08416 eV
 Band gap is 0.59367 eV


           Ground-State Mulliken Net Atomic Charges

      Atom                 Charge (a.u.)          Spin (a.u.)
   --------------------------------------------------------
      1 Si               (0.000000,-0.000000)    (0.000000,0.000000)
      2 Si               (-0.000000,0.000000)    (0.000000,0.000000)
   --------------------------------------------------------
  Sum of atomic charges =      (-0.000000,0.000000)
  Sum of spin   charges =       (0.000000,0.000000)



 Total job time:  1934.99 s.
 Tue Sep  9 08:07:00 2025


        *************************************************************
        *                                                           *
        *  Thank you very much for using QCPBC. Have a nice day.    *
        *                                                           *
        *************************************************************

Running job 1 of 1
