                  Welcome to Q-Chem
           with Periodic Boundary Condition
     A Quantum Leap Into The Future Of Chemistry

 Adam Rettig, Xintian Feng, Meng-Fu Chen, Hieu Dinh, Stephen Quiton,
 Anton Ni, Paul J. Robinson, Jinghong Zhang, Joonho Lee

Contributors to earlier versions of Q-Chem not listed above:
 Evgeny Epifanovsky, Leo Cunha, Jerome F. Gonthier, Kuan-Yu Liu
 Input file: /n/netscratch/joonholee_lab/Lab/hieudinh//si_2_ccpvqz_omega_0.9_888.scratch20250909040713/si_2_ccpvqz_omega_0.9_888.0
 Scratch folder: /n/netscratch/joonholee_lab/Lab/hieudinh//si_2_ccpvqz_omega_0.9_888.scratch20250909040713
 Auxillary files located at: /n/holylabs/LABS/joonholee_lab/Lab/qchem_base/qcaux
 Q-Chem begins on Tue Sep  9 04:07:13 2025

 -------------------------------------------------------------
 User input:
 -------------------------------------------------------------
 $lattice
 3
 0.000000 5.130600 5.130600
 5.130600 0.000000 5.130600
 5.130600 5.130600 0.000000
 $end
 
 $unitcell
 ABSOLUTE
 0 1
 Si 0.000000 0.000000 0.000000
 Si 2.565300 2.565300 2.565300
 $end
 
 $rem
 jobtype = sp
 method = pbe
 scf_convergence = 5
 scf_guess = autosad
 scf_algorithm = diis_gdm
 basis = cc-pvqz
 aux_basis = cc-pvqz-jk
 input_bohr = true
 symmetry = false
 rsdf_print_level 1
 is_basis_uctr true
 
 mp_mesh = [8,8,8]
 
 integral_direct true
 bvk_cgto true
 
 thresh 14
 mem_total 1000000
 threads 32
 
 MAX_SCF_CYCLES 500
 madelung = false
 omega 0.9
 do_rij_bigmem true
 automate_g true
 print_level 10
 grid_type_xc 1
 
 thresh_1e2c_sp 1e-14
 thresh_2e3c_bra_ket_sep 1e-10
 thresh_g 1e-12
 $end
 
 -------------------------------------------------------------
 Running PBC job

 Requested Exchange Correlation Functionals: 
  DFT Exchange:  1.00000 pbe_x
  DFT Correlation:  1.00000 pbe_c
 using 32 threads for computing.
 ---------------------------------------------------------------
      Coordinates of Atoms in Central Unit Cell (Angstroms)
    I     Atom         X            Y            Z
 ---------------------------------------------------------------
    1      Si      0.000000     0.000000     0.000000
    2      Si      1.357498     1.357498     1.357498
 ---------------------------------------------------------------
 --------------------------------------------------
              Lattice Vectors (Angstroms)
              X            Y            Z
 --------------------------------------------------
   X       0.000000     2.714997     2.714997
   Y       2.714997     0.000000     2.714997
   Z       2.714997     2.714997     0.000000
 --------------------------------------------------
 --------------------------------------------------
       Reciprocal Lattice Vectors (Angstroms^-1)
              X            Y            Z
 --------------------------------------------------
   X      -1.157126     1.157126     1.157126
   Y       1.157126    -1.157126     1.157126
   Z       1.157126     1.157126    -1.157126
 --------------------------------------------------

 Single point calculation requested

 Hamiltonian contributions:
 List of terms in Hamiltonian: kpts_nn, kpts_kinetic, kpts_vnuc_df, kpts_xc, kpts_rij_bigmem

 K-Points calculation started.

 Basis set information about using solid harmonic (1) or Cartesian (0):
  si : D(1) D(1) D(1) F(1) F(1) G(1) 

 Basis set information about using solid harmonic (1) or Cartesian (0):
  si : D(1) D(1) D(1) D(1) D(1) D(1) D(1) D(1) D(1) F(1) F(1) F(1) F(1) G(1) G(1) H(1) 

 There are 118 basis functions in the central unit cell.
 Print atomic basis of atoms in the central unit cell:
 -------------------------------------------------------------
2 66 134 28

  0.00000000000000e+00  0.00000000000000e+00  0.00000000000000e+00
  2.56530000000000e+00  2.56530000000000e+00  2.56530000000000e+00

  5.13000000000000e+05
  7.68200000000000e+04
  1.74700000000000e+04
  4.93500000000000e+03
  1.60200000000000e+03
  5.74100000000000e+02
  2.21500000000000e+02
  9.05400000000000e+01
  3.87400000000000e+01
  1.69500000000000e+01
  6.45200000000000e+00
  2.87400000000000e+00
  1.25000000000000e+00
  3.59900000000000e-01
  1.69900000000000e-01
  7.06600000000000e-02
  1.12200000000000e+03
  2.66000000000000e+02
  8.59200000000000e+01
  3.23300000000000e+01
  1.33700000000000e+01
  5.80000000000000e+00
  2.55900000000000e+00
  1.12400000000000e+00
  3.98800000000000e-01
  1.53300000000000e-01
  5.72800000000000e-02
  7.60000000000000e-01
  3.02000000000000e-01
  1.20000000000000e-01
  5.41000000000000e-01
  2.12000000000000e-01
  4.61000000000000e-01
  5.13000000000000e+05
  7.68200000000000e+04
  1.74700000000000e+04
  4.93500000000000e+03
  1.60200000000000e+03
  5.74100000000000e+02
  2.21500000000000e+02
  9.05400000000000e+01
  3.87400000000000e+01
  1.69500000000000e+01
  6.45200000000000e+00
  2.87400000000000e+00
  1.25000000000000e+00
  3.59900000000000e-01
  1.69900000000000e-01
  7.06600000000000e-02
  1.12200000000000e+03
  2.66000000000000e+02
  8.59200000000000e+01
  3.23300000000000e+01
  1.33700000000000e+01
  5.80000000000000e+00
  2.55900000000000e+00
  1.12400000000000e+00
  3.98800000000000e-01
  1.53300000000000e-01
  5.72800000000000e-02
  7.60000000000000e-01
  3.02000000000000e-01
  1.20000000000000e-01
  5.41000000000000e-01
  2.12000000000000e-01
  4.61000000000000e-01

  3.56439732356011e-01
  6.67250935594825e-01
  1.15567538346971e+00
  1.89079471139597e+00
  2.92997535092854e+00
  4.25377897422013e+00
  5.53035652706994e+00
  5.88407857713363e+00
  4.26432221020809e+00
  1.46246852660687e+00
  9.90009037975635e-02
 -5.26805361731285e-03
  1.58075269248041e-03
 -9.63604858609034e-02
 -1.80140685379119e-01
 -3.12991611081079e-01
 -5.12013980868736e-01
 -8.03092560139717e-01
 -1.18597193899895e+00
 -1.63453354628192e+00
 -1.94138718043020e+00
 -1.86039340932271e+00
 -9.21642524314205e-01
  4.93552860211257e-01
  9.09065541611183e-01
  3.40430003714153e-01
  4.89002727192571e-02
  9.13245846186842e-02
  1.58921585782757e-01
  2.59526822498432e-01
  4.08347517411705e-01
  6.02266139654795e-01
  8.36774006155092e-01
  9.98775610751853e-01
  9.86583994360998e-01
  5.01500269670235e-01
 -2.91439000418814e-01
 -6.84883633703988e-01
 -4.85138432421684e-01
  3.31166560285492e-01
  1.88605835767988e-01
  9.76765512168845e-02
  4.17977074735086e+00
  5.88843070847456e+00
  7.44317185052013e+00
  8.05001094515016e+00
  6.97099017282640e+00
  4.33955185260449e+00
  1.76355858703549e+00
  3.34437932089088e-01
 -4.09551658476811e+00
 -5.70145272051300e+00
 -7.35388974061730e+00
 -7.93663059323219e+00
 -7.17813870370958e+00
 -4.42768957771269e+00
 -2.05517820096269e+00
 -1.72105843348797e-01
  4.51735295769850e-01
  1.36731249153695e-01
  3.99432914781939e-02
  1.01820035164008e+00
  2.02498404800701e-01
  4.02695370421242e-02
  3.69528803814005e-01
  4.48962571437413e-02
  1.32316184864580e-01
  3.56439732356011e-01
  6.67250935594825e-01
  1.15567538346971e+00
  1.89079471139597e+00
  2.92997535092854e+00
  4.25377897422013e+00
  5.53035652706994e+00
  5.88407857713363e+00
  4.26432221020809e+00
  1.46246852660687e+00
  9.90009037975635e-02
 -5.26805361731285e-03
  1.58075269248041e-03
 -9.63604858609034e-02
 -1.80140685379119e-01
 -3.12991611081079e-01
 -5.12013980868736e-01
 -8.03092560139717e-01
 -1.18597193899895e+00
 -1.63453354628192e+00
 -1.94138718043020e+00
 -1.86039340932271e+00
 -9.21642524314205e-01
  4.93552860211257e-01
  9.09065541611183e-01
  3.40430003714153e-01
  4.89002727192571e-02
  9.13245846186842e-02
  1.58921585782757e-01
  2.59526822498432e-01
  4.08347517411705e-01
  6.02266139654795e-01
  8.36774006155092e-01
  9.98775610751853e-01
  9.86583994360998e-01
  5.01500269670235e-01
 -2.91439000418814e-01
 -6.84883633703988e-01
 -4.85138432421684e-01
  3.31166560285492e-01
  1.88605835767988e-01
  9.76765512168845e-02
  4.17977074735086e+00
  5.88843070847456e+00
  7.44317185052013e+00
  8.05001094515016e+00
  6.97099017282640e+00
  4.33955185260449e+00
  1.76355858703549e+00
  3.34437932089088e-01
 -4.09551658476811e+00
 -5.70145272051300e+00
 -7.35388974061730e+00
 -7.93663059323219e+00
 -7.17813870370958e+00
 -4.42768957771269e+00
 -2.05517820096269e+00
 -1.72105843348797e-01
  4.51735295769850e-01
  1.36731249153695e-01
  3.99432914781939e-02
  1.01820035164008e+00
  2.02498404800701e-01
  4.02695370421242e-02
  3.69528803814005e-01
  4.48962571437413e-02
  1.32316184864580e-01

0 0 0 0 3 3 3
0 0 13 0 26 0 
13 0

0 3 3 13 1 1 1
39 0 
1 0

0 4 4 14 1 1 1
40 0 
1 0

0 5 5 15 1 1 1
41 0 
1 0

0 6 6 16 2 6 6
42 1 50 1 
8 0

0 12 12 24 1 3 3
58 1 
1 0

0 15 15 25 1 3 3
59 1 
1 0

0 18 18 26 1 3 3
60 1 
1 0

0 21 21 27 1 5 6
61 2 
1 1

0 26 26 28 1 5 6
62 2 
1 1

0 31 31 29 1 5 6
63 2 
1 1

0 36 36 30 1 7 10
64 3 
1 1

0 43 43 31 1 7 10
65 3 
1 1

0 50 50 32 1 9 15
66 4 
1 1

1 59 59 33 3 3 3
67 0 80 0 93 0 
13 0

1 62 62 46 1 1 1
106 0 
1 0

1 63 63 47 1 1 1
107 0 
1 0

1 64 64 48 1 1 1
108 0 
1 0

1 65 65 49 2 6 6
109 1 117 1 
8 0

1 71 71 57 1 3 3
125 1 
1 0

1 74 74 58 1 3 3
126 1 
1 0

1 77 77 59 1 3 3
127 1 
1 0

1 80 80 60 1 5 6
128 2 
1 1

1 85 85 61 1 5 6
129 2 
1 1

1 90 90 62 1 5 6
130 2 
1 1

1 95 95 63 1 7 10
131 3 
1 1

1 102 102 64 1 7 10
132 3 
1 1

1 109 109 65 1 9 15
133 4 
1 1

 -------------------------------------------------------------
 Allocate 265256 B from available memory: 1048576000000 B
 There are 2197 image cells after screening.
 There are 2061 image cells for CGTO evaluation after screening.
 Real-Space grid for FFT initialized based on kinetic energy cutoff (eV) = 500.0
 Real-Space grid for FFT: (10,10,10)
 There are 9261 real-space grid points.
 There are 64 batches of real-space grid points. 
 Size of each grid batch is around 128
 Grid for AFT initialized based on kinetic energy cutoff (eV) = 500.0
 Real-Space grid for AFT: (10,10,10)
 There are 9261 real-space grid points.

 There are 5628 atom-centered grid points.

 Spacegroup symmetry group: Fd-3m
 Reducing spacegroup symmetry to symmorphic group: F -4 3 m
 Monkhorst-Pack mesh is [8,8,8]
 There are 512 k points.
kpoints in Bohr
-0.2296217294 -0.2296217294 -0.2296217294
-0.1530811530 -0.1530811530 -0.3061623059
-0.0765405765 -0.0765405765 -0.3827028824
-0.0000000000 -0.0000000000 -0.4592434589
0.0765405765 0.0765405765 -0.5357840354
0.1530811530 0.1530811530 -0.6123246119
0.2296217294 0.2296217294 -0.6888651883
0.3061623059 0.3061623059 -0.7654057648
-0.1530811530 -0.3061623059 -0.1530811530
-0.0765405765 -0.2296217294 -0.2296217294
-0.0000000000 -0.1530811530 -0.3061623059
0.0765405765 -0.0765405765 -0.3827028824
0.1530811530 -0.0000000000 -0.4592434589
0.2296217294 0.0765405765 -0.5357840354
0.3061623059 0.1530811530 -0.6123246119
0.3827028824 0.2296217294 -0.6888651883
-0.0765405765 -0.3827028824 -0.0765405765
-0.0000000000 -0.3061623059 -0.1530811530
0.0765405765 -0.2296217294 -0.2296217294
0.1530811530 -0.1530811530 -0.3061623059
0.2296217294 -0.0765405765 -0.3827028824
0.3061623059 -0.0000000000 -0.4592434589
0.3827028824 0.0765405765 -0.5357840354
0.4592434589 0.1530811530 -0.6123246119
-0.0000000000 -0.4592434589 0.0000000000
0.0765405765 -0.3827028824 -0.0765405765
0.1530811530 -0.3061623059 -0.1530811530
0.2296217294 -0.2296217294 -0.2296217294
0.3061623059 -0.1530811530 -0.3061623059
0.3827028824 -0.0765405765 -0.3827028824
0.4592434589 0.0000000000 -0.4592434589
0.5357840354 0.0765405765 -0.5357840354
0.0765405765 -0.5357840354 0.0765405765
0.1530811530 -0.4592434589 0.0000000000
0.2296217294 -0.3827028824 -0.0765405765
0.3061623059 -0.3061623059 -0.1530811530
0.3827028824 -0.2296217294 -0.2296217294
0.4592434589 -0.1530811530 -0.3061623059
0.5357840354 -0.0765405765 -0.3827028824
0.6123246119 0.0000000000 -0.4592434589
0.1530811530 -0.6123246119 0.1530811530
0.2296217294 -0.5357840354 0.0765405765
0.3061623059 -0.4592434589 0.0000000000
0.3827028824 -0.3827028824 -0.0765405765
0.4592434589 -0.3061623059 -0.1530811530
0.5357840354 -0.2296217294 -0.2296217294
0.6123246119 -0.1530811530 -0.3061623059
0.6888651883 -0.0765405765 -0.3827028824
0.2296217294 -0.6888651883 0.2296217294
0.3061623059 -0.6123246119 0.1530811530
0.3827028824 -0.5357840354 0.0765405765
0.4592434589 -0.4592434589 0.0000000000
0.5357840354 -0.3827028824 -0.0765405765
0.6123246119 -0.3061623059 -0.1530811530
0.6888651883 -0.2296217294 -0.2296217294
0.7654057648 -0.1530811530 -0.3061623059
0.3061623059 -0.7654057648 0.3061623059
0.3827028824 -0.6888651883 0.2296217294
0.4592434589 -0.6123246119 0.1530811530
0.5357840354 -0.5357840354 0.0765405765
0.6123246119 -0.4592434589 0.0000000000
0.6888651883 -0.3827028824 -0.0765405765
0.7654057648 -0.3061623059 -0.1530811530
0.8419463413 -0.2296217294 -0.2296217294
-0.3061623059 -0.1530811530 -0.1530811530
-0.2296217294 -0.0765405765 -0.2296217294
-0.1530811530 -0.0000000000 -0.3061623059
-0.0765405765 0.0765405765 -0.3827028824
-0.0000000000 0.1530811530 -0.4592434589
0.0765405765 0.2296217294 -0.5357840354
0.1530811530 0.3061623059 -0.6123246119
0.2296217294 0.3827028824 -0.6888651883
-0.2296217294 -0.2296217294 -0.0765405765
-0.1530811530 -0.1530811530 -0.1530811530
-0.0765405765 -0.0765405765 -0.2296217294
-0.0000000000 -0.0000000000 -0.3061623059
0.0765405765 0.0765405765 -0.3827028824
0.1530811530 0.1530811530 -0.4592434589
0.2296217294 0.2296217294 -0.5357840354
0.3061623059 0.3061623059 -0.6123246119
-0.1530811530 -0.3061623059 -0.0000000000
-0.0765405765 -0.2296217294 -0.0765405765
-0.0000000000 -0.1530811530 -0.1530811530
0.0765405765 -0.0765405765 -0.2296217294
0.1530811530 -0.0000000000 -0.3061623059
0.2296217294 0.0765405765 -0.3827028824
0.3061623059 0.1530811530 -0.4592434589
0.3827028824 0.2296217294 -0.5357840354
-0.0765405765 -0.3827028824 0.0765405765
-0.0000000000 -0.3061623059 0.0000000000
0.0765405765 -0.2296217294 -0.0765405765
0.1530811530 -0.1530811530 -0.1530811530
0.2296217294 -0.0765405765 -0.2296217294
0.3061623059 0.0000000000 -0.3061623059
0.3827028824 0.0765405765 -0.3827028824
0.4592434589 0.1530811530 -0.4592434589
-0.0000000000 -0.4592434589 0.1530811530
0.0765405765 -0.3827028824 0.0765405765
0.1530811530 -0.3061623059 0.0000000000
0.2296217294 -0.2296217294 -0.0765405765
0.3061623059 -0.1530811530 -0.1530811530
0.3827028824 -0.0765405765 -0.2296217294
0.4592434589 0.0000000000 -0.3061623059
0.5357840354 0.0765405765 -0.3827028824
0.0765405765 -0.5357840354 0.2296217294
0.1530811530 -0.4592434589 0.1530811530
0.2296217294 -0.3827028824 0.0765405765
0.3061623059 -0.3061623059 0.0000000000
0.3827028824 -0.2296217294 -0.0765405765
0.4592434589 -0.1530811530 -0.1530811530
0.5357840354 -0.0765405765 -0.2296217294
0.6123246119 0.0000000000 -0.3061623059
0.1530811530 -0.6123246119 0.3061623059
0.2296217294 -0.5357840354 0.2296217294
0.3061623059 -0.4592434589 0.1530811530
0.3827028824 -0.3827028824 0.0765405765
0.4592434589 -0.3061623059 0.0000000000
0.5357840354 -0.2296217294 -0.0765405765
0.6123246119 -0.1530811530 -0.1530811530
0.6888651883 -0.0765405765 -0.2296217294
0.2296217294 -0.6888651883 0.3827028824
0.3061623059 -0.6123246119 0.3061623059
0.3827028824 -0.5357840354 0.2296217294
0.4592434589 -0.4592434589 0.1530811530
0.5357840354 -0.3827028824 0.0765405765
0.6123246119 -0.3061623059 0.0000000000
0.6888651883 -0.2296217294 -0.0765405765
0.7654057648 -0.1530811530 -0.1530811530
-0.3827028824 -0.0765405765 -0.0765405765
-0.3061623059 -0.0000000000 -0.1530811530
-0.2296217294 0.0765405765 -0.2296217294
-0.1530811530 0.1530811530 -0.3061623059
-0.0765405765 0.2296217294 -0.3827028824
0.0000000000 0.3061623059 -0.4592434589
0.0765405765 0.3827028824 -0.5357840354
0.1530811530 0.4592434589 -0.6123246119
-0.3061623059 -0.1530811530 -0.0000000000
-0.2296217294 -0.0765405765 -0.0765405765
-0.1530811530 -0.0000000000 -0.1530811530
-0.0765405765 0.0765405765 -0.2296217294
-0.0000000000 0.1530811530 -0.3061623059
0.0765405765 0.2296217294 -0.3827028824
0.1530811530 0.3061623059 -0.4592434589
0.2296217294 0.3827028824 -0.5357840354
-0.2296217294 -0.2296217294 0.0765405765
-0.1530811530 -0.1530811530 -0.0000000000
-0.0765405765 -0.0765405765 -0.0765405765
-0.0000000000 -0.0000000000 -0.1530811530
0.0765405765 0.0765405765 -0.2296217294
0.1530811530 0.1530811530 -0.3061623059
0.2296217294 0.2296217294 -0.3827028824
0.3061623059 0.3061623059 -0.4592434589
-0.1530811530 -0.3061623059 0.1530811530
-0.0765405765 -0.2296217294 0.0765405765
-0.0000000000 -0.1530811530 0.0000000000
0.0765405765 -0.0765405765 -0.0765405765
0.1530811530 0.0000000000 -0.1530811530
0.2296217294 0.0765405765 -0.2296217294
0.3061623059 0.1530811530 -0.3061623059
0.3827028824 0.2296217294 -0.3827028824
-0.0765405765 -0.3827028824 0.2296217294
-0.0000000000 -0.3061623059 0.1530811530
0.0765405765 -0.2296217294 0.0765405765
0.1530811530 -0.1530811530 0.0000000000
0.2296217294 -0.0765405765 -0.0765405765
0.3061623059 0.0000000000 -0.1530811530
0.3827028824 0.0765405765 -0.2296217294
0.4592434589 0.1530811530 -0.3061623059
-0.0000000000 -0.4592434589 0.3061623059
0.0765405765 -0.3827028824 0.2296217294
0.1530811530 -0.3061623059 0.1530811530
0.2296217294 -0.2296217294 0.0765405765
0.3061623059 -0.1530811530 0.0000000000
0.3827028824 -0.0765405765 -0.0765405765
0.4592434589 0.0000000000 -0.1530811530
0.5357840354 0.0765405765 -0.2296217294
0.0765405765 -0.5357840354 0.3827028824
0.1530811530 -0.4592434589 0.3061623059
0.2296217294 -0.3827028824 0.2296217294
0.3061623059 -0.3061623059 0.1530811530
0.3827028824 -0.2296217294 0.0765405765
0.4592434589 -0.1530811530 0.0000000000
0.5357840354 -0.0765405765 -0.0765405765
0.6123246119 0.0000000000 -0.1530811530
0.1530811530 -0.6123246119 0.4592434589
0.2296217294 -0.5357840354 0.3827028824
0.3061623059 -0.4592434589 0.3061623059
0.3827028824 -0.3827028824 0.2296217294
0.4592434589 -0.3061623059 0.1530811530
0.5357840354 -0.2296217294 0.0765405765
0.6123246119 -0.1530811530 0.0000000000
0.6888651883 -0.0765405765 -0.0765405765
-0.4592434589 -0.0000000000 -0.0000000000
-0.3827028824 0.0765405765 -0.0765405765
-0.3061623059 0.1530811530 -0.1530811530
-0.2296217294 0.2296217294 -0.2296217294
-0.1530811530 0.3061623059 -0.3061623059
-0.0765405765 0.3827028824 -0.3827028824
0.0000000000 0.4592434589 -0.4592434589
0.0765405765 0.5357840354 -0.5357840354
-0.3827028824 -0.0765405765 0.0765405765
-0.3061623059 -0.0000000000 -0.0000000000
-0.2296217294 0.0765405765 -0.0765405765
-0.1530811530 0.1530811530 -0.1530811530
-0.0765405765 0.2296217294 -0.2296217294
0.0000000000 0.3061623059 -0.3061623059
0.0765405765 0.3827028824 -0.3827028824
0.1530811530 0.4592434589 -0.4592434589
-0.3061623059 -0.1530811530 0.1530811530
-0.2296217294 -0.0765405765 0.0765405765
-0.1530811530 -0.0000000000 -0.0000000000
-0.0765405765 0.0765405765 -0.0765405765
0.0000000000 0.1530811530 -0.1530811530
0.0765405765 0.2296217294 -0.2296217294
0.1530811530 0.3061623059 -0.3061623059
0.2296217294 0.3827028824 -0.3827028824
-0.2296217294 -0.2296217294 0.2296217294
-0.1530811530 -0.1530811530 0.1530811530
-0.0765405765 -0.0765405765 0.0765405765
0.0000000000 0.0000000000 0.0000000000
0.0765405765 0.0765405765 -0.0765405765
0.1530811530 0.1530811530 -0.1530811530
0.2296217294 0.2296217294 -0.2296217294
0.3061623059 0.3061623059 -0.3061623059
-0.1530811530 -0.3061623059 0.3061623059
-0.0765405765 -0.2296217294 0.2296217294
-0.0000000000 -0.1530811530 0.1530811530
0.0765405765 -0.0765405765 0.0765405765
0.1530811530 0.0000000000 0.0000000000
0.2296217294 0.0765405765 -0.0765405765
0.3061623059 0.1530811530 -0.1530811530
0.3827028824 0.2296217294 -0.2296217294
-0.0765405765 -0.3827028824 0.3827028824
-0.0000000000 -0.3061623059 0.3061623059
0.0765405765 -0.2296217294 0.2296217294
0.1530811530 -0.1530811530 0.1530811530
0.2296217294 -0.0765405765 0.0765405765
0.3061623059 0.0000000000 0.0000000000
0.3827028824 0.0765405765 -0.0765405765
0.4592434589 0.1530811530 -0.1530811530
-0.0000000000 -0.4592434589 0.4592434589
0.0765405765 -0.3827028824 0.3827028824
0.1530811530 -0.3061623059 0.3061623059
0.2296217294 -0.2296217294 0.2296217294
0.3061623059 -0.1530811530 0.1530811530
0.3827028824 -0.0765405765 0.0765405765
0.4592434589 0.0000000000 0.0000000000
0.5357840354 0.0765405765 -0.0765405765
0.0765405765 -0.5357840354 0.5357840354
0.1530811530 -0.4592434589 0.4592434589
0.2296217294 -0.3827028824 0.3827028824
0.3061623059 -0.3061623059 0.3061623059
0.3827028824 -0.2296217294 0.2296217294
0.4592434589 -0.1530811530 0.1530811530
0.5357840354 -0.0765405765 0.0765405765
0.6123246119 0.0000000000 0.0000000000
-0.5357840354 0.0765405765 0.0765405765
-0.4592434589 0.1530811530 -0.0000000000
-0.3827028824 0.2296217294 -0.0765405765
-0.3061623059 0.3061623059 -0.1530811530
-0.2296217294 0.3827028824 -0.2296217294
-0.1530811530 0.4592434589 -0.3061623059
-0.0765405765 0.5357840354 -0.3827028824
0.0000000000 0.6123246119 -0.4592434589
-0.4592434589 -0.0000000000 0.1530811530
-0.3827028824 0.0765405765 0.0765405765
-0.3061623059 0.1530811530 -0.0000000000
-0.2296217294 0.2296217294 -0.0765405765
-0.1530811530 0.3061623059 -0.1530811530
-0.0765405765 0.3827028824 -0.2296217294
0.0000000000 0.4592434589 -0.3061623059
0.0765405765 0.5357840354 -0.3827028824
-0.3827028824 -0.0765405765 0.2296217294
-0.3061623059 -0.0000000000 0.1530811530
-0.2296217294 0.0765405765 0.0765405765
-0.1530811530 0.1530811530 -0.0000000000
-0.0765405765 0.2296217294 -0.0765405765
0.0000000000 0.3061623059 -0.1530811530
0.0765405765 0.3827028824 -0.2296217294
0.1530811530 0.4592434589 -0.3061623059
-0.3061623059 -0.1530811530 0.3061623059
-0.2296217294 -0.0765405765 0.2296217294
-0.1530811530 0.0000000000 0.1530811530
-0.0765405765 0.0765405765 0.0765405765
0.0000000000 0.1530811530 0.0000000000
0.0765405765 0.2296217294 -0.0765405765
0.1530811530 0.3061623059 -0.1530811530
0.2296217294 0.3827028824 -0.2296217294
-0.2296217294 -0.2296217294 0.3827028824
-0.1530811530 -0.1530811530 0.3061623059
-0.0765405765 -0.0765405765 0.2296217294
0.0000000000 0.0000000000 0.1530811530
0.0765405765 0.0765405765 0.0765405765
0.1530811530 0.1530811530 0.0000000000
0.2296217294 0.2296217294 -0.0765405765
0.3061623059 0.3061623059 -0.1530811530
-0.1530811530 -0.3061623059 0.4592434589
-0.0765405765 -0.2296217294 0.3827028824
0.0000000000 -0.1530811530 0.3061623059
0.0765405765 -0.0765405765 0.2296217294
0.1530811530 0.0000000000 0.1530811530
0.2296217294 0.0765405765 0.0765405765
0.3061623059 0.1530811530 0.0000000000
0.3827028824 0.2296217294 -0.0765405765
-0.0765405765 -0.3827028824 0.5357840354
0.0000000000 -0.3061623059 0.4592434589
0.0765405765 -0.2296217294 0.3827028824
0.1530811530 -0.1530811530 0.3061623059
0.2296217294 -0.0765405765 0.2296217294
0.3061623059 0.0000000000 0.1530811530
0.3827028824 0.0765405765 0.0765405765
0.4592434589 0.1530811530 0.0000000000
0.0000000000 -0.4592434589 0.6123246119
0.0765405765 -0.3827028824 0.5357840354
0.1530811530 -0.3061623059 0.4592434589
0.2296217294 -0.2296217294 0.3827028824
0.3061623059 -0.1530811530 0.3061623059
0.3827028824 -0.0765405765 0.2296217294
0.4592434589 0.0000000000 0.1530811530
0.5357840354 0.0765405765 0.0765405765
-0.6123246119 0.1530811530 0.1530811530
-0.5357840354 0.2296217294 0.0765405765
-0.4592434589 0.3061623059 -0.0000000000
-0.3827028824 0.3827028824 -0.0765405765
-0.3061623059 0.4592434589 -0.1530811530
-0.2296217294 0.5357840354 -0.2296217294
-0.1530811530 0.6123246119 -0.3061623059
-0.0765405765 0.6888651883 -0.3827028824
-0.5357840354 0.0765405765 0.2296217294
-0.4592434589 0.1530811530 0.1530811530
-0.3827028824 0.2296217294 0.0765405765
-0.3061623059 0.3061623059 -0.0000000000
-0.2296217294 0.3827028824 -0.0765405765
-0.1530811530 0.4592434589 -0.1530811530
-0.0765405765 0.5357840354 -0.2296217294
0.0000000000 0.6123246119 -0.3061623059
-0.4592434589 -0.0000000000 0.3061623059
-0.3827028824 0.0765405765 0.2296217294
-0.3061623059 0.1530811530 0.1530811530
-0.2296217294 0.2296217294 0.0765405765
-0.1530811530 0.3061623059 -0.0000000000
-0.0765405765 0.3827028824 -0.0765405765
0.0000000000 0.4592434589 -0.1530811530
0.0765405765 0.5357840354 -0.2296217294
-0.3827028824 -0.0765405765 0.3827028824
-0.3061623059 0.0000000000 0.3061623059
-0.2296217294 0.0765405765 0.2296217294
-0.1530811530 0.1530811530 0.1530811530
-0.0765405765 0.2296217294 0.0765405765
0.0000000000 0.3061623059 0.0000000000
0.0765405765 0.3827028824 -0.0765405765
0.1530811530 0.4592434589 -0.1530811530
-0.3061623059 -0.1530811530 0.4592434589
-0.2296217294 -0.0765405765 0.3827028824
-0.1530811530 0.0000000000 0.3061623059
-0.0765405765 0.0765405765 0.2296217294
0.0000000000 0.1530811530 0.1530811530
0.0765405765 0.2296217294 0.0765405765
0.1530811530 0.3061623059 0.0000000000
0.2296217294 0.3827028824 -0.0765405765
-0.2296217294 -0.2296217294 0.5357840354
-0.1530811530 -0.1530811530 0.4592434589
-0.0765405765 -0.0765405765 0.3827028824
0.0000000000 0.0000000000 0.3061623059
0.0765405765 0.0765405765 0.2296217294
0.1530811530 0.1530811530 0.1530811530
0.2296217294 0.2296217294 0.0765405765
0.3061623059 0.3061623059 0.0000000000
-0.1530811530 -0.3061623059 0.6123246119
-0.0765405765 -0.2296217294 0.5357840354
0.0000000000 -0.1530811530 0.4592434589
0.0765405765 -0.0765405765 0.3827028824
0.1530811530 0.0000000000 0.3061623059
0.2296217294 0.0765405765 0.2296217294
0.3061623059 0.1530811530 0.1530811530
0.3827028824 0.2296217294 0.0765405765
-0.0765405765 -0.3827028824 0.6888651883
0.0000000000 -0.3061623059 0.6123246119
0.0765405765 -0.2296217294 0.5357840354
0.1530811530 -0.1530811530 0.4592434589
0.2296217294 -0.0765405765 0.3827028824
0.3061623059 0.0000000000 0.3061623059
0.3827028824 0.0765405765 0.2296217294
0.4592434589 0.1530811530 0.1530811530
-0.6888651883 0.2296217294 0.2296217294
-0.6123246119 0.3061623059 0.1530811530
-0.5357840354 0.3827028824 0.0765405765
-0.4592434589 0.4592434589 -0.0000000000
-0.3827028824 0.5357840354 -0.0765405765
-0.3061623059 0.6123246119 -0.1530811530
-0.2296217294 0.6888651883 -0.2296217294
-0.1530811530 0.7654057648 -0.3061623059
-0.6123246119 0.1530811530 0.3061623059
-0.5357840354 0.2296217294 0.2296217294
-0.4592434589 0.3061623059 0.1530811530
-0.3827028824 0.3827028824 0.0765405765
-0.3061623059 0.4592434589 -0.0000000000
-0.2296217294 0.5357840354 -0.0765405765
-0.1530811530 0.6123246119 -0.1530811530
-0.0765405765 0.6888651883 -0.2296217294
-0.5357840354 0.0765405765 0.3827028824
-0.4592434589 0.1530811530 0.3061623059
-0.3827028824 0.2296217294 0.2296217294
-0.3061623059 0.3061623059 0.1530811530
-0.2296217294 0.3827028824 0.0765405765
-0.1530811530 0.4592434589 -0.0000000000
-0.0765405765 0.5357840354 -0.0765405765
0.0000000000 0.6123246119 -0.1530811530
-0.4592434589 0.0000000000 0.4592434589
-0.3827028824 0.0765405765 0.3827028824
-0.3061623059 0.1530811530 0.3061623059
-0.2296217294 0.2296217294 0.2296217294
-0.1530811530 0.3061623059 0.1530811530
-0.0765405765 0.3827028824 0.0765405765
0.0000000000 0.4592434589 0.0000000000
0.0765405765 0.5357840354 -0.0765405765
-0.3827028824 -0.0765405765 0.5357840354
-0.3061623059 0.0000000000 0.4592434589
-0.2296217294 0.0765405765 0.3827028824
-0.1530811530 0.1530811530 0.3061623059
-0.0765405765 0.2296217294 0.2296217294
0.0000000000 0.3061623059 0.1530811530
0.0765405765 0.3827028824 0.0765405765
0.1530811530 0.4592434589 0.0000000000
-0.3061623059 -0.1530811530 0.6123246119
-0.2296217294 -0.0765405765 0.5357840354
-0.1530811530 0.0000000000 0.4592434589
-0.0765405765 0.0765405765 0.3827028824
0.0000000000 0.1530811530 0.3061623059
0.0765405765 0.2296217294 0.2296217294
0.1530811530 0.3061623059 0.1530811530
0.2296217294 0.3827028824 0.0765405765
-0.2296217294 -0.2296217294 0.6888651883
-0.1530811530 -0.1530811530 0.6123246119
-0.0765405765 -0.0765405765 0.5357840354
0.0000000000 0.0000000000 0.4592434589
0.0765405765 0.0765405765 0.3827028824
0.1530811530 0.1530811530 0.3061623059
0.2296217294 0.2296217294 0.2296217294
0.3061623059 0.3061623059 0.1530811530
-0.1530811530 -0.3061623059 0.7654057648
-0.0765405765 -0.2296217294 0.6888651883
0.0000000000 -0.1530811530 0.6123246119
0.0765405765 -0.0765405765 0.5357840354
0.1530811530 0.0000000000 0.4592434589
0.2296217294 0.0765405765 0.3827028824
0.3061623059 0.1530811530 0.3061623059
0.3827028824 0.2296217294 0.2296217294
-0.7654057648 0.3061623059 0.3061623059
-0.6888651883 0.3827028824 0.2296217294
-0.6123246119 0.4592434589 0.1530811530
-0.5357840354 0.5357840354 0.0765405765
-0.4592434589 0.6123246119 -0.0000000000
-0.3827028824 0.6888651883 -0.0765405765
-0.3061623059 0.7654057648 -0.1530811530
-0.2296217294 0.8419463413 -0.2296217294
-0.6888651883 0.2296217294 0.3827028824
-0.6123246119 0.3061623059 0.3061623059
-0.5357840354 0.3827028824 0.2296217294
-0.4592434589 0.4592434589 0.1530811530
-0.3827028824 0.5357840354 0.0765405765
-0.3061623059 0.6123246119 -0.0000000000
-0.2296217294 0.6888651883 -0.0765405765
-0.1530811530 0.7654057648 -0.1530811530
-0.6123246119 0.1530811530 0.4592434589
-0.5357840354 0.2296217294 0.3827028824
-0.4592434589 0.3061623059 0.3061623059
-0.3827028824 0.3827028824 0.2296217294
-0.3061623059 0.4592434589 0.1530811530
-0.2296217294 0.5357840354 0.0765405765
-0.1530811530 0.6123246119 0.0000000000
-0.0765405765 0.6888651883 -0.0765405765
-0.5357840354 0.0765405765 0.5357840354
-0.4592434589 0.1530811530 0.4592434589
-0.3827028824 0.2296217294 0.3827028824
-0.3061623059 0.3061623059 0.3061623059
-0.2296217294 0.3827028824 0.2296217294
-0.1530811530 0.4592434589 0.1530811530
-0.0765405765 0.5357840354 0.0765405765
0.0000000000 0.6123246119 0.0000000000
-0.4592434589 0.0000000000 0.6123246119
-0.3827028824 0.0765405765 0.5357840354
-0.3061623059 0.1530811530 0.4592434589
-0.2296217294 0.2296217294 0.3827028824
-0.1530811530 0.3061623059 0.3061623059
-0.0765405765 0.3827028824 0.2296217294
0.0000000000 0.4592434589 0.1530811530
0.0765405765 0.5357840354 0.0765405765
-0.3827028824 -0.0765405765 0.6888651883
-0.3061623059 0.0000000000 0.6123246119
-0.2296217294 0.0765405765 0.5357840354
-0.1530811530 0.1530811530 0.4592434589
-0.0765405765 0.2296217294 0.3827028824
0.0000000000 0.3061623059 0.3061623059
0.0765405765 0.3827028824 0.2296217294
0.1530811530 0.4592434589 0.1530811530
-0.3061623059 -0.1530811530 0.7654057648
-0.2296217294 -0.0765405765 0.6888651883
-0.1530811530 0.0000000000 0.6123246119
-0.0765405765 0.0765405765 0.5357840354
0.0000000000 0.1530811530 0.4592434589
0.0765405765 0.2296217294 0.3827028824
0.1530811530 0.3061623059 0.3061623059
0.2296217294 0.3827028824 0.2296217294
-0.2296217294 -0.2296217294 0.8419463413
-0.1530811530 -0.1530811530 0.7654057648
-0.0765405765 -0.0765405765 0.6888651883
0.0000000000 0.0000000000 0.6123246119
0.0765405765 0.0765405765 0.5357840354
0.1530811530 0.1530811530 0.4592434589
0.2296217294 0.2296217294 0.3827028824
0.3061623059 0.3061623059 0.3061623059
 There are 14 alpha and 14 beta electrons
 Start computing overlap matrix
 Allocate 114065408 B from available memory: 1048575734752 B
 Time for computing overlap matrix: 3.6450000000 s
 ====== Initialize compute kernels for all-electron RI-J (kpts) ====== 
 ========================================================== 
 Range-separated parameter omega        = 0.900000000000000022
 Threshold for 1e2c shellpair           = 0.000000000000010000
 Threshold for 2e2c SR integral         = 0.000000000000000001
 Threshold for 2e3c SR integral         = 0.000000000100000000
 Threshold for AFT G-space screening is = 0.000000000001000000
 The exponent cutoff for C/D classification (omega2 / 2) is  = 0.405000000000000027
 ========================================================== 
 === Post process the basis set for RI calculation (exp_cutoff = 0.405000000000000027 ) === 
nshells_b1 before uncontraction = 28
nshells_b1 after uncontraction = 28
nshells_baux before uncontraction = 80
nshells_baux after uncontraction = 80
===============================================
nbsf total   = 118
nbsf compact = 60
nbsf diffuse = 58
naux total   = 296
naux compact = 296
naux diffuse = 0
nshells_bnuc = 2

 Number of unique atoms is 1
 Unique atom #0 (si) has 5 shells.

Shell 0 to 4 belongs to atom si
Shell 5 to 9 belongs to atom si

 Number of unique atoms is 1
 Unique atom #0 (si) has 9 shells.

Shell 0 to 8 belongs to atom si
Shell 9 to 17 belongs to atom si

 Number of unique atom is 1
 Unique atom #0 (si) has 40 auxiliary shells.

Auxiliary Shell 0 to 39 belongs to atom si
Auxiliary Shell 40 to 79 belongs to atom si

================= Automatically determine grid size for reciprocal space summation =================
 Range-separated parameter = 0.90000000000000 and G-space screening threshold = 0.00000000000100
The number of grid points along each axis dimension is (10, 10, 10)
Total number of grid points = 9261

Use nonortho shellpair for diffuse density
======== Initializing relevant kernel for RIJ (DD type) ========
There are 171 shellpairs in the reference unit cell
There are 3661 images and we expect to have 626031 in total
There are 23126 shellpairs in the lattice sum after screening
======== Initializing relevant kernel for RIJ (CD type) ========
There are 180 shellpairs in the reference unit cell
There are 2395 images and we expect to have 431100 in total
There are 12134 shellpairs in the lattice sum after screening
****** AFT -> SR ******
Maximum bra distance cutoff is 23.000000000000
Maximum bra ket distance cutoff is 20.611302005944
Maximum bra ket screening distance is 19.000000000000
Number of auxiliary image is 551
There are 180 shellpairs in the reference unit cell
There are 551 images and we expect to have 99180 in total
There are 12134 shellpairs in the lattice sum after screening
Available memory per thread for 2e3c calculation is 32.764427167000Gb
Finish initializing 2e3c SR with the lattice sum!
=================================================
======== Initializing relevant kernel for RIJ (CC type) ========
There are 55 shellpairs in the reference unit cell
There are 695 images and we expect to have 38225 in total
There are 694 shellpairs in the lattice sum after screening
****** AFT -> SR ******
Maximum bra distance cutoff is 11.000000000000
Maximum bra ket distance cutoff is 21.062500000000
Maximum bra ket screening distance is 18.718750000000
Number of auxiliary image is 455
There are 55 shellpairs in the reference unit cell
There are 117 images and we expect to have 6435 in total
There are 694 shellpairs in the lattice sum after screening
Available memory per thread for 2e3c calculation is 32.764427167000Gb
Finish initializing 2e3c SR with the lattice sum!
=================================================
======== Initializing the SR component for Vnuc (CD type) ========
Maximum bra distance cutoff is 23.000000000000
Maximum bra ket distance cutoff is 11.920357219976
Maximum bra ket screening distance is 9.960251940080
Number of auxiliary image is 551
There are 180 shellpairs in the reference unit cell
There are 551 images and we expect to have 99180 in total
There are 12134 shellpairs in the lattice sum after screening
Available memory per thread for 2e3c calculation is 32.764427167000Gb
Finish initializing 2e3c SR with the lattice sum!
=================================================
======== Initialize the SR component for Vnuc (CC type) ========
Maximum bra distance cutoff is 11.000000000000
Maximum bra ket distance cutoff is 13.059451665625
Maximum bra ket screening distance is 9.261023449952
Number of auxiliary image is 213
There are 55 shellpairs in the reference unit cell
There are 117 images and we expect to have 6435 in total
There are 694 shellpairs in the lattice sum after screening
Available memory per thread for 2e3c calculation is 32.764427167000Gb
Finish initializing 2e3c SR with the lattice sum!
=================================================
 Aufbau occupation scheme, occupation determined by eigenvalue
 == 0-th k-point nmo = 114 (-0.22962,-0.22962,-0.22962) ==
 == 1-th k-point nmo = 114 (-0.15308,-0.15308,-0.30616) ==
 == 2-th k-point nmo = 114 (-0.07654,-0.07654,-0.38270) ==
 == 3-th k-point nmo = 114 (-0.00000,-0.00000,-0.45924) ==
 == 4-th k-point nmo = 114 (0.07654,0.07654,-0.53578) ==
 == 5-th k-point nmo = 114 (0.15308,0.15308,-0.61232) ==
 == 6-th k-point nmo = 114 (0.22962,0.22962,-0.68887) ==
 == 7-th k-point nmo = 114 (0.30616,0.30616,-0.76541) ==
 == 8-th k-point nmo = 114 (-0.15308,-0.30616,-0.15308) ==
 == 9-th k-point nmo = 114 (-0.07654,-0.22962,-0.22962) ==
 == 10-th k-point nmo = 114 (-0.00000,-0.15308,-0.30616) ==
 == 11-th k-point nmo = 114 (0.07654,-0.07654,-0.38270) ==
 == 12-th k-point nmo = 114 (0.15308,-0.00000,-0.45924) ==
 == 13-th k-point nmo = 114 (0.22962,0.07654,-0.53578) ==
 == 14-th k-point nmo = 114 (0.30616,0.15308,-0.61232) ==
 == 15-th k-point nmo = 114 (0.38270,0.22962,-0.68887) ==
 == 16-th k-point nmo = 114 (-0.07654,-0.38270,-0.07654) ==
 == 17-th k-point nmo = 114 (-0.00000,-0.30616,-0.15308) ==
 == 18-th k-point nmo = 114 (0.07654,-0.22962,-0.22962) ==
 == 19-th k-point nmo = 114 (0.15308,-0.15308,-0.30616) ==
 == 20-th k-point nmo = 114 (0.22962,-0.07654,-0.38270) ==
 == 21-th k-point nmo = 114 (0.30616,-0.00000,-0.45924) ==
 == 22-th k-point nmo = 114 (0.38270,0.07654,-0.53578) ==
 == 23-th k-point nmo = 114 (0.45924,0.15308,-0.61232) ==
 == 24-th k-point nmo = 114 (-0.00000,-0.45924,0.00000) ==
 == 25-th k-point nmo = 114 (0.07654,-0.38270,-0.07654) ==
 == 26-th k-point nmo = 114 (0.15308,-0.30616,-0.15308) ==
 == 27-th k-point nmo = 114 (0.22962,-0.22962,-0.22962) ==
 == 28-th k-point nmo = 114 (0.30616,-0.15308,-0.30616) ==
 == 29-th k-point nmo = 114 (0.38270,-0.07654,-0.38270) ==
 == 30-th k-point nmo = 114 (0.45924,0.00000,-0.45924) ==
 == 31-th k-point nmo = 114 (0.53578,0.07654,-0.53578) ==
 == 32-th k-point nmo = 114 (0.07654,-0.53578,0.07654) ==
 == 33-th k-point nmo = 114 (0.15308,-0.45924,0.00000) ==
 == 34-th k-point nmo = 114 (0.22962,-0.38270,-0.07654) ==
 == 35-th k-point nmo = 114 (0.30616,-0.30616,-0.15308) ==
 == 36-th k-point nmo = 114 (0.38270,-0.22962,-0.22962) ==
 == 37-th k-point nmo = 114 (0.45924,-0.15308,-0.30616) ==
 == 38-th k-point nmo = 114 (0.53578,-0.07654,-0.38270) ==
 == 39-th k-point nmo = 114 (0.61232,0.00000,-0.45924) ==
 == 40-th k-point nmo = 114 (0.15308,-0.61232,0.15308) ==
 == 41-th k-point nmo = 114 (0.22962,-0.53578,0.07654) ==
 == 42-th k-point nmo = 114 (0.30616,-0.45924,0.00000) ==
 == 43-th k-point nmo = 114 (0.38270,-0.38270,-0.07654) ==
 == 44-th k-point nmo = 114 (0.45924,-0.30616,-0.15308) ==
 == 45-th k-point nmo = 114 (0.53578,-0.22962,-0.22962) ==
 == 46-th k-point nmo = 114 (0.61232,-0.15308,-0.30616) ==
 == 47-th k-point nmo = 114 (0.68887,-0.07654,-0.38270) ==
 == 48-th k-point nmo = 114 (0.22962,-0.68887,0.22962) ==
 == 49-th k-point nmo = 114 (0.30616,-0.61232,0.15308) ==
 == 50-th k-point nmo = 114 (0.38270,-0.53578,0.07654) ==
 == 51-th k-point nmo = 114 (0.45924,-0.45924,0.00000) ==
 == 52-th k-point nmo = 114 (0.53578,-0.38270,-0.07654) ==
 == 53-th k-point nmo = 114 (0.61232,-0.30616,-0.15308) ==
 == 54-th k-point nmo = 114 (0.68887,-0.22962,-0.22962) ==
 == 55-th k-point nmo = 114 (0.76541,-0.15308,-0.30616) ==
 == 56-th k-point nmo = 114 (0.30616,-0.76541,0.30616) ==
 == 57-th k-point nmo = 114 (0.38270,-0.68887,0.22962) ==
 == 58-th k-point nmo = 114 (0.45924,-0.61232,0.15308) ==
 == 59-th k-point nmo = 114 (0.53578,-0.53578,0.07654) ==
 == 60-th k-point nmo = 114 (0.61232,-0.45924,0.00000) ==
 == 61-th k-point nmo = 114 (0.68887,-0.38270,-0.07654) ==
 == 62-th k-point nmo = 114 (0.76541,-0.30616,-0.15308) ==
 == 63-th k-point nmo = 114 (0.84195,-0.22962,-0.22962) ==
 == 64-th k-point nmo = 114 (-0.30616,-0.15308,-0.15308) ==
 == 65-th k-point nmo = 114 (-0.22962,-0.07654,-0.22962) ==
 == 66-th k-point nmo = 114 (-0.15308,-0.00000,-0.30616) ==
 == 67-th k-point nmo = 114 (-0.07654,0.07654,-0.38270) ==
 == 68-th k-point nmo = 114 (-0.00000,0.15308,-0.45924) ==
 == 69-th k-point nmo = 114 (0.07654,0.22962,-0.53578) ==
 == 70-th k-point nmo = 114 (0.15308,0.30616,-0.61232) ==
 == 71-th k-point nmo = 114 (0.22962,0.38270,-0.68887) ==
 == 72-th k-point nmo = 114 (-0.22962,-0.22962,-0.07654) ==
 == 73-th k-point nmo = 115 (-0.15308,-0.15308,-0.15308) ==
 == 74-th k-point nmo = 114 (-0.07654,-0.07654,-0.22962) ==
 == 75-th k-point nmo = 114 (-0.00000,-0.00000,-0.30616) ==
 == 76-th k-point nmo = 114 (0.07654,0.07654,-0.38270) ==
 == 77-th k-point nmo = 114 (0.15308,0.15308,-0.45924) ==
 == 78-th k-point nmo = 114 (0.22962,0.22962,-0.53578) ==
 == 79-th k-point nmo = 114 (0.30616,0.30616,-0.61232) ==
 == 80-th k-point nmo = 114 (-0.15308,-0.30616,-0.00000) ==
 == 81-th k-point nmo = 114 (-0.07654,-0.22962,-0.07654) ==
 == 82-th k-point nmo = 115 (-0.00000,-0.15308,-0.15308) ==
 == 83-th k-point nmo = 114 (0.07654,-0.07654,-0.22962) ==
 == 84-th k-point nmo = 114 (0.15308,-0.00000,-0.30616) ==
 == 85-th k-point nmo = 114 (0.22962,0.07654,-0.38270) ==
 == 86-th k-point nmo = 114 (0.30616,0.15308,-0.45924) ==
 == 87-th k-point nmo = 114 (0.38270,0.22962,-0.53578) ==
 == 88-th k-point nmo = 114 (-0.07654,-0.38270,0.07654) ==
 == 89-th k-point nmo = 114 (-0.00000,-0.30616,0.00000) ==
 == 90-th k-point nmo = 114 (0.07654,-0.22962,-0.07654) ==
 == 91-th k-point nmo = 115 (0.15308,-0.15308,-0.15308) ==
 == 92-th k-point nmo = 114 (0.22962,-0.07654,-0.22962) ==
 == 93-th k-point nmo = 114 (0.30616,0.00000,-0.30616) ==
 == 94-th k-point nmo = 114 (0.38270,0.07654,-0.38270) ==
 == 95-th k-point nmo = 114 (0.45924,0.15308,-0.45924) ==
 == 96-th k-point nmo = 114 (-0.00000,-0.45924,0.15308) ==
 == 97-th k-point nmo = 114 (0.07654,-0.38270,0.07654) ==
 == 98-th k-point nmo = 114 (0.15308,-0.30616,0.00000) ==
 == 99-th k-point nmo = 114 (0.22962,-0.22962,-0.07654) ==
 == 100-th k-point nmo = 114 (0.30616,-0.15308,-0.15308) ==
 == 101-th k-point nmo = 114 (0.38270,-0.07654,-0.22962) ==
 == 102-th k-point nmo = 114 (0.45924,0.00000,-0.30616) ==
 == 103-th k-point nmo = 114 (0.53578,0.07654,-0.38270) ==
 == 104-th k-point nmo = 114 (0.07654,-0.53578,0.22962) ==
 == 105-th k-point nmo = 114 (0.15308,-0.45924,0.15308) ==
 == 106-th k-point nmo = 114 (0.22962,-0.38270,0.07654) ==
 == 107-th k-point nmo = 114 (0.30616,-0.30616,0.00000) ==
 == 108-th k-point nmo = 114 (0.38270,-0.22962,-0.07654) ==
 == 109-th k-point nmo = 114 (0.45924,-0.15308,-0.15308) ==
 == 110-th k-point nmo = 114 (0.53578,-0.07654,-0.22962) ==
 == 111-th k-point nmo = 114 (0.61232,0.00000,-0.30616) ==
 == 112-th k-point nmo = 114 (0.15308,-0.61232,0.30616) ==
 == 113-th k-point nmo = 114 (0.22962,-0.53578,0.22962) ==
 == 114-th k-point nmo = 114 (0.30616,-0.45924,0.15308) ==
 == 115-th k-point nmo = 114 (0.38270,-0.38270,0.07654) ==
 == 116-th k-point nmo = 114 (0.45924,-0.30616,0.00000) ==
 == 117-th k-point nmo = 114 (0.53578,-0.22962,-0.07654) ==
 == 118-th k-point nmo = 114 (0.61232,-0.15308,-0.15308) ==
 == 119-th k-point nmo = 114 (0.68887,-0.07654,-0.22962) ==
 == 120-th k-point nmo = 114 (0.22962,-0.68887,0.38270) ==
 == 121-th k-point nmo = 114 (0.30616,-0.61232,0.30616) ==
 == 122-th k-point nmo = 114 (0.38270,-0.53578,0.22962) ==
 == 123-th k-point nmo = 114 (0.45924,-0.45924,0.15308) ==
 == 124-th k-point nmo = 114 (0.53578,-0.38270,0.07654) ==
 == 125-th k-point nmo = 114 (0.61232,-0.30616,0.00000) ==
 == 126-th k-point nmo = 114 (0.68887,-0.22962,-0.07654) ==
 == 127-th k-point nmo = 114 (0.76541,-0.15308,-0.15308) ==
 == 128-th k-point nmo = 114 (-0.38270,-0.07654,-0.07654) ==
 == 129-th k-point nmo = 114 (-0.30616,-0.00000,-0.15308) ==
 == 130-th k-point nmo = 114 (-0.22962,0.07654,-0.22962) ==
 == 131-th k-point nmo = 114 (-0.15308,0.15308,-0.30616) ==
 == 132-th k-point nmo = 114 (-0.07654,0.22962,-0.38270) ==
 == 133-th k-point nmo = 114 (0.00000,0.30616,-0.45924) ==
 == 134-th k-point nmo = 114 (0.07654,0.38270,-0.53578) ==
 == 135-th k-point nmo = 114 (0.15308,0.45924,-0.61232) ==
 == 136-th k-point nmo = 114 (-0.30616,-0.15308,-0.00000) ==
 == 137-th k-point nmo = 114 (-0.22962,-0.07654,-0.07654) ==
 == 138-th k-point nmo = 115 (-0.15308,-0.00000,-0.15308) ==
 == 139-th k-point nmo = 114 (-0.07654,0.07654,-0.22962) ==
 == 140-th k-point nmo = 114 (-0.00000,0.15308,-0.30616) ==
 == 141-th k-point nmo = 114 (0.07654,0.22962,-0.38270) ==
 == 142-th k-point nmo = 114 (0.15308,0.30616,-0.45924) ==
 == 143-th k-point nmo = 114 (0.22962,0.38270,-0.53578) ==
 == 144-th k-point nmo = 114 (-0.22962,-0.22962,0.07654) ==
 == 145-th k-point nmo = 115 (-0.15308,-0.15308,-0.00000) ==
 == 146-th k-point nmo = 115 (-0.07654,-0.07654,-0.07654) ==
 == 147-th k-point nmo = 115 (-0.00000,-0.00000,-0.15308) ==
 == 148-th k-point nmo = 114 (0.07654,0.07654,-0.22962) ==
 == 149-th k-point nmo = 114 (0.15308,0.15308,-0.30616) ==
 == 150-th k-point nmo = 114 (0.22962,0.22962,-0.38270) ==
 == 151-th k-point nmo = 114 (0.30616,0.30616,-0.45924) ==
 == 152-th k-point nmo = 114 (-0.15308,-0.30616,0.15308) ==
 == 153-th k-point nmo = 114 (-0.07654,-0.22962,0.07654) ==
 == 154-th k-point nmo = 115 (-0.00000,-0.15308,0.00000) ==
 == 155-th k-point nmo = 115 (0.07654,-0.07654,-0.07654) ==
 == 156-th k-point nmo = 115 (0.15308,0.00000,-0.15308) ==
 == 157-th k-point nmo = 114 (0.22962,0.07654,-0.22962) ==
 == 158-th k-point nmo = 114 (0.30616,0.15308,-0.30616) ==
 == 159-th k-point nmo = 114 (0.38270,0.22962,-0.38270) ==
 == 160-th k-point nmo = 114 (-0.07654,-0.38270,0.22962) ==
 == 161-th k-point nmo = 114 (-0.00000,-0.30616,0.15308) ==
 == 162-th k-point nmo = 114 (0.07654,-0.22962,0.07654) ==
 == 163-th k-point nmo = 115 (0.15308,-0.15308,0.00000) ==
 == 164-th k-point nmo = 114 (0.22962,-0.07654,-0.07654) ==
 == 165-th k-point nmo = 114 (0.30616,0.00000,-0.15308) ==
 == 166-th k-point nmo = 114 (0.38270,0.07654,-0.22962) ==
 == 167-th k-point nmo = 114 (0.45924,0.15308,-0.30616) ==
 == 168-th k-point nmo = 114 (-0.00000,-0.45924,0.30616) ==
 == 169-th k-point nmo = 114 (0.07654,-0.38270,0.22962) ==
 == 170-th k-point nmo = 114 (0.15308,-0.30616,0.15308) ==
 == 171-th k-point nmo = 114 (0.22962,-0.22962,0.07654) ==
 == 172-th k-point nmo = 114 (0.30616,-0.15308,0.00000) ==
 == 173-th k-point nmo = 114 (0.38270,-0.07654,-0.07654) ==
 == 174-th k-point nmo = 114 (0.45924,0.00000,-0.15308) ==
 == 175-th k-point nmo = 114 (0.53578,0.07654,-0.22962) ==
 == 176-th k-point nmo = 114 (0.07654,-0.53578,0.38270) ==
 == 177-th k-point nmo = 114 (0.15308,-0.45924,0.30616) ==
 == 178-th k-point nmo = 114 (0.22962,-0.38270,0.22962) ==
 == 179-th k-point nmo = 114 (0.30616,-0.30616,0.15308) ==
 == 180-th k-point nmo = 114 (0.38270,-0.22962,0.07654) ==
 == 181-th k-point nmo = 114 (0.45924,-0.15308,0.00000) ==
 == 182-th k-point nmo = 114 (0.53578,-0.07654,-0.07654) ==
 == 183-th k-point nmo = 114 (0.61232,0.00000,-0.15308) ==
 == 184-th k-point nmo = 114 (0.15308,-0.61232,0.45924) ==
 == 185-th k-point nmo = 114 (0.22962,-0.53578,0.38270) ==
 == 186-th k-point nmo = 114 (0.30616,-0.45924,0.30616) ==
 == 187-th k-point nmo = 114 (0.38270,-0.38270,0.22962) ==
 == 188-th k-point nmo = 114 (0.45924,-0.30616,0.15308) ==
 == 189-th k-point nmo = 114 (0.53578,-0.22962,0.07654) ==
 == 190-th k-point nmo = 114 (0.61232,-0.15308,0.00000) ==
 == 191-th k-point nmo = 114 (0.68887,-0.07654,-0.07654) ==
 == 192-th k-point nmo = 114 (-0.45924,-0.00000,-0.00000) ==
 == 193-th k-point nmo = 114 (-0.38270,0.07654,-0.07654) ==
 == 194-th k-point nmo = 114 (-0.30616,0.15308,-0.15308) ==
 == 195-th k-point nmo = 114 (-0.22962,0.22962,-0.22962) ==
 == 196-th k-point nmo = 114 (-0.15308,0.30616,-0.30616) ==
 == 197-th k-point nmo = 114 (-0.07654,0.38270,-0.38270) ==
 == 198-th k-point nmo = 114 (0.00000,0.45924,-0.45924) ==
 == 199-th k-point nmo = 114 (0.07654,0.53578,-0.53578) ==
 == 200-th k-point nmo = 114 (-0.38270,-0.07654,0.07654) ==
 == 201-th k-point nmo = 114 (-0.30616,-0.00000,-0.00000) ==
 == 202-th k-point nmo = 114 (-0.22962,0.07654,-0.07654) ==
 == 203-th k-point nmo = 115 (-0.15308,0.15308,-0.15308) ==
 == 204-th k-point nmo = 114 (-0.07654,0.22962,-0.22962) ==
 == 205-th k-point nmo = 114 (0.00000,0.30616,-0.30616) ==
 == 206-th k-point nmo = 114 (0.07654,0.38270,-0.38270) ==
 == 207-th k-point nmo = 114 (0.15308,0.45924,-0.45924) ==
 == 208-th k-point nmo = 114 (-0.30616,-0.15308,0.15308) ==
 == 209-th k-point nmo = 114 (-0.22962,-0.07654,0.07654) ==
 == 210-th k-point nmo = 115 (-0.15308,-0.00000,-0.00000) ==
 == 211-th k-point nmo = 115 (-0.07654,0.07654,-0.07654) ==
 == 212-th k-point nmo = 115 (0.00000,0.15308,-0.15308) ==
 == 213-th k-point nmo = 114 (0.07654,0.22962,-0.22962) ==
 == 214-th k-point nmo = 114 (0.15308,0.30616,-0.30616) ==
 == 215-th k-point nmo = 114 (0.22962,0.38270,-0.38270) ==
 == 216-th k-point nmo = 114 (-0.22962,-0.22962,0.22962) ==
 == 217-th k-point nmo = 115 (-0.15308,-0.15308,0.15308) ==
 == 218-th k-point nmo = 115 (-0.07654,-0.07654,0.07654) ==
 == 219-th k-point nmo = 115 (0.00000,0.00000,0.00000) ==
 == 220-th k-point nmo = 115 (0.07654,0.07654,-0.07654) ==
 == 221-th k-point nmo = 115 (0.15308,0.15308,-0.15308) ==
 == 222-th k-point nmo = 114 (0.22962,0.22962,-0.22962) ==
 == 223-th k-point nmo = 114 (0.30616,0.30616,-0.30616) ==
 == 224-th k-point nmo = 114 (-0.15308,-0.30616,0.30616) ==
 == 225-th k-point nmo = 114 (-0.07654,-0.22962,0.22962) ==
 == 226-th k-point nmo = 115 (-0.00000,-0.15308,0.15308) ==
 == 227-th k-point nmo = 115 (0.07654,-0.07654,0.07654) ==
 == 228-th k-point nmo = 115 (0.15308,0.00000,0.00000) ==
 == 229-th k-point nmo = 114 (0.22962,0.07654,-0.07654) ==
 == 230-th k-point nmo = 114 (0.30616,0.15308,-0.15308) ==
 == 231-th k-point nmo = 114 (0.38270,0.22962,-0.22962) ==
 == 232-th k-point nmo = 114 (-0.07654,-0.38270,0.38270) ==
 == 233-th k-point nmo = 114 (-0.00000,-0.30616,0.30616) ==
 == 234-th k-point nmo = 114 (0.07654,-0.22962,0.22962) ==
 == 235-th k-point nmo = 115 (0.15308,-0.15308,0.15308) ==
 == 236-th k-point nmo = 114 (0.22962,-0.07654,0.07654) ==
 == 237-th k-point nmo = 114 (0.30616,0.00000,0.00000) ==
 == 238-th k-point nmo = 114 (0.38270,0.07654,-0.07654) ==
 == 239-th k-point nmo = 114 (0.45924,0.15308,-0.15308) ==
 == 240-th k-point nmo = 114 (-0.00000,-0.45924,0.45924) ==
 == 241-th k-point nmo = 114 (0.07654,-0.38270,0.38270) ==
 == 242-th k-point nmo = 114 (0.15308,-0.30616,0.30616) ==
 == 243-th k-point nmo = 114 (0.22962,-0.22962,0.22962) ==
 == 244-th k-point nmo = 114 (0.30616,-0.15308,0.15308) ==
 == 245-th k-point nmo = 114 (0.38270,-0.07654,0.07654) ==
 == 246-th k-point nmo = 114 (0.45924,0.00000,0.00000) ==
 == 247-th k-point nmo = 114 (0.53578,0.07654,-0.07654) ==
 == 248-th k-point nmo = 114 (0.07654,-0.53578,0.53578) ==
 == 249-th k-point nmo = 114 (0.15308,-0.45924,0.45924) ==
 == 250-th k-point nmo = 114 (0.22962,-0.38270,0.38270) ==
 == 251-th k-point nmo = 114 (0.30616,-0.30616,0.30616) ==
 == 252-th k-point nmo = 114 (0.38270,-0.22962,0.22962) ==
 == 253-th k-point nmo = 114 (0.45924,-0.15308,0.15308) ==
 == 254-th k-point nmo = 114 (0.53578,-0.07654,0.07654) ==
 == 255-th k-point nmo = 114 (0.61232,0.00000,0.00000) ==
 == 256-th k-point nmo = 114 (-0.53578,0.07654,0.07654) ==
 == 257-th k-point nmo = 114 (-0.45924,0.15308,-0.00000) ==
 == 258-th k-point nmo = 114 (-0.38270,0.22962,-0.07654) ==
 == 259-th k-point nmo = 114 (-0.30616,0.30616,-0.15308) ==
 == 260-th k-point nmo = 114 (-0.22962,0.38270,-0.22962) ==
 == 261-th k-point nmo = 114 (-0.15308,0.45924,-0.30616) ==
 == 262-th k-point nmo = 114 (-0.07654,0.53578,-0.38270) ==
 == 263-th k-point nmo = 114 (0.00000,0.61232,-0.45924) ==
 == 264-th k-point nmo = 114 (-0.45924,-0.00000,0.15308) ==
 == 265-th k-point nmo = 114 (-0.38270,0.07654,0.07654) ==
 == 266-th k-point nmo = 114 (-0.30616,0.15308,-0.00000) ==
 == 267-th k-point nmo = 114 (-0.22962,0.22962,-0.07654) ==
 == 268-th k-point nmo = 114 (-0.15308,0.30616,-0.15308) ==
 == 269-th k-point nmo = 114 (-0.07654,0.38270,-0.22962) ==
 == 270-th k-point nmo = 114 (0.00000,0.45924,-0.30616) ==
 == 271-th k-point nmo = 114 (0.07654,0.53578,-0.38270) ==
 == 272-th k-point nmo = 114 (-0.38270,-0.07654,0.22962) ==
 == 273-th k-point nmo = 114 (-0.30616,-0.00000,0.15308) ==
 == 274-th k-point nmo = 114 (-0.22962,0.07654,0.07654) ==
 == 275-th k-point nmo = 115 (-0.15308,0.15308,-0.00000) ==
 == 276-th k-point nmo = 114 (-0.07654,0.22962,-0.07654) ==
 == 277-th k-point nmo = 114 (0.00000,0.30616,-0.15308) ==
 == 278-th k-point nmo = 114 (0.07654,0.38270,-0.22962) ==
 == 279-th k-point nmo = 114 (0.15308,0.45924,-0.30616) ==
 == 280-th k-point nmo = 114 (-0.30616,-0.15308,0.30616) ==
 == 281-th k-point nmo = 114 (-0.22962,-0.07654,0.22962) ==
 == 282-th k-point nmo = 115 (-0.15308,0.00000,0.15308) ==
 == 283-th k-point nmo = 115 (-0.07654,0.07654,0.07654) ==
 == 284-th k-point nmo = 115 (0.00000,0.15308,0.00000) ==
 == 285-th k-point nmo = 114 (0.07654,0.22962,-0.07654) ==
 == 286-th k-point nmo = 114 (0.15308,0.30616,-0.15308) ==
 == 287-th k-point nmo = 114 (0.22962,0.38270,-0.22962) ==
 == 288-th k-point nmo = 114 (-0.22962,-0.22962,0.38270) ==
 == 289-th k-point nmo = 114 (-0.15308,-0.15308,0.30616) ==
 == 290-th k-point nmo = 114 (-0.07654,-0.07654,0.22962) ==
 == 291-th k-point nmo = 115 (0.00000,0.00000,0.15308) ==
 == 292-th k-point nmo = 115 (0.07654,0.07654,0.07654) ==
 == 293-th k-point nmo = 115 (0.15308,0.15308,0.00000) ==
 == 294-th k-point nmo = 114 (0.22962,0.22962,-0.07654) ==
 == 295-th k-point nmo = 114 (0.30616,0.30616,-0.15308) ==
 == 296-th k-point nmo = 114 (-0.15308,-0.30616,0.45924) ==
 == 297-th k-point nmo = 114 (-0.07654,-0.22962,0.38270) ==
 == 298-th k-point nmo = 114 (0.00000,-0.15308,0.30616) ==
 == 299-th k-point nmo = 114 (0.07654,-0.07654,0.22962) ==
 == 300-th k-point nmo = 115 (0.15308,0.00000,0.15308) ==
 == 301-th k-point nmo = 114 (0.22962,0.07654,0.07654) ==
 == 302-th k-point nmo = 114 (0.30616,0.15308,0.00000) ==
 == 303-th k-point nmo = 114 (0.38270,0.22962,-0.07654) ==
 == 304-th k-point nmo = 114 (-0.07654,-0.38270,0.53578) ==
 == 305-th k-point nmo = 114 (0.00000,-0.30616,0.45924) ==
 == 306-th k-point nmo = 114 (0.07654,-0.22962,0.38270) ==
 == 307-th k-point nmo = 114 (0.15308,-0.15308,0.30616) ==
 == 308-th k-point nmo = 114 (0.22962,-0.07654,0.22962) ==
 == 309-th k-point nmo = 114 (0.30616,0.00000,0.15308) ==
 == 310-th k-point nmo = 114 (0.38270,0.07654,0.07654) ==
 == 311-th k-point nmo = 114 (0.45924,0.15308,0.00000) ==
 == 312-th k-point nmo = 114 (0.00000,-0.45924,0.61232) ==
 == 313-th k-point nmo = 114 (0.07654,-0.38270,0.53578) ==
 == 314-th k-point nmo = 114 (0.15308,-0.30616,0.45924) ==
 == 315-th k-point nmo = 114 (0.22962,-0.22962,0.38270) ==
 == 316-th k-point nmo = 114 (0.30616,-0.15308,0.30616) ==
 == 317-th k-point nmo = 114 (0.38270,-0.07654,0.22962) ==
 == 318-th k-point nmo = 114 (0.45924,0.00000,0.15308) ==
 == 319-th k-point nmo = 114 (0.53578,0.07654,0.07654) ==
 == 320-th k-point nmo = 114 (-0.61232,0.15308,0.15308) ==
 == 321-th k-point nmo = 114 (-0.53578,0.22962,0.07654) ==
 == 322-th k-point nmo = 114 (-0.45924,0.30616,-0.00000) ==
 == 323-th k-point nmo = 114 (-0.38270,0.38270,-0.07654) ==
 == 324-th k-point nmo = 114 (-0.30616,0.45924,-0.15308) ==
 == 325-th k-point nmo = 114 (-0.22962,0.53578,-0.22962) ==
 == 326-th k-point nmo = 114 (-0.15308,0.61232,-0.30616) ==
 == 327-th k-point nmo = 114 (-0.07654,0.68887,-0.38270) ==
 == 328-th k-point nmo = 114 (-0.53578,0.07654,0.22962) ==
 == 329-th k-point nmo = 114 (-0.45924,0.15308,0.15308) ==
 == 330-th k-point nmo = 114 (-0.38270,0.22962,0.07654) ==
 == 331-th k-point nmo = 114 (-0.30616,0.30616,-0.00000) ==
 == 332-th k-point nmo = 114 (-0.22962,0.38270,-0.07654) ==
 == 333-th k-point nmo = 114 (-0.15308,0.45924,-0.15308) ==
 == 334-th k-point nmo = 114 (-0.07654,0.53578,-0.22962) ==
 == 335-th k-point nmo = 114 (0.00000,0.61232,-0.30616) ==
 == 336-th k-point nmo = 114 (-0.45924,-0.00000,0.30616) ==
 == 337-th k-point nmo = 114 (-0.38270,0.07654,0.22962) ==
 == 338-th k-point nmo = 114 (-0.30616,0.15308,0.15308) ==
 == 339-th k-point nmo = 114 (-0.22962,0.22962,0.07654) ==
 == 340-th k-point nmo = 114 (-0.15308,0.30616,-0.00000) ==
 == 341-th k-point nmo = 114 (-0.07654,0.38270,-0.07654) ==
 == 342-th k-point nmo = 114 (0.00000,0.45924,-0.15308) ==
 == 343-th k-point nmo = 114 (0.07654,0.53578,-0.22962) ==
 == 344-th k-point nmo = 114 (-0.38270,-0.07654,0.38270) ==
 == 345-th k-point nmo = 114 (-0.30616,0.00000,0.30616) ==
 == 346-th k-point nmo = 114 (-0.22962,0.07654,0.22962) ==
 == 347-th k-point nmo = 115 (-0.15308,0.15308,0.15308) ==
 == 348-th k-point nmo = 114 (-0.07654,0.22962,0.07654) ==
 == 349-th k-point nmo = 114 (0.00000,0.30616,0.00000) ==
 == 350-th k-point nmo = 114 (0.07654,0.38270,-0.07654) ==
 == 351-th k-point nmo = 114 (0.15308,0.45924,-0.15308) ==
 == 352-th k-point nmo = 114 (-0.30616,-0.15308,0.45924) ==
 == 353-th k-point nmo = 114 (-0.22962,-0.07654,0.38270) ==
 == 354-th k-point nmo = 114 (-0.15308,0.00000,0.30616) ==
 == 355-th k-point nmo = 114 (-0.07654,0.07654,0.22962) ==
 == 356-th k-point nmo = 115 (0.00000,0.15308,0.15308) ==
 == 357-th k-point nmo = 114 (0.07654,0.22962,0.07654) ==
 == 358-th k-point nmo = 114 (0.15308,0.30616,0.00000) ==
 == 359-th k-point nmo = 114 (0.22962,0.38270,-0.07654) ==
 == 360-th k-point nmo = 114 (-0.22962,-0.22962,0.53578) ==
 == 361-th k-point nmo = 114 (-0.15308,-0.15308,0.45924) ==
 == 362-th k-point nmo = 114 (-0.07654,-0.07654,0.38270) ==
 == 363-th k-point nmo = 114 (0.00000,0.00000,0.30616) ==
 == 364-th k-point nmo = 114 (0.07654,0.07654,0.22962) ==
 == 365-th k-point nmo = 115 (0.15308,0.15308,0.15308) ==
 == 366-th k-point nmo = 114 (0.22962,0.22962,0.07654) ==
 == 367-th k-point nmo = 114 (0.30616,0.30616,0.00000) ==
 == 368-th k-point nmo = 114 (-0.15308,-0.30616,0.61232) ==
 == 369-th k-point nmo = 114 (-0.07654,-0.22962,0.53578) ==
 == 370-th k-point nmo = 114 (0.00000,-0.15308,0.45924) ==
 == 371-th k-point nmo = 114 (0.07654,-0.07654,0.38270) ==
 == 372-th k-point nmo = 114 (0.15308,0.00000,0.30616) ==
 == 373-th k-point nmo = 114 (0.22962,0.07654,0.22962) ==
 == 374-th k-point nmo = 114 (0.30616,0.15308,0.15308) ==
 == 375-th k-point nmo = 114 (0.38270,0.22962,0.07654) ==
 == 376-th k-point nmo = 114 (-0.07654,-0.38270,0.68887) ==
 == 377-th k-point nmo = 114 (0.00000,-0.30616,0.61232) ==
 == 378-th k-point nmo = 114 (0.07654,-0.22962,0.53578) ==
 == 379-th k-point nmo = 114 (0.15308,-0.15308,0.45924) ==
 == 380-th k-point nmo = 114 (0.22962,-0.07654,0.38270) ==
 == 381-th k-point nmo = 114 (0.30616,0.00000,0.30616) ==
 == 382-th k-point nmo = 114 (0.38270,0.07654,0.22962) ==
 == 383-th k-point nmo = 114 (0.45924,0.15308,0.15308) ==
 == 384-th k-point nmo = 114 (-0.68887,0.22962,0.22962) ==
 == 385-th k-point nmo = 114 (-0.61232,0.30616,0.15308) ==
 == 386-th k-point nmo = 114 (-0.53578,0.38270,0.07654) ==
 == 387-th k-point nmo = 114 (-0.45924,0.45924,-0.00000) ==
 == 388-th k-point nmo = 114 (-0.38270,0.53578,-0.07654) ==
 == 389-th k-point nmo = 114 (-0.30616,0.61232,-0.15308) ==
 == 390-th k-point nmo = 114 (-0.22962,0.68887,-0.22962) ==
 == 391-th k-point nmo = 114 (-0.15308,0.76541,-0.30616) ==
 == 392-th k-point nmo = 114 (-0.61232,0.15308,0.30616) ==
 == 393-th k-point nmo = 114 (-0.53578,0.22962,0.22962) ==
 == 394-th k-point nmo = 114 (-0.45924,0.30616,0.15308) ==
 == 395-th k-point nmo = 114 (-0.38270,0.38270,0.07654) ==
 == 396-th k-point nmo = 114 (-0.30616,0.45924,-0.00000) ==
 == 397-th k-point nmo = 114 (-0.22962,0.53578,-0.07654) ==
 == 398-th k-point nmo = 114 (-0.15308,0.61232,-0.15308) ==
 == 399-th k-point nmo = 114 (-0.07654,0.68887,-0.22962) ==
 == 400-th k-point nmo = 114 (-0.53578,0.07654,0.38270) ==
 == 401-th k-point nmo = 114 (-0.45924,0.15308,0.30616) ==
 == 402-th k-point nmo = 114 (-0.38270,0.22962,0.22962) ==
 == 403-th k-point nmo = 114 (-0.30616,0.30616,0.15308) ==
 == 404-th k-point nmo = 114 (-0.22962,0.38270,0.07654) ==
 == 405-th k-point nmo = 114 (-0.15308,0.45924,-0.00000) ==
 == 406-th k-point nmo = 114 (-0.07654,0.53578,-0.07654) ==
 == 407-th k-point nmo = 114 (0.00000,0.61232,-0.15308) ==
 == 408-th k-point nmo = 114 (-0.45924,0.00000,0.45924) ==
 == 409-th k-point nmo = 114 (-0.38270,0.07654,0.38270) ==
 == 410-th k-point nmo = 114 (-0.30616,0.15308,0.30616) ==
 == 411-th k-point nmo = 114 (-0.22962,0.22962,0.22962) ==
 == 412-th k-point nmo = 114 (-0.15308,0.30616,0.15308) ==
 == 413-th k-point nmo = 114 (-0.07654,0.38270,0.07654) ==
 == 414-th k-point nmo = 114 (0.00000,0.45924,0.00000) ==
 == 415-th k-point nmo = 114 (0.07654,0.53578,-0.07654) ==
 == 416-th k-point nmo = 114 (-0.38270,-0.07654,0.53578) ==
 == 417-th k-point nmo = 114 (-0.30616,0.00000,0.45924) ==
 == 418-th k-point nmo = 114 (-0.22962,0.07654,0.38270) ==
 == 419-th k-point nmo = 114 (-0.15308,0.15308,0.30616) ==
 == 420-th k-point nmo = 114 (-0.07654,0.22962,0.22962) ==
 == 421-th k-point nmo = 114 (0.00000,0.30616,0.15308) ==
 == 422-th k-point nmo = 114 (0.07654,0.38270,0.07654) ==
 == 423-th k-point nmo = 114 (0.15308,0.45924,0.00000) ==
 == 424-th k-point nmo = 114 (-0.30616,-0.15308,0.61232) ==
 == 425-th k-point nmo = 114 (-0.22962,-0.07654,0.53578) ==
 == 426-th k-point nmo = 114 (-0.15308,0.00000,0.45924) ==
 == 427-th k-point nmo = 114 (-0.07654,0.07654,0.38270) ==
 == 428-th k-point nmo = 114 (0.00000,0.15308,0.30616) ==
 == 429-th k-point nmo = 114 (0.07654,0.22962,0.22962) ==
 == 430-th k-point nmo = 114 (0.15308,0.30616,0.15308) ==
 == 431-th k-point nmo = 114 (0.22962,0.38270,0.07654) ==
 == 432-th k-point nmo = 114 (-0.22962,-0.22962,0.68887) ==
 == 433-th k-point nmo = 114 (-0.15308,-0.15308,0.61232) ==
 == 434-th k-point nmo = 114 (-0.07654,-0.07654,0.53578) ==
 == 435-th k-point nmo = 114 (0.00000,0.00000,0.45924) ==
 == 436-th k-point nmo = 114 (0.07654,0.07654,0.38270) ==
 == 437-th k-point nmo = 114 (0.15308,0.15308,0.30616) ==
 == 438-th k-point nmo = 114 (0.22962,0.22962,0.22962) ==
 == 439-th k-point nmo = 114 (0.30616,0.30616,0.15308) ==
 == 440-th k-point nmo = 114 (-0.15308,-0.30616,0.76541) ==
 == 441-th k-point nmo = 114 (-0.07654,-0.22962,0.68887) ==
 == 442-th k-point nmo = 114 (0.00000,-0.15308,0.61232) ==
 == 443-th k-point nmo = 114 (0.07654,-0.07654,0.53578) ==
 == 444-th k-point nmo = 114 (0.15308,0.00000,0.45924) ==
 == 445-th k-point nmo = 114 (0.22962,0.07654,0.38270) ==
 == 446-th k-point nmo = 114 (0.30616,0.15308,0.30616) ==
 == 447-th k-point nmo = 114 (0.38270,0.22962,0.22962) ==
 == 448-th k-point nmo = 114 (-0.76541,0.30616,0.30616) ==
 == 449-th k-point nmo = 114 (-0.68887,0.38270,0.22962) ==
 == 450-th k-point nmo = 114 (-0.61232,0.45924,0.15308) ==
 == 451-th k-point nmo = 114 (-0.53578,0.53578,0.07654) ==
 == 452-th k-point nmo = 114 (-0.45924,0.61232,-0.00000) ==
 == 453-th k-point nmo = 114 (-0.38270,0.68887,-0.07654) ==
 == 454-th k-point nmo = 114 (-0.30616,0.76541,-0.15308) ==
 == 455-th k-point nmo = 114 (-0.22962,0.84195,-0.22962) ==
 == 456-th k-point nmo = 114 (-0.68887,0.22962,0.38270) ==
 == 457-th k-point nmo = 114 (-0.61232,0.30616,0.30616) ==
 == 458-th k-point nmo = 114 (-0.53578,0.38270,0.22962) ==
 == 459-th k-point nmo = 114 (-0.45924,0.45924,0.15308) ==
 == 460-th k-point nmo = 114 (-0.38270,0.53578,0.07654) ==
 == 461-th k-point nmo = 114 (-0.30616,0.61232,-0.00000) ==
 == 462-th k-point nmo = 114 (-0.22962,0.68887,-0.07654) ==
 == 463-th k-point nmo = 114 (-0.15308,0.76541,-0.15308) ==
 == 464-th k-point nmo = 114 (-0.61232,0.15308,0.45924) ==
 == 465-th k-point nmo = 114 (-0.53578,0.22962,0.38270) ==
 == 466-th k-point nmo = 114 (-0.45924,0.30616,0.30616) ==
 == 467-th k-point nmo = 114 (-0.38270,0.38270,0.22962) ==
 == 468-th k-point nmo = 114 (-0.30616,0.45924,0.15308) ==
 == 469-th k-point nmo = 114 (-0.22962,0.53578,0.07654) ==
 == 470-th k-point nmo = 114 (-0.15308,0.61232,0.00000) ==
 == 471-th k-point nmo = 114 (-0.07654,0.68887,-0.07654) ==
 == 472-th k-point nmo = 114 (-0.53578,0.07654,0.53578) ==
 == 473-th k-point nmo = 114 (-0.45924,0.15308,0.45924) ==
 == 474-th k-point nmo = 114 (-0.38270,0.22962,0.38270) ==
 == 475-th k-point nmo = 114 (-0.30616,0.30616,0.30616) ==
 == 476-th k-point nmo = 114 (-0.22962,0.38270,0.22962) ==
 == 477-th k-point nmo = 114 (-0.15308,0.45924,0.15308) ==
 == 478-th k-point nmo = 114 (-0.07654,0.53578,0.07654) ==
 == 479-th k-point nmo = 114 (0.00000,0.61232,0.00000) ==
 == 480-th k-point nmo = 114 (-0.45924,0.00000,0.61232) ==
 == 481-th k-point nmo = 114 (-0.38270,0.07654,0.53578) ==
 == 482-th k-point nmo = 114 (-0.30616,0.15308,0.45924) ==
 == 483-th k-point nmo = 114 (-0.22962,0.22962,0.38270) ==
 == 484-th k-point nmo = 114 (-0.15308,0.30616,0.30616) ==
 == 485-th k-point nmo = 114 (-0.07654,0.38270,0.22962) ==
 == 486-th k-point nmo = 114 (0.00000,0.45924,0.15308) ==
 == 487-th k-point nmo = 114 (0.07654,0.53578,0.07654) ==
 == 488-th k-point nmo = 114 (-0.38270,-0.07654,0.68887) ==
 == 489-th k-point nmo = 114 (-0.30616,0.00000,0.61232) ==
 == 490-th k-point nmo = 114 (-0.22962,0.07654,0.53578) ==
 == 491-th k-point nmo = 114 (-0.15308,0.15308,0.45924) ==
 == 492-th k-point nmo = 114 (-0.07654,0.22962,0.38270) ==
 == 493-th k-point nmo = 114 (0.00000,0.30616,0.30616) ==
 == 494-th k-point nmo = 114 (0.07654,0.38270,0.22962) ==
 == 495-th k-point nmo = 114 (0.15308,0.45924,0.15308) ==
 == 496-th k-point nmo = 114 (-0.30616,-0.15308,0.76541) ==
 == 497-th k-point nmo = 114 (-0.22962,-0.07654,0.68887) ==
 == 498-th k-point nmo = 114 (-0.15308,0.00000,0.61232) ==
 == 499-th k-point nmo = 114 (-0.07654,0.07654,0.53578) ==
 == 500-th k-point nmo = 114 (0.00000,0.15308,0.45924) ==
 == 501-th k-point nmo = 114 (0.07654,0.22962,0.38270) ==
 == 502-th k-point nmo = 114 (0.15308,0.30616,0.30616) ==
 == 503-th k-point nmo = 114 (0.22962,0.38270,0.22962) ==
 == 504-th k-point nmo = 114 (-0.22962,-0.22962,0.84195) ==
 == 505-th k-point nmo = 114 (-0.15308,-0.15308,0.76541) ==
 == 506-th k-point nmo = 114 (-0.07654,-0.07654,0.68887) ==
 == 507-th k-point nmo = 114 (0.00000,0.00000,0.61232) ==
 == 508-th k-point nmo = 114 (0.07654,0.07654,0.53578) ==
 == 509-th k-point nmo = 114 (0.15308,0.15308,0.45924) ==
 == 510-th k-point nmo = 114 (0.22962,0.22962,0.38270) ==
 == 511-th k-point nmo = 114 (0.30616,0.30616,0.30616) ==

 Generate autoSAD guess
backing up fragment data
Atom # 0: si, charge: 0, multiplicity: 3.000000
writing autosad to fragment context
Settings for isolated fragments: 
  frgm_gamma: TRUE
  frgm_center: FALSE

    Running SCF for isolated atom #0
    Fragment Input file: /n/netscratch/joonholee_lab/Lab/hieudinh//si_2_ccpvqz_omega_0.9_888.scratch20250909040713/autosad_frgmt_0/frgmt_input.in
    Fragment Output file: /n/netscratch/joonholee_lab/Lab/hieudinh//si_2_ccpvqz_omega_0.9_888.scratch20250909040713/autosad_frgmt_0/frgmt_job.out
    Fragment job begins at Tue Sep  9 04:07:20 2025

 Integrated density by DFT XC:
   Numerical integral  =    13.999999643759
   Relative error      =     0.0000025446 %
Final energy components:
 DFT Correlation            Energy =  -0.48370207231611
 DFT Exchange               Energy = -20.13940840112217
 Kinetic (alpha)            Energy = 145.05483363964768
 Kinetic (beta)             Energy = 143.11842945473285
 Nuclear Attraction (alpha) Energy = -351.06191315317892
 Nuclear Attraction (beta)  Energy = -337.54515075030440
 Nuclear Repulsion          Energy =   0.00000000000000
 SEOQF                      Energy =  -0.00000000010144
 Total Coulomb              Energy = 131.82731983024479
----------------------------------------------
    SCF Energy: -289.2295914524
   Total fragment job time:  0.53 s.
restoring fragment data

 ------------------------------------------------------------------------
 Allocate 355279392 B from available memory: 1048461669344 B
 Time for generating SCF guess: 0.66 s

 Allocate 97424 B from available memory: 1048106389952 B
 Selected algorithms for each term:
  kpts_kinetic -> @0x147d76701680
  kpts_nn -> @0x147d76701800
  kpts_rij_bigmem -> @0x147d767013e0
  kpts_vnuc_df -> @0x147d76701380
  kpts_xc -> @0x147d767012c0
 Time for computing kinetic matrix is 3.64 s
Start calculating Vnuc DD type!
Start calculating Vnuc CD type!
Start calculating Vnuc CC type!
 Time for computing nuclear attraction matrix is 10.20 s
Compute (P|Q) and use solve on the fly!
Maximum distance between P and Q is 28.44997180930993
Number of images for (P|Qn) is 887
 Time for computing 2e2c SR integral is 0.11 s
Maximum dynamic memory per thread for 2e3c SR integrals: 0.100 GiB
Batch size for basis function pair is 3480 out of 3480
 === bvk cell = 0 has 100.000 % of the basis function pairs === 
 === bvk cell = 1 has 97.241 % of the basis function pairs === 
 === bvk cell = 2 has 47.586 % of the basis function pairs === 
 === bvk cell = 3 has 8.621 % of the basis function pairs === 
 === bvk cell = 4 has 0.000 % of the basis function pairs === 
 === bvk cell = 5 has 8.621 % of the basis function pairs === 
 === bvk cell = 6 has 47.586 % of the basis function pairs === 
 === bvk cell = 7 has 97.241 % of the basis function pairs === 
 === bvk cell = 8 has 97.241 % of the basis function pairs === 
 === bvk cell = 9 has 61.609 % of the basis function pairs === 
 === bvk cell = 10 has 16.466 % of the basis function pairs === 
 === bvk cell = 11 has 2.586 % of the basis function pairs === 
 === bvk cell = 12 has 0.000 % of the basis function pairs === 
 === bvk cell = 13 has 15.230 % of the basis function pairs === 
 === bvk cell = 14 has 62.672 % of the basis function pairs === 
 === bvk cell = 15 has 100.000 % of the basis function pairs === 
 === bvk cell = 16 has 47.586 % of the basis function pairs === 
 === bvk cell = 17 has 16.466 % of the basis function pairs === 
 === bvk cell = 18 has 3.448 % of the basis function pairs === 
 === bvk cell = 19 has 0.000 % of the basis function pairs === 
 === bvk cell = 20 has 0.000 % of the basis function pairs === 
 === bvk cell = 21 has 13.793 % of the basis function pairs === 
 === bvk cell = 22 has 41.034 % of the basis function pairs === 
 === bvk cell = 23 has 62.672 % of the basis function pairs === 
 === bvk cell = 24 has 8.621 % of the basis function pairs === 
 === bvk cell = 25 has 2.586 % of the basis function pairs === 
 === bvk cell = 26 has 0.000 % of the basis function pairs === 
 === bvk cell = 27 has 0.000 % of the basis function pairs === 
 === bvk cell = 28 has 0.000 % of the basis function pairs === 
 === bvk cell = 29 has 10.345 % of the basis function pairs === 
 === bvk cell = 30 has 13.793 % of the basis function pairs === 
 === bvk cell = 31 has 15.230 % of the basis function pairs === 
 === bvk cell = 32 has 0.000 % of the basis function pairs === 
 === bvk cell = 33 has 0.000 % of the basis function pairs === 
 === bvk cell = 34 has 0.000 % of the basis function pairs === 
 === bvk cell = 35 has 0.000 % of the basis function pairs === 
 === bvk cell = 36 has 0.000 % of the basis function pairs === 
 === bvk cell = 37 has 0.000 % of the basis function pairs === 
 === bvk cell = 38 has 0.000 % of the basis function pairs === 
 === bvk cell = 39 has 0.000 % of the basis function pairs === 
 === bvk cell = 40 has 8.621 % of the basis function pairs === 
 === bvk cell = 41 has 15.230 % of the basis function pairs === 
 === bvk cell = 42 has 13.793 % of the basis function pairs === 
 === bvk cell = 43 has 10.345 % of the basis function pairs === 
 === bvk cell = 44 has 0.000 % of the basis function pairs === 
 === bvk cell = 45 has 0.000 % of the basis function pairs === 
 === bvk cell = 46 has 0.000 % of the basis function pairs === 
 === bvk cell = 47 has 2.586 % of the basis function pairs === 
 === bvk cell = 48 has 47.586 % of the basis function pairs === 
 === bvk cell = 49 has 62.672 % of the basis function pairs === 
 === bvk cell = 50 has 41.034 % of the basis function pairs === 
 === bvk cell = 51 has 13.793 % of the basis function pairs === 
 === bvk cell = 52 has 0.000 % of the basis function pairs === 
 === bvk cell = 53 has 0.000 % of the basis function pairs === 
 === bvk cell = 54 has 3.448 % of the basis function pairs === 
 === bvk cell = 55 has 16.466 % of the basis function pairs === 
 === bvk cell = 56 has 97.241 % of the basis function pairs === 
 === bvk cell = 57 has 100.000 % of the basis function pairs === 
 === bvk cell = 58 has 62.672 % of the basis function pairs === 
 === bvk cell = 59 has 15.230 % of the basis function pairs === 
 === bvk cell = 60 has 0.000 % of the basis function pairs === 
 === bvk cell = 61 has 2.586 % of the basis function pairs === 
 === bvk cell = 62 has 16.466 % of the basis function pairs === 
 === bvk cell = 63 has 61.609 % of the basis function pairs === 
 === bvk cell = 64 has 97.241 % of the basis function pairs === 
 === bvk cell = 65 has 61.609 % of the basis function pairs === 
 === bvk cell = 66 has 16.466 % of the basis function pairs === 
 === bvk cell = 67 has 2.586 % of the basis function pairs === 
 === bvk cell = 68 has 0.000 % of the basis function pairs === 
 === bvk cell = 69 has 15.230 % of the basis function pairs === 
 === bvk cell = 70 has 62.672 % of the basis function pairs === 
 === bvk cell = 71 has 100.000 % of the basis function pairs === 
 === bvk cell = 72 has 61.609 % of the basis function pairs === 
 === bvk cell = 73 has 23.908 % of the basis function pairs === 
 === bvk cell = 74 has 3.448 % of the basis function pairs === 
 === bvk cell = 75 has 0.000 % of the basis function pairs === 
 === bvk cell = 76 has 2.586 % of the basis function pairs === 
 === bvk cell = 77 has 16.092 % of the basis function pairs === 
 === bvk cell = 78 has 59.713 % of the basis function pairs === 
 === bvk cell = 79 has 87.874 % of the basis function pairs === 
 === bvk cell = 80 has 16.466 % of the basis function pairs === 
 === bvk cell = 81 has 3.448 % of the basis function pairs === 
 === bvk cell = 82 has 0.000 % of the basis function pairs === 
 === bvk cell = 83 has 0.000 % of the basis function pairs === 
 === bvk cell = 84 has 0.000 % of the basis function pairs === 
 === bvk cell = 85 has 13.793 % of the basis function pairs === 
 === bvk cell = 86 has 25.948 % of the basis function pairs === 
 === bvk cell = 87 has 30.805 % of the basis function pairs === 
 === bvk cell = 88 has 2.586 % of the basis function pairs === 
 === bvk cell = 89 has 0.000 % of the basis function pairs === 
 === bvk cell = 90 has 0.000 % of the basis function pairs === 
 === bvk cell = 91 has 0.000 % of the basis function pairs === 
 === bvk cell = 92 has 0.000 % of the basis function pairs === 
 === bvk cell = 93 has 7.759 % of the basis function pairs === 
 === bvk cell = 94 has 8.621 % of the basis function pairs === 
 === bvk cell = 95 has 8.621 % of the basis function pairs === 
 === bvk cell = 96 has 0.000 % of the basis function pairs === 
 === bvk cell = 97 has 2.586 % of the basis function pairs === 
 === bvk cell = 98 has 0.000 % of the basis function pairs === 
 === bvk cell = 99 has 0.000 % of the basis function pairs === 
 === bvk cell = 100 has 0.000 % of the basis function pairs === 
 === bvk cell = 101 has 0.000 % of the basis function pairs === 
 === bvk cell = 102 has 0.000 % of the basis function pairs === 
 === bvk cell = 103 has 0.000 % of the basis function pairs === 
 === bvk cell = 104 has 15.230 % of the basis function pairs === 
 === bvk cell = 105 has 16.092 % of the basis function pairs === 
 === bvk cell = 106 has 13.793 % of the basis function pairs === 
 === bvk cell = 107 has 7.759 % of the basis function pairs === 
 === bvk cell = 108 has 0.000 % of the basis function pairs === 
 === bvk cell = 109 has 0.000 % of the basis function pairs === 
 === bvk cell = 110 has 0.000 % of the basis function pairs === 
 === bvk cell = 111 has 8.621 % of the basis function pairs === 
 === bvk cell = 112 has 62.672 % of the basis function pairs === 
 === bvk cell = 113 has 59.713 % of the basis function pairs === 
 === bvk cell = 114 has 25.948 % of the basis function pairs === 
 === bvk cell = 115 has 8.621 % of the basis function pairs === 
 === bvk cell = 116 has 0.000 % of the basis function pairs === 
 === bvk cell = 117 has 0.000 % of the basis function pairs === 
 === bvk cell = 118 has 8.621 % of the basis function pairs === 
 === bvk cell = 119 has 30.805 % of the basis function pairs === 
 === bvk cell = 120 has 100.000 % of the basis function pairs === 
 === bvk cell = 121 has 87.874 % of the basis function pairs === 
 === bvk cell = 122 has 30.805 % of the basis function pairs === 
 === bvk cell = 123 has 8.621 % of the basis function pairs === 
 === bvk cell = 124 has 0.000 % of the basis function pairs === 
 === bvk cell = 125 has 8.621 % of the basis function pairs === 
 === bvk cell = 126 has 30.805 % of the basis function pairs === 
 === bvk cell = 127 has 87.874 % of the basis function pairs === 
 === bvk cell = 128 has 47.586 % of the basis function pairs === 
 === bvk cell = 129 has 16.466 % of the basis function pairs === 
 === bvk cell = 130 has 3.448 % of the basis function pairs === 
 === bvk cell = 131 has 0.000 % of the basis function pairs === 
 === bvk cell = 132 has 0.000 % of the basis function pairs === 
 === bvk cell = 133 has 13.793 % of the basis function pairs === 
 === bvk cell = 134 has 41.034 % of the basis function pairs === 
 === bvk cell = 135 has 62.672 % of the basis function pairs === 
 === bvk cell = 136 has 16.466 % of the basis function pairs === 
 === bvk cell = 137 has 3.448 % of the basis function pairs === 
 === bvk cell = 138 has 0.000 % of the basis function pairs === 
 === bvk cell = 139 has 0.000 % of the basis function pairs === 
 === bvk cell = 140 has 0.000 % of the basis function pairs === 
 === bvk cell = 141 has 13.793 % of the basis function pairs === 
 === bvk cell = 142 has 25.948 % of the basis function pairs === 
 === bvk cell = 143 has 30.805 % of the basis function pairs === 
 === bvk cell = 144 has 3.448 % of the basis function pairs === 
 === bvk cell = 145 has 0.000 % of the basis function pairs === 
 === bvk cell = 146 has 0.000 % of the basis function pairs === 
 === bvk cell = 147 has 0.000 % of the basis function pairs === 
 === bvk cell = 148 has 0.000 % of the basis function pairs === 
 === bvk cell = 149 has 8.621 % of the basis function pairs === 
 === bvk cell = 150 has 10.345 % of the basis function pairs === 
 === bvk cell = 151 has 8.621 % of the basis function pairs === 
 === bvk cell = 152 has 0.000 % of the basis function pairs === 
 === bvk cell = 153 has 0.000 % of the basis function pairs === 
 === bvk cell = 154 has 0.000 % of the basis function pairs === 
 === bvk cell = 155 has 0.000 % of the basis function pairs === 
 === bvk cell = 156 has 0.000 % of the basis function pairs === 
 === bvk cell = 157 has 0.000 % of the basis function pairs === 
 === bvk cell = 158 has 0.000 % of the basis function pairs === 
 === bvk cell = 159 has 0.000 % of the basis function pairs === 
 === bvk cell = 160 has 0.000 % of the basis function pairs === 
 === bvk cell = 161 has 0.000 % of the basis function pairs === 
 === bvk cell = 162 has 0.000 % of the basis function pairs === 
 === bvk cell = 163 has 0.000 % of the basis function pairs === 
 === bvk cell = 164 has 0.000 % of the basis function pairs === 
 === bvk cell = 165 has 0.000 % of the basis function pairs === 
 === bvk cell = 166 has 0.000 % of the basis function pairs === 
 === bvk cell = 167 has 0.000 % of the basis function pairs === 
 === bvk cell = 168 has 13.793 % of the basis function pairs === 
 === bvk cell = 169 has 13.793 % of the basis function pairs === 
 === bvk cell = 170 has 8.621 % of the basis function pairs === 
 === bvk cell = 171 has 0.000 % of the basis function pairs === 
 === bvk cell = 172 has 0.000 % of the basis function pairs === 
 === bvk cell = 173 has 0.000 % of the basis function pairs === 
 === bvk cell = 174 has 0.000 % of the basis function pairs === 
 === bvk cell = 175 has 8.621 % of the basis function pairs === 
 === bvk cell = 176 has 41.034 % of the basis function pairs === 
 === bvk cell = 177 has 25.948 % of the basis function pairs === 
 === bvk cell = 178 has 10.345 % of the basis function pairs === 
 === bvk cell = 179 has 0.000 % of the basis function pairs === 
[...]
 -0.08884 0.07415 0.13654 0.22594 0.36670 0.45275 0.46612 0.50214 0.51723 0.63180
 0.74223 0.76673 0.77191 0.89161 0.91679 0.92421 0.97197 1.07115 1.08920 1.16842
 1.20276 1.21968 1.27350 1.28382 1.31936 1.36291 1.41205 1.45439 1.56413 1.56810
 1.63671 1.66739 1.69148 1.69387 1.71501 1.71981 1.76646 1.88114 1.94730 1.98413
 2.00997 2.03983 2.11241 2.15789 2.21231 2.21616 2.26285 2.35044 2.35985 2.43947
 2.47155 2.49299 2.49495 2.52360 2.57386 2.57930 2.59653 2.75772 2.77221 2.81387
 2.83556 2.87081 2.88650 2.91984 2.94345 2.98616 3.07955 3.11130 3.12153 3.15811
 3.19660 3.30819 3.33731 3.38085 3.38527 3.40302 3.40961 3.42256 3.47682 3.48135
 3.48351 3.48900 3.63691 3.67697 3.70792 3.74189 3.79578 3.82562 3.91709 3.94129
 4.08999 4.14564 4.23797 4.35293 4.52544 4.60719 7.77012 8.28890 8.29716 9.00215
 9.32180 9.85596 13.08130 14.27962
 == 494-th k-point (0.07654,0.38270,0.22962) occupation: 14==
 -65.00561 -65.00561 -4.62777 -4.62764 -3.03963 -3.03961 -3.03942 -3.03909 -3.03891 -3.03888
 -0.08243 0.06073 0.15261 0.20377 0.38233 0.40748 0.46165 0.49604 0.61118 0.63564
 0.71938 0.75607 0.80226 0.83822 0.91549 0.95450 0.98710 1.05838 1.09304 1.12303
 1.18189 1.23573 1.25111 1.28878 1.35164 1.38532 1.44304 1.44716 1.50179 1.52858
 1.58823 1.61731 1.65464 1.74665 1.75948 1.82166 1.83632 1.88297 1.91638 1.97921
 2.02981 2.04419 2.08246 2.14216 2.16970 2.19832 2.26630 2.34701 2.35059 2.40323
 2.43568 2.44971 2.49711 2.56215 2.58808 2.61424 2.67324 2.75361 2.78567 2.82509
 2.83202 2.88158 2.89653 2.93096 2.95982 2.97730 3.01532 3.08552 3.12003 3.16741
 3.20291 3.29066 3.30216 3.30340 3.35167 3.38708 3.42423 3.45839 3.49179 3.50174
 3.54113 3.59558 3.63763 3.68605 3.73309 3.75156 3.79471 3.85382 3.90912 3.96808
 4.08872 4.11346 4.24227 4.33286 4.53167 4.59398 8.00659 8.21922 8.33241 9.05652
 9.61046 10.05663 13.16331 14.26138
 == 495-th k-point (0.15308,0.45924,0.15308) occupation: 14==
 -65.00561 -65.00561 -4.62775 -4.62765 -3.03964 -3.03962 -3.03939 -3.03912 -3.03891 -3.03888
 -0.06400 0.04088 0.14472 0.19348 0.33224 0.44063 0.48818 0.49553 0.65289 0.66961
 0.72939 0.74549 0.75523 0.90011 0.93693 0.96874 0.99368 1.00670 1.01751 1.12480
 1.16484 1.21137 1.22864 1.32200 1.35778 1.36944 1.37176 1.44748 1.49939 1.56351
 1.60344 1.63907 1.67006 1.68446 1.71745 1.81676 1.90728 1.92954 1.93725 1.99288
 2.01731 2.04353 2.08093 2.13694 2.16471 2.19987 2.28271 2.31837 2.32884 2.37181
 2.44971 2.46066 2.50182 2.51835 2.61372 2.61575 2.65892 2.74208 2.79474 2.81328
 2.83911 2.90352 2.93307 2.95214 2.95853 3.02428 3.03500 3.05238 3.08353 3.13025
 3.15803 3.23439 3.31620 3.32512 3.33840 3.34889 3.35794 3.43716 3.49627 3.50549
 3.56510 3.65336 3.65630 3.71657 3.72002 3.79011 3.80019 3.84779 3.87709 3.98503
 4.07393 4.21081 4.25232 4.29429 4.55904 4.56783 8.10091 8.34165 8.40297 8.85893
 9.77901 9.94047 13.16068 14.19029
 == 496-th k-point (-0.30616,-0.15308,0.76541) occupation: 14==
 -65.00561 -65.00561 -4.62775 -4.62765 -3.03963 -3.03962 -3.03940 -3.03911 -3.03890 -3.03887
 -0.05831 0.02578 0.14794 0.19524 0.38959 0.39174 0.49503 0.54026 0.54884 0.66970
 0.70811 0.73412 0.85015 0.85634 0.94868 0.96361 1.00249 1.05213 1.05761 1.10002
 1.20717 1.21555 1.22239 1.26072 1.33438 1.38640 1.40081 1.43605 1.48289 1.49928
 1.57918 1.59729 1.65878 1.75011 1.76518 1.81106 1.87391 1.94077 1.95671 1.97597
 2.04817 2.05774 2.12552 2.17331 2.19052 2.23048 2.29647 2.31534 2.33369 2.34959
 2.42905 2.44201 2.47198 2.47965 2.57162 2.63647 2.72968 2.73929 2.78712 2.84364
 2.86757 2.88180 2.90970 2.95306 2.97173 2.98287 3.03296 3.07003 3.09317 3.15039
 3.20912 3.23117 3.24563 3.27192 3.32490 3.37850 3.42632 3.47050 3.47460 3.52564
 3.53807 3.58950 3.64150 3.65398 3.70072 3.74993 3.82081 3.86866 3.88002 4.01015
 4.01871 4.14650 4.25119 4.26710 4.51857 4.54755 8.21934 8.39127 8.40552 8.85421
 9.20506 9.87436 13.13391 14.45606
 == 497-th k-point (-0.22962,-0.07654,0.68887) occupation: 14==
 -65.00561 -65.00561 -4.62773 -4.62768 -3.03964 -3.03963 -3.03933 -3.03918 -3.03889 -3.03887
 -0.03638 0.02090 0.12513 0.16568 0.36427 0.43441 0.47111 0.55106 0.58801 0.68880
 0.72910 0.80262 0.84746 0.87122 0.92612 0.95575 0.97438 1.00124 1.05850 1.08576
 1.12382 1.17265 1.20335 1.30035 1.32702 1.35914 1.43189 1.45280 1.48137 1.50280
 1.57835 1.64702 1.71257 1.75984 1.77745 1.81950 1.87578 1.89210 1.89632 1.97996
 2.00137 2.08000 2.11183 2.17913 2.19922 2.25830 2.29002 2.31617 2.33015 2.35783
 2.40623 2.45579 2.48999 2.54083 2.59485 2.65083 2.68148 2.72506 2.79454 2.81727
 2.84606 2.88263 2.92497 2.94718 2.99877 3.00954 3.04009 3.06133 3.11093 3.12790
 3.20332 3.23866 3.27731 3.31982 3.34189 3.39844 3.41009 3.41935 3.45245 3.48337
 3.53234 3.58796 3.61974 3.66415 3.68462 3.71643 3.79834 3.87591 3.96120 3.98011
 4.07180 4.17199 4.25629 4.27600 4.55931 4.59036 8.25128 8.41717 8.54641 8.75114
 9.45231 9.81972 13.36654 13.99859
 == 498-th k-point (-0.15308,0.00000,0.61232) occupation: 14==
 -65.00561 -65.00561 -4.62770 -4.62770 -3.03964 -3.03964 -3.03925 -3.03925 -3.03888 -3.03888
 -0.00870 -0.00870 0.14881 0.14881 0.34883 0.34883 0.56635 0.56635 0.66952 0.66952
 0.75363 0.75363 0.85471 0.85471 0.92038 0.92038 0.98065 0.98065 1.08404 1.08404
 1.13078 1.13078 1.17222 1.17223 1.40882 1.40882 1.48732 1.48732 1.49628 1.49628
 1.63807 1.63808 1.72149 1.72153 1.76923 1.76924 1.85260 1.85261 1.89681 1.89683
 2.04551 2.04552 2.16772 2.16780 2.23388 2.23389 2.29741 2.29742 2.33988 2.33990
 2.45331 2.45332 2.48454 2.48455 2.63580 2.63586 2.73850 2.73851 2.76527 2.76529
 2.86216 2.86217 2.92738 2.92738 2.97780 2.97786 3.05843 3.05844 3.13462 3.13464
 3.21759 3.21762 3.27813 3.27819 3.33799 3.33801 3.36844 3.36858 3.51354 3.51359
 3.57580 3.57596 3.62304 3.62309 3.72377 3.72382 3.90850 3.90860 3.99473 3.99478
 4.20636 4.20639 4.31084 4.31111 4.60121 4.60124 8.32947 8.32947 8.62826 8.62829
 9.76965 9.76985 13.41715 13.41728
 == 499-th k-point (-0.07654,0.07654,0.53578) occupation: 14==
 -65.00561 -65.00561 -4.62773 -4.62768 -3.03964 -3.03964 -3.03931 -3.03918 -3.03889 -3.03889
 -0.04296 0.02470 0.14811 0.17581 0.30913 0.34876 0.58229 0.58486 0.67477 0.67963
 0.73644 0.75055 0.82713 0.83457 0.86519 0.96457 0.97575 0.99508 1.04514 1.10099
 1.12022 1.15118 1.17547 1.24519 1.36849 1.40502 1.48076 1.50841 1.51062 1.56321
 1.62573 1.66382 1.69212 1.71946 1.76577 1.78072 1.79256 1.86741 1.87554 1.91736
 1.99726 2.07570 2.11579 2.14868 2.17213 2.24391 2.25725 2.34093 2.35219 2.38561
 2.44009 2.44634 2.50005 2.52223 2.55732 2.61548 2.70002 2.75878 2.79640 2.82016
 2.84045 2.89019 2.91527 2.95653 2.95932 2.98586 3.03822 3.04357 3.09156 3.12424
 3.22512 3.24147 3.24638 3.30753 3.31374 3.32803 3.37444 3.42994 3.50308 3.52156
 3.54664 3.57446 3.65359 3.65917 3.71588 3.74172 3.90286 3.91746 3.97116 4.07890
 4.19130 4.26539 4.30590 4.34353 4.59814 4.61760 8.13886 8.44436 8.52756 8.63242
 9.73911 10.07557 13.33475 13.45396
 == 500-th k-point (0.00000,0.15308,0.45924) occupation: 14==
 -65.00561 -65.00561 -4.62775 -4.62765 -3.03963 -3.03963 -3.03937 -3.03913 -3.03890 -3.03890
 -0.06866 0.05656 0.15088 0.17308 0.34778 0.37402 0.48891 0.57185 0.65459 0.65507
 0.75312 0.77421 0.79941 0.81650 0.89202 0.91270 1.00041 1.01890 1.08562 1.09290
 1.14544 1.18514 1.25130 1.30057 1.33731 1.36587 1.47083 1.50137 1.50195 1.53523
 1.53729 1.67520 1.72774 1.73852 1.78822 1.80321 1.83173 1.85501 1.89678 1.92416
 2.01914 2.04195 2.07233 2.15026 2.15430 2.20719 2.21223 2.33670 2.36099 2.42659
 2.43620 2.46129 2.52512 2.58240 2.58341 2.61036 2.62429 2.76223 2.78565 2.83535
 2.87584 2.90096 2.90582 2.91174 2.94954 2.99871 3.01485 3.05737 3.07928 3.12641
 3.19105 3.25666 3.31759 3.32989 3.35299 3.38940 3.41723 3.43891 3.50236 3.51071
 3.53491 3.54196 3.65533 3.66240 3.70691 3.72127 3.87842 3.90073 3.97621 4.04397
 4.13223 4.16053 4.27896 4.33760 4.57957 4.61736 8.12176 8.25932 8.31211 8.86381
 10.15220 10.26087 13.31738 13.61899
 == 501-th k-point (0.07654,0.22962,0.38270) occupation: 14==
 -65.00561 -65.00561 -4.62777 -4.62764 -3.03963 -3.03961 -3.03942 -3.03909 -3.03891 -3.03888
 -0.08243 0.06073 0.15261 0.20377 0.38233 0.40748 0.46165 0.49604 0.61118 0.63564
 0.71938 0.75607 0.80226 0.83822 0.91549 0.95450 0.98710 1.05838 1.09304 1.12303
 1.18189 1.23573 1.25111 1.28878 1.35164 1.38532 1.44304 1.44716 1.50179 1.52858
 1.58823 1.61731 1.65464 1.74665 1.75948 1.82166 1.83632 1.88297 1.91638 1.97921
 2.02981 2.04419 2.08246 2.14216 2.16970 2.19832 2.26630 2.34701 2.35059 2.40323
 2.43568 2.44971 2.49711 2.56215 2.58808 2.61424 2.67324 2.75361 2.78567 2.82509
 2.83202 2.88158 2.89653 2.93096 2.95982 2.97730 3.01532 3.08552 3.12003 3.16741
 3.20291 3.29066 3.30216 3.30340 3.35167 3.38708 3.42423 3.45839 3.49179 3.50174
 3.54113 3.59558 3.63763 3.68605 3.73309 3.75156 3.79471 3.85382 3.90912 3.96808
 4.08872 4.11346 4.24227 4.33286 4.53167 4.59398 8.00659 8.21922 8.33241 9.05652
 9.61046 10.05663 13.16331 14.26138
 == 502-th k-point (0.15308,0.30616,0.30616) occupation: 14==
 -65.00561 -65.00561 -4.62778 -4.62763 -3.03962 -3.03961 -3.03946 -3.03906 -3.03890 -3.03889
 -0.08400 0.04069 0.18438 0.22821 0.36355 0.41005 0.41935 0.56704 0.57801 0.61638
 0.68961 0.73795 0.80849 0.81716 0.90423 0.96833 1.04420 1.10075 1.12192 1.12273
 1.19071 1.21871 1.29820 1.31171 1.31875 1.36459 1.40032 1.46094 1.50927 1.53393
 1.54128 1.61464 1.67989 1.71694 1.73860 1.81617 1.82346 1.86999 1.95187 1.99090
 2.06445 2.09038 2.13213 2.15847 2.16539 2.20563 2.30278 2.33023 2.34847 2.38638
 2.42157 2.44122 2.50961 2.55745 2.58499 2.62256 2.72225 2.76846 2.78697 2.79738
 2.82114 2.87796 2.90615 2.94667 2.95009 2.96972 2.97734 3.10089 3.11743 3.13244
 3.16525 3.19631 3.26851 3.35018 3.37065 3.40248 3.45265 3.45468 3.50136 3.53614
 3.58732 3.64187 3.67312 3.67323 3.71780 3.74006 3.75670 3.89789 3.96415 3.97700
 4.02408 4.12248 4.24556 4.33836 4.48292 4.54085 8.02064 8.22761 8.35481 9.22404
 9.35473 9.95807 12.66323 14.57934
 == 503-th k-point (0.22962,0.38270,0.22962) occupation: 14==
 -65.00561 -65.00561 -4.62777 -4.62764 -3.03962 -3.03961 -3.03946 -3.03906 -3.03892 -3.03888
 -0.07495 0.02698 0.19113 0.21724 0.35735 0.40606 0.42809 0.54817 0.60766 0.66850
 0.70139 0.70857 0.73895 0.83307 0.95765 1.00812 1.03200 1.06526 1.09918 1.11076
 1.19629 1.25428 1.25729 1.30693 1.32519 1.38826 1.39725 1.41489 1.50498 1.50507
 1.54470 1.60927 1.67586 1.71794 1.72562 1.80435 1.85305 1.94625 1.96253 2.00804
 2.05958 2.09107 2.11540 2.17510 2.19801 2.24054 2.25282 2.28878 2.32951 2.35013
 2.43085 2.45112 2.50192 2.53828 2.56928 2.67845 2.74633 2.75827 2.77305 2.81136
 2.82643 2.88251 2.89366 2.93328 2.95961 2.96563 3.03486 3.08191 3.09028 3.11493
 3.14496 3.22339 3.23520 3.23944 3.38218 3.42694 3.44220 3.49712 3.52990 3.53885
 3.56806 3.63746 3.65862 3.69342 3.71301 3.77899 3.79697 3.86053 3.94081 3.96555
 4.04147 4.15807 4.24978 4.30056 4.49827 4.50231 8.16750 8.35757 8.37621 9.09856
 9.57060 9.96668 12.62259 14.65298
 == 504-th k-point (-0.22962,-0.22962,0.84195) occupation: 14==
 -65.00561 -65.00561 -4.62777 -4.62764 -3.03962 -3.03961 -3.03946 -3.03906 -3.03892 -3.03888
 -0.07495 0.02698 0.19113 0.21724 0.35735 0.40606 0.42809 0.54817 0.60766 0.66850
 0.70139 0.70857 0.73895 0.83307 0.95765 1.00812 1.03200 1.06526 1.09918 1.11076
 1.19629 1.25428 1.25729 1.30693 1.32519 1.38826 1.39725 1.41489 1.50498 1.50507
 1.54470 1.60927 1.67586 1.71794 1.72562 1.80435 1.85305 1.94625 1.96253 2.00804
 2.05958 2.09107 2.11540 2.17510 2.19801 2.24054 2.25282 2.28878 2.32951 2.35013
 2.43085 2.45112 2.50192 2.53828 2.56928 2.67845 2.74633 2.75827 2.77305 2.81136
 2.82643 2.88251 2.89366 2.93328 2.95961 2.96563 3.03486 3.08191 3.09028 3.11493
 3.14496 3.22339 3.23520 3.23944 3.38218 3.42694 3.44220 3.49712 3.52990 3.53885
 3.56806 3.63746 3.65862 3.69342 3.71301 3.77899 3.79697 3.86053 3.94081 3.96555
 4.04147 4.15807 4.24978 4.30056 4.49827 4.50231 8.16750 8.35757 8.37621 9.09856
 9.57060 9.96668 12.62259 14.65298
 == 505-th k-point (-0.15308,-0.15308,0.76541) occupation: 14==
 -65.00561 -65.00561 -4.62775 -4.62765 -3.03964 -3.03962 -3.03939 -3.03912 -3.03891 -3.03888
 -0.06400 0.04088 0.14472 0.19348 0.33224 0.44063 0.48818 0.49553 0.65289 0.66961
 0.72939 0.74549 0.75523 0.90011 0.93693 0.96874 0.99368 1.00670 1.01751 1.12480
 1.16484 1.21137 1.22864 1.32200 1.35778 1.36944 1.37176 1.44748 1.49939 1.56351
 1.60344 1.63907 1.67006 1.68446 1.71745 1.81676 1.90728 1.92954 1.93725 1.99288
 2.01731 2.04353 2.08093 2.13694 2.16471 2.19987 2.28271 2.31837 2.32884 2.37181
 2.44971 2.46066 2.50182 2.51835 2.61372 2.61575 2.65892 2.74208 2.79474 2.81328
 2.83911 2.90352 2.93307 2.95214 2.95853 3.02428 3.03500 3.05238 3.08353 3.13025
 3.15803 3.23439 3.31620 3.32512 3.33840 3.34889 3.35794 3.43716 3.49627 3.50549
 3.56510 3.65336 3.65630 3.71657 3.72002 3.79011 3.80019 3.84779 3.87709 3.98503
 4.07393 4.21081 4.25232 4.29429 4.55904 4.56783 8.10091 8.34165 8.40297 8.85893
 9.77901 9.94047 13.16068 14.19029
 == 506-th k-point (-0.07654,-0.07654,0.68887) occupation: 14==
 -65.00561 -65.00561 -4.62773 -4.62768 -3.03964 -3.03964 -3.03931 -3.03918 -3.03889 -3.03889
 -0.04296 0.02470 0.14811 0.17581 0.30913 0.34876 0.58229 0.58487 0.67477 0.67963
 0.73644 0.75055 0.82713 0.83457 0.86519 0.96456 0.97575 0.99508 1.04514 1.10098
 1.12023 1.15118 1.17547 1.24519 1.36848 1.40504 1.48077 1.50840 1.51061 1.56320
 1.62571 1.66384 1.69222 1.71945 1.76586 1.78073 1.79245 1.86738 1.87556 1.91736
 1.99701 2.07583 2.11540 2.14861 2.17241 2.24401 2.25718 2.34084 2.35216 2.38560
 2.44009 2.44628 2.49958 2.52232 2.55728 2.61567 2.70011 2.75898 2.79607 2.82019
 2.84086 2.88982 2.91530 2.95664 2.95931 2.98594 3.03806 3.04373 3.09158 3.12424
 3.22519 3.24060 3.24694 3.30716 3.31379 3.32820 3.37340 3.43124 3.50236 3.52225
 3.54652 3.57527 3.65340 3.65926 3.71566 3.74181 3.90275 3.91704 3.97188 4.07882
 4.19230 4.26470 4.30597 4.34387 4.59493 4.62101 8.13887 8.44441 8.52717 8.63260
 9.73311 10.08345 13.33494 13.45461
 == 507-th k-point (0.00000,0.00000,0.61232) occupation: 14==
 -65.00561 -65.00561 -4.62770 -4.62770 -3.03964 -3.03964 -3.03924 -3.03924 -3.03889 -3.03889
 -0.01162 -0.01162 0.16953 0.16953 0.30236 0.30236 0.64794 0.64794 0.68867 0.68868
 0.74438 0.74438 0.75503 0.75503 0.97743 0.97743 1.00277 1.00278 1.02305 1.02305
 1.06990 1.06990 1.23787 1.23787 1.37411 1.37414 1.54470 1.54471 1.58193 1.58193
 1.63098 1.63098 1.69128 1.69129 1.74493 1.74495 1.82751 1.82784 1.85607 1.85614
 2.08075 2.08154 2.09737 2.09743 2.18719 2.18720 2.30480 2.30486 2.43076 2.43080
 2.45555 2.45557 2.50291 2.50293 2.52116 2.52225 2.73709 2.73710 2.77717 2.77731
 2.86751 2.86806 2.98830 2.98831 3.00919 3.00921 3.02671 3.02672 3.08137 3.08153
 3.23353 3.23368 3.25050 3.25064 3.26318 3.26323 3.45287 3.45639 3.49196 3.49210
 3.55748 3.55757 3.64301 3.64301 3.72928 3.72937 3.93618 3.93694 4.06959 4.06978
 4.29078 4.29135 4.35444 4.35483 4.60862 4.61335 8.31777 8.31779 8.62557 8.62567
 9.65784 9.66609 13.41118 13.41137
 == 508-th k-point (0.07654,0.07654,0.53578) occupation: 14==
 -65.00561 -65.00561 -4.62773 -4.62768 -3.03964 -3.03964 -3.03931 -3.03918 -3.03889 -3.03889
 -0.04296 0.02470 0.14811 0.17581 0.30913 0.34876 0.58229 0.58487 0.67477 0.67963
 0.73644 0.75055 0.82713 0.83457 0.86519 0.96456 0.97575 0.99508 1.04514 1.10098
 1.12023 1.15118 1.17547 1.24519 1.36848 1.40504 1.48077 1.50840 1.51061 1.56320
 1.62571 1.66384 1.69222 1.71945 1.76586 1.78073 1.79245 1.86738 1.87556 1.91736
 1.99701 2.07583 2.11540 2.14861 2.17241 2.24401 2.25718 2.34084 2.35216 2.38560
 2.44009 2.44628 2.49958 2.52232 2.55728 2.61567 2.70011 2.75898 2.79607 2.82019
 2.84086 2.88982 2.91530 2.95664 2.95931 2.98594 3.03806 3.04373 3.09158 3.12424
 3.22519 3.24060 3.24694 3.30716 3.31379 3.32820 3.37340 3.43124 3.50236 3.52225
 3.54652 3.57527 3.65340 3.65926 3.71566 3.74181 3.90275 3.91704 3.97188 4.07882
 4.19230 4.26470 4.30597 4.34387 4.59493 4.62101 8.13887 8.44441 8.52717 8.63260
 9.73311 10.08345 13.33494 13.45461
 == 509-th k-point (0.15308,0.15308,0.45924) occupation: 14==
 -65.00561 -65.00561 -4.62775 -4.62765 -3.03964 -3.03962 -3.03939 -3.03912 -3.03891 -3.03888
 -0.06400 0.04088 0.14472 0.19348 0.33224 0.44063 0.48818 0.49553 0.65289 0.66961
 0.72939 0.74549 0.75523 0.90011 0.93693 0.96874 0.99368 1.00670 1.01751 1.12480
 1.16484 1.21137 1.22864 1.32200 1.35778 1.36944 1.37176 1.44748 1.49939 1.56351
 1.60344 1.63907 1.67006 1.68446 1.71745 1.81676 1.90728 1.92954 1.93725 1.99288
 2.01731 2.04353 2.08093 2.13694 2.16471 2.19987 2.28271 2.31837 2.32884 2.37181
 2.44971 2.46066 2.50182 2.51835 2.61372 2.61575 2.65892 2.74208 2.79474 2.81328
 2.83911 2.90352 2.93307 2.95214 2.95853 3.02428 3.03500 3.05238 3.08353 3.13025
 3.15803 3.23439 3.31620 3.32512 3.33840 3.34889 3.35794 3.43716 3.49627 3.50549
 3.56510 3.65336 3.65630 3.71657 3.72002 3.79011 3.80019 3.84779 3.87709 3.98503
 4.07393 4.21081 4.25232 4.29429 4.55904 4.56783 8.10091 8.34165 8.40297 8.85893
 9.77901 9.94047 13.16068 14.19029
 == 510-th k-point (0.22962,0.22962,0.38270) occupation: 14==
 -65.00561 -65.00561 -4.62777 -4.62764 -3.03962 -3.03961 -3.03946 -3.03906 -3.03892 -3.03888
 -0.07495 0.02698 0.19113 0.21724 0.35735 0.40606 0.42809 0.54817 0.60766 0.66850
 0.70139 0.70857 0.73895 0.83307 0.95765 1.00812 1.03200 1.06526 1.09918 1.11076
 1.19629 1.25428 1.25729 1.30693 1.32519 1.38826 1.39725 1.41489 1.50498 1.50507
 1.54470 1.60927 1.67586 1.71794 1.72562 1.80435 1.85305 1.94625 1.96253 2.00804
 2.05958 2.09107 2.11540 2.17510 2.19801 2.24054 2.25282 2.28878 2.32951 2.35013
 2.43085 2.45112 2.50192 2.53828 2.56928 2.67845 2.74633 2.75827 2.77305 2.81136
 2.82643 2.88251 2.89366 2.93328 2.95961 2.96563 3.03486 3.08191 3.09028 3.11493
 3.14496 3.22339 3.23520 3.23944 3.38218 3.42694 3.44220 3.49712 3.52990 3.53885
 3.56806 3.63746 3.65862 3.69342 3.71301 3.77899 3.79697 3.86053 3.94081 3.96555
 4.04147 4.15807 4.24978 4.30056 4.49827 4.50231 8.16750 8.35757 8.37621 9.09856
 9.57060 9.96668 12.62259 14.65298
 == 511-th k-point (0.30616,0.30616,0.30616) occupation: 14==
 -65.00562 -65.00560 -4.62777 -4.62763 -3.03961 -3.03961 -3.03949 -3.03902 -3.03890 -3.03890
 -0.07809 0.01871 0.23066 0.23066 0.33352 0.39991 0.39991 0.55832 0.67262 0.67262
 0.69299 0.69519 0.69519 0.75390 0.99997 1.01494 1.09078 1.09078 1.09461 1.09461
 1.23864 1.26024 1.26024 1.30700 1.30700 1.35732 1.41649 1.49045 1.49045 1.50106
 1.50106 1.58388 1.62551 1.65341 1.87969 1.87969 1.88677 1.90817 1.90817 1.92006
 2.12737 2.12737 2.19135 2.19615 2.19615 2.24477 2.26990 2.26990 2.33413 2.33413
 2.46226 2.46226 2.55672 2.55672 2.60150 2.67918 2.74736 2.77458 2.77458 2.79481
 2.81812 2.81812 2.82824 2.91958 2.95004 2.96170 3.09539 3.09539 3.09795 3.09795
 3.19220 3.19220 3.21260 3.21260 3.31473 3.46584 3.46584 3.55219 3.55601 3.55601
 3.56440 3.67417 3.67417 3.69032 3.73074 3.76073 3.93384 3.93384 4.00625 4.00625
 4.12706 4.14912 4.14912 4.33516 4.43937 4.43937 8.25917 8.25917 8.32967 9.36519
 9.36519 10.00481 11.95050 14.72079
 ---------------------------------------------------------------------------
 VBM is at 219-th k-point with 7.49210 eV
 CBM is at 24-th k-point with 8.12669 eV
 Band gap is 0.63459 eV


           Ground-State Mulliken Net Atomic Charges

      Atom                 Charge (a.u.)          Spin (a.u.)
   --------------------------------------------------------
      1 Si              (-0.000000,-0.000000)    (0.000000,0.000000)
      2 Si                (0.000000,0.000000)    (0.000000,0.000000)
   --------------------------------------------------------
  Sum of atomic charges =      (-0.000000,0.000000)
  Sum of spin   charges =       (0.000000,0.000000)



 Total job time:  856.11 s.
 Tue Sep  9 04:21:30 2025


        *************************************************************
        *                                                           *
        *  Thank you very much for using QCPBC. Have a nice day.    *
        *                                                           *
        *************************************************************

Running job 1 of 1
