                  Welcome to Q-Chem
           with Periodic Boundary Condition
     A Quantum Leap Into The Future Of Chemistry

 Adam Rettig, Xintian Feng, Meng-Fu Chen, Hieu Dinh, Stephen Quiton,
 Anton Ni, Paul J. Robinson, Jinghong Zhang, Joonho Lee

Contributors to earlier versions of Q-Chem not listed above:
 Evgeny Epifanovsky, Leo Cunha, Jerome F. Gonthier, Kuan-Yu Liu
 Input file: /n/netscratch/joonholee_lab/Lab/hieudinh//si_2_ccpvqz_omega_0.9_999.scratch20250909044922/si_2_ccpvqz_omega_0.9_999.0
 Scratch folder: /n/netscratch/joonholee_lab/Lab/hieudinh//si_2_ccpvqz_omega_0.9_999.scratch20250909044922
 Auxillary files located at: /n/holylabs/LABS/joonholee_lab/Lab/qchem_base/qcaux
 Q-Chem begins on Tue Sep  9 04:49:23 2025

 -------------------------------------------------------------
 User input:
 -------------------------------------------------------------
 $lattice
 3
 0.000000 5.130600 5.130600
 5.130600 0.000000 5.130600
 5.130600 5.130600 0.000000
 $end
 
 $unitcell
 ABSOLUTE
 0 1
 Si 0.000000 0.000000 0.000000
 Si 2.565300 2.565300 2.565300
 $end
 
 $rem
 jobtype = sp
 method = pbe
 scf_convergence = 5
 scf_guess = autosad
 scf_algorithm = diis_gdm
 basis = cc-pvqz
 aux_basis = cc-pvqz-jk
 input_bohr = true
 symmetry = false
 rsdf_print_level 1
 is_basis_uctr true
 
 mp_mesh = [9,9,9]
 
 integral_direct true
 bvk_cgto true
 
 thresh 14
 mem_total 1000000
 threads 32
 
 MAX_SCF_CYCLES 500
 madelung = false
 omega 0.9
 do_rij_bigmem true
 automate_g true
 print_level 10
 grid_type_xc 1
 
 thresh_1e2c_sp 1e-14
 thresh_2e3c_bra_ket_sep 1e-10
 thresh_g 1e-12
 $end
 
 -------------------------------------------------------------
 Running PBC job

 Requested Exchange Correlation Functionals: 
  DFT Exchange:  1.00000 pbe_x
  DFT Correlation:  1.00000 pbe_c
 using 32 threads for computing.
 ---------------------------------------------------------------
      Coordinates of Atoms in Central Unit Cell (Angstroms)
    I     Atom         X            Y            Z
 ---------------------------------------------------------------
    1      Si      0.000000     0.000000     0.000000
    2      Si      1.357498     1.357498     1.357498
 ---------------------------------------------------------------
 --------------------------------------------------
              Lattice Vectors (Angstroms)
              X            Y            Z
 --------------------------------------------------
   X       0.000000     2.714997     2.714997
   Y       2.714997     0.000000     2.714997
   Z       2.714997     2.714997     0.000000
 --------------------------------------------------
 --------------------------------------------------
       Reciprocal Lattice Vectors (Angstroms^-1)
              X            Y            Z
 --------------------------------------------------
   X      -1.157126     1.157126     1.157126
   Y       1.157126    -1.157126     1.157126
   Z       1.157126     1.157126    -1.157126
 --------------------------------------------------

 Single point calculation requested

 Hamiltonian contributions:
 List of terms in Hamiltonian: kpts_nn, kpts_kinetic, kpts_vnuc_df, kpts_xc, kpts_rij_bigmem

 K-Points calculation started.

 Basis set information about using solid harmonic (1) or Cartesian (0):
  si : D(1) D(1) D(1) F(1) F(1) G(1) 

 Basis set information about using solid harmonic (1) or Cartesian (0):
  si : D(1) D(1) D(1) D(1) D(1) D(1) D(1) D(1) D(1) F(1) F(1) F(1) F(1) G(1) G(1) H(1) 

 There are 118 basis functions in the central unit cell.
 Print atomic basis of atoms in the central unit cell:
 -------------------------------------------------------------
2 66 134 28

  0.00000000000000e+00  0.00000000000000e+00  0.00000000000000e+00
  2.56530000000000e+00  2.56530000000000e+00  2.56530000000000e+00

  5.13000000000000e+05
  7.68200000000000e+04
  1.74700000000000e+04
  4.93500000000000e+03
  1.60200000000000e+03
  5.74100000000000e+02
  2.21500000000000e+02
  9.05400000000000e+01
  3.87400000000000e+01
  1.69500000000000e+01
  6.45200000000000e+00
  2.87400000000000e+00
  1.25000000000000e+00
  3.59900000000000e-01
  1.69900000000000e-01
  7.06600000000000e-02
  1.12200000000000e+03
  2.66000000000000e+02
  8.59200000000000e+01
  3.23300000000000e+01
  1.33700000000000e+01
  5.80000000000000e+00
  2.55900000000000e+00
  1.12400000000000e+00
  3.98800000000000e-01
  1.53300000000000e-01
  5.72800000000000e-02
  7.60000000000000e-01
  3.02000000000000e-01
  1.20000000000000e-01
  5.41000000000000e-01
  2.12000000000000e-01
  4.61000000000000e-01
  5.13000000000000e+05
  7.68200000000000e+04
  1.74700000000000e+04
  4.93500000000000e+03
  1.60200000000000e+03
  5.74100000000000e+02
  2.21500000000000e+02
  9.05400000000000e+01
  3.87400000000000e+01
  1.69500000000000e+01
  6.45200000000000e+00
  2.87400000000000e+00
  1.25000000000000e+00
  3.59900000000000e-01
  1.69900000000000e-01
  7.06600000000000e-02
  1.12200000000000e+03
  2.66000000000000e+02
  8.59200000000000e+01
  3.23300000000000e+01
  1.33700000000000e+01
  5.80000000000000e+00
  2.55900000000000e+00
  1.12400000000000e+00
  3.98800000000000e-01
  1.53300000000000e-01
  5.72800000000000e-02
  7.60000000000000e-01
  3.02000000000000e-01
  1.20000000000000e-01
  5.41000000000000e-01
  2.12000000000000e-01
  4.61000000000000e-01

  3.56439732356011e-01
  6.67250935594825e-01
  1.15567538346971e+00
  1.89079471139597e+00
  2.92997535092854e+00
  4.25377897422013e+00
  5.53035652706994e+00
  5.88407857713363e+00
  4.26432221020809e+00
  1.46246852660687e+00
  9.90009037975635e-02
 -5.26805361731285e-03
  1.58075269248041e-03
 -9.63604858609034e-02
 -1.80140685379119e-01
 -3.12991611081079e-01
 -5.12013980868736e-01
 -8.03092560139717e-01
 -1.18597193899895e+00
 -1.63453354628192e+00
 -1.94138718043020e+00
 -1.86039340932271e+00
 -9.21642524314205e-01
  4.93552860211257e-01
  9.09065541611183e-01
  3.40430003714153e-01
  4.89002727192571e-02
  9.13245846186842e-02
  1.58921585782757e-01
  2.59526822498432e-01
  4.08347517411705e-01
  6.02266139654795e-01
  8.36774006155092e-01
  9.98775610751853e-01
  9.86583994360998e-01
  5.01500269670235e-01
 -2.91439000418814e-01
 -6.84883633703988e-01
 -4.85138432421684e-01
  3.31166560285492e-01
  1.88605835767988e-01
  9.76765512168845e-02
  4.17977074735086e+00
  5.88843070847456e+00
  7.44317185052013e+00
  8.05001094515016e+00
  6.97099017282640e+00
  4.33955185260449e+00
  1.76355858703549e+00
  3.34437932089088e-01
 -4.09551658476811e+00
 -5.70145272051300e+00
 -7.35388974061730e+00
 -7.93663059323219e+00
 -7.17813870370958e+00
 -4.42768957771269e+00
 -2.05517820096269e+00
 -1.72105843348797e-01
  4.51735295769850e-01
  1.36731249153695e-01
  3.99432914781939e-02
  1.01820035164008e+00
  2.02498404800701e-01
  4.02695370421242e-02
  3.69528803814005e-01
  4.48962571437413e-02
  1.32316184864580e-01
  3.56439732356011e-01
  6.67250935594825e-01
  1.15567538346971e+00
  1.89079471139597e+00
  2.92997535092854e+00
  4.25377897422013e+00
  5.53035652706994e+00
  5.88407857713363e+00
  4.26432221020809e+00
  1.46246852660687e+00
  9.90009037975635e-02
 -5.26805361731285e-03
  1.58075269248041e-03
 -9.63604858609034e-02
 -1.80140685379119e-01
 -3.12991611081079e-01
 -5.12013980868736e-01
 -8.03092560139717e-01
 -1.18597193899895e+00
 -1.63453354628192e+00
 -1.94138718043020e+00
 -1.86039340932271e+00
 -9.21642524314205e-01
  4.93552860211257e-01
  9.09065541611183e-01
  3.40430003714153e-01
  4.89002727192571e-02
  9.13245846186842e-02
  1.58921585782757e-01
  2.59526822498432e-01
  4.08347517411705e-01
  6.02266139654795e-01
  8.36774006155092e-01
  9.98775610751853e-01
  9.86583994360998e-01
  5.01500269670235e-01
 -2.91439000418814e-01
 -6.84883633703988e-01
 -4.85138432421684e-01
  3.31166560285492e-01
  1.88605835767988e-01
  9.76765512168845e-02
  4.17977074735086e+00
  5.88843070847456e+00
  7.44317185052013e+00
  8.05001094515016e+00
  6.97099017282640e+00
  4.33955185260449e+00
  1.76355858703549e+00
  3.34437932089088e-01
 -4.09551658476811e+00
 -5.70145272051300e+00
 -7.35388974061730e+00
 -7.93663059323219e+00
 -7.17813870370958e+00
 -4.42768957771269e+00
 -2.05517820096269e+00
 -1.72105843348797e-01
  4.51735295769850e-01
  1.36731249153695e-01
  3.99432914781939e-02
  1.01820035164008e+00
  2.02498404800701e-01
  4.02695370421242e-02
  3.69528803814005e-01
  4.48962571437413e-02
  1.32316184864580e-01

0 0 0 0 3 3 3
0 0 13 0 26 0 
13 0

0 3 3 13 1 1 1
39 0 
1 0

0 4 4 14 1 1 1
40 0 
1 0

0 5 5 15 1 1 1
41 0 
1 0

0 6 6 16 2 6 6
42 1 50 1 
8 0

0 12 12 24 1 3 3
58 1 
1 0

0 15 15 25 1 3 3
59 1 
1 0

0 18 18 26 1 3 3
60 1 
1 0

0 21 21 27 1 5 6
61 2 
1 1

0 26 26 28 1 5 6
62 2 
1 1

0 31 31 29 1 5 6
63 2 
1 1

0 36 36 30 1 7 10
64 3 
1 1

0 43 43 31 1 7 10
65 3 
1 1

0 50 50 32 1 9 15
66 4 
1 1

1 59 59 33 3 3 3
67 0 80 0 93 0 
13 0

1 62 62 46 1 1 1
106 0 
1 0

1 63 63 47 1 1 1
107 0 
1 0

1 64 64 48 1 1 1
108 0 
1 0

1 65 65 49 2 6 6
109 1 117 1 
8 0

1 71 71 57 1 3 3
125 1 
1 0

1 74 74 58 1 3 3
126 1 
1 0

1 77 77 59 1 3 3
127 1 
1 0

1 80 80 60 1 5 6
128 2 
1 1

1 85 85 61 1 5 6
129 2 
1 1

1 90 90 62 1 5 6
130 2 
1 1

1 95 95 63 1 7 10
131 3 
1 1

1 102 102 64 1 7 10
132 3 
1 1

1 109 109 65 1 9 15
133 4 
1 1

 -------------------------------------------------------------
 Allocate 265256 B from available memory: 1048576000000 B
 There are 2197 image cells after screening.
 There are 2061 image cells for CGTO evaluation after screening.
 Real-Space grid for FFT initialized based on kinetic energy cutoff (eV) = 500.0
 Real-Space grid for FFT: (10,10,10)
 There are 9261 real-space grid points.
 There are 64 batches of real-space grid points. 
 Size of each grid batch is around 128
 Grid for AFT initialized based on kinetic energy cutoff (eV) = 500.0
 Real-Space grid for AFT: (10,10,10)
 There are 9261 real-space grid points.

 There are 5628 atom-centered grid points.

 Spacegroup symmetry group: Fd-3m
 Reducing spacegroup symmetry to symmorphic group: F -4 3 m
 Monkhorst-Pack mesh is [9,9,9]
 There are 729 k points.
kpoints in Bohr
-0.2721442719 -0.2721442719 -0.2721442719
-0.2041082040 -0.2041082040 -0.3401803399
-0.1360721360 -0.1360721360 -0.4082164079
-0.0680360680 -0.0680360680 -0.4762524759
-0.0000000000 -0.0000000000 -0.5442885439
0.0680360680 0.0680360680 -0.6123246119
0.1360721360 0.1360721360 -0.6803606798
0.2041082040 0.2041082040 -0.7483967478
0.2721442719 0.2721442719 -0.8164328158
-0.2041082040 -0.3401803399 -0.2041082040
-0.1360721360 -0.2721442719 -0.2721442719
-0.0680360680 -0.2041082040 -0.3401803399
-0.0000000000 -0.1360721360 -0.4082164079
0.0680360680 -0.0680360680 -0.4762524759
0.1360721360 -0.0000000000 -0.5442885439
0.2041082040 0.0680360680 -0.6123246119
0.2721442719 0.1360721360 -0.6803606798
0.3401803399 0.2041082040 -0.7483967478
-0.1360721360 -0.4082164079 -0.1360721360
-0.0680360680 -0.3401803399 -0.2041082040
-0.0000000000 -0.2721442719 -0.2721442719
0.0680360680 -0.2041082040 -0.3401803399
0.1360721360 -0.1360721360 -0.4082164079
0.2041082040 -0.0680360680 -0.4762524759
0.2721442719 -0.0000000000 -0.5442885439
0.3401803399 0.0680360680 -0.6123246119
0.4082164079 0.1360721360 -0.6803606798
-0.0680360680 -0.4762524759 -0.0680360680
-0.0000000000 -0.4082164079 -0.1360721360
0.0680360680 -0.3401803399 -0.2041082040
0.1360721360 -0.2721442719 -0.2721442719
0.2041082040 -0.2041082040 -0.3401803399
0.2721442719 -0.1360721360 -0.4082164079
0.3401803399 -0.0680360680 -0.4762524759
0.4082164079 0.0000000000 -0.5442885439
0.4762524759 0.0680360680 -0.6123246119
-0.0000000000 -0.5442885439 0.0000000000
0.0680360680 -0.4762524759 -0.0680360680
0.1360721360 -0.4082164079 -0.1360721360
0.2041082040 -0.3401803399 -0.2041082040
0.2721442719 -0.2721442719 -0.2721442719
0.3401803399 -0.2041082040 -0.3401803399
0.4082164079 -0.1360721360 -0.4082164079
0.4762524759 -0.0680360680 -0.4762524759
0.5442885439 0.0000000000 -0.5442885439
0.0680360680 -0.6123246119 0.0680360680
0.1360721360 -0.5442885439 -0.0000000000
0.2041082040 -0.4762524759 -0.0680360680
0.2721442719 -0.4082164079 -0.1360721360
0.3401803399 -0.3401803399 -0.2041082040
0.4082164079 -0.2721442719 -0.2721442719
0.4762524759 -0.2041082040 -0.3401803399
0.5442885439 -0.1360721360 -0.4082164079
0.6123246119 -0.0680360680 -0.4762524759
0.1360721360 -0.6803606798 0.1360721360
0.2041082040 -0.6123246119 0.0680360680
0.2721442719 -0.5442885439 0.0000000000
0.3401803399 -0.4762524759 -0.0680360680
0.4082164079 -0.4082164079 -0.1360721360
0.4762524759 -0.3401803399 -0.2041082040
0.5442885439 -0.2721442719 -0.2721442719
0.6123246119 -0.2041082040 -0.3401803399
0.6803606798 -0.1360721360 -0.4082164079
0.2041082040 -0.7483967478 0.2041082040
0.2721442719 -0.6803606798 0.1360721360
0.3401803399 -0.6123246119 0.0680360680
0.4082164079 -0.5442885439 0.0000000000
0.4762524759 -0.4762524759 -0.0680360680
0.5442885439 -0.4082164079 -0.1360721360
0.6123246119 -0.3401803399 -0.2041082040
0.6803606798 -0.2721442719 -0.2721442719
0.7483967478 -0.2041082040 -0.3401803399
0.2721442719 -0.8164328158 0.2721442719
0.3401803399 -0.7483967478 0.2041082040
0.4082164079 -0.6803606798 0.1360721360
0.4762524759 -0.6123246119 0.0680360680
0.5442885439 -0.5442885439 0.0000000000
0.6123246119 -0.4762524759 -0.0680360680
0.6803606798 -0.4082164079 -0.1360721360
0.7483967478 -0.3401803399 -0.2041082040
0.8164328158 -0.2721442719 -0.2721442719
-0.3401803399 -0.2041082040 -0.2041082040
-0.2721442719 -0.1360721360 -0.2721442719
-0.2041082040 -0.0680360680 -0.3401803399
-0.1360721360 -0.0000000000 -0.4082164079
-0.0680360680 0.0680360680 -0.4762524759
-0.0000000000 0.1360721360 -0.5442885439
0.0680360680 0.2041082040 -0.6123246119
0.1360721360 0.2721442719 -0.6803606798
0.2041082040 0.3401803399 -0.7483967478
-0.2721442719 -0.2721442719 -0.1360721360
-0.2041082040 -0.2041082040 -0.2041082040
-0.1360721360 -0.1360721360 -0.2721442719
-0.0680360680 -0.0680360680 -0.3401803399
-0.0000000000 -0.0000000000 -0.4082164079
0.0680360680 0.0680360680 -0.4762524759
0.1360721360 0.1360721360 -0.5442885439
0.2041082040 0.2041082040 -0.6123246119
0.2721442719 0.2721442719 -0.6803606798
-0.2041082040 -0.3401803399 -0.0680360680
-0.1360721360 -0.2721442719 -0.1360721360
-0.0680360680 -0.2041082040 -0.2041082040
-0.0000000000 -0.1360721360 -0.2721442719
0.0680360680 -0.0680360680 -0.3401803399
0.1360721360 -0.0000000000 -0.4082164079
0.2041082040 0.0680360680 -0.4762524759
0.2721442719 0.1360721360 -0.5442885439
0.3401803399 0.2041082040 -0.6123246119
-0.1360721360 -0.4082164079 0.0000000000
-0.0680360680 -0.3401803399 -0.0680360680
-0.0000000000 -0.2721442719 -0.1360721360
0.0680360680 -0.2041082040 -0.2041082040
0.1360721360 -0.1360721360 -0.2721442719
0.2041082040 -0.0680360680 -0.3401803399
0.2721442719 -0.0000000000 -0.4082164079
0.3401803399 0.0680360680 -0.4762524759
0.4082164079 0.1360721360 -0.5442885439
-0.0680360680 -0.4762524759 0.0680360680
-0.0000000000 -0.4082164079 0.0000000000
0.0680360680 -0.3401803399 -0.0680360680
0.1360721360 -0.2721442719 -0.1360721360
0.2041082040 -0.2041082040 -0.2041082040
0.2721442719 -0.1360721360 -0.2721442719
0.3401803399 -0.0680360680 -0.3401803399
0.4082164079 0.0000000000 -0.4082164079
0.4762524759 0.0680360680 -0.4762524759
-0.0000000000 -0.5442885439 0.1360721360
0.0680360680 -0.4762524759 0.0680360680
0.1360721360 -0.4082164079 0.0000000000
0.2041082040 -0.3401803399 -0.0680360680
0.2721442719 -0.2721442719 -0.1360721360
0.3401803399 -0.2041082040 -0.2041082040
0.4082164079 -0.1360721360 -0.2721442719
0.4762524759 -0.0680360680 -0.3401803399
0.5442885439 0.0000000000 -0.4082164079
0.0680360680 -0.6123246119 0.2041082040
0.1360721360 -0.5442885439 0.1360721360
0.2041082040 -0.4762524759 0.0680360680
0.2721442719 -0.4082164079 0.0000000000
0.3401803399 -0.3401803399 -0.0680360680
0.4082164079 -0.2721442719 -0.1360721360
0.4762524759 -0.2041082040 -0.2041082040
0.5442885439 -0.1360721360 -0.2721442719
0.6123246119 -0.0680360680 -0.3401803399
0.1360721360 -0.6803606798 0.2721442719
0.2041082040 -0.6123246119 0.2041082040
0.2721442719 -0.5442885439 0.1360721360
0.3401803399 -0.4762524759 0.0680360680
0.4082164079 -0.4082164079 0.0000000000
0.4762524759 -0.3401803399 -0.0680360680
0.5442885439 -0.2721442719 -0.1360721360
0.6123246119 -0.2041082040 -0.2041082040
0.6803606798 -0.1360721360 -0.2721442719
0.2041082040 -0.7483967478 0.3401803399
0.2721442719 -0.6803606798 0.2721442719
0.3401803399 -0.6123246119 0.2041082040
0.4082164079 -0.5442885439 0.1360721360
0.4762524759 -0.4762524759 0.0680360680
0.5442885439 -0.4082164079 0.0000000000
0.6123246119 -0.3401803399 -0.0680360680
0.6803606798 -0.2721442719 -0.1360721360
0.7483967478 -0.2041082040 -0.2041082040
-0.4082164079 -0.1360721360 -0.1360721360
-0.3401803399 -0.0680360680 -0.2041082040
-0.2721442719 -0.0000000000 -0.2721442719
-0.2041082040 0.0680360680 -0.3401803399
-0.1360721360 0.1360721360 -0.4082164079
-0.0680360680 0.2041082040 -0.4762524759
-0.0000000000 0.2721442719 -0.5442885439
0.0680360680 0.3401803399 -0.6123246119
0.1360721360 0.4082164079 -0.6803606798
-0.3401803399 -0.2041082040 -0.0680360680
-0.2721442719 -0.1360721360 -0.1360721360
-0.2041082040 -0.0680360680 -0.2041082040
-0.1360721360 -0.0000000000 -0.2721442719
-0.0680360680 0.0680360680 -0.3401803399
-0.0000000000 0.1360721360 -0.4082164079
0.0680360680 0.2041082040 -0.4762524759
0.1360721360 0.2721442719 -0.5442885439
0.2041082040 0.3401803399 -0.6123246119
-0.2721442719 -0.2721442719 0.0000000000
-0.2041082040 -0.2041082040 -0.0680360680
-0.1360721360 -0.1360721360 -0.1360721360
-0.0680360680 -0.0680360680 -0.2041082040
-0.0000000000 -0.0000000000 -0.2721442719
0.0680360680 0.0680360680 -0.3401803399
0.1360721360 0.1360721360 -0.4082164079
0.2041082040 0.2041082040 -0.4762524759
0.2721442719 0.2721442719 -0.5442885439
-0.2041082040 -0.3401803399 0.0680360680
-0.1360721360 -0.2721442719 -0.0000000000
-0.0680360680 -0.2041082040 -0.0680360680
-0.0000000000 -0.1360721360 -0.1360721360
0.0680360680 -0.0680360680 -0.2041082040
0.1360721360 -0.0000000000 -0.2721442719
0.2041082040 0.0680360680 -0.3401803399
0.2721442719 0.1360721360 -0.4082164079
0.3401803399 0.2041082040 -0.4762524759
-0.1360721360 -0.4082164079 0.1360721360
-0.0680360680 -0.3401803399 0.0680360680
-0.0000000000 -0.2721442719 0.0000000000
0.0680360680 -0.2041082040 -0.0680360680
0.1360721360 -0.1360721360 -0.1360721360
0.2041082040 -0.0680360680 -0.2041082040
0.2721442719 0.0000000000 -0.2721442719
0.3401803399 0.0680360680 -0.3401803399
0.4082164079 0.1360721360 -0.4082164079
-0.0680360680 -0.4762524759 0.2041082040
-0.0000000000 -0.4082164079 0.1360721360
0.0680360680 -0.3401803399 0.0680360680
0.1360721360 -0.2721442719 0.0000000000
0.2041082040 -0.2041082040 -0.0680360680
0.2721442719 -0.1360721360 -0.1360721360
0.3401803399 -0.0680360680 -0.2041082040
0.4082164079 0.0000000000 -0.2721442719
0.4762524759 0.0680360680 -0.3401803399
-0.0000000000 -0.5442885439 0.2721442719
0.0680360680 -0.4762524759 0.2041082040
0.1360721360 -0.4082164079 0.1360721360
0.2041082040 -0.3401803399 0.0680360680
0.2721442719 -0.2721442719 0.0000000000
0.3401803399 -0.2041082040 -0.0680360680
0.4082164079 -0.1360721360 -0.1360721360
0.4762524759 -0.0680360680 -0.2041082040
0.5442885439 0.0000000000 -0.2721442719
0.0680360680 -0.6123246119 0.3401803399
0.1360721360 -0.5442885439 0.2721442719
0.2041082040 -0.4762524759 0.2041082040
0.2721442719 -0.4082164079 0.1360721360
0.3401803399 -0.3401803399 0.0680360680
0.4082164079 -0.2721442719 0.0000000000
0.4762524759 -0.2041082040 -0.0680360680
0.5442885439 -0.1360721360 -0.1360721360
0.6123246119 -0.0680360680 -0.2041082040
0.1360721360 -0.6803606798 0.4082164079
0.2041082040 -0.6123246119 0.3401803399
0.2721442719 -0.5442885439 0.2721442719
0.3401803399 -0.4762524759 0.2041082040
0.4082164079 -0.4082164079 0.1360721360
0.4762524759 -0.3401803399 0.0680360680
0.5442885439 -0.2721442719 0.0000000000
0.6123246119 -0.2041082040 -0.0680360680
0.6803606798 -0.1360721360 -0.1360721360
-0.4762524759 -0.0680360680 -0.0680360680
-0.4082164079 -0.0000000000 -0.1360721360
-0.3401803399 0.0680360680 -0.2041082040
-0.2721442719 0.1360721360 -0.2721442719
-0.2041082040 0.2041082040 -0.3401803399
-0.1360721360 0.2721442719 -0.4082164079
-0.0680360680 0.3401803399 -0.4762524759
0.0000000000 0.4082164079 -0.5442885439
0.0680360680 0.4762524759 -0.6123246119
-0.4082164079 -0.1360721360 0.0000000000
-0.3401803399 -0.0680360680 -0.0680360680
-0.2721442719 -0.0000000000 -0.1360721360
-0.2041082040 0.0680360680 -0.2041082040
-0.1360721360 0.1360721360 -0.2721442719
-0.0680360680 0.2041082040 -0.3401803399
0.0000000000 0.2721442719 -0.4082164079
0.0680360680 0.3401803399 -0.4762524759
0.1360721360 0.4082164079 -0.5442885439
-0.3401803399 -0.2041082040 0.0680360680
-0.2721442719 -0.1360721360 -0.0000000000
-0.2041082040 -0.0680360680 -0.0680360680
-0.1360721360 -0.0000000000 -0.1360721360
-0.0680360680 0.0680360680 -0.2041082040
-0.0000000000 0.1360721360 -0.2721442719
0.0680360680 0.2041082040 -0.3401803399
0.1360721360 0.2721442719 -0.4082164079
0.2041082040 0.3401803399 -0.4762524759
-0.2721442719 -0.2721442719 0.1360721360
-0.2041082040 -0.2041082040 0.0680360680
-0.1360721360 -0.1360721360 0.0000000000
-0.0680360680 -0.0680360680 -0.0680360680
-0.0000000000 -0.0000000000 -0.1360721360
0.0680360680 0.0680360680 -0.2041082040
0.1360721360 0.1360721360 -0.2721442719
0.2041082040 0.2041082040 -0.3401803399
0.2721442719 0.2721442719 -0.4082164079
-0.2041082040 -0.3401803399 0.2041082040
-0.1360721360 -0.2721442719 0.1360721360
-0.0680360680 -0.2041082040 0.0680360680
-0.0000000000 -0.1360721360 0.0000000000
0.0680360680 -0.0680360680 -0.0680360680
0.1360721360 0.0000000000 -0.1360721360
0.2041082040 0.0680360680 -0.2041082040
0.2721442719 0.1360721360 -0.2721442719
0.3401803399 0.2041082040 -0.3401803399
-0.1360721360 -0.4082164079 0.2721442719
-0.0680360680 -0.3401803399 0.2041082040
-0.0000000000 -0.2721442719 0.1360721360
0.0680360680 -0.2041082040 0.0680360680
0.1360721360 -0.1360721360 0.0000000000
0.2041082040 -0.0680360680 -0.0680360680
0.2721442719 0.0000000000 -0.1360721360
0.3401803399 0.0680360680 -0.2041082040
0.4082164079 0.1360721360 -0.2721442719
-0.0680360680 -0.4762524759 0.3401803399
-0.0000000000 -0.4082164079 0.2721442719
0.0680360680 -0.3401803399 0.2041082040
0.1360721360 -0.2721442719 0.1360721360
0.2041082040 -0.2041082040 0.0680360680
0.2721442719 -0.1360721360 0.0000000000
0.3401803399 -0.0680360680 -0.0680360680
0.4082164079 0.0000000000 -0.1360721360
0.4762524759 0.0680360680 -0.2041082040
-0.0000000000 -0.5442885439 0.4082164079
0.0680360680 -0.4762524759 0.3401803399
0.1360721360 -0.4082164079 0.2721442719
0.2041082040 -0.3401803399 0.2041082040
0.2721442719 -0.2721442719 0.1360721360
0.3401803399 -0.2041082040 0.0680360680
0.4082164079 -0.1360721360 0.0000000000
0.4762524759 -0.0680360680 -0.0680360680
0.5442885439 0.0000000000 -0.1360721360
0.0680360680 -0.6123246119 0.4762524759
0.1360721360 -0.5442885439 0.4082164079
0.2041082040 -0.4762524759 0.3401803399
0.2721442719 -0.4082164079 0.2721442719
0.3401803399 -0.3401803399 0.2041082040
0.4082164079 -0.2721442719 0.1360721360
0.4762524759 -0.2041082040 0.0680360680
0.5442885439 -0.1360721360 0.0000000000
0.6123246119 -0.0680360680 -0.0680360680
-0.5442885439 -0.0000000000 0.0000000000
-0.4762524759 0.0680360680 -0.0680360680
-0.4082164079 0.1360721360 -0.1360721360
-0.3401803399 0.2041082040 -0.2041082040
-0.2721442719 0.2721442719 -0.2721442719
-0.2041082040 0.3401803399 -0.3401803399
-0.1360721360 0.4082164079 -0.4082164079
-0.0680360680 0.4762524759 -0.4762524759
0.0000000000 0.5442885439 -0.5442885439
-0.4762524759 -0.0680360680 0.0680360680
-0.4082164079 -0.0000000000 -0.0000000000
-0.3401803399 0.0680360680 -0.0680360680
-0.2721442719 0.1360721360 -0.1360721360
-0.2041082040 0.2041082040 -0.2041082040
-0.1360721360 0.2721442719 -0.2721442719
-0.0680360680 0.3401803399 -0.3401803399
0.0000000000 0.4082164079 -0.4082164079
0.0680360680 0.4762524759 -0.4762524759
-0.4082164079 -0.1360721360 0.1360721360
-0.3401803399 -0.0680360680 0.0680360680
-0.2721442719 -0.0000000000 0.0000000000
-0.2041082040 0.0680360680 -0.0680360680
-0.1360721360 0.1360721360 -0.1360721360
-0.0680360680 0.2041082040 -0.2041082040
0.0000000000 0.2721442719 -0.2721442719
0.0680360680 0.3401803399 -0.3401803399
0.1360721360 0.4082164079 -0.4082164079
-0.3401803399 -0.2041082040 0.2041082040
-0.2721442719 -0.1360721360 0.1360721360
-0.2041082040 -0.0680360680 0.0680360680
-0.1360721360 -0.0000000000 0.0000000000
-0.0680360680 0.0680360680 -0.0680360680
0.0000000000 0.1360721360 -0.1360721360
0.0680360680 0.2041082040 -0.2041082040
0.1360721360 0.2721442719 -0.2721442719
0.2041082040 0.3401803399 -0.3401803399
-0.2721442719 -0.2721442719 0.2721442719
-0.2041082040 -0.2041082040 0.2041082040
-0.1360721360 -0.1360721360 0.1360721360
-0.0680360680 -0.0680360680 0.0680360680
0.0000000000 0.0000000000 0.0000000000
0.0680360680 0.0680360680 -0.0680360680
0.1360721360 0.1360721360 -0.1360721360
0.2041082040 0.2041082040 -0.2041082040
0.2721442719 0.2721442719 -0.2721442719
-0.2041082040 -0.3401803399 0.3401803399
-0.1360721360 -0.2721442719 0.2721442719
-0.0680360680 -0.2041082040 0.2041082040
0.0000000000 -0.1360721360 0.1360721360
0.0680360680 -0.0680360680 0.0680360680
0.1360721360 0.0000000000 0.0000000000
0.2041082040 0.0680360680 -0.0680360680
0.2721442719 0.1360721360 -0.1360721360
0.3401803399 0.2041082040 -0.2041082040
-0.1360721360 -0.4082164079 0.4082164079
-0.0680360680 -0.3401803399 0.3401803399
0.0000000000 -0.2721442719 0.2721442719
0.0680360680 -0.2041082040 0.2041082040
0.1360721360 -0.1360721360 0.1360721360
0.2041082040 -0.0680360680 0.0680360680
0.2721442719 0.0000000000 0.0000000000
0.3401803399 0.0680360680 -0.0680360680
0.4082164079 0.1360721360 -0.1360721360
-0.0680360680 -0.4762524759 0.4762524759
-0.0000000000 -0.4082164079 0.4082164079
0.0680360680 -0.3401803399 0.3401803399
0.1360721360 -0.2721442719 0.2721442719
0.2041082040 -0.2041082040 0.2041082040
0.2721442719 -0.1360721360 0.1360721360
0.3401803399 -0.0680360680 0.0680360680
0.4082164079 0.0000000000 0.0000000000
0.4762524759 0.0680360680 -0.0680360680
0.0000000000 -0.5442885439 0.5442885439
0.0680360680 -0.4762524759 0.4762524759
0.1360721360 -0.4082164079 0.4082164079
0.2041082040 -0.3401803399 0.3401803399
0.2721442719 -0.2721442719 0.2721442719
0.3401803399 -0.2041082040 0.2041082040
0.4082164079 -0.1360721360 0.1360721360
0.4762524759 -0.0680360680 0.0680360680
0.5442885439 0.0000000000 0.0000000000
-0.6123246119 0.0680360680 0.0680360680
-0.5442885439 0.1360721360 -0.0000000000
-0.4762524759 0.2041082040 -0.0680360680
-0.4082164079 0.2721442719 -0.1360721360
-0.3401803399 0.3401803399 -0.2041082040
-0.2721442719 0.4082164079 -0.2721442719
-0.2041082040 0.4762524759 -0.3401803399
-0.1360721360 0.5442885439 -0.4082164079
-0.0680360680 0.6123246119 -0.4762524759
-0.5442885439 -0.0000000000 0.1360721360
-0.4762524759 0.0680360680 0.0680360680
-0.4082164079 0.1360721360 -0.0000000000
-0.3401803399 0.2041082040 -0.0680360680
-0.2721442719 0.2721442719 -0.1360721360
-0.2041082040 0.3401803399 -0.2041082040
-0.1360721360 0.4082164079 -0.2721442719
-0.0680360680 0.4762524759 -0.3401803399
0.0000000000 0.5442885439 -0.4082164079
-0.4762524759 -0.0680360680 0.2041082040
-0.4082164079 -0.0000000000 0.1360721360
-0.3401803399 0.0680360680 0.0680360680
-0.2721442719 0.1360721360 0.0000000000
-0.2041082040 0.2041082040 -0.0680360680
-0.1360721360 0.2721442719 -0.1360721360
-0.0680360680 0.3401803399 -0.2041082040
0.0000000000 0.4082164079 -0.2721442719
0.0680360680 0.4762524759 -0.3401803399
-0.4082164079 -0.1360721360 0.2721442719
-0.3401803399 -0.0680360680 0.2041082040
-0.2721442719 0.0000000000 0.1360721360
-0.2041082040 0.0680360680 0.0680360680
-0.1360721360 0.1360721360 0.0000000000
-0.0680360680 0.2041082040 -0.0680360680
0.0000000000 0.2721442719 -0.1360721360
0.0680360680 0.3401803399 -0.2041082040
0.1360721360 0.4082164079 -0.2721442719
-0.3401803399 -0.2041082040 0.3401803399
-0.2721442719 -0.1360721360 0.2721442719
-0.2041082040 -0.0680360680 0.2041082040
-0.1360721360 0.0000000000 0.1360721360
-0.0680360680 0.0680360680 0.0680360680
0.0000000000 0.1360721360 0.0000000000
0.0680360680 0.2041082040 -0.0680360680
0.1360721360 0.2721442719 -0.1360721360
0.2041082040 0.3401803399 -0.2041082040
-0.2721442719 -0.2721442719 0.4082164079
-0.2041082040 -0.2041082040 0.3401803399
-0.1360721360 -0.1360721360 0.2721442719
-0.0680360680 -0.0680360680 0.2041082040
0.0000000000 0.0000000000 0.1360721360
0.0680360680 0.0680360680 0.0680360680
0.1360721360 0.1360721360 0.0000000000
0.2041082040 0.2041082040 -0.0680360680
0.2721442719 0.2721442719 -0.1360721360
-0.2041082040 -0.3401803399 0.4762524759
-0.1360721360 -0.2721442719 0.4082164079
-0.0680360680 -0.2041082040 0.3401803399
0.0000000000 -0.1360721360 0.2721442719
0.0680360680 -0.0680360680 0.2041082040
0.1360721360 0.0000000000 0.1360721360
0.2041082040 0.0680360680 0.0680360680
0.2721442719 0.1360721360 0.0000000000
0.3401803399 0.2041082040 -0.0680360680
-0.1360721360 -0.4082164079 0.5442885439
-0.0680360680 -0.3401803399 0.4762524759
0.0000000000 -0.2721442719 0.4082164079
0.0680360680 -0.2041082040 0.3401803399
0.1360721360 -0.1360721360 0.2721442719
0.2041082040 -0.0680360680 0.2041082040
0.2721442719 0.0000000000 0.1360721360
0.3401803399 0.0680360680 0.0680360680
0.4082164079 0.1360721360 0.0000000000
-0.0680360680 -0.4762524759 0.6123246119
0.0000000000 -0.4082164079 0.5442885439
0.0680360680 -0.3401803399 0.4762524759
0.1360721360 -0.2721442719 0.4082164079
0.2041082040 -0.2041082040 0.3401803399
0.2721442719 -0.1360721360 0.2721442719
0.3401803399 -0.0680360680 0.2041082040
0.4082164079 0.0000000000 0.1360721360
0.4762524759 0.0680360680 0.0680360680
-0.6803606798 0.1360721360 0.1360721360
-0.6123246119 0.2041082040 0.0680360680
-0.5442885439 0.2721442719 0.0000000000
-0.4762524759 0.3401803399 -0.0680360680
-0.4082164079 0.4082164079 -0.1360721360
-0.3401803399 0.4762524759 -0.2041082040
-0.2721442719 0.5442885439 -0.2721442719
-0.2041082040 0.6123246119 -0.3401803399
-0.1360721360 0.6803606798 -0.4082164079
-0.6123246119 0.0680360680 0.2041082040
-0.5442885439 0.1360721360 0.1360721360
-0.4762524759 0.2041082040 0.0680360680
-0.4082164079 0.2721442719 -0.0000000000
-0.3401803399 0.3401803399 -0.0680360680
-0.2721442719 0.4082164079 -0.1360721360
-0.2041082040 0.4762524759 -0.2041082040
-0.1360721360 0.5442885439 -0.2721442719
-0.0680360680 0.6123246119 -0.3401803399
-0.5442885439 0.0000000000 0.2721442719
-0.4762524759 0.0680360680 0.2041082040
-0.4082164079 0.1360721360 0.1360721360
-0.3401803399 0.2041082040 0.0680360680
-0.2721442719 0.2721442719 0.0000000000
-0.2041082040 0.3401803399 -0.0680360680
-0.1360721360 0.4082164079 -0.1360721360
-0.0680360680 0.4762524759 -0.2041082040
0.0000000000 0.5442885439 -0.2721442719
-0.4762524759 -0.0680360680 0.3401803399
-0.4082164079 -0.0000000000 0.2721442719
-0.3401803399 0.0680360680 0.2041082040
-0.2721442719 0.1360721360 0.1360721360
-0.2041082040 0.2041082040 0.0680360680
-0.1360721360 0.2721442719 0.0000000000
-0.0680360680 0.3401803399 -0.0680360680
0.0000000000 0.4082164079 -0.1360721360
0.0680360680 0.4762524759 -0.2041082040
-0.4082164079 -0.1360721360 0.4082164079
-0.3401803399 -0.0680360680 0.3401803399
-0.2721442719 0.0000000000 0.2721442719
-0.2041082040 0.0680360680 0.2041082040
-0.1360721360 0.1360721360 0.1360721360
-0.0680360680 0.2041082040 0.0680360680
0.0000000000 0.2721442719 0.0000000000
0.0680360680 0.3401803399 -0.0680360680
0.1360721360 0.4082164079 -0.1360721360
-0.3401803399 -0.2041082040 0.4762524759
-0.2721442719 -0.1360721360 0.4082164079
-0.2041082040 -0.0680360680 0.3401803399
-0.1360721360 0.0000000000 0.2721442719
-0.0680360680 0.0680360680 0.2041082040
0.0000000000 0.1360721360 0.1360721360
0.0680360680 0.2041082040 0.0680360680
0.1360721360 0.2721442719 0.0000000000
0.2041082040 0.3401803399 -0.0680360680
-0.2721442719 -0.2721442719 0.5442885439
-0.2041082040 -0.2041082040 0.4762524759
-0.1360721360 -0.1360721360 0.4082164079
-0.0680360680 -0.0680360680 0.3401803399
0.0000000000 0.0000000000 0.2721442719
0.0680360680 0.0680360680 0.2041082040
0.1360721360 0.1360721360 0.1360721360
0.2041082040 0.2041082040 0.0680360680
0.2721442719 0.2721442719 0.0000000000
-0.2041082040 -0.3401803399 0.6123246119
-0.1360721360 -0.2721442719 0.5442885439
-0.0680360680 -0.2041082040 0.4762524759
0.0000000000 -0.1360721360 0.4082164079
0.0680360680 -0.0680360680 0.3401803399
0.1360721360 0.0000000000 0.2721442719
0.2041082040 0.0680360680 0.2041082040
0.2721442719 0.1360721360 0.1360721360
0.3401803399 0.2041082040 0.0680360680
-0.1360721360 -0.4082164079 0.6803606798
-0.0680360680 -0.3401803399 0.6123246119
0.0000000000 -0.2721442719 0.5442885439
0.0680360680 -0.2041082040 0.4762524759
0.1360721360 -0.1360721360 0.4082164079
0.2041082040 -0.0680360680 0.3401803399
0.2721442719 0.0000000000 0.2721442719
0.3401803399 0.0680360680 0.2041082040
0.4082164079 0.1360721360 0.1360721360
-0.7483967478 0.2041082040 0.2041082040
-0.6803606798 0.2721442719 0.1360721360
-0.6123246119 0.3401803399 0.0680360680
-0.5442885439 0.4082164079 -0.0000000000
-0.4762524759 0.4762524759 -0.0680360680
-0.4082164079 0.5442885439 -0.1360721360
-0.3401803399 0.6123246119 -0.2041082040
-0.2721442719 0.6803606798 -0.2721442719
-0.2041082040 0.7483967478 -0.3401803399
-0.6803606798 0.1360721360 0.2721442719
-0.6123246119 0.2041082040 0.2041082040
-0.5442885439 0.2721442719 0.1360721360
-0.4762524759 0.3401803399 0.0680360680
-0.4082164079 0.4082164079 -0.0000000000
-0.3401803399 0.4762524759 -0.0680360680
-0.2721442719 0.5442885439 -0.1360721360
-0.2041082040 0.6123246119 -0.2041082040
-0.1360721360 0.6803606798 -0.2721442719
-0.6123246119 0.0680360680 0.3401803399
-0.5442885439 0.1360721360 0.2721442719
-0.4762524759 0.2041082040 0.2041082040
-0.4082164079 0.2721442719 0.1360721360
-0.3401803399 0.3401803399 0.0680360680
-0.2721442719 0.4082164079 -0.0000000000
-0.2041082040 0.4762524759 -0.0680360680
-0.1360721360 0.5442885439 -0.1360721360
-0.0680360680 0.6123246119 -0.2041082040
-0.5442885439 0.0000000000 0.4082164079
-0.4762524759 0.0680360680 0.3401803399
-0.4082164079 0.1360721360 0.2721442719
-0.3401803399 0.2041082040 0.2041082040
-0.2721442719 0.2721442719 0.1360721360
-0.2041082040 0.3401803399 0.0680360680
-0.1360721360 0.4082164079 -0.0000000000
-0.0680360680 0.4762524759 -0.0680360680
0.0000000000 0.5442885439 -0.1360721360
-0.4762524759 -0.0680360680 0.4762524759
-0.4082164079 0.0000000000 0.4082164079
-0.3401803399 0.0680360680 0.3401803399
-0.2721442719 0.1360721360 0.2721442719
-0.2041082040 0.2041082040 0.2041082040
-0.1360721360 0.2721442719 0.1360721360
-0.0680360680 0.3401803399 0.0680360680
0.0000000000 0.4082164079 0.0000000000
0.0680360680 0.4762524759 -0.0680360680
-0.4082164079 -0.1360721360 0.5442885439
-0.3401803399 -0.0680360680 0.4762524759
-0.2721442719 0.0000000000 0.4082164079
-0.2041082040 0.0680360680 0.3401803399
-0.1360721360 0.1360721360 0.2721442719
-0.0680360680 0.2041082040 0.2041082040
0.0000000000 0.2721442719 0.1360721360
0.0680360680 0.3401803399 0.0680360680
0.1360721360 0.4082164079 0.0000000000
-0.3401803399 -0.2041082040 0.6123246119
-0.2721442719 -0.1360721360 0.5442885439
-0.2041082040 -0.0680360680 0.4762524759
-0.1360721360 0.0000000000 0.4082164079
-0.0680360680 0.0680360680 0.3401803399
0.0000000000 0.1360721360 0.2721442719
0.0680360680 0.2041082040 0.2041082040
0.1360721360 0.2721442719 0.1360721360
0.2041082040 0.3401803399 0.0680360680
-0.2721442719 -0.2721442719 0.6803606798
-0.2041082040 -0.2041082040 0.6123246119
-0.1360721360 -0.1360721360 0.5442885439
-0.0680360680 -0.0680360680 0.4762524759
0.0000000000 0.0000000000 0.4082164079
0.0680360680 0.0680360680 0.3401803399
0.1360721360 0.1360721360 0.2721442719
0.2041082040 0.2041082040 0.2041082040
0.2721442719 0.2721442719 0.1360721360
-0.2041082040 -0.3401803399 0.7483967478
-0.1360721360 -0.2721442719 0.6803606798
-0.0680360680 -0.2041082040 0.6123246119
0.0000000000 -0.1360721360 0.5442885439
0.0680360680 -0.0680360680 0.4762524759
0.1360721360 0.0000000000 0.4082164079
0.2041082040 0.0680360680 0.3401803399
0.2721442719 0.1360721360 0.2721442719
0.3401803399 0.2041082040 0.2041082040
-0.8164328158 0.2721442719 0.2721442719
-0.7483967478 0.3401803399 0.2041082040
-0.6803606798 0.4082164079 0.1360721360
-0.6123246119 0.4762524759 0.0680360680
-0.5442885439 0.5442885439 0.0000000000
-0.4762524759 0.6123246119 -0.0680360680
-0.4082164079 0.6803606798 -0.1360721360
-0.3401803399 0.7483967478 -0.2041082040
-0.2721442719 0.8164328158 -0.2721442719
-0.7483967478 0.2041082040 0.3401803399
-0.6803606798 0.2721442719 0.2721442719
-0.6123246119 0.3401803399 0.2041082040
-0.5442885439 0.4082164079 0.1360721360
-0.4762524759 0.4762524759 0.0680360680
-0.4082164079 0.5442885439 -0.0000000000
-0.3401803399 0.6123246119 -0.0680360680
-0.2721442719 0.6803606798 -0.1360721360
-0.2041082040 0.7483967478 -0.2041082040
-0.6803606798 0.1360721360 0.4082164079
-0.6123246119 0.2041082040 0.3401803399
-0.5442885439 0.2721442719 0.2721442719
-0.4762524759 0.3401803399 0.2041082040
-0.4082164079 0.4082164079 0.1360721360
-0.3401803399 0.4762524759 0.0680360680
-0.2721442719 0.5442885439 0.0000000000
-0.2041082040 0.6123246119 -0.0680360680
-0.1360721360 0.6803606798 -0.1360721360
-0.6123246119 0.0680360680 0.4762524759
-0.5442885439 0.1360721360 0.4082164079
-0.4762524759 0.2041082040 0.3401803399
-0.4082164079 0.2721442719 0.2721442719
-0.3401803399 0.3401803399 0.2041082040
-0.2721442719 0.4082164079 0.1360721360
-0.2041082040 0.4762524759 0.0680360680
-0.1360721360 0.5442885439 0.0000000000
-0.0680360680 0.6123246119 -0.0680360680
-0.5442885439 0.0000000000 0.5442885439
-0.4762524759 0.0680360680 0.4762524759
-0.4082164079 0.1360721360 0.4082164079
-0.3401803399 0.2041082040 0.3401803399
-0.2721442719 0.2721442719 0.2721442719
-0.2041082040 0.3401803399 0.2041082040
-0.1360721360 0.4082164079 0.1360721360
-0.0680360680 0.4762524759 0.0680360680
0.0000000000 0.5442885439 0.0000000000
-0.4762524759 -0.0680360680 0.6123246119
-0.4082164079 0.0000000000 0.5442885439
-0.3401803399 0.0680360680 0.4762524759
-0.2721442719 0.1360721360 0.4082164079
-0.2041082040 0.2041082040 0.3401803399
-0.1360721360 0.2721442719 0.2721442719
-0.0680360680 0.3401803399 0.2041082040
0.0000000000 0.4082164079 0.1360721360
0.0680360680 0.4762524759 0.0680360680
-0.4082164079 -0.1360721360 0.6803606798
-0.3401803399 -0.0680360680 0.6123246119
-0.2721442719 0.0000000000 0.5442885439
-0.2041082040 0.0680360680 0.4762524759
-0.1360721360 0.1360721360 0.4082164079
-0.0680360680 0.2041082040 0.3401803399
0.0000000000 0.2721442719 0.2721442719
0.0680360680 0.3401803399 0.2041082040
0.1360721360 0.4082164079 0.1360721360
-0.3401803399 -0.2041082040 0.7483967478
-0.2721442719 -0.1360721360 0.6803606798
-0.2041082040 -0.0680360680 0.6123246119
-0.1360721360 0.0000000000 0.5442885439
-0.0680360680 0.0680360680 0.4762524759
0.0000000000 0.1360721360 0.4082164079
0.0680360680 0.2041082040 0.3401803399
0.1360721360 0.2721442719 0.2721442719
0.2041082040 0.3401803399 0.2041082040
-0.2721442719 -0.2721442719 0.8164328158
-0.2041082040 -0.2041082040 0.7483967478
-0.1360721360 -0.1360721360 0.6803606798
-0.0680360680 -0.0680360680 0.6123246119
0.0000000000 0.0000000000 0.5442885439
0.0680360680 0.0680360680 0.4762524759
0.1360721360 0.1360721360 0.4082164079
0.2041082040 0.2041082040 0.3401803399
0.2721442719 0.2721442719 0.2721442719
 There are 14 alpha and 14 beta electrons
 Start computing overlap matrix
 Allocate 162409536 B from available memory: 1048575734752 B
 Time for computing overlap matrix: 3.8020000000 s
 ====== Initialize compute kernels for all-electron RI-J (kpts) ====== 
 ========================================================== 
 Range-separated parameter omega        = 0.900000000000000022
 Threshold for 1e2c shellpair           = 0.000000000000010000
 Threshold for 2e2c SR integral         = 0.000000000000000001
 Threshold for 2e3c SR integral         = 0.000000000100000000
 Threshold for AFT G-space screening is = 0.000000000001000000
 The exponent cutoff for C/D classification (omega2 / 2) is  = 0.405000000000000027
 ========================================================== 
 === Post process the basis set for RI calculation (exp_cutoff = 0.405000000000000027 ) === 
nshells_b1 before uncontraction = 28
nshells_b1 after uncontraction = 28
nshells_baux before uncontraction = 80
nshells_baux after uncontraction = 80
===============================================
nbsf total   = 118
nbsf compact = 60
nbsf diffuse = 58
naux total   = 296
naux compact = 296
naux diffuse = 0
nshells_bnuc = 2

 Number of unique atoms is 1
 Unique atom #0 (si) has 5 shells.

Shell 0 to 4 belongs to atom si
Shell 5 to 9 belongs to atom si

 Number of unique atoms is 1
 Unique atom #0 (si) has 9 shells.

Shell 0 to 8 belongs to atom si
Shell 9 to 17 belongs to atom si

 Number of unique atom is 1
 Unique atom #0 (si) has 40 auxiliary shells.

Auxiliary Shell 0 to 39 belongs to atom si
Auxiliary Shell 40 to 79 belongs to atom si

================= Automatically determine grid size for reciprocal space summation =================
 Range-separated parameter = 0.90000000000000 and G-space screening threshold = 0.00000000000100
The number of grid points along each axis dimension is (10, 10, 10)
Total number of grid points = 9261

Use nonortho shellpair for diffuse density
======== Initializing relevant kernel for RIJ (DD type) ========
There are 171 shellpairs in the reference unit cell
There are 3661 images and we expect to have 626031 in total
There are 23126 shellpairs in the lattice sum after screening
======== Initializing relevant kernel for RIJ (CD type) ========
There are 180 shellpairs in the reference unit cell
There are 2395 images and we expect to have 431100 in total
There are 12134 shellpairs in the lattice sum after screening
****** AFT -> SR ******
Maximum bra distance cutoff is 23.000000000000
Maximum bra ket distance cutoff is 20.611302005944
Maximum bra ket screening distance is 19.000000000000
Number of auxiliary image is 551
There are 180 shellpairs in the reference unit cell
There are 551 images and we expect to have 99180 in total
There are 12134 shellpairs in the lattice sum after screening
Available memory per thread for 2e3c calculation is 32.762916413000Gb
Finish initializing 2e3c SR with the lattice sum!
=================================================
======== Initializing relevant kernel for RIJ (CC type) ========
There are 55 shellpairs in the reference unit cell
There are 695 images and we expect to have 38225 in total
There are 694 shellpairs in the lattice sum after screening
****** AFT -> SR ******
Maximum bra distance cutoff is 11.000000000000
Maximum bra ket distance cutoff is 21.062500000000
Maximum bra ket screening distance is 18.718750000000
Number of auxiliary image is 455
There are 55 shellpairs in the reference unit cell
There are 117 images and we expect to have 6435 in total
There are 694 shellpairs in the lattice sum after screening
Available memory per thread for 2e3c calculation is 32.762916413000Gb
Finish initializing 2e3c SR with the lattice sum!
=================================================
======== Initializing the SR component for Vnuc (CD type) ========
Maximum bra distance cutoff is 23.000000000000
Maximum bra ket distance cutoff is 11.920357219976
Maximum bra ket screening distance is 9.960251940080
Number of auxiliary image is 551
There are 180 shellpairs in the reference unit cell
There are 551 images and we expect to have 99180 in total
There are 12134 shellpairs in the lattice sum after screening
Available memory per thread for 2e3c calculation is 32.762916413000Gb
Finish initializing 2e3c SR with the lattice sum!
=================================================
======== Initialize the SR component for Vnuc (CC type) ========
Maximum bra distance cutoff is 11.000000000000
Maximum bra ket distance cutoff is 13.059451665625
Maximum bra ket screening distance is 9.261023449952
Number of auxiliary image is 213
There are 55 shellpairs in the reference unit cell
There are 117 images and we expect to have 6435 in total
There are 694 shellpairs in the lattice sum after screening
Available memory per thread for 2e3c calculation is 32.762916413000Gb
Finish initializing 2e3c SR with the lattice sum!
=================================================
 Aufbau occupation scheme, occupation determined by eigenvalue
 == 0-th k-point nmo = 114 (-0.27214,-0.27214,-0.27214) ==
 == 1-th k-point nmo = 114 (-0.20411,-0.20411,-0.34018) ==
 == 2-th k-point nmo = 114 (-0.13607,-0.13607,-0.40822) ==
 == 3-th k-point nmo = 114 (-0.06804,-0.06804,-0.47625) ==
 == 4-th k-point nmo = 114 (-0.00000,-0.00000,-0.54429) ==
 == 5-th k-point nmo = 114 (0.06804,0.06804,-0.61232) ==
 == 6-th k-point nmo = 114 (0.13607,0.13607,-0.68036) ==
 == 7-th k-point nmo = 114 (0.20411,0.20411,-0.74840) ==
 == 8-th k-point nmo = 114 (0.27214,0.27214,-0.81643) ==
 == 9-th k-point nmo = 114 (-0.20411,-0.34018,-0.20411) ==
 == 10-th k-point nmo = 114 (-0.13607,-0.27214,-0.27214) ==
 == 11-th k-point nmo = 114 (-0.06804,-0.20411,-0.34018) ==
 == 12-th k-point nmo = 114 (-0.00000,-0.13607,-0.40822) ==
 == 13-th k-point nmo = 114 (0.06804,-0.06804,-0.47625) ==
 == 14-th k-point nmo = 114 (0.13607,-0.00000,-0.54429) ==
 == 15-th k-point nmo = 114 (0.20411,0.06804,-0.61232) ==
 == 16-th k-point nmo = 114 (0.27214,0.13607,-0.68036) ==
 == 17-th k-point nmo = 114 (0.34018,0.20411,-0.74840) ==
 == 18-th k-point nmo = 114 (-0.13607,-0.40822,-0.13607) ==
 == 19-th k-point nmo = 114 (-0.06804,-0.34018,-0.20411) ==
 == 20-th k-point nmo = 114 (-0.00000,-0.27214,-0.27214) ==
 == 21-th k-point nmo = 114 (0.06804,-0.20411,-0.34018) ==
 == 22-th k-point nmo = 114 (0.13607,-0.13607,-0.40822) ==
 == 23-th k-point nmo = 114 (0.20411,-0.06804,-0.47625) ==
 == 24-th k-point nmo = 114 (0.27214,-0.00000,-0.54429) ==
 == 25-th k-point nmo = 114 (0.34018,0.06804,-0.61232) ==
 == 26-th k-point nmo = 114 (0.40822,0.13607,-0.68036) ==
 == 27-th k-point nmo = 114 (-0.06804,-0.47625,-0.06804) ==
 == 28-th k-point nmo = 114 (-0.00000,-0.40822,-0.13607) ==
 == 29-th k-point nmo = 114 (0.06804,-0.34018,-0.20411) ==
 == 30-th k-point nmo = 114 (0.13607,-0.27214,-0.27214) ==
 == 31-th k-point nmo = 114 (0.20411,-0.20411,-0.34018) ==
 == 32-th k-point nmo = 114 (0.27214,-0.13607,-0.40822) ==
 == 33-th k-point nmo = 114 (0.34018,-0.06804,-0.47625) ==
 == 34-th k-point nmo = 114 (0.40822,0.00000,-0.54429) ==
 == 35-th k-point nmo = 114 (0.47625,0.06804,-0.61232) ==
 == 36-th k-point nmo = 114 (-0.00000,-0.54429,0.00000) ==
 == 37-th k-point nmo = 114 (0.06804,-0.47625,-0.06804) ==
 == 38-th k-point nmo = 114 (0.13607,-0.40822,-0.13607) ==
 == 39-th k-point nmo = 114 (0.20411,-0.34018,-0.20411) ==
 == 40-th k-point nmo = 114 (0.27214,-0.27214,-0.27214) ==
 == 41-th k-point nmo = 114 (0.34018,-0.20411,-0.34018) ==
 == 42-th k-point nmo = 114 (0.40822,-0.13607,-0.40822) ==
 == 43-th k-point nmo = 114 (0.47625,-0.06804,-0.47625) ==
 == 44-th k-point nmo = 114 (0.54429,0.00000,-0.54429) ==
 == 45-th k-point nmo = 114 (0.06804,-0.61232,0.06804) ==
 == 46-th k-point nmo = 114 (0.13607,-0.54429,-0.00000) ==
 == 47-th k-point nmo = 114 (0.20411,-0.47625,-0.06804) ==
 == 48-th k-point nmo = 114 (0.27214,-0.40822,-0.13607) ==
 == 49-th k-point nmo = 114 (0.34018,-0.34018,-0.20411) ==
 == 50-th k-point nmo = 114 (0.40822,-0.27214,-0.27214) ==
 == 51-th k-point nmo = 114 (0.47625,-0.20411,-0.34018) ==
 == 52-th k-point nmo = 114 (0.54429,-0.13607,-0.40822) ==
 == 53-th k-point nmo = 114 (0.61232,-0.06804,-0.47625) ==
 == 54-th k-point nmo = 114 (0.13607,-0.68036,0.13607) ==
 == 55-th k-point nmo = 114 (0.20411,-0.61232,0.06804) ==
 == 56-th k-point nmo = 114 (0.27214,-0.54429,0.00000) ==
 == 57-th k-point nmo = 114 (0.34018,-0.47625,-0.06804) ==
 == 58-th k-point nmo = 114 (0.40822,-0.40822,-0.13607) ==
 == 59-th k-point nmo = 114 (0.47625,-0.34018,-0.20411) ==
 == 60-th k-point nmo = 114 (0.54429,-0.27214,-0.27214) ==
 == 61-th k-point nmo = 114 (0.61232,-0.20411,-0.34018) ==
 == 62-th k-point nmo = 114 (0.68036,-0.13607,-0.40822) ==
 == 63-th k-point nmo = 114 (0.20411,-0.74840,0.20411) ==
 == 64-th k-point nmo = 114 (0.27214,-0.68036,0.13607) ==
 == 65-th k-point nmo = 114 (0.34018,-0.61232,0.06804) ==
 == 66-th k-point nmo = 114 (0.40822,-0.54429,0.00000) ==
 == 67-th k-point nmo = 114 (0.47625,-0.47625,-0.06804) ==
 == 68-th k-point nmo = 114 (0.54429,-0.40822,-0.13607) ==
 == 69-th k-point nmo = 114 (0.61232,-0.34018,-0.20411) ==
 == 70-th k-point nmo = 114 (0.68036,-0.27214,-0.27214) ==
 == 71-th k-point nmo = 114 (0.74840,-0.20411,-0.34018) ==
 == 72-th k-point nmo = 114 (0.27214,-0.81643,0.27214) ==
 == 73-th k-point nmo = 114 (0.34018,-0.74840,0.20411) ==
 == 74-th k-point nmo = 114 (0.40822,-0.68036,0.13607) ==
 == 75-th k-point nmo = 114 (0.47625,-0.61232,0.06804) ==
 == 76-th k-point nmo = 114 (0.54429,-0.54429,0.00000) ==
 == 77-th k-point nmo = 114 (0.61232,-0.47625,-0.06804) ==
 == 78-th k-point nmo = 114 (0.68036,-0.40822,-0.13607) ==
 == 79-th k-point nmo = 114 (0.74840,-0.34018,-0.20411) ==
 == 80-th k-point nmo = 114 (0.81643,-0.27214,-0.27214) ==
 == 81-th k-point nmo = 114 (-0.34018,-0.20411,-0.20411) ==
 == 82-th k-point nmo = 114 (-0.27214,-0.13607,-0.27214) ==
 == 83-th k-point nmo = 114 (-0.20411,-0.06804,-0.34018) ==
 == 84-th k-point nmo = 114 (-0.13607,-0.00000,-0.40822) ==
 == 85-th k-point nmo = 114 (-0.06804,0.06804,-0.47625) ==
 == 86-th k-point nmo = 114 (-0.00000,0.13607,-0.54429) ==
 == 87-th k-point nmo = 114 (0.06804,0.20411,-0.61232) ==
 == 88-th k-point nmo = 114 (0.13607,0.27214,-0.68036) ==
 == 89-th k-point nmo = 114 (0.20411,0.34018,-0.74840) ==
 == 90-th k-point nmo = 114 (-0.27214,-0.27214,-0.13607) ==
 == 91-th k-point nmo = 114 (-0.20411,-0.20411,-0.20411) ==
 == 92-th k-point nmo = 114 (-0.13607,-0.13607,-0.27214) ==
 == 93-th k-point nmo = 114 (-0.06804,-0.06804,-0.34018) ==
 == 94-th k-point nmo = 114 (-0.00000,-0.00000,-0.40822) ==
 == 95-th k-point nmo = 114 (0.06804,0.06804,-0.47625) ==
 == 96-th k-point nmo = 114 (0.13607,0.13607,-0.54429) ==
 == 97-th k-point nmo = 114 (0.20411,0.20411,-0.61232) ==
 == 98-th k-point nmo = 114 (0.27214,0.27214,-0.68036) ==
 == 99-th k-point nmo = 114 (-0.20411,-0.34018,-0.06804) ==
 == 100-th k-point nmo = 114 (-0.13607,-0.27214,-0.13607) ==
 == 101-th k-point nmo = 114 (-0.06804,-0.20411,-0.20411) ==
 == 102-th k-point nmo = 114 (-0.00000,-0.13607,-0.27214) ==
 == 103-th k-point nmo = 114 (0.06804,-0.06804,-0.34018) ==
 == 104-th k-point nmo = 114 (0.13607,-0.00000,-0.40822) ==
 == 105-th k-point nmo = 114 (0.20411,0.06804,-0.47625) ==
 == 106-th k-point nmo = 114 (0.27214,0.13607,-0.54429) ==
 == 107-th k-point nmo = 114 (0.34018,0.20411,-0.61232) ==
 == 108-th k-point nmo = 114 (-0.13607,-0.40822,0.00000) ==
 == 109-th k-point nmo = 114 (-0.06804,-0.34018,-0.06804) ==
 == 110-th k-point nmo = 114 (-0.00000,-0.27214,-0.13607) ==
 == 111-th k-point nmo = 114 (0.06804,-0.20411,-0.20411) ==
 == 112-th k-point nmo = 114 (0.13607,-0.13607,-0.27214) ==
 == 113-th k-point nmo = 114 (0.20411,-0.06804,-0.34018) ==
 == 114-th k-point nmo = 114 (0.27214,-0.00000,-0.40822) ==
 == 115-th k-point nmo = 114 (0.34018,0.06804,-0.47625) ==
 == 116-th k-point nmo = 114 (0.40822,0.13607,-0.54429) ==
 == 117-th k-point nmo = 114 (-0.06804,-0.47625,0.06804) ==
 == 118-th k-point nmo = 114 (-0.00000,-0.40822,0.00000) ==
 == 119-th k-point nmo = 114 (0.06804,-0.34018,-0.06804) ==
 == 120-th k-point nmo = 114 (0.13607,-0.27214,-0.13607) ==
 == 121-th k-point nmo = 114 (0.20411,-0.20411,-0.20411) ==
 == 122-th k-point nmo = 114 (0.27214,-0.13607,-0.27214) ==
 == 123-th k-point nmo = 114 (0.34018,-0.06804,-0.34018) ==
 == 124-th k-point nmo = 114 (0.40822,0.00000,-0.40822) ==
 == 125-th k-point nmo = 114 (0.47625,0.06804,-0.47625) ==
 == 126-th k-point nmo = 114 (-0.00000,-0.54429,0.13607) ==
 == 127-th k-point nmo = 114 (0.06804,-0.47625,0.06804) ==
 == 128-th k-point nmo = 114 (0.13607,-0.40822,0.00000) ==
 == 129-th k-point nmo = 114 (0.20411,-0.34018,-0.06804) ==
 == 130-th k-point nmo = 114 (0.27214,-0.27214,-0.13607) ==
 == 131-th k-point nmo = 114 (0.34018,-0.20411,-0.20411) ==
 == 132-th k-point nmo = 114 (0.40822,-0.13607,-0.27214) ==
 == 133-th k-point nmo = 114 (0.47625,-0.06804,-0.34018) ==
 == 134-th k-point nmo = 114 (0.54429,0.00000,-0.40822) ==
 == 135-th k-point nmo = 114 (0.06804,-0.61232,0.20411) ==
 == 136-th k-point nmo = 114 (0.13607,-0.54429,0.13607) ==
 == 137-th k-point nmo = 114 (0.20411,-0.47625,0.06804) ==
 == 138-th k-point nmo = 114 (0.27214,-0.40822,0.00000) ==
 == 139-th k-point nmo = 114 (0.34018,-0.34018,-0.06804) ==
 == 140-th k-point nmo = 114 (0.40822,-0.27214,-0.13607) ==
 == 141-th k-point nmo = 114 (0.47625,-0.20411,-0.20411) ==
 == 142-th k-point nmo = 114 (0.54429,-0.13607,-0.27214) ==
 == 143-th k-point nmo = 114 (0.61232,-0.06804,-0.34018) ==
 == 144-th k-point nmo = 114 (0.13607,-0.68036,0.27214) ==
 == 145-th k-point nmo = 114 (0.20411,-0.61232,0.20411) ==
 == 146-th k-point nmo = 114 (0.27214,-0.54429,0.13607) ==
 == 147-th k-point nmo = 114 (0.34018,-0.47625,0.06804) ==
 == 148-th k-point nmo = 114 (0.40822,-0.40822,0.00000) ==
 == 149-th k-point nmo = 114 (0.47625,-0.34018,-0.06804) ==
 == 150-th k-point nmo = 114 (0.54429,-0.27214,-0.13607) ==
 == 151-th k-point nmo = 114 (0.61232,-0.20411,-0.20411) ==
 == 152-th k-point nmo = 114 (0.68036,-0.13607,-0.27214) ==
 == 153-th k-point nmo = 114 (0.20411,-0.74840,0.34018) ==
 == 154-th k-point nmo = 114 (0.27214,-0.68036,0.27214) ==
 == 155-th k-point nmo = 114 (0.34018,-0.61232,0.20411) ==
 == 156-th k-point nmo = 114 (0.40822,-0.54429,0.13607) ==
 == 157-th k-point nmo = 114 (0.47625,-0.47625,0.06804) ==
 == 158-th k-point nmo = 114 (0.54429,-0.40822,0.00000) ==
 == 159-th k-point nmo = 114 (0.61232,-0.34018,-0.06804) ==
 == 160-th k-point nmo = 114 (0.68036,-0.27214,-0.13607) ==
 == 161-th k-point nmo = 114 (0.74840,-0.20411,-0.20411) ==
 == 162-th k-point nmo = 114 (-0.40822,-0.13607,-0.13607) ==
 == 163-th k-point nmo = 114 (-0.34018,-0.06804,-0.20411) ==
 == 164-th k-point nmo = 114 (-0.27214,-0.00000,-0.27214) ==
 == 165-th k-point nmo = 114 (-0.20411,0.06804,-0.34018) ==
 == 166-th k-point nmo = 114 (-0.13607,0.13607,-0.40822) ==
 == 167-th k-point nmo = 114 (-0.06804,0.20411,-0.47625) ==
 == 168-th k-point nmo = 114 (-0.00000,0.27214,-0.54429) ==
 == 169-th k-point nmo = 114 (0.06804,0.34018,-0.61232) ==
 == 170-th k-point nmo = 114 (0.13607,0.40822,-0.68036) ==
 == 171-th k-point nmo = 114 (-0.34018,-0.20411,-0.06804) ==
 == 172-th k-point nmo = 114 (-0.27214,-0.13607,-0.13607) ==
 == 173-th k-point nmo = 114 (-0.20411,-0.06804,-0.20411) ==
 == 174-th k-point nmo = 114 (-0.13607,-0.00000,-0.27214) ==
 == 175-th k-point nmo = 114 (-0.06804,0.06804,-0.34018) ==
 == 176-th k-point nmo = 114 (-0.00000,0.13607,-0.40822) ==
 == 177-th k-point nmo = 114 (0.06804,0.20411,-0.47625) ==
 == 178-th k-point nmo = 114 (0.13607,0.27214,-0.54429) ==
 == 179-th k-point nmo = 114 (0.20411,0.34018,-0.61232) ==
 == 180-th k-point nmo = 114 (-0.27214,-0.27214,0.00000) ==
 == 181-th k-point nmo = 114 (-0.20411,-0.20411,-0.06804) ==
 == 182-th k-point nmo = 115 (-0.13607,-0.13607,-0.13607) ==
 == 183-th k-point nmo = 114 (-0.06804,-0.06804,-0.20411) ==
 == 184-th k-point nmo = 114 (-0.00000,-0.00000,-0.27214) ==
 == 185-th k-point nmo = 114 (0.06804,0.06804,-0.34018) ==
 == 186-th k-point nmo = 114 (0.13607,0.13607,-0.40822) ==
 == 187-th k-point nmo = 114 (0.20411,0.20411,-0.47625) ==
 == 188-th k-point nmo = 114 (0.27214,0.27214,-0.54429) ==
 == 189-th k-point nmo = 114 (-0.20411,-0.34018,0.06804) ==
 == 190-th k-point nmo = 114 (-0.13607,-0.27214,-0.00000) ==
 == 191-th k-point nmo = 114 (-0.06804,-0.20411,-0.06804) ==
 == 192-th k-point nmo = 115 (-0.00000,-0.13607,-0.13607) ==
 == 193-th k-point nmo = 114 (0.06804,-0.06804,-0.20411) ==
 == 194-th k-point nmo = 114 (0.13607,-0.00000,-0.27214) ==
 == 195-th k-point nmo = 114 (0.20411,0.06804,-0.34018) ==
 == 196-th k-point nmo = 114 (0.27214,0.13607,-0.40822) ==
 == 197-th k-point nmo = 114 (0.34018,0.20411,-0.47625) ==
 == 198-th k-point nmo = 114 (-0.13607,-0.40822,0.13607) ==
 == 199-th k-point nmo = 114 (-0.06804,-0.34018,0.06804) ==
 == 200-th k-point nmo = 114 (-0.00000,-0.27214,0.00000) ==
 == 201-th k-point nmo = 114 (0.06804,-0.20411,-0.06804) ==
 == 202-th k-point nmo = 115 (0.13607,-0.13607,-0.13607) ==
 == 203-th k-point nmo = 114 (0.20411,-0.06804,-0.20411) ==
 == 204-th k-point nmo = 114 (0.27214,0.00000,-0.27214) ==
 == 205-th k-point nmo = 114 (0.34018,0.06804,-0.34018) ==
 == 206-th k-point nmo = 114 (0.40822,0.13607,-0.40822) ==
 == 207-th k-point nmo = 114 (-0.06804,-0.47625,0.20411) ==
 == 208-th k-point nmo = 114 (-0.00000,-0.40822,0.13607) ==
 == 209-th k-point nmo = 114 (0.06804,-0.34018,0.06804) ==
 == 210-th k-point nmo = 114 (0.13607,-0.27214,0.00000) ==
 == 211-th k-point nmo = 114 (0.20411,-0.20411,-0.06804) ==
 == 212-th k-point nmo = 114 (0.27214,-0.13607,-0.13607) ==
 == 213-th k-point nmo = 114 (0.34018,-0.06804,-0.20411) ==
 == 214-th k-point nmo = 114 (0.40822,0.00000,-0.27214) ==
 == 215-th k-point nmo = 114 (0.47625,0.06804,-0.34018) ==
 == 216-th k-point nmo = 114 (-0.00000,-0.54429,0.27214) ==
 == 217-th k-point nmo = 114 (0.06804,-0.47625,0.20411) ==
 == 218-th k-point nmo = 114 (0.13607,-0.40822,0.13607) ==
 == 219-th k-point nmo = 114 (0.20411,-0.34018,0.06804) ==
 == 220-th k-point nmo = 114 (0.27214,-0.27214,0.00000) ==
 == 221-th k-point nmo = 114 (0.34018,-0.20411,-0.06804) ==
 == 222-th k-point nmo = 114 (0.40822,-0.13607,-0.13607) ==
 == 223-th k-point nmo = 114 (0.47625,-0.06804,-0.20411) ==
 == 224-th k-point nmo = 114 (0.54429,0.00000,-0.27214) ==
 == 225-th k-point nmo = 114 (0.06804,-0.61232,0.34018) ==
 == 226-th k-point nmo = 114 (0.13607,-0.54429,0.27214) ==
 == 227-th k-point nmo = 114 (0.20411,-0.47625,0.20411) ==
 == 228-th k-point nmo = 114 (0.27214,-0.40822,0.13607) ==
 == 229-th k-point nmo = 114 (0.34018,-0.34018,0.06804) ==
 == 230-th k-point nmo = 114 (0.40822,-0.27214,0.00000) ==
 == 231-th k-point nmo = 114 (0.47625,-0.20411,-0.06804) ==
 == 232-th k-point nmo = 114 (0.54429,-0.13607,-0.13607) ==
 == 233-th k-point nmo = 114 (0.61232,-0.06804,-0.20411) ==
 == 234-th k-point nmo = 114 (0.13607,-0.68036,0.40822) ==
 == 235-th k-point nmo = 114 (0.20411,-0.61232,0.34018) ==
 == 236-th k-point nmo = 114 (0.27214,-0.54429,0.27214) ==
 == 237-th k-point nmo = 114 (0.34018,-0.47625,0.20411) ==
 == 238-th k-point nmo = 114 (0.40822,-0.40822,0.13607) ==
 == 239-th k-point nmo = 114 (0.47625,-0.34018,0.06804) ==
 == 240-th k-point nmo = 114 (0.54429,-0.27214,0.00000) ==
 == 241-th k-point nmo = 114 (0.61232,-0.20411,-0.06804) ==
 == 242-th k-point nmo = 114 (0.68036,-0.13607,-0.13607) ==
 == 243-th k-point nmo = 114 (-0.47625,-0.06804,-0.06804) ==
 == 244-th k-point nmo = 114 (-0.40822,-0.00000,-0.13607) ==
 == 245-th k-point nmo = 114 (-0.34018,0.06804,-0.20411) ==
 == 246-th k-point nmo = 114 (-0.27214,0.13607,-0.27214) ==
 == 247-th k-point nmo = 114 (-0.20411,0.20411,-0.34018) ==
 == 248-th k-point nmo = 114 (-0.13607,0.27214,-0.40822) ==
 == 249-th k-point nmo = 114 (-0.06804,0.34018,-0.47625) ==
 == 250-th k-point nmo = 114 (0.00000,0.40822,-0.54429) ==
 == 251-th k-point nmo = 114 (0.06804,0.47625,-0.61232) ==
 == 252-th k-point nmo = 114 (-0.40822,-0.13607,0.00000) ==
 == 253-th k-point nmo = 114 (-0.34018,-0.06804,-0.06804) ==
 == 254-th k-point nmo = 114 (-0.27214,-0.00000,-0.13607) ==
 == 255-th k-point nmo = 114 (-0.20411,0.06804,-0.20411) ==
 == 256-th k-point nmo = 114 (-0.13607,0.13607,-0.27214) ==
 == 257-th k-point nmo = 114 (-0.06804,0.20411,-0.34018) ==
 == 258-th k-point nmo = 114 (0.00000,0.27214,-0.40822) ==
 == 259-th k-point nmo = 114 (0.06804,0.34018,-0.47625) ==
 == 260-th k-point nmo = 114 (0.13607,0.40822,-0.54429) ==
 == 261-th k-point nmo = 114 (-0.34018,-0.20411,0.06804) ==
 == 262-th k-point nmo = 114 (-0.27214,-0.13607,-0.00000) ==
 == 263-th k-point nmo = 114 (-0.20411,-0.06804,-0.06804) ==
 == 264-th k-point nmo = 115 (-0.13607,-0.00000,-0.13607) ==
 == 265-th k-point nmo = 114 (-0.06804,0.06804,-0.20411) ==
 == 266-th k-point nmo = 114 (-0.00000,0.13607,-0.27214) ==
 == 267-th k-point nmo = 114 (0.06804,0.20411,-0.34018) ==
 == 268-th k-point nmo = 114 (0.13607,0.27214,-0.40822) ==
 == 269-th k-point nmo = 114 (0.20411,0.34018,-0.47625) ==
 == 270-th k-point nmo = 114 (-0.27214,-0.27214,0.13607) ==
 == 271-th k-point nmo = 114 (-0.20411,-0.20411,0.06804) ==
 == 272-th k-point nmo = 115 (-0.13607,-0.13607,0.00000) ==
 == 273-th k-point nmo = 115 (-0.06804,-0.06804,-0.06804) ==
 == 274-th k-point nmo = 116 (-0.00000,-0.00000,-0.13607) ==
 == 275-th k-point nmo = 114 (0.06804,0.06804,-0.20411) ==
 == 276-th k-point nmo = 114 (0.13607,0.13607,-0.27214) ==
 == 277-th k-point nmo = 114 (0.20411,0.20411,-0.34018) ==
 == 278-th k-point nmo = 114 (0.27214,0.27214,-0.40822) ==
 == 279-th k-point nmo = 114 (-0.20411,-0.34018,0.20411) ==
 == 280-th k-point nmo = 114 (-0.13607,-0.27214,0.13607) ==
 == 281-th k-point nmo = 114 (-0.06804,-0.20411,0.06804) ==
 == 282-th k-point nmo = 116 (-0.00000,-0.13607,0.00000) ==
 == 283-th k-point nmo = 115 (0.06804,-0.06804,-0.06804) ==
 == 284-th k-point nmo = 115 (0.13607,0.00000,-0.13607) ==
 == 285-th k-point nmo = 114 (0.20411,0.06804,-0.20411) ==
 == 286-th k-point nmo = 114 (0.27214,0.13607,-0.27214) ==
 == 287-th k-point nmo = 114 (0.34018,0.20411,-0.34018) ==
 == 288-th k-point nmo = 114 (-0.13607,-0.40822,0.27214) ==
 == 289-th k-point nmo = 114 (-0.06804,-0.34018,0.20411) ==
 == 290-th k-point nmo = 114 (-0.00000,-0.27214,0.13607) ==
 == 291-th k-point nmo = 114 (0.06804,-0.20411,0.06804) ==
 == 292-th k-point nmo = 115 (0.13607,-0.13607,0.00000) ==
 == 293-th k-point nmo = 114 (0.20411,-0.06804,-0.06804) ==
 == 294-th k-point nmo = 114 (0.27214,0.00000,-0.13607) ==
 == 295-th k-point nmo = 114 (0.34018,0.06804,-0.20411) ==
 == 296-th k-point nmo = 114 (0.40822,0.13607,-0.27214) ==
 == 297-th k-point nmo = 114 (-0.06804,-0.47625,0.34018) ==
 == 298-th k-point nmo = 114 (-0.00000,-0.40822,0.27214) ==
 == 299-th k-point nmo = 114 (0.06804,-0.34018,0.20411) ==
 == 300-th k-point nmo = 114 (0.13607,-0.27214,0.13607) ==
 == 301-th k-point nmo = 114 (0.20411,-0.20411,0.06804) ==
 == 302-th k-point nmo = 114 (0.27214,-0.13607,0.00000) ==
 == 303-th k-point nmo = 114 (0.34018,-0.06804,-0.06804) ==
 == 304-th k-point nmo = 114 (0.40822,0.00000,-0.13607) ==
 == 305-th k-point nmo = 114 (0.47625,0.06804,-0.20411) ==
 == 306-th k-point nmo = 114 (-0.00000,-0.54429,0.40822) ==
 == 307-th k-point nmo = 114 (0.06804,-0.47625,0.34018) ==
 == 308-th k-point nmo = 114 (0.13607,-0.40822,0.27214) ==
 == 309-th k-point nmo = 114 (0.20411,-0.34018,0.20411) ==
 == 310-th k-point nmo = 114 (0.27214,-0.27214,0.13607) ==
 == 311-th k-point nmo = 114 (0.34018,-0.20411,0.06804) ==
 == 312-th k-point nmo = 114 (0.40822,-0.13607,0.00000) ==
 == 313-th k-point nmo = 114 (0.47625,-0.06804,-0.06804) ==
 == 314-th k-point nmo = 114 (0.54429,0.00000,-0.13607) ==
 == 315-th k-point nmo = 114 (0.06804,-0.61232,0.47625) ==
 == 316-th k-point nmo = 114 (0.13607,-0.54429,0.40822) ==
 == 317-th k-point nmo = 114 (0.20411,-0.47625,0.34018) ==
 == 318-th k-point nmo = 114 (0.27214,-0.40822,0.27214) ==
 == 319-th k-point nmo = 114 (0.34018,-0.34018,0.20411) ==
 == 320-th k-point nmo = 114 (0.40822,-0.27214,0.13607) ==
 == 321-th k-point nmo = 114 (0.47625,-0.20411,0.06804) ==
 == 322-th k-point nmo = 114 (0.54429,-0.13607,0.00000) ==
 == 323-th k-point nmo = 114 (0.61232,-0.06804,-0.06804) ==
 == 324-th k-point nmo = 114 (-0.54429,-0.00000,0.00000) ==
 == 325-th k-point nmo = 114 (-0.47625,0.06804,-0.06804) ==
 == 326-th k-point nmo = 114 (-0.40822,0.13607,-0.13607) ==
 == 327-th k-point nmo = 114 (-0.34018,0.20411,-0.20411) ==
 == 328-th k-point nmo = 114 (-0.27214,0.27214,-0.27214) ==
 == 329-th k-point nmo = 114 (-0.20411,0.34018,-0.34018) ==
 == 330-th k-point nmo = 114 (-0.13607,0.40822,-0.40822) ==
 == 331-th k-point nmo = 114 (-0.06804,0.47625,-0.47625) ==
 == 332-th k-point nmo = 114 (0.00000,0.54429,-0.54429) ==
 == 333-th k-point nmo = 114 (-0.47625,-0.06804,0.06804) ==
 == 334-th k-point nmo = 114 (-0.40822,-0.00000,-0.00000) ==
 == 335-th k-point nmo = 114 (-0.34018,0.06804,-0.06804) ==
 == 336-th k-point nmo = 114 (-0.27214,0.13607,-0.13607) ==
 == 337-th k-point nmo = 114 (-0.20411,0.20411,-0.20411) ==
 == 338-th k-point nmo = 114 (-0.13607,0.27214,-0.27214) ==
 == 339-th k-point nmo = 114 (-0.06804,0.34018,-0.34018) ==
 == 340-th k-point nmo = 114 (0.00000,0.40822,-0.40822) ==
 == 341-th k-point nmo = 114 (0.06804,0.47625,-0.47625) ==
 == 342-th k-point nmo = 114 (-0.40822,-0.13607,0.13607) ==
 == 343-th k-point nmo = 114 (-0.34018,-0.06804,0.06804) ==
 == 344-th k-point nmo = 114 (-0.27214,-0.00000,0.00000) ==
 == 345-th k-point nmo = 114 (-0.20411,0.06804,-0.06804) ==
 == 346-th k-point nmo = 115 (-0.13607,0.13607,-0.13607) ==
 == 347-th k-point nmo = 114 (-0.06804,0.20411,-0.20411) ==
 == 348-th k-point nmo = 114 (0.00000,0.27214,-0.27214) ==
 == 349-th k-point nmo = 114 (0.06804,0.34018,-0.34018) ==
 == 350-th k-point nmo = 114 (0.13607,0.40822,-0.40822) ==
 == 351-th k-point nmo = 114 (-0.34018,-0.20411,0.20411) ==
 == 352-th k-point nmo = 114 (-0.27214,-0.13607,0.13607) ==
 == 353-th k-point nmo = 114 (-0.20411,-0.06804,0.06804) ==
 == 354-th k-point nmo = 116 (-0.13607,-0.00000,0.00000) ==
 == 355-th k-point nmo = 115 (-0.06804,0.06804,-0.06804) ==
 == 356-th k-point nmo = 115 (0.00000,0.13607,-0.13607) ==
 == 357-th k-point nmo = 114 (0.06804,0.20411,-0.20411) ==
 == 358-th k-point nmo = 114 (0.13607,0.27214,-0.27214) ==
 == 359-th k-point nmo = 114 (0.20411,0.34018,-0.34018) ==
 == 360-th k-point nmo = 114 (-0.27214,-0.27214,0.27214) ==
 == 361-th k-point nmo = 114 (-0.20411,-0.20411,0.20411) ==
 == 362-th k-point nmo = 115 (-0.13607,-0.13607,0.13607) ==
 == 363-th k-point nmo = 115 (-0.06804,-0.06804,0.06804) ==
 == 364-th k-point nmo = 115 (0.00000,0.00000,0.00000) ==
 == 365-th k-point nmo = 115 (0.06804,0.06804,-0.06804) ==
 == 366-th k-point nmo = 115 (0.13607,0.13607,-0.13607) ==
 == 367-th k-point nmo = 114 (0.20411,0.20411,-0.20411) ==
 == 368-th k-point nmo = 114 (0.27214,0.27214,-0.27214) ==
 == 369-th k-point nmo = 114 (-0.20411,-0.34018,0.34018) ==
 == 370-th k-point nmo = 114 (-0.13607,-0.27214,0.27214) ==
 == 371-th k-point nmo = 114 (-0.06804,-0.20411,0.20411) ==
 == 372-th k-point nmo = 115 (0.00000,-0.13607,0.13607) ==
 == 373-th k-point nmo = 115 (0.06804,-0.06804,0.06804) ==
 == 374-th k-point nmo = 116 (0.13607,0.00000,0.00000) ==
 == 375-th k-point nmo = 114 (0.20411,0.06804,-0.06804) ==
 == 376-th k-point nmo = 114 (0.27214,0.13607,-0.13607) ==
 == 377-th k-point nmo = 114 (0.34018,0.20411,-0.20411) ==
 == 378-th k-point nmo = 114 (-0.13607,-0.40822,0.40822) ==
 == 379-th k-point nmo = 114 (-0.06804,-0.34018,0.34018) ==
 == 380-th k-point nmo = 114 (0.00000,-0.27214,0.27214) ==
 == 381-th k-point nmo = 114 (0.06804,-0.20411,0.20411) ==
 == 382-th k-point nmo = 115 (0.13607,-0.13607,0.13607) ==
 == 383-th k-point nmo = 114 (0.20411,-0.06804,0.06804) ==
 == 384-th k-point nmo = 114 (0.27214,0.00000,0.00000) ==
 == 385-th k-point nmo = 114 (0.34018,0.06804,-0.06804) ==
 == 386-th k-point nmo = 114 (0.40822,0.13607,-0.13607) ==
 == 387-th k-point nmo = 114 (-0.06804,-0.47625,0.47625) ==
 == 388-th k-point nmo = 114 (-0.00000,-0.40822,0.40822) ==
 == 389-th k-point nmo = 114 (0.06804,-0.34018,0.34018) ==
 == 390-th k-point nmo = 114 (0.13607,-0.27214,0.27214) ==
 == 391-th k-point nmo = 114 (0.20411,-0.20411,0.20411) ==
 == 392-th k-point nmo = 114 (0.27214,-0.13607,0.13607) ==
 == 393-th k-point nmo = 114 (0.34018,-0.06804,0.06804) ==
 == 394-th k-point nmo = 114 (0.40822,0.00000,0.00000) ==
 == 395-th k-point nmo = 114 (0.47625,0.06804,-0.06804) ==
 == 396-th k-point nmo = 114 (0.00000,-0.54429,0.54429) ==
 == 397-th k-point nmo = 114 (0.06804,-0.47625,0.47625) ==
 == 398-th k-point nmo = 114 (0.13607,-0.40822,0.40822) ==
 == 399-th k-point nmo = 114 (0.20411,-0.34018,0.34018) ==
 == 400-th k-point nmo = 114 (0.27214,-0.27214,0.27214) ==
 == 401-th k-point nmo = 114 (0.34018,-0.20411,0.20411) ==
 == 402-th k-point nmo = 114 (0.40822,-0.13607,0.13607) ==
 == 403-th k-point nmo = 114 (0.47625,-0.06804,0.06804) ==
 == 404-th k-point nmo = 114 (0.54429,0.00000,0.00000) ==
 == 405-th k-point nmo = 114 (-0.61232,0.06804,0.06804) ==
 == 406-th k-point nmo = 114 (-0.54429,0.13607,-0.00000) ==
 == 407-th k-point nmo = 114 (-0.47625,0.20411,-0.06804) ==
 == 408-th k-point nmo = 114 (-0.40822,0.27214,-0.13607) ==
 == 409-th k-point nmo = 114 (-0.34018,0.34018,-0.20411) ==
 == 410-th k-point nmo = 114 (-0.27214,0.40822,-0.27214) ==
 == 411-th k-point nmo = 114 (-0.20411,0.47625,-0.34018) ==
 == 412-th k-point nmo = 114 (-0.13607,0.54429,-0.40822) ==
 == 413-th k-point nmo = 114 (-0.06804,0.61232,-0.47625) ==
 == 414-th k-point nmo = 114 (-0.54429,-0.00000,0.13607) ==
 == 415-th k-point nmo = 114 (-0.47625,0.06804,0.06804) ==
 == 416-th k-point nmo = 114 (-0.40822,0.13607,-0.00000) ==
 == 417-th k-point nmo = 114 (-0.34018,0.20411,-0.06804) ==
 == 418-th k-point nmo = 114 (-0.27214,0.27214,-0.13607) ==
 == 419-th k-point nmo = 114 (-0.20411,0.34018,-0.20411) ==
 == 420-th k-point nmo = 114 (-0.13607,0.40822,-0.27214) ==
 == 421-th k-point nmo = 114 (-0.06804,0.47625,-0.34018) ==
 == 422-th k-point nmo = 114 (0.00000,0.54429,-0.40822) ==
 == 423-th k-point nmo = 114 (-0.47625,-0.06804,0.20411) ==
 == 424-th k-point nmo = 114 (-0.40822,-0.00000,0.13607) ==
 == 425-th k-point nmo = 114 (-0.34018,0.06804,0.06804) ==
 == 426-th k-point nmo = 114 (-0.27214,0.13607,0.00000) ==
 == 427-th k-point nmo = 114 (-0.20411,0.20411,-0.06804) ==
 == 428-th k-point nmo = 114 (-0.13607,0.27214,-0.13607) ==
 == 429-th k-point nmo = 114 (-0.06804,0.34018,-0.20411) ==
 == 430-th k-point nmo = 114 (0.00000,0.40822,-0.27214) ==
 == 431-th k-point nmo = 114 (0.06804,0.47625,-0.34018) ==
 == 432-th k-point nmo = 114 (-0.40822,-0.13607,0.27214) ==
 == 433-th k-point nmo = 114 (-0.34018,-0.06804,0.20411) ==
 == 434-th k-point nmo = 114 (-0.27214,0.00000,0.13607) ==
 == 435-th k-point nmo = 114 (-0.20411,0.06804,0.06804) ==
 == 436-th k-point nmo = 115 (-0.13607,0.13607,0.00000) ==
 == 437-th k-point nmo = 114 (-0.06804,0.20411,-0.06804) ==
 == 438-th k-point nmo = 114 (0.00000,0.27214,-0.13607) ==
 == 439-th k-point nmo = 114 (0.06804,0.34018,-0.20411) ==
 == 440-th k-point nmo = 114 (0.13607,0.40822,-0.27214) ==
 == 441-th k-point nmo = 114 (-0.34018,-0.20411,0.34018) ==
 == 442-th k-point nmo = 114 (-0.27214,-0.13607,0.27214) ==
 == 443-th k-point nmo = 114 (-0.20411,-0.06804,0.20411) ==
 == 444-th k-point nmo = 115 (-0.13607,0.00000,0.13607) ==
 == 445-th k-point nmo = 115 (-0.06804,0.06804,0.06804) ==
 == 446-th k-point nmo = 116 (0.00000,0.13607,0.00000) ==
 == 447-th k-point nmo = 114 (0.06804,0.20411,-0.06804) ==
 == 448-th k-point nmo = 114 (0.13607,0.27214,-0.13607) ==
 == 449-th k-point nmo = 114 (0.20411,0.34018,-0.20411) ==
 == 450-th k-point nmo = 114 (-0.27214,-0.27214,0.40822) ==
 == 451-th k-point nmo = 114 (-0.20411,-0.20411,0.34018) ==
 == 452-th k-point nmo = 114 (-0.13607,-0.13607,0.27214) ==
 == 453-th k-point nmo = 114 (-0.06804,-0.06804,0.20411) ==
 == 454-th k-point nmo = 116 (0.00000,0.00000,0.13607) ==
 == 455-th k-point nmo = 115 (0.06804,0.06804,0.06804) ==
 == 456-th k-point nmo = 115 (0.13607,0.13607,0.00000) ==
 == 457-th k-point nmo = 114 (0.20411,0.20411,-0.06804) ==
 == 458-th k-point nmo = 114 (0.27214,0.27214,-0.13607) ==
 == 459-th k-point nmo = 114 (-0.20411,-0.34018,0.47625) ==
 == 460-th k-point nmo = 114 (-0.13607,-0.27214,0.40822) ==
 == 461-th k-point nmo = 114 (-0.06804,-0.20411,0.34018) ==
 == 462-th k-point nmo = 114 (0.00000,-0.13607,0.27214) ==
 == 463-th k-point nmo = 114 (0.06804,-0.06804,0.20411) ==
 == 464-th k-point nmo = 115 (0.13607,0.00000,0.13607) ==
 == 465-th k-point nmo = 114 (0.20411,0.06804,0.06804) ==
 == 466-th k-point nmo = 114 (0.27214,0.13607,0.00000) ==
 == 467-th k-point nmo = 114 (0.34018,0.20411,-0.06804) ==
 == 468-th k-point nmo = 114 (-0.13607,-0.40822,0.54429) ==
 == 469-th k-point nmo = 114 (-0.06804,-0.34018,0.47625) ==
 == 470-th k-point nmo = 114 (0.00000,-0.27214,0.40822) ==
 == 471-th k-point nmo = 114 (0.06804,-0.20411,0.34018) ==
 == 472-th k-point nmo = 114 (0.13607,-0.13607,0.27214) ==
 == 473-th k-point nmo = 114 (0.20411,-0.06804,0.20411) ==
 == 474-th k-point nmo = 114 (0.27214,0.00000,0.13607) ==
 == 475-th k-point nmo = 114 (0.34018,0.06804,0.06804) ==
 == 476-th k-point nmo = 114 (0.40822,0.13607,0.00000) ==
 == 477-th k-point nmo = 114 (-0.06804,-0.47625,0.61232) ==
 == 478-th k-point nmo = 114 (0.00000,-0.40822,0.54429) ==
 == 479-th k-point nmo = 114 (0.06804,-0.34018,0.47625) ==
 == 480-th k-point nmo = 114 (0.13607,-0.27214,0.40822) ==
 == 481-th k-point nmo = 114 (0.20411,-0.20411,0.34018) ==
 == 482-th k-point nmo = 114 (0.27214,-0.13607,0.27214) ==
 == 483-th k-point nmo = 114 (0.34018,-0.06804,0.20411) ==
 == 484-th k-point nmo = 114 (0.40822,0.00000,0.13607) ==
 == 485-th k-point nmo = 114 (0.47625,0.06804,0.06804) ==
 == 486-th k-point nmo = 114 (-0.68036,0.13607,0.13607) ==
 == 487-th k-point nmo = 114 (-0.61232,0.20411,0.06804) ==
 == 488-th k-point nmo = 114 (-0.54429,0.27214,0.00000) ==
 == 489-th k-point nmo = 114 (-0.47625,0.34018,-0.06804) ==
 == 490-th k-point nmo = 114 (-0.40822,0.40822,-0.13607) ==
 == 491-th k-point nmo = 114 (-0.34018,0.47625,-0.20411) ==
 == 492-th k-point nmo = 114 (-0.27214,0.54429,-0.27214) ==
 == 493-th k-point nmo = 114 (-0.20411,0.61232,-0.34018) ==
 == 494-th k-point nmo = 114 (-0.13607,0.68036,-0.40822) ==
 == 495-th k-point nmo = 114 (-0.61232,0.06804,0.20411) ==
 == 496-th k-point nmo = 114 (-0.54429,0.13607,0.13607) ==
 == 497-th k-point nmo = 114 (-0.47625,0.20411,0.06804) ==
 == 498-th k-point nmo = 114 (-0.40822,0.27214,-0.00000) ==
 == 499-th k-point nmo = 114 (-0.34018,0.34018,-0.06804) ==
 == 500-th k-point nmo = 114 (-0.27214,0.40822,-0.13607) ==
 == 501-th k-point nmo = 114 (-0.20411,0.47625,-0.20411) ==
 == 502-th k-point nmo = 114 (-0.13607,0.54429,-0.27214) ==
 == 503-th k-point nmo = 114 (-0.06804,0.61232,-0.34018) ==
 == 504-th k-point nmo = 114 (-0.54429,0.00000,0.27214) ==
 == 505-th k-point nmo = 114 (-0.47625,0.06804,0.20411) ==
 == 506-th k-point nmo = 114 (-0.40822,0.13607,0.13607) ==
 == 507-th k-point nmo = 114 (-0.34018,0.20411,0.06804) ==
 == 508-th k-point nmo = 114 (-0.27214,0.27214,0.00000) ==
 == 509-th k-point nmo = 114 (-0.20411,0.34018,-0.06804) ==
 == 510-th k-point nmo = 114 (-0.13607,0.40822,-0.13607) ==
 == 511-th k-point nmo = 114 (-0.06804,0.47625,-0.20411) ==
 == 512-th k-point nmo = 114 (0.00000,0.54429,-0.27214) ==
 == 513-th k-point nmo = 114 (-0.47625,-0.06804,0.34018) ==
 == 514-th k-point nmo = 114 (-0.40822,-0.00000,0.27214) ==
 == 515-th k-point nmo = 114 (-0.34018,0.06804,0.20411) ==
 == 516-th k-point nmo = 114 (-0.27214,0.13607,0.13607) ==
 == 517-th k-point nmo = 114 (-0.20411,0.20411,0.06804) ==
 == 518-th k-point nmo = 114 (-0.13607,0.27214,0.00000) ==
 == 519-th k-point nmo = 114 (-0.06804,0.34018,-0.06804) ==
 == 520-th k-point nmo = 114 (0.00000,0.40822,-0.13607) ==
 == 521-th k-point nmo = 114 (0.06804,0.47625,-0.20411) ==
 == 522-th k-point nmo = 114 (-0.40822,-0.13607,0.40822) ==
 == 523-th k-point nmo = 114 (-0.34018,-0.06804,0.34018) ==
 == 524-th k-point nmo = 114 (-0.27214,0.00000,0.27214) ==
 == 525-th k-point nmo = 114 (-0.20411,0.06804,0.20411) ==
 == 526-th k-point nmo = 115 (-0.13607,0.13607,0.13607) ==
 == 527-th k-point nmo = 114 (-0.06804,0.20411,0.06804) ==
 == 528-th k-point nmo = 114 (0.00000,0.27214,0.00000) ==
 == 529-th k-point nmo = 114 (0.06804,0.34018,-0.06804) ==
 == 530-th k-point nmo = 114 (0.13607,0.40822,-0.13607) ==
 == 531-th k-point nmo = 114 (-0.34018,-0.20411,0.47625) ==
 == 532-th k-point nmo = 114 (-0.27214,-0.13607,0.40822) ==
 == 533-th k-point nmo = 114 (-0.20411,-0.06804,0.34018) ==
 == 534-th k-point nmo = 114 (-0.13607,0.00000,0.27214) ==
 == 535-th k-point nmo = 114 (-0.06804,0.06804,0.20411) ==
 == 536-th k-point nmo = 115 (0.00000,0.13607,0.13607) ==
 == 537-th k-point nmo = 114 (0.06804,0.20411,0.06804) ==
 == 538-th k-point nmo = 114 (0.13607,0.27214,0.00000) ==
 == 539-th k-point nmo = 114 (0.20411,0.34018,-0.06804) ==
 == 540-th k-point nmo = 114 (-0.27214,-0.27214,0.54429) ==
 == 541-th k-point nmo = 114 (-0.20411,-0.20411,0.47625) ==
 == 542-th k-point nmo = 114 (-0.13607,-0.13607,0.40822) ==
 == 543-th k-point nmo = 114 (-0.06804,-0.06804,0.34018) ==
 == 544-th k-point nmo = 114 (0.00000,0.00000,0.27214) ==
 == 545-th k-point nmo = 114 (0.06804,0.06804,0.20411) ==
 == 546-th k-point nmo = 115 (0.13607,0.13607,0.13607) ==
 == 547-th k-point nmo = 114 (0.20411,0.20411,0.06804) ==
 == 548-th k-point nmo = 114 (0.27214,0.27214,0.00000) ==
 == 549-th k-point nmo = 114 (-0.20411,-0.34018,0.61232) ==
 == 550-th k-point nmo = 114 (-0.13607,-0.27214,0.54429) ==
 == 551-th k-point nmo = 114 (-0.06804,-0.20411,0.47625) ==
 == 552-th k-point nmo = 114 (0.00000,-0.13607,0.40822) ==
 == 553-th k-point nmo = 114 (0.06804,-0.06804,0.34018) ==
 == 554-th k-point nmo = 114 (0.13607,0.00000,0.27214) ==
 == 555-th k-point nmo = 114 (0.20411,0.06804,0.20411) ==
 == 556-th k-point nmo = 114 (0.27214,0.13607,0.13607) ==
 == 557-th k-point nmo = 114 (0.34018,0.20411,0.06804) ==
 == 558-th k-point nmo = 114 (-0.13607,-0.40822,0.68036) ==
 == 559-th k-point nmo = 114 (-0.06804,-0.34018,0.61232) ==
 == 560-th k-point nmo = 114 (0.00000,-0.27214,0.54429) ==
 == 561-th k-point nmo = 114 (0.06804,-0.20411,0.47625) ==
 == 562-th k-point nmo = 114 (0.13607,-0.13607,0.40822) ==
 == 563-th k-point nmo = 114 (0.20411,-0.06804,0.34018) ==
 == 564-th k-point nmo = 114 (0.27214,0.00000,0.27214) ==
 == 565-th k-point nmo = 114 (0.34018,0.06804,0.20411) ==
 == 566-th k-point nmo = 114 (0.40822,0.13607,0.13607) ==
 == 567-th k-point nmo = 114 (-0.74840,0.20411,0.20411) ==
 == 568-th k-point nmo = 114 (-0.68036,0.27214,0.13607) ==
 == 569-th k-point nmo = 114 (-0.61232,0.34018,0.06804) ==
 == 570-th k-point nmo = 114 (-0.54429,0.40822,-0.00000) ==
 == 571-th k-point nmo = 114 (-0.47625,0.47625,-0.06804) ==
 == 572-th k-point nmo = 114 (-0.40822,0.54429,-0.13607) ==
 == 573-th k-point nmo = 114 (-0.34018,0.61232,-0.20411) ==
 == 574-th k-point nmo = 114 (-0.27214,0.68036,-0.27214) ==
 == 575-th k-point nmo = 114 (-0.20411,0.74840,-0.34018) ==
 == 576-th k-point nmo = 114 (-0.68036,0.13607,0.27214) ==
 == 577-th k-point nmo = 114 (-0.61232,0.20411,0.20411) ==
 == 578-th k-point nmo = 114 (-0.54429,0.27214,0.13607) ==
 == 579-th k-point nmo = 114 (-0.47625,0.34018,0.06804) ==
 == 580-th k-point nmo = 114 (-0.40822,0.40822,-0.00000) ==
 == 581-th k-point nmo = 114 (-0.34018,0.47625,-0.06804) ==
 == 582-th k-point nmo = 114 (-0.27214,0.54429,-0.13607) ==
 == 583-th k-point nmo = 114 (-0.20411,0.61232,-0.20411) ==
 == 584-th k-point nmo = 114 (-0.13607,0.68036,-0.27214) ==
 == 585-th k-point nmo = 114 (-0.61232,0.06804,0.34018) ==
 == 586-th k-point nmo = 114 (-0.54429,0.13607,0.27214) ==
 == 587-th k-point nmo = 114 (-0.47625,0.20411,0.20411) ==
 == 588-th k-point nmo = 114 (-0.40822,0.27214,0.13607) ==
 == 589-th k-point nmo = 114 (-0.34018,0.34018,0.06804) ==
 == 590-th k-point nmo = 114 (-0.27214,0.40822,-0.00000) ==
 == 591-th k-point nmo = 114 (-0.20411,0.47625,-0.06804) ==
 == 592-th k-point nmo = 114 (-0.13607,0.54429,-0.13607) ==
 == 593-th k-point nmo = 114 (-0.06804,0.61232,-0.20411) ==
 == 594-th k-point nmo = 114 (-0.54429,0.00000,0.40822) ==
 == 595-th k-point nmo = 114 (-0.47625,0.06804,0.34018) ==
[...]
 -0.08216 0.06125 0.16296 0.19682 0.33684 0.43113 0.47119 0.48554 0.66673 0.68459
 0.70342 0.71769 0.76043 0.86123 0.90890 0.97401 0.98609 1.00238 1.07650 1.11887
 1.20077 1.25081 1.26338 1.27913 1.35567 1.39888 1.41147 1.43342 1.51197 1.56936
 1.62023 1.62229 1.66646 1.68420 1.73121 1.79663 1.90204 1.93029 1.94263 1.95109
 2.00649 2.04291 2.06163 2.12817 2.13764 2.14502 2.25895 2.34005 2.35326 2.38138
 2.43885 2.47020 2.50304 2.56827 2.61520 2.63817 2.66978 2.74919 2.79120 2.80100
 2.82123 2.86396 2.89387 2.91765 2.97469 3.03503 3.05058 3.06604 3.10854 3.12440
 3.17557 3.24593 3.31371 3.32630 3.34266 3.37735 3.38623 3.44254 3.51759 3.51840
 3.56981 3.63041 3.65653 3.69469 3.74166 3.79774 3.81957 3.85627 3.86428 4.02534
 4.06669 4.17688 4.26198 4.31425 4.56987 4.57787 8.01348 8.25536 8.25583 9.05406
 9.99758 10.29066 13.07201 14.14226
 == 711-th k-point (-0.34018,-0.20411,0.74840) occupation: 14==
 -65.00568 -65.00567 -4.62781 -4.62770 -3.03968 -3.03966 -3.03947 -3.03915 -3.03896 -3.03893
 -0.06867 0.03368 0.15830 0.20375 0.38217 0.39425 0.47650 0.51792 0.59556 0.64623
 0.69722 0.75449 0.79407 0.87231 0.91753 0.99097 1.00816 1.04168 1.09332 1.11432
 1.16705 1.24433 1.25564 1.28731 1.30844 1.36910 1.42067 1.44596 1.47614 1.52574
 1.57833 1.60661 1.64090 1.74093 1.76265 1.79753 1.86381 1.92307 1.95433 1.99408
 2.03970 2.08546 2.09413 2.17453 2.18053 2.22917 2.28245 2.31057 2.35545 2.36069
 2.42290 2.43789 2.46291 2.52928 2.56364 2.65364 2.70588 2.75270 2.80298 2.81718
 2.83836 2.88699 2.91431 2.93903 2.96860 2.99211 3.01723 3.06425 3.09391 3.15423
 3.18213 3.24254 3.26093 3.28145 3.33502 3.39676 3.43857 3.45347 3.47878 3.51528
 3.55632 3.59459 3.65864 3.67964 3.70689 3.75242 3.81123 3.85263 3.89828 3.99266
 4.04922 4.13904 4.24377 4.29479 4.51222 4.55019 8.15755 8.34874 8.38294 8.89288
 9.34907 9.92062 13.04407 14.48314
 == 712-th k-point (-0.27214,-0.13607,0.68036) occupation: 14==
 -65.00567 -65.00567 -4.62779 -4.62772 -3.03969 -3.03968 -3.03941 -3.03921 -3.03894 -3.03892
 -0.04359 0.02464 0.12249 0.17952 0.36913 0.44330 0.50061 0.52069 0.55370 0.64914
 0.75804 0.77976 0.87777 0.88169 0.91888 0.93059 0.98695 1.01640 1.06190 1.09862
 1.13099 1.22287 1.23730 1.24634 1.31920 1.36457 1.41225 1.44230 1.46754 1.52140
 1.56280 1.65635 1.69886 1.74342 1.77577 1.80286 1.86939 1.90466 1.93891 1.97818
 2.02169 2.09567 2.12291 2.17059 2.20260 2.25150 2.27621 2.29443 2.32912 2.38069
 2.42985 2.44694 2.49170 2.50347 2.57508 2.61003 2.67658 2.74137 2.78158 2.83722
 2.86693 2.89576 2.94030 2.96014 2.97536 2.99683 3.03327 3.08010 3.10023 3.16239
 3.23440 3.24524 3.27774 3.31023 3.33274 3.36900 3.40235 3.43109 3.46774 3.49919
 3.50925 3.55070 3.60464 3.63990 3.67237 3.75418 3.84571 3.86844 3.90961 3.96960
 4.02216 4.16453 4.24500 4.26187 4.54262 4.57813 8.18927 8.42239 8.52501 8.81267
 9.17286 9.75325 13.31944 14.26336
 == 713-th k-point (-0.20411,-0.06804,0.61232) occupation: 14==
 -65.00567 -65.00567 -4.62777 -4.62774 -3.03970 -3.03969 -3.03934 -3.03926 -3.03894 -3.03892
 -0.01834 0.00355 0.12381 0.16154 0.35063 0.41140 0.52292 0.53259 0.62760 0.65966
 0.76139 0.80057 0.86046 0.89571 0.90037 0.91296 0.98078 1.01416 1.03598 1.09691
 1.12520 1.15222 1.20226 1.21708 1.36209 1.36968 1.45060 1.46142 1.48944 1.50735
 1.63273 1.65079 1.68138 1.74516 1.75381 1.81666 1.86572 1.87209 1.92335 1.93339
 2.02560 2.07094 2.14499 2.20686 2.23128 2.23439 2.28393 2.29579 2.33174 2.37401
 2.38742 2.45911 2.48271 2.51653 2.60198 2.67433 2.71274 2.72207 2.77562 2.79375
 2.86404 2.86484 2.90097 2.94585 2.99255 3.01228 3.05529 3.08306 3.11584 3.12455
 3.22583 3.24145 3.27478 3.29230 3.34052 3.35582 3.38248 3.40659 3.46512 3.47902
 3.54496 3.59893 3.64038 3.65417 3.68451 3.72078 3.81069 3.88048 3.95713 4.00509
 4.08839 4.20353 4.27372 4.28259 4.57354 4.59604 8.25411 8.43134 8.60874 8.70506
 9.41367 9.84797 13.39438 13.77759
 == 714-th k-point (-0.13607,0.00000,0.54429) occupation: 14==
 -65.00567 -65.00567 -4.62778 -4.62773 -3.03969 -3.03969 -3.03935 -3.03925 -3.03894 -3.03894
 -0.03770 0.02055 0.15055 0.15825 0.33683 0.34847 0.54345 0.61183 0.63403 0.69845
 0.72755 0.78564 0.80104 0.87131 0.87391 0.93101 0.98679 1.02912 1.05044 1.06172
 1.14772 1.15321 1.16526 1.21756 1.38952 1.41368 1.46506 1.50431 1.51465 1.52826
 1.55844 1.69451 1.73324 1.73516 1.75828 1.78069 1.83565 1.84137 1.87632 1.89735
 2.04511 2.04718 2.15361 2.15445 2.17522 2.23568 2.26199 2.31983 2.35651 2.39239
 2.41532 2.45345 2.51194 2.52993 2.58210 2.61103 2.70204 2.75966 2.78612 2.80791
 2.85663 2.86765 2.92015 2.95207 2.97737 2.98930 2.99178 3.07319 3.10820 3.12191
 3.19469 3.22244 3.29108 3.30498 3.32841 3.35115 3.37938 3.39740 3.51056 3.52732
 3.54729 3.55140 3.64228 3.65801 3.71278 3.72080 3.89079 3.93712 3.98410 4.03441
 4.20028 4.21421 4.30290 4.33239 4.59580 4.60880 8.19046 8.42522 8.52910 8.65527
 9.87818 9.90829 13.34350 13.45760
 == 715-th k-point (-0.06804,0.06804,0.47625) occupation: 14==
 -65.00567 -65.00567 -4.62780 -4.62771 -3.03969 -3.03968 -3.03941 -3.03919 -3.03896 -3.03895
 -0.06685 0.05292 0.15887 0.17978 0.31177 0.35152 0.55604 0.55797 0.69651 0.70156
 0.71710 0.72198 0.82117 0.83316 0.86274 0.92432 0.94529 0.99503 1.08119 1.13631
 1.15925 1.18385 1.21020 1.28017 1.35766 1.36010 1.44275 1.51439 1.53061 1.57724
 1.63249 1.66024 1.70696 1.73225 1.75032 1.79117 1.81917 1.85271 1.86273 1.93048
 1.97601 2.04786 2.06323 2.15535 2.17473 2.19705 2.20594 2.36415 2.38412 2.39252
 2.43592 2.43880 2.52931 2.53525 2.60226 2.60435 2.66280 2.76868 2.81498 2.83654
 2.85803 2.88828 2.89283 2.92572 2.94411 2.98846 3.00610 3.02249 3.08667 3.17221
 3.23363 3.23497 3.25457 3.33276 3.33615 3.36144 3.40627 3.44426 3.52501 3.52752
 3.54739 3.55597 3.60146 3.68043 3.70916 3.75460 3.88940 3.90976 3.94803 4.12592
 4.16142 4.23408 4.28841 4.35549 4.60770 4.61346 8.05871 8.31326 8.35624 8.78755
 10.24085 10.33829 13.24454 13.47115
 == 716-th k-point (0.00000,0.13607,0.40822) occupation: 14==
 -65.00567 -65.00567 -4.62782 -4.62769 -3.03968 -3.03967 -3.03946 -3.03915 -3.03896 -3.03896
 -0.08762 0.08038 0.16122 0.18668 0.34316 0.38085 0.47767 0.54152 0.62786 0.69008
 0.71073 0.76639 0.79225 0.82515 0.86387 0.92922 0.95906 1.02891 1.08916 1.14397
 1.20193 1.20768 1.27232 1.29951 1.34280 1.36627 1.45084 1.50652 1.52934 1.55569
 1.56378 1.65376 1.70958 1.72954 1.79125 1.79618 1.83588 1.83615 1.88702 1.96135
 2.00782 2.01059 2.03634 2.13786 2.14529 2.17045 2.19780 2.31575 2.38909 2.43303
 2.43617 2.46161 2.54057 2.55663 2.61012 2.62121 2.64283 2.73174 2.79980 2.81392
 2.83593 2.88376 2.88716 2.92636 2.93380 3.02656 3.03658 3.09229 3.11074 3.12945
 3.22388 3.26457 3.32491 3.33162 3.38032 3.38391 3.42938 3.43028 3.48177 3.53417
 3.54022 3.55150 3.62505 3.66571 3.71599 3.73600 3.88594 3.90036 3.95502 4.03168
 4.09634 4.13696 4.27262 4.36274 4.57983 4.61560 8.04710 8.07184 8.18436 9.06829
 10.23063 10.55718 13.24196 13.62508
 == 717-th k-point (0.06804,0.20411,0.34018) occupation: 14==
 -65.00567 -65.00567 -4.62783 -4.62767 -3.03967 -3.03966 -3.03950 -3.03912 -3.03897 -3.03895
 -0.09809 0.08132 0.16528 0.21577 0.37823 0.40949 0.45324 0.47856 0.58624 0.65733
 0.70864 0.72849 0.79769 0.84384 0.88008 0.96788 0.97962 1.04630 1.10246 1.17355
 1.19340 1.21433 1.28192 1.30958 1.37603 1.41767 1.44971 1.46702 1.49043 1.54959
 1.58637 1.62439 1.66883 1.72728 1.75523 1.81877 1.82855 1.86682 1.89210 1.96775
 2.01048 2.03230 2.06129 2.11580 2.14742 2.18885 2.25790 2.31048 2.37710 2.41415
 2.43127 2.49529 2.51129 2.58027 2.60382 2.63496 2.65320 2.76086 2.77275 2.80217
 2.80899 2.85479 2.89785 2.91702 2.96418 2.98588 3.04691 3.10112 3.14879 3.18679
 3.20478 3.29001 3.30034 3.32915 3.36183 3.40193 3.43114 3.47075 3.48737 3.51251
 3.53341 3.60127 3.63593 3.70805 3.74607 3.76986 3.80950 3.84086 3.91956 3.94191
 4.06090 4.09766 4.24862 4.37695 4.54144 4.59767 7.85173 8.06317 8.25763 9.40251
 9.65501 10.24706 13.06764 14.16409
 == 718-th k-point (0.13607,0.27214,0.27214) occupation: 14==
 -65.00568 -65.00567 -4.62784 -4.62767 -3.03966 -3.03966 -3.03953 -3.03910 -3.03896 -3.03896
 -0.09793 0.06118 0.19216 0.23549 0.36514 0.41082 0.41354 0.54873 0.55478 0.61999
 0.69318 0.72319 0.81545 0.84134 0.88893 0.92872 1.00732 1.12840 1.12964 1.15545
 1.17554 1.22781 1.30303 1.33367 1.35196 1.38506 1.42147 1.46948 1.49360 1.54549
 1.55357 1.63494 1.68775 1.72917 1.75580 1.78730 1.82374 1.84631 1.90910 1.97836
 2.04231 2.08536 2.09347 2.12724 2.14923 2.19651 2.28830 2.34117 2.37931 2.38946
 2.40458 2.46870 2.55292 2.57881 2.58909 2.64969 2.71037 2.77226 2.77676 2.78260
 2.82192 2.87939 2.88610 2.90709 2.94738 2.98133 3.00449 3.11731 3.12971 3.14458
 3.15285 3.22681 3.30718 3.34303 3.36803 3.46035 3.46709 3.47941 3.49567 3.54002
 3.59503 3.62643 3.66204 3.68600 3.73883 3.75998 3.79597 3.87871 3.93723 3.96417
 4.03147 4.07659 4.22866 4.39110 4.49610 4.56827 7.86736 8.10380 8.22675 9.54638
 9.70118 10.00577 12.54456 14.56032
 == 719-th k-point (0.20411,0.34018,0.20411) occupation: 14==
 -65.00568 -65.00567 -4.62783 -4.62768 -3.03967 -3.03966 -3.03952 -3.03910 -3.03898 -3.03894
 -0.08764 0.04360 0.20307 0.21807 0.35775 0.40186 0.42808 0.52698 0.60648 0.66176
 0.68460 0.72035 0.74860 0.84951 0.91827 0.96061 1.01983 1.09692 1.11274 1.15980
 1.19243 1.21040 1.30089 1.31777 1.33295 1.39919 1.42141 1.43870 1.48354 1.51308
 1.55589 1.61120 1.68120 1.72240 1.74312 1.79690 1.85750 1.90989 1.96404 1.98890
 1.99257 2.07356 2.10439 2.17405 2.17801 2.24964 2.25178 2.31547 2.32731 2.40019
 2.40719 2.40783 2.53908 2.57523 2.62943 2.64154 2.75419 2.77129 2.77621 2.79435
 2.79683 2.86889 2.87011 2.91172 2.94292 3.01579 3.05308 3.07003 3.09158 3.12303
 3.14522 3.21377 3.27733 3.28072 3.38981 3.43079 3.44653 3.49322 3.54019 3.55567
 3.57425 3.64874 3.65789 3.70618 3.74604 3.76617 3.81988 3.84560 3.94982 3.96297
 4.03698 4.13099 4.22445 4.34695 4.51301 4.52606 8.04051 8.26388 8.29379 9.33178
 9.93863 9.97386 12.51861 14.66605
 == 720-th k-point (-0.27214,-0.27214,0.81643) occupation: 14==
 -65.00568 -65.00567 -4.62782 -4.62769 -3.03967 -3.03966 -3.03951 -3.03911 -3.03896 -3.03894
 -0.07360 0.02242 0.19347 0.22323 0.35815 0.40257 0.41826 0.57561 0.61268 0.62739
 0.67946 0.74786 0.76264 0.78662 0.96954 1.02156 1.04510 1.06829 1.09624 1.10929
 1.20628 1.23811 1.25870 1.31378 1.32186 1.36948 1.40193 1.41965 1.49434 1.51927
 1.53415 1.60462 1.67020 1.71054 1.73796 1.81568 1.84036 1.92528 1.97775 2.00128
 2.08631 2.12096 2.12672 2.18240 2.19041 2.21311 2.27595 2.28532 2.32505 2.34676
 2.44942 2.47133 2.50824 2.51475 2.55252 2.68068 2.74043 2.74729 2.77635 2.82894
 2.83139 2.86777 2.90396 2.93710 2.94268 2.96435 3.03829 3.04825 3.10993 3.12515
 3.17781 3.19565 3.22321 3.24066 3.39389 3.40539 3.45393 3.49454 3.51657 3.53459
 3.58452 3.63532 3.66619 3.69558 3.70948 3.76061 3.76301 3.88802 3.97798 3.98171
 4.02073 4.15125 4.25410 4.29994 4.47710 4.49407 8.18875 8.35508 8.39503 9.18852
 9.20612 9.97473 12.55120 14.64386
 == 721-th k-point (-0.20411,-0.20411,0.74840) occupation: 14==
 -65.00568 -65.00567 -4.62780 -4.62770 -3.03969 -3.03967 -3.03945 -3.03917 -3.03896 -3.03892
 -0.05792 0.02637 0.14379 0.20256 0.34253 0.46196 0.47122 0.50477 0.61418 0.62381
 0.72136 0.76790 0.78800 0.89588 0.95759 0.97161 0.98274 1.03968 1.04430 1.09898
 1.18723 1.23088 1.24269 1.27301 1.32282 1.36456 1.39037 1.43775 1.46903 1.55407
 1.61980 1.62453 1.65806 1.67574 1.71497 1.82084 1.90068 1.93211 1.94948 1.98041
 2.06077 2.10097 2.10371 2.15084 2.17172 2.26497 2.29290 2.30653 2.31346 2.34345
 2.40211 2.43355 2.49248 2.52677 2.55075 2.63614 2.66378 2.74897 2.79242 2.83502
 2.87494 2.90978 2.91934 2.96872 2.97372 3.02785 3.02970 3.05540 3.06478 3.11733
 3.17836 3.24120 3.27157 3.29783 3.34142 3.36468 3.39060 3.42626 3.49063 3.51944
 3.56383 3.59246 3.64770 3.67536 3.74564 3.76140 3.81267 3.85805 3.87057 3.93582
 4.04603 4.19859 4.24175 4.28064 4.52770 4.54571 8.12420 8.40071 8.43505 8.88046
 9.26322 9.83941 13.11534 14.43822
 == 722-th k-point (-0.13607,-0.13607,0.68036) occupation: 14==
 -65.00567 -65.00567 -4.62778 -4.62773 -3.03970 -3.03968 -3.03938 -3.03923 -3.03895 -3.03893
 -0.03752 0.01981 0.12549 0.18374 0.31918 0.41077 0.54382 0.54824 0.62680 0.63053
 0.78076 0.79074 0.81411 0.87981 0.89626 0.94009 0.99472 1.00962 1.03336 1.12060
 1.13112 1.14441 1.17338 1.26946 1.36778 1.38944 1.39122 1.47104 1.54617 1.56666
 1.59668 1.61515 1.69129 1.70066 1.76356 1.76535 1.87111 1.87894 1.92988 1.98891
 2.01034 2.08628 2.08953 2.17761 2.22452 2.25781 2.27123 2.31033 2.33757 2.35369
 2.39794 2.43036 2.50010 2.50278 2.56995 2.66510 2.66818 2.76087 2.77642 2.79036
 2.83300 2.90576 2.91585 2.95813 3.00977 3.01651 3.06613 3.07305 3.09816 3.11946
 3.21849 3.23168 3.26376 3.30261 3.30285 3.32781 3.37201 3.43143 3.44692 3.47822
 3.56411 3.65344 3.65888 3.67555 3.73518 3.74682 3.78735 3.89313 3.95995 3.96154
 4.08138 4.24581 4.26913 4.29662 4.56551 4.59821 8.14556 8.43551 8.53560 8.69294
 9.35786 9.95036 13.31340 13.85548
 == 723-th k-point (-0.06804,-0.06804,0.61232) occupation: 14==
 -65.00567 -65.00567 -4.62776 -4.62775 -3.03970 -3.03969 -3.03931 -3.03928 -3.03894 -3.03894
 -0.01353 -0.00736 0.14866 0.17270 0.30602 0.33667 0.61633 0.62766 0.64520 0.65448
 0.77443 0.77778 0.77871 0.80502 0.92867 0.93934 1.00812 1.01712 1.03240 1.06808
 1.08090 1.11004 1.18338 1.22561 1.37332 1.42646 1.47341 1.52053 1.55699 1.58953
 1.61655 1.62419 1.69775 1.72062 1.72105 1.75389 1.82080 1.84822 1.89839 1.89907
 2.04027 2.06805 2.09601 2.14047 2.22829 2.25223 2.30627 2.30654 2.34069 2.40024
 2.40529 2.44916 2.49537 2.51257 2.53117 2.62812 2.72041 2.75052 2.76652 2.79550
 2.85291 2.87562 2.91839 2.95825 2.98756 3.03465 3.03941 3.04367 3.10105 3.13643
 3.21357 3.24044 3.24903 3.25155 3.27589 3.31610 3.38350 3.41907 3.50117 3.52188
 3.54651 3.55776 3.66518 3.68041 3.69594 3.73430 3.92664 3.96876 3.97547 4.03341
 4.22748 4.28160 4.33333 4.33468 4.59409 4.62019 8.27166 8.35766 8.61753 8.62712
 9.52551 9.88689 13.39898 13.40131
 == 724-th k-point (0.00000,0.00000,0.54429) occupation: 14==
 -65.00567 -65.00567 -4.62778 -4.62773 -3.03969 -3.03969 -3.03935 -3.03924 -3.03895 -3.03895
 -0.04202 0.02110 0.17131 0.17131 0.29758 0.31248 0.62169 0.62169 0.70728 0.71570
 0.71570 0.72097 0.77788 0.78562 0.92750 0.95226 0.95227 0.98950 1.07297 1.08022
 1.08023 1.12430 1.20955 1.26641 1.36983 1.36985 1.48596 1.55266 1.55267 1.62560
 1.62920 1.63404 1.71100 1.72817 1.74767 1.74768 1.81472 1.81491 1.85397 1.86966
 2.03567 2.03608 2.08697 2.14519 2.14545 2.25076 2.28724 2.35048 2.35822 2.41702
 2.41706 2.44995 2.52068 2.52126 2.55604 2.55635 2.72697 2.74577 2.80024 2.80059
 2.87332 2.87369 2.93814 2.94981 2.97372 2.99740 3.03399 3.03413 3.06615 3.11146
 3.22736 3.23005 3.23040 3.30482 3.30501 3.30994 3.44887 3.45109 3.48950 3.49416
 3.56043 3.56096 3.58146 3.68961 3.73214 3.73477 3.92827 3.92882 3.98061 4.15097
 4.27703 4.27775 4.31274 4.38385 4.61386 4.61771 8.14399 8.52962 8.54086 8.54118
 9.86468 9.87195 13.37632 13.38679
 == 725-th k-point (0.06804,0.06804,0.47625) occupation: 14==
 -65.00567 -65.00567 -4.62780 -4.62771 -3.03969 -3.03968 -3.03941 -3.03919 -3.03896 -3.03895
 -0.06685 0.05292 0.15887 0.17978 0.31177 0.35152 0.55604 0.55797 0.69651 0.70156
 0.71711 0.72198 0.82117 0.83316 0.86274 0.92432 0.94529 0.99504 1.08119 1.13631
 1.15925 1.18386 1.21020 1.28018 1.35767 1.36009 1.44276 1.51441 1.53061 1.57724
 1.63248 1.66025 1.70711 1.73226 1.75031 1.79119 1.81918 1.85270 1.86293 1.93048
 1.97599 2.04817 2.06320 2.15527 2.17507 2.19720 2.20593 2.36416 2.38411 2.39249
 2.43589 2.43881 2.52927 2.53539 2.60225 2.60443 2.66293 2.76905 2.81507 2.83654
 2.85827 2.88821 2.89275 2.92575 2.94455 2.98854 3.00605 3.02309 3.08667 3.17220
 3.23340 3.23492 3.25626 3.33309 3.33599 3.36167 3.40624 3.44483 3.52724 3.52799
 3.54823 3.55625 3.60144 3.68051 3.70907 3.75486 3.88933 3.90971 3.94929 4.12584
 4.16401 4.23405 4.28887 4.35560 4.60704 4.61926 8.05872 8.31386 8.35606 8.78764
 10.23962 10.35372 13.24511 13.47266
 == 726-th k-point (0.13607,0.13607,0.40822) occupation: 14==
 -65.00567 -65.00567 -4.62782 -4.62769 -3.03968 -3.03967 -3.03947 -3.03915 -3.03897 -3.03894
 -0.08216 0.06125 0.16296 0.19682 0.33684 0.43113 0.47119 0.48554 0.66673 0.68459
 0.70342 0.71769 0.76043 0.86123 0.90890 0.97401 0.98609 1.00238 1.07650 1.11887
 1.20077 1.25081 1.26338 1.27913 1.35567 1.39888 1.41147 1.43342 1.51197 1.56936
 1.62023 1.62229 1.66646 1.68420 1.73121 1.79663 1.90204 1.93029 1.94263 1.95109
 2.00649 2.04291 2.06163 2.12817 2.13764 2.14502 2.25895 2.34005 2.35326 2.38138
 2.43885 2.47020 2.50304 2.56827 2.61520 2.63817 2.66978 2.74919 2.79120 2.80100
 2.82123 2.86396 2.89387 2.91765 2.97469 3.03503 3.05058 3.06604 3.10854 3.12440
 3.17557 3.24593 3.31371 3.32630 3.34266 3.37735 3.38623 3.44254 3.51759 3.51840
 3.56981 3.63041 3.65653 3.69469 3.74166 3.79774 3.81957 3.85627 3.86428 4.02534
 4.06669 4.17688 4.26198 4.31425 4.56987 4.57787 8.01348 8.25536 8.25583 9.05406
 9.99758 10.29066 13.07201 14.14226
 == 727-th k-point (0.20411,0.20411,0.34018) occupation: 14==
 -65.00568 -65.00567 -4.62783 -4.62768 -3.03967 -3.03966 -3.03952 -3.03910 -3.03898 -3.03894
 -0.08764 0.04360 0.20307 0.21807 0.35775 0.40186 0.42808 0.52698 0.60648 0.66176
 0.68460 0.72035 0.74860 0.84951 0.91827 0.96061 1.01983 1.09692 1.11274 1.15980
 1.19243 1.21040 1.30089 1.31777 1.33295 1.39919 1.42141 1.43870 1.48354 1.51308
 1.55589 1.61120 1.68120 1.72240 1.74312 1.79690 1.85750 1.90989 1.96404 1.98890
 1.99257 2.07356 2.10439 2.17405 2.17801 2.24964 2.25178 2.31547 2.32731 2.40019
 2.40719 2.40783 2.53908 2.57523 2.62943 2.64154 2.75419 2.77129 2.77621 2.79435
 2.79683 2.86889 2.87011 2.91172 2.94292 3.01579 3.05308 3.07003 3.09158 3.12303
 3.14522 3.21377 3.27733 3.28072 3.38981 3.43079 3.44653 3.49322 3.54019 3.55567
 3.57425 3.64874 3.65789 3.70618 3.74604 3.76617 3.81988 3.84560 3.94982 3.96297
 4.03698 4.13099 4.22445 4.34695 4.51301 4.52606 8.04051 8.26388 8.29379 9.33178
 9.93863 9.97386 12.51861 14.66605
 == 728-th k-point (0.27214,0.27214,0.27214) occupation: 14==
 -65.00568 -65.00566 -4.62783 -4.62768 -3.03966 -3.03966 -3.03954 -3.03907 -3.03896 -3.03896
 -0.08417 0.02754 0.23145 0.23145 0.33441 0.40080 0.40080 0.55972 0.64074 0.64074
 0.67344 0.73060 0.73060 0.77149 0.94611 1.03525 1.03525 1.07442 1.14325 1.14325
 1.20907 1.26454 1.26454 1.30977 1.30977 1.38166 1.41343 1.48966 1.48966 1.50976
 1.50976 1.58455 1.63244 1.66530 1.87209 1.87209 1.88879 1.90033 1.90033 1.92101
 2.07374 2.07374 2.15872 2.22296 2.22296 2.26978 2.26978 2.27561 2.34492 2.34492
 2.42634 2.42634 2.59046 2.59046 2.59235 2.64912 2.77059 2.79665 2.80151 2.80683
 2.80683 2.80730 2.80730 2.87160 2.98689 3.02762 3.05494 3.05494 3.09970 3.09970
 3.15193 3.15193 3.28583 3.28583 3.31243 3.46772 3.46772 3.54810 3.54925 3.54925
 3.55911 3.68735 3.68735 3.69043 3.74404 3.76442 3.90841 3.90841 3.98866 3.98866
 4.12013 4.12013 4.12470 4.36235 4.46114 4.46114 8.22364 8.22364 8.25520 9.58769
 9.58769 10.01158 11.94987 14.75001
 ---------------------------------------------------------------------------
 VBM is at 364-th k-point with 7.49120 eV
 CBM is at 36-th k-point with 8.09754 eV
 Band gap is 0.60634 eV


           Ground-State Mulliken Net Atomic Charges

      Atom                 Charge (a.u.)          Spin (a.u.)
   --------------------------------------------------------
      1 Si                (0.000000,0.000000)    (0.000000,0.000000)
      2 Si              (-0.000000,-0.000000)    (0.000000,0.000000)
   --------------------------------------------------------
  Sum of atomic charges =     (-0.000000,-0.000000)
  Sum of spin   charges =       (0.000000,0.000000)



 Total job time:  827.46 s.
 Tue Sep  9 05:03:11 2025


        *************************************************************
        *                                                           *
        *  Thank you very much for using QCPBC. Have a nice day.    *
        *                                                           *
        *************************************************************

Running job 1 of 1
