                  Welcome to Q-Chem
           with Periodic Boundary Condition
     A Quantum Leap Into The Future Of Chemistry

 Adam Rettig, Xintian Feng, Meng-Fu Chen, Hieu Dinh, Stephen Quiton,
 Anton Ni, Paul J. Robinson, Jinghong Zhang, Joonho Lee

Contributors to earlier versions of Q-Chem not listed above:
 Evgeny Epifanovsky, Leo Cunha, Jerome F. Gonthier, Kuan-Yu Liu
 Input file: /n/netscratch/joonholee_lab/Lab/hieudinh//si_2_ccpvqz_omega_0.6_888.scratch20250909035303/si_2_ccpvqz_omega_0.6_888.0
 Scratch folder: /n/netscratch/joonholee_lab/Lab/hieudinh//si_2_ccpvqz_omega_0.6_888.scratch20250909035303
 Auxillary files located at: /n/holylabs/LABS/joonholee_lab/Lab/qchem_base/qcaux
 Q-Chem begins on Tue Sep  9 03:53:04 2025

 -------------------------------------------------------------
 User input:
 -------------------------------------------------------------
 $lattice
 3
 0.000000 5.130600 5.130600
 5.130600 0.000000 5.130600
 5.130600 5.130600 0.000000
 $end
 
 $unitcell
 ABSOLUTE
 0 1
 Si 0.000000 0.000000 0.000000
 Si 2.565300 2.565300 2.565300
 $end
 
 $rem
 jobtype = sp
 method = pbe
 scf_convergence = 5
 scf_guess = autosad
 scf_algorithm = diis_gdm
 basis = cc-pvqz
 aux_basis = cc-pvqz-jk
 input_bohr = true
 symmetry = false
 rsdf_print_level 1
 is_basis_uctr true
 
 mp_mesh = [8,8,8]
 
 integral_direct true
 bvk_cgto true
 
 thresh 14
 mem_total 1000000
 threads 32
 
 MAX_SCF_CYCLES 500
 madelung = false
 omega 0.6
 do_rij_bigmem true
 automate_g true
 print_level 10
 grid_type_xc 1
 
 thresh_1e2c_sp 1e-14
 thresh_2e3c_bra_ket_sep 1e-10
 thresh_g 1e-12
 $end
 
 -------------------------------------------------------------
 Running PBC job

 Requested Exchange Correlation Functionals: 
  DFT Exchange:  1.00000 pbe_x
  DFT Correlation:  1.00000 pbe_c
 using 32 threads for computing.
 ---------------------------------------------------------------
      Coordinates of Atoms in Central Unit Cell (Angstroms)
    I     Atom         X            Y            Z
 ---------------------------------------------------------------
    1      Si      0.000000     0.000000     0.000000
    2      Si      1.357498     1.357498     1.357498
 ---------------------------------------------------------------
 --------------------------------------------------
              Lattice Vectors (Angstroms)
              X            Y            Z
 --------------------------------------------------
   X       0.000000     2.714997     2.714997
   Y       2.714997     0.000000     2.714997
   Z       2.714997     2.714997     0.000000
 --------------------------------------------------
 --------------------------------------------------
       Reciprocal Lattice Vectors (Angstroms^-1)
              X            Y            Z
 --------------------------------------------------
   X      -1.157126     1.157126     1.157126
   Y       1.157126    -1.157126     1.157126
   Z       1.157126     1.157126    -1.157126
 --------------------------------------------------

 Single point calculation requested

 Hamiltonian contributions:
 List of terms in Hamiltonian: kpts_nn, kpts_kinetic, kpts_vnuc_df, kpts_xc, kpts_rij_bigmem

 K-Points calculation started.

 Basis set information about using solid harmonic (1) or Cartesian (0):
  si : D(1) D(1) D(1) F(1) F(1) G(1) 

 Basis set information about using solid harmonic (1) or Cartesian (0):
  si : D(1) D(1) D(1) D(1) D(1) D(1) D(1) D(1) D(1) F(1) F(1) F(1) F(1) G(1) G(1) H(1) 

 There are 118 basis functions in the central unit cell.
 Print atomic basis of atoms in the central unit cell:
 -------------------------------------------------------------
2 66 134 28

  0.00000000000000e+00  0.00000000000000e+00  0.00000000000000e+00
  2.56530000000000e+00  2.56530000000000e+00  2.56530000000000e+00

  5.13000000000000e+05
  7.68200000000000e+04
  1.74700000000000e+04
  4.93500000000000e+03
  1.60200000000000e+03
  5.74100000000000e+02
  2.21500000000000e+02
  9.05400000000000e+01
  3.87400000000000e+01
  1.69500000000000e+01
  6.45200000000000e+00
  2.87400000000000e+00
  1.25000000000000e+00
  3.59900000000000e-01
  1.69900000000000e-01
  7.06600000000000e-02
  1.12200000000000e+03
  2.66000000000000e+02
  8.59200000000000e+01
  3.23300000000000e+01
  1.33700000000000e+01
  5.80000000000000e+00
  2.55900000000000e+00
  1.12400000000000e+00
  3.98800000000000e-01
  1.53300000000000e-01
  5.72800000000000e-02
  7.60000000000000e-01
  3.02000000000000e-01
  1.20000000000000e-01
  5.41000000000000e-01
  2.12000000000000e-01
  4.61000000000000e-01
  5.13000000000000e+05
  7.68200000000000e+04
  1.74700000000000e+04
  4.93500000000000e+03
  1.60200000000000e+03
  5.74100000000000e+02
  2.21500000000000e+02
  9.05400000000000e+01
  3.87400000000000e+01
  1.69500000000000e+01
  6.45200000000000e+00
  2.87400000000000e+00
  1.25000000000000e+00
  3.59900000000000e-01
  1.69900000000000e-01
  7.06600000000000e-02
  1.12200000000000e+03
  2.66000000000000e+02
  8.59200000000000e+01
  3.23300000000000e+01
  1.33700000000000e+01
  5.80000000000000e+00
  2.55900000000000e+00
  1.12400000000000e+00
  3.98800000000000e-01
  1.53300000000000e-01
  5.72800000000000e-02
  7.60000000000000e-01
  3.02000000000000e-01
  1.20000000000000e-01
  5.41000000000000e-01
  2.12000000000000e-01
  4.61000000000000e-01

  3.56439732356011e-01
  6.67250935594825e-01
  1.15567538346971e+00
  1.89079471139597e+00
  2.92997535092854e+00
  4.25377897422013e+00
  5.53035652706994e+00
  5.88407857713363e+00
  4.26432221020809e+00
  1.46246852660687e+00
  9.90009037975635e-02
 -5.26805361731285e-03
  1.58075269248041e-03
 -9.63604858609034e-02
 -1.80140685379119e-01
 -3.12991611081079e-01
 -5.12013980868736e-01
 -8.03092560139717e-01
 -1.18597193899895e+00
 -1.63453354628192e+00
 -1.94138718043020e+00
 -1.86039340932271e+00
 -9.21642524314205e-01
  4.93552860211257e-01
  9.09065541611183e-01
  3.40430003714153e-01
  4.89002727192571e-02
  9.13245846186842e-02
  1.58921585782757e-01
  2.59526822498432e-01
  4.08347517411705e-01
  6.02266139654795e-01
  8.36774006155092e-01
  9.98775610751853e-01
  9.86583994360998e-01
  5.01500269670235e-01
 -2.91439000418814e-01
 -6.84883633703988e-01
 -4.85138432421684e-01
  3.31166560285492e-01
  1.88605835767988e-01
  9.76765512168845e-02
  4.17977074735086e+00
  5.88843070847456e+00
  7.44317185052013e+00
  8.05001094515016e+00
  6.97099017282640e+00
  4.33955185260449e+00
  1.76355858703549e+00
  3.34437932089088e-01
 -4.09551658476811e+00
 -5.70145272051300e+00
 -7.35388974061730e+00
 -7.93663059323219e+00
 -7.17813870370958e+00
 -4.42768957771269e+00
 -2.05517820096269e+00
 -1.72105843348797e-01
  4.51735295769850e-01
  1.36731249153695e-01
  3.99432914781939e-02
  1.01820035164008e+00
  2.02498404800701e-01
  4.02695370421242e-02
  3.69528803814005e-01
  4.48962571437413e-02
  1.32316184864580e-01
  3.56439732356011e-01
  6.67250935594825e-01
  1.15567538346971e+00
  1.89079471139597e+00
  2.92997535092854e+00
  4.25377897422013e+00
  5.53035652706994e+00
  5.88407857713363e+00
  4.26432221020809e+00
  1.46246852660687e+00
  9.90009037975635e-02
 -5.26805361731285e-03
  1.58075269248041e-03
 -9.63604858609034e-02
 -1.80140685379119e-01
 -3.12991611081079e-01
 -5.12013980868736e-01
 -8.03092560139717e-01
 -1.18597193899895e+00
 -1.63453354628192e+00
 -1.94138718043020e+00
 -1.86039340932271e+00
 -9.21642524314205e-01
  4.93552860211257e-01
  9.09065541611183e-01
  3.40430003714153e-01
  4.89002727192571e-02
  9.13245846186842e-02
  1.58921585782757e-01
  2.59526822498432e-01
  4.08347517411705e-01
  6.02266139654795e-01
  8.36774006155092e-01
  9.98775610751853e-01
  9.86583994360998e-01
  5.01500269670235e-01
 -2.91439000418814e-01
 -6.84883633703988e-01
 -4.85138432421684e-01
  3.31166560285492e-01
  1.88605835767988e-01
  9.76765512168845e-02
  4.17977074735086e+00
  5.88843070847456e+00
  7.44317185052013e+00
  8.05001094515016e+00
  6.97099017282640e+00
  4.33955185260449e+00
  1.76355858703549e+00
  3.34437932089088e-01
 -4.09551658476811e+00
 -5.70145272051300e+00
 -7.35388974061730e+00
 -7.93663059323219e+00
 -7.17813870370958e+00
 -4.42768957771269e+00
 -2.05517820096269e+00
 -1.72105843348797e-01
  4.51735295769850e-01
  1.36731249153695e-01
  3.99432914781939e-02
  1.01820035164008e+00
  2.02498404800701e-01
  4.02695370421242e-02
  3.69528803814005e-01
  4.48962571437413e-02
  1.32316184864580e-01

0 0 0 0 3 3 3
0 0 13 0 26 0 
13 0

0 3 3 13 1 1 1
39 0 
1 0

0 4 4 14 1 1 1
40 0 
1 0

0 5 5 15 1 1 1
41 0 
1 0

0 6 6 16 2 6 6
42 1 50 1 
8 0

0 12 12 24 1 3 3
58 1 
1 0

0 15 15 25 1 3 3
59 1 
1 0

0 18 18 26 1 3 3
60 1 
1 0

0 21 21 27 1 5 6
61 2 
1 1

0 26 26 28 1 5 6
62 2 
1 1

0 31 31 29 1 5 6
63 2 
1 1

0 36 36 30 1 7 10
64 3 
1 1

0 43 43 31 1 7 10
65 3 
1 1

0 50 50 32 1 9 15
66 4 
1 1

1 59 59 33 3 3 3
67 0 80 0 93 0 
13 0

1 62 62 46 1 1 1
106 0 
1 0

1 63 63 47 1 1 1
107 0 
1 0

1 64 64 48 1 1 1
108 0 
1 0

1 65 65 49 2 6 6
109 1 117 1 
8 0

1 71 71 57 1 3 3
125 1 
1 0

1 74 74 58 1 3 3
126 1 
1 0

1 77 77 59 1 3 3
127 1 
1 0

1 80 80 60 1 5 6
128 2 
1 1

1 85 85 61 1 5 6
129 2 
1 1

1 90 90 62 1 5 6
130 2 
1 1

1 95 95 63 1 7 10
131 3 
1 1

1 102 102 64 1 7 10
132 3 
1 1

1 109 109 65 1 9 15
133 4 
1 1

 -------------------------------------------------------------
 Allocate 265256 B from available memory: 1048576000000 B
 There are 2197 image cells after screening.
 There are 2061 image cells for CGTO evaluation after screening.
 Real-Space grid for FFT initialized based on kinetic energy cutoff (eV) = 500.0
 Real-Space grid for FFT: (10,10,10)
 There are 9261 real-space grid points.
 There are 64 batches of real-space grid points. 
 Size of each grid batch is around 128
 Grid for AFT initialized based on kinetic energy cutoff (eV) = 500.0
 Real-Space grid for AFT: (10,10,10)
 There are 9261 real-space grid points.

 There are 5628 atom-centered grid points.

 Spacegroup symmetry group: Fd-3m
 Reducing spacegroup symmetry to symmorphic group: F -4 3 m
 Monkhorst-Pack mesh is [8,8,8]
 There are 512 k points.
kpoints in Bohr
-0.2296217294 -0.2296217294 -0.2296217294
-0.1530811530 -0.1530811530 -0.3061623059
-0.0765405765 -0.0765405765 -0.3827028824
-0.0000000000 -0.0000000000 -0.4592434589
0.0765405765 0.0765405765 -0.5357840354
0.1530811530 0.1530811530 -0.6123246119
0.2296217294 0.2296217294 -0.6888651883
0.3061623059 0.3061623059 -0.7654057648
-0.1530811530 -0.3061623059 -0.1530811530
-0.0765405765 -0.2296217294 -0.2296217294
-0.0000000000 -0.1530811530 -0.3061623059
0.0765405765 -0.0765405765 -0.3827028824
0.1530811530 -0.0000000000 -0.4592434589
0.2296217294 0.0765405765 -0.5357840354
0.3061623059 0.1530811530 -0.6123246119
0.3827028824 0.2296217294 -0.6888651883
-0.0765405765 -0.3827028824 -0.0765405765
-0.0000000000 -0.3061623059 -0.1530811530
0.0765405765 -0.2296217294 -0.2296217294
0.1530811530 -0.1530811530 -0.3061623059
0.2296217294 -0.0765405765 -0.3827028824
0.3061623059 -0.0000000000 -0.4592434589
0.3827028824 0.0765405765 -0.5357840354
0.4592434589 0.1530811530 -0.6123246119
-0.0000000000 -0.4592434589 0.0000000000
0.0765405765 -0.3827028824 -0.0765405765
0.1530811530 -0.3061623059 -0.1530811530
0.2296217294 -0.2296217294 -0.2296217294
0.3061623059 -0.1530811530 -0.3061623059
0.3827028824 -0.0765405765 -0.3827028824
0.4592434589 0.0000000000 -0.4592434589
0.5357840354 0.0765405765 -0.5357840354
0.0765405765 -0.5357840354 0.0765405765
0.1530811530 -0.4592434589 0.0000000000
0.2296217294 -0.3827028824 -0.0765405765
0.3061623059 -0.3061623059 -0.1530811530
0.3827028824 -0.2296217294 -0.2296217294
0.4592434589 -0.1530811530 -0.3061623059
0.5357840354 -0.0765405765 -0.3827028824
0.6123246119 0.0000000000 -0.4592434589
0.1530811530 -0.6123246119 0.1530811530
0.2296217294 -0.5357840354 0.0765405765
0.3061623059 -0.4592434589 0.0000000000
0.3827028824 -0.3827028824 -0.0765405765
0.4592434589 -0.3061623059 -0.1530811530
0.5357840354 -0.2296217294 -0.2296217294
0.6123246119 -0.1530811530 -0.3061623059
0.6888651883 -0.0765405765 -0.3827028824
0.2296217294 -0.6888651883 0.2296217294
0.3061623059 -0.6123246119 0.1530811530
0.3827028824 -0.5357840354 0.0765405765
0.4592434589 -0.4592434589 0.0000000000
0.5357840354 -0.3827028824 -0.0765405765
0.6123246119 -0.3061623059 -0.1530811530
0.6888651883 -0.2296217294 -0.2296217294
0.7654057648 -0.1530811530 -0.3061623059
0.3061623059 -0.7654057648 0.3061623059
0.3827028824 -0.6888651883 0.2296217294
0.4592434589 -0.6123246119 0.1530811530
0.5357840354 -0.5357840354 0.0765405765
0.6123246119 -0.4592434589 0.0000000000
0.6888651883 -0.3827028824 -0.0765405765
0.7654057648 -0.3061623059 -0.1530811530
0.8419463413 -0.2296217294 -0.2296217294
-0.3061623059 -0.1530811530 -0.1530811530
-0.2296217294 -0.0765405765 -0.2296217294
-0.1530811530 -0.0000000000 -0.3061623059
-0.0765405765 0.0765405765 -0.3827028824
-0.0000000000 0.1530811530 -0.4592434589
0.0765405765 0.2296217294 -0.5357840354
0.1530811530 0.3061623059 -0.6123246119
0.2296217294 0.3827028824 -0.6888651883
-0.2296217294 -0.2296217294 -0.0765405765
-0.1530811530 -0.1530811530 -0.1530811530
-0.0765405765 -0.0765405765 -0.2296217294
-0.0000000000 -0.0000000000 -0.3061623059
0.0765405765 0.0765405765 -0.3827028824
0.1530811530 0.1530811530 -0.4592434589
0.2296217294 0.2296217294 -0.5357840354
0.3061623059 0.3061623059 -0.6123246119
-0.1530811530 -0.3061623059 -0.0000000000
-0.0765405765 -0.2296217294 -0.0765405765
-0.0000000000 -0.1530811530 -0.1530811530
0.0765405765 -0.0765405765 -0.2296217294
0.1530811530 -0.0000000000 -0.3061623059
0.2296217294 0.0765405765 -0.3827028824
0.3061623059 0.1530811530 -0.4592434589
0.3827028824 0.2296217294 -0.5357840354
-0.0765405765 -0.3827028824 0.0765405765
-0.0000000000 -0.3061623059 0.0000000000
0.0765405765 -0.2296217294 -0.0765405765
0.1530811530 -0.1530811530 -0.1530811530
0.2296217294 -0.0765405765 -0.2296217294
0.3061623059 0.0000000000 -0.3061623059
0.3827028824 0.0765405765 -0.3827028824
0.4592434589 0.1530811530 -0.4592434589
-0.0000000000 -0.4592434589 0.1530811530
0.0765405765 -0.3827028824 0.0765405765
0.1530811530 -0.3061623059 0.0000000000
0.2296217294 -0.2296217294 -0.0765405765
0.3061623059 -0.1530811530 -0.1530811530
0.3827028824 -0.0765405765 -0.2296217294
0.4592434589 0.0000000000 -0.3061623059
0.5357840354 0.0765405765 -0.3827028824
0.0765405765 -0.5357840354 0.2296217294
0.1530811530 -0.4592434589 0.1530811530
0.2296217294 -0.3827028824 0.0765405765
0.3061623059 -0.3061623059 0.0000000000
0.3827028824 -0.2296217294 -0.0765405765
0.4592434589 -0.1530811530 -0.1530811530
0.5357840354 -0.0765405765 -0.2296217294
0.6123246119 0.0000000000 -0.3061623059
0.1530811530 -0.6123246119 0.3061623059
0.2296217294 -0.5357840354 0.2296217294
0.3061623059 -0.4592434589 0.1530811530
0.3827028824 -0.3827028824 0.0765405765
0.4592434589 -0.3061623059 0.0000000000
0.5357840354 -0.2296217294 -0.0765405765
0.6123246119 -0.1530811530 -0.1530811530
0.6888651883 -0.0765405765 -0.2296217294
0.2296217294 -0.6888651883 0.3827028824
0.3061623059 -0.6123246119 0.3061623059
0.3827028824 -0.5357840354 0.2296217294
0.4592434589 -0.4592434589 0.1530811530
0.5357840354 -0.3827028824 0.0765405765
0.6123246119 -0.3061623059 0.0000000000
0.6888651883 -0.2296217294 -0.0765405765
0.7654057648 -0.1530811530 -0.1530811530
-0.3827028824 -0.0765405765 -0.0765405765
-0.3061623059 -0.0000000000 -0.1530811530
-0.2296217294 0.0765405765 -0.2296217294
-0.1530811530 0.1530811530 -0.3061623059
-0.0765405765 0.2296217294 -0.3827028824
0.0000000000 0.3061623059 -0.4592434589
0.0765405765 0.3827028824 -0.5357840354
0.1530811530 0.4592434589 -0.6123246119
-0.3061623059 -0.1530811530 -0.0000000000
-0.2296217294 -0.0765405765 -0.0765405765
-0.1530811530 -0.0000000000 -0.1530811530
-0.0765405765 0.0765405765 -0.2296217294
-0.0000000000 0.1530811530 -0.3061623059
0.0765405765 0.2296217294 -0.3827028824
0.1530811530 0.3061623059 -0.4592434589
0.2296217294 0.3827028824 -0.5357840354
-0.2296217294 -0.2296217294 0.0765405765
-0.1530811530 -0.1530811530 -0.0000000000
-0.0765405765 -0.0765405765 -0.0765405765
-0.0000000000 -0.0000000000 -0.1530811530
0.0765405765 0.0765405765 -0.2296217294
0.1530811530 0.1530811530 -0.3061623059
0.2296217294 0.2296217294 -0.3827028824
0.3061623059 0.3061623059 -0.4592434589
-0.1530811530 -0.3061623059 0.1530811530
-0.0765405765 -0.2296217294 0.0765405765
-0.0000000000 -0.1530811530 0.0000000000
0.0765405765 -0.0765405765 -0.0765405765
0.1530811530 0.0000000000 -0.1530811530
0.2296217294 0.0765405765 -0.2296217294
0.3061623059 0.1530811530 -0.3061623059
0.3827028824 0.2296217294 -0.3827028824
-0.0765405765 -0.3827028824 0.2296217294
-0.0000000000 -0.3061623059 0.1530811530
0.0765405765 -0.2296217294 0.0765405765
0.1530811530 -0.1530811530 0.0000000000
0.2296217294 -0.0765405765 -0.0765405765
0.3061623059 0.0000000000 -0.1530811530
0.3827028824 0.0765405765 -0.2296217294
0.4592434589 0.1530811530 -0.3061623059
-0.0000000000 -0.4592434589 0.3061623059
0.0765405765 -0.3827028824 0.2296217294
0.1530811530 -0.3061623059 0.1530811530
0.2296217294 -0.2296217294 0.0765405765
0.3061623059 -0.1530811530 0.0000000000
0.3827028824 -0.0765405765 -0.0765405765
0.4592434589 0.0000000000 -0.1530811530
0.5357840354 0.0765405765 -0.2296217294
0.0765405765 -0.5357840354 0.3827028824
0.1530811530 -0.4592434589 0.3061623059
0.2296217294 -0.3827028824 0.2296217294
0.3061623059 -0.3061623059 0.1530811530
0.3827028824 -0.2296217294 0.0765405765
0.4592434589 -0.1530811530 0.0000000000
0.5357840354 -0.0765405765 -0.0765405765
0.6123246119 0.0000000000 -0.1530811530
0.1530811530 -0.6123246119 0.4592434589
0.2296217294 -0.5357840354 0.3827028824
0.3061623059 -0.4592434589 0.3061623059
0.3827028824 -0.3827028824 0.2296217294
0.4592434589 -0.3061623059 0.1530811530
0.5357840354 -0.2296217294 0.0765405765
0.6123246119 -0.1530811530 0.0000000000
0.6888651883 -0.0765405765 -0.0765405765
-0.4592434589 -0.0000000000 -0.0000000000
-0.3827028824 0.0765405765 -0.0765405765
-0.3061623059 0.1530811530 -0.1530811530
-0.2296217294 0.2296217294 -0.2296217294
-0.1530811530 0.3061623059 -0.3061623059
-0.0765405765 0.3827028824 -0.3827028824
0.0000000000 0.4592434589 -0.4592434589
0.0765405765 0.5357840354 -0.5357840354
-0.3827028824 -0.0765405765 0.0765405765
-0.3061623059 -0.0000000000 -0.0000000000
-0.2296217294 0.0765405765 -0.0765405765
-0.1530811530 0.1530811530 -0.1530811530
-0.0765405765 0.2296217294 -0.2296217294
0.0000000000 0.3061623059 -0.3061623059
0.0765405765 0.3827028824 -0.3827028824
0.1530811530 0.4592434589 -0.4592434589
-0.3061623059 -0.1530811530 0.1530811530
-0.2296217294 -0.0765405765 0.0765405765
-0.1530811530 -0.0000000000 -0.0000000000
-0.0765405765 0.0765405765 -0.0765405765
0.0000000000 0.1530811530 -0.1530811530
0.0765405765 0.2296217294 -0.2296217294
0.1530811530 0.3061623059 -0.3061623059
0.2296217294 0.3827028824 -0.3827028824
-0.2296217294 -0.2296217294 0.2296217294
-0.1530811530 -0.1530811530 0.1530811530
-0.0765405765 -0.0765405765 0.0765405765
0.0000000000 0.0000000000 0.0000000000
0.0765405765 0.0765405765 -0.0765405765
0.1530811530 0.1530811530 -0.1530811530
0.2296217294 0.2296217294 -0.2296217294
0.3061623059 0.3061623059 -0.3061623059
-0.1530811530 -0.3061623059 0.3061623059
-0.0765405765 -0.2296217294 0.2296217294
-0.0000000000 -0.1530811530 0.1530811530
0.0765405765 -0.0765405765 0.0765405765
0.1530811530 0.0000000000 0.0000000000
0.2296217294 0.0765405765 -0.0765405765
0.3061623059 0.1530811530 -0.1530811530
0.3827028824 0.2296217294 -0.2296217294
-0.0765405765 -0.3827028824 0.3827028824
-0.0000000000 -0.3061623059 0.3061623059
0.0765405765 -0.2296217294 0.2296217294
0.1530811530 -0.1530811530 0.1530811530
0.2296217294 -0.0765405765 0.0765405765
0.3061623059 0.0000000000 0.0000000000
0.3827028824 0.0765405765 -0.0765405765
0.4592434589 0.1530811530 -0.1530811530
-0.0000000000 -0.4592434589 0.4592434589
0.0765405765 -0.3827028824 0.3827028824
0.1530811530 -0.3061623059 0.3061623059
0.2296217294 -0.2296217294 0.2296217294
0.3061623059 -0.1530811530 0.1530811530
0.3827028824 -0.0765405765 0.0765405765
0.4592434589 0.0000000000 0.0000000000
0.5357840354 0.0765405765 -0.0765405765
0.0765405765 -0.5357840354 0.5357840354
0.1530811530 -0.4592434589 0.4592434589
0.2296217294 -0.3827028824 0.3827028824
0.3061623059 -0.3061623059 0.3061623059
0.3827028824 -0.2296217294 0.2296217294
0.4592434589 -0.1530811530 0.1530811530
0.5357840354 -0.0765405765 0.0765405765
0.6123246119 0.0000000000 0.0000000000
-0.5357840354 0.0765405765 0.0765405765
-0.4592434589 0.1530811530 -0.0000000000
-0.3827028824 0.2296217294 -0.0765405765
-0.3061623059 0.3061623059 -0.1530811530
-0.2296217294 0.3827028824 -0.2296217294
-0.1530811530 0.4592434589 -0.3061623059
-0.0765405765 0.5357840354 -0.3827028824
0.0000000000 0.6123246119 -0.4592434589
-0.4592434589 -0.0000000000 0.1530811530
-0.3827028824 0.0765405765 0.0765405765
-0.3061623059 0.1530811530 -0.0000000000
-0.2296217294 0.2296217294 -0.0765405765
-0.1530811530 0.3061623059 -0.1530811530
-0.0765405765 0.3827028824 -0.2296217294
0.0000000000 0.4592434589 -0.3061623059
0.0765405765 0.5357840354 -0.3827028824
-0.3827028824 -0.0765405765 0.2296217294
-0.3061623059 -0.0000000000 0.1530811530
-0.2296217294 0.0765405765 0.0765405765
-0.1530811530 0.1530811530 -0.0000000000
-0.0765405765 0.2296217294 -0.0765405765
0.0000000000 0.3061623059 -0.1530811530
0.0765405765 0.3827028824 -0.2296217294
0.1530811530 0.4592434589 -0.3061623059
-0.3061623059 -0.1530811530 0.3061623059
-0.2296217294 -0.0765405765 0.2296217294
-0.1530811530 0.0000000000 0.1530811530
-0.0765405765 0.0765405765 0.0765405765
0.0000000000 0.1530811530 0.0000000000
0.0765405765 0.2296217294 -0.0765405765
0.1530811530 0.3061623059 -0.1530811530
0.2296217294 0.3827028824 -0.2296217294
-0.2296217294 -0.2296217294 0.3827028824
-0.1530811530 -0.1530811530 0.3061623059
-0.0765405765 -0.0765405765 0.2296217294
0.0000000000 0.0000000000 0.1530811530
0.0765405765 0.0765405765 0.0765405765
0.1530811530 0.1530811530 0.0000000000
0.2296217294 0.2296217294 -0.0765405765
0.3061623059 0.3061623059 -0.1530811530
-0.1530811530 -0.3061623059 0.4592434589
-0.0765405765 -0.2296217294 0.3827028824
0.0000000000 -0.1530811530 0.3061623059
0.0765405765 -0.0765405765 0.2296217294
0.1530811530 0.0000000000 0.1530811530
0.2296217294 0.0765405765 0.0765405765
0.3061623059 0.1530811530 0.0000000000
0.3827028824 0.2296217294 -0.0765405765
-0.0765405765 -0.3827028824 0.5357840354
0.0000000000 -0.3061623059 0.4592434589
0.0765405765 -0.2296217294 0.3827028824
0.1530811530 -0.1530811530 0.3061623059
0.2296217294 -0.0765405765 0.2296217294
0.3061623059 0.0000000000 0.1530811530
0.3827028824 0.0765405765 0.0765405765
0.4592434589 0.1530811530 0.0000000000
0.0000000000 -0.4592434589 0.6123246119
0.0765405765 -0.3827028824 0.5357840354
0.1530811530 -0.3061623059 0.4592434589
0.2296217294 -0.2296217294 0.3827028824
0.3061623059 -0.1530811530 0.3061623059
0.3827028824 -0.0765405765 0.2296217294
0.4592434589 0.0000000000 0.1530811530
0.5357840354 0.0765405765 0.0765405765
-0.6123246119 0.1530811530 0.1530811530
-0.5357840354 0.2296217294 0.0765405765
-0.4592434589 0.3061623059 -0.0000000000
-0.3827028824 0.3827028824 -0.0765405765
-0.3061623059 0.4592434589 -0.1530811530
-0.2296217294 0.5357840354 -0.2296217294
-0.1530811530 0.6123246119 -0.3061623059
-0.0765405765 0.6888651883 -0.3827028824
-0.5357840354 0.0765405765 0.2296217294
-0.4592434589 0.1530811530 0.1530811530
-0.3827028824 0.2296217294 0.0765405765
-0.3061623059 0.3061623059 -0.0000000000
-0.2296217294 0.3827028824 -0.0765405765
-0.1530811530 0.4592434589 -0.1530811530
-0.0765405765 0.5357840354 -0.2296217294
0.0000000000 0.6123246119 -0.3061623059
-0.4592434589 -0.0000000000 0.3061623059
-0.3827028824 0.0765405765 0.2296217294
-0.3061623059 0.1530811530 0.1530811530
-0.2296217294 0.2296217294 0.0765405765
-0.1530811530 0.3061623059 -0.0000000000
-0.0765405765 0.3827028824 -0.0765405765
0.0000000000 0.4592434589 -0.1530811530
0.0765405765 0.5357840354 -0.2296217294
-0.3827028824 -0.0765405765 0.3827028824
-0.3061623059 0.0000000000 0.3061623059
-0.2296217294 0.0765405765 0.2296217294
-0.1530811530 0.1530811530 0.1530811530
-0.0765405765 0.2296217294 0.0765405765
0.0000000000 0.3061623059 0.0000000000
0.0765405765 0.3827028824 -0.0765405765
0.1530811530 0.4592434589 -0.1530811530
-0.3061623059 -0.1530811530 0.4592434589
-0.2296217294 -0.0765405765 0.3827028824
-0.1530811530 0.0000000000 0.3061623059
-0.0765405765 0.0765405765 0.2296217294
0.0000000000 0.1530811530 0.1530811530
0.0765405765 0.2296217294 0.0765405765
0.1530811530 0.3061623059 0.0000000000
0.2296217294 0.3827028824 -0.0765405765
-0.2296217294 -0.2296217294 0.5357840354
-0.1530811530 -0.1530811530 0.4592434589
-0.0765405765 -0.0765405765 0.3827028824
0.0000000000 0.0000000000 0.3061623059
0.0765405765 0.0765405765 0.2296217294
0.1530811530 0.1530811530 0.1530811530
0.2296217294 0.2296217294 0.0765405765
0.3061623059 0.3061623059 0.0000000000
-0.1530811530 -0.3061623059 0.6123246119
-0.0765405765 -0.2296217294 0.5357840354
0.0000000000 -0.1530811530 0.4592434589
0.0765405765 -0.0765405765 0.3827028824
0.1530811530 0.0000000000 0.3061623059
0.2296217294 0.0765405765 0.2296217294
0.3061623059 0.1530811530 0.1530811530
0.3827028824 0.2296217294 0.0765405765
-0.0765405765 -0.3827028824 0.6888651883
0.0000000000 -0.3061623059 0.6123246119
0.0765405765 -0.2296217294 0.5357840354
0.1530811530 -0.1530811530 0.4592434589
0.2296217294 -0.0765405765 0.3827028824
0.3061623059 0.0000000000 0.3061623059
0.3827028824 0.0765405765 0.2296217294
0.4592434589 0.1530811530 0.1530811530
-0.6888651883 0.2296217294 0.2296217294
-0.6123246119 0.3061623059 0.1530811530
-0.5357840354 0.3827028824 0.0765405765
-0.4592434589 0.4592434589 -0.0000000000
-0.3827028824 0.5357840354 -0.0765405765
-0.3061623059 0.6123246119 -0.1530811530
-0.2296217294 0.6888651883 -0.2296217294
-0.1530811530 0.7654057648 -0.3061623059
-0.6123246119 0.1530811530 0.3061623059
-0.5357840354 0.2296217294 0.2296217294
-0.4592434589 0.3061623059 0.1530811530
-0.3827028824 0.3827028824 0.0765405765
-0.3061623059 0.4592434589 -0.0000000000
-0.2296217294 0.5357840354 -0.0765405765
-0.1530811530 0.6123246119 -0.1530811530
-0.0765405765 0.6888651883 -0.2296217294
-0.5357840354 0.0765405765 0.3827028824
-0.4592434589 0.1530811530 0.3061623059
-0.3827028824 0.2296217294 0.2296217294
-0.3061623059 0.3061623059 0.1530811530
-0.2296217294 0.3827028824 0.0765405765
-0.1530811530 0.4592434589 -0.0000000000
-0.0765405765 0.5357840354 -0.0765405765
0.0000000000 0.6123246119 -0.1530811530
-0.4592434589 0.0000000000 0.4592434589
-0.3827028824 0.0765405765 0.3827028824
-0.3061623059 0.1530811530 0.3061623059
-0.2296217294 0.2296217294 0.2296217294
-0.1530811530 0.3061623059 0.1530811530
-0.0765405765 0.3827028824 0.0765405765
0.0000000000 0.4592434589 0.0000000000
0.0765405765 0.5357840354 -0.0765405765
-0.3827028824 -0.0765405765 0.5357840354
-0.3061623059 0.0000000000 0.4592434589
-0.2296217294 0.0765405765 0.3827028824
-0.1530811530 0.1530811530 0.3061623059
-0.0765405765 0.2296217294 0.2296217294
0.0000000000 0.3061623059 0.1530811530
0.0765405765 0.3827028824 0.0765405765
0.1530811530 0.4592434589 0.0000000000
-0.3061623059 -0.1530811530 0.6123246119
-0.2296217294 -0.0765405765 0.5357840354
-0.1530811530 0.0000000000 0.4592434589
-0.0765405765 0.0765405765 0.3827028824
0.0000000000 0.1530811530 0.3061623059
0.0765405765 0.2296217294 0.2296217294
0.1530811530 0.3061623059 0.1530811530
0.2296217294 0.3827028824 0.0765405765
-0.2296217294 -0.2296217294 0.6888651883
-0.1530811530 -0.1530811530 0.6123246119
-0.0765405765 -0.0765405765 0.5357840354
0.0000000000 0.0000000000 0.4592434589
0.0765405765 0.0765405765 0.3827028824
0.1530811530 0.1530811530 0.3061623059
0.2296217294 0.2296217294 0.2296217294
0.3061623059 0.3061623059 0.1530811530
-0.1530811530 -0.3061623059 0.7654057648
-0.0765405765 -0.2296217294 0.6888651883
0.0000000000 -0.1530811530 0.6123246119
0.0765405765 -0.0765405765 0.5357840354
0.1530811530 0.0000000000 0.4592434589
0.2296217294 0.0765405765 0.3827028824
0.3061623059 0.1530811530 0.3061623059
0.3827028824 0.2296217294 0.2296217294
-0.7654057648 0.3061623059 0.3061623059
-0.6888651883 0.3827028824 0.2296217294
-0.6123246119 0.4592434589 0.1530811530
-0.5357840354 0.5357840354 0.0765405765
-0.4592434589 0.6123246119 -0.0000000000
-0.3827028824 0.6888651883 -0.0765405765
-0.3061623059 0.7654057648 -0.1530811530
-0.2296217294 0.8419463413 -0.2296217294
-0.6888651883 0.2296217294 0.3827028824
-0.6123246119 0.3061623059 0.3061623059
-0.5357840354 0.3827028824 0.2296217294
-0.4592434589 0.4592434589 0.1530811530
-0.3827028824 0.5357840354 0.0765405765
-0.3061623059 0.6123246119 -0.0000000000
-0.2296217294 0.6888651883 -0.0765405765
-0.1530811530 0.7654057648 -0.1530811530
-0.6123246119 0.1530811530 0.4592434589
-0.5357840354 0.2296217294 0.3827028824
-0.4592434589 0.3061623059 0.3061623059
-0.3827028824 0.3827028824 0.2296217294
-0.3061623059 0.4592434589 0.1530811530
-0.2296217294 0.5357840354 0.0765405765
-0.1530811530 0.6123246119 0.0000000000
-0.0765405765 0.6888651883 -0.0765405765
-0.5357840354 0.0765405765 0.5357840354
-0.4592434589 0.1530811530 0.4592434589
-0.3827028824 0.2296217294 0.3827028824
-0.3061623059 0.3061623059 0.3061623059
-0.2296217294 0.3827028824 0.2296217294
-0.1530811530 0.4592434589 0.1530811530
-0.0765405765 0.5357840354 0.0765405765
0.0000000000 0.6123246119 0.0000000000
-0.4592434589 0.0000000000 0.6123246119
-0.3827028824 0.0765405765 0.5357840354
-0.3061623059 0.1530811530 0.4592434589
-0.2296217294 0.2296217294 0.3827028824
-0.1530811530 0.3061623059 0.3061623059
-0.0765405765 0.3827028824 0.2296217294
0.0000000000 0.4592434589 0.1530811530
0.0765405765 0.5357840354 0.0765405765
-0.3827028824 -0.0765405765 0.6888651883
-0.3061623059 0.0000000000 0.6123246119
-0.2296217294 0.0765405765 0.5357840354
-0.1530811530 0.1530811530 0.4592434589
-0.0765405765 0.2296217294 0.3827028824
0.0000000000 0.3061623059 0.3061623059
0.0765405765 0.3827028824 0.2296217294
0.1530811530 0.4592434589 0.1530811530
-0.3061623059 -0.1530811530 0.7654057648
-0.2296217294 -0.0765405765 0.6888651883
-0.1530811530 0.0000000000 0.6123246119
-0.0765405765 0.0765405765 0.5357840354
0.0000000000 0.1530811530 0.4592434589
0.0765405765 0.2296217294 0.3827028824
0.1530811530 0.3061623059 0.3061623059
0.2296217294 0.3827028824 0.2296217294
-0.2296217294 -0.2296217294 0.8419463413
-0.1530811530 -0.1530811530 0.7654057648
-0.0765405765 -0.0765405765 0.6888651883
0.0000000000 0.0000000000 0.6123246119
0.0765405765 0.0765405765 0.5357840354
0.1530811530 0.1530811530 0.4592434589
0.2296217294 0.2296217294 0.3827028824
0.3061623059 0.3061623059 0.3061623059
 There are 14 alpha and 14 beta electrons
 Start computing overlap matrix
 Allocate 114065408 B from available memory: 1048575734752 B
 Time for computing overlap matrix: 3.6230000000 s
 ====== Initialize compute kernels for all-electron RI-J (kpts) ====== 
 ========================================================== 
 Range-separated parameter omega        = 0.599999999999999978
 Threshold for 1e2c shellpair           = 0.000000000000010000
 Threshold for 2e2c SR integral         = 0.000000000000000001
 Threshold for 2e3c SR integral         = 0.000000000100000000
 Threshold for AFT G-space screening is = 0.000000000001000000
 The exponent cutoff for C/D classification (omega2 / 2) is  = 0.179999999999999993
 ========================================================== 
 === Post process the basis set for RI calculation (exp_cutoff = 0.179999999999999993 ) === 
nshells_b1 before uncontraction = 28
nshells_b1 after uncontraction = 28
nshells_baux before uncontraction = 80
nshells_baux after uncontraction = 80
===============================================
nbsf total   = 118
nbsf compact = 92
nbsf diffuse = 26
naux total   = 296
naux compact = 296
naux diffuse = 0
nshells_bnuc = 2

 Number of unique atoms is 1
 Unique atom #0 (si) has 9 shells.

Shell 0 to 8 belongs to atom si
Shell 9 to 17 belongs to atom si

 Number of unique atoms is 1
 Unique atom #0 (si) has 5 shells.

Shell 0 to 4 belongs to atom si
Shell 5 to 9 belongs to atom si

 Number of unique atom is 1
 Unique atom #0 (si) has 40 auxiliary shells.

Auxiliary Shell 0 to 39 belongs to atom si
Auxiliary Shell 40 to 79 belongs to atom si

================= Automatically determine grid size for reciprocal space summation =================
 Range-separated parameter = 0.60000000000000 and G-space screening threshold = 0.00000000000100
The number of grid points along each axis dimension is (7, 7, 7)
Total number of grid points = 3375

Use nonortho shellpair for diffuse density
======== Initializing relevant kernel for RIJ (DD type) ========
There are 55 shellpairs in the reference unit cell
There are 3757 images and we expect to have 206635 in total
There are 11898 shellpairs in the lattice sum after screening
======== Initializing relevant kernel for RIJ (CD type) ========
There are 180 shellpairs in the reference unit cell
There are 2659 images and we expect to have 478620 in total
There are 19974 shellpairs in the lattice sum after screening
****** AFT -> SR ******
Maximum bra distance cutoff is 23.000000000000
Maximum bra ket distance cutoff is 24.132153614458
Maximum bra ket screening distance is 21.593750000000
Number of auxiliary image is 647
There are 180 shellpairs in the reference unit cell
There are 551 images and we expect to have 99180 in total
There are 19974 shellpairs in the lattice sum after screening
Available memory per thread for 2e3c calculation is 32.764427167000Gb
Finish initializing 2e3c SR with the lattice sum!
=================================================
======== Initializing relevant kernel for RIJ (CC type) ========
There are 171 shellpairs in the reference unit cell
There are 1241 images and we expect to have 212211 in total
There are 4082 shellpairs in the lattice sum after screening
****** AFT -> SR ******
Maximum bra distance cutoff is 15.000000000000
Maximum bra ket distance cutoff is 25.131175705795
Maximum bra ket screening distance is 21.156250000000
Number of auxiliary image is 647
There are 171 shellpairs in the reference unit cell
There are 237 images and we expect to have 40527 in total
There are 4082 shellpairs in the lattice sum after screening
Available memory per thread for 2e3c calculation is 32.764427167000Gb
Finish initializing 2e3c SR with the lattice sum!
=================================================
======== Initializing the SR component for Vnuc (CD type) ========
Maximum bra distance cutoff is 23.000000000000
Maximum bra ket distance cutoff is 16.737418337388
Maximum bra ket screening distance is 14.115333913559
Number of auxiliary image is 551
There are 180 shellpairs in the reference unit cell
There are 551 images and we expect to have 99180 in total
There are 19974 shellpairs in the lattice sum after screening
Available memory per thread for 2e3c calculation is 32.764427167000Gb
Finish initializing 2e3c SR with the lattice sum!
=================================================
======== Initialize the SR component for Vnuc (CC type) ========
Maximum bra distance cutoff is 15.000000000000
Maximum bra ket distance cutoff is 17.743801426189
Maximum bra ket screening distance is 13.222397966002
Number of auxiliary image is 285
There are 171 shellpairs in the reference unit cell
There are 237 images and we expect to have 40527 in total
There are 4082 shellpairs in the lattice sum after screening
Available memory per thread for 2e3c calculation is 32.764427167000Gb
Finish initializing 2e3c SR with the lattice sum!
=================================================
 Aufbau occupation scheme, occupation determined by eigenvalue
 == 0-th k-point nmo = 114 (-0.22962,-0.22962,-0.22962) ==
 == 1-th k-point nmo = 114 (-0.15308,-0.15308,-0.30616) ==
 == 2-th k-point nmo = 114 (-0.07654,-0.07654,-0.38270) ==
 == 3-th k-point nmo = 114 (-0.00000,-0.00000,-0.45924) ==
 == 4-th k-point nmo = 114 (0.07654,0.07654,-0.53578) ==
 == 5-th k-point nmo = 114 (0.15308,0.15308,-0.61232) ==
 == 6-th k-point nmo = 114 (0.22962,0.22962,-0.68887) ==
 == 7-th k-point nmo = 114 (0.30616,0.30616,-0.76541) ==
 == 8-th k-point nmo = 114 (-0.15308,-0.30616,-0.15308) ==
 == 9-th k-point nmo = 114 (-0.07654,-0.22962,-0.22962) ==
 == 10-th k-point nmo = 114 (-0.00000,-0.15308,-0.30616) ==
 == 11-th k-point nmo = 114 (0.07654,-0.07654,-0.38270) ==
 == 12-th k-point nmo = 114 (0.15308,-0.00000,-0.45924) ==
 == 13-th k-point nmo = 114 (0.22962,0.07654,-0.53578) ==
 == 14-th k-point nmo = 114 (0.30616,0.15308,-0.61232) ==
 == 15-th k-point nmo = 114 (0.38270,0.22962,-0.68887) ==
 == 16-th k-point nmo = 114 (-0.07654,-0.38270,-0.07654) ==
 == 17-th k-point nmo = 114 (-0.00000,-0.30616,-0.15308) ==
 == 18-th k-point nmo = 114 (0.07654,-0.22962,-0.22962) ==
 == 19-th k-point nmo = 114 (0.15308,-0.15308,-0.30616) ==
 == 20-th k-point nmo = 114 (0.22962,-0.07654,-0.38270) ==
 == 21-th k-point nmo = 114 (0.30616,-0.00000,-0.45924) ==
 == 22-th k-point nmo = 114 (0.38270,0.07654,-0.53578) ==
 == 23-th k-point nmo = 114 (0.45924,0.15308,-0.61232) ==
 == 24-th k-point nmo = 114 (-0.00000,-0.45924,0.00000) ==
 == 25-th k-point nmo = 114 (0.07654,-0.38270,-0.07654) ==
 == 26-th k-point nmo = 114 (0.15308,-0.30616,-0.15308) ==
 == 27-th k-point nmo = 114 (0.22962,-0.22962,-0.22962) ==
 == 28-th k-point nmo = 114 (0.30616,-0.15308,-0.30616) ==
 == 29-th k-point nmo = 114 (0.38270,-0.07654,-0.38270) ==
 == 30-th k-point nmo = 114 (0.45924,0.00000,-0.45924) ==
 == 31-th k-point nmo = 114 (0.53578,0.07654,-0.53578) ==
 == 32-th k-point nmo = 114 (0.07654,-0.53578,0.07654) ==
 == 33-th k-point nmo = 114 (0.15308,-0.45924,0.00000) ==
 == 34-th k-point nmo = 114 (0.22962,-0.38270,-0.07654) ==
 == 35-th k-point nmo = 114 (0.30616,-0.30616,-0.15308) ==
 == 36-th k-point nmo = 114 (0.38270,-0.22962,-0.22962) ==
 == 37-th k-point nmo = 114 (0.45924,-0.15308,-0.30616) ==
 == 38-th k-point nmo = 114 (0.53578,-0.07654,-0.38270) ==
 == 39-th k-point nmo = 114 (0.61232,0.00000,-0.45924) ==
 == 40-th k-point nmo = 114 (0.15308,-0.61232,0.15308) ==
 == 41-th k-point nmo = 114 (0.22962,-0.53578,0.07654) ==
 == 42-th k-point nmo = 114 (0.30616,-0.45924,0.00000) ==
 == 43-th k-point nmo = 114 (0.38270,-0.38270,-0.07654) ==
 == 44-th k-point nmo = 114 (0.45924,-0.30616,-0.15308) ==
 == 45-th k-point nmo = 114 (0.53578,-0.22962,-0.22962) ==
 == 46-th k-point nmo = 114 (0.61232,-0.15308,-0.30616) ==
 == 47-th k-point nmo = 114 (0.68887,-0.07654,-0.38270) ==
 == 48-th k-point nmo = 114 (0.22962,-0.68887,0.22962) ==
 == 49-th k-point nmo = 114 (0.30616,-0.61232,0.15308) ==
 == 50-th k-point nmo = 114 (0.38270,-0.53578,0.07654) ==
 == 51-th k-point nmo = 114 (0.45924,-0.45924,0.00000) ==
 == 52-th k-point nmo = 114 (0.53578,-0.38270,-0.07654) ==
 == 53-th k-point nmo = 114 (0.61232,-0.30616,-0.15308) ==
 == 54-th k-point nmo = 114 (0.68887,-0.22962,-0.22962) ==
 == 55-th k-point nmo = 114 (0.76541,-0.15308,-0.30616) ==
 == 56-th k-point nmo = 114 (0.30616,-0.76541,0.30616) ==
 == 57-th k-point nmo = 114 (0.38270,-0.68887,0.22962) ==
 == 58-th k-point nmo = 114 (0.45924,-0.61232,0.15308) ==
 == 59-th k-point nmo = 114 (0.53578,-0.53578,0.07654) ==
 == 60-th k-point nmo = 114 (0.61232,-0.45924,0.00000) ==
 == 61-th k-point nmo = 114 (0.68887,-0.38270,-0.07654) ==
 == 62-th k-point nmo = 114 (0.76541,-0.30616,-0.15308) ==
 == 63-th k-point nmo = 114 (0.84195,-0.22962,-0.22962) ==
 == 64-th k-point nmo = 114 (-0.30616,-0.15308,-0.15308) ==
 == 65-th k-point nmo = 114 (-0.22962,-0.07654,-0.22962) ==
 == 66-th k-point nmo = 114 (-0.15308,-0.00000,-0.30616) ==
 == 67-th k-point nmo = 114 (-0.07654,0.07654,-0.38270) ==
 == 68-th k-point nmo = 114 (-0.00000,0.15308,-0.45924) ==
 == 69-th k-point nmo = 114 (0.07654,0.22962,-0.53578) ==
 == 70-th k-point nmo = 114 (0.15308,0.30616,-0.61232) ==
 == 71-th k-point nmo = 114 (0.22962,0.38270,-0.68887) ==
 == 72-th k-point nmo = 114 (-0.22962,-0.22962,-0.07654) ==
 == 73-th k-point nmo = 115 (-0.15308,-0.15308,-0.15308) ==
 == 74-th k-point nmo = 114 (-0.07654,-0.07654,-0.22962) ==
 == 75-th k-point nmo = 114 (-0.00000,-0.00000,-0.30616) ==
 == 76-th k-point nmo = 114 (0.07654,0.07654,-0.38270) ==
 == 77-th k-point nmo = 114 (0.15308,0.15308,-0.45924) ==
 == 78-th k-point nmo = 114 (0.22962,0.22962,-0.53578) ==
 == 79-th k-point nmo = 114 (0.30616,0.30616,-0.61232) ==
 == 80-th k-point nmo = 114 (-0.15308,-0.30616,-0.00000) ==
 == 81-th k-point nmo = 114 (-0.07654,-0.22962,-0.07654) ==
 == 82-th k-point nmo = 115 (-0.00000,-0.15308,-0.15308) ==
 == 83-th k-point nmo = 114 (0.07654,-0.07654,-0.22962) ==
 == 84-th k-point nmo = 114 (0.15308,-0.00000,-0.30616) ==
 == 85-th k-point nmo = 114 (0.22962,0.07654,-0.38270) ==
 == 86-th k-point nmo = 114 (0.30616,0.15308,-0.45924) ==
 == 87-th k-point nmo = 114 (0.38270,0.22962,-0.53578) ==
 == 88-th k-point nmo = 114 (-0.07654,-0.38270,0.07654) ==
 == 89-th k-point nmo = 114 (-0.00000,-0.30616,0.00000) ==
 == 90-th k-point nmo = 114 (0.07654,-0.22962,-0.07654) ==
 == 91-th k-point nmo = 115 (0.15308,-0.15308,-0.15308) ==
 == 92-th k-point nmo = 114 (0.22962,-0.07654,-0.22962) ==
 == 93-th k-point nmo = 114 (0.30616,0.00000,-0.30616) ==
 == 94-th k-point nmo = 114 (0.38270,0.07654,-0.38270) ==
 == 95-th k-point nmo = 114 (0.45924,0.15308,-0.45924) ==
 == 96-th k-point nmo = 114 (-0.00000,-0.45924,0.15308) ==
 == 97-th k-point nmo = 114 (0.07654,-0.38270,0.07654) ==
 == 98-th k-point nmo = 114 (0.15308,-0.30616,0.00000) ==
 == 99-th k-point nmo = 114 (0.22962,-0.22962,-0.07654) ==
 == 100-th k-point nmo = 114 (0.30616,-0.15308,-0.15308) ==
 == 101-th k-point nmo = 114 (0.38270,-0.07654,-0.22962) ==
 == 102-th k-point nmo = 114 (0.45924,0.00000,-0.30616) ==
 == 103-th k-point nmo = 114 (0.53578,0.07654,-0.38270) ==
 == 104-th k-point nmo = 114 (0.07654,-0.53578,0.22962) ==
 == 105-th k-point nmo = 114 (0.15308,-0.45924,0.15308) ==
 == 106-th k-point nmo = 114 (0.22962,-0.38270,0.07654) ==
 == 107-th k-point nmo = 114 (0.30616,-0.30616,0.00000) ==
 == 108-th k-point nmo = 114 (0.38270,-0.22962,-0.07654) ==
 == 109-th k-point nmo = 114 (0.45924,-0.15308,-0.15308) ==
 == 110-th k-point nmo = 114 (0.53578,-0.07654,-0.22962) ==
 == 111-th k-point nmo = 114 (0.61232,0.00000,-0.30616) ==
 == 112-th k-point nmo = 114 (0.15308,-0.61232,0.30616) ==
 == 113-th k-point nmo = 114 (0.22962,-0.53578,0.22962) ==
 == 114-th k-point nmo = 114 (0.30616,-0.45924,0.15308) ==
 == 115-th k-point nmo = 114 (0.38270,-0.38270,0.07654) ==
 == 116-th k-point nmo = 114 (0.45924,-0.30616,0.00000) ==
 == 117-th k-point nmo = 114 (0.53578,-0.22962,-0.07654) ==
 == 118-th k-point nmo = 114 (0.61232,-0.15308,-0.15308) ==
 == 119-th k-point nmo = 114 (0.68887,-0.07654,-0.22962) ==
 == 120-th k-point nmo = 114 (0.22962,-0.68887,0.38270) ==
 == 121-th k-point nmo = 114 (0.30616,-0.61232,0.30616) ==
 == 122-th k-point nmo = 114 (0.38270,-0.53578,0.22962) ==
 == 123-th k-point nmo = 114 (0.45924,-0.45924,0.15308) ==
 == 124-th k-point nmo = 114 (0.53578,-0.38270,0.07654) ==
 == 125-th k-point nmo = 114 (0.61232,-0.30616,0.00000) ==
 == 126-th k-point nmo = 114 (0.68887,-0.22962,-0.07654) ==
 == 127-th k-point nmo = 114 (0.76541,-0.15308,-0.15308) ==
 == 128-th k-point nmo = 114 (-0.38270,-0.07654,-0.07654) ==
 == 129-th k-point nmo = 114 (-0.30616,-0.00000,-0.15308) ==
 == 130-th k-point nmo = 114 (-0.22962,0.07654,-0.22962) ==
 == 131-th k-point nmo = 114 (-0.15308,0.15308,-0.30616) ==
 == 132-th k-point nmo = 114 (-0.07654,0.22962,-0.38270) ==
 == 133-th k-point nmo = 114 (0.00000,0.30616,-0.45924) ==
 == 134-th k-point nmo = 114 (0.07654,0.38270,-0.53578) ==
 == 135-th k-point nmo = 114 (0.15308,0.45924,-0.61232) ==
 == 136-th k-point nmo = 114 (-0.30616,-0.15308,-0.00000) ==
 == 137-th k-point nmo = 114 (-0.22962,-0.07654,-0.07654) ==
 == 138-th k-point nmo = 115 (-0.15308,-0.00000,-0.15308) ==
 == 139-th k-point nmo = 114 (-0.07654,0.07654,-0.22962) ==
 == 140-th k-point nmo = 114 (-0.00000,0.15308,-0.30616) ==
 == 141-th k-point nmo = 114 (0.07654,0.22962,-0.38270) ==
 == 142-th k-point nmo = 114 (0.15308,0.30616,-0.45924) ==
 == 143-th k-point nmo = 114 (0.22962,0.38270,-0.53578) ==
 == 144-th k-point nmo = 114 (-0.22962,-0.22962,0.07654) ==
 == 145-th k-point nmo = 115 (-0.15308,-0.15308,-0.00000) ==
 == 146-th k-point nmo = 115 (-0.07654,-0.07654,-0.07654) ==
 == 147-th k-point nmo = 115 (-0.00000,-0.00000,-0.15308) ==
 == 148-th k-point nmo = 114 (0.07654,0.07654,-0.22962) ==
 == 149-th k-point nmo = 114 (0.15308,0.15308,-0.30616) ==
 == 150-th k-point nmo = 114 (0.22962,0.22962,-0.38270) ==
 == 151-th k-point nmo = 114 (0.30616,0.30616,-0.45924) ==
 == 152-th k-point nmo = 114 (-0.15308,-0.30616,0.15308) ==
 == 153-th k-point nmo = 114 (-0.07654,-0.22962,0.07654) ==
 == 154-th k-point nmo = 115 (-0.00000,-0.15308,0.00000) ==
 == 155-th k-point nmo = 115 (0.07654,-0.07654,-0.07654) ==
 == 156-th k-point nmo = 115 (0.15308,0.00000,-0.15308) ==
 == 157-th k-point nmo = 114 (0.22962,0.07654,-0.22962) ==
 == 158-th k-point nmo = 114 (0.30616,0.15308,-0.30616) ==
 == 159-th k-point nmo = 114 (0.38270,0.22962,-0.38270) ==
 == 160-th k-point nmo = 114 (-0.07654,-0.38270,0.22962) ==
 == 161-th k-point nmo = 114 (-0.00000,-0.30616,0.15308) ==
 == 162-th k-point nmo = 114 (0.07654,-0.22962,0.07654) ==
 == 163-th k-point nmo = 115 (0.15308,-0.15308,0.00000) ==
 == 164-th k-point nmo = 114 (0.22962,-0.07654,-0.07654) ==
 == 165-th k-point nmo = 114 (0.30616,0.00000,-0.15308) ==
 == 166-th k-point nmo = 114 (0.38270,0.07654,-0.22962) ==
 == 167-th k-point nmo = 114 (0.45924,0.15308,-0.30616) ==
 == 168-th k-point nmo = 114 (-0.00000,-0.45924,0.30616) ==
 == 169-th k-point nmo = 114 (0.07654,-0.38270,0.22962) ==
 == 170-th k-point nmo = 114 (0.15308,-0.30616,0.15308) ==
 == 171-th k-point nmo = 114 (0.22962,-0.22962,0.07654) ==
 == 172-th k-point nmo = 114 (0.30616,-0.15308,0.00000) ==
 == 173-th k-point nmo = 114 (0.38270,-0.07654,-0.07654) ==
 == 174-th k-point nmo = 114 (0.45924,0.00000,-0.15308) ==
 == 175-th k-point nmo = 114 (0.53578,0.07654,-0.22962) ==
 == 176-th k-point nmo = 114 (0.07654,-0.53578,0.38270) ==
 == 177-th k-point nmo = 114 (0.15308,-0.45924,0.30616) ==
 == 178-th k-point nmo = 114 (0.22962,-0.38270,0.22962) ==
 == 179-th k-point nmo = 114 (0.30616,-0.30616,0.15308) ==
 == 180-th k-point nmo = 114 (0.38270,-0.22962,0.07654) ==
 == 181-th k-point nmo = 114 (0.45924,-0.15308,0.00000) ==
 == 182-th k-point nmo = 114 (0.53578,-0.07654,-0.07654) ==
 == 183-th k-point nmo = 114 (0.61232,0.00000,-0.15308) ==
 == 184-th k-point nmo = 114 (0.15308,-0.61232,0.45924) ==
 == 185-th k-point nmo = 114 (0.22962,-0.53578,0.38270) ==
 == 186-th k-point nmo = 114 (0.30616,-0.45924,0.30616) ==
 == 187-th k-point nmo = 114 (0.38270,-0.38270,0.22962) ==
 == 188-th k-point nmo = 114 (0.45924,-0.30616,0.15308) ==
 == 189-th k-point nmo = 114 (0.53578,-0.22962,0.07654) ==
 == 190-th k-point nmo = 114 (0.61232,-0.15308,0.00000) ==
 == 191-th k-point nmo = 114 (0.68887,-0.07654,-0.07654) ==
 == 192-th k-point nmo = 114 (-0.45924,-0.00000,-0.00000) ==
 == 193-th k-point nmo = 114 (-0.38270,0.07654,-0.07654) ==
 == 194-th k-point nmo = 114 (-0.30616,0.15308,-0.15308) ==
 == 195-th k-point nmo = 114 (-0.22962,0.22962,-0.22962) ==
 == 196-th k-point nmo = 114 (-0.15308,0.30616,-0.30616) ==
 == 197-th k-point nmo = 114 (-0.07654,0.38270,-0.38270) ==
 == 198-th k-point nmo = 114 (0.00000,0.45924,-0.45924) ==
 == 199-th k-point nmo = 114 (0.07654,0.53578,-0.53578) ==
 == 200-th k-point nmo = 114 (-0.38270,-0.07654,0.07654) ==
 == 201-th k-point nmo = 114 (-0.30616,-0.00000,-0.00000) ==
 == 202-th k-point nmo = 114 (-0.22962,0.07654,-0.07654) ==
 == 203-th k-point nmo = 115 (-0.15308,0.15308,-0.15308) ==
 == 204-th k-point nmo = 114 (-0.07654,0.22962,-0.22962) ==
 == 205-th k-point nmo = 114 (0.00000,0.30616,-0.30616) ==
 == 206-th k-point nmo = 114 (0.07654,0.38270,-0.38270) ==
 == 207-th k-point nmo = 114 (0.15308,0.45924,-0.45924) ==
 == 208-th k-point nmo = 114 (-0.30616,-0.15308,0.15308) ==
 == 209-th k-point nmo = 114 (-0.22962,-0.07654,0.07654) ==
 == 210-th k-point nmo = 115 (-0.15308,-0.00000,-0.00000) ==
 == 211-th k-point nmo = 115 (-0.07654,0.07654,-0.07654) ==
 == 212-th k-point nmo = 115 (0.00000,0.15308,-0.15308) ==
 == 213-th k-point nmo = 114 (0.07654,0.22962,-0.22962) ==
 == 214-th k-point nmo = 114 (0.15308,0.30616,-0.30616) ==
 == 215-th k-point nmo = 114 (0.22962,0.38270,-0.38270) ==
 == 216-th k-point nmo = 114 (-0.22962,-0.22962,0.22962) ==
 == 217-th k-point nmo = 115 (-0.15308,-0.15308,0.15308) ==
 == 218-th k-point nmo = 115 (-0.07654,-0.07654,0.07654) ==
 == 219-th k-point nmo = 115 (0.00000,0.00000,0.00000) ==
 == 220-th k-point nmo = 115 (0.07654,0.07654,-0.07654) ==
 == 221-th k-point nmo = 115 (0.15308,0.15308,-0.15308) ==
 == 222-th k-point nmo = 114 (0.22962,0.22962,-0.22962) ==
 == 223-th k-point nmo = 114 (0.30616,0.30616,-0.30616) ==
 == 224-th k-point nmo = 114 (-0.15308,-0.30616,0.30616) ==
 == 225-th k-point nmo = 114 (-0.07654,-0.22962,0.22962) ==
 == 226-th k-point nmo = 115 (-0.00000,-0.15308,0.15308) ==
 == 227-th k-point nmo = 115 (0.07654,-0.07654,0.07654) ==
 == 228-th k-point nmo = 115 (0.15308,0.00000,0.00000) ==
 == 229-th k-point nmo = 114 (0.22962,0.07654,-0.07654) ==
 == 230-th k-point nmo = 114 (0.30616,0.15308,-0.15308) ==
 == 231-th k-point nmo = 114 (0.38270,0.22962,-0.22962) ==
 == 232-th k-point nmo = 114 (-0.07654,-0.38270,0.38270) ==
 == 233-th k-point nmo = 114 (-0.00000,-0.30616,0.30616) ==
 == 234-th k-point nmo = 114 (0.07654,-0.22962,0.22962) ==
 == 235-th k-point nmo = 115 (0.15308,-0.15308,0.15308) ==
 == 236-th k-point nmo = 114 (0.22962,-0.07654,0.07654) ==
 == 237-th k-point nmo = 114 (0.30616,0.00000,0.00000) ==
 == 238-th k-point nmo = 114 (0.38270,0.07654,-0.07654) ==
 == 239-th k-point nmo = 114 (0.45924,0.15308,-0.15308) ==
 == 240-th k-point nmo = 114 (-0.00000,-0.45924,0.45924) ==
 == 241-th k-point nmo = 114 (0.07654,-0.38270,0.38270) ==
 == 242-th k-point nmo = 114 (0.15308,-0.30616,0.30616) ==
 == 243-th k-point nmo = 114 (0.22962,-0.22962,0.22962) ==
 == 244-th k-point nmo = 114 (0.30616,-0.15308,0.15308) ==
 == 245-th k-point nmo = 114 (0.38270,-0.07654,0.07654) ==
 == 246-th k-point nmo = 114 (0.45924,0.00000,0.00000) ==
 == 247-th k-point nmo = 114 (0.53578,0.07654,-0.07654) ==
 == 248-th k-point nmo = 114 (0.07654,-0.53578,0.53578) ==
 == 249-th k-point nmo = 114 (0.15308,-0.45924,0.45924) ==
 == 250-th k-point nmo = 114 (0.22962,-0.38270,0.38270) ==
 == 251-th k-point nmo = 114 (0.30616,-0.30616,0.30616) ==
 == 252-th k-point nmo = 114 (0.38270,-0.22962,0.22962) ==
 == 253-th k-point nmo = 114 (0.45924,-0.15308,0.15308) ==
 == 254-th k-point nmo = 114 (0.53578,-0.07654,0.07654) ==
 == 255-th k-point nmo = 114 (0.61232,0.00000,0.00000) ==
 == 256-th k-point nmo = 114 (-0.53578,0.07654,0.07654) ==
 == 257-th k-point nmo = 114 (-0.45924,0.15308,-0.00000) ==
 == 258-th k-point nmo = 114 (-0.38270,0.22962,-0.07654) ==
 == 259-th k-point nmo = 114 (-0.30616,0.30616,-0.15308) ==
 == 260-th k-point nmo = 114 (-0.22962,0.38270,-0.22962) ==
 == 261-th k-point nmo = 114 (-0.15308,0.45924,-0.30616) ==
 == 262-th k-point nmo = 114 (-0.07654,0.53578,-0.38270) ==
 == 263-th k-point nmo = 114 (0.00000,0.61232,-0.45924) ==
 == 264-th k-point nmo = 114 (-0.45924,-0.00000,0.15308) ==
 == 265-th k-point nmo = 114 (-0.38270,0.07654,0.07654) ==
 == 266-th k-point nmo = 114 (-0.30616,0.15308,-0.00000) ==
 == 267-th k-point nmo = 114 (-0.22962,0.22962,-0.07654) ==
 == 268-th k-point nmo = 114 (-0.15308,0.30616,-0.15308) ==
 == 269-th k-point nmo = 114 (-0.07654,0.38270,-0.22962) ==
 == 270-th k-point nmo = 114 (0.00000,0.45924,-0.30616) ==
 == 271-th k-point nmo = 114 (0.07654,0.53578,-0.38270) ==
 == 272-th k-point nmo = 114 (-0.38270,-0.07654,0.22962) ==
 == 273-th k-point nmo = 114 (-0.30616,-0.00000,0.15308) ==
 == 274-th k-point nmo = 114 (-0.22962,0.07654,0.07654) ==
 == 275-th k-point nmo = 115 (-0.15308,0.15308,-0.00000) ==
 == 276-th k-point nmo = 114 (-0.07654,0.22962,-0.07654) ==
 == 277-th k-point nmo = 114 (0.00000,0.30616,-0.15308) ==
 == 278-th k-point nmo = 114 (0.07654,0.38270,-0.22962) ==
 == 279-th k-point nmo = 114 (0.15308,0.45924,-0.30616) ==
 == 280-th k-point nmo = 114 (-0.30616,-0.15308,0.30616) ==
 == 281-th k-point nmo = 114 (-0.22962,-0.07654,0.22962) ==
 == 282-th k-point nmo = 115 (-0.15308,0.00000,0.15308) ==
 == 283-th k-point nmo = 115 (-0.07654,0.07654,0.07654) ==
 == 284-th k-point nmo = 115 (0.00000,0.15308,0.00000) ==
 == 285-th k-point nmo = 114 (0.07654,0.22962,-0.07654) ==
 == 286-th k-point nmo = 114 (0.15308,0.30616,-0.15308) ==
 == 287-th k-point nmo = 114 (0.22962,0.38270,-0.22962) ==
 == 288-th k-point nmo = 114 (-0.22962,-0.22962,0.38270) ==
 == 289-th k-point nmo = 114 (-0.15308,-0.15308,0.30616) ==
 == 290-th k-point nmo = 114 (-0.07654,-0.07654,0.22962) ==
 == 291-th k-point nmo = 115 (0.00000,0.00000,0.15308) ==
 == 292-th k-point nmo = 115 (0.07654,0.07654,0.07654) ==
 == 293-th k-point nmo = 115 (0.15308,0.15308,0.00000) ==
 == 294-th k-point nmo = 114 (0.22962,0.22962,-0.07654) ==
 == 295-th k-point nmo = 114 (0.30616,0.30616,-0.15308) ==
 == 296-th k-point nmo = 114 (-0.15308,-0.30616,0.45924) ==
 == 297-th k-point nmo = 114 (-0.07654,-0.22962,0.38270) ==
 == 298-th k-point nmo = 114 (0.00000,-0.15308,0.30616) ==
 == 299-th k-point nmo = 114 (0.07654,-0.07654,0.22962) ==
 == 300-th k-point nmo = 115 (0.15308,0.00000,0.15308) ==
 == 301-th k-point nmo = 114 (0.22962,0.07654,0.07654) ==
 == 302-th k-point nmo = 114 (0.30616,0.15308,0.00000) ==
 == 303-th k-point nmo = 114 (0.38270,0.22962,-0.07654) ==
 == 304-th k-point nmo = 114 (-0.07654,-0.38270,0.53578) ==
 == 305-th k-point nmo = 114 (0.00000,-0.30616,0.45924) ==
 == 306-th k-point nmo = 114 (0.07654,-0.22962,0.38270) ==
 == 307-th k-point nmo = 114 (0.15308,-0.15308,0.30616) ==
 == 308-th k-point nmo = 114 (0.22962,-0.07654,0.22962) ==
 == 309-th k-point nmo = 114 (0.30616,0.00000,0.15308) ==
 == 310-th k-point nmo = 114 (0.38270,0.07654,0.07654) ==
 == 311-th k-point nmo = 114 (0.45924,0.15308,0.00000) ==
 == 312-th k-point nmo = 114 (0.00000,-0.45924,0.61232) ==
 == 313-th k-point nmo = 114 (0.07654,-0.38270,0.53578) ==
 == 314-th k-point nmo = 114 (0.15308,-0.30616,0.45924) ==
 == 315-th k-point nmo = 114 (0.22962,-0.22962,0.38270) ==
 == 316-th k-point nmo = 114 (0.30616,-0.15308,0.30616) ==
 == 317-th k-point nmo = 114 (0.38270,-0.07654,0.22962) ==
 == 318-th k-point nmo = 114 (0.45924,0.00000,0.15308) ==
 == 319-th k-point nmo = 114 (0.53578,0.07654,0.07654) ==
 == 320-th k-point nmo = 114 (-0.61232,0.15308,0.15308) ==
 == 321-th k-point nmo = 114 (-0.53578,0.22962,0.07654) ==
 == 322-th k-point nmo = 114 (-0.45924,0.30616,-0.00000) ==
 == 323-th k-point nmo = 114 (-0.38270,0.38270,-0.07654) ==
 == 324-th k-point nmo = 114 (-0.30616,0.45924,-0.15308) ==
 == 325-th k-point nmo = 114 (-0.22962,0.53578,-0.22962) ==
 == 326-th k-point nmo = 114 (-0.15308,0.61232,-0.30616) ==
 == 327-th k-point nmo = 114 (-0.07654,0.68887,-0.38270) ==
 == 328-th k-point nmo = 114 (-0.53578,0.07654,0.22962) ==
 == 329-th k-point nmo = 114 (-0.45924,0.15308,0.15308) ==
 == 330-th k-point nmo = 114 (-0.38270,0.22962,0.07654) ==
 == 331-th k-point nmo = 114 (-0.30616,0.30616,-0.00000) ==
 == 332-th k-point nmo = 114 (-0.22962,0.38270,-0.07654) ==
 == 333-th k-point nmo = 114 (-0.15308,0.45924,-0.15308) ==
 == 334-th k-point nmo = 114 (-0.07654,0.53578,-0.22962) ==
 == 335-th k-point nmo = 114 (0.00000,0.61232,-0.30616) ==
 == 336-th k-point nmo = 114 (-0.45924,-0.00000,0.30616) ==
 == 337-th k-point nmo = 114 (-0.38270,0.07654,0.22962) ==
 == 338-th k-point nmo = 114 (-0.30616,0.15308,0.15308) ==
 == 339-th k-point nmo = 114 (-0.22962,0.22962,0.07654) ==
 == 340-th k-point nmo = 114 (-0.15308,0.30616,-0.00000) ==
 == 341-th k-point nmo = 114 (-0.07654,0.38270,-0.07654) ==
 == 342-th k-point nmo = 114 (0.00000,0.45924,-0.15308) ==
 == 343-th k-point nmo = 114 (0.07654,0.53578,-0.22962) ==
 == 344-th k-point nmo = 114 (-0.38270,-0.07654,0.38270) ==
 == 345-th k-point nmo = 114 (-0.30616,0.00000,0.30616) ==
 == 346-th k-point nmo = 114 (-0.22962,0.07654,0.22962) ==
 == 347-th k-point nmo = 115 (-0.15308,0.15308,0.15308) ==
 == 348-th k-point nmo = 114 (-0.07654,0.22962,0.07654) ==
 == 349-th k-point nmo = 114 (0.00000,0.30616,0.00000) ==
 == 350-th k-point nmo = 114 (0.07654,0.38270,-0.07654) ==
 == 351-th k-point nmo = 114 (0.15308,0.45924,-0.15308) ==
 == 352-th k-point nmo = 114 (-0.30616,-0.15308,0.45924) ==
 == 353-th k-point nmo = 114 (-0.22962,-0.07654,0.38270) ==
 == 354-th k-point nmo = 114 (-0.15308,0.00000,0.30616) ==
 == 355-th k-point nmo = 114 (-0.07654,0.07654,0.22962) ==
 == 356-th k-point nmo = 115 (0.00000,0.15308,0.15308) ==
 == 357-th k-point nmo = 114 (0.07654,0.22962,0.07654) ==
 == 358-th k-point nmo = 114 (0.15308,0.30616,0.00000) ==
 == 359-th k-point nmo = 114 (0.22962,0.38270,-0.07654) ==
 == 360-th k-point nmo = 114 (-0.22962,-0.22962,0.53578) ==
 == 361-th k-point nmo = 114 (-0.15308,-0.15308,0.45924) ==
 == 362-th k-point nmo = 114 (-0.07654,-0.07654,0.38270) ==
 == 363-th k-point nmo = 114 (0.00000,0.00000,0.30616) ==
 == 364-th k-point nmo = 114 (0.07654,0.07654,0.22962) ==
 == 365-th k-point nmo = 115 (0.15308,0.15308,0.15308) ==
 == 366-th k-point nmo = 114 (0.22962,0.22962,0.07654) ==
 == 367-th k-point nmo = 114 (0.30616,0.30616,0.00000) ==
 == 368-th k-point nmo = 114 (-0.15308,-0.30616,0.61232) ==
 == 369-th k-point nmo = 114 (-0.07654,-0.22962,0.53578) ==
 == 370-th k-point nmo = 114 (0.00000,-0.15308,0.45924) ==
 == 371-th k-point nmo = 114 (0.07654,-0.07654,0.38270) ==
 == 372-th k-point nmo = 114 (0.15308,0.00000,0.30616) ==
 == 373-th k-point nmo = 114 (0.22962,0.07654,0.22962) ==
 == 374-th k-point nmo = 114 (0.30616,0.15308,0.15308) ==
 == 375-th k-point nmo = 114 (0.38270,0.22962,0.07654) ==
 == 376-th k-point nmo = 114 (-0.07654,-0.38270,0.68887) ==
 == 377-th k-point nmo = 114 (0.00000,-0.30616,0.61232) ==
 == 378-th k-point nmo = 114 (0.07654,-0.22962,0.53578) ==
 == 379-th k-point nmo = 114 (0.15308,-0.15308,0.45924) ==
 == 380-th k-point nmo = 114 (0.22962,-0.07654,0.38270) ==
 == 381-th k-point nmo = 114 (0.30616,0.00000,0.30616) ==
 == 382-th k-point nmo = 114 (0.38270,0.07654,0.22962) ==
 == 383-th k-point nmo = 114 (0.45924,0.15308,0.15308) ==
 == 384-th k-point nmo = 114 (-0.68887,0.22962,0.22962) ==
 == 385-th k-point nmo = 114 (-0.61232,0.30616,0.15308) ==
 == 386-th k-point nmo = 114 (-0.53578,0.38270,0.07654) ==
 == 387-th k-point nmo = 114 (-0.45924,0.45924,-0.00000) ==
 == 388-th k-point nmo = 114 (-0.38270,0.53578,-0.07654) ==
 == 389-th k-point nmo = 114 (-0.30616,0.61232,-0.15308) ==
 == 390-th k-point nmo = 114 (-0.22962,0.68887,-0.22962) ==
 == 391-th k-point nmo = 114 (-0.15308,0.76541,-0.30616) ==
 == 392-th k-point nmo = 114 (-0.61232,0.15308,0.30616) ==
 == 393-th k-point nmo = 114 (-0.53578,0.22962,0.22962) ==
 == 394-th k-point nmo = 114 (-0.45924,0.30616,0.15308) ==
 == 395-th k-point nmo = 114 (-0.38270,0.38270,0.07654) ==
 == 396-th k-point nmo = 114 (-0.30616,0.45924,-0.00000) ==
 == 397-th k-point nmo = 114 (-0.22962,0.53578,-0.07654) ==
 == 398-th k-point nmo = 114 (-0.15308,0.61232,-0.15308) ==
 == 399-th k-point nmo = 114 (-0.07654,0.68887,-0.22962) ==
 == 400-th k-point nmo = 114 (-0.53578,0.07654,0.38270) ==
 == 401-th k-point nmo = 114 (-0.45924,0.15308,0.30616) ==
 == 402-th k-point nmo = 114 (-0.38270,0.22962,0.22962) ==
 == 403-th k-point nmo = 114 (-0.30616,0.30616,0.15308) ==
 == 404-th k-point nmo = 114 (-0.22962,0.38270,0.07654) ==
 == 405-th k-point nmo = 114 (-0.15308,0.45924,-0.00000) ==
 == 406-th k-point nmo = 114 (-0.07654,0.53578,-0.07654) ==
 == 407-th k-point nmo = 114 (0.00000,0.61232,-0.15308) ==
 == 408-th k-point nmo = 114 (-0.45924,0.00000,0.45924) ==
 == 409-th k-point nmo = 114 (-0.38270,0.07654,0.38270) ==
 == 410-th k-point nmo = 114 (-0.30616,0.15308,0.30616) ==
 == 411-th k-point nmo = 114 (-0.22962,0.22962,0.22962) ==
 == 412-th k-point nmo = 114 (-0.15308,0.30616,0.15308) ==
 == 413-th k-point nmo = 114 (-0.07654,0.38270,0.07654) ==
 == 414-th k-point nmo = 114 (0.00000,0.45924,0.00000) ==
 == 415-th k-point nmo = 114 (0.07654,0.53578,-0.07654) ==
 == 416-th k-point nmo = 114 (-0.38270,-0.07654,0.53578) ==
 == 417-th k-point nmo = 114 (-0.30616,0.00000,0.45924) ==
 == 418-th k-point nmo = 114 (-0.22962,0.07654,0.38270) ==
 == 419-th k-point nmo = 114 (-0.15308,0.15308,0.30616) ==
 == 420-th k-point nmo = 114 (-0.07654,0.22962,0.22962) ==
 == 421-th k-point nmo = 114 (0.00000,0.30616,0.15308) ==
 == 422-th k-point nmo = 114 (0.07654,0.38270,0.07654) ==
 == 423-th k-point nmo = 114 (0.15308,0.45924,0.00000) ==
 == 424-th k-point nmo = 114 (-0.30616,-0.15308,0.61232) ==
 == 425-th k-point nmo = 114 (-0.22962,-0.07654,0.53578) ==
 == 426-th k-point nmo = 114 (-0.15308,0.00000,0.45924) ==
 == 427-th k-point nmo = 114 (-0.07654,0.07654,0.38270) ==
 == 428-th k-point nmo = 114 (0.00000,0.15308,0.30616) ==
 == 429-th k-point nmo = 114 (0.07654,0.22962,0.22962) ==
 == 430-th k-point nmo = 114 (0.15308,0.30616,0.15308) ==
 == 431-th k-point nmo = 114 (0.22962,0.38270,0.07654) ==
 == 432-th k-point nmo = 114 (-0.22962,-0.22962,0.68887) ==
 == 433-th k-point nmo = 114 (-0.15308,-0.15308,0.61232) ==
 == 434-th k-point nmo = 114 (-0.07654,-0.07654,0.53578) ==
 == 435-th k-point nmo = 114 (0.00000,0.00000,0.45924) ==
 == 436-th k-point nmo = 114 (0.07654,0.07654,0.38270) ==
 == 437-th k-point nmo = 114 (0.15308,0.15308,0.30616) ==
 == 438-th k-point nmo = 114 (0.22962,0.22962,0.22962) ==
 == 439-th k-point nmo = 114 (0.30616,0.30616,0.15308) ==
 == 440-th k-point nmo = 114 (-0.15308,-0.30616,0.76541) ==
 == 441-th k-point nmo = 114 (-0.07654,-0.22962,0.68887) ==
 == 442-th k-point nmo = 114 (0.00000,-0.15308,0.61232) ==
 == 443-th k-point nmo = 114 (0.07654,-0.07654,0.53578) ==
 == 444-th k-point nmo = 114 (0.15308,0.00000,0.45924) ==
 == 445-th k-point nmo = 114 (0.22962,0.07654,0.38270) ==
 == 446-th k-point nmo = 114 (0.30616,0.15308,0.30616) ==
 == 447-th k-point nmo = 114 (0.38270,0.22962,0.22962) ==
 == 448-th k-point nmo = 114 (-0.76541,0.30616,0.30616) ==
 == 449-th k-point nmo = 114 (-0.68887,0.38270,0.22962) ==
 == 450-th k-point nmo = 114 (-0.61232,0.45924,0.15308) ==
 == 451-th k-point nmo = 114 (-0.53578,0.53578,0.07654) ==
 == 452-th k-point nmo = 114 (-0.45924,0.61232,-0.00000) ==
 == 453-th k-point nmo = 114 (-0.38270,0.68887,-0.07654) ==
 == 454-th k-point nmo = 114 (-0.30616,0.76541,-0.15308) ==
 == 455-th k-point nmo = 114 (-0.22962,0.84195,-0.22962) ==
 == 456-th k-point nmo = 114 (-0.68887,0.22962,0.38270) ==
 == 457-th k-point nmo = 114 (-0.61232,0.30616,0.30616) ==
 == 458-th k-point nmo = 114 (-0.53578,0.38270,0.22962) ==
 == 459-th k-point nmo = 114 (-0.45924,0.45924,0.15308) ==
 == 460-th k-point nmo = 114 (-0.38270,0.53578,0.07654) ==
 == 461-th k-point nmo = 114 (-0.30616,0.61232,-0.00000) ==
 == 462-th k-point nmo = 114 (-0.22962,0.68887,-0.07654) ==
 == 463-th k-point nmo = 114 (-0.15308,0.76541,-0.15308) ==
 == 464-th k-point nmo = 114 (-0.61232,0.15308,0.45924) ==
 == 465-th k-point nmo = 114 (-0.53578,0.22962,0.38270) ==
 == 466-th k-point nmo = 114 (-0.45924,0.30616,0.30616) ==
 == 467-th k-point nmo = 114 (-0.38270,0.38270,0.22962) ==
 == 468-th k-point nmo = 114 (-0.30616,0.45924,0.15308) ==
 == 469-th k-point nmo = 114 (-0.22962,0.53578,0.07654) ==
 == 470-th k-point nmo = 114 (-0.15308,0.61232,0.00000) ==
 == 471-th k-point nmo = 114 (-0.07654,0.68887,-0.07654) ==
 == 472-th k-point nmo = 114 (-0.53578,0.07654,0.53578) ==
 == 473-th k-point nmo = 114 (-0.45924,0.15308,0.45924) ==
 == 474-th k-point nmo = 114 (-0.38270,0.22962,0.38270) ==
 == 475-th k-point nmo = 114 (-0.30616,0.30616,0.30616) ==
 == 476-th k-point nmo = 114 (-0.22962,0.38270,0.22962) ==
 == 477-th k-point nmo = 114 (-0.15308,0.45924,0.15308) ==
 == 478-th k-point nmo = 114 (-0.07654,0.53578,0.07654) ==
 == 479-th k-point nmo = 114 (0.00000,0.61232,0.00000) ==
 == 480-th k-point nmo = 114 (-0.45924,0.00000,0.61232) ==
 == 481-th k-point nmo = 114 (-0.38270,0.07654,0.53578) ==
 == 482-th k-point nmo = 114 (-0.30616,0.15308,0.45924) ==
 == 483-th k-point nmo = 114 (-0.22962,0.22962,0.38270) ==
 == 484-th k-point nmo = 114 (-0.15308,0.30616,0.30616) ==
 == 485-th k-point nmo = 114 (-0.07654,0.38270,0.22962) ==
 == 486-th k-point nmo = 114 (0.00000,0.45924,0.15308) ==
 == 487-th k-point nmo = 114 (0.07654,0.53578,0.07654) ==
 == 488-th k-point nmo = 114 (-0.38270,-0.07654,0.68887) ==
 == 489-th k-point nmo = 114 (-0.30616,0.00000,0.61232) ==
 == 490-th k-point nmo = 114 (-0.22962,0.07654,0.53578) ==
 == 491-th k-point nmo = 114 (-0.15308,0.15308,0.45924) ==
 == 492-th k-point nmo = 114 (-0.07654,0.22962,0.38270) ==
 == 493-th k-point nmo = 114 (0.00000,0.30616,0.30616) ==
 == 494-th k-point nmo = 114 (0.07654,0.38270,0.22962) ==
 == 495-th k-point nmo = 114 (0.15308,0.45924,0.15308) ==
 == 496-th k-point nmo = 114 (-0.30616,-0.15308,0.76541) ==
 == 497-th k-point nmo = 114 (-0.22962,-0.07654,0.68887) ==
 == 498-th k-point nmo = 114 (-0.15308,0.00000,0.61232) ==
 == 499-th k-point nmo = 114 (-0.07654,0.07654,0.53578) ==
 == 500-th k-point nmo = 114 (0.00000,0.15308,0.45924) ==
 == 501-th k-point nmo = 114 (0.07654,0.22962,0.38270) ==
 == 502-th k-point nmo = 114 (0.15308,0.30616,0.30616) ==
 == 503-th k-point nmo = 114 (0.22962,0.38270,0.22962) ==
 == 504-th k-point nmo = 114 (-0.22962,-0.22962,0.84195) ==
 == 505-th k-point nmo = 114 (-0.15308,-0.15308,0.76541) ==
 == 506-th k-point nmo = 114 (-0.07654,-0.07654,0.68887) ==
 == 507-th k-point nmo = 114 (0.00000,0.00000,0.61232) ==
 == 508-th k-point nmo = 114 (0.07654,0.07654,0.53578) ==
 == 509-th k-point nmo = 114 (0.15308,0.15308,0.45924) ==
 == 510-th k-point nmo = 114 (0.22962,0.22962,0.38270) ==
 == 511-th k-point nmo = 114 (0.30616,0.30616,0.30616) ==

 Generate autoSAD guess
backing up fragment data
Atom # 0: si, charge: 0, multiplicity: 3.000000
writing autosad to fragment context
Settings for isolated fragments: 
  frgm_gamma: TRUE
  frgm_center: FALSE

    Running SCF for isolated atom #0
    Fragment Input file: /n/netscratch/joonholee_lab/Lab/hieudinh//si_2_ccpvqz_omega_0.6_888.scratch20250909035303/autosad_frgmt_0/frgmt_input.in
    Fragment Output file: /n/netscratch/joonholee_lab/Lab/hieudinh//si_2_ccpvqz_omega_0.6_888.scratch20250909035303/autosad_frgmt_0/frgmt_job.out
    Fragment job begins at Tue Sep  9 03:53:11 2025

 Integrated density by DFT XC:
   Numerical integral  =    13.999999643759
   Relative error      =     0.0000025446 %
Final energy components:
 DFT Correlation            Energy =  -0.48370207231610
 DFT Exchange               Energy = -20.13940840112205
 Kinetic (alpha)            Energy = 145.05483363964763
 Kinetic (beta)             Energy = 143.11842945473200
 Nuclear Attraction (alpha) Energy = -351.06191315317858
 Nuclear Attraction (beta)  Energy = -337.54515075030241
 Nuclear Repulsion          Energy =   0.00000000000000
 SEOQF                      Energy =  -0.00000000010144
 Total Coulomb              Energy = 131.82731983024374
----------------------------------------------
    SCF Energy: -289.2295914524
   Total fragment job time:  0.52 s.
restoring fragment data

 ------------------------------------------------------------------------
 Allocate 355279392 B from available memory: 1048461669344 B
 Time for generating SCF guess: 0.65 s

 Allocate 97424 B from available memory: 1048106389952 B
 Selected algorithms for each term:
  kpts_kinetic -> @0x14ae07fc1680
  kpts_nn -> @0x14ae07fc1800
  kpts_rij_bigmem -> @0x14ae07fc13e0
  kpts_vnuc_df -> @0x14ae07fc1380
  kpts_xc -> @0x14ae07fc12c0
 Time for computing kinetic matrix is 3.31 s
Start calculating Vnuc DD type!
Start calculating Vnuc CD type!
Start calculating Vnuc CC type!
 Time for computing nuclear attraction matrix is 9.92 s
Compute (P|Q) and use solve on the fly!
Maximum distance between P and Q is 29.79462221820766
Number of images for (P|Qn) is 911
 Time for computing 2e2c SR integral is 0.12 s
Maximum dynamic memory per thread for 2e3c SR integrals: 0.122 GiB
Batch size for basis function pair is 2392 out of 2392
 === bvk cell = 0 has 100.000 % of the basis function pairs === 
 === bvk cell = 1 has 100.000 % of the basis function pairs === 
 === bvk cell = 2 has 83.403 % of the basis function pairs === 
 === bvk cell = 3 has 22.032 % of the basis function pairs === 
 === bvk cell = 4 has 0.000 % of the basis function pairs === 
 === bvk cell = 5 has 22.032 % of the basis function pairs === 
 === bvk cell = 6 has 83.403 % of the basis function pairs === 
 === bvk cell = 7 has 100.000 % of the basis function pairs === 
 === bvk cell = 8 has 100.000 % of the basis function pairs === 
 === bvk cell = 9 has 90.552 % of the basis function pairs === 
 === bvk cell = 10 has 40.008 % of the basis function pairs === 
 === bvk cell = 11 has 6.271 % of the basis function pairs === 
 === bvk cell = 12 has 2.007 % of the basis function pairs === 
 === bvk cell = 13 has 37.207 % of the basis function pairs === 
 === bvk cell = 14 has 97.617 % of the basis function pairs === 
 === bvk cell = 15 has 100.000 % of the basis function pairs === 
 === bvk cell = 16 has 83.403 % of the basis function pairs === 
 === bvk cell = 17 has 40.008 % of the basis function pairs === 
 === bvk cell = 18 has 7.692 % of the basis function pairs === 
 === bvk cell = 19 has 0.000 % of the basis function pairs === 
 === bvk cell = 20 has 2.007 % of the basis function pairs === 
 === bvk cell = 21 has 32.232 % of the basis function pairs === 
 === bvk cell = 22 has 94.482 % of the basis function pairs === 
 === bvk cell = 23 has 97.617 % of the basis function pairs === 
 === bvk cell = 24 has 22.032 % of the basis function pairs === 
 === bvk cell = 25 has 6.271 % of the basis function pairs === 
 === bvk cell = 26 has 0.000 % of the basis function pairs === 
 === bvk cell = 27 has 0.000 % of the basis function pairs === 
 === bvk cell = 28 has 0.000 % of the basis function pairs === 
 === bvk cell = 29 has 25.418 % of the basis function pairs === 
 === bvk cell = 30 has 32.232 % of the basis function pairs === 
 === bvk cell = 31 has 37.207 % of the basis function pairs === 
 === bvk cell = 32 has 0.000 % of the basis function pairs === 
 === bvk cell = 33 has 2.007 % of the basis function pairs === 
 === bvk cell = 34 has 2.007 % of the basis function pairs === 
 === bvk cell = 35 has 0.000 % of the basis function pairs === 
 === bvk cell = 36 has 0.000 % of the basis function pairs === 
 === bvk cell = 37 has 0.000 % of the basis function pairs === 
 === bvk cell = 38 has 2.007 % of the basis function pairs === 
 === bvk cell = 39 has 2.007 % of the basis function pairs === 
 === bvk cell = 40 has 22.032 % of the basis function pairs === 
 === bvk cell = 41 has 37.207 % of the basis function pairs === 
 === bvk cell = 42 has 32.232 % of the basis function pairs === 
 === bvk cell = 43 has 25.418 % of the basis function pairs === 
 === bvk cell = 44 has 0.000 % of the basis function pairs === 
 === bvk cell = 45 has 0.000 % of the basis function pairs === 
 === bvk cell = 46 has 0.000 % of the basis function pairs === 
 === bvk cell = 47 has 6.271 % of the basis function pairs === 
 === bvk cell = 48 has 83.403 % of the basis function pairs === 
 === bvk cell = 49 has 97.617 % of the basis function pairs === 
 === bvk cell = 50 has 94.482 % of the basis function pairs === 
 === bvk cell = 51 has 32.232 % of the basis function pairs === 
 === bvk cell = 52 has 2.007 % of the basis function pairs === 
 === bvk cell = 53 has 0.000 % of the basis function pairs === 
 === bvk cell = 54 has 7.692 % of the basis function pairs === 
 === bvk cell = 55 has 40.008 % of the basis function pairs === 
 === bvk cell = 56 has 100.000 % of the basis function pairs === 
 === bvk cell = 57 has 100.000 % of the basis function pairs === 
 === bvk cell = 58 has 97.617 % of the basis function pairs === 
 === bvk cell = 59 has 37.207 % of the basis function pairs === 
 === bvk cell = 60 has 2.007 % of the basis function pairs === 
 === bvk cell = 61 has 6.271 % of the basis function pairs === 
 === bvk cell = 62 has 40.008 % of the basis function pairs === 
 === bvk cell = 63 has 90.552 % of the basis function pairs === 
 === bvk cell = 64 has 100.000 % of the basis function pairs === 
 === bvk cell = 65 has 90.552 % of the basis function pairs === 
 === bvk cell = 66 has 40.008 % of the basis function pairs === 
 === bvk cell = 67 has 6.271 % of the basis function pairs === 
 === bvk cell = 68 has 2.007 % of the basis function pairs === 
 === bvk cell = 69 has 37.207 % of the basis function pairs === 
 === bvk cell = 70 has 97.617 % of the basis function pairs === 
 === bvk cell = 71 has 100.000 % of the basis function pairs === 
 === bvk cell = 72 has 90.552 % of the basis function pairs === 
 === bvk cell = 73 has 51.672 % of the basis function pairs === 
 === bvk cell = 74 has 7.692 % of the basis function pairs === 
 === bvk cell = 75 has 0.000 % of the basis function pairs === 
 === bvk cell = 76 has 6.271 % of the basis function pairs === 
 === bvk cell = 77 has 43.645 % of the basis function pairs === 
 === bvk cell = 78 has 100.000 % of the basis function pairs === 
 === bvk cell = 79 has 100.000 % of the basis function pairs === 
 === bvk cell = 80 has 40.008 % of the basis function pairs === 
 === bvk cell = 81 has 7.692 % of the basis function pairs === 
 === bvk cell = 82 has 0.000 % of the basis function pairs === 
 === bvk cell = 83 has 0.000 % of the basis function pairs === 
 === bvk cell = 84 has 2.007 % of the basis function pairs === 
 === bvk cell = 85 has 30.769 % of the basis function pairs === 
 === bvk cell = 86 has 67.642 % of the basis function pairs === 
 === bvk cell = 87 has 68.562 % of the basis function pairs === 
 === bvk cell = 88 has 6.271 % of the basis function pairs === 
 === bvk cell = 89 has 0.000 % of the basis function pairs === 
 === bvk cell = 90 has 0.000 % of the basis function pairs === 
 === bvk cell = 91 has 0.000 % of the basis function pairs === 
 === bvk cell = 92 has 0.000 % of the basis function pairs === 
 === bvk cell = 93 has 17.809 % of the basis function pairs === 
 === bvk cell = 94 has 20.569 % of the basis function pairs === 
 === bvk cell = 95 has 19.231 % of the basis function pairs === 
 === bvk cell = 96 has 2.007 % of the basis function pairs === 
 === bvk cell = 97 has 6.271 % of the basis function pairs === 
 === bvk cell = 98 has 2.007 % of the basis function pairs === 
 === bvk cell = 99 has 0.000 % of the basis function pairs === 
 === bvk cell = 100 has 0.000 % of the basis function pairs === 
 === bvk cell = 101 has 0.000 % of the basis function pairs === 
 === bvk cell = 102 has 0.000 % of the basis function pairs === 
 === bvk cell = 103 has 0.000 % of the basis function pairs === 
 === bvk cell = 104 has 37.207 % of the basis function pairs === 
 === bvk cell = 105 has 43.645 % of the basis function pairs === 
 === bvk cell = 106 has 30.769 % of the basis function pairs === 
 === bvk cell = 107 has 17.809 % of the basis function pairs === 
 === bvk cell = 108 has 0.000 % of the basis function pairs === 
 === bvk cell = 109 has 0.000 % of the basis function pairs === 
 === bvk cell = 110 has 0.000 % of the basis function pairs === 
 === bvk cell = 111 has 19.231 % of the basis function pairs === 
 === bvk cell = 112 has 97.617 % of the basis function pairs === 
 === bvk cell = 113 has 100.000 % of the basis function pairs === 
 === bvk cell = 114 has 67.642 % of the basis function pairs === 
 === bvk cell = 115 has 20.569 % of the basis function pairs === 
 === bvk cell = 116 has 0.000 % of the basis function pairs === 
 === bvk cell = 117 has 0.000 % of the basis function pairs === 
 === bvk cell = 118 has 22.032 % of the basis function pairs === 
 === bvk cell = 119 has 68.562 % of the basis function pairs === 
 === bvk cell = 120 has 100.000 % of the basis function pairs === 
 === bvk cell = 121 has 100.000 % of the basis function pairs === 
 === bvk cell = 122 has 68.562 % of the basis function pairs === 
 === bvk cell = 123 has 19.231 % of the basis function pairs === 
 === bvk cell = 124 has 0.000 % of the basis function pairs === 
 === bvk cell = 125 has 19.231 % of the basis function pairs === 
 === bvk cell = 126 has 68.562 % of the basis function pairs === 
 === bvk cell = 127 has 100.000 % of the basis function pairs === 
 === bvk cell = 128 has 83.403 % of the basis function pairs === 
 === bvk cell = 129 has 40.008 % of the basis function pairs === 
 === bvk cell = 130 has 7.692 % of the basis function pairs === 
 === bvk cell = 131 has 0.000 % of the basis function pairs === 
 === bvk cell = 132 has 2.007 % of the basis function pairs === 
 === bvk cell = 133 has 32.232 % of the basis function pairs === 
 === bvk cell = 134 has 94.482 % of the basis function pairs === 
 === bvk cell = 135 has 97.617 % of the basis function pairs === 
 === bvk cell = 136 has 40.008 % of the basis function pairs === 
 === bvk cell = 137 has 7.692 % of the basis function pairs === 
 === bvk cell = 138 has 0.000 % of the basis function pairs === 
 === bvk cell = 139 has 0.000 % of the basis function pairs === 
 === bvk cell = 140 has 2.007 % of the basis function pairs === 
 === bvk cell = 141 has 30.769 % of the basis function pairs === 
 === bvk cell = 142 has 67.642 % of the basis function pairs === 
 === bvk cell = 143 has 68.562 % of the basis function pairs === 
 === bvk cell = 144 has 7.692 % of the basis function pairs === 
 === bvk cell = 145 has 0.000 % of the basis function pairs === 
 === bvk cell = 146 has 0.000 % of the basis function pairs === 
 === bvk cell = 147 has 0.000 % of the basis function pairs === 
 === bvk cell = 148 has 0.000 % of the basis function pairs === 
 === bvk cell = 149 has 22.575 % of the basis function pairs === 
 === bvk cell = 150 has 26.547 % of the basis function pairs === 
 === bvk cell = 151 has 22.032 % of the basis function pairs === 
 === bvk cell = 152 has 0.000 % of the basis function pairs === 
 === bvk cell = 153 has 0.000 % of the basis function pairs === 
 === bvk cell = 154 has 0.000 % of the basis function pairs === 
 === bvk cell = 155 has 0.000 % of the basis function pairs === 
 === bvk cell = 156 has 0.000 % of the basis function pairs === 
 === bvk cell = 157 has 0.000 % of the basis function pairs === 
 === bvk cell = 158 has 2.007 % of the basis function pairs === 
 === bvk cell = 159 has 0.000 % of the basis function pairs === 
 === bvk cell = 160 has 2.007 % of the basis function pairs === 
 === bvk cell = 161 has 2.007 % of the basis function pairs === 
 === bvk cell = 162 has 0.000 % of the basis function pairs === 
 === bvk cell = 163 has 0.000 % of the basis function pairs === 
 === bvk cell = 164 has 0.000 % of the basis function pairs === 
 === bvk cell = 165 has 0.000 % of the basis function pairs === 
 === bvk cell = 166 has 0.000 % of the basis function pairs === 
 === bvk cell = 167 has 0.000 % of the basis function pairs === 
 === bvk cell = 168 has 32.232 % of the basis function pairs === 
 === bvk cell = 169 has 30.769 % of the basis function pairs === 
 === bvk cell = 170 has 22.575 % of the basis function pairs === 
 === bvk cell = 171 has 0.000 % of the basis function pairs === 
 === bvk cell = 172 has 0.000 % of the basis function pairs === 
 === bvk cell = 173 has 0.000 % of the basis function pairs === 
 === bvk cell = 174 has 2.007 % of the basis function pairs === 
 === bvk cell = 175 has 20.569 % of the basis function pairs === 
 === bvk cell = 176 has 94.482 % of the basis function pairs === 
 === bvk cell = 177 has 67.642 % of the basis function pairs === 
 === bvk cell = 178 has 26.547 % of the basis function pairs === 
 === bvk cell = 179 has 2.007 % of the basis function pairs === 
[...]
 -0.08884 0.07415 0.13654 0.22594 0.36670 0.45275 0.46612 0.50214 0.51723 0.63180
 0.74223 0.76673 0.77191 0.89161 0.91679 0.92421 0.97197 1.07115 1.08920 1.16842
 1.20272 1.21968 1.27351 1.28382 1.31936 1.36292 1.41205 1.45440 1.56412 1.56809
 1.63670 1.66740 1.69147 1.69392 1.71501 1.71980 1.76642 1.88116 1.94725 1.98411
 2.00996 2.03981 2.11240 2.15790 2.21230 2.21613 2.26286 2.35043 2.35985 2.43929
 2.47156 2.49297 2.49508 2.52356 2.57380 2.57931 2.59653 2.75761 2.77222 2.81382
 2.83556 2.87075 2.88651 2.91979 2.94342 2.98619 3.07956 3.11128 3.12145 3.15811
 3.19666 3.30820 3.33738 3.38083 3.38535 3.40282 3.40947 3.42246 3.47733 3.48116
 3.48336 3.48889 3.63696 3.67696 3.70791 3.74191 3.79551 3.82555 3.91715 3.94123
 4.08996 4.14573 4.23756 4.35287 4.52527 4.60677 7.76993 8.28895 8.29707 9.00210
 9.32178 9.85599 13.08121 14.27894
 == 494-th k-point (0.07654,0.38270,0.22962) occupation: 14==
 -65.00561 -65.00561 -4.62777 -4.62764 -3.03963 -3.03961 -3.03942 -3.03909 -3.03891 -3.03888
 -0.08243 0.06073 0.15261 0.20377 0.38233 0.40748 0.46165 0.49604 0.61118 0.63564
 0.71938 0.75607 0.80226 0.83822 0.91549 0.95449 0.98710 1.05837 1.09304 1.12303
 1.18190 1.23573 1.25110 1.28878 1.35165 1.38532 1.44304 1.44717 1.50179 1.52857
 1.58823 1.61731 1.65461 1.74665 1.75948 1.82165 1.83632 1.88297 1.91639 1.97923
 2.02980 2.04420 2.08247 2.14215 2.16968 2.19833 2.26628 2.34702 2.35060 2.40321
 2.43566 2.44970 2.49712 2.56215 2.58808 2.61421 2.67323 2.75361 2.78566 2.82510
 2.83199 2.88157 2.89651 2.93096 2.95980 2.97727 3.01529 3.08552 3.12001 3.16738
 3.20292 3.29063 3.30212 3.30339 3.35154 3.38702 3.42415 3.45835 3.49176 3.50184
 3.54117 3.59563 3.63766 3.68614 3.73319 3.75131 3.79473 3.85378 3.90910 3.96811
 4.08863 4.11345 4.24217 4.33277 4.53149 4.59381 8.00650 8.21918 8.33243 9.05645
 9.61039 10.05669 13.16320 14.26110
 == 495-th k-point (0.15308,0.45924,0.15308) occupation: 14==
 -65.00561 -65.00561 -4.62775 -4.62765 -3.03964 -3.03962 -3.03939 -3.03912 -3.03891 -3.03888
 -0.06400 0.04088 0.14472 0.19348 0.33224 0.44063 0.48818 0.49553 0.65290 0.66961
 0.72939 0.74548 0.75523 0.90011 0.93692 0.96874 0.99368 1.00670 1.01751 1.12480
 1.16484 1.21137 1.22864 1.32201 1.35779 1.36944 1.37176 1.44748 1.49936 1.56350
 1.60343 1.63907 1.67007 1.68446 1.71745 1.81676 1.90726 1.92956 1.93726 1.99288
 2.01731 2.04354 2.08093 2.13689 2.16469 2.19984 2.28272 2.31837 2.32883 2.37180
 2.44971 2.46063 2.50181 2.51835 2.61374 2.61575 2.65889 2.74207 2.79473 2.81326
 2.83909 2.90351 2.93305 2.95215 2.95854 3.02428 3.03503 3.05240 3.08350 3.13022
 3.15803 3.23430 3.31625 3.32513 3.33826 3.34895 3.35795 3.43704 3.49612 3.50552
 3.56515 3.65323 3.65635 3.71638 3.72003 3.78996 3.80053 3.84777 3.87715 3.98520
 4.07389 4.21087 4.25240 4.29404 4.55890 4.56773 8.10091 8.34163 8.40297 8.85892
 9.77890 9.94053 13.16076 14.18996
 == 496-th k-point (-0.30616,-0.15308,0.76541) occupation: 14==
 -65.00561 -65.00561 -4.62775 -4.62765 -3.03963 -3.03962 -3.03940 -3.03911 -3.03890 -3.03887
 -0.05831 0.02578 0.14794 0.19524 0.38959 0.39174 0.49503 0.54026 0.54884 0.66970
 0.70811 0.73412 0.85014 0.85634 0.94868 0.96361 1.00248 1.05213 1.05761 1.10002
 1.20717 1.21555 1.22239 1.26072 1.33438 1.38640 1.40079 1.43605 1.48287 1.49928
 1.57917 1.59729 1.65879 1.75011 1.76518 1.81106 1.87391 1.94077 1.95670 1.97601
 2.04817 2.05773 2.12551 2.17330 2.19049 2.23044 2.29645 2.31537 2.33368 2.34955
 2.42908 2.44203 2.47197 2.47967 2.57161 2.63645 2.72967 2.73928 2.78713 2.84363
 2.86757 2.88177 2.90963 2.95307 2.97173 2.98283 3.03297 3.07002 3.09316 3.15037
 3.20905 3.23124 3.24561 3.27179 3.32481 3.37844 3.42628 3.47051 3.47454 3.52570
 3.53810 3.58960 3.64152 3.65407 3.70052 3.75009 3.82090 3.86850 3.88010 4.00999
 4.01868 4.14644 4.25113 4.26706 4.51847 4.54741 8.21933 8.39122 8.40553 8.85417
 9.20489 9.87452 13.13386 14.45577
 == 497-th k-point (-0.22962,-0.07654,0.68887) occupation: 14==
 -65.00561 -65.00561 -4.62773 -4.62768 -3.03964 -3.03963 -3.03933 -3.03918 -3.03889 -3.03887
 -0.03638 0.02090 0.12513 0.16568 0.36427 0.43441 0.47111 0.55106 0.58801 0.68880
 0.72910 0.80262 0.84746 0.87122 0.92612 0.95575 0.97438 1.00124 1.05850 1.08576
 1.12382 1.17265 1.20335 1.30036 1.32702 1.35913 1.43189 1.45281 1.48137 1.50280
 1.57834 1.64702 1.71257 1.75984 1.77743 1.81951 1.87577 1.89213 1.89631 1.97996
 2.00137 2.08000 2.11183 2.17913 2.19922 2.25831 2.29003 2.31616 2.33014 2.35782
 2.40624 2.45579 2.48998 2.54084 2.59480 2.65086 2.68147 2.72505 2.79452 2.81726
 2.84608 2.88264 2.92496 2.94717 2.99878 3.00953 3.04008 3.06132 3.11096 3.12792
 3.20337 3.23867 3.27728 3.31983 3.34195 3.39847 3.41003 3.41936 3.45246 3.48340
 3.53235 3.58792 3.61968 3.66428 3.68449 3.71641 3.79849 3.87597 3.96122 3.98013
 4.07182 4.17198 4.25661 4.27584 4.55928 4.59035 8.25127 8.41718 8.54647 8.75119
 9.45227 9.81985 13.36670 13.99862
 == 498-th k-point (-0.15308,0.00000,0.61232) occupation: 14==
 -65.00561 -65.00561 -4.62770 -4.62770 -3.03964 -3.03964 -3.03925 -3.03925 -3.03888 -3.03888
 -0.00870 -0.00870 0.14881 0.14881 0.34883 0.34883 0.56635 0.56635 0.66952 0.66952
 0.75363 0.75363 0.85471 0.85471 0.92038 0.92038 0.98065 0.98065 1.08404 1.08404
 1.13078 1.13078 1.17223 1.17223 1.40883 1.40883 1.48733 1.48733 1.49628 1.49628
 1.63806 1.63807 1.72153 1.72155 1.76923 1.76924 1.85259 1.85260 1.89684 1.89685
 2.04551 2.04552 2.16772 2.16777 2.23389 2.23390 2.29741 2.29742 2.33987 2.33988
 2.45332 2.45333 2.48452 2.48452 2.63576 2.63580 2.73849 2.73850 2.76529 2.76531
 2.86216 2.86217 2.92738 2.92738 2.97783 2.97788 3.05844 3.05845 3.13463 3.13464
 3.21760 3.21764 3.27821 3.27822 3.33799 3.33802 3.36845 3.36862 3.51364 3.51366
 3.57570 3.57575 3.62304 3.62304 3.72361 3.72368 3.90852 3.90854 3.99471 3.99475
 4.20638 4.20642 4.31103 4.31105 4.60112 4.60116 8.32947 8.32948 8.62833 8.62834
 9.76971 9.76997 13.41724 13.41728
 == 499-th k-point (-0.07654,0.07654,0.53578) occupation: 14==
 -65.00561 -65.00561 -4.62773 -4.62768 -3.03964 -3.03964 -3.03931 -3.03918 -3.03889 -3.03889
 -0.04296 0.02470 0.14811 0.17581 0.30913 0.34876 0.58229 0.58487 0.67477 0.67963
 0.73644 0.75055 0.82713 0.83457 0.86519 0.96457 0.97575 0.99508 1.04514 1.10099
 1.12022 1.15118 1.17547 1.24519 1.36851 1.40502 1.48077 1.50841 1.51061 1.56321
 1.62572 1.66382 1.69215 1.71946 1.76577 1.78072 1.79257 1.86741 1.87556 1.91737
 1.99725 2.07570 2.11575 2.14868 2.17212 2.24389 2.25723 2.34094 2.35219 2.38561
 2.44008 2.44632 2.50001 2.52224 2.55729 2.61544 2.70001 2.75877 2.79639 2.82017
 2.84044 2.89017 2.91525 2.95656 2.95933 2.98588 3.03826 3.04360 3.09156 3.12425
 3.22511 3.24145 3.24653 3.30747 3.31374 3.32802 3.37431 3.42993 3.50304 3.52164
 3.54661 3.57435 3.65355 3.65906 3.71581 3.74165 3.90277 3.91743 3.97116 4.07869
 4.19132 4.26545 4.30603 4.34317 4.59783 4.61756 8.13886 8.44436 8.52759 8.63251
 9.73881 10.07571 13.33459 13.45401
 == 500-th k-point (0.00000,0.15308,0.45924) occupation: 14==
 -65.00561 -65.00561 -4.62775 -4.62765 -3.03963 -3.03963 -3.03937 -3.03913 -3.03890 -3.03890
 -0.06866 0.05656 0.15088 0.17308 0.34778 0.37402 0.48891 0.57185 0.65459 0.65507
 0.75312 0.77421 0.79941 0.81650 0.89202 0.91270 1.00040 1.01890 1.08562 1.09290
 1.14544 1.18515 1.25130 1.30057 1.33731 1.36587 1.47084 1.50138 1.50195 1.53522
 1.53729 1.67519 1.72776 1.73851 1.78822 1.80322 1.83173 1.85500 1.89677 1.92414
 2.01914 2.04196 2.07233 2.15029 2.15433 2.20717 2.21219 2.33670 2.36100 2.42656
 2.43617 2.46129 2.52510 2.58240 2.58340 2.61036 2.62427 2.76226 2.78562 2.83535
 2.87584 2.90094 2.90583 2.91173 2.94954 2.99874 3.01489 3.05736 3.07929 3.12644
 3.19106 3.25669 3.31756 3.32988 3.35324 3.38936 3.41720 3.43885 3.50230 3.51071
 3.53485 3.54197 3.65544 3.66233 3.70687 3.72122 3.87847 3.90072 3.97626 4.04382
 4.13229 4.16054 4.27915 4.33734 4.57959 4.61739 8.12177 8.25937 8.31211 8.86389
 10.15228 10.26097 13.31714 13.61929
 == 501-th k-point (0.07654,0.22962,0.38270) occupation: 14==
 -65.00561 -65.00561 -4.62777 -4.62764 -3.03963 -3.03961 -3.03942 -3.03909 -3.03891 -3.03888
 -0.08243 0.06073 0.15261 0.20377 0.38233 0.40748 0.46165 0.49604 0.61118 0.63564
 0.71938 0.75607 0.80226 0.83822 0.91549 0.95449 0.98710 1.05837 1.09304 1.12303
 1.18190 1.23573 1.25110 1.28878 1.35165 1.38532 1.44304 1.44717 1.50179 1.52857
 1.58823 1.61731 1.65461 1.74665 1.75948 1.82165 1.83632 1.88297 1.91639 1.97923
 2.02980 2.04420 2.08247 2.14215 2.16968 2.19833 2.26628 2.34702 2.35060 2.40321
 2.43566 2.44970 2.49712 2.56215 2.58808 2.61421 2.67323 2.75361 2.78566 2.82510
 2.83199 2.88157 2.89651 2.93096 2.95980 2.97727 3.01529 3.08552 3.12001 3.16738
 3.20292 3.29063 3.30212 3.30339 3.35154 3.38702 3.42415 3.45835 3.49176 3.50184
 3.54117 3.59563 3.63766 3.68614 3.73319 3.75131 3.79473 3.85378 3.90910 3.96811
 4.08863 4.11345 4.24217 4.33277 4.53149 4.59381 8.00650 8.21918 8.33243 9.05645
 9.61039 10.05669 13.16320 14.26110
 == 502-th k-point (0.15308,0.30616,0.30616) occupation: 14==
 -65.00561 -65.00560 -4.62777 -4.62763 -3.03962 -3.03961 -3.03946 -3.03906 -3.03890 -3.03889
 -0.08400 0.04069 0.18438 0.22821 0.36355 0.41005 0.41935 0.56704 0.57801 0.61638
 0.68961 0.73795 0.80849 0.81716 0.90423 0.96833 1.04420 1.10075 1.12192 1.12272
 1.19071 1.21871 1.29821 1.31171 1.31876 1.36460 1.40032 1.46095 1.50927 1.53392
 1.54129 1.61464 1.67989 1.71693 1.73860 1.81616 1.82345 1.86999 1.95189 1.99086
 2.06444 2.09038 2.13214 2.15843 2.16535 2.20562 2.30282 2.33018 2.34847 2.38639
 2.42156 2.44125 2.50960 2.55749 2.58497 2.62258 2.72225 2.76847 2.78696 2.79737
 2.82113 2.87794 2.90613 2.94665 2.95007 2.96973 2.97725 3.10090 3.11751 3.13246
 3.16526 3.19631 3.26840 3.35018 3.37058 3.40253 3.45266 3.45481 3.50128 3.53615
 3.58750 3.64180 3.67298 3.67327 3.71772 3.73989 3.75672 3.89764 3.96423 3.97687
 4.02394 4.12249 4.24573 4.33837 4.48284 4.54082 8.02053 8.22753 8.35491 9.22411
 9.35474 9.95827 12.66305 14.57926
 == 503-th k-point (0.22962,0.38270,0.22962) occupation: 14==
 -65.00561 -65.00560 -4.62777 -4.62764 -3.03962 -3.03961 -3.03945 -3.03906 -3.03892 -3.03888
 -0.07495 0.02698 0.19113 0.21724 0.35735 0.40606 0.42809 0.54817 0.60766 0.66850
 0.70139 0.70856 0.73895 0.83307 0.95765 1.00811 1.03200 1.06526 1.09918 1.11076
 1.19630 1.25428 1.25728 1.30693 1.32519 1.38827 1.39727 1.41489 1.50498 1.50507
 1.54471 1.60926 1.67587 1.71794 1.72560 1.80434 1.85305 1.94622 1.96253 2.00803
 2.05958 2.09110 2.11541 2.17510 2.19801 2.24053 2.25281 2.28873 2.32950 2.35014
 2.43083 2.45112 2.50192 2.53830 2.56929 2.67847 2.74632 2.75827 2.77305 2.81134
 2.82644 2.88255 2.89359 2.93328 2.95959 2.96562 3.03484 3.08191 3.09030 3.11494
 3.14503 3.22334 3.23521 3.23943 3.38218 3.42691 3.44217 3.49711 3.52979 3.53880
 3.56809 3.63760 3.65861 3.69344 3.71286 3.77900 3.79693 3.86029 3.94080 3.96558
 4.04141 4.15811 4.25010 4.30056 4.49820 4.50228 8.16747 8.35764 8.37616 9.09858
 9.57066 9.96687 12.62246 14.65307
 == 504-th k-point (-0.22962,-0.22962,0.84195) occupation: 14==
 -65.00561 -65.00560 -4.62777 -4.62764 -3.03962 -3.03961 -3.03945 -3.03906 -3.03892 -3.03888
 -0.07495 0.02698 0.19113 0.21724 0.35735 0.40606 0.42809 0.54817 0.60766 0.66850
 0.70139 0.70856 0.73895 0.83307 0.95765 1.00811 1.03200 1.06526 1.09918 1.11076
 1.19630 1.25428 1.25728 1.30693 1.32519 1.38827 1.39727 1.41489 1.50498 1.50507
 1.54471 1.60926 1.67587 1.71794 1.72560 1.80434 1.85305 1.94622 1.96253 2.00803
 2.05958 2.09110 2.11541 2.17510 2.19801 2.24053 2.25281 2.28873 2.32950 2.35014
 2.43083 2.45112 2.50192 2.53830 2.56929 2.67847 2.74632 2.75827 2.77305 2.81134
 2.82644 2.88255 2.89359 2.93328 2.95959 2.96562 3.03484 3.08191 3.09030 3.11494
 3.14503 3.22334 3.23521 3.23943 3.38218 3.42691 3.44217 3.49711 3.52979 3.53880
 3.56809 3.63760 3.65861 3.69344 3.71286 3.77900 3.79693 3.86029 3.94080 3.96558
 4.04141 4.15811 4.25010 4.30056 4.49820 4.50228 8.16747 8.35764 8.37616 9.09858
 9.57066 9.96687 12.62246 14.65307
 == 505-th k-point (-0.15308,-0.15308,0.76541) occupation: 14==
 -65.00561 -65.00561 -4.62775 -4.62765 -3.03964 -3.03962 -3.03939 -3.03912 -3.03891 -3.03888
 -0.06400 0.04088 0.14472 0.19348 0.33224 0.44063 0.48818 0.49553 0.65290 0.66961
 0.72939 0.74548 0.75523 0.90011 0.93692 0.96874 0.99368 1.00670 1.01751 1.12480
 1.16484 1.21137 1.22864 1.32201 1.35779 1.36944 1.37176 1.44748 1.49936 1.56350
 1.60343 1.63907 1.67007 1.68446 1.71745 1.81676 1.90726 1.92956 1.93726 1.99288
 2.01731 2.04354 2.08093 2.13689 2.16469 2.19984 2.28272 2.31837 2.32883 2.37180
 2.44971 2.46063 2.50181 2.51835 2.61374 2.61575 2.65889 2.74207 2.79473 2.81326
 2.83909 2.90351 2.93305 2.95215 2.95854 3.02428 3.03503 3.05240 3.08350 3.13022
 3.15803 3.23430 3.31625 3.32513 3.33826 3.34895 3.35795 3.43704 3.49612 3.50552
 3.56515 3.65323 3.65635 3.71638 3.72003 3.78996 3.80053 3.84777 3.87715 3.98520
 4.07389 4.21087 4.25240 4.29404 4.55890 4.56773 8.10091 8.34163 8.40297 8.85892
 9.77890 9.94053 13.16076 14.18996
 == 506-th k-point (-0.07654,-0.07654,0.68887) occupation: 14==
 -65.00561 -65.00561 -4.62773 -4.62768 -3.03964 -3.03964 -3.03931 -3.03918 -3.03889 -3.03889
 -0.04296 0.02470 0.14811 0.17581 0.30913 0.34876 0.58229 0.58487 0.67477 0.67963
 0.73644 0.75055 0.82713 0.83457 0.86519 0.96456 0.97575 0.99508 1.04514 1.10098
 1.12023 1.15118 1.17548 1.24519 1.36849 1.40504 1.48078 1.50840 1.51061 1.56320
 1.62570 1.66383 1.69223 1.71946 1.76584 1.78073 1.79245 1.86739 1.87557 1.91738
 1.99699 2.07585 2.11533 2.14860 2.17241 2.24397 2.25716 2.34083 2.35217 2.38562
 2.44007 2.44625 2.49952 2.52232 2.55725 2.61565 2.70011 2.75898 2.79606 2.82020
 2.84085 2.88979 2.91528 2.95666 2.95932 2.98596 3.03811 3.04375 3.09158 3.12424
 3.22523 3.24059 3.24709 3.30706 3.31374 3.32822 3.37320 3.43126 3.50228 3.52233
 3.54657 3.57521 3.65335 3.65905 3.71560 3.74177 3.90266 3.91701 3.97187 4.07858
 4.19245 4.26472 4.30624 4.34323 4.59447 4.62107 8.13886 8.44444 8.52721 8.63269
 9.73262 10.08371 13.33483 13.45454
 == 507-th k-point (0.00000,0.00000,0.61232) occupation: 14==
 -65.00561 -65.00561 -4.62770 -4.62770 -3.03964 -3.03964 -3.03924 -3.03924 -3.03889 -3.03889
 -0.01162 -0.01162 0.16953 0.16953 0.30236 0.30236 0.64794 0.64794 0.68868 0.68868
 0.74438 0.74438 0.75503 0.75503 0.97743 0.97743 1.00277 1.00278 1.02305 1.02306
 1.06990 1.06990 1.23787 1.23787 1.37413 1.37416 1.54470 1.54471 1.58193 1.58194
 1.63098 1.63098 1.69127 1.69127 1.74495 1.74496 1.82750 1.82784 1.85612 1.85612
 2.08062 2.08146 2.09737 2.09743 2.18720 2.18720 2.30482 2.30484 2.43077 2.43081
 2.45551 2.45551 2.50291 2.50291 2.52103 2.52216 2.73708 2.73708 2.77718 2.77732
 2.86745 2.86803 2.98832 2.98832 3.00921 3.00921 3.02673 3.02673 3.08146 3.08158
 3.23356 3.23370 3.25041 3.25058 3.26313 3.26313 3.45230 3.45603 3.49207 3.49209
 3.55753 3.55761 3.64300 3.64300 3.72922 3.72922 3.93612 3.93688 4.06932 4.06932
 4.29081 4.29143 4.35425 4.35426 4.60797 4.61293 8.31777 8.31777 8.62562 8.62572
 9.65714 9.66567 13.41105 13.41105
 == 508-th k-point (0.07654,0.07654,0.53578) occupation: 14==
 -65.00561 -65.00561 -4.62773 -4.62768 -3.03964 -3.03964 -3.03931 -3.03918 -3.03889 -3.03889
 -0.04296 0.02470 0.14811 0.17581 0.30913 0.34876 0.58229 0.58487 0.67477 0.67963
 0.73644 0.75055 0.82713 0.83457 0.86519 0.96456 0.97575 0.99508 1.04514 1.10098
 1.12023 1.15118 1.17548 1.24519 1.36849 1.40504 1.48078 1.50840 1.51061 1.56320
 1.62570 1.66383 1.69223 1.71946 1.76584 1.78073 1.79245 1.86739 1.87557 1.91738
 1.99699 2.07585 2.11533 2.14860 2.17241 2.24397 2.25716 2.34083 2.35217 2.38562
 2.44007 2.44625 2.49952 2.52232 2.55725 2.61565 2.70011 2.75898 2.79606 2.82020
 2.84085 2.88979 2.91528 2.95666 2.95932 2.98596 3.03811 3.04375 3.09158 3.12424
 3.22523 3.24059 3.24709 3.30706 3.31374 3.32822 3.37320 3.43126 3.50228 3.52233
 3.54657 3.57521 3.65335 3.65905 3.71560 3.74177 3.90266 3.91701 3.97187 4.07858
 4.19245 4.26472 4.30624 4.34323 4.59447 4.62107 8.13886 8.44444 8.52721 8.63269
 9.73262 10.08371 13.33483 13.45454
 == 509-th k-point (0.15308,0.15308,0.45924) occupation: 14==
 -65.00561 -65.00561 -4.62775 -4.62765 -3.03964 -3.03962 -3.03939 -3.03912 -3.03891 -3.03888
 -0.06400 0.04088 0.14472 0.19348 0.33224 0.44063 0.48818 0.49553 0.65290 0.66961
 0.72939 0.74548 0.75523 0.90011 0.93692 0.96874 0.99368 1.00670 1.01751 1.12480
 1.16484 1.21137 1.22864 1.32201 1.35779 1.36944 1.37176 1.44748 1.49936 1.56350
 1.60343 1.63907 1.67007 1.68446 1.71745 1.81676 1.90726 1.92956 1.93726 1.99288
 2.01731 2.04354 2.08093 2.13689 2.16469 2.19984 2.28272 2.31837 2.32883 2.37180
 2.44971 2.46063 2.50181 2.51835 2.61374 2.61575 2.65889 2.74207 2.79473 2.81326
 2.83909 2.90351 2.93305 2.95215 2.95854 3.02428 3.03503 3.05240 3.08350 3.13022
 3.15803 3.23430 3.31625 3.32513 3.33826 3.34895 3.35795 3.43704 3.49612 3.50552
 3.56515 3.65323 3.65635 3.71638 3.72003 3.78996 3.80053 3.84777 3.87715 3.98520
 4.07389 4.21087 4.25240 4.29404 4.55890 4.56773 8.10091 8.34163 8.40297 8.85892
 9.77890 9.94053 13.16076 14.18996
 == 510-th k-point (0.22962,0.22962,0.38270) occupation: 14==
 -65.00561 -65.00560 -4.62777 -4.62764 -3.03962 -3.03961 -3.03945 -3.03906 -3.03892 -3.03888
 -0.07495 0.02698 0.19113 0.21724 0.35735 0.40606 0.42809 0.54817 0.60766 0.66850
 0.70139 0.70856 0.73895 0.83307 0.95765 1.00811 1.03200 1.06526 1.09918 1.11076
 1.19630 1.25428 1.25728 1.30693 1.32519 1.38827 1.39727 1.41489 1.50498 1.50507
 1.54471 1.60926 1.67587 1.71794 1.72560 1.80434 1.85305 1.94622 1.96253 2.00803
 2.05958 2.09110 2.11541 2.17510 2.19801 2.24053 2.25281 2.28873 2.32950 2.35014
 2.43083 2.45112 2.50192 2.53830 2.56929 2.67847 2.74632 2.75827 2.77305 2.81134
 2.82644 2.88255 2.89359 2.93328 2.95959 2.96562 3.03484 3.08191 3.09030 3.11494
 3.14503 3.22334 3.23521 3.23943 3.38218 3.42691 3.44217 3.49711 3.52979 3.53880
 3.56809 3.63760 3.65861 3.69344 3.71286 3.77900 3.79693 3.86029 3.94080 3.96558
 4.04141 4.15811 4.25010 4.30056 4.49820 4.50228 8.16747 8.35764 8.37616 9.09858
 9.57066 9.96687 12.62246 14.65307
 == 511-th k-point (0.30616,0.30616,0.30616) occupation: 14==
 -65.00562 -65.00560 -4.62777 -4.62763 -3.03961 -3.03961 -3.03949 -3.03902 -3.03890 -3.03890
 -0.07809 0.01871 0.23066 0.23066 0.33352 0.39991 0.39991 0.55832 0.67262 0.67262
 0.69299 0.69519 0.69519 0.75390 0.99997 1.01494 1.09077 1.09077 1.09461 1.09461
 1.23863 1.26023 1.26023 1.30701 1.30701 1.35743 1.41650 1.49046 1.49046 1.50108
 1.50108 1.58387 1.62552 1.65341 1.87969 1.87969 1.88666 1.90820 1.90820 1.92005
 2.12737 2.12737 2.19136 2.19616 2.19616 2.24481 2.26993 2.26993 2.33414 2.33414
 2.46225 2.46225 2.55672 2.55672 2.60142 2.67922 2.74737 2.77462 2.77462 2.79482
 2.81815 2.81815 2.82822 2.91987 2.95002 2.96175 3.09540 3.09540 3.09795 3.09795
 3.19220 3.19220 3.21261 3.21261 3.31473 3.46584 3.46584 3.55218 3.55598 3.55598
 3.56438 3.67418 3.67418 3.69024 3.73083 3.76027 3.93381 3.93381 4.00565 4.00565
 4.12754 4.14911 4.14911 4.33521 4.43930 4.43930 8.25908 8.25908 8.32996 9.36532
 9.36532 10.00503 11.95043 14.72139
 ---------------------------------------------------------------------------
 VBM is at 219-th k-point with 7.49211 eV
 CBM is at 24-th k-point with 8.12669 eV
 Band gap is 0.63458 eV


           Ground-State Mulliken Net Atomic Charges

      Atom                 Charge (a.u.)          Spin (a.u.)
   --------------------------------------------------------
      1 Si              (-0.000000,-0.000000)    (0.000000,0.000000)
      2 Si                (0.000000,0.000000)    (0.000000,0.000000)
   --------------------------------------------------------
  Sum of atomic charges =     (-0.000000,-0.000000)
  Sum of spin   charges =       (0.000000,0.000000)



 Total job time:  843.14 s.
 Tue Sep  9 04:07:07 2025


        *************************************************************
        *                                                           *
        *  Thank you very much for using QCPBC. Have a nice day.    *
        *                                                           *
        *************************************************************

Running job 1 of 1
