                  Welcome to Q-Chem
           with Periodic Boundary Condition
     A Quantum Leap Into The Future Of Chemistry

 Adam Rettig, Xintian Feng, Meng-Fu Chen, Hieu Dinh, Stephen Quiton,
 Anton Ni, Paul J. Robinson, Jinghong Zhang, Joonho Lee

Contributors to earlier versions of Q-Chem not listed above:
 Evgeny Epifanovsky, Leo Cunha, Jerome F. Gonthier, Kuan-Yu Liu
 Input file: /n/netscratch/joonholee_lab/Lab/hieudinh//si_2_ccpvqz_omega_0.3_111111.scratch20250909061429/si_2_ccpvqz_omega_0.3_111111.0
 Scratch folder: /n/netscratch/joonholee_lab/Lab/hieudinh//si_2_ccpvqz_omega_0.3_111111.scratch20250909061429
 Auxillary files located at: /n/holylabs/LABS/joonholee_lab/Lab/qchem_base/qcaux
 Q-Chem begins on Tue Sep  9 06:14:30 2025

 -------------------------------------------------------------
 User input:
 -------------------------------------------------------------
 $lattice
 3
 0.000000 5.130600 5.130600
 5.130600 0.000000 5.130600
 5.130600 5.130600 0.000000
 $end
 
 $unitcell
 ABSOLUTE
 0 1
 Si 0.000000 0.000000 0.000000
 Si 2.565300 2.565300 2.565300
 $end
 
 $rem
 jobtype = sp
 method = pbe
 scf_convergence = 5
 scf_guess = autosad
 scf_algorithm = diis_gdm
 basis = cc-pvqz
 aux_basis = cc-pvqz-jk
 input_bohr = true
 symmetry = false
 rsdf_print_level 1
 is_basis_uctr true
 
 mp_mesh = [11,11,11]
 
 integral_direct true
 bvk_cgto true
 
 thresh 14
 mem_total 1000000
 threads 32
 
 MAX_SCF_CYCLES 500
 madelung = false
 omega 0.3
 do_rij_bigmem true
 automate_g true
 print_level 10
 grid_type_xc 1
 
 thresh_1e2c_sp 1e-14
 thresh_2e3c_bra_ket_sep 1e-10
 thresh_g 1e-12
 $end
 
 -------------------------------------------------------------
 Running PBC job

 Requested Exchange Correlation Functionals: 
  DFT Exchange:  1.00000 pbe_x
  DFT Correlation:  1.00000 pbe_c
 using 32 threads for computing.
 ---------------------------------------------------------------
      Coordinates of Atoms in Central Unit Cell (Angstroms)
    I     Atom         X            Y            Z
 ---------------------------------------------------------------
    1      Si      0.000000     0.000000     0.000000
    2      Si      1.357498     1.357498     1.357498
 ---------------------------------------------------------------
 --------------------------------------------------
              Lattice Vectors (Angstroms)
              X            Y            Z
 --------------------------------------------------
   X       0.000000     2.714997     2.714997
   Y       2.714997     0.000000     2.714997
   Z       2.714997     2.714997     0.000000
 --------------------------------------------------
 --------------------------------------------------
       Reciprocal Lattice Vectors (Angstroms^-1)
              X            Y            Z
 --------------------------------------------------
   X      -1.157126     1.157126     1.157126
   Y       1.157126    -1.157126     1.157126
   Z       1.157126     1.157126    -1.157126
 --------------------------------------------------

 Single point calculation requested

 Hamiltonian contributions:
 List of terms in Hamiltonian: kpts_nn, kpts_kinetic, kpts_vnuc_df, kpts_xc, kpts_rij_bigmem

 K-Points calculation started.

 Basis set information about using solid harmonic (1) or Cartesian (0):
  si : D(1) D(1) D(1) F(1) F(1) G(1) 

 Basis set information about using solid harmonic (1) or Cartesian (0):
  si : D(1) D(1) D(1) D(1) D(1) D(1) D(1) D(1) D(1) F(1) F(1) F(1) F(1) G(1) G(1) H(1) 

 There are 118 basis functions in the central unit cell.
 Print atomic basis of atoms in the central unit cell:
 -------------------------------------------------------------
2 66 134 28

  0.00000000000000e+00  0.00000000000000e+00  0.00000000000000e+00
  2.56530000000000e+00  2.56530000000000e+00  2.56530000000000e+00

  5.13000000000000e+05
  7.68200000000000e+04
  1.74700000000000e+04
  4.93500000000000e+03
  1.60200000000000e+03
  5.74100000000000e+02
  2.21500000000000e+02
  9.05400000000000e+01
  3.87400000000000e+01
  1.69500000000000e+01
  6.45200000000000e+00
  2.87400000000000e+00
  1.25000000000000e+00
  3.59900000000000e-01
  1.69900000000000e-01
  7.06600000000000e-02
  1.12200000000000e+03
  2.66000000000000e+02
  8.59200000000000e+01
  3.23300000000000e+01
  1.33700000000000e+01
  5.80000000000000e+00
  2.55900000000000e+00
  1.12400000000000e+00
  3.98800000000000e-01
  1.53300000000000e-01
  5.72800000000000e-02
  7.60000000000000e-01
  3.02000000000000e-01
  1.20000000000000e-01
  5.41000000000000e-01
  2.12000000000000e-01
  4.61000000000000e-01
  5.13000000000000e+05
  7.68200000000000e+04
  1.74700000000000e+04
  4.93500000000000e+03
  1.60200000000000e+03
  5.74100000000000e+02
  2.21500000000000e+02
  9.05400000000000e+01
  3.87400000000000e+01
  1.69500000000000e+01
  6.45200000000000e+00
  2.87400000000000e+00
  1.25000000000000e+00
  3.59900000000000e-01
  1.69900000000000e-01
  7.06600000000000e-02
  1.12200000000000e+03
  2.66000000000000e+02
  8.59200000000000e+01
  3.23300000000000e+01
  1.33700000000000e+01
  5.80000000000000e+00
  2.55900000000000e+00
  1.12400000000000e+00
  3.98800000000000e-01
  1.53300000000000e-01
  5.72800000000000e-02
  7.60000000000000e-01
  3.02000000000000e-01
  1.20000000000000e-01
  5.41000000000000e-01
  2.12000000000000e-01
  4.61000000000000e-01

  3.56439732356011e-01
  6.67250935594825e-01
  1.15567538346971e+00
  1.89079471139597e+00
  2.92997535092854e+00
  4.25377897422013e+00
  5.53035652706994e+00
  5.88407857713363e+00
  4.26432221020809e+00
  1.46246852660687e+00
  9.90009037975635e-02
 -5.26805361731285e-03
  1.58075269248041e-03
 -9.63604858609034e-02
 -1.80140685379119e-01
 -3.12991611081079e-01
 -5.12013980868736e-01
 -8.03092560139717e-01
 -1.18597193899895e+00
 -1.63453354628192e+00
 -1.94138718043020e+00
 -1.86039340932271e+00
 -9.21642524314205e-01
  4.93552860211257e-01
  9.09065541611183e-01
  3.40430003714153e-01
  4.89002727192571e-02
  9.13245846186842e-02
  1.58921585782757e-01
  2.59526822498432e-01
  4.08347517411705e-01
  6.02266139654795e-01
  8.36774006155092e-01
  9.98775610751853e-01
  9.86583994360998e-01
  5.01500269670235e-01
 -2.91439000418814e-01
 -6.84883633703988e-01
 -4.85138432421684e-01
  3.31166560285492e-01
  1.88605835767988e-01
  9.76765512168845e-02
  4.17977074735086e+00
  5.88843070847456e+00
  7.44317185052013e+00
  8.05001094515016e+00
  6.97099017282640e+00
  4.33955185260449e+00
  1.76355858703549e+00
  3.34437932089088e-01
 -4.09551658476811e+00
 -5.70145272051300e+00
 -7.35388974061730e+00
 -7.93663059323219e+00
 -7.17813870370958e+00
 -4.42768957771269e+00
 -2.05517820096269e+00
 -1.72105843348797e-01
  4.51735295769850e-01
  1.36731249153695e-01
  3.99432914781939e-02
  1.01820035164008e+00
  2.02498404800701e-01
  4.02695370421242e-02
  3.69528803814005e-01
  4.48962571437413e-02
  1.32316184864580e-01
  3.56439732356011e-01
  6.67250935594825e-01
  1.15567538346971e+00
  1.89079471139597e+00
  2.92997535092854e+00
  4.25377897422013e+00
  5.53035652706994e+00
  5.88407857713363e+00
  4.26432221020809e+00
  1.46246852660687e+00
  9.90009037975635e-02
 -5.26805361731285e-03
  1.58075269248041e-03
 -9.63604858609034e-02
 -1.80140685379119e-01
 -3.12991611081079e-01
 -5.12013980868736e-01
 -8.03092560139717e-01
 -1.18597193899895e+00
 -1.63453354628192e+00
 -1.94138718043020e+00
 -1.86039340932271e+00
 -9.21642524314205e-01
  4.93552860211257e-01
  9.09065541611183e-01
  3.40430003714153e-01
  4.89002727192571e-02
  9.13245846186842e-02
  1.58921585782757e-01
  2.59526822498432e-01
  4.08347517411705e-01
  6.02266139654795e-01
  8.36774006155092e-01
  9.98775610751853e-01
  9.86583994360998e-01
  5.01500269670235e-01
 -2.91439000418814e-01
 -6.84883633703988e-01
 -4.85138432421684e-01
  3.31166560285492e-01
  1.88605835767988e-01
  9.76765512168845e-02
  4.17977074735086e+00
  5.88843070847456e+00
  7.44317185052013e+00
  8.05001094515016e+00
  6.97099017282640e+00
  4.33955185260449e+00
  1.76355858703549e+00
  3.34437932089088e-01
 -4.09551658476811e+00
 -5.70145272051300e+00
 -7.35388974061730e+00
 -7.93663059323219e+00
 -7.17813870370958e+00
 -4.42768957771269e+00
 -2.05517820096269e+00
 -1.72105843348797e-01
  4.51735295769850e-01
  1.36731249153695e-01
  3.99432914781939e-02
  1.01820035164008e+00
  2.02498404800701e-01
  4.02695370421242e-02
  3.69528803814005e-01
  4.48962571437413e-02
  1.32316184864580e-01

0 0 0 0 3 3 3
0 0 13 0 26 0 
13 0

0 3 3 13 1 1 1
39 0 
1 0

0 4 4 14 1 1 1
40 0 
1 0

0 5 5 15 1 1 1
41 0 
1 0

0 6 6 16 2 6 6
42 1 50 1 
8 0

0 12 12 24 1 3 3
58 1 
1 0

0 15 15 25 1 3 3
59 1 
1 0

0 18 18 26 1 3 3
60 1 
1 0

0 21 21 27 1 5 6
61 2 
1 1

0 26 26 28 1 5 6
62 2 
1 1

0 31 31 29 1 5 6
63 2 
1 1

0 36 36 30 1 7 10
64 3 
1 1

0 43 43 31 1 7 10
65 3 
1 1

0 50 50 32 1 9 15
66 4 
1 1

1 59 59 33 3 3 3
67 0 80 0 93 0 
13 0

1 62 62 46 1 1 1
106 0 
1 0

1 63 63 47 1 1 1
107 0 
1 0

1 64 64 48 1 1 1
108 0 
1 0

1 65 65 49 2 6 6
109 1 117 1 
8 0

1 71 71 57 1 3 3
125 1 
1 0

1 74 74 58 1 3 3
126 1 
1 0

1 77 77 59 1 3 3
127 1 
1 0

1 80 80 60 1 5 6
128 2 
1 1

1 85 85 61 1 5 6
129 2 
1 1

1 90 90 62 1 5 6
130 2 
1 1

1 95 95 63 1 7 10
131 3 
1 1

1 102 102 64 1 7 10
132 3 
1 1

1 109 109 65 1 9 15
133 4 
1 1

 -------------------------------------------------------------
 Allocate 265256 B from available memory: 1048576000000 B
 There are 2197 image cells after screening.
 There are 2061 image cells for CGTO evaluation after screening.
 Real-Space grid for FFT initialized based on kinetic energy cutoff (eV) = 500.0
 Real-Space grid for FFT: (10,10,10)
 There are 9261 real-space grid points.
 There are 64 batches of real-space grid points. 
 Size of each grid batch is around 128
 Grid for AFT initialized based on kinetic energy cutoff (eV) = 500.0
 Real-Space grid for AFT: (10,10,10)
 There are 9261 real-space grid points.

 There are 5628 atom-centered grid points.

 Spacegroup symmetry group: Fd-3m
 Reducing spacegroup symmetry to symmorphic group: F -4 3 m
 Monkhorst-Pack mesh is [11,11,11]
 There are 1331 k points.
kpoints in Bohr
-0.2783293690 -0.2783293690 -0.2783293690
-0.2226634952 -0.2226634952 -0.3339952428
-0.1669976214 -0.1669976214 -0.3896611166
-0.1113317476 -0.1113317476 -0.4453269904
-0.0556658738 -0.0556658738 -0.5009928642
-0.0000000000 -0.0000000000 -0.5566587381
0.0556658738 0.0556658738 -0.6123246119
0.1113317476 0.1113317476 -0.6679904857
0.1669976214 0.1669976214 -0.7236563595
0.2226634952 0.2226634952 -0.7793222333
0.2783293690 0.2783293690 -0.8349881071
-0.2226634952 -0.3339952428 -0.2226634952
-0.1669976214 -0.2783293690 -0.2783293690
-0.1113317476 -0.2226634952 -0.3339952428
-0.0556658738 -0.1669976214 -0.3896611166
-0.0000000000 -0.1113317476 -0.4453269904
0.0556658738 -0.0556658738 -0.5009928642
0.1113317476 -0.0000000000 -0.5566587381
0.1669976214 0.0556658738 -0.6123246119
0.2226634952 0.1113317476 -0.6679904857
0.2783293690 0.1669976214 -0.7236563595
0.3339952428 0.2226634952 -0.7793222333
-0.1669976214 -0.3896611166 -0.1669976214
-0.1113317476 -0.3339952428 -0.2226634952
-0.0556658738 -0.2783293690 -0.2783293690
-0.0000000000 -0.2226634952 -0.3339952428
0.0556658738 -0.1669976214 -0.3896611166
0.1113317476 -0.1113317476 -0.4453269904
0.1669976214 -0.0556658738 -0.5009928642
0.2226634952 -0.0000000000 -0.5566587381
0.2783293690 0.0556658738 -0.6123246119
0.3339952428 0.1113317476 -0.6679904857
0.3896611166 0.1669976214 -0.7236563595
-0.1113317476 -0.4453269904 -0.1113317476
-0.0556658738 -0.3896611166 -0.1669976214
-0.0000000000 -0.3339952428 -0.2226634952
0.0556658738 -0.2783293690 -0.2783293690
0.1113317476 -0.2226634952 -0.3339952428
0.1669976214 -0.1669976214 -0.3896611166
0.2226634952 -0.1113317476 -0.4453269904
0.2783293690 -0.0556658738 -0.5009928642
0.3339952428 0.0000000000 -0.5566587381
0.3896611166 0.0556658738 -0.6123246119
0.4453269904 0.1113317476 -0.6679904857
-0.0556658738 -0.5009928642 -0.0556658738
-0.0000000000 -0.4453269904 -0.1113317476
0.0556658738 -0.3896611166 -0.1669976214
0.1113317476 -0.3339952428 -0.2226634952
0.1669976214 -0.2783293690 -0.2783293690
0.2226634952 -0.2226634952 -0.3339952428
0.2783293690 -0.1669976214 -0.3896611166
0.3339952428 -0.1113317476 -0.4453269904
0.3896611166 -0.0556658738 -0.5009928642
0.4453269904 0.0000000000 -0.5566587381
0.5009928642 0.0556658738 -0.6123246119
-0.0000000000 -0.5566587381 0.0000000000
0.0556658738 -0.5009928642 -0.0556658738
0.1113317476 -0.4453269904 -0.1113317476
0.1669976214 -0.3896611166 -0.1669976214
0.2226634952 -0.3339952428 -0.2226634952
0.2783293690 -0.2783293690 -0.2783293690
0.3339952428 -0.2226634952 -0.3339952428
0.3896611166 -0.1669976214 -0.3896611166
0.4453269904 -0.1113317476 -0.4453269904
0.5009928642 -0.0556658738 -0.5009928642
0.5566587381 0.0000000000 -0.5566587381
0.0556658738 -0.6123246119 0.0556658738
0.1113317476 -0.5566587381 0.0000000000
0.1669976214 -0.5009928642 -0.0556658738
0.2226634952 -0.4453269904 -0.1113317476
0.2783293690 -0.3896611166 -0.1669976214
0.3339952428 -0.3339952428 -0.2226634952
0.3896611166 -0.2783293690 -0.2783293690
0.4453269904 -0.2226634952 -0.3339952428
0.5009928642 -0.1669976214 -0.3896611166
0.5566587381 -0.1113317476 -0.4453269904
0.6123246119 -0.0556658738 -0.5009928642
0.1113317476 -0.6679904857 0.1113317476
0.1669976214 -0.6123246119 0.0556658738
0.2226634952 -0.5566587381 0.0000000000
0.2783293690 -0.5009928642 -0.0556658738
0.3339952428 -0.4453269904 -0.1113317476
0.3896611166 -0.3896611166 -0.1669976214
0.4453269904 -0.3339952428 -0.2226634952
0.5009928642 -0.2783293690 -0.2783293690
0.5566587381 -0.2226634952 -0.3339952428
0.6123246119 -0.1669976214 -0.3896611166
0.6679904857 -0.1113317476 -0.4453269904
0.1669976214 -0.7236563595 0.1669976214
0.2226634952 -0.6679904857 0.1113317476
0.2783293690 -0.6123246119 0.0556658738
0.3339952428 -0.5566587381 0.0000000000
0.3896611166 -0.5009928642 -0.0556658738
0.4453269904 -0.4453269904 -0.1113317476
0.5009928642 -0.3896611166 -0.1669976214
0.5566587381 -0.3339952428 -0.2226634952
0.6123246119 -0.2783293690 -0.2783293690
0.6679904857 -0.2226634952 -0.3339952428
0.7236563595 -0.1669976214 -0.3896611166
0.2226634952 -0.7793222333 0.2226634952
0.2783293690 -0.7236563595 0.1669976214
0.3339952428 -0.6679904857 0.1113317476
0.3896611166 -0.6123246119 0.0556658738
0.4453269904 -0.5566587381 0.0000000000
0.5009928642 -0.5009928642 -0.0556658738
0.5566587381 -0.4453269904 -0.1113317476
0.6123246119 -0.3896611166 -0.1669976214
0.6679904857 -0.3339952428 -0.2226634952
0.7236563595 -0.2783293690 -0.2783293690
0.7793222333 -0.2226634952 -0.3339952428
0.2783293690 -0.8349881071 0.2783293690
0.3339952428 -0.7793222333 0.2226634952
0.3896611166 -0.7236563595 0.1669976214
0.4453269904 -0.6679904857 0.1113317476
0.5009928642 -0.6123246119 0.0556658738
0.5566587381 -0.5566587381 0.0000000000
0.6123246119 -0.5009928642 -0.0556658738
0.6679904857 -0.4453269904 -0.1113317476
0.7236563595 -0.3896611166 -0.1669976214
0.7793222333 -0.3339952428 -0.2226634952
0.8349881071 -0.2783293690 -0.2783293690
-0.3339952428 -0.2226634952 -0.2226634952
-0.2783293690 -0.1669976214 -0.2783293690
-0.2226634952 -0.1113317476 -0.3339952428
-0.1669976214 -0.0556658738 -0.3896611166
-0.1113317476 -0.0000000000 -0.4453269904
-0.0556658738 0.0556658738 -0.5009928642
-0.0000000000 0.1113317476 -0.5566587381
0.0556658738 0.1669976214 -0.6123246119
0.1113317476 0.2226634952 -0.6679904857
0.1669976214 0.2783293690 -0.7236563595
0.2226634952 0.3339952428 -0.7793222333
-0.2783293690 -0.2783293690 -0.1669976214
-0.2226634952 -0.2226634952 -0.2226634952
-0.1669976214 -0.1669976214 -0.2783293690
-0.1113317476 -0.1113317476 -0.3339952428
-0.0556658738 -0.0556658738 -0.3896611166
-0.0000000000 -0.0000000000 -0.4453269904
0.0556658738 0.0556658738 -0.5009928642
0.1113317476 0.1113317476 -0.5566587381
0.1669976214 0.1669976214 -0.6123246119
0.2226634952 0.2226634952 -0.6679904857
0.2783293690 0.2783293690 -0.7236563595
-0.2226634952 -0.3339952428 -0.1113317476
-0.1669976214 -0.2783293690 -0.1669976214
-0.1113317476 -0.2226634952 -0.2226634952
-0.0556658738 -0.1669976214 -0.2783293690
-0.0000000000 -0.1113317476 -0.3339952428
0.0556658738 -0.0556658738 -0.3896611166
0.1113317476 -0.0000000000 -0.4453269904
0.1669976214 0.0556658738 -0.5009928642
0.2226634952 0.1113317476 -0.5566587381
0.2783293690 0.1669976214 -0.6123246119
0.3339952428 0.2226634952 -0.6679904857
-0.1669976214 -0.3896611166 -0.0556658738
-0.1113317476 -0.3339952428 -0.1113317476
-0.0556658738 -0.2783293690 -0.1669976214
-0.0000000000 -0.2226634952 -0.2226634952
0.0556658738 -0.1669976214 -0.2783293690
0.1113317476 -0.1113317476 -0.3339952428
0.1669976214 -0.0556658738 -0.3896611166
0.2226634952 -0.0000000000 -0.4453269904
0.2783293690 0.0556658738 -0.5009928642
0.3339952428 0.1113317476 -0.5566587381
0.3896611166 0.1669976214 -0.6123246119
-0.1113317476 -0.4453269904 0.0000000000
-0.0556658738 -0.3896611166 -0.0556658738
-0.0000000000 -0.3339952428 -0.1113317476
0.0556658738 -0.2783293690 -0.1669976214
0.1113317476 -0.2226634952 -0.2226634952
0.1669976214 -0.1669976214 -0.2783293690
0.2226634952 -0.1113317476 -0.3339952428
0.2783293690 -0.0556658738 -0.3896611166
0.3339952428 -0.0000000000 -0.4453269904
0.3896611166 0.0556658738 -0.5009928642
0.4453269904 0.1113317476 -0.5566587381
-0.0556658738 -0.5009928642 0.0556658738
-0.0000000000 -0.4453269904 0.0000000000
0.0556658738 -0.3896611166 -0.0556658738
0.1113317476 -0.3339952428 -0.1113317476
0.1669976214 -0.2783293690 -0.1669976214
0.2226634952 -0.2226634952 -0.2226634952
0.2783293690 -0.1669976214 -0.2783293690
0.3339952428 -0.1113317476 -0.3339952428
0.3896611166 -0.0556658738 -0.3896611166
0.4453269904 0.0000000000 -0.4453269904
0.5009928642 0.0556658738 -0.5009928642
-0.0000000000 -0.5566587381 0.1113317476
0.0556658738 -0.5009928642 0.0556658738
0.1113317476 -0.4453269904 -0.0000000000
0.1669976214 -0.3896611166 -0.0556658738
0.2226634952 -0.3339952428 -0.1113317476
0.2783293690 -0.2783293690 -0.1669976214
0.3339952428 -0.2226634952 -0.2226634952
0.3896611166 -0.1669976214 -0.2783293690
0.4453269904 -0.1113317476 -0.3339952428
0.5009928642 -0.0556658738 -0.3896611166
0.5566587381 0.0000000000 -0.4453269904
0.0556658738 -0.6123246119 0.1669976214
0.1113317476 -0.5566587381 0.1113317476
0.1669976214 -0.5009928642 0.0556658738
0.2226634952 -0.4453269904 0.0000000000
0.2783293690 -0.3896611166 -0.0556658738
0.3339952428 -0.3339952428 -0.1113317476
0.3896611166 -0.2783293690 -0.1669976214
0.4453269904 -0.2226634952 -0.2226634952
0.5009928642 -0.1669976214 -0.2783293690
0.5566587381 -0.1113317476 -0.3339952428
0.6123246119 -0.0556658738 -0.3896611166
0.1113317476 -0.6679904857 0.2226634952
0.1669976214 -0.6123246119 0.1669976214
0.2226634952 -0.5566587381 0.1113317476
0.2783293690 -0.5009928642 0.0556658738
0.3339952428 -0.4453269904 0.0000000000
0.3896611166 -0.3896611166 -0.0556658738
0.4453269904 -0.3339952428 -0.1113317476
0.5009928642 -0.2783293690 -0.1669976214
0.5566587381 -0.2226634952 -0.2226634952
0.6123246119 -0.1669976214 -0.2783293690
0.6679904857 -0.1113317476 -0.3339952428
0.1669976214 -0.7236563595 0.2783293690
0.2226634952 -0.6679904857 0.2226634952
0.2783293690 -0.6123246119 0.1669976214
0.3339952428 -0.5566587381 0.1113317476
0.3896611166 -0.5009928642 0.0556658738
0.4453269904 -0.4453269904 0.0000000000
0.5009928642 -0.3896611166 -0.0556658738
0.5566587381 -0.3339952428 -0.1113317476
0.6123246119 -0.2783293690 -0.1669976214
0.6679904857 -0.2226634952 -0.2226634952
0.7236563595 -0.1669976214 -0.2783293690
0.2226634952 -0.7793222333 0.3339952428
0.2783293690 -0.7236563595 0.2783293690
0.3339952428 -0.6679904857 0.2226634952
0.3896611166 -0.6123246119 0.1669976214
0.4453269904 -0.5566587381 0.1113317476
0.5009928642 -0.5009928642 0.0556658738
0.5566587381 -0.4453269904 -0.0000000000
0.6123246119 -0.3896611166 -0.0556658738
0.6679904857 -0.3339952428 -0.1113317476
0.7236563595 -0.2783293690 -0.1669976214
0.7793222333 -0.2226634952 -0.2226634952
-0.3896611166 -0.1669976214 -0.1669976214
-0.3339952428 -0.1113317476 -0.2226634952
-0.2783293690 -0.0556658738 -0.2783293690
-0.2226634952 -0.0000000000 -0.3339952428
-0.1669976214 0.0556658738 -0.3896611166
-0.1113317476 0.1113317476 -0.4453269904
-0.0556658738 0.1669976214 -0.5009928642
-0.0000000000 0.2226634952 -0.5566587381
0.0556658738 0.2783293690 -0.6123246119
0.1113317476 0.3339952428 -0.6679904857
0.1669976214 0.3896611166 -0.7236563595
-0.3339952428 -0.2226634952 -0.1113317476
-0.2783293690 -0.1669976214 -0.1669976214
-0.2226634952 -0.1113317476 -0.2226634952
-0.1669976214 -0.0556658738 -0.2783293690
-0.1113317476 -0.0000000000 -0.3339952428
-0.0556658738 0.0556658738 -0.3896611166
-0.0000000000 0.1113317476 -0.4453269904
0.0556658738 0.1669976214 -0.5009928642
0.1113317476 0.2226634952 -0.5566587381
0.1669976214 0.2783293690 -0.6123246119
0.2226634952 0.3339952428 -0.6679904857
-0.2783293690 -0.2783293690 -0.0556658738
-0.2226634952 -0.2226634952 -0.1113317476
-0.1669976214 -0.1669976214 -0.1669976214
-0.1113317476 -0.1113317476 -0.2226634952
-0.0556658738 -0.0556658738 -0.2783293690
-0.0000000000 -0.0000000000 -0.3339952428
0.0556658738 0.0556658738 -0.3896611166
0.1113317476 0.1113317476 -0.4453269904
0.1669976214 0.1669976214 -0.5009928642
0.2226634952 0.2226634952 -0.5566587381
0.2783293690 0.2783293690 -0.6123246119
-0.2226634952 -0.3339952428 0.0000000000
-0.1669976214 -0.2783293690 -0.0556658738
-0.1113317476 -0.2226634952 -0.1113317476
-0.0556658738 -0.1669976214 -0.1669976214
-0.0000000000 -0.1113317476 -0.2226634952
0.0556658738 -0.0556658738 -0.2783293690
0.1113317476 -0.0000000000 -0.3339952428
0.1669976214 0.0556658738 -0.3896611166
0.2226634952 0.1113317476 -0.4453269904
0.2783293690 0.1669976214 -0.5009928642
0.3339952428 0.2226634952 -0.5566587381
-0.1669976214 -0.3896611166 0.0556658738
-0.1113317476 -0.3339952428 0.0000000000
-0.0556658738 -0.2783293690 -0.0556658738
-0.0000000000 -0.2226634952 -0.1113317476
0.0556658738 -0.1669976214 -0.1669976214
0.1113317476 -0.1113317476 -0.2226634952
0.1669976214 -0.0556658738 -0.2783293690
0.2226634952 0.0000000000 -0.3339952428
0.2783293690 0.0556658738 -0.3896611166
0.3339952428 0.1113317476 -0.4453269904
0.3896611166 0.1669976214 -0.5009928642
-0.1113317476 -0.4453269904 0.1113317476
-0.0556658738 -0.3896611166 0.0556658738
-0.0000000000 -0.3339952428 0.0000000000
0.0556658738 -0.2783293690 -0.0556658738
0.1113317476 -0.2226634952 -0.1113317476
0.1669976214 -0.1669976214 -0.1669976214
0.2226634952 -0.1113317476 -0.2226634952
0.2783293690 -0.0556658738 -0.2783293690
0.3339952428 0.0000000000 -0.3339952428
0.3896611166 0.0556658738 -0.3896611166
0.4453269904 0.1113317476 -0.4453269904
-0.0556658738 -0.5009928642 0.1669976214
-0.0000000000 -0.4453269904 0.1113317476
0.0556658738 -0.3896611166 0.0556658738
0.1113317476 -0.3339952428 0.0000000000
0.1669976214 -0.2783293690 -0.0556658738
0.2226634952 -0.2226634952 -0.1113317476
0.2783293690 -0.1669976214 -0.1669976214
0.3339952428 -0.1113317476 -0.2226634952
0.3896611166 -0.0556658738 -0.2783293690
0.4453269904 0.0000000000 -0.3339952428
0.5009928642 0.0556658738 -0.3896611166
-0.0000000000 -0.5566587381 0.2226634952
0.0556658738 -0.5009928642 0.1669976214
0.1113317476 -0.4453269904 0.1113317476
0.1669976214 -0.3896611166 0.0556658738
0.2226634952 -0.3339952428 0.0000000000
0.2783293690 -0.2783293690 -0.0556658738
0.3339952428 -0.2226634952 -0.1113317476
0.3896611166 -0.1669976214 -0.1669976214
0.4453269904 -0.1113317476 -0.2226634952
0.5009928642 -0.0556658738 -0.2783293690
0.5566587381 0.0000000000 -0.3339952428
0.0556658738 -0.6123246119 0.2783293690
0.1113317476 -0.5566587381 0.2226634952
0.1669976214 -0.5009928642 0.1669976214
0.2226634952 -0.4453269904 0.1113317476
0.2783293690 -0.3896611166 0.0556658738
0.3339952428 -0.3339952428 0.0000000000
0.3896611166 -0.2783293690 -0.0556658738
0.4453269904 -0.2226634952 -0.1113317476
0.5009928642 -0.1669976214 -0.1669976214
0.5566587381 -0.1113317476 -0.2226634952
0.6123246119 -0.0556658738 -0.2783293690
0.1113317476 -0.6679904857 0.3339952428
0.1669976214 -0.6123246119 0.2783293690
0.2226634952 -0.5566587381 0.2226634952
0.2783293690 -0.5009928642 0.1669976214
0.3339952428 -0.4453269904 0.1113317476
0.3896611166 -0.3896611166 0.0556658738
0.4453269904 -0.3339952428 0.0000000000
0.5009928642 -0.2783293690 -0.0556658738
0.5566587381 -0.2226634952 -0.1113317476
0.6123246119 -0.1669976214 -0.1669976214
0.6679904857 -0.1113317476 -0.2226634952
0.1669976214 -0.7236563595 0.3896611166
0.2226634952 -0.6679904857 0.3339952428
0.2783293690 -0.6123246119 0.2783293690
0.3339952428 -0.5566587381 0.2226634952
0.3896611166 -0.5009928642 0.1669976214
0.4453269904 -0.4453269904 0.1113317476
0.5009928642 -0.3896611166 0.0556658738
0.5566587381 -0.3339952428 0.0000000000
0.6123246119 -0.2783293690 -0.0556658738
0.6679904857 -0.2226634952 -0.1113317476
0.7236563595 -0.1669976214 -0.1669976214
-0.4453269904 -0.1113317476 -0.1113317476
-0.3896611166 -0.0556658738 -0.1669976214
-0.3339952428 -0.0000000000 -0.2226634952
-0.2783293690 0.0556658738 -0.2783293690
-0.2226634952 0.1113317476 -0.3339952428
-0.1669976214 0.1669976214 -0.3896611166
-0.1113317476 0.2226634952 -0.4453269904
-0.0556658738 0.2783293690 -0.5009928642
-0.0000000000 0.3339952428 -0.5566587381
0.0556658738 0.3896611166 -0.6123246119
0.1113317476 0.4453269904 -0.6679904857
-0.3896611166 -0.1669976214 -0.0556658738
-0.3339952428 -0.1113317476 -0.1113317476
-0.2783293690 -0.0556658738 -0.1669976214
-0.2226634952 -0.0000000000 -0.2226634952
-0.1669976214 0.0556658738 -0.2783293690
-0.1113317476 0.1113317476 -0.3339952428
-0.0556658738 0.1669976214 -0.3896611166
-0.0000000000 0.2226634952 -0.4453269904
0.0556658738 0.2783293690 -0.5009928642
0.1113317476 0.3339952428 -0.5566587381
0.1669976214 0.3896611166 -0.6123246119
-0.3339952428 -0.2226634952 0.0000000000
-0.2783293690 -0.1669976214 -0.0556658738
-0.2226634952 -0.1113317476 -0.1113317476
-0.1669976214 -0.0556658738 -0.1669976214
-0.1113317476 -0.0000000000 -0.2226634952
-0.0556658738 0.0556658738 -0.2783293690
-0.0000000000 0.1113317476 -0.3339952428
0.0556658738 0.1669976214 -0.3896611166
0.1113317476 0.2226634952 -0.4453269904
0.1669976214 0.2783293690 -0.5009928642
0.2226634952 0.3339952428 -0.5566587381
-0.2783293690 -0.2783293690 0.0556658738
-0.2226634952 -0.2226634952 -0.0000000000
-0.1669976214 -0.1669976214 -0.0556658738
-0.1113317476 -0.1113317476 -0.1113317476
-0.0556658738 -0.0556658738 -0.1669976214
-0.0000000000 -0.0000000000 -0.2226634952
0.0556658738 0.0556658738 -0.2783293690
0.1113317476 0.1113317476 -0.3339952428
0.1669976214 0.1669976214 -0.3896611166
0.2226634952 0.2226634952 -0.4453269904
0.2783293690 0.2783293690 -0.5009928642
-0.2226634952 -0.3339952428 0.1113317476
-0.1669976214 -0.2783293690 0.0556658738
-0.1113317476 -0.2226634952 -0.0000000000
-0.0556658738 -0.1669976214 -0.0556658738
-0.0000000000 -0.1113317476 -0.1113317476
0.0556658738 -0.0556658738 -0.1669976214
0.1113317476 -0.0000000000 -0.2226634952
0.1669976214 0.0556658738 -0.2783293690
0.2226634952 0.1113317476 -0.3339952428
0.2783293690 0.1669976214 -0.3896611166
0.3339952428 0.2226634952 -0.4453269904
-0.1669976214 -0.3896611166 0.1669976214
-0.1113317476 -0.3339952428 0.1113317476
-0.0556658738 -0.2783293690 0.0556658738
-0.0000000000 -0.2226634952 0.0000000000
0.0556658738 -0.1669976214 -0.0556658738
0.1113317476 -0.1113317476 -0.1113317476
0.1669976214 -0.0556658738 -0.1669976214
0.2226634952 0.0000000000 -0.2226634952
0.2783293690 0.0556658738 -0.2783293690
0.3339952428 0.1113317476 -0.3339952428
0.3896611166 0.1669976214 -0.3896611166
-0.1113317476 -0.4453269904 0.2226634952
-0.0556658738 -0.3896611166 0.1669976214
-0.0000000000 -0.3339952428 0.1113317476
0.0556658738 -0.2783293690 0.0556658738
0.1113317476 -0.2226634952 0.0000000000
0.1669976214 -0.1669976214 -0.0556658738
0.2226634952 -0.1113317476 -0.1113317476
0.2783293690 -0.0556658738 -0.1669976214
0.3339952428 0.0000000000 -0.2226634952
0.3896611166 0.0556658738 -0.2783293690
0.4453269904 0.1113317476 -0.3339952428
-0.0556658738 -0.5009928642 0.2783293690
-0.0000000000 -0.4453269904 0.2226634952
0.0556658738 -0.3896611166 0.1669976214
0.1113317476 -0.3339952428 0.1113317476
0.1669976214 -0.2783293690 0.0556658738
0.2226634952 -0.2226634952 0.0000000000
0.2783293690 -0.1669976214 -0.0556658738
0.3339952428 -0.1113317476 -0.1113317476
0.3896611166 -0.0556658738 -0.1669976214
0.4453269904 0.0000000000 -0.2226634952
0.5009928642 0.0556658738 -0.2783293690
-0.0000000000 -0.5566587381 0.3339952428
0.0556658738 -0.5009928642 0.2783293690
0.1113317476 -0.4453269904 0.2226634952
0.1669976214 -0.3896611166 0.1669976214
0.2226634952 -0.3339952428 0.1113317476
0.2783293690 -0.2783293690 0.0556658738
0.3339952428 -0.2226634952 0.0000000000
0.3896611166 -0.1669976214 -0.0556658738
0.4453269904 -0.1113317476 -0.1113317476
0.5009928642 -0.0556658738 -0.1669976214
0.5566587381 0.0000000000 -0.2226634952
0.0556658738 -0.6123246119 0.3896611166
0.1113317476 -0.5566587381 0.3339952428
0.1669976214 -0.5009928642 0.2783293690
0.2226634952 -0.4453269904 0.2226634952
0.2783293690 -0.3896611166 0.1669976214
0.3339952428 -0.3339952428 0.1113317476
0.3896611166 -0.2783293690 0.0556658738
0.4453269904 -0.2226634952 0.0000000000
0.5009928642 -0.1669976214 -0.0556658738
0.5566587381 -0.1113317476 -0.1113317476
0.6123246119 -0.0556658738 -0.1669976214
0.1113317476 -0.6679904857 0.4453269904
0.1669976214 -0.6123246119 0.3896611166
0.2226634952 -0.5566587381 0.3339952428
0.2783293690 -0.5009928642 0.2783293690
0.3339952428 -0.4453269904 0.2226634952
0.3896611166 -0.3896611166 0.1669976214
0.4453269904 -0.3339952428 0.1113317476
0.5009928642 -0.2783293690 0.0556658738
0.5566587381 -0.2226634952 0.0000000000
0.6123246119 -0.1669976214 -0.0556658738
0.6679904857 -0.1113317476 -0.1113317476
-0.5009928642 -0.0556658738 -0.0556658738
-0.4453269904 -0.0000000000 -0.1113317476
-0.3896611166 0.0556658738 -0.1669976214
-0.3339952428 0.1113317476 -0.2226634952
-0.2783293690 0.1669976214 -0.2783293690
-0.2226634952 0.2226634952 -0.3339952428
-0.1669976214 0.2783293690 -0.3896611166
-0.1113317476 0.3339952428 -0.4453269904
-0.0556658738 0.3896611166 -0.5009928642
0.0000000000 0.4453269904 -0.5566587381
0.0556658738 0.5009928642 -0.6123246119
-0.4453269904 -0.1113317476 -0.0000000000
-0.3896611166 -0.0556658738 -0.0556658738
-0.3339952428 -0.0000000000 -0.1113317476
-0.2783293690 0.0556658738 -0.1669976214
-0.2226634952 0.1113317476 -0.2226634952
-0.1669976214 0.1669976214 -0.2783293690
-0.1113317476 0.2226634952 -0.3339952428
-0.0556658738 0.2783293690 -0.3896611166
0.0000000000 0.3339952428 -0.4453269904
0.0556658738 0.3896611166 -0.5009928642
0.1113317476 0.4453269904 -0.5566587381
-0.3896611166 -0.1669976214 0.0556658738
-0.3339952428 -0.1113317476 0.0000000000
-0.2783293690 -0.0556658738 -0.0556658738
-0.2226634952 -0.0000000000 -0.1113317476
-0.1669976214 0.0556658738 -0.1669976214
-0.1113317476 0.1113317476 -0.2226634952
-0.0556658738 0.1669976214 -0.2783293690
0.0000000000 0.2226634952 -0.3339952428
0.0556658738 0.2783293690 -0.3896611166
0.1113317476 0.3339952428 -0.4453269904
0.1669976214 0.3896611166 -0.5009928642
-0.3339952428 -0.2226634952 0.1113317476
-0.2783293690 -0.1669976214 0.0556658738
-0.2226634952 -0.1113317476 -0.0000000000
-0.1669976214 -0.0556658738 -0.0556658738
-0.1113317476 -0.0000000000 -0.1113317476
-0.0556658738 0.0556658738 -0.1669976214
-0.0000000000 0.1113317476 -0.2226634952
0.0556658738 0.1669976214 -0.2783293690
0.1113317476 0.2226634952 -0.3339952428
0.1669976214 0.2783293690 -0.3896611166
0.2226634952 0.3339952428 -0.4453269904
-0.2783293690 -0.2783293690 0.1669976214
-0.2226634952 -0.2226634952 0.1113317476
-0.1669976214 -0.1669976214 0.0556658738
-0.1113317476 -0.1113317476 -0.0000000000
-0.0556658738 -0.0556658738 -0.0556658738
-0.0000000000 -0.0000000000 -0.1113317476
0.0556658738 0.0556658738 -0.1669976214
0.1113317476 0.1113317476 -0.2226634952
0.1669976214 0.1669976214 -0.2783293690
0.2226634952 0.2226634952 -0.3339952428
0.2783293690 0.2783293690 -0.3896611166
-0.2226634952 -0.3339952428 0.2226634952
-0.1669976214 -0.2783293690 0.1669976214
-0.1113317476 -0.2226634952 0.1113317476
-0.0556658738 -0.1669976214 0.0556658738
-0.0000000000 -0.1113317476 0.0000000000
0.0556658738 -0.0556658738 -0.0556658738
0.1113317476 0.0000000000 -0.1113317476
0.1669976214 0.0556658738 -0.1669976214
0.2226634952 0.1113317476 -0.2226634952
0.2783293690 0.1669976214 -0.2783293690
0.3339952428 0.2226634952 -0.3339952428
-0.1669976214 -0.3896611166 0.2783293690
-0.1113317476 -0.3339952428 0.2226634952
-0.0556658738 -0.2783293690 0.1669976214
-0.0000000000 -0.2226634952 0.1113317476
0.0556658738 -0.1669976214 0.0556658738
0.1113317476 -0.1113317476 0.0000000000
0.1669976214 -0.0556658738 -0.0556658738
0.2226634952 0.0000000000 -0.1113317476
0.2783293690 0.0556658738 -0.1669976214
0.3339952428 0.1113317476 -0.2226634952
0.3896611166 0.1669976214 -0.2783293690
-0.1113317476 -0.4453269904 0.3339952428
-0.0556658738 -0.3896611166 0.2783293690
-0.0000000000 -0.3339952428 0.2226634952
0.0556658738 -0.2783293690 0.1669976214
0.1113317476 -0.2226634952 0.1113317476
0.1669976214 -0.1669976214 0.0556658738
0.2226634952 -0.1113317476 0.0000000000
0.2783293690 -0.0556658738 -0.0556658738
0.3339952428 0.0000000000 -0.1113317476
0.3896611166 0.0556658738 -0.1669976214
0.4453269904 0.1113317476 -0.2226634952
-0.0556658738 -0.5009928642 0.3896611166
-0.0000000000 -0.4453269904 0.3339952428
0.0556658738 -0.3896611166 0.2783293690
0.1113317476 -0.3339952428 0.2226634952
0.1669976214 -0.2783293690 0.1669976214
0.2226634952 -0.2226634952 0.1113317476
0.2783293690 -0.1669976214 0.0556658738
0.3339952428 -0.1113317476 0.0000000000
0.3896611166 -0.0556658738 -0.0556658738
0.4453269904 0.0000000000 -0.1113317476
0.5009928642 0.0556658738 -0.1669976214
0.0000000000 -0.5566587381 0.4453269904
0.0556658738 -0.5009928642 0.3896611166
0.1113317476 -0.4453269904 0.3339952428
0.1669976214 -0.3896611166 0.2783293690
0.2226634952 -0.3339952428 0.2226634952
0.2783293690 -0.2783293690 0.1669976214
0.3339952428 -0.2226634952 0.1113317476
0.3896611166 -0.1669976214 0.0556658738
0.4453269904 -0.1113317476 0.0000000000
0.5009928642 -0.0556658738 -0.0556658738
0.5566587381 0.0000000000 -0.1113317476
0.0556658738 -0.6123246119 0.5009928642
0.1113317476 -0.5566587381 0.4453269904
0.1669976214 -0.5009928642 0.3896611166
0.2226634952 -0.4453269904 0.3339952428
0.2783293690 -0.3896611166 0.2783293690
0.3339952428 -0.3339952428 0.2226634952
0.3896611166 -0.2783293690 0.1669976214
0.4453269904 -0.2226634952 0.1113317476
0.5009928642 -0.1669976214 0.0556658738
0.5566587381 -0.1113317476 0.0000000000
0.6123246119 -0.0556658738 -0.0556658738
-0.5566587381 -0.0000000000 0.0000000000
-0.5009928642 0.0556658738 -0.0556658738
-0.4453269904 0.1113317476 -0.1113317476
-0.3896611166 0.1669976214 -0.1669976214
-0.3339952428 0.2226634952 -0.2226634952
-0.2783293690 0.2783293690 -0.2783293690
-0.2226634952 0.3339952428 -0.3339952428
-0.1669976214 0.3896611166 -0.3896611166
-0.1113317476 0.4453269904 -0.4453269904
-0.0556658738 0.5009928642 -0.5009928642
0.0000000000 0.5566587381 -0.5566587381
-0.5009928642 -0.0556658738 0.0556658738
-0.4453269904 -0.0000000000 -0.0000000000
-0.3896611166 0.0556658738 -0.0556658738
-0.3339952428 0.1113317476 -0.1113317476
-0.2783293690 0.1669976214 -0.1669976214
-0.2226634952 0.2226634952 -0.2226634952
-0.1669976214 0.2783293690 -0.2783293690
-0.1113317476 0.3339952428 -0.3339952428
-0.0556658738 0.3896611166 -0.3896611166
0.0000000000 0.4453269904 -0.4453269904
0.0556658738 0.5009928642 -0.5009928642
-0.4453269904 -0.1113317476 0.1113317476
-0.3896611166 -0.0556658738 0.0556658738
-0.3339952428 -0.0000000000 -0.0000000000
-0.2783293690 0.0556658738 -0.0556658738
-0.2226634952 0.1113317476 -0.1113317476
-0.1669976214 0.1669976214 -0.1669976214
-0.1113317476 0.2226634952 -0.2226634952
-0.0556658738 0.2783293690 -0.2783293690
0.0000000000 0.3339952428 -0.3339952428
0.0556658738 0.3896611166 -0.3896611166
0.1113317476 0.4453269904 -0.4453269904
-0.3896611166 -0.1669976214 0.1669976214
-0.3339952428 -0.1113317476 0.1113317476
-0.2783293690 -0.0556658738 0.0556658738
-0.2226634952 -0.0000000000 -0.0000000000
-0.1669976214 0.0556658738 -0.0556658738
-0.1113317476 0.1113317476 -0.1113317476
-0.0556658738 0.1669976214 -0.1669976214
0.0000000000 0.2226634952 -0.2226634952
0.0556658738 0.2783293690 -0.2783293690
0.1113317476 0.3339952428 -0.3339952428
0.1669976214 0.3896611166 -0.3896611166
-0.3339952428 -0.2226634952 0.2226634952
-0.2783293690 -0.1669976214 0.1669976214
-0.2226634952 -0.1113317476 0.1113317476
-0.1669976214 -0.0556658738 0.0556658738
-0.1113317476 -0.0000000000 -0.0000000000
-0.0556658738 0.0556658738 -0.0556658738
0.0000000000 0.1113317476 -0.1113317476
0.0556658738 0.1669976214 -0.1669976214
0.1113317476 0.2226634952 -0.2226634952
0.1669976214 0.2783293690 -0.2783293690
0.2226634952 0.3339952428 -0.3339952428
-0.2783293690 -0.2783293690 0.2783293690
-0.2226634952 -0.2226634952 0.2226634952
-0.1669976214 -0.1669976214 0.1669976214
-0.1113317476 -0.1113317476 0.1113317476
-0.0556658738 -0.0556658738 0.0556658738
0.0000000000 0.0000000000 0.0000000000
0.0556658738 0.0556658738 -0.0556658738
0.1113317476 0.1113317476 -0.1113317476
0.1669976214 0.1669976214 -0.1669976214
0.2226634952 0.2226634952 -0.2226634952
0.2783293690 0.2783293690 -0.2783293690
-0.2226634952 -0.3339952428 0.3339952428
-0.1669976214 -0.2783293690 0.2783293690
-0.1113317476 -0.2226634952 0.2226634952
-0.0556658738 -0.1669976214 0.1669976214
-0.0000000000 -0.1113317476 0.1113317476
0.0556658738 -0.0556658738 0.0556658738
0.1113317476 0.0000000000 0.0000000000
0.1669976214 0.0556658738 -0.0556658738
0.2226634952 0.1113317476 -0.1113317476
0.2783293690 0.1669976214 -0.1669976214
0.3339952428 0.2226634952 -0.2226634952
-0.1669976214 -0.3896611166 0.3896611166
-0.1113317476 -0.3339952428 0.3339952428
-0.0556658738 -0.2783293690 0.2783293690
-0.0000000000 -0.2226634952 0.2226634952
0.0556658738 -0.1669976214 0.1669976214
0.1113317476 -0.1113317476 0.1113317476
0.1669976214 -0.0556658738 0.0556658738
0.2226634952 0.0000000000 0.0000000000
0.2783293690 0.0556658738 -0.0556658738
0.3339952428 0.1113317476 -0.1113317476
0.3896611166 0.1669976214 -0.1669976214
-0.1113317476 -0.4453269904 0.4453269904
-0.0556658738 -0.3896611166 0.3896611166
-0.0000000000 -0.3339952428 0.3339952428
0.0556658738 -0.2783293690 0.2783293690
0.1113317476 -0.2226634952 0.2226634952
0.1669976214 -0.1669976214 0.1669976214
0.2226634952 -0.1113317476 0.1113317476
0.2783293690 -0.0556658738 0.0556658738
0.3339952428 0.0000000000 0.0000000000
0.3896611166 0.0556658738 -0.0556658738
0.4453269904 0.1113317476 -0.1113317476
-0.0556658738 -0.5009928642 0.5009928642
-0.0000000000 -0.4453269904 0.4453269904
0.0556658738 -0.3896611166 0.3896611166
0.1113317476 -0.3339952428 0.3339952428
0.1669976214 -0.2783293690 0.2783293690
0.2226634952 -0.2226634952 0.2226634952
0.2783293690 -0.1669976214 0.1669976214
0.3339952428 -0.1113317476 0.1113317476
0.3896611166 -0.0556658738 0.0556658738
0.4453269904 0.0000000000 0.0000000000
0.5009928642 0.0556658738 -0.0556658738
0.0000000000 -0.5566587381 0.5566587381
0.0556658738 -0.5009928642 0.5009928642
0.1113317476 -0.4453269904 0.4453269904
0.1669976214 -0.3896611166 0.3896611166
0.2226634952 -0.3339952428 0.3339952428
0.2783293690 -0.2783293690 0.2783293690
0.3339952428 -0.2226634952 0.2226634952
0.3896611166 -0.1669976214 0.1669976214
0.4453269904 -0.1113317476 0.1113317476
0.5009928642 -0.0556658738 0.0556658738
0.5566587381 0.0000000000 0.0000000000
-0.6123246119 0.0556658738 0.0556658738
-0.5566587381 0.1113317476 0.0000000000
-0.5009928642 0.1669976214 -0.0556658738
-0.4453269904 0.2226634952 -0.1113317476
-0.3896611166 0.2783293690 -0.1669976214
-0.3339952428 0.3339952428 -0.2226634952
-0.2783293690 0.3896611166 -0.2783293690
-0.2226634952 0.4453269904 -0.3339952428
-0.1669976214 0.5009928642 -0.3896611166
-0.1113317476 0.5566587381 -0.4453269904
-0.0556658738 0.6123246119 -0.5009928642
-0.5566587381 -0.0000000000 0.1113317476
-0.5009928642 0.0556658738 0.0556658738
-0.4453269904 0.1113317476 -0.0000000000
-0.3896611166 0.1669976214 -0.0556658738
-0.3339952428 0.2226634952 -0.1113317476
-0.2783293690 0.2783293690 -0.1669976214
-0.2226634952 0.3339952428 -0.2226634952
-0.1669976214 0.3896611166 -0.2783293690
-0.1113317476 0.4453269904 -0.3339952428
-0.0556658738 0.5009928642 -0.3896611166
0.0000000000 0.5566587381 -0.4453269904
-0.5009928642 -0.0556658738 0.1669976214
-0.4453269904 -0.0000000000 0.1113317476
-0.3896611166 0.0556658738 0.0556658738
-0.3339952428 0.1113317476 -0.0000000000
-0.2783293690 0.1669976214 -0.0556658738
-0.2226634952 0.2226634952 -0.1113317476
-0.1669976214 0.2783293690 -0.1669976214
-0.1113317476 0.3339952428 -0.2226634952
-0.0556658738 0.3896611166 -0.2783293690
0.0000000000 0.4453269904 -0.3339952428
0.0556658738 0.5009928642 -0.3896611166
-0.4453269904 -0.1113317476 0.2226634952
-0.3896611166 -0.0556658738 0.1669976214
-0.3339952428 -0.0000000000 0.1113317476
-0.2783293690 0.0556658738 0.0556658738
-0.2226634952 0.1113317476 -0.0000000000
-0.1669976214 0.1669976214 -0.0556658738
-0.1113317476 0.2226634952 -0.1113317476
-0.0556658738 0.2783293690 -0.1669976214
0.0000000000 0.3339952428 -0.2226634952
0.0556658738 0.3896611166 -0.2783293690
0.1113317476 0.4453269904 -0.3339952428
-0.3896611166 -0.1669976214 0.2783293690
-0.3339952428 -0.1113317476 0.2226634952
-0.2783293690 -0.0556658738 0.1669976214
-0.2226634952 -0.0000000000 0.1113317476
-0.1669976214 0.0556658738 0.0556658738
-0.1113317476 0.1113317476 -0.0000000000
-0.0556658738 0.1669976214 -0.0556658738
0.0000000000 0.2226634952 -0.1113317476
0.0556658738 0.2783293690 -0.1669976214
0.1113317476 0.3339952428 -0.2226634952
0.1669976214 0.3896611166 -0.2783293690
-0.3339952428 -0.2226634952 0.3339952428
-0.2783293690 -0.1669976214 0.2783293690
-0.2226634952 -0.1113317476 0.2226634952
-0.1669976214 -0.0556658738 0.1669976214
-0.1113317476 0.0000000000 0.1113317476
-0.0556658738 0.0556658738 0.0556658738
0.0000000000 0.1113317476 0.0000000000
0.0556658738 0.1669976214 -0.0556658738
0.1113317476 0.2226634952 -0.1113317476
0.1669976214 0.2783293690 -0.1669976214
0.2226634952 0.3339952428 -0.2226634952
-0.2783293690 -0.2783293690 0.3896611166
-0.2226634952 -0.2226634952 0.3339952428
-0.1669976214 -0.1669976214 0.2783293690
-0.1113317476 -0.1113317476 0.2226634952
-0.0556658738 -0.0556658738 0.1669976214
0.0000000000 0.0000000000 0.1113317476
0.0556658738 0.0556658738 0.0556658738
0.1113317476 0.1113317476 0.0000000000
0.1669976214 0.1669976214 -0.0556658738
0.2226634952 0.2226634952 -0.1113317476
0.2783293690 0.2783293690 -0.1669976214
-0.2226634952 -0.3339952428 0.4453269904
-0.1669976214 -0.2783293690 0.3896611166
-0.1113317476 -0.2226634952 0.3339952428
-0.0556658738 -0.1669976214 0.2783293690
0.0000000000 -0.1113317476 0.2226634952
0.0556658738 -0.0556658738 0.1669976214
0.1113317476 0.0000000000 0.1113317476
0.1669976214 0.0556658738 0.0556658738
0.2226634952 0.1113317476 0.0000000000
0.2783293690 0.1669976214 -0.0556658738
0.3339952428 0.2226634952 -0.1113317476
-0.1669976214 -0.3896611166 0.5009928642
-0.1113317476 -0.3339952428 0.4453269904
-0.0556658738 -0.2783293690 0.3896611166
-0.0000000000 -0.2226634952 0.3339952428
0.0556658738 -0.1669976214 0.2783293690
0.1113317476 -0.1113317476 0.2226634952
0.1669976214 -0.0556658738 0.1669976214
0.2226634952 0.0000000000 0.1113317476
0.2783293690 0.0556658738 0.0556658738
0.3339952428 0.1113317476 0.0000000000
0.3896611166 0.1669976214 -0.0556658738
-0.1113317476 -0.4453269904 0.5566587381
-0.0556658738 -0.3896611166 0.5009928642
0.0000000000 -0.3339952428 0.4453269904
0.0556658738 -0.2783293690 0.3896611166
0.1113317476 -0.2226634952 0.3339952428
0.1669976214 -0.1669976214 0.2783293690
0.2226634952 -0.1113317476 0.2226634952
0.2783293690 -0.0556658738 0.1669976214
0.3339952428 0.0000000000 0.1113317476
0.3896611166 0.0556658738 0.0556658738
0.4453269904 0.1113317476 0.0000000000
-0.0556658738 -0.5009928642 0.6123246119
0.0000000000 -0.4453269904 0.5566587381
0.0556658738 -0.3896611166 0.5009928642
0.1113317476 -0.3339952428 0.4453269904
0.1669976214 -0.2783293690 0.3896611166
0.2226634952 -0.2226634952 0.3339952428
0.2783293690 -0.1669976214 0.2783293690
0.3339952428 -0.1113317476 0.2226634952
0.3896611166 -0.0556658738 0.1669976214
0.4453269904 0.0000000000 0.1113317476
0.5009928642 0.0556658738 0.0556658738
-0.6679904857 0.1113317476 0.1113317476
-0.6123246119 0.1669976214 0.0556658738
-0.5566587381 0.2226634952 -0.0000000000
-0.5009928642 0.2783293690 -0.0556658738
-0.4453269904 0.3339952428 -0.1113317476
-0.3896611166 0.3896611166 -0.1669976214
-0.3339952428 0.4453269904 -0.2226634952
-0.2783293690 0.5009928642 -0.2783293690
-0.2226634952 0.5566587381 -0.3339952428
-0.1669976214 0.6123246119 -0.3896611166
-0.1113317476 0.6679904857 -0.4453269904
-0.6123246119 0.0556658738 0.1669976214
-0.5566587381 0.1113317476 0.1113317476
-0.5009928642 0.1669976214 0.0556658738
-0.4453269904 0.2226634952 -0.0000000000
-0.3896611166 0.2783293690 -0.0556658738
-0.3339952428 0.3339952428 -0.1113317476
-0.2783293690 0.3896611166 -0.1669976214
-0.2226634952 0.4453269904 -0.2226634952
-0.1669976214 0.5009928642 -0.2783293690
-0.1113317476 0.5566587381 -0.3339952428
-0.0556658738 0.6123246119 -0.3896611166
-0.5566587381 -0.0000000000 0.2226634952
-0.5009928642 0.0556658738 0.1669976214
-0.4453269904 0.1113317476 0.1113317476
-0.3896611166 0.1669976214 0.0556658738
-0.3339952428 0.2226634952 -0.0000000000
-0.2783293690 0.2783293690 -0.0556658738
-0.2226634952 0.3339952428 -0.1113317476
-0.1669976214 0.3896611166 -0.1669976214
-0.1113317476 0.4453269904 -0.2226634952
-0.0556658738 0.5009928642 -0.2783293690
0.0000000000 0.5566587381 -0.3339952428
-0.5009928642 -0.0556658738 0.2783293690
-0.4453269904 -0.0000000000 0.2226634952
-0.3896611166 0.0556658738 0.1669976214
-0.3339952428 0.1113317476 0.1113317476
-0.2783293690 0.1669976214 0.0556658738
-0.2226634952 0.2226634952 -0.0000000000
-0.1669976214 0.2783293690 -0.0556658738
-0.1113317476 0.3339952428 -0.1113317476
-0.0556658738 0.3896611166 -0.1669976214
0.0000000000 0.4453269904 -0.2226634952
0.0556658738 0.5009928642 -0.2783293690
-0.4453269904 -0.1113317476 0.3339952428
-0.3896611166 -0.0556658738 0.2783293690
-0.3339952428 0.0000000000 0.2226634952
-0.2783293690 0.0556658738 0.1669976214
-0.2226634952 0.1113317476 0.1113317476
-0.1669976214 0.1669976214 0.0556658738
-0.1113317476 0.2226634952 -0.0000000000
-0.0556658738 0.2783293690 -0.0556658738
0.0000000000 0.3339952428 -0.1113317476
0.0556658738 0.3896611166 -0.1669976214
0.1113317476 0.4453269904 -0.2226634952
-0.3896611166 -0.1669976214 0.3896611166
-0.3339952428 -0.1113317476 0.3339952428
-0.2783293690 -0.0556658738 0.2783293690
-0.2226634952 0.0000000000 0.2226634952
-0.1669976214 0.0556658738 0.1669976214
-0.1113317476 0.1113317476 0.1113317476
-0.0556658738 0.1669976214 0.0556658738
0.0000000000 0.2226634952 0.0000000000
0.0556658738 0.2783293690 -0.0556658738
0.1113317476 0.3339952428 -0.1113317476
0.1669976214 0.3896611166 -0.1669976214
-0.3339952428 -0.2226634952 0.4453269904
-0.2783293690 -0.1669976214 0.3896611166
-0.2226634952 -0.1113317476 0.3339952428
-0.1669976214 -0.0556658738 0.2783293690
-0.1113317476 0.0000000000 0.2226634952
-0.0556658738 0.0556658738 0.1669976214
0.0000000000 0.1113317476 0.1113317476
0.0556658738 0.1669976214 0.0556658738
0.1113317476 0.2226634952 0.0000000000
0.1669976214 0.2783293690 -0.0556658738
0.2226634952 0.3339952428 -0.1113317476
-0.2783293690 -0.2783293690 0.5009928642
-0.2226634952 -0.2226634952 0.4453269904
-0.1669976214 -0.1669976214 0.3896611166
-0.1113317476 -0.1113317476 0.3339952428
-0.0556658738 -0.0556658738 0.2783293690
0.0000000000 0.0000000000 0.2226634952
0.0556658738 0.0556658738 0.1669976214
0.1113317476 0.1113317476 0.1113317476
0.1669976214 0.1669976214 0.0556658738
0.2226634952 0.2226634952 0.0000000000
0.2783293690 0.2783293690 -0.0556658738
-0.2226634952 -0.3339952428 0.5566587381
-0.1669976214 -0.2783293690 0.5009928642
-0.1113317476 -0.2226634952 0.4453269904
-0.0556658738 -0.1669976214 0.3896611166
0.0000000000 -0.1113317476 0.3339952428
0.0556658738 -0.0556658738 0.2783293690
0.1113317476 0.0000000000 0.2226634952
0.1669976214 0.0556658738 0.1669976214
0.2226634952 0.1113317476 0.1113317476
0.2783293690 0.1669976214 0.0556658738
0.3339952428 0.2226634952 0.0000000000
-0.1669976214 -0.3896611166 0.6123246119
-0.1113317476 -0.3339952428 0.5566587381
-0.0556658738 -0.2783293690 0.5009928642
0.0000000000 -0.2226634952 0.4453269904
0.0556658738 -0.1669976214 0.3896611166
0.1113317476 -0.1113317476 0.3339952428
0.1669976214 -0.0556658738 0.2783293690
0.2226634952 0.0000000000 0.2226634952
0.2783293690 0.0556658738 0.1669976214
0.3339952428 0.1113317476 0.1113317476
0.3896611166 0.1669976214 0.0556658738
-0.1113317476 -0.4453269904 0.6679904857
-0.0556658738 -0.3896611166 0.6123246119
0.0000000000 -0.3339952428 0.5566587381
0.0556658738 -0.2783293690 0.5009928642
0.1113317476 -0.2226634952 0.4453269904
0.1669976214 -0.1669976214 0.3896611166
0.2226634952 -0.1113317476 0.3339952428
0.2783293690 -0.0556658738 0.2783293690
0.3339952428 0.0000000000 0.2226634952
0.3896611166 0.0556658738 0.1669976214
0.4453269904 0.1113317476 0.1113317476
-0.7236563595 0.1669976214 0.1669976214
-0.6679904857 0.2226634952 0.1113317476
-0.6123246119 0.2783293690 0.0556658738
-0.5566587381 0.3339952428 -0.0000000000
-0.5009928642 0.3896611166 -0.0556658738
-0.4453269904 0.4453269904 -0.1113317476
-0.3896611166 0.5009928642 -0.1669976214
-0.3339952428 0.5566587381 -0.2226634952
-0.2783293690 0.6123246119 -0.2783293690
-0.2226634952 0.6679904857 -0.3339952428
-0.1669976214 0.7236563595 -0.3896611166
-0.6679904857 0.1113317476 0.2226634952
-0.6123246119 0.1669976214 0.1669976214
-0.5566587381 0.2226634952 0.1113317476
-0.5009928642 0.2783293690 0.0556658738
-0.4453269904 0.3339952428 -0.0000000000
-0.3896611166 0.3896611166 -0.0556658738
-0.3339952428 0.4453269904 -0.1113317476
-0.2783293690 0.5009928642 -0.1669976214
-0.2226634952 0.5566587381 -0.2226634952
-0.1669976214 0.6123246119 -0.2783293690
-0.1113317476 0.6679904857 -0.3339952428
-0.6123246119 0.0556658738 0.2783293690
-0.5566587381 0.1113317476 0.2226634952
-0.5009928642 0.1669976214 0.1669976214
-0.4453269904 0.2226634952 0.1113317476
-0.3896611166 0.2783293690 0.0556658738
-0.3339952428 0.3339952428 -0.0000000000
-0.2783293690 0.3896611166 -0.0556658738
-0.2226634952 0.4453269904 -0.1113317476
-0.1669976214 0.5009928642 -0.1669976214
-0.1113317476 0.5566587381 -0.2226634952
-0.0556658738 0.6123246119 -0.2783293690
-0.5566587381 0.0000000000 0.3339952428
-0.5009928642 0.0556658738 0.2783293690
-0.4453269904 0.1113317476 0.2226634952
-0.3896611166 0.1669976214 0.1669976214
-0.3339952428 0.2226634952 0.1113317476
-0.2783293690 0.2783293690 0.0556658738
-0.2226634952 0.3339952428 -0.0000000000
-0.1669976214 0.3896611166 -0.0556658738
-0.1113317476 0.4453269904 -0.1113317476
-0.0556658738 0.5009928642 -0.1669976214
0.0000000000 0.5566587381 -0.2226634952
-0.5009928642 -0.0556658738 0.3896611166
-0.4453269904 -0.0000000000 0.3339952428
-0.3896611166 0.0556658738 0.2783293690
-0.3339952428 0.1113317476 0.2226634952
-0.2783293690 0.1669976214 0.1669976214
-0.2226634952 0.2226634952 0.1113317476
-0.1669976214 0.2783293690 0.0556658738
-0.1113317476 0.3339952428 -0.0000000000
-0.0556658738 0.3896611166 -0.0556658738
0.0000000000 0.4453269904 -0.1113317476
0.0556658738 0.5009928642 -0.1669976214
-0.4453269904 -0.1113317476 0.4453269904
-0.3896611166 -0.0556658738 0.3896611166
-0.3339952428 0.0000000000 0.3339952428
-0.2783293690 0.0556658738 0.2783293690
-0.2226634952 0.1113317476 0.2226634952
-0.1669976214 0.1669976214 0.1669976214
-0.1113317476 0.2226634952 0.1113317476
-0.0556658738 0.2783293690 0.0556658738
0.0000000000 0.3339952428 0.0000000000
0.0556658738 0.3896611166 -0.0556658738
0.1113317476 0.4453269904 -0.1113317476
-0.3896611166 -0.1669976214 0.5009928642
-0.3339952428 -0.1113317476 0.4453269904
-0.2783293690 -0.0556658738 0.3896611166
-0.2226634952 0.0000000000 0.3339952428
-0.1669976214 0.0556658738 0.2783293690
-0.1113317476 0.1113317476 0.2226634952
-0.0556658738 0.1669976214 0.1669976214
0.0000000000 0.2226634952 0.1113317476
0.0556658738 0.2783293690 0.0556658738
0.1113317476 0.3339952428 -0.0000000000
0.1669976214 0.3896611166 -0.0556658738
-0.3339952428 -0.2226634952 0.5566587381
-0.2783293690 -0.1669976214 0.5009928642
-0.2226634952 -0.1113317476 0.4453269904
-0.1669976214 -0.0556658738 0.3896611166
-0.1113317476 0.0000000000 0.3339952428
-0.0556658738 0.0556658738 0.2783293690
0.0000000000 0.1113317476 0.2226634952
0.0556658738 0.1669976214 0.1669976214
0.1113317476 0.2226634952 0.1113317476
0.1669976214 0.2783293690 0.0556658738
0.2226634952 0.3339952428 0.0000000000
-0.2783293690 -0.2783293690 0.6123246119
-0.2226634952 -0.2226634952 0.5566587381
-0.1669976214 -0.1669976214 0.5009928642
-0.1113317476 -0.1113317476 0.4453269904
-0.0556658738 -0.0556658738 0.3896611166
0.0000000000 0.0000000000 0.3339952428
0.0556658738 0.0556658738 0.2783293690
0.1113317476 0.1113317476 0.2226634952
0.1669976214 0.1669976214 0.1669976214
0.2226634952 0.2226634952 0.1113317476
0.2783293690 0.2783293690 0.0556658738
-0.2226634952 -0.3339952428 0.6679904857
-0.1669976214 -0.2783293690 0.6123246119
-0.1113317476 -0.2226634952 0.5566587381
-0.0556658738 -0.1669976214 0.5009928642
0.0000000000 -0.1113317476 0.4453269904
0.0556658738 -0.0556658738 0.3896611166
0.1113317476 0.0000000000 0.3339952428
0.1669976214 0.0556658738 0.2783293690
0.2226634952 0.1113317476 0.2226634952
0.2783293690 0.1669976214 0.1669976214
0.3339952428 0.2226634952 0.1113317476
-0.1669976214 -0.3896611166 0.7236563595
-0.1113317476 -0.3339952428 0.6679904857
-0.0556658738 -0.2783293690 0.6123246119
0.0000000000 -0.2226634952 0.5566587381
0.0556658738 -0.1669976214 0.5009928642
0.1113317476 -0.1113317476 0.4453269904
0.1669976214 -0.0556658738 0.3896611166
0.2226634952 0.0000000000 0.3339952428
0.2783293690 0.0556658738 0.2783293690
0.3339952428 0.1113317476 0.2226634952
0.3896611166 0.1669976214 0.1669976214
-0.7793222333 0.2226634952 0.2226634952
-0.7236563595 0.2783293690 0.1669976214
-0.6679904857 0.3339952428 0.1113317476
-0.6123246119 0.3896611166 0.0556658738
-0.5566587381 0.4453269904 0.0000000000
-0.5009928642 0.5009928642 -0.0556658738
-0.4453269904 0.5566587381 -0.1113317476
-0.3896611166 0.6123246119 -0.1669976214
-0.3339952428 0.6679904857 -0.2226634952
-0.2783293690 0.7236563595 -0.2783293690
-0.2226634952 0.7793222333 -0.3339952428
-0.7236563595 0.1669976214 0.2783293690
-0.6679904857 0.2226634952 0.2226634952
-0.6123246119 0.2783293690 0.1669976214
-0.5566587381 0.3339952428 0.1113317476
-0.5009928642 0.3896611166 0.0556658738
-0.4453269904 0.4453269904 -0.0000000000
-0.3896611166 0.5009928642 -0.0556658738
-0.3339952428 0.5566587381 -0.1113317476
-0.2783293690 0.6123246119 -0.1669976214
-0.2226634952 0.6679904857 -0.2226634952
-0.1669976214 0.7236563595 -0.2783293690
-0.6679904857 0.1113317476 0.3339952428
-0.6123246119 0.1669976214 0.2783293690
-0.5566587381 0.2226634952 0.2226634952
-0.5009928642 0.2783293690 0.1669976214
-0.4453269904 0.3339952428 0.1113317476
-0.3896611166 0.3896611166 0.0556658738
-0.3339952428 0.4453269904 -0.0000000000
-0.2783293690 0.5009928642 -0.0556658738
-0.2226634952 0.5566587381 -0.1113317476
-0.1669976214 0.6123246119 -0.1669976214
-0.1113317476 0.6679904857 -0.2226634952
-0.6123246119 0.0556658738 0.3896611166
-0.5566587381 0.1113317476 0.3339952428
-0.5009928642 0.1669976214 0.2783293690
-0.4453269904 0.2226634952 0.2226634952
-0.3896611166 0.2783293690 0.1669976214
-0.3339952428 0.3339952428 0.1113317476
-0.2783293690 0.3896611166 0.0556658738
-0.2226634952 0.4453269904 -0.0000000000
-0.1669976214 0.5009928642 -0.0556658738
-0.1113317476 0.5566587381 -0.1113317476
-0.0556658738 0.6123246119 -0.1669976214
-0.5566587381 0.0000000000 0.4453269904
-0.5009928642 0.0556658738 0.3896611166
-0.4453269904 0.1113317476 0.3339952428
-0.3896611166 0.1669976214 0.2783293690
-0.3339952428 0.2226634952 0.2226634952
-0.2783293690 0.2783293690 0.1669976214
-0.2226634952 0.3339952428 0.1113317476
-0.1669976214 0.3896611166 0.0556658738
-0.1113317476 0.4453269904 0.0000000000
-0.0556658738 0.5009928642 -0.0556658738
0.0000000000 0.5566587381 -0.1113317476
-0.5009928642 -0.0556658738 0.5009928642
-0.4453269904 0.0000000000 0.4453269904
-0.3896611166 0.0556658738 0.3896611166
-0.3339952428 0.1113317476 0.3339952428
-0.2783293690 0.1669976214 0.2783293690
-0.2226634952 0.2226634952 0.2226634952
-0.1669976214 0.2783293690 0.1669976214
-0.1113317476 0.3339952428 0.1113317476
-0.0556658738 0.3896611166 0.0556658738
0.0000000000 0.4453269904 0.0000000000
0.0556658738 0.5009928642 -0.0556658738
-0.4453269904 -0.1113317476 0.5566587381
-0.3896611166 -0.0556658738 0.5009928642
-0.3339952428 0.0000000000 0.4453269904
-0.2783293690 0.0556658738 0.3896611166
-0.2226634952 0.1113317476 0.3339952428
-0.1669976214 0.1669976214 0.2783293690
-0.1113317476 0.2226634952 0.2226634952
-0.0556658738 0.2783293690 0.1669976214
0.0000000000 0.3339952428 0.1113317476
0.0556658738 0.3896611166 0.0556658738
0.1113317476 0.4453269904 0.0000000000
-0.3896611166 -0.1669976214 0.6123246119
-0.3339952428 -0.1113317476 0.5566587381
-0.2783293690 -0.0556658738 0.5009928642
-0.2226634952 0.0000000000 0.4453269904
-0.1669976214 0.0556658738 0.3896611166
-0.1113317476 0.1113317476 0.3339952428
-0.0556658738 0.1669976214 0.2783293690
0.0000000000 0.2226634952 0.2226634952
0.0556658738 0.2783293690 0.1669976214
0.1113317476 0.3339952428 0.1113317476
0.1669976214 0.3896611166 0.0556658738
-0.3339952428 -0.2226634952 0.6679904857
-0.2783293690 -0.1669976214 0.6123246119
-0.2226634952 -0.1113317476 0.5566587381
-0.1669976214 -0.0556658738 0.5009928642
-0.1113317476 0.0000000000 0.4453269904
-0.0556658738 0.0556658738 0.3896611166
0.0000000000 0.1113317476 0.3339952428
0.0556658738 0.1669976214 0.2783293690
0.1113317476 0.2226634952 0.2226634952
0.1669976214 0.2783293690 0.1669976214
0.2226634952 0.3339952428 0.1113317476
-0.2783293690 -0.2783293690 0.7236563595
-0.2226634952 -0.2226634952 0.6679904857
-0.1669976214 -0.1669976214 0.6123246119
-0.1113317476 -0.1113317476 0.5566587381
-0.0556658738 -0.0556658738 0.5009928642
0.0000000000 0.0000000000 0.4453269904
0.0556658738 0.0556658738 0.3896611166
0.1113317476 0.1113317476 0.3339952428
0.1669976214 0.1669976214 0.2783293690
0.2226634952 0.2226634952 0.2226634952
0.2783293690 0.2783293690 0.1669976214
-0.2226634952 -0.3339952428 0.7793222333
-0.1669976214 -0.2783293690 0.7236563595
-0.1113317476 -0.2226634952 0.6679904857
-0.0556658738 -0.1669976214 0.6123246119
0.0000000000 -0.1113317476 0.5566587381
0.0556658738 -0.0556658738 0.5009928642
0.1113317476 0.0000000000 0.4453269904
0.1669976214 0.0556658738 0.3896611166
0.2226634952 0.1113317476 0.3339952428
0.2783293690 0.1669976214 0.2783293690
0.3339952428 0.2226634952 0.2226634952
-0.8349881071 0.2783293690 0.2783293690
-0.7793222333 0.3339952428 0.2226634952
-0.7236563595 0.3896611166 0.1669976214
-0.6679904857 0.4453269904 0.1113317476
-0.6123246119 0.5009928642 0.0556658738
-0.5566587381 0.5566587381 0.0000000000
-0.5009928642 0.6123246119 -0.0556658738
-0.4453269904 0.6679904857 -0.1113317476
-0.3896611166 0.7236563595 -0.1669976214
-0.3339952428 0.7793222333 -0.2226634952
-0.2783293690 0.8349881071 -0.2783293690
-0.7793222333 0.2226634952 0.3339952428
-0.7236563595 0.2783293690 0.2783293690
-0.6679904857 0.3339952428 0.2226634952
-0.6123246119 0.3896611166 0.1669976214
-0.5566587381 0.4453269904 0.1113317476
-0.5009928642 0.5009928642 0.0556658738
-0.4453269904 0.5566587381 -0.0000000000
-0.3896611166 0.6123246119 -0.0556658738
-0.3339952428 0.6679904857 -0.1113317476
-0.2783293690 0.7236563595 -0.1669976214
-0.2226634952 0.7793222333 -0.2226634952
-0.7236563595 0.1669976214 0.3896611166
-0.6679904857 0.2226634952 0.3339952428
-0.6123246119 0.2783293690 0.2783293690
-0.5566587381 0.3339952428 0.2226634952
-0.5009928642 0.3896611166 0.1669976214
-0.4453269904 0.4453269904 0.1113317476
-0.3896611166 0.5009928642 0.0556658738
-0.3339952428 0.5566587381 -0.0000000000
-0.2783293690 0.6123246119 -0.0556658738
-0.2226634952 0.6679904857 -0.1113317476
-0.1669976214 0.7236563595 -0.1669976214
-0.6679904857 0.1113317476 0.4453269904
-0.6123246119 0.1669976214 0.3896611166
-0.5566587381 0.2226634952 0.3339952428
-0.5009928642 0.2783293690 0.2783293690
-0.4453269904 0.3339952428 0.2226634952
-0.3896611166 0.3896611166 0.1669976214
-0.3339952428 0.4453269904 0.1113317476
-0.2783293690 0.5009928642 0.0556658738
-0.2226634952 0.5566587381 0.0000000000
-0.1669976214 0.6123246119 -0.0556658738
-0.1113317476 0.6679904857 -0.1113317476
-0.6123246119 0.0556658738 0.5009928642
-0.5566587381 0.1113317476 0.4453269904
-0.5009928642 0.1669976214 0.3896611166
-0.4453269904 0.2226634952 0.3339952428
-0.3896611166 0.2783293690 0.2783293690
-0.3339952428 0.3339952428 0.2226634952
-0.2783293690 0.3896611166 0.1669976214
-0.2226634952 0.4453269904 0.1113317476
-0.1669976214 0.5009928642 0.0556658738
-0.1113317476 0.5566587381 -0.0000000000
-0.0556658738 0.6123246119 -0.0556658738
-0.5566587381 0.0000000000 0.5566587381
-0.5009928642 0.0556658738 0.5009928642
-0.4453269904 0.1113317476 0.4453269904
-0.3896611166 0.1669976214 0.3896611166
-0.3339952428 0.2226634952 0.3339952428
-0.2783293690 0.2783293690 0.2783293690
-0.2226634952 0.3339952428 0.2226634952
-0.1669976214 0.3896611166 0.1669976214
-0.1113317476 0.4453269904 0.1113317476
-0.0556658738 0.5009928642 0.0556658738
0.0000000000 0.5566587381 0.0000000000
-0.5009928642 -0.0556658738 0.6123246119
-0.4453269904 -0.0000000000 0.5566587381
-0.3896611166 0.0556658738 0.5009928642
-0.3339952428 0.1113317476 0.4453269904
-0.2783293690 0.1669976214 0.3896611166
-0.2226634952 0.2226634952 0.3339952428
-0.1669976214 0.2783293690 0.2783293690
-0.1113317476 0.3339952428 0.2226634952
-0.0556658738 0.3896611166 0.1669976214
0.0000000000 0.4453269904 0.1113317476
0.0556658738 0.5009928642 0.0556658738
-0.4453269904 -0.1113317476 0.6679904857
-0.3896611166 -0.0556658738 0.6123246119
-0.3339952428 0.0000000000 0.5566587381
-0.2783293690 0.0556658738 0.5009928642
-0.2226634952 0.1113317476 0.4453269904
-0.1669976214 0.1669976214 0.3896611166
-0.1113317476 0.2226634952 0.3339952428
-0.0556658738 0.2783293690 0.2783293690
0.0000000000 0.3339952428 0.2226634952
0.0556658738 0.3896611166 0.1669976214
0.1113317476 0.4453269904 0.1113317476
-0.3896611166 -0.1669976214 0.7236563595
-0.3339952428 -0.1113317476 0.6679904857
-0.2783293690 -0.0556658738 0.6123246119
-0.2226634952 0.0000000000 0.5566587381
-0.1669976214 0.0556658738 0.5009928642
-0.1113317476 0.1113317476 0.4453269904
-0.0556658738 0.1669976214 0.3896611166
0.0000000000 0.2226634952 0.3339952428
0.0556658738 0.2783293690 0.2783293690
0.1113317476 0.3339952428 0.2226634952
0.1669976214 0.3896611166 0.1669976214
-0.3339952428 -0.2226634952 0.7793222333
-0.2783293690 -0.1669976214 0.7236563595
-0.2226634952 -0.1113317476 0.6679904857
-0.1669976214 -0.0556658738 0.6123246119
-0.1113317476 0.0000000000 0.5566587381
-0.0556658738 0.0556658738 0.5009928642
0.0000000000 0.1113317476 0.4453269904
0.0556658738 0.1669976214 0.3896611166
0.1113317476 0.2226634952 0.3339952428
0.1669976214 0.2783293690 0.2783293690
0.2226634952 0.3339952428 0.2226634952
-0.2783293690 -0.2783293690 0.8349881071
-0.2226634952 -0.2226634952 0.7793222333
-0.1669976214 -0.1669976214 0.7236563595
-0.1113317476 -0.1113317476 0.6679904857
-0.0556658738 -0.0556658738 0.6123246119
0.0000000000 0.0000000000 0.5566587381
0.0556658738 0.0556658738 0.5009928642
0.1113317476 0.1113317476 0.4453269904
0.1669976214 0.1669976214 0.3896611166
0.2226634952 0.2226634952 0.3339952428
0.2783293690 0.2783293690 0.2783293690
 There are 14 alpha and 14 beta electrons
 Start computing overlap matrix
 Allocate 296525504 B from available memory: 1048575734752 B
 Time for computing overlap matrix: 3.8440000000 s
 ====== Initialize compute kernels for all-electron RI-J (kpts) ====== 
 ========================================================== 
 Range-separated parameter omega        = 0.299999999999999989
 Threshold for 1e2c shellpair           = 0.000000000000010000
 Threshold for 2e2c SR integral         = 0.000000000000000001
 Threshold for 2e3c SR integral         = 0.000000000100000000
 Threshold for AFT G-space screening is = 0.000000000001000000
 The exponent cutoff for C/D classification (omega2 / 2) is  = 0.044999999999999998
 ========================================================== 
 === Post process the basis set for RI calculation (exp_cutoff = 0.044999999999999998 ) === 
nshells_b1 before uncontraction = 28
nshells_b1 after uncontraction = 28
nshells_baux before uncontraction = 80
nshells_baux after uncontraction = 80
===============================================
nbsf total   = 118
nbsf compact = 118
nbsf diffuse = 0
naux total   = 296
naux compact = 296
naux diffuse = 0
nshells_bnuc = 2

 Number of unique atoms is 1
 Unique atom #0 (si) has 14 shells.

Shell 0 to 13 belongs to atom si
Shell 14 to 27 belongs to atom si

 Number of unique atom is 1
 Unique atom #0 (si) has 40 auxiliary shells.

Auxiliary Shell 0 to 39 belongs to atom si
Auxiliary Shell 40 to 79 belongs to atom si

================= Automatically determine grid size for reciprocal space summation =================
 Range-separated parameter = 0.30000000000000 and G-space screening threshold = 0.00000000000100
The number of grid points along each axis dimension is (4, 4, 4)
Total number of grid points = 729

Use nonortho shellpair for diffuse density
======== Initializing relevant kernel for RIJ (CC type) ========
There are 406 shellpairs in the reference unit cell
There are 3757 images and we expect to have 1525342 in total
There are 35954 shellpairs in the lattice sum after screening
****** AFT -> SR ******
Maximum bra distance cutoff is 30.000000000000
Maximum bra ket distance cutoff is 37.583407605466
Maximum bra ket screening distance is 30.187500000000
Number of auxiliary image is 1657
There are 406 shellpairs in the reference unit cell
There are 1031 images and we expect to have 418586 in total
There are 35954 shellpairs in the lattice sum after screening
Available memory per thread for 2e3c calculation is 32.758725289000Gb
Finish initializing 2e3c SR with the lattice sum!
=================================================
======== Initialize the SR component for Vnuc (CC type) ========
Maximum bra distance cutoff is 30.000000000000
Maximum bra ket distance cutoff is 31.203423477913
Maximum bra ket screening distance is 23.767099300136
Number of auxiliary image is 1097
There are 406 shellpairs in the reference unit cell
There are 1031 images and we expect to have 418586 in total
There are 35954 shellpairs in the lattice sum after screening
Available memory per thread for 2e3c calculation is 32.758725289000Gb
Finish initializing 2e3c SR with the lattice sum!
=================================================
 Aufbau occupation scheme, occupation determined by eigenvalue
 == 0-th k-point nmo = 114 (-0.27833,-0.27833,-0.27833) ==
 == 1-th k-point nmo = 114 (-0.22266,-0.22266,-0.33400) ==
 == 2-th k-point nmo = 114 (-0.16700,-0.16700,-0.38966) ==
 == 3-th k-point nmo = 114 (-0.11133,-0.11133,-0.44533) ==
 == 4-th k-point nmo = 114 (-0.05567,-0.05567,-0.50099) ==
 == 5-th k-point nmo = 114 (-0.00000,-0.00000,-0.55666) ==
 == 6-th k-point nmo = 114 (0.05567,0.05567,-0.61232) ==
 == 7-th k-point nmo = 114 (0.11133,0.11133,-0.66799) ==
 == 8-th k-point nmo = 114 (0.16700,0.16700,-0.72366) ==
 == 9-th k-point nmo = 114 (0.22266,0.22266,-0.77932) ==
 == 10-th k-point nmo = 114 (0.27833,0.27833,-0.83499) ==
 == 11-th k-point nmo = 114 (-0.22266,-0.33400,-0.22266) ==
 == 12-th k-point nmo = 114 (-0.16700,-0.27833,-0.27833) ==
 == 13-th k-point nmo = 114 (-0.11133,-0.22266,-0.33400) ==
 == 14-th k-point nmo = 114 (-0.05567,-0.16700,-0.38966) ==
 == 15-th k-point nmo = 114 (-0.00000,-0.11133,-0.44533) ==
 == 16-th k-point nmo = 114 (0.05567,-0.05567,-0.50099) ==
 == 17-th k-point nmo = 114 (0.11133,-0.00000,-0.55666) ==
 == 18-th k-point nmo = 114 (0.16700,0.05567,-0.61232) ==
 == 19-th k-point nmo = 114 (0.22266,0.11133,-0.66799) ==
 == 20-th k-point nmo = 114 (0.27833,0.16700,-0.72366) ==
 == 21-th k-point nmo = 114 (0.33400,0.22266,-0.77932) ==
 == 22-th k-point nmo = 114 (-0.16700,-0.38966,-0.16700) ==
 == 23-th k-point nmo = 114 (-0.11133,-0.33400,-0.22266) ==
 == 24-th k-point nmo = 114 (-0.05567,-0.27833,-0.27833) ==
 == 25-th k-point nmo = 114 (-0.00000,-0.22266,-0.33400) ==
 == 26-th k-point nmo = 114 (0.05567,-0.16700,-0.38966) ==
 == 27-th k-point nmo = 114 (0.11133,-0.11133,-0.44533) ==
 == 28-th k-point nmo = 114 (0.16700,-0.05567,-0.50099) ==
 == 29-th k-point nmo = 114 (0.22266,-0.00000,-0.55666) ==
 == 30-th k-point nmo = 114 (0.27833,0.05567,-0.61232) ==
 == 31-th k-point nmo = 114 (0.33400,0.11133,-0.66799) ==
 == 32-th k-point nmo = 114 (0.38966,0.16700,-0.72366) ==
 == 33-th k-point nmo = 114 (-0.11133,-0.44533,-0.11133) ==
 == 34-th k-point nmo = 114 (-0.05567,-0.38966,-0.16700) ==
 == 35-th k-point nmo = 114 (-0.00000,-0.33400,-0.22266) ==
 == 36-th k-point nmo = 114 (0.05567,-0.27833,-0.27833) ==
 == 37-th k-point nmo = 114 (0.11133,-0.22266,-0.33400) ==
 == 38-th k-point nmo = 114 (0.16700,-0.16700,-0.38966) ==
 == 39-th k-point nmo = 114 (0.22266,-0.11133,-0.44533) ==
 == 40-th k-point nmo = 114 (0.27833,-0.05567,-0.50099) ==
 == 41-th k-point nmo = 114 (0.33400,0.00000,-0.55666) ==
 == 42-th k-point nmo = 114 (0.38966,0.05567,-0.61232) ==
 == 43-th k-point nmo = 114 (0.44533,0.11133,-0.66799) ==
 == 44-th k-point nmo = 114 (-0.05567,-0.50099,-0.05567) ==
 == 45-th k-point nmo = 114 (-0.00000,-0.44533,-0.11133) ==
 == 46-th k-point nmo = 114 (0.05567,-0.38966,-0.16700) ==
 == 47-th k-point nmo = 114 (0.11133,-0.33400,-0.22266) ==
 == 48-th k-point nmo = 114 (0.16700,-0.27833,-0.27833) ==
 == 49-th k-point nmo = 114 (0.22266,-0.22266,-0.33400) ==
 == 50-th k-point nmo = 114 (0.27833,-0.16700,-0.38966) ==
 == 51-th k-point nmo = 114 (0.33400,-0.11133,-0.44533) ==
 == 52-th k-point nmo = 114 (0.38966,-0.05567,-0.50099) ==
 == 53-th k-point nmo = 114 (0.44533,0.00000,-0.55666) ==
 == 54-th k-point nmo = 114 (0.50099,0.05567,-0.61232) ==
 == 55-th k-point nmo = 114 (-0.00000,-0.55666,0.00000) ==
 == 56-th k-point nmo = 114 (0.05567,-0.50099,-0.05567) ==
 == 57-th k-point nmo = 114 (0.11133,-0.44533,-0.11133) ==
 == 58-th k-point nmo = 114 (0.16700,-0.38966,-0.16700) ==
 == 59-th k-point nmo = 114 (0.22266,-0.33400,-0.22266) ==
 == 60-th k-point nmo = 114 (0.27833,-0.27833,-0.27833) ==
 == 61-th k-point nmo = 114 (0.33400,-0.22266,-0.33400) ==
 == 62-th k-point nmo = 114 (0.38966,-0.16700,-0.38966) ==
 == 63-th k-point nmo = 114 (0.44533,-0.11133,-0.44533) ==
 == 64-th k-point nmo = 114 (0.50099,-0.05567,-0.50099) ==
 == 65-th k-point nmo = 114 (0.55666,0.00000,-0.55666) ==
 == 66-th k-point nmo = 114 (0.05567,-0.61232,0.05567) ==
 == 67-th k-point nmo = 114 (0.11133,-0.55666,0.00000) ==
 == 68-th k-point nmo = 114 (0.16700,-0.50099,-0.05567) ==
 == 69-th k-point nmo = 114 (0.22266,-0.44533,-0.11133) ==
 == 70-th k-point nmo = 114 (0.27833,-0.38966,-0.16700) ==
 == 71-th k-point nmo = 114 (0.33400,-0.33400,-0.22266) ==
 == 72-th k-point nmo = 114 (0.38966,-0.27833,-0.27833) ==
 == 73-th k-point nmo = 114 (0.44533,-0.22266,-0.33400) ==
 == 74-th k-point nmo = 114 (0.50099,-0.16700,-0.38966) ==
 == 75-th k-point nmo = 114 (0.55666,-0.11133,-0.44533) ==
 == 76-th k-point nmo = 114 (0.61232,-0.05567,-0.50099) ==
 == 77-th k-point nmo = 114 (0.11133,-0.66799,0.11133) ==
 == 78-th k-point nmo = 114 (0.16700,-0.61232,0.05567) ==
 == 79-th k-point nmo = 114 (0.22266,-0.55666,0.00000) ==
 == 80-th k-point nmo = 114 (0.27833,-0.50099,-0.05567) ==
 == 81-th k-point nmo = 114 (0.33400,-0.44533,-0.11133) ==
 == 82-th k-point nmo = 114 (0.38966,-0.38966,-0.16700) ==
 == 83-th k-point nmo = 114 (0.44533,-0.33400,-0.22266) ==
 == 84-th k-point nmo = 114 (0.50099,-0.27833,-0.27833) ==
 == 85-th k-point nmo = 114 (0.55666,-0.22266,-0.33400) ==
 == 86-th k-point nmo = 114 (0.61232,-0.16700,-0.38966) ==
 == 87-th k-point nmo = 114 (0.66799,-0.11133,-0.44533) ==
 == 88-th k-point nmo = 114 (0.16700,-0.72366,0.16700) ==
 == 89-th k-point nmo = 114 (0.22266,-0.66799,0.11133) ==
 == 90-th k-point nmo = 114 (0.27833,-0.61232,0.05567) ==
 == 91-th k-point nmo = 114 (0.33400,-0.55666,0.00000) ==
 == 92-th k-point nmo = 114 (0.38966,-0.50099,-0.05567) ==
 == 93-th k-point nmo = 114 (0.44533,-0.44533,-0.11133) ==
 == 94-th k-point nmo = 114 (0.50099,-0.38966,-0.16700) ==
 == 95-th k-point nmo = 114 (0.55666,-0.33400,-0.22266) ==
 == 96-th k-point nmo = 114 (0.61232,-0.27833,-0.27833) ==
 == 97-th k-point nmo = 114 (0.66799,-0.22266,-0.33400) ==
 == 98-th k-point nmo = 114 (0.72366,-0.16700,-0.38966) ==
 == 99-th k-point nmo = 114 (0.22266,-0.77932,0.22266) ==
 == 100-th k-point nmo = 114 (0.27833,-0.72366,0.16700) ==
 == 101-th k-point nmo = 114 (0.33400,-0.66799,0.11133) ==
 == 102-th k-point nmo = 114 (0.38966,-0.61232,0.05567) ==
 == 103-th k-point nmo = 114 (0.44533,-0.55666,0.00000) ==
 == 104-th k-point nmo = 114 (0.50099,-0.50099,-0.05567) ==
 == 105-th k-point nmo = 114 (0.55666,-0.44533,-0.11133) ==
 == 106-th k-point nmo = 114 (0.61232,-0.38966,-0.16700) ==
 == 107-th k-point nmo = 114 (0.66799,-0.33400,-0.22266) ==
 == 108-th k-point nmo = 114 (0.72366,-0.27833,-0.27833) ==
 == 109-th k-point nmo = 114 (0.77932,-0.22266,-0.33400) ==
 == 110-th k-point nmo = 114 (0.27833,-0.83499,0.27833) ==
 == 111-th k-point nmo = 114 (0.33400,-0.77932,0.22266) ==
 == 112-th k-point nmo = 114 (0.38966,-0.72366,0.16700) ==
 == 113-th k-point nmo = 114 (0.44533,-0.66799,0.11133) ==
 == 114-th k-point nmo = 114 (0.50099,-0.61232,0.05567) ==
 == 115-th k-point nmo = 114 (0.55666,-0.55666,0.00000) ==
 == 116-th k-point nmo = 114 (0.61232,-0.50099,-0.05567) ==
 == 117-th k-point nmo = 114 (0.66799,-0.44533,-0.11133) ==
 == 118-th k-point nmo = 114 (0.72366,-0.38966,-0.16700) ==
 == 119-th k-point nmo = 114 (0.77932,-0.33400,-0.22266) ==
 == 120-th k-point nmo = 114 (0.83499,-0.27833,-0.27833) ==
 == 121-th k-point nmo = 114 (-0.33400,-0.22266,-0.22266) ==
 == 122-th k-point nmo = 114 (-0.27833,-0.16700,-0.27833) ==
 == 123-th k-point nmo = 114 (-0.22266,-0.11133,-0.33400) ==
 == 124-th k-point nmo = 114 (-0.16700,-0.05567,-0.38966) ==
 == 125-th k-point nmo = 114 (-0.11133,-0.00000,-0.44533) ==
 == 126-th k-point nmo = 114 (-0.05567,0.05567,-0.50099) ==
 == 127-th k-point nmo = 114 (-0.00000,0.11133,-0.55666) ==
 == 128-th k-point nmo = 114 (0.05567,0.16700,-0.61232) ==
 == 129-th k-point nmo = 114 (0.11133,0.22266,-0.66799) ==
 == 130-th k-point nmo = 114 (0.16700,0.27833,-0.72366) ==
 == 131-th k-point nmo = 114 (0.22266,0.33400,-0.77932) ==
 == 132-th k-point nmo = 114 (-0.27833,-0.27833,-0.16700) ==
 == 133-th k-point nmo = 114 (-0.22266,-0.22266,-0.22266) ==
 == 134-th k-point nmo = 114 (-0.16700,-0.16700,-0.27833) ==
 == 135-th k-point nmo = 114 (-0.11133,-0.11133,-0.33400) ==
 == 136-th k-point nmo = 114 (-0.05567,-0.05567,-0.38966) ==
 == 137-th k-point nmo = 114 (-0.00000,-0.00000,-0.44533) ==
 == 138-th k-point nmo = 114 (0.05567,0.05567,-0.50099) ==
 == 139-th k-point nmo = 114 (0.11133,0.11133,-0.55666) ==
 == 140-th k-point nmo = 114 (0.16700,0.16700,-0.61232) ==
 == 141-th k-point nmo = 114 (0.22266,0.22266,-0.66799) ==
 == 142-th k-point nmo = 114 (0.27833,0.27833,-0.72366) ==
 == 143-th k-point nmo = 114 (-0.22266,-0.33400,-0.11133) ==
 == 144-th k-point nmo = 114 (-0.16700,-0.27833,-0.16700) ==
 == 145-th k-point nmo = 114 (-0.11133,-0.22266,-0.22266) ==
 == 146-th k-point nmo = 114 (-0.05567,-0.16700,-0.27833) ==
 == 147-th k-point nmo = 114 (-0.00000,-0.11133,-0.33400) ==
 == 148-th k-point nmo = 114 (0.05567,-0.05567,-0.38966) ==
 == 149-th k-point nmo = 114 (0.11133,-0.00000,-0.44533) ==
 == 150-th k-point nmo = 114 (0.16700,0.05567,-0.50099) ==
 == 151-th k-point nmo = 114 (0.22266,0.11133,-0.55666) ==
 == 152-th k-point nmo = 114 (0.27833,0.16700,-0.61232) ==
 == 153-th k-point nmo = 114 (0.33400,0.22266,-0.66799) ==
 == 154-th k-point nmo = 114 (-0.16700,-0.38966,-0.05567) ==
 == 155-th k-point nmo = 114 (-0.11133,-0.33400,-0.11133) ==
 == 156-th k-point nmo = 114 (-0.05567,-0.27833,-0.16700) ==
 == 157-th k-point nmo = 113 (-0.00000,-0.22266,-0.22266) ==
 == 158-th k-point nmo = 114 (0.05567,-0.16700,-0.27833) ==
 == 159-th k-point nmo = 114 (0.11133,-0.11133,-0.33400) ==
 == 160-th k-point nmo = 114 (0.16700,-0.05567,-0.38966) ==
 == 161-th k-point nmo = 114 (0.22266,-0.00000,-0.44533) ==
 == 162-th k-point nmo = 114 (0.27833,0.05567,-0.50099) ==
 == 163-th k-point nmo = 114 (0.33400,0.11133,-0.55666) ==
 == 164-th k-point nmo = 114 (0.38966,0.16700,-0.61232) ==
 == 165-th k-point nmo = 114 (-0.11133,-0.44533,0.00000) ==
 == 166-th k-point nmo = 114 (-0.05567,-0.38966,-0.05567) ==
 == 167-th k-point nmo = 114 (-0.00000,-0.33400,-0.11133) ==
 == 168-th k-point nmo = 114 (0.05567,-0.27833,-0.16700) ==
 == 169-th k-point nmo = 114 (0.11133,-0.22266,-0.22266) ==
 == 170-th k-point nmo = 114 (0.16700,-0.16700,-0.27833) ==
 == 171-th k-point nmo = 114 (0.22266,-0.11133,-0.33400) ==
 == 172-th k-point nmo = 114 (0.27833,-0.05567,-0.38966) ==
 == 173-th k-point nmo = 114 (0.33400,-0.00000,-0.44533) ==
 == 174-th k-point nmo = 114 (0.38966,0.05567,-0.50099) ==
 == 175-th k-point nmo = 114 (0.44533,0.11133,-0.55666) ==
 == 176-th k-point nmo = 114 (-0.05567,-0.50099,0.05567) ==
 == 177-th k-point nmo = 114 (-0.00000,-0.44533,0.00000) ==
 == 178-th k-point nmo = 114 (0.05567,-0.38966,-0.05567) ==
 == 179-th k-point nmo = 114 (0.11133,-0.33400,-0.11133) ==
 == 180-th k-point nmo = 114 (0.16700,-0.27833,-0.16700) ==
 == 181-th k-point nmo = 114 (0.22266,-0.22266,-0.22266) ==
 == 182-th k-point nmo = 114 (0.27833,-0.16700,-0.27833) ==
 == 183-th k-point nmo = 114 (0.33400,-0.11133,-0.33400) ==
 == 184-th k-point nmo = 114 (0.38966,-0.05567,-0.38966) ==
 == 185-th k-point nmo = 114 (0.44533,0.00000,-0.44533) ==
 == 186-th k-point nmo = 114 (0.50099,0.05567,-0.50099) ==
 == 187-th k-point nmo = 114 (-0.00000,-0.55666,0.11133) ==
 == 188-th k-point nmo = 114 (0.05567,-0.50099,0.05567) ==
 == 189-th k-point nmo = 114 (0.11133,-0.44533,-0.00000) ==
 == 190-th k-point nmo = 114 (0.16700,-0.38966,-0.05567) ==
 == 191-th k-point nmo = 114 (0.22266,-0.33400,-0.11133) ==
 == 192-th k-point nmo = 114 (0.27833,-0.27833,-0.16700) ==
 == 193-th k-point nmo = 114 (0.33400,-0.22266,-0.22266) ==
 == 194-th k-point nmo = 114 (0.38966,-0.16700,-0.27833) ==
 == 195-th k-point nmo = 114 (0.44533,-0.11133,-0.33400) ==
 == 196-th k-point nmo = 114 (0.50099,-0.05567,-0.38966) ==
 == 197-th k-point nmo = 114 (0.55666,0.00000,-0.44533) ==
 == 198-th k-point nmo = 114 (0.05567,-0.61232,0.16700) ==
 == 199-th k-point nmo = 114 (0.11133,-0.55666,0.11133) ==
 == 200-th k-point nmo = 114 (0.16700,-0.50099,0.05567) ==
 == 201-th k-point nmo = 114 (0.22266,-0.44533,0.00000) ==
 == 202-th k-point nmo = 114 (0.27833,-0.38966,-0.05567) ==
 == 203-th k-point nmo = 114 (0.33400,-0.33400,-0.11133) ==
 == 204-th k-point nmo = 114 (0.38966,-0.27833,-0.16700) ==
 == 205-th k-point nmo = 114 (0.44533,-0.22266,-0.22266) ==
 == 206-th k-point nmo = 114 (0.50099,-0.16700,-0.27833) ==
 == 207-th k-point nmo = 114 (0.55666,-0.11133,-0.33400) ==
 == 208-th k-point nmo = 114 (0.61232,-0.05567,-0.38966) ==
 == 209-th k-point nmo = 114 (0.11133,-0.66799,0.22266) ==
 == 210-th k-point nmo = 114 (0.16700,-0.61232,0.16700) ==
 == 211-th k-point nmo = 114 (0.22266,-0.55666,0.11133) ==
 == 212-th k-point nmo = 114 (0.27833,-0.50099,0.05567) ==
 == 213-th k-point nmo = 114 (0.33400,-0.44533,0.00000) ==
[...]
 0.75843 0.78875 0.85269 0.87872 0.89776 0.90870 0.98268 1.00844 1.06646 1.08212
 1.13007 1.14090 1.17499 1.19357 1.37710 1.41995 1.45394 1.45731 1.51449 1.52459
 1.63881 1.63950 1.66774 1.74529 1.75129 1.80844 1.82753 1.88029 1.91776 1.91823
 2.01870 2.06200 2.14541 2.20930 2.23397 2.24772 2.28189 2.30008 2.33076 2.35269
 2.40680 2.44523 2.47398 2.52708 2.58071 2.71179 2.71985 2.72016 2.75740 2.77938
 2.85442 2.86560 2.90068 2.95526 2.96990 3.01045 3.06275 3.07185 3.12285 3.13916
 3.21108 3.23516 3.27823 3.28309 3.32786 3.33048 3.37193 3.37959 3.47831 3.50471
 3.58051 3.59557 3.62330 3.65471 3.70557 3.73336 3.84740 3.91516 3.95381 4.01089
 4.13940 4.22760 4.29204 4.30183 4.58496 4.60356 8.25780 8.40260 8.61153 8.65171
 9.50196 9.91164 13.38186 13.58363
 == 1313-th k-point (-0.11133,0.00000,0.55666) occupation: 14==
 -65.00572 -65.00572 -4.62781 -4.62777 -3.03973 -3.03973 -3.03938 -3.03929 -3.03898 -3.03898
 -0.03397 0.01512 0.15584 0.16030 0.32545 0.33553 0.56890 0.62061 0.64609 0.69961
 0.72510 0.77910 0.78874 0.84839 0.88981 0.94283 0.98440 1.02077 1.04926 1.05524
 1.13533 1.14357 1.16816 1.21656 1.39414 1.40656 1.47898 1.50813 1.54234 1.55007
 1.56040 1.68362 1.72606 1.74694 1.75518 1.75755 1.82032 1.82056 1.88672 1.89316
 2.03907 2.06018 2.13173 2.14875 2.17328 2.26369 2.26634 2.31310 2.36998 2.37419
 2.42428 2.45861 2.50063 2.52772 2.57261 2.59582 2.71554 2.75222 2.79352 2.80103
 2.85967 2.86234 2.93810 2.95752 2.97399 2.98618 2.99344 3.07802 3.10377 3.11294
 3.21534 3.21918 3.28235 3.30162 3.30481 3.32442 3.38674 3.40885 3.52076 3.53001
 3.53637 3.54956 3.64626 3.67174 3.70763 3.72206 3.92036 3.94546 3.97577 4.05303
 4.22665 4.23907 4.31432 4.34352 4.60655 4.61327 8.19392 8.43241 8.55609 8.62929
 9.83988 9.86663 13.35064 13.41483
 == 1314-th k-point (-0.05567,0.05567,0.50099) occupation: 14==
 -65.00572 -65.00572 -4.62783 -4.62775 -3.03973 -3.03972 -3.03942 -3.03925 -3.03899 -3.03899
 -0.05821 0.04185 0.16053 0.17640 0.30724 0.33792 0.57792 0.57797 0.70356 0.70361
 0.71583 0.72213 0.81377 0.83995 0.85674 0.93125 0.95065 0.99301 1.06880 1.13065
 1.13990 1.17185 1.18645 1.26636 1.36382 1.37906 1.44761 1.51973 1.54810 1.57466
 1.63048 1.65580 1.72509 1.73239 1.76611 1.77744 1.80286 1.82920 1.86099 1.90831
 1.98870 2.04939 2.07633 2.15209 2.16826 2.21582 2.24812 2.36453 2.36775 2.39321
 2.43259 2.43574 2.51562 2.53276 2.59049 2.59314 2.69058 2.75957 2.82786 2.83321
 2.85084 2.88455 2.90583 2.93873 2.95012 2.98280 3.00686 3.01400 3.08387 3.15542
 3.22493 3.23757 3.25947 3.32124 3.33785 3.34697 3.40324 3.43984 3.51658 3.53153
 3.53922 3.55104 3.60193 3.69112 3.71275 3.74567 3.90473 3.92232 3.94886 4.13629
 4.20263 4.25246 4.29741 4.36459 4.61244 4.62053 8.07976 8.39313 8.42890 8.69884
 10.08440 10.23067 13.29470 13.40713
 == 1315-th k-point (0.00000,0.11133,0.44533) occupation: 14==
 -65.00572 -65.00572 -4.62785 -4.62773 -3.03972 -3.03971 -3.03947 -3.03921 -3.03900 -3.03900
 -0.07709 0.06682 0.16297 0.17741 0.32796 0.35975 0.51203 0.56443 0.65342 0.69445
 0.71602 0.77209 0.79710 0.82164 0.87603 0.90239 0.95714 1.00450 1.11540 1.11556
 1.16967 1.20533 1.25341 1.29408 1.32003 1.37262 1.43636 1.52068 1.54843 1.55920
 1.56807 1.68379 1.70842 1.73611 1.78856 1.80222 1.81765 1.82256 1.86818 1.93915
 2.01196 2.03020 2.03279 2.15309 2.17107 2.17833 2.18589 2.35168 2.38162 2.42356
 2.42599 2.44517 2.52373 2.57660 2.61212 2.61941 2.62264 2.77457 2.78165 2.83595
 2.86094 2.88119 2.89435 2.92868 2.93253 2.99790 3.02282 3.04721 3.07553 3.17324
 3.20715 3.24588 3.30545 3.33610 3.36428 3.37924 3.42010 3.43485 3.50211 3.53176
 3.54220 3.54670 3.61420 3.68026 3.71838 3.71942 3.89959 3.90659 3.94924 4.09687
 4.14664 4.17142 4.28224 4.35839 4.59611 4.61830 8.05959 8.21114 8.24214 8.90798
 10.38509 10.48380 13.24276 13.49188
 == 1316-th k-point (0.05567,0.16700,0.38966) occupation: 14==
 -65.00572 -65.00571 -4.62786 -4.62772 -3.03971 -3.03970 -3.03951 -3.03918 -3.03900 -3.03898
 -0.08935 0.07721 0.15948 0.19556 0.35466 0.41348 0.44914 0.51414 0.62406 0.67230
 0.71777 0.74016 0.79832 0.82586 0.88151 0.95334 0.98121 1.03215 1.08060 1.14070
 1.19938 1.23018 1.25437 1.30253 1.36062 1.39350 1.45054 1.47358 1.50271 1.53780
 1.59598 1.63189 1.67186 1.73354 1.75551 1.82054 1.84819 1.88514 1.90437 1.95319
 1.99297 2.04240 2.06214 2.10282 2.15234 2.15948 2.24460 2.30402 2.38383 2.41610
 2.44488 2.47613 2.50454 2.57639 2.59684 2.62324 2.67201 2.72602 2.79371 2.80790
 2.83628 2.87228 2.88456 2.90542 2.96614 3.01812 3.05982 3.06512 3.11786 3.16075
 3.20861 3.29119 3.30529 3.31962 3.34621 3.39425 3.42377 3.45086 3.48844 3.52012
 3.54113 3.57201 3.65159 3.68074 3.71780 3.75927 3.83701 3.89027 3.93672 3.97715
 4.09081 4.11820 4.26224 4.35176 4.56113 4.60421 7.98229 8.11099 8.22938 9.14807
 9.95143 10.41090 13.18832 13.92392
 == 1317-th k-point (0.11133,0.22266,0.33400) occupation: 14==
 -65.00572 -65.00571 -4.62787 -4.62771 -3.03971 -3.03970 -3.03955 -3.03915 -3.03901 -3.03898
 -0.09464 0.06587 0.17715 0.21998 0.37563 0.40001 0.45383 0.48872 0.59697 0.63815
 0.70881 0.71858 0.80068 0.84594 0.90014 0.94024 0.99638 1.07540 1.11947 1.15673
 1.19484 1.20993 1.29526 1.30750 1.37478 1.38611 1.43006 1.46876 1.48898 1.54662
 1.56726 1.64414 1.65228 1.73943 1.74759 1.79190 1.82522 1.89490 1.90332 1.99084
 2.01712 2.03881 2.07897 2.11978 2.18435 2.19577 2.26625 2.32793 2.36069 2.40218
 2.40886 2.47301 2.52241 2.57538 2.60004 2.64616 2.69308 2.75748 2.78178 2.80324
 2.81349 2.85305 2.89487 2.91005 2.95286 2.98619 3.04752 3.08993 3.12419 3.16889
 3.17881 3.26029 3.29929 3.32615 3.34200 3.41368 3.46962 3.48299 3.49233 3.51398
 3.58040 3.60157 3.64472 3.71854 3.72250 3.77285 3.80164 3.84964 3.91711 3.95619
 4.06487 4.08583 4.24307 4.36507 4.52435 4.58192 7.90660 8.12969 8.27809 9.39296
 9.65945 10.11017 12.87608 14.41331
 == 1318-th k-point (0.16700,0.27833,0.27833) occupation: 14==
 -65.00572 -65.00571 -4.62787 -4.62771 -3.03970 -3.03970 -3.03957 -3.03913 -3.03900 -3.03900
 -0.09307 0.04899 0.20209 0.23392 0.35793 0.40618 0.40940 0.56173 0.57470 0.61563
 0.69330 0.71823 0.81232 0.81302 0.89980 0.95097 1.01983 1.13040 1.14231 1.14242
 1.18514 1.21908 1.30343 1.32310 1.32957 1.39776 1.43027 1.45219 1.47721 1.53463
 1.54955 1.61408 1.67745 1.71756 1.77237 1.81707 1.82939 1.85265 1.93693 1.98077
 2.02417 2.10634 2.10642 2.14288 2.15824 2.21462 2.31000 2.32449 2.37352 2.39080
 2.39650 2.42573 2.55698 2.58163 2.60335 2.63583 2.73566 2.77042 2.78413 2.79028
 2.81835 2.86778 2.88422 2.93086 2.93788 2.97900 2.98628 3.11433 3.11822 3.13257
 3.14980 3.18798 3.27835 3.34785 3.39076 3.43284 3.46511 3.48453 3.50702 3.54354
 3.61506 3.61708 3.68905 3.70128 3.74316 3.76091 3.79206 3.88275 3.96192 3.97798
 4.01475 4.09748 4.22009 4.37772 4.48076 4.54096 7.97505 8.12780 8.27600 9.56343
 9.62029 10.00174 12.40386 14.64882
 == 1319-th k-point (0.22266,0.33400,0.22266) occupation: 14==
 -65.00572 -65.00571 -4.62786 -4.62772 -3.03970 -3.03969 -3.03956 -3.03913 -3.03901 -3.03898
 -0.08515 0.03612 0.21009 0.22169 0.35497 0.39713 0.41932 0.54826 0.59977 0.66391
 0.68712 0.71355 0.74295 0.82843 0.92724 0.98300 1.03530 1.08559 1.12759 1.14712
 1.20722 1.21336 1.28418 1.31288 1.33162 1.40928 1.41446 1.44158 1.46522 1.51579
 1.54720 1.60279 1.67122 1.71035 1.76041 1.81527 1.85346 1.92255 1.95097 1.98009
 2.00967 2.09065 2.13416 2.18093 2.19358 2.23705 2.26188 2.30771 2.33271 2.37588
 2.40803 2.42386 2.55294 2.56610 2.61481 2.64807 2.75118 2.77443 2.77808 2.80110
 2.80393 2.85293 2.87231 2.90935 2.94071 2.99816 3.06384 3.06949 3.08509 3.11842
 3.14105 3.19640 3.25178 3.26814 3.40631 3.44627 3.45783 3.47835 3.54196 3.54344
 3.60790 3.64266 3.67440 3.68288 3.74869 3.75859 3.81585 3.85197 3.96401 3.97882
 4.04014 4.12587 4.21577 4.34596 4.49198 4.50194 8.09236 8.28978 8.30014 9.33552
 9.78935 9.99684 12.36546 14.70555
 == 1320-th k-point (-0.27833,-0.27833,0.83499) occupation: 14==
 -65.00572 -65.00571 -4.62786 -4.62772 -3.03970 -3.03969 -3.03956 -3.03914 -3.03900 -3.03898
 -0.07511 0.02121 0.20347 0.22546 0.35415 0.39912 0.41239 0.57177 0.62386 0.63655
 0.68150 0.73622 0.74819 0.77770 0.97918 1.02090 1.05052 1.07487 1.09768 1.11248
 1.21512 1.24018 1.25305 1.31674 1.32156 1.37156 1.41747 1.42268 1.47381 1.52312
 1.52945 1.59807 1.66222 1.69722 1.76326 1.82692 1.84380 1.92428 1.96932 1.99404
 2.08962 2.12272 2.14615 2.18906 2.19342 2.21027 2.27010 2.28110 2.32491 2.34463
 2.45285 2.46914 2.52152 2.52525 2.56286 2.68333 2.74861 2.74920 2.77116 2.81691
 2.82587 2.86151 2.88119 2.93256 2.94561 2.96123 3.04743 3.05494 3.11344 3.11839
 3.17392 3.19355 3.21352 3.23413 3.39677 3.40908 3.46101 3.50692 3.51857 3.53652
 3.60883 3.62924 3.67446 3.67700 3.73039 3.75906 3.77871 3.88380 3.98694 3.99002
 4.02975 4.14477 4.24016 4.30907 4.46669 4.48193 8.21601 8.33720 8.38645 9.24492
 9.24872 9.99368 12.39226 14.67053
 == 1321-th k-point (-0.22266,-0.22266,0.77932) occupation: 14==
 -65.00572 -65.00571 -4.62785 -4.62773 -3.03972 -3.03970 -3.03951 -3.03918 -3.03900 -3.03896
 -0.06456 0.02511 0.16106 0.20949 0.35089 0.43597 0.45007 0.53169 0.61192 0.63171
 0.70054 0.75273 0.77599 0.86004 0.97431 0.98122 1.01073 1.05794 1.06257 1.08967
 1.19548 1.24780 1.27066 1.27445 1.30578 1.36787 1.38582 1.44012 1.47050 1.54560
 1.58012 1.62470 1.66765 1.67445 1.72864 1.81111 1.87640 1.94727 1.96266 1.99476
 2.05770 2.10258 2.10991 2.16677 2.16781 2.26809 2.27478 2.27808 2.32558 2.34858
 2.42891 2.43257 2.50088 2.50585 2.53914 2.67411 2.68897 2.74657 2.78478 2.85071
 2.86330 2.89462 2.91370 2.95098 2.96230 3.00477 3.02415 3.05182 3.07584 3.12870
 3.16905 3.22781 3.24693 3.26429 3.35203 3.39789 3.41981 3.44659 3.50553 3.52268
 3.59292 3.62022 3.62421 3.65919 3.75509 3.76268 3.77925 3.86841 3.89768 3.94788
 4.04481 4.18224 4.25515 4.27783 4.51161 4.52580 8.14534 8.39228 8.41194 8.95261
 9.29815 9.88788 12.97046 14.54313
 == 1322-th k-point (-0.16700,-0.16700,0.72366) occupation: 14==
 -65.00572 -65.00572 -4.62783 -4.62775 -3.03973 -3.03971 -3.03946 -3.03923 -3.03899 -3.03896
 -0.05082 0.02835 0.13129 0.19240 0.33013 0.45162 0.50257 0.50391 0.62772 0.63355
 0.76038 0.76729 0.78428 0.93032 0.93537 0.95076 0.96788 1.01354 1.02123 1.12785
 1.15968 1.18111 1.20086 1.33540 1.33992 1.35580 1.36520 1.45292 1.50150 1.56317
 1.59991 1.62840 1.68844 1.69805 1.70682 1.81153 1.89803 1.91562 1.92714 2.01607
 2.02854 2.07819 2.09267 2.13444 2.18961 2.26532 2.28141 2.31782 2.32543 2.34527
 2.40246 2.43673 2.49556 2.54807 2.57191 2.60814 2.65808 2.75370 2.78823 2.81120
 2.84660 2.92469 2.93022 2.96603 2.98941 3.03228 3.05325 3.05386 3.06994 3.11792
 3.18100 3.24360 3.30067 3.31011 3.32432 3.34036 3.36950 3.43603 3.46896 3.48703
 3.55241 3.61385 3.67568 3.71020 3.72759 3.76387 3.80262 3.85865 3.89164 3.94354
 4.05607 4.22225 4.24548 4.28624 4.55200 4.57132 8.12270 8.40453 8.47097 8.79030
 9.38966 9.86584 13.22350 14.19570
 == 1323-th k-point (-0.11133,-0.11133,0.66799) occupation: 14==
 -65.00572 -65.00572 -4.62781 -4.62777 -3.03973 -3.03972 -3.03940 -3.03928 -3.03898 -3.03897
 -0.03327 0.01539 0.13169 0.17912 0.31359 0.38184 0.56717 0.57291 0.63771 0.64203
 0.77303 0.78216 0.83980 0.85009 0.87071 0.94809 0.99808 1.00008 1.05503 1.09518
 1.11828 1.13500 1.17554 1.23875 1.36976 1.40978 1.43867 1.47341 1.54715 1.56331
 1.61748 1.62334 1.68533 1.70301 1.74650 1.78851 1.83107 1.88171 1.92067 1.95525
 1.99680 2.08585 2.08947 2.21143 2.21333 2.24556 2.26044 2.32830 2.34092 2.36452
 2.40059 2.43262 2.49350 2.50392 2.56543 2.67564 2.68751 2.76097 2.77331 2.79272
 2.83112 2.89612 2.89873 2.95788 2.99524 3.00554 3.06462 3.07150 3.11502 3.11545
 3.21658 3.24436 3.25283 3.29252 3.29620 3.33295 3.35727 3.41645 3.46271 3.50303
 3.57648 3.62169 3.63766 3.68813 3.72754 3.73947 3.83285 3.90808 3.98105 3.99746
 4.13170 4.26074 4.29042 4.31100 4.58323 4.60880 8.16839 8.43515 8.56140 8.64813
 9.45952 10.01378 13.34337 13.62639
 == 1324-th k-point (-0.05567,-0.05567,0.61232) occupation: 14==
 -65.00572 -65.00572 -4.62779 -4.62779 -3.03973 -3.03973 -3.03934 -3.03932 -3.03898 -3.03897
 -0.01286 -0.00880 0.15437 0.17163 0.30479 0.32641 0.62497 0.63360 0.65584 0.66312
 0.76873 0.76915 0.76937 0.79222 0.93983 0.94906 1.00688 1.01237 1.02928 1.05898
 1.07770 1.09930 1.19604 1.22946 1.37363 1.41355 1.48834 1.53755 1.56298 1.58706
 1.61181 1.62639 1.69750 1.72593 1.73675 1.74047 1.82371 1.82400 1.88604 1.89707
 2.05406 2.07218 2.09615 2.12229 2.21669 2.23574 2.30647 2.30665 2.35891 2.40961
 2.42085 2.45713 2.49726 2.51764 2.51796 2.60369 2.72580 2.74723 2.76991 2.79197
 2.85704 2.87420 2.93868 2.96521 2.98778 3.03060 3.03213 3.03829 3.09537 3.12478
 3.22205 3.23958 3.24410 3.25181 3.27396 3.30133 3.40905 3.42808 3.51432 3.51526
 3.54093 3.54761 3.67211 3.68234 3.68323 3.73316 3.93112 3.96705 4.00061 4.04562
 4.24732 4.28581 4.34023 4.34127 4.60693 4.62057 8.28586 8.34469 8.62061 8.62640
 9.58256 9.83241 13.39202 13.40301
 == 1325-th k-point (0.00000,0.00000,0.55666) occupation: 14==
 -65.00572 -65.00572 -4.62781 -4.62777 -3.03973 -3.03973 -3.03938 -3.03929 -3.03898 -3.03898
 -0.03672 0.01497 0.17070 0.17070 0.29805 0.31021 0.62831 0.62831 0.70880 0.70880
 0.71370 0.72765 0.77496 0.77780 0.93688 0.96235 0.96235 0.99202 1.06577 1.06791
 1.06791 1.11299 1.21458 1.26118 1.37121 1.37121 1.50387 1.55009 1.55009 1.62465
 1.62947 1.63330 1.70633 1.71472 1.74679 1.74679 1.81944 1.81944 1.85378 1.86609
 2.04479 2.04479 2.10493 2.13668 2.13668 2.26094 2.26946 2.34316 2.37491 2.42094
 2.42094 2.45935 2.52246 2.52246 2.53817 2.54671 2.73002 2.74347 2.79347 2.79347
 2.87275 2.87275 2.95408 2.95766 2.97852 2.99730 3.04655 3.04655 3.05604 3.09661
 3.23073 3.23073 3.23191 3.29111 3.29111 3.30160 3.45489 3.45489 3.48942 3.49498
 3.56032 3.56032 3.59342 3.68262 3.72999 3.73393 3.93199 3.93199 3.99518 4.13853
 4.28292 4.28292 4.32040 4.37952 4.62004 4.62004 8.17123 8.48923 8.56845 8.56845
 9.81212 9.81212 13.38430 13.39783
 == 1326-th k-point (0.05567,0.05567,0.50099) occupation: 14==
 -65.00572 -65.00572 -4.62783 -4.62775 -3.03973 -3.03972 -3.03942 -3.03925 -3.03899 -3.03899
 -0.05821 0.04185 0.16053 0.17640 0.30724 0.33792 0.57792 0.57797 0.70356 0.70361
 0.71583 0.72213 0.81377 0.83995 0.85674 0.93125 0.95065 0.99301 1.06880 1.13065
 1.13990 1.17185 1.18645 1.26636 1.36382 1.37906 1.44761 1.51973 1.54810 1.57466
 1.63048 1.65580 1.72509 1.73239 1.76611 1.77744 1.80286 1.82920 1.86099 1.90831
 1.98870 2.04939 2.07633 2.15209 2.16826 2.21582 2.24812 2.36453 2.36775 2.39321
 2.43259 2.43574 2.51562 2.53276 2.59049 2.59314 2.69058 2.75957 2.82786 2.83321
 2.85084 2.88455 2.90583 2.93873 2.95012 2.98280 3.00686 3.01400 3.08387 3.15542
 3.22493 3.23757 3.25947 3.32124 3.33785 3.34697 3.40324 3.43984 3.51658 3.53153
 3.53922 3.55104 3.60193 3.69112 3.71275 3.74567 3.90473 3.92232 3.94886 4.13629
 4.20263 4.25246 4.29741 4.36459 4.61244 4.62053 8.07976 8.39313 8.42890 8.69884
 10.08440 10.23067 13.29470 13.40713
 == 1327-th k-point (0.11133,0.11133,0.44533) occupation: 14==
 -65.00572 -65.00571 -4.62785 -4.62773 -3.03972 -3.03971 -3.03947 -3.03921 -3.03900 -3.03898
 -0.07360 0.05813 0.15245 0.18823 0.32507 0.39675 0.50884 0.51621 0.68474 0.69840
 0.71070 0.71572 0.78015 0.85601 0.89891 0.95810 0.96531 1.00284 1.06734 1.10798
 1.20493 1.20759 1.22466 1.31470 1.34030 1.35690 1.44928 1.45174 1.51042 1.57459
 1.63554 1.64084 1.68312 1.68871 1.72607 1.80768 1.86654 1.90574 1.91936 1.96790
 1.98378 2.03454 2.09193 2.12576 2.14485 2.16435 2.22357 2.34341 2.36773 2.39021
 2.44961 2.47477 2.51696 2.56450 2.60278 2.60852 2.63616 2.76997 2.78940 2.82858
 2.83421 2.88448 2.90109 2.92957 2.94063 3.01586 3.02802 3.05893 3.09805 3.17115
 3.17902 3.22598 3.27541 3.33008 3.34304 3.36753 3.39663 3.46144 3.50406 3.51029
 3.56514 3.61410 3.64207 3.68281 3.69528 3.77739 3.85571 3.87381 3.92324 4.05994
 4.08841 4.20539 4.27448 4.31882 4.58586 4.58965 8.05115 8.25941 8.31251 8.91011
 10.15894 10.22564 13.17143 13.85073
 == 1328-th k-point (0.16700,0.16700,0.38966) occupation: 14==
 -65.00572 -65.00571 -4.62786 -4.62772 -3.03971 -3.03970 -3.03952 -3.03917 -3.03901 -3.03897
 -0.08250 0.05148 0.17351 0.20463 0.34704 0.44082 0.46097 0.47132 0.64177 0.68249
 0.70401 0.71012 0.74700 0.87465 0.93346 0.94627 1.00169 1.04515 1.07588 1.13953
 1.17975 1.24991 1.27876 1.29914 1.35487 1.36559 1.42263 1.43556 1.49774 1.55267
 1.58052 1.61809 1.67648 1.68501 1.74082 1.79403 1.90326 1.90333 1.96720 1.99152
 2.02756 2.03950 2.05065 2.13751 2.15082 2.19044 2.29394 2.32454 2.32776 2.36849
 2.43756 2.43756 2.51268 2.55061 2.62350 2.64740 2.71828 2.74643 2.78288 2.79636
 2.80206 2.86945 2.90156 2.91126 2.99515 3.01392 3.05487 3.07154 3.08935 3.09195
 3.15771 3.25388 3.30824 3.32034 3.36020 3.36458 3.40011 3.43778 3.52382 3.52699
 3.59018 3.62442 3.68175 3.70000 3.77760 3.78089 3.82236 3.82505 3.84611 3.98618
 4.06029 4.16018 4.25154 4.31122 4.54872 4.54913 8.03144 8.28015 8.30114 9.10670
 9.92606 10.08348 12.94522 14.42398
 == 1329-th k-point (0.22266,0.22266,0.33400) occupation: 14==
 -65.00572 -65.00571 -4.62786 -4.62772 -3.03970 -3.03969 -3.03956 -3.03913 -3.03901 -3.03898
 -0.08515 0.03612 0.21009 0.22169 0.35497 0.39713 0.41932 0.54826 0.59977 0.66391
 0.68712 0.71355 0.74295 0.82843 0.92724 0.98300 1.03530 1.08559 1.12759 1.14712
 1.20722 1.21336 1.28418 1.31288 1.33162 1.40928 1.41446 1.44158 1.46522 1.51579
 1.54720 1.60279 1.67122 1.71035 1.76041 1.81527 1.85346 1.92255 1.95097 1.98009
 2.00967 2.09065 2.13416 2.18093 2.19358 2.23705 2.26188 2.30771 2.33271 2.37588
 2.40803 2.42386 2.55294 2.56610 2.61481 2.64807 2.75118 2.77443 2.77808 2.80110
 2.80393 2.85293 2.87231 2.90935 2.94071 2.99816 3.06384 3.06949 3.08509 3.11842
 3.14105 3.19640 3.25178 3.26814 3.40631 3.44627 3.45783 3.47835 3.54196 3.54344
 3.60790 3.64266 3.67440 3.68288 3.74869 3.75859 3.81585 3.85197 3.96401 3.97882
 4.04014 4.12587 4.21577 4.34596 4.49198 4.50194 8.09236 8.28978 8.30014 9.33552
 9.78935 9.99684 12.36546 14.70555
 == 1330-th k-point (0.27833,0.27833,0.27833) occupation: 14==
 -65.00572 -65.00571 -4.62786 -4.62772 -3.03969 -3.03969 -3.03958 -3.03911 -3.03900 -3.03900
 -0.08231 0.02471 0.23116 0.23116 0.33409 0.40049 0.40049 0.55924 0.64769 0.64769
 0.67887 0.72244 0.72244 0.76674 0.95635 1.04572 1.04572 1.06217 1.13508 1.13508
 1.21748 1.26309 1.26309 1.30866 1.30866 1.37516 1.41441 1.48948 1.48948 1.50708
 1.50708 1.58391 1.63017 1.66155 1.87476 1.87476 1.88799 1.90265 1.90265 1.92065
 2.08634 2.08634 2.16694 2.22011 2.22011 2.26676 2.26676 2.26803 2.33856 2.33856
 2.43586 2.43586 2.57925 2.57925 2.59509 2.65723 2.76424 2.79606 2.79606 2.80089
 2.80597 2.80815 2.80815 2.87851 2.97966 3.00999 3.06672 3.06672 3.09839 3.09839
 3.15659 3.15659 3.26786 3.26786 3.31310 3.46646 3.46646 3.54939 3.55029 3.55029
 3.56073 3.67018 3.67018 3.69010 3.73979 3.76267 3.91413 3.91413 3.98827 3.98827
 4.12570 4.12619 4.12619 4.35330 4.45193 4.45193 8.23143 8.23143 8.27985 9.51828
 9.51828 10.00882 11.94999 14.74135
 ---------------------------------------------------------------------------
 VBM is at 665-th k-point with 7.49059 eV
 CBM is at 605-th k-point with 8.11029 eV
 Band gap is 0.61969 eV


           Ground-State Mulliken Net Atomic Charges

      Atom                 Charge (a.u.)          Spin (a.u.)
   --------------------------------------------------------
      1 Si                (0.000000,0.000000)    (0.000000,0.000000)
      2 Si              (-0.000000,-0.000000)    (0.000000,0.000000)
   --------------------------------------------------------
  Sum of atomic charges =     (-0.000000,-0.000000)
  Sum of spin   charges =       (0.000000,0.000000)



 Total job time:  1586.86 s.
 Tue Sep  9 06:40:57 2025


        *************************************************************
        *                                                           *
        *  Thank you very much for using QCPBC. Have a nice day.    *
        *                                                           *
        *************************************************************

Running job 1 of 1
