                  Welcome to Q-Chem
           with Periodic Boundary Condition
     A Quantum Leap Into The Future Of Chemistry

 Adam Rettig, Xintian Feng, Meng-Fu Chen, Hieu Dinh, Stephen Quiton,
 Anton Ni, Paul J. Robinson, Jinghong Zhang, Joonho Lee

Contributors to earlier versions of Q-Chem not listed above:
 Evgeny Epifanovsky, Leo Cunha, Jerome F. Gonthier, Kuan-Yu Liu
 Input file: /n/netscratch/joonholee_lab/Lab/hieudinh//si_2_ccpvqz_omega_0.3_333.scratch20250909025853/si_2_ccpvqz_omega_0.3_333.0
 Scratch folder: /n/netscratch/joonholee_lab/Lab/hieudinh//si_2_ccpvqz_omega_0.3_333.scratch20250909025853
 Auxillary files located at: /n/holylabs/LABS/joonholee_lab/Lab/qchem_base/qcaux
 Q-Chem begins on Tue Sep  9 02:58:54 2025

 -------------------------------------------------------------
 User input:
 -------------------------------------------------------------
 $lattice
 3
 0.000000 5.130600 5.130600
 5.130600 0.000000 5.130600
 5.130600 5.130600 0.000000
 $end
 
 $unitcell
 ABSOLUTE
 0 1
 Si 0.000000 0.000000 0.000000
 Si 2.565300 2.565300 2.565300
 $end
 
 $rem
 jobtype = sp
 method = pbe
 scf_convergence = 5
 scf_guess = autosad
 scf_algorithm = diis_gdm
 basis = cc-pvqz
 aux_basis = cc-pvqz-jk
 input_bohr = true
 symmetry = false
 rsdf_print_level 1
 is_basis_uctr true
 
 mp_mesh = [3,3,3]
 
 integral_direct true
 bvk_cgto true
 
 thresh 14
 mem_total 1000000
 threads 32
 
 MAX_SCF_CYCLES 500
 madelung = false
 omega 0.3
 do_rij_bigmem true
 automate_g true
 print_level 10
 grid_type_xc 1
 
 thresh_1e2c_sp 1e-14
 thresh_2e3c_bra_ket_sep 1e-10
 thresh_g 1e-12
 $end
 
 -------------------------------------------------------------
 Running PBC job

 Requested Exchange Correlation Functionals: 
  DFT Exchange:  1.00000 pbe_x
  DFT Correlation:  1.00000 pbe_c
 using 32 threads for computing.
 ---------------------------------------------------------------
      Coordinates of Atoms in Central Unit Cell (Angstroms)
    I     Atom         X            Y            Z
 ---------------------------------------------------------------
    1      Si      0.000000     0.000000     0.000000
    2      Si      1.357498     1.357498     1.357498
 ---------------------------------------------------------------
 --------------------------------------------------
              Lattice Vectors (Angstroms)
              X            Y            Z
 --------------------------------------------------
   X       0.000000     2.714997     2.714997
   Y       2.714997     0.000000     2.714997
   Z       2.714997     2.714997     0.000000
 --------------------------------------------------
 --------------------------------------------------
       Reciprocal Lattice Vectors (Angstroms^-1)
              X            Y            Z
 --------------------------------------------------
   X      -1.157126     1.157126     1.157126
   Y       1.157126    -1.157126     1.157126
   Z       1.157126     1.157126    -1.157126
 --------------------------------------------------

 Single point calculation requested

 Hamiltonian contributions:
 List of terms in Hamiltonian: kpts_nn, kpts_kinetic, kpts_vnuc_df, kpts_xc, kpts_rij_bigmem

 K-Points calculation started.

 Basis set information about using solid harmonic (1) or Cartesian (0):
  si : D(1) D(1) D(1) F(1) F(1) G(1) 

 Basis set information about using solid harmonic (1) or Cartesian (0):
  si : D(1) D(1) D(1) D(1) D(1) D(1) D(1) D(1) D(1) F(1) F(1) F(1) F(1) G(1) G(1) H(1) 

 There are 118 basis functions in the central unit cell.
 Print atomic basis of atoms in the central unit cell:
 -------------------------------------------------------------
2 66 134 28

  0.00000000000000e+00  0.00000000000000e+00  0.00000000000000e+00
  2.56530000000000e+00  2.56530000000000e+00  2.56530000000000e+00

  5.13000000000000e+05
  7.68200000000000e+04
  1.74700000000000e+04
  4.93500000000000e+03
  1.60200000000000e+03
  5.74100000000000e+02
  2.21500000000000e+02
  9.05400000000000e+01
  3.87400000000000e+01
  1.69500000000000e+01
  6.45200000000000e+00
  2.87400000000000e+00
  1.25000000000000e+00
  3.59900000000000e-01
  1.69900000000000e-01
  7.06600000000000e-02
  1.12200000000000e+03
  2.66000000000000e+02
  8.59200000000000e+01
  3.23300000000000e+01
  1.33700000000000e+01
  5.80000000000000e+00
  2.55900000000000e+00
  1.12400000000000e+00
  3.98800000000000e-01
  1.53300000000000e-01
  5.72800000000000e-02
  7.60000000000000e-01
  3.02000000000000e-01
  1.20000000000000e-01
  5.41000000000000e-01
  2.12000000000000e-01
  4.61000000000000e-01
  5.13000000000000e+05
  7.68200000000000e+04
  1.74700000000000e+04
  4.93500000000000e+03
  1.60200000000000e+03
  5.74100000000000e+02
  2.21500000000000e+02
  9.05400000000000e+01
  3.87400000000000e+01
  1.69500000000000e+01
  6.45200000000000e+00
  2.87400000000000e+00
  1.25000000000000e+00
  3.59900000000000e-01
  1.69900000000000e-01
  7.06600000000000e-02
  1.12200000000000e+03
  2.66000000000000e+02
  8.59200000000000e+01
  3.23300000000000e+01
  1.33700000000000e+01
  5.80000000000000e+00
  2.55900000000000e+00
  1.12400000000000e+00
  3.98800000000000e-01
  1.53300000000000e-01
  5.72800000000000e-02
  7.60000000000000e-01
  3.02000000000000e-01
  1.20000000000000e-01
  5.41000000000000e-01
  2.12000000000000e-01
  4.61000000000000e-01

  3.56439732356011e-01
  6.67250935594825e-01
  1.15567538346971e+00
  1.89079471139597e+00
  2.92997535092854e+00
  4.25377897422013e+00
  5.53035652706994e+00
  5.88407857713363e+00
  4.26432221020809e+00
  1.46246852660687e+00
  9.90009037975635e-02
 -5.26805361731285e-03
  1.58075269248041e-03
 -9.63604858609034e-02
 -1.80140685379119e-01
 -3.12991611081079e-01
 -5.12013980868736e-01
 -8.03092560139717e-01
 -1.18597193899895e+00
 -1.63453354628192e+00
 -1.94138718043020e+00
 -1.86039340932271e+00
 -9.21642524314205e-01
  4.93552860211257e-01
  9.09065541611183e-01
  3.40430003714153e-01
  4.89002727192571e-02
  9.13245846186842e-02
  1.58921585782757e-01
  2.59526822498432e-01
  4.08347517411705e-01
  6.02266139654795e-01
  8.36774006155092e-01
  9.98775610751853e-01
  9.86583994360998e-01
  5.01500269670235e-01
 -2.91439000418814e-01
 -6.84883633703988e-01
 -4.85138432421684e-01
  3.31166560285492e-01
  1.88605835767988e-01
  9.76765512168845e-02
  4.17977074735086e+00
  5.88843070847456e+00
  7.44317185052013e+00
  8.05001094515016e+00
  6.97099017282640e+00
  4.33955185260449e+00
  1.76355858703549e+00
  3.34437932089088e-01
 -4.09551658476811e+00
 -5.70145272051300e+00
 -7.35388974061730e+00
 -7.93663059323219e+00
 -7.17813870370958e+00
 -4.42768957771269e+00
 -2.05517820096269e+00
 -1.72105843348797e-01
  4.51735295769850e-01
  1.36731249153695e-01
  3.99432914781939e-02
  1.01820035164008e+00
  2.02498404800701e-01
  4.02695370421242e-02
  3.69528803814005e-01
  4.48962571437413e-02
  1.32316184864580e-01
  3.56439732356011e-01
  6.67250935594825e-01
  1.15567538346971e+00
  1.89079471139597e+00
  2.92997535092854e+00
  4.25377897422013e+00
  5.53035652706994e+00
  5.88407857713363e+00
  4.26432221020809e+00
  1.46246852660687e+00
  9.90009037975635e-02
 -5.26805361731285e-03
  1.58075269248041e-03
 -9.63604858609034e-02
 -1.80140685379119e-01
 -3.12991611081079e-01
 -5.12013980868736e-01
 -8.03092560139717e-01
 -1.18597193899895e+00
 -1.63453354628192e+00
 -1.94138718043020e+00
 -1.86039340932271e+00
 -9.21642524314205e-01
  4.93552860211257e-01
  9.09065541611183e-01
  3.40430003714153e-01
  4.89002727192571e-02
  9.13245846186842e-02
  1.58921585782757e-01
  2.59526822498432e-01
  4.08347517411705e-01
  6.02266139654795e-01
  8.36774006155092e-01
  9.98775610751853e-01
  9.86583994360998e-01
  5.01500269670235e-01
 -2.91439000418814e-01
 -6.84883633703988e-01
 -4.85138432421684e-01
  3.31166560285492e-01
  1.88605835767988e-01
  9.76765512168845e-02
  4.17977074735086e+00
  5.88843070847456e+00
  7.44317185052013e+00
  8.05001094515016e+00
  6.97099017282640e+00
  4.33955185260449e+00
  1.76355858703549e+00
  3.34437932089088e-01
 -4.09551658476811e+00
 -5.70145272051300e+00
 -7.35388974061730e+00
 -7.93663059323219e+00
 -7.17813870370958e+00
 -4.42768957771269e+00
 -2.05517820096269e+00
 -1.72105843348797e-01
  4.51735295769850e-01
  1.36731249153695e-01
  3.99432914781939e-02
  1.01820035164008e+00
  2.02498404800701e-01
  4.02695370421242e-02
  3.69528803814005e-01
  4.48962571437413e-02
  1.32316184864580e-01

0 0 0 0 3 3 3
0 0 13 0 26 0 
13 0

0 3 3 13 1 1 1
39 0 
1 0

0 4 4 14 1 1 1
40 0 
1 0

0 5 5 15 1 1 1
41 0 
1 0

0 6 6 16 2 6 6
42 1 50 1 
8 0

0 12 12 24 1 3 3
58 1 
1 0

0 15 15 25 1 3 3
59 1 
1 0

0 18 18 26 1 3 3
60 1 
1 0

0 21 21 27 1 5 6
61 2 
1 1

0 26 26 28 1 5 6
62 2 
1 1

0 31 31 29 1 5 6
63 2 
1 1

0 36 36 30 1 7 10
64 3 
1 1

0 43 43 31 1 7 10
65 3 
1 1

0 50 50 32 1 9 15
66 4 
1 1

1 59 59 33 3 3 3
67 0 80 0 93 0 
13 0

1 62 62 46 1 1 1
106 0 
1 0

1 63 63 47 1 1 1
107 0 
1 0

1 64 64 48 1 1 1
108 0 
1 0

1 65 65 49 2 6 6
109 1 117 1 
8 0

1 71 71 57 1 3 3
125 1 
1 0

1 74 74 58 1 3 3
126 1 
1 0

1 77 77 59 1 3 3
127 1 
1 0

1 80 80 60 1 5 6
128 2 
1 1

1 85 85 61 1 5 6
129 2 
1 1

1 90 90 62 1 5 6
130 2 
1 1

1 95 95 63 1 7 10
131 3 
1 1

1 102 102 64 1 7 10
132 3 
1 1

1 109 109 65 1 9 15
133 4 
1 1

 -------------------------------------------------------------
 Allocate 265256 B from available memory: 1048576000000 B
 There are 2197 image cells after screening.
 There are 2061 image cells for CGTO evaluation after screening.
 Real-Space grid for FFT initialized based on kinetic energy cutoff (eV) = 500.0
 Real-Space grid for FFT: (10,10,10)
 There are 9261 real-space grid points.
 There are 64 batches of real-space grid points. 
 Size of each grid batch is around 128
 Grid for AFT initialized based on kinetic energy cutoff (eV) = 500.0
 Real-Space grid for AFT: (10,10,10)
 There are 9261 real-space grid points.

 There are 5628 atom-centered grid points.

 Spacegroup symmetry group: Fd-3m
 Reducing spacegroup symmetry to symmorphic group: F -4 3 m
 Monkhorst-Pack mesh is [3,3,3]
 There are 27 k points.
kpoints in Bohr
-0.2041082040 -0.2041082040 -0.2041082040
-0.0000000000 -0.0000000000 -0.4082164079
0.2041082040 0.2041082040 -0.6123246119
-0.0000000000 -0.4082164079 0.0000000000
0.2041082040 -0.2041082040 -0.2041082040
0.4082164079 0.0000000000 -0.4082164079
0.2041082040 -0.6123246119 0.2041082040
0.4082164079 -0.4082164079 0.0000000000
0.6123246119 -0.2041082040 -0.2041082040
-0.4082164079 -0.0000000000 -0.0000000000
-0.2041082040 0.2041082040 -0.2041082040
0.0000000000 0.4082164079 -0.4082164079
-0.2041082040 -0.2041082040 0.2041082040
0.0000000000 0.0000000000 0.0000000000
0.2041082040 0.2041082040 -0.2041082040
-0.0000000000 -0.4082164079 0.4082164079
0.2041082040 -0.2041082040 0.2041082040
0.4082164079 0.0000000000 0.0000000000
-0.6123246119 0.2041082040 0.2041082040
-0.4082164079 0.4082164079 -0.0000000000
-0.2041082040 0.6123246119 -0.2041082040
-0.4082164079 0.0000000000 0.4082164079
-0.2041082040 0.2041082040 0.2041082040
0.0000000000 0.4082164079 0.0000000000
-0.2041082040 -0.2041082040 0.6123246119
0.0000000000 0.0000000000 0.4082164079
0.2041082040 0.2041082040 0.2041082040
 There are 14 alpha and 14 beta electrons
 Start computing overlap matrix
 Allocate 6015168 B from available memory: 1048575734752 B
 Time for computing overlap matrix: 3.8060000000 s
 ====== Initialize compute kernels for all-electron RI-J (kpts) ====== 
 ========================================================== 
 Range-separated parameter omega        = 0.299999999999999989
 Threshold for 1e2c shellpair           = 0.000000000000010000
 Threshold for 2e2c SR integral         = 0.000000000000000001
 Threshold for 2e3c SR integral         = 0.000000000100000000
 Threshold for AFT G-space screening is = 0.000000000001000000
 The exponent cutoff for C/D classification (omega2 / 2) is  = 0.044999999999999998
 ========================================================== 
 === Post process the basis set for RI calculation (exp_cutoff = 0.044999999999999998 ) === 
nshells_b1 before uncontraction = 28
nshells_b1 after uncontraction = 28
nshells_baux before uncontraction = 80
nshells_baux after uncontraction = 80
===============================================
nbsf total   = 118
nbsf compact = 118
nbsf diffuse = 0
naux total   = 296
naux compact = 296
naux diffuse = 0
nshells_bnuc = 2

 Number of unique atoms is 1
 Unique atom #0 (si) has 14 shells.

Shell 0 to 13 belongs to atom si
Shell 14 to 27 belongs to atom si

 Number of unique atom is 1
 Unique atom #0 (si) has 40 auxiliary shells.

Auxiliary Shell 0 to 39 belongs to atom si
Auxiliary Shell 40 to 79 belongs to atom si

================= Automatically determine grid size for reciprocal space summation =================
 Range-separated parameter = 0.30000000000000 and G-space screening threshold = 0.00000000000100
The number of grid points along each axis dimension is (4, 4, 4)
Total number of grid points = 729

Use nonortho shellpair for diffuse density
======== Initializing relevant kernel for RIJ (CC type) ========
There are 406 shellpairs in the reference unit cell
There are 3757 images and we expect to have 1525342 in total
There are 35954 shellpairs in the lattice sum after screening
****** AFT -> SR ******
Maximum bra distance cutoff is 30.000000000000
Maximum bra ket distance cutoff is 37.583407605466
Maximum bra ket screening distance is 30.187500000000
Number of auxiliary image is 1657
There are 406 shellpairs in the reference unit cell
There are 1031 images and we expect to have 418586 in total
There are 35954 shellpairs in the lattice sum after screening
Available memory per thread for 2e3c calculation is 32.767803737000Gb
Finish initializing 2e3c SR with the lattice sum!
=================================================
======== Initialize the SR component for Vnuc (CC type) ========
Maximum bra distance cutoff is 30.000000000000
Maximum bra ket distance cutoff is 31.203423477913
Maximum bra ket screening distance is 23.767099300136
Number of auxiliary image is 1097
There are 406 shellpairs in the reference unit cell
There are 1031 images and we expect to have 418586 in total
There are 35954 shellpairs in the lattice sum after screening
Available memory per thread for 2e3c calculation is 32.767803737000Gb
Finish initializing 2e3c SR with the lattice sum!
=================================================
 Aufbau occupation scheme, occupation determined by eigenvalue
 == 0-th k-point nmo = 114 (-0.20411,-0.20411,-0.20411) ==
 == 1-th k-point nmo = 114 (-0.00000,-0.00000,-0.40822) ==
 == 2-th k-point nmo = 114 (0.20411,0.20411,-0.61232) ==
 == 3-th k-point nmo = 114 (-0.00000,-0.40822,0.00000) ==
 == 4-th k-point nmo = 114 (0.20411,-0.20411,-0.20411) ==
 == 5-th k-point nmo = 114 (0.40822,0.00000,-0.40822) ==
 == 6-th k-point nmo = 114 (0.20411,-0.61232,0.20411) ==
 == 7-th k-point nmo = 114 (0.40822,-0.40822,0.00000) ==
 == 8-th k-point nmo = 114 (0.61232,-0.20411,-0.20411) ==
 == 9-th k-point nmo = 114 (-0.40822,-0.00000,-0.00000) ==
 == 10-th k-point nmo = 114 (-0.20411,0.20411,-0.20411) ==
 == 11-th k-point nmo = 114 (0.00000,0.40822,-0.40822) ==
 == 12-th k-point nmo = 114 (-0.20411,-0.20411,0.20411) ==
 == 13-th k-point nmo = 115 (0.00000,0.00000,0.00000) ==
 == 14-th k-point nmo = 114 (0.20411,0.20411,-0.20411) ==
 == 15-th k-point nmo = 114 (-0.00000,-0.40822,0.40822) ==
 == 16-th k-point nmo = 114 (0.20411,-0.20411,0.20411) ==
 == 17-th k-point nmo = 114 (0.40822,0.00000,0.00000) ==
 == 18-th k-point nmo = 114 (-0.61232,0.20411,0.20411) ==
 == 19-th k-point nmo = 114 (-0.40822,0.40822,-0.00000) ==
 == 20-th k-point nmo = 114 (-0.20411,0.61232,-0.20411) ==
 == 21-th k-point nmo = 114 (-0.40822,0.00000,0.40822) ==
 == 22-th k-point nmo = 114 (-0.20411,0.20411,0.20411) ==
 == 23-th k-point nmo = 114 (0.00000,0.40822,0.00000) ==
 == 24-th k-point nmo = 114 (-0.20411,-0.20411,0.61232) ==
 == 25-th k-point nmo = 114 (0.00000,0.00000,0.40822) ==
 == 26-th k-point nmo = 114 (0.20411,0.20411,0.20411) ==

 Generate autoSAD guess
backing up fragment data
Atom # 0: si, charge: 0, multiplicity: 3.000000
writing autosad to fragment context
Settings for isolated fragments: 
  frgm_gamma: TRUE
  frgm_center: FALSE

    Running SCF for isolated atom #0
    Fragment Input file: /n/netscratch/joonholee_lab/Lab/hieudinh//si_2_ccpvqz_omega_0.3_333.scratch20250909025853/autosad_frgmt_0/frgmt_input.in
    Fragment Output file: /n/netscratch/joonholee_lab/Lab/hieudinh//si_2_ccpvqz_omega_0.3_333.scratch20250909025853/autosad_frgmt_0/frgmt_job.out
    Fragment job begins at Tue Sep  9 02:59:01 2025

 Integrated density by DFT XC:
   Numerical integral  =    13.999999643759
   Relative error      =     0.0000025446 %
Final energy components:
 DFT Correlation            Energy =  -0.48370207231611
 DFT Exchange               Energy = -20.13940840112211
 Kinetic (alpha)            Energy = 145.05483363964743
 Kinetic (beta)             Energy = 143.11842945473265
 Nuclear Attraction (alpha) Energy = -351.06191315317830
 Nuclear Attraction (beta)  Energy = -337.54515075030412
 Nuclear Repulsion          Energy =   0.00000000000000
 SEOQF                      Energy =  -0.00000000010144
 Total Coulomb              Energy = 131.82731983024425
----------------------------------------------
    SCF Energy: -289.2295914524
   Total fragment job time:  0.56 s.
restoring fragment data

 ------------------------------------------------------------------------
 Allocate 18733840 B from available memory: 1048569719584 B
 Time for generating SCF guess: 0.58 s

 Allocate 97424 B from available memory: 1048550985760 B
 Selected algorithms for each term:
  kpts_kinetic -> @0x14d368789680
  kpts_nn -> @0x14d368789800
  kpts_rij_bigmem -> @0x14d3687893e0
  kpts_vnuc_df -> @0x14d368789380
  kpts_xc -> @0x14d3687892c0
 Time for computing kinetic matrix is 3.88 s
Start calculating Vnuc CC type!
 Time for computing nuclear attraction matrix is 4.84 s
Compute (P|Q) and use solve on the fly!
Maximum distance between P and Q is 36.52149537122924
Number of images for (P|Qn) is 1633
 Time for computing 2e2c SR integral is 0.19 s
Maximum dynamic memory per thread for 2e3c SR integrals: 0.077 GiB
Batch size for basis function pair is 7291 out of 7291
 === bvk cell = 0 has 100.000 % of the basis function pairs === 
 === bvk cell = 1 has 93.430 % of the basis function pairs === 
 === bvk cell = 2 has 90.111 % of the basis function pairs === 
 === bvk cell = 3 has 93.430 % of the basis function pairs === 
 === bvk cell = 4 has 68.221 % of the basis function pairs === 
 === bvk cell = 5 has 96.914 % of the basis function pairs === 
 === bvk cell = 6 has 90.111 % of the basis function pairs === 
 === bvk cell = 7 has 96.914 % of the basis function pairs === 
 === bvk cell = 8 has 65.519 % of the basis function pairs === 
 === bvk cell = 9 has 93.430 % of the basis function pairs === 
 === bvk cell = 10 has 68.221 % of the basis function pairs === 
 === bvk cell = 11 has 96.914 % of the basis function pairs === 
 === bvk cell = 12 has 68.221 % of the basis function pairs === 
 === bvk cell = 13 has 52.462 % of the basis function pairs === 
 === bvk cell = 14 has 79.756 % of the basis function pairs === 
 === bvk cell = 15 has 96.914 % of the basis function pairs === 
 === bvk cell = 16 has 79.756 % of the basis function pairs === 
 === bvk cell = 17 has 76.231 % of the basis function pairs === 
 === bvk cell = 18 has 90.111 % of the basis function pairs === 
 === bvk cell = 19 has 96.914 % of the basis function pairs === 
 === bvk cell = 20 has 65.519 % of the basis function pairs === 
 === bvk cell = 21 has 96.914 % of the basis function pairs === 
 === bvk cell = 22 has 79.756 % of the basis function pairs === 
 === bvk cell = 23 has 76.231 % of the basis function pairs === 
 === bvk cell = 24 has 65.519 % of the basis function pairs === 
 === bvk cell = 25 has 76.231 % of the basis function pairs === 
 === bvk cell = 26 has 52.462 % of the basis function pairs === 
Static memory requirement for 2e3c SR integrals: 0.355 GB
There are 1 munu batches for computing 2e3c SR integrals with latsum
There are 5 Q batches for computing 2e3c SR integrals with latsum
 Time for computing 2e3c SR integral (CC) is 10.37 s
 Time for RI-J this SCF iteration is 10.87 s
 Time for RI-J this SCF iteration is 0.26 s
 ----------------------------------------------
 Guess energy: -578.7701775934
 ----------------------------------------------
 Guess energy components:
 DFT Correlation    Energy =  -1.09244359133876
 DFT Exchange       Energy = -40.55203809799791
 Kinetic            Energy = 577.19573165887698
 Nuclear Attraction Energy = -1185.73146673194583
 Nuclear Repulsion  Energy = -102.89365928466421
 Total Coulomb      Energy = 174.30369845367184
 ----------------------------------------------
  Cycle       Energy         DIIS error
 ----------------------------------------------
 Time for RI-J this SCF iteration is 0.31 s
    1    -578.7720105951      6.14e-04  
 Energy components after cycle 1:
 DFT Correlation    Energy =  -1.09514602254365
 DFT Exchange       Energy = -40.50184533391666
 Kinetic            Energy = 576.75899402389507
 Nuclear Attraction Energy = -1184.75394425557033
 Nuclear Repulsion  Energy = -102.89365928466421
 Total Coulomb      Energy = 173.71359027771899
    2    -578.7720105951      2.50e-04  
 Energy components after cycle 2:
 DFT Correlation    Energy =  -1.09514602254365
 DFT Exchange       Energy = -40.50184533391666
 Kinetic            Energy = 576.75899402389507
 Nuclear Attraction Energy = -1184.75394425557033
 Nuclear Repulsion  Energy = -102.89365928466421
 Total Coulomb      Energy = 173.71359027771899
 ----------------------------------------------
  Cycle       Energy        RMS Gradient
 ----------------------------------------------
 Time for RI-J this SCF iteration is 0.27 s
    1    -578.7721999185      7.95e-03   Normal BFGS step
 Energy components after cycle 1:
 DFT Correlation    Energy =  -1.09438879529080
 DFT Exchange       Energy = -40.52637727686881
 Kinetic            Energy = 577.01508482367228
 Nuclear Attraction Energy = -1185.24834584961127
 Nuclear Repulsion  Energy = -102.89365928466421
 Total Coulomb      Energy = 173.97548646421552
 Time for RI-J this SCF iteration is 0.27 s
    2    -578.7722336987      2.75e-03   Normal BFGS step
 Energy components after cycle 2:
 DFT Correlation    Energy =  -1.09454746622682
 DFT Exchange       Energy = -40.51830484591427
 Kinetic            Energy = 576.92366903897221
 Nuclear Attraction Energy = -1185.08303081452186
 Nuclear Repulsion  Energy = -102.89365928466421
 Total Coulomb      Energy = 173.89363967360504
 Time for RI-J this SCF iteration is 0.26 s
    3    -578.7722337603      6.55e-05   Normal BFGS step
 Energy components after cycle 3:
 DFT Correlation    Energy =  -1.09456125650035
 DFT Exchange       Energy = -40.51862388160674
 Kinetic            Energy = 576.92889335837128
 Nuclear Attraction Energy = -1185.09011968356481
 Nuclear Repulsion  Energy = -102.89365928466421
 Total Coulomb      Energy = 173.89583698769556
 Time for RI-J this SCF iteration is 0.26 s
    4    -578.7722337646      1.96e-05   Normal BFGS step
 Energy components after cycle 4:
 DFT Correlation    Energy =  -1.09455810952904
 DFT Exchange       Energy = -40.51857043700079
 Kinetic            Energy = 576.92794985603689
 Nuclear Attraction Energy = -1185.08890496883782
 Nuclear Repulsion  Energy = -102.89365928466421
 Total Coulomb      Energy = 173.89550917937964
 Time for RI-J this SCF iteration is 0.26 s
    5    -578.7722337646      2.19e-07   Normal BFGS step
 Energy components after cycle 5:
 DFT Correlation    Energy =  -1.09455810514148
 DFT Exchange       Energy = -40.51857039990803
 Kinetic            Energy = 576.92794885374144
 Nuclear Attraction Energy = -1185.08890336332661
 Nuclear Repulsion  Energy = -102.89365928466421
 Total Coulomb      Energy = 173.89550853468268
    5    -578.7722337646      2.19e-07  Convergence criterion met
 ----------------------------------------------
 Final energy components:
 DFT Correlation    Energy =  -1.09455810514148
 DFT Exchange       Energy = -40.51857039990803
 Kinetic            Energy = 576.92794885374144
 Nuclear Attraction Energy = -1185.08890336332661
 Nuclear Repulsion  Energy = -102.89365928466421
 Total Coulomb      Energy = 173.89550853468268
 ----------------------------------------------
 Final energy is -578.7722337646

 SCF time:   CPU 1120.55s  wall 43.00s 
 Total wall time for computing Kinetic: 0.01 s (8)
 Total wall time for computing RIJ-BIGMEM: 12.76 s (8)
 Total wall time for computing RSDF Vnuc: 0.02 s (8)
 Total wall time for computing DFT XC: 12.71 s (8)
 ---------------------------------------------------------------------------
                        Orbital Energies (a.u.)
 ---------------------------------------------------------------------------
 == 0-th k-point (-0.20411,-0.20411,-0.20411) occupation: 14==
 -64.99834 -64.99833 -4.62148 -4.62129 -3.03317 -3.03317 -3.03309 -3.03260 -3.03251 -3.03251
 -0.11020 0.08220 0.24152 0.24152 0.34487 0.40801 0.40801 0.56688 0.57623 0.57623
 0.61450 0.77879 0.82438 0.82438 0.90582 0.93296 0.93296 1.09837 1.18751 1.18751
 1.22147 1.27895 1.27895 1.37499 1.37499 1.39698 1.41706 1.50858 1.50858 1.55109
 1.55109 1.64475 1.68324 1.73336 1.78607 1.78607 1.86761 1.86761 1.90336 1.93215
 1.97392 1.97392 2.08134 2.14503 2.14503 2.26205 2.26205 2.28422 2.28422 2.31565
 2.50403 2.50403 2.53700 2.59676 2.66236 2.67785 2.67785 2.73059 2.76863 2.76863
 2.86064 2.91880 2.91880 2.92822 2.97098 2.97098 3.07761 3.09048 3.09048 3.15727
 3.15727 3.23455 3.32781 3.34945 3.34945 3.47640 3.47640 3.52072 3.52072 3.52377
 3.53503 3.67523 3.67523 3.68096 3.80188 3.83330 3.83330 3.83851 3.90501 3.90501
 4.03641 4.03641 4.13028 4.52804 4.53517 4.53517 7.76284 7.92190 7.92190 9.42945
 9.42945 10.10553 11.90948 14.79694
 == 1-th k-point (-0.00000,-0.00000,-0.40822) occupation: 14==
 -64.99834 -64.99834 -4.62146 -4.62131 -3.03320 -3.03320 -3.03299 -3.03267 -3.03251 -3.03251
 -0.09083 0.09525 0.18867 0.18867 0.30513 0.35215 0.54793 0.54793 0.64286 0.64786
 0.75841 0.78302 0.78302 0.83831 0.88037 0.88037 0.88235 0.98957 1.14111 1.19813
 1.22531 1.22531 1.27746 1.31297 1.33008 1.35166 1.35166 1.60332 1.60718 1.60718
 1.62298 1.65102 1.71571 1.71571 1.77009 1.77142 1.77142 1.84159 1.88987 1.90993
 1.98653 1.98653 1.99706 2.15456 2.17128 2.17128 2.19230 2.36157 2.36157 2.37633
 2.41591 2.49134 2.55186 2.55186 2.63575 2.65091 2.65161 2.75506 2.75506 2.80133
 2.85747 2.87067 2.91147 2.91147 2.93646 3.01405 3.06789 3.06789 3.14545 3.24362
 3.24362 3.25409 3.25600 3.37753 3.38022 3.38022 3.44241 3.44744 3.47251 3.47251
 3.55394 3.56799 3.56799 3.68634 3.72574 3.79760 3.87089 3.87089 3.94396 4.14541
 4.16724 4.16724 4.24978 4.38479 4.61716 4.61716 8.04288 8.04570 8.04570 9.05796
 10.86855 10.86855 13.02875 13.34644
 == 2-th k-point (0.20411,0.20411,-0.61232) occupation: 14==
 -64.99834 -64.99834 -4.62142 -4.62135 -3.03323 -3.03320 -3.03294 -3.03273 -3.03247 -3.03244
 -0.04045 0.03018 0.11471 0.20006 0.33638 0.49432 0.51769 0.54097 0.55231 0.56529
 0.80913 0.82844 0.86103 0.86860 0.89736 0.93652 0.96543 1.02112 1.10904 1.11472
 1.13061 1.16581 1.26367 1.27984 1.30045 1.36940 1.37446 1.38416 1.58761 1.59576
 1.60089 1.65841 1.66454 1.68181 1.73082 1.75555 1.84120 1.91731 1.92717 2.05957
 2.07363 2.08036 2.16006 2.19249 2.22555 2.23466 2.24000 2.27453 2.31102 2.39314
 2.45661 2.46416 2.46768 2.49973 2.53628 2.58156 2.62146 2.76938 2.77026 2.84469
 2.88582 2.91622 2.95216 2.96022 3.01515 3.03788 3.04756 3.04835 3.11897 3.20236
 3.20911 3.27464 3.29127 3.32833 3.34417 3.35308 3.40526 3.40836 3.41012 3.45623
 3.47662 3.50338 3.65865 3.66681 3.75665 3.77714 3.80873 3.87724 3.90974 3.93425
 4.01303 4.20544 4.26392 4.26567 4.55014 4.58846 8.05831 8.44443 8.52942 8.81958
 8.90268 9.71833 13.28173 14.27271
 == 3-th k-point (-0.00000,-0.40822,0.00000) occupation: 14==
 -64.99834 -64.99834 -4.62146 -4.62131 -3.03320 -3.03320 -3.03299 -3.03267 -3.03251 -3.03251
 -0.09083 0.09525 0.18867 0.18867 0.30513 0.35215 0.54793 0.54793 0.64286 0.64786
 0.75841 0.78302 0.78302 0.83831 0.88037 0.88037 0.88235 0.98957 1.14111 1.19813
 1.22531 1.22531 1.27746 1.31297 1.33008 1.35166 1.35166 1.60332 1.60718 1.60718
 1.62298 1.65102 1.71571 1.71571 1.77009 1.77142 1.77142 1.84159 1.88987 1.90993
 1.98653 1.98653 1.99706 2.15456 2.17128 2.17128 2.19230 2.36157 2.36157 2.37633
 2.41591 2.49134 2.55186 2.55186 2.63575 2.65091 2.65161 2.75506 2.75506 2.80133
 2.85747 2.87067 2.91147 2.91147 2.93646 3.01405 3.06789 3.06789 3.14545 3.24362
 3.24362 3.25409 3.25600 3.37753 3.38022 3.38022 3.44241 3.44744 3.47251 3.47251
 3.55394 3.56799 3.56799 3.68634 3.72574 3.79760 3.87089 3.87089 3.94396 4.14541
 4.16724 4.16724 4.24978 4.38479 4.61716 4.61716 8.04288 8.04570 8.04570 9.05796
 10.86855 10.86855 13.02875 13.34644
 == 4-th k-point (0.20411,-0.20411,-0.20411) occupation: 14==
 -64.99834 -64.99833 -4.62148 -4.62129 -3.03317 -3.03317 -3.03309 -3.03260 -3.03251 -3.03251
 -0.11020 0.08220 0.24152 0.24152 0.34487 0.40801 0.40801 0.56688 0.57623 0.57623
 0.61450 0.77879 0.82438 0.82438 0.90582 0.93296 0.93296 1.09837 1.18751 1.18751
 1.22147 1.27895 1.27895 1.37499 1.37499 1.39698 1.41706 1.50858 1.50858 1.55109
 1.55109 1.64475 1.68324 1.73336 1.78607 1.78607 1.86761 1.86761 1.90336 1.93215
 1.97392 1.97392 2.08134 2.14503 2.14503 2.26205 2.26205 2.28422 2.28422 2.31565
 2.50403 2.50403 2.53700 2.59676 2.66236 2.67785 2.67785 2.73059 2.76863 2.76863
 2.86064 2.91880 2.91880 2.92822 2.97099 2.97099 3.07761 3.09048 3.09048 3.15727
 3.15727 3.23455 3.32781 3.34946 3.34946 3.47640 3.47640 3.52072 3.52072 3.52377
 3.53503 3.67523 3.67523 3.68096 3.80188 3.83330 3.83330 3.83851 3.90501 3.90501
 4.03641 4.03641 4.13028 4.52804 4.53518 4.53518 7.76284 7.92190 7.92190 9.42946
 9.42946 10.10553 11.90948 14.79694
 == 5-th k-point (0.40822,0.00000,-0.40822) occupation: 14==
 -64.99834 -64.99834 -4.62142 -4.62135 -3.03323 -3.03320 -3.03294 -3.03273 -3.03247 -3.03244
 -0.04045 0.03018 0.11471 0.20006 0.33638 0.49432 0.51769 0.54097 0.55231 0.56529
 0.80913 0.82844 0.86103 0.86860 0.89736 0.93652 0.96543 1.02112 1.10904 1.11472
 1.13061 1.16581 1.26367 1.27984 1.30045 1.36940 1.37446 1.38416 1.58761 1.59576
 1.60089 1.65841 1.66454 1.68181 1.73082 1.75555 1.84120 1.91731 1.92717 2.05957
 2.07363 2.08036 2.16006 2.19249 2.22555 2.23466 2.24000 2.27453 2.31102 2.39314
 2.45661 2.46416 2.46768 2.49973 2.53628 2.58156 2.62146 2.76938 2.77026 2.84469
 2.88582 2.91622 2.95216 2.96022 3.01515 3.03788 3.04756 3.04835 3.11897 3.20236
 3.20911 3.27464 3.29127 3.32833 3.34417 3.35308 3.40526 3.40836 3.41012 3.45623
 3.47662 3.50338 3.65865 3.66681 3.75665 3.77714 3.80873 3.87724 3.90974 3.93425
 4.01303 4.20544 4.26392 4.26567 4.55014 4.58846 8.05831 8.44443 8.52942 8.81958
 8.90268 9.71833 13.28173 14.27271
 == 6-th k-point (0.20411,-0.61232,0.20411) occupation: 14==
 -64.99834 -64.99834 -4.62142 -4.62135 -3.03323 -3.03320 -3.03294 -3.03273 -3.03247 -3.03244
 -0.04045 0.03018 0.11471 0.20006 0.33638 0.49432 0.51769 0.54097 0.55231 0.56529
 0.80913 0.82844 0.86103 0.86860 0.89736 0.93652 0.96543 1.02112 1.10904 1.11472
 1.13061 1.16581 1.26367 1.27984 1.30045 1.36940 1.37446 1.38416 1.58761 1.59576
 1.60089 1.65841 1.66454 1.68181 1.73082 1.75555 1.84120 1.91731 1.92717 2.05957
 2.07363 2.08036 2.16006 2.19249 2.22555 2.23466 2.24000 2.27453 2.31102 2.39314
 2.45661 2.46416 2.46768 2.49973 2.53628 2.58156 2.62146 2.76938 2.77026 2.84469
 2.88582 2.91622 2.95216 2.96022 3.01515 3.03788 3.04756 3.04835 3.11897 3.20236
 3.20911 3.27464 3.29127 3.32833 3.34417 3.35308 3.40526 3.40836 3.41012 3.45623
 3.47662 3.50338 3.65865 3.66681 3.75665 3.77714 3.80873 3.87724 3.90974 3.93425
 4.01303 4.20544 4.26392 4.26567 4.55014 4.58846 8.05831 8.44443 8.52942 8.81958
 8.90268 9.71833 13.28173 14.27271
 == 7-th k-point (0.40822,-0.40822,0.00000) occupation: 14==
 -64.99834 -64.99834 -4.62142 -4.62135 -3.03323 -3.03320 -3.03294 -3.03273 -3.03247 -3.03244
 -0.04045 0.03018 0.11471 0.20006 0.33638 0.49432 0.51769 0.54097 0.55231 0.56529
 0.80913 0.82844 0.86103 0.86860 0.89736 0.93652 0.96543 1.02112 1.10904 1.11472
 1.13061 1.16581 1.26367 1.27984 1.30045 1.36940 1.37446 1.38416 1.58761 1.59576
 1.60089 1.65841 1.66454 1.68181 1.73082 1.75555 1.84120 1.91731 1.92717 2.05957
 2.07363 2.08036 2.16006 2.19249 2.22555 2.23466 2.24000 2.27453 2.31102 2.39314
 2.45661 2.46416 2.46768 2.49973 2.53628 2.58156 2.62146 2.76938 2.77026 2.84469
 2.88582 2.91622 2.95216 2.96022 3.01515 3.03788 3.04756 3.04835 3.11897 3.20236
 3.20911 3.27464 3.29127 3.32833 3.34417 3.35308 3.40526 3.40836 3.41012 3.45623
 3.47662 3.50338 3.65865 3.66681 3.75665 3.77714 3.80873 3.87724 3.90974 3.93425
 4.01303 4.20544 4.26392 4.26567 4.55014 4.58846 8.05831 8.44443 8.52942 8.81958
 8.90268 9.71833 13.28173 14.27271
 == 8-th k-point (0.61232,-0.20411,-0.20411) occupation: 14==
 -64.99834 -64.99834 -4.62142 -4.62135 -3.03323 -3.03320 -3.03294 -3.03273 -3.03247 -3.03244
 -0.04045 0.03018 0.11471 0.20006 0.33638 0.49432 0.51769 0.54097 0.55231 0.56529
 0.80913 0.82844 0.86103 0.86860 0.89736 0.93652 0.96543 1.02112 1.10904 1.11472
 1.13061 1.16581 1.26367 1.27984 1.30045 1.36940 1.37446 1.38416 1.58761 1.59576
 1.60089 1.65841 1.66454 1.68181 1.73082 1.75555 1.84120 1.91731 1.92717 2.05957
 2.07363 2.08036 2.16006 2.19249 2.22555 2.23466 2.24000 2.27453 2.31102 2.39314
 2.45661 2.46416 2.46768 2.49973 2.53628 2.58156 2.62146 2.76938 2.77026 2.84469
 2.88582 2.91622 2.95216 2.96022 3.01515 3.03788 3.04756 3.04835 3.11897 3.20236
 3.20911 3.27464 3.29127 3.32833 3.34417 3.35308 3.40526 3.40836 3.41012 3.45623
 3.47662 3.50338 3.65865 3.66681 3.75665 3.77714 3.80873 3.87724 3.90974 3.93425
 4.01303 4.20544 4.26392 4.26567 4.55014 4.58846 8.05831 8.44443 8.52942 8.81958
 8.90268 9.71833 13.28173 14.27271
 == 9-th k-point (-0.40822,-0.00000,-0.00000) occupation: 14==
 -64.99834 -64.99834 -4.62146 -4.62131 -3.03320 -3.03320 -3.03299 -3.03267 -3.03251 -3.03251
 -0.09083 0.09525 0.18867 0.18867 0.30513 0.35215 0.54793 0.54793 0.64286 0.64786
 0.75841 0.78302 0.78302 0.83831 0.88037 0.88037 0.88235 0.98957 1.14111 1.19813
 1.22531 1.22531 1.27746 1.31297 1.33008 1.35166 1.35166 1.60332 1.60718 1.60718
 1.62298 1.65102 1.71571 1.71571 1.77009 1.77142 1.77142 1.84159 1.88987 1.90993
 1.98653 1.98653 1.99706 2.15456 2.17128 2.17128 2.19230 2.36157 2.36157 2.37633
 2.41591 2.49134 2.55186 2.55186 2.63575 2.65091 2.65161 2.75506 2.75506 2.80133
 2.85747 2.87067 2.91147 2.91147 2.93646 3.01405 3.06789 3.06789 3.14545 3.24362
 3.24362 3.25409 3.25600 3.37753 3.38022 3.38022 3.44241 3.44744 3.47251 3.47251
 3.55394 3.56799 3.56799 3.68634 3.72574 3.79760 3.87089 3.87089 3.94396 4.14541
 4.16724 4.16724 4.24978 4.38479 4.61716 4.61716 8.04288 8.04570 8.04570 9.05796
 10.86855 10.86855 13.02875 13.34644
 == 10-th k-point (-0.20411,0.20411,-0.20411) occupation: 14==
 -64.99834 -64.99833 -4.62148 -4.62129 -3.03317 -3.03317 -3.03309 -3.03260 -3.03251 -3.03251
 -0.11020 0.08220 0.24152 0.24152 0.34487 0.40801 0.40801 0.56688 0.57623 0.57623
 0.61450 0.77879 0.82438 0.82438 0.90582 0.93296 0.93296 1.09837 1.18751 1.18751
 1.22147 1.27895 1.27895 1.37499 1.37499 1.39698 1.41706 1.50858 1.50858 1.55109
 1.55109 1.64475 1.68324 1.73336 1.78607 1.78607 1.86761 1.86761 1.90336 1.93215
 1.97392 1.97392 2.08134 2.14503 2.14503 2.26205 2.26205 2.28422 2.28422 2.31565
 2.50403 2.50403 2.53700 2.59676 2.66236 2.67785 2.67785 2.73059 2.76863 2.76863
 2.86064 2.91880 2.91880 2.92822 2.97099 2.97099 3.07761 3.09048 3.09048 3.15727
 3.15727 3.23455 3.32781 3.34946 3.34946 3.47640 3.47640 3.52072 3.52072 3.52377
 3.53503 3.67523 3.67523 3.68096 3.80188 3.83330 3.83330 3.83851 3.90501 3.90501
 4.03641 4.03641 4.13028 4.52804 4.53518 4.53518 7.76284 7.92190 7.92190 9.42946
 9.42946 10.10553 11.90948 14.79694
 == 11-th k-point (0.00000,0.40822,-0.40822) occupation: 14==
 -64.99834 -64.99834 -4.62142 -4.62135 -3.03323 -3.03320 -3.03294 -3.03273 -3.03247 -3.03244
 -0.04045 0.03018 0.11471 0.20006 0.33638 0.49432 0.51769 0.54097 0.55231 0.56529
 0.80913 0.82844 0.86103 0.86860 0.89736 0.93652 0.96543 1.02112 1.10904 1.11472
 1.13061 1.16581 1.26367 1.27984 1.30045 1.36940 1.37446 1.38416 1.58761 1.59576
 1.60089 1.65841 1.66454 1.68181 1.73082 1.75555 1.84120 1.91731 1.92717 2.05957
 2.07363 2.08036 2.16006 2.19249 2.22555 2.23466 2.24000 2.27453 2.31102 2.39314
 2.45661 2.46416 2.46768 2.49973 2.53628 2.58156 2.62146 2.76938 2.77026 2.84469
 2.88582 2.91622 2.95216 2.96022 3.01515 3.03788 3.04756 3.04835 3.11897 3.20236
 3.20911 3.27464 3.29127 3.32833 3.34417 3.35308 3.40526 3.40836 3.41012 3.45623
 3.47662 3.50338 3.65865 3.66681 3.75665 3.77714 3.80873 3.87724 3.90974 3.93425
 4.01303 4.20544 4.26392 4.26567 4.55014 4.58846 8.05831 8.44443 8.52942 8.81958
 8.90268 9.71833 13.28173 14.27271
 == 12-th k-point (-0.20411,-0.20411,0.20411) occupation: 14==
 -64.99834 -64.99833 -4.62148 -4.62129 -3.03317 -3.03317 -3.03309 -3.03260 -3.03251 -3.03251
 -0.11020 0.08220 0.24152 0.24152 0.34487 0.40801 0.40801 0.56688 0.57623 0.57623
 0.61450 0.77879 0.82438 0.82438 0.90582 0.93296 0.93296 1.09837 1.18751 1.18751
 1.22147 1.27895 1.27895 1.37499 1.37499 1.39698 1.41706 1.50858 1.50858 1.55109
 1.55109 1.64475 1.68324 1.73336 1.78607 1.78607 1.86761 1.86761 1.90336 1.93215
 1.97392 1.97392 2.08134 2.14503 2.14503 2.26205 2.26205 2.28422 2.28422 2.31565
 2.50403 2.50403 2.53700 2.59676 2.66236 2.67785 2.67785 2.73059 2.76863 2.76863
 2.86064 2.91880 2.91880 2.92822 2.97099 2.97099 3.07761 3.09048 3.09048 3.15727
 3.15727 3.23455 3.32781 3.34946 3.34946 3.47640 3.47640 3.52072 3.52072 3.52377
 3.53503 3.67523 3.67523 3.68096 3.80188 3.83330 3.83330 3.83851 3.90501 3.90501
 4.03641 4.03641 4.13028 4.52804 4.53518 4.53518 7.76284 7.92190 7.92190 9.42946
 9.42946 10.10553 11.90948 14.79694
 == 13-th k-point (0.00000,0.00000,0.00000) occupation: 14==
 -64.99833 -64.99833 -4.62153 -4.62124 -3.03312 -3.03312 -3.03312 -3.03252 -3.03252 -3.03252
 -0.16097 0.27917 0.27917 0.27917 0.37243 0.37243 0.37243 0.40503 0.56841 0.56841
 0.56975 0.69186 0.69186 0.69186 0.84354 1.14561 1.14561 1.14561 1.19078 1.19078
 1.23702 1.23702 1.23702 1.35640 1.35640 1.35640 1.59261 1.59261 1.59261 1.73634
 1.73634 1.81322 1.81322 1.82769 1.84042 1.84042 1.84042 1.90474 1.90474 1.90474
 1.92410 1.93776 1.93776 1.93776 1.94540 1.94540 1.94540 2.14422 2.29651 2.29651
 2.29651 2.30783 2.30783 2.30784 2.39819 2.39819 2.39819 2.50460 2.89412 2.95179
 2.95179 2.95179 2.98151 2.98151 3.13093 3.13093 3.13094 3.18060 3.18060 3.18060
 3.19144 3.19144 3.34028 3.34028 3.34028 3.41100 3.41100 3.48622 3.48622 3.48622
 3.55062 3.55062 3.56030 3.63971 3.63971 3.63971 3.68611 3.68611 3.68611 4.07979
 4.25201 4.25201 4.25201 4.39506 4.39506 4.39506 4.43196 7.41702 7.41702 7.41702
 7.56440 7.56440 7.56440 11.12735 12.57045
 == 14-th k-point (0.20411,0.20411,-0.20411) occupation: 14==
 -64.99834 -64.99833 -4.62148 -4.62129 -3.03317 -3.03317 -3.03309 -3.03260 -3.03251 -3.03251
 -0.11020 0.08220 0.24152 0.24152 0.34487 0.40801 0.40801 0.56688 0.57623 0.57623
 0.61450 0.77879 0.82438 0.82438 0.90582 0.93296 0.93296 1.09837 1.18751 1.18751
 1.22147 1.27895 1.27895 1.37499 1.37499 1.39698 1.41706 1.50858 1.50858 1.55109
 1.55109 1.64475 1.68324 1.73336 1.78607 1.78607 1.86761 1.86761 1.90336 1.93215
 1.97392 1.97392 2.08134 2.14503 2.14503 2.26205 2.26205 2.28422 2.28422 2.31565
 2.50403 2.50403 2.53700 2.59676 2.66236 2.67785 2.67785 2.73059 2.76863 2.76863
 2.86064 2.91880 2.91880 2.92822 2.97099 2.97099 3.07761 3.09048 3.09048 3.15727
 3.15727 3.23455 3.32781 3.34946 3.34946 3.47640 3.47640 3.52072 3.52072 3.52377
 3.53503 3.67523 3.67523 3.68096 3.80188 3.83330 3.83330 3.83851 3.90501 3.90501
 4.03641 4.03641 4.13028 4.52804 4.53518 4.53518 7.76284 7.92190 7.92190 9.42946
 9.42946 10.10553 11.90948 14.79694
 == 15-th k-point (-0.00000,-0.40822,0.40822) occupation: 14==
 -64.99834 -64.99834 -4.62142 -4.62135 -3.03323 -3.03320 -3.03294 -3.03273 -3.03247 -3.03244
 -0.04045 0.03018 0.11471 0.20006 0.33638 0.49432 0.51769 0.54097 0.55231 0.56529
 0.80913 0.82844 0.86103 0.86860 0.89736 0.93652 0.96543 1.02112 1.10904 1.11472
 1.13061 1.16581 1.26367 1.27984 1.30045 1.36940 1.37446 1.38416 1.58761 1.59576
 1.60089 1.65841 1.66454 1.68181 1.73082 1.75555 1.84120 1.91731 1.92717 2.05957
 2.07363 2.08036 2.16006 2.19249 2.22555 2.23466 2.24000 2.27453 2.31102 2.39314
 2.45661 2.46416 2.46768 2.49973 2.53628 2.58156 2.62146 2.76938 2.77026 2.84469
 2.88582 2.91622 2.95216 2.96022 3.01515 3.03788 3.04756 3.04835 3.11897 3.20236
 3.20911 3.27464 3.29127 3.32833 3.34417 3.35308 3.40526 3.40836 3.41012 3.45623
 3.47662 3.50338 3.65865 3.66681 3.75665 3.77714 3.80873 3.87724 3.90974 3.93425
 4.01303 4.20544 4.26392 4.26567 4.55014 4.58846 8.05831 8.44443 8.52942 8.81958
 8.90268 9.71833 13.28173 14.27271
 == 16-th k-point (0.20411,-0.20411,0.20411) occupation: 14==
 -64.99834 -64.99833 -4.62148 -4.62129 -3.03317 -3.03317 -3.03309 -3.03260 -3.03251 -3.03251
 -0.11020 0.08220 0.24152 0.24152 0.34487 0.40801 0.40801 0.56688 0.57623 0.57623
 0.61450 0.77879 0.82438 0.82438 0.90582 0.93296 0.93296 1.09837 1.18751 1.18751
 1.22147 1.27895 1.27895 1.37499 1.37499 1.39698 1.41706 1.50858 1.50858 1.55109
 1.55109 1.64475 1.68324 1.73336 1.78607 1.78607 1.86761 1.86761 1.90336 1.93215
 1.97392 1.97392 2.08134 2.14503 2.14503 2.26205 2.26205 2.28422 2.28422 2.31565
 2.50403 2.50403 2.53700 2.59676 2.66236 2.67785 2.67785 2.73059 2.76863 2.76863
 2.86064 2.91880 2.91880 2.92822 2.97099 2.97099 3.07761 3.09048 3.09048 3.15727
 3.15727 3.23455 3.32781 3.34946 3.34946 3.47640 3.47640 3.52072 3.52072 3.52377
 3.53503 3.67523 3.67523 3.68096 3.80188 3.83330 3.83330 3.83851 3.90501 3.90501
 4.03641 4.03641 4.13028 4.52804 4.53518 4.53518 7.76284 7.92190 7.92190 9.42946
 9.42946 10.10553 11.90948 14.79694
 == 17-th k-point (0.40822,0.00000,0.00000) occupation: 14==
 -64.99834 -64.99834 -4.62146 -4.62131 -3.03320 -3.03320 -3.03299 -3.03267 -3.03251 -3.03251
 -0.09083 0.09525 0.18867 0.18867 0.30513 0.35215 0.54793 0.54793 0.64286 0.64786
 0.75841 0.78302 0.78302 0.83831 0.88037 0.88037 0.88235 0.98957 1.14111 1.19813
 1.22531 1.22531 1.27746 1.31297 1.33008 1.35166 1.35166 1.60332 1.60718 1.60718
 1.62298 1.65102 1.71571 1.71571 1.77009 1.77142 1.77142 1.84159 1.88987 1.90993
 1.98653 1.98653 1.99706 2.15456 2.17128 2.17128 2.19230 2.36157 2.36157 2.37633
 2.41591 2.49134 2.55186 2.55186 2.63575 2.65091 2.65161 2.75506 2.75506 2.80133
 2.85747 2.87067 2.91147 2.91147 2.93646 3.01405 3.06789 3.06789 3.14545 3.24362
 3.24362 3.25409 3.25600 3.37753 3.38022 3.38022 3.44241 3.44744 3.47251 3.47251
 3.55394 3.56799 3.56799 3.68634 3.72574 3.79760 3.87089 3.87089 3.94396 4.14541
 4.16724 4.16724 4.24978 4.38479 4.61716 4.61716 8.04288 8.04570 8.04570 9.05796
 10.86855 10.86855 13.02875 13.34644
 == 18-th k-point (-0.61232,0.20411,0.20411) occupation: 14==
 -64.99834 -64.99834 -4.62142 -4.62135 -3.03323 -3.03320 -3.03294 -3.03273 -3.03247 -3.03244
 -0.04045 0.03018 0.11471 0.20006 0.33638 0.49432 0.51769 0.54097 0.55231 0.56529
 0.80913 0.82844 0.86103 0.86860 0.89736 0.93652 0.96543 1.02112 1.10904 1.11472
 1.13061 1.16581 1.26367 1.27984 1.30045 1.36940 1.37446 1.38416 1.58761 1.59576
 1.60089 1.65841 1.66454 1.68181 1.73082 1.75555 1.84120 1.91731 1.92717 2.05957
 2.07363 2.08036 2.16006 2.19249 2.22555 2.23466 2.24000 2.27453 2.31102 2.39314
 2.45661 2.46416 2.46768 2.49973 2.53628 2.58156 2.62146 2.76938 2.77026 2.84469
 2.88582 2.91622 2.95216 2.96022 3.01515 3.03788 3.04756 3.04835 3.11897 3.20236
 3.20911 3.27464 3.29127 3.32833 3.34417 3.35308 3.40526 3.40836 3.41012 3.45623
 3.47662 3.50338 3.65865 3.66681 3.75665 3.77714 3.80873 3.87724 3.90974 3.93425
 4.01303 4.20544 4.26392 4.26567 4.55014 4.58846 8.05831 8.44443 8.52942 8.81958
 8.90268 9.71833 13.28173 14.27271
 == 19-th k-point (-0.40822,0.40822,-0.00000) occupation: 14==
 -64.99834 -64.99834 -4.62142 -4.62135 -3.03323 -3.03320 -3.03294 -3.03273 -3.03247 -3.03244
 -0.04045 0.03018 0.11471 0.20006 0.33638 0.49432 0.51769 0.54097 0.55231 0.56529
 0.80913 0.82844 0.86103 0.86860 0.89736 0.93652 0.96543 1.02112 1.10904 1.11472
 1.13061 1.16581 1.26367 1.27984 1.30045 1.36940 1.37446 1.38416 1.58761 1.59576
 1.60089 1.65841 1.66454 1.68181 1.73082 1.75555 1.84120 1.91731 1.92717 2.05957
 2.07363 2.08036 2.16006 2.19249 2.22555 2.23466 2.24000 2.27453 2.31102 2.39314
 2.45661 2.46416 2.46768 2.49973 2.53628 2.58156 2.62146 2.76938 2.77026 2.84469
 2.88582 2.91622 2.95216 2.96022 3.01515 3.03788 3.04756 3.04835 3.11897 3.20236
 3.20911 3.27464 3.29127 3.32833 3.34417 3.35308 3.40526 3.40836 3.41012 3.45623
 3.47662 3.50338 3.65865 3.66681 3.75665 3.77714 3.80873 3.87724 3.90974 3.93425
 4.01303 4.20544 4.26392 4.26567 4.55014 4.58846 8.05831 8.44443 8.52942 8.81958
 8.90268 9.71833 13.28173 14.27271
 == 20-th k-point (-0.20411,0.61232,-0.20411) occupation: 14==
 -64.99834 -64.99834 -4.62142 -4.62135 -3.03323 -3.03320 -3.03294 -3.03273 -3.03247 -3.03244
 -0.04045 0.03018 0.11471 0.20006 0.33638 0.49432 0.51769 0.54097 0.55231 0.56529
 0.80913 0.82844 0.86103 0.86860 0.89736 0.93652 0.96543 1.02112 1.10904 1.11472
 1.13061 1.16581 1.26367 1.27984 1.30045 1.36940 1.37446 1.38416 1.58761 1.59576
 1.60089 1.65841 1.66454 1.68181 1.73082 1.75555 1.84120 1.91731 1.92717 2.05957
 2.07363 2.08036 2.16006 2.19249 2.22555 2.23466 2.24000 2.27453 2.31102 2.39314
 2.45661 2.46416 2.46768 2.49973 2.53628 2.58156 2.62146 2.76938 2.77026 2.84469
 2.88582 2.91622 2.95216 2.96022 3.01515 3.03788 3.04756 3.04835 3.11897 3.20236
 3.20911 3.27464 3.29127 3.32833 3.34417 3.35308 3.40526 3.40836 3.41012 3.45623
 3.47662 3.50338 3.65865 3.66681 3.75665 3.77714 3.80873 3.87724 3.90974 3.93425
 4.01303 4.20544 4.26392 4.26567 4.55014 4.58846 8.05831 8.44443 8.52942 8.81958
 8.90268 9.71833 13.28173 14.27271
 == 21-th k-point (-0.40822,0.00000,0.40822) occupation: 14==
 -64.99834 -64.99834 -4.62142 -4.62135 -3.03323 -3.03320 -3.03294 -3.03273 -3.03247 -3.03244
 -0.04045 0.03018 0.11471 0.20006 0.33638 0.49432 0.51769 0.54097 0.55231 0.56529
 0.80913 0.82844 0.86103 0.86860 0.89736 0.93652 0.96543 1.02112 1.10904 1.11472
 1.13061 1.16581 1.26367 1.27984 1.30045 1.36940 1.37446 1.38416 1.58761 1.59576
 1.60089 1.65841 1.66454 1.68181 1.73082 1.75555 1.84120 1.91731 1.92717 2.05957
 2.07363 2.08036 2.16006 2.19249 2.22555 2.23466 2.24000 2.27453 2.31102 2.39314
 2.45661 2.46416 2.46768 2.49973 2.53628 2.58156 2.62146 2.76938 2.77026 2.84469
 2.88582 2.91622 2.95216 2.96022 3.01515 3.03788 3.04756 3.04835 3.11897 3.20236
 3.20911 3.27464 3.29127 3.32833 3.34417 3.35308 3.40526 3.40836 3.41012 3.45623
 3.47662 3.50338 3.65865 3.66681 3.75665 3.77714 3.80873 3.87724 3.90974 3.93425
 4.01303 4.20544 4.26392 4.26567 4.55014 4.58846 8.05831 8.44443 8.52942 8.81958
 8.90268 9.71833 13.28173 14.27271
 == 22-th k-point (-0.20411,0.20411,0.20411) occupation: 14==
 -64.99834 -64.99833 -4.62148 -4.62129 -3.03317 -3.03317 -3.03309 -3.03260 -3.03251 -3.03251
 -0.11020 0.08220 0.24152 0.24152 0.34487 0.40801 0.40801 0.56688 0.57623 0.57623
 0.61450 0.77879 0.82438 0.82438 0.90582 0.93296 0.93296 1.09837 1.18751 1.18751
 1.22147 1.27895 1.27895 1.37499 1.37499 1.39698 1.41706 1.50858 1.50858 1.55109
 1.55109 1.64475 1.68324 1.73336 1.78607 1.78607 1.86761 1.86761 1.90336 1.93215
 1.97392 1.97392 2.08134 2.14503 2.14503 2.26205 2.26205 2.28422 2.28422 2.31565
 2.50403 2.50403 2.53700 2.59676 2.66236 2.67785 2.67785 2.73059 2.76863 2.76863
 2.86064 2.91880 2.91880 2.92822 2.97099 2.97099 3.07761 3.09048 3.09048 3.15727
 3.15727 3.23455 3.32781 3.34946 3.34946 3.47640 3.47640 3.52072 3.52072 3.52377
 3.53503 3.67523 3.67523 3.68096 3.80188 3.83330 3.83330 3.83851 3.90501 3.90501
 4.03641 4.03641 4.13028 4.52804 4.53518 4.53518 7.76284 7.92190 7.92190 9.42946
 9.42946 10.10553 11.90948 14.79694
 == 23-th k-point (0.00000,0.40822,0.00000) occupation: 14==
 -64.99834 -64.99834 -4.62146 -4.62131 -3.03320 -3.03320 -3.03299 -3.03267 -3.03251 -3.03251
 -0.09083 0.09525 0.18867 0.18867 0.30513 0.35215 0.54793 0.54793 0.64286 0.64786
 0.75841 0.78302 0.78302 0.83831 0.88037 0.88037 0.88235 0.98957 1.14111 1.19813
 1.22531 1.22531 1.27746 1.31297 1.33008 1.35166 1.35166 1.60332 1.60718 1.60718
 1.62298 1.65102 1.71571 1.71571 1.77009 1.77142 1.77142 1.84159 1.88987 1.90993
 1.98653 1.98653 1.99706 2.15456 2.17128 2.17128 2.19230 2.36157 2.36157 2.37633
 2.41591 2.49134 2.55186 2.55186 2.63575 2.65091 2.65161 2.75506 2.75506 2.80133
 2.85747 2.87067 2.91147 2.91147 2.93646 3.01405 3.06789 3.06789 3.14545 3.24362
 3.24362 3.25409 3.25600 3.37753 3.38022 3.38022 3.44241 3.44744 3.47251 3.47251
 3.55394 3.56799 3.56799 3.68634 3.72574 3.79760 3.87089 3.87089 3.94396 4.14541
 4.16724 4.16724 4.24978 4.38479 4.61716 4.61716 8.04288 8.04570 8.04570 9.05796
 10.86855 10.86855 13.02875 13.34644
 == 24-th k-point (-0.20411,-0.20411,0.61232) occupation: 14==
 -64.99834 -64.99834 -4.62142 -4.62135 -3.03323 -3.03320 -3.03294 -3.03273 -3.03247 -3.03244
 -0.04045 0.03018 0.11471 0.20006 0.33638 0.49432 0.51769 0.54097 0.55231 0.56529
 0.80913 0.82844 0.86103 0.86860 0.89736 0.93652 0.96543 1.02112 1.10904 1.11472
 1.13061 1.16581 1.26367 1.27984 1.30045 1.36940 1.37446 1.38416 1.58761 1.59576
 1.60089 1.65841 1.66454 1.68181 1.73082 1.75555 1.84120 1.91731 1.92717 2.05957
 2.07363 2.08036 2.16006 2.19249 2.22555 2.23466 2.24000 2.27453 2.31102 2.39314
 2.45661 2.46416 2.46768 2.49973 2.53628 2.58156 2.62146 2.76938 2.77026 2.84469
 2.88582 2.91622 2.95216 2.96022 3.01515 3.03788 3.04756 3.04835 3.11897 3.20236
 3.20911 3.27464 3.29127 3.32833 3.34417 3.35308 3.40526 3.40836 3.41012 3.45623
 3.47662 3.50338 3.65865 3.66681 3.75665 3.77714 3.80873 3.87724 3.90974 3.93425
 4.01303 4.20544 4.26392 4.26567 4.55014 4.58846 8.05831 8.44443 8.52942 8.81958
 8.90268 9.71833 13.28173 14.27271
 == 25-th k-point (0.00000,0.00000,0.40822) occupation: 14==
 -64.99834 -64.99834 -4.62146 -4.62131 -3.03320 -3.03320 -3.03299 -3.03267 -3.03251 -3.03251
 -0.09083 0.09525 0.18867 0.18867 0.30513 0.35215 0.54793 0.54793 0.64286 0.64786
 0.75841 0.78302 0.78302 0.83831 0.88037 0.88037 0.88235 0.98957 1.14111 1.19813
 1.22531 1.22531 1.27746 1.31297 1.33008 1.35166 1.35166 1.60332 1.60718 1.60718
 1.62298 1.65102 1.71571 1.71571 1.77009 1.77142 1.77142 1.84159 1.88987 1.90993
 1.98653 1.98653 1.99706 2.15456 2.17128 2.17128 2.19230 2.36157 2.36157 2.37633
 2.41591 2.49134 2.55186 2.55186 2.63575 2.65091 2.65161 2.75506 2.75506 2.80133
 2.85747 2.87067 2.91147 2.91147 2.93646 3.01405 3.06789 3.06789 3.14545 3.24362
 3.24362 3.25409 3.25600 3.37753 3.38022 3.38022 3.44241 3.44744 3.47251 3.47251
 3.55394 3.56799 3.56799 3.68634 3.72574 3.79760 3.87089 3.87089 3.94396 4.14541
 4.16724 4.16724 4.24978 4.38479 4.61716 4.61716 8.04288 8.04570 8.04570 9.05796
 10.86855 10.86855 13.02875 13.34644
 == 26-th k-point (0.20411,0.20411,0.20411) occupation: 14==
 -64.99834 -64.99833 -4.62148 -4.62129 -3.03317 -3.03317 -3.03309 -3.03260 -3.03251 -3.03251
 -0.11020 0.08220 0.24152 0.24152 0.34487 0.40801 0.40801 0.56688 0.57623 0.57623
 0.61450 0.77879 0.82438 0.82438 0.90582 0.93296 0.93296 1.09837 1.18751 1.18751
 1.22147 1.27895 1.27895 1.37499 1.37499 1.39698 1.41706 1.50858 1.50858 1.55109
 1.55109 1.64475 1.68324 1.73336 1.78607 1.78607 1.86761 1.86761 1.90336 1.93215
 1.97392 1.97392 2.08134 2.14503 2.14503 2.26205 2.26205 2.28422 2.28422 2.31565
 2.50403 2.50403 2.53700 2.59676 2.66236 2.67785 2.67785 2.73059 2.76863 2.76863
 2.86064 2.91880 2.91880 2.92822 2.97098 2.97098 3.07761 3.09048 3.09048 3.15727
 3.15727 3.23455 3.32781 3.34945 3.34945 3.47640 3.47640 3.52072 3.52072 3.52377
 3.53503 3.67523 3.67523 3.68096 3.80188 3.83330 3.83330 3.83851 3.90501 3.90501
 4.03641 4.03641 4.13028 4.52804 4.53517 4.53517 7.76284 7.92190 7.92190 9.42945
 9.42945 10.10553 11.90948 14.79694
 ---------------------------------------------------------------------------
 VBM is at 13-th k-point with 7.59653 eV
 CBM is at 9-th k-point with 8.30307 eV
 Band gap is 0.70654 eV


           Ground-State Mulliken Net Atomic Charges

      Atom                 Charge (a.u.)          Spin (a.u.)
   --------------------------------------------------------
      1 Si              (-0.000000,-0.000000)    (0.000000,0.000000)
      2 Si                (0.000000,0.000000)    (0.000000,0.000000)
   --------------------------------------------------------
  Sum of atomic charges =     (-0.000000,-0.000000)
  Sum of spin   charges =       (0.000000,0.000000)



 Total job time:  43.24 s.
 Tue Sep  9 02:59:37 2025


        *************************************************************
        *                                                           *
        *  Thank you very much for using QCPBC. Have a nice day.    *
        *                                                           *
        *************************************************************

Running job 1 of 1
