                  Welcome to Q-Chem
           with Periodic Boundary Condition
     A Quantum Leap Into The Future Of Chemistry

 Adam Rettig, Xintian Feng, Meng-Fu Chen, Hieu Dinh, Stephen Quiton,
 Anton Ni, Paul J. Robinson, Jinghong Zhang, Joonho Lee

Contributors to earlier versions of Q-Chem not listed above:
 Evgeny Epifanovsky, Leo Cunha, Jerome F. Gonthier, Kuan-Yu Liu
 Input file: /n/netscratch/joonholee_lab/Lab/hieudinh//si_2_ccpvqz_omega_0.3_999.scratch20250909042135/si_2_ccpvqz_omega_0.3_999.0
 Scratch folder: /n/netscratch/joonholee_lab/Lab/hieudinh//si_2_ccpvqz_omega_0.3_999.scratch20250909042135
 Auxillary files located at: /n/holylabs/LABS/joonholee_lab/Lab/qchem_base/qcaux
 Q-Chem begins on Tue Sep  9 04:21:36 2025

 -------------------------------------------------------------
 User input:
 -------------------------------------------------------------
 $lattice
 3
 0.000000 5.130600 5.130600
 5.130600 0.000000 5.130600
 5.130600 5.130600 0.000000
 $end
 
 $unitcell
 ABSOLUTE
 0 1
 Si 0.000000 0.000000 0.000000
 Si 2.565300 2.565300 2.565300
 $end
 
 $rem
 jobtype = sp
 method = pbe
 scf_convergence = 5
 scf_guess = autosad
 scf_algorithm = diis_gdm
 basis = cc-pvqz
 aux_basis = cc-pvqz-jk
 input_bohr = true
 symmetry = false
 rsdf_print_level 1
 is_basis_uctr true
 
 mp_mesh = [9,9,9]
 
 integral_direct true
 bvk_cgto true
 
 thresh 14
 mem_total 1000000
 threads 32
 
 MAX_SCF_CYCLES 500
 madelung = false
 omega 0.3
 do_rij_bigmem true
 automate_g true
 print_level 10
 grid_type_xc 1
 
 thresh_1e2c_sp 1e-14
 thresh_2e3c_bra_ket_sep 1e-10
 thresh_g 1e-12
 $end
 
 -------------------------------------------------------------
 Running PBC job

 Requested Exchange Correlation Functionals: 
  DFT Exchange:  1.00000 pbe_x
  DFT Correlation:  1.00000 pbe_c
 using 32 threads for computing.
 ---------------------------------------------------------------
      Coordinates of Atoms in Central Unit Cell (Angstroms)
    I     Atom         X            Y            Z
 ---------------------------------------------------------------
    1      Si      0.000000     0.000000     0.000000
    2      Si      1.357498     1.357498     1.357498
 ---------------------------------------------------------------
 --------------------------------------------------
              Lattice Vectors (Angstroms)
              X            Y            Z
 --------------------------------------------------
   X       0.000000     2.714997     2.714997
   Y       2.714997     0.000000     2.714997
   Z       2.714997     2.714997     0.000000
 --------------------------------------------------
 --------------------------------------------------
       Reciprocal Lattice Vectors (Angstroms^-1)
              X            Y            Z
 --------------------------------------------------
   X      -1.157126     1.157126     1.157126
   Y       1.157126    -1.157126     1.157126
   Z       1.157126     1.157126    -1.157126
 --------------------------------------------------

 Single point calculation requested

 Hamiltonian contributions:
 List of terms in Hamiltonian: kpts_nn, kpts_kinetic, kpts_vnuc_df, kpts_xc, kpts_rij_bigmem

 K-Points calculation started.

 Basis set information about using solid harmonic (1) or Cartesian (0):
  si : D(1) D(1) D(1) F(1) F(1) G(1) 

 Basis set information about using solid harmonic (1) or Cartesian (0):
  si : D(1) D(1) D(1) D(1) D(1) D(1) D(1) D(1) D(1) F(1) F(1) F(1) F(1) G(1) G(1) H(1) 

 There are 118 basis functions in the central unit cell.
 Print atomic basis of atoms in the central unit cell:
 -------------------------------------------------------------
2 66 134 28

  0.00000000000000e+00  0.00000000000000e+00  0.00000000000000e+00
  2.56530000000000e+00  2.56530000000000e+00  2.56530000000000e+00

  5.13000000000000e+05
  7.68200000000000e+04
  1.74700000000000e+04
  4.93500000000000e+03
  1.60200000000000e+03
  5.74100000000000e+02
  2.21500000000000e+02
  9.05400000000000e+01
  3.87400000000000e+01
  1.69500000000000e+01
  6.45200000000000e+00
  2.87400000000000e+00
  1.25000000000000e+00
  3.59900000000000e-01
  1.69900000000000e-01
  7.06600000000000e-02
  1.12200000000000e+03
  2.66000000000000e+02
  8.59200000000000e+01
  3.23300000000000e+01
  1.33700000000000e+01
  5.80000000000000e+00
  2.55900000000000e+00
  1.12400000000000e+00
  3.98800000000000e-01
  1.53300000000000e-01
  5.72800000000000e-02
  7.60000000000000e-01
  3.02000000000000e-01
  1.20000000000000e-01
  5.41000000000000e-01
  2.12000000000000e-01
  4.61000000000000e-01
  5.13000000000000e+05
  7.68200000000000e+04
  1.74700000000000e+04
  4.93500000000000e+03
  1.60200000000000e+03
  5.74100000000000e+02
  2.21500000000000e+02
  9.05400000000000e+01
  3.87400000000000e+01
  1.69500000000000e+01
  6.45200000000000e+00
  2.87400000000000e+00
  1.25000000000000e+00
  3.59900000000000e-01
  1.69900000000000e-01
  7.06600000000000e-02
  1.12200000000000e+03
  2.66000000000000e+02
  8.59200000000000e+01
  3.23300000000000e+01
  1.33700000000000e+01
  5.80000000000000e+00
  2.55900000000000e+00
  1.12400000000000e+00
  3.98800000000000e-01
  1.53300000000000e-01
  5.72800000000000e-02
  7.60000000000000e-01
  3.02000000000000e-01
  1.20000000000000e-01
  5.41000000000000e-01
  2.12000000000000e-01
  4.61000000000000e-01

  3.56439732356011e-01
  6.67250935594825e-01
  1.15567538346971e+00
  1.89079471139597e+00
  2.92997535092854e+00
  4.25377897422013e+00
  5.53035652706994e+00
  5.88407857713363e+00
  4.26432221020809e+00
  1.46246852660687e+00
  9.90009037975635e-02
 -5.26805361731285e-03
  1.58075269248041e-03
 -9.63604858609034e-02
 -1.80140685379119e-01
 -3.12991611081079e-01
 -5.12013980868736e-01
 -8.03092560139717e-01
 -1.18597193899895e+00
 -1.63453354628192e+00
 -1.94138718043020e+00
 -1.86039340932271e+00
 -9.21642524314205e-01
  4.93552860211257e-01
  9.09065541611183e-01
  3.40430003714153e-01
  4.89002727192571e-02
  9.13245846186842e-02
  1.58921585782757e-01
  2.59526822498432e-01
  4.08347517411705e-01
  6.02266139654795e-01
  8.36774006155092e-01
  9.98775610751853e-01
  9.86583994360998e-01
  5.01500269670235e-01
 -2.91439000418814e-01
 -6.84883633703988e-01
 -4.85138432421684e-01
  3.31166560285492e-01
  1.88605835767988e-01
  9.76765512168845e-02
  4.17977074735086e+00
  5.88843070847456e+00
  7.44317185052013e+00
  8.05001094515016e+00
  6.97099017282640e+00
  4.33955185260449e+00
  1.76355858703549e+00
  3.34437932089088e-01
 -4.09551658476811e+00
 -5.70145272051300e+00
 -7.35388974061730e+00
 -7.93663059323219e+00
 -7.17813870370958e+00
 -4.42768957771269e+00
 -2.05517820096269e+00
 -1.72105843348797e-01
  4.51735295769850e-01
  1.36731249153695e-01
  3.99432914781939e-02
  1.01820035164008e+00
  2.02498404800701e-01
  4.02695370421242e-02
  3.69528803814005e-01
  4.48962571437413e-02
  1.32316184864580e-01
  3.56439732356011e-01
  6.67250935594825e-01
  1.15567538346971e+00
  1.89079471139597e+00
  2.92997535092854e+00
  4.25377897422013e+00
  5.53035652706994e+00
  5.88407857713363e+00
  4.26432221020809e+00
  1.46246852660687e+00
  9.90009037975635e-02
 -5.26805361731285e-03
  1.58075269248041e-03
 -9.63604858609034e-02
 -1.80140685379119e-01
 -3.12991611081079e-01
 -5.12013980868736e-01
 -8.03092560139717e-01
 -1.18597193899895e+00
 -1.63453354628192e+00
 -1.94138718043020e+00
 -1.86039340932271e+00
 -9.21642524314205e-01
  4.93552860211257e-01
  9.09065541611183e-01
  3.40430003714153e-01
  4.89002727192571e-02
  9.13245846186842e-02
  1.58921585782757e-01
  2.59526822498432e-01
  4.08347517411705e-01
  6.02266139654795e-01
  8.36774006155092e-01
  9.98775610751853e-01
  9.86583994360998e-01
  5.01500269670235e-01
 -2.91439000418814e-01
 -6.84883633703988e-01
 -4.85138432421684e-01
  3.31166560285492e-01
  1.88605835767988e-01
  9.76765512168845e-02
  4.17977074735086e+00
  5.88843070847456e+00
  7.44317185052013e+00
  8.05001094515016e+00
  6.97099017282640e+00
  4.33955185260449e+00
  1.76355858703549e+00
  3.34437932089088e-01
 -4.09551658476811e+00
 -5.70145272051300e+00
 -7.35388974061730e+00
 -7.93663059323219e+00
 -7.17813870370958e+00
 -4.42768957771269e+00
 -2.05517820096269e+00
 -1.72105843348797e-01
  4.51735295769850e-01
  1.36731249153695e-01
  3.99432914781939e-02
  1.01820035164008e+00
  2.02498404800701e-01
  4.02695370421242e-02
  3.69528803814005e-01
  4.48962571437413e-02
  1.32316184864580e-01

0 0 0 0 3 3 3
0 0 13 0 26 0 
13 0

0 3 3 13 1 1 1
39 0 
1 0

0 4 4 14 1 1 1
40 0 
1 0

0 5 5 15 1 1 1
41 0 
1 0

0 6 6 16 2 6 6
42 1 50 1 
8 0

0 12 12 24 1 3 3
58 1 
1 0

0 15 15 25 1 3 3
59 1 
1 0

0 18 18 26 1 3 3
60 1 
1 0

0 21 21 27 1 5 6
61 2 
1 1

0 26 26 28 1 5 6
62 2 
1 1

0 31 31 29 1 5 6
63 2 
1 1

0 36 36 30 1 7 10
64 3 
1 1

0 43 43 31 1 7 10
65 3 
1 1

0 50 50 32 1 9 15
66 4 
1 1

1 59 59 33 3 3 3
67 0 80 0 93 0 
13 0

1 62 62 46 1 1 1
106 0 
1 0

1 63 63 47 1 1 1
107 0 
1 0

1 64 64 48 1 1 1
108 0 
1 0

1 65 65 49 2 6 6
109 1 117 1 
8 0

1 71 71 57 1 3 3
125 1 
1 0

1 74 74 58 1 3 3
126 1 
1 0

1 77 77 59 1 3 3
127 1 
1 0

1 80 80 60 1 5 6
128 2 
1 1

1 85 85 61 1 5 6
129 2 
1 1

1 90 90 62 1 5 6
130 2 
1 1

1 95 95 63 1 7 10
131 3 
1 1

1 102 102 64 1 7 10
132 3 
1 1

1 109 109 65 1 9 15
133 4 
1 1

 -------------------------------------------------------------
 Allocate 265256 B from available memory: 1048576000000 B
 There are 2197 image cells after screening.
 There are 2061 image cells for CGTO evaluation after screening.
 Real-Space grid for FFT initialized based on kinetic energy cutoff (eV) = 500.0
 Real-Space grid for FFT: (10,10,10)
 There are 9261 real-space grid points.
 There are 64 batches of real-space grid points. 
 Size of each grid batch is around 128
 Grid for AFT initialized based on kinetic energy cutoff (eV) = 500.0
 Real-Space grid for AFT: (10,10,10)
 There are 9261 real-space grid points.

 There are 5628 atom-centered grid points.

 Spacegroup symmetry group: Fd-3m
 Reducing spacegroup symmetry to symmorphic group: F -4 3 m
 Monkhorst-Pack mesh is [9,9,9]
 There are 729 k points.
kpoints in Bohr
-0.2721442719 -0.2721442719 -0.2721442719
-0.2041082040 -0.2041082040 -0.3401803399
-0.1360721360 -0.1360721360 -0.4082164079
-0.0680360680 -0.0680360680 -0.4762524759
-0.0000000000 -0.0000000000 -0.5442885439
0.0680360680 0.0680360680 -0.6123246119
0.1360721360 0.1360721360 -0.6803606798
0.2041082040 0.2041082040 -0.7483967478
0.2721442719 0.2721442719 -0.8164328158
-0.2041082040 -0.3401803399 -0.2041082040
-0.1360721360 -0.2721442719 -0.2721442719
-0.0680360680 -0.2041082040 -0.3401803399
-0.0000000000 -0.1360721360 -0.4082164079
0.0680360680 -0.0680360680 -0.4762524759
0.1360721360 -0.0000000000 -0.5442885439
0.2041082040 0.0680360680 -0.6123246119
0.2721442719 0.1360721360 -0.6803606798
0.3401803399 0.2041082040 -0.7483967478
-0.1360721360 -0.4082164079 -0.1360721360
-0.0680360680 -0.3401803399 -0.2041082040
-0.0000000000 -0.2721442719 -0.2721442719
0.0680360680 -0.2041082040 -0.3401803399
0.1360721360 -0.1360721360 -0.4082164079
0.2041082040 -0.0680360680 -0.4762524759
0.2721442719 -0.0000000000 -0.5442885439
0.3401803399 0.0680360680 -0.6123246119
0.4082164079 0.1360721360 -0.6803606798
-0.0680360680 -0.4762524759 -0.0680360680
-0.0000000000 -0.4082164079 -0.1360721360
0.0680360680 -0.3401803399 -0.2041082040
0.1360721360 -0.2721442719 -0.2721442719
0.2041082040 -0.2041082040 -0.3401803399
0.2721442719 -0.1360721360 -0.4082164079
0.3401803399 -0.0680360680 -0.4762524759
0.4082164079 0.0000000000 -0.5442885439
0.4762524759 0.0680360680 -0.6123246119
-0.0000000000 -0.5442885439 0.0000000000
0.0680360680 -0.4762524759 -0.0680360680
0.1360721360 -0.4082164079 -0.1360721360
0.2041082040 -0.3401803399 -0.2041082040
0.2721442719 -0.2721442719 -0.2721442719
0.3401803399 -0.2041082040 -0.3401803399
0.4082164079 -0.1360721360 -0.4082164079
0.4762524759 -0.0680360680 -0.4762524759
0.5442885439 0.0000000000 -0.5442885439
0.0680360680 -0.6123246119 0.0680360680
0.1360721360 -0.5442885439 -0.0000000000
0.2041082040 -0.4762524759 -0.0680360680
0.2721442719 -0.4082164079 -0.1360721360
0.3401803399 -0.3401803399 -0.2041082040
0.4082164079 -0.2721442719 -0.2721442719
0.4762524759 -0.2041082040 -0.3401803399
0.5442885439 -0.1360721360 -0.4082164079
0.6123246119 -0.0680360680 -0.4762524759
0.1360721360 -0.6803606798 0.1360721360
0.2041082040 -0.6123246119 0.0680360680
0.2721442719 -0.5442885439 0.0000000000
0.3401803399 -0.4762524759 -0.0680360680
0.4082164079 -0.4082164079 -0.1360721360
0.4762524759 -0.3401803399 -0.2041082040
0.5442885439 -0.2721442719 -0.2721442719
0.6123246119 -0.2041082040 -0.3401803399
0.6803606798 -0.1360721360 -0.4082164079
0.2041082040 -0.7483967478 0.2041082040
0.2721442719 -0.6803606798 0.1360721360
0.3401803399 -0.6123246119 0.0680360680
0.4082164079 -0.5442885439 0.0000000000
0.4762524759 -0.4762524759 -0.0680360680
0.5442885439 -0.4082164079 -0.1360721360
0.6123246119 -0.3401803399 -0.2041082040
0.6803606798 -0.2721442719 -0.2721442719
0.7483967478 -0.2041082040 -0.3401803399
0.2721442719 -0.8164328158 0.2721442719
0.3401803399 -0.7483967478 0.2041082040
0.4082164079 -0.6803606798 0.1360721360
0.4762524759 -0.6123246119 0.0680360680
0.5442885439 -0.5442885439 0.0000000000
0.6123246119 -0.4762524759 -0.0680360680
0.6803606798 -0.4082164079 -0.1360721360
0.7483967478 -0.3401803399 -0.2041082040
0.8164328158 -0.2721442719 -0.2721442719
-0.3401803399 -0.2041082040 -0.2041082040
-0.2721442719 -0.1360721360 -0.2721442719
-0.2041082040 -0.0680360680 -0.3401803399
-0.1360721360 -0.0000000000 -0.4082164079
-0.0680360680 0.0680360680 -0.4762524759
-0.0000000000 0.1360721360 -0.5442885439
0.0680360680 0.2041082040 -0.6123246119
0.1360721360 0.2721442719 -0.6803606798
0.2041082040 0.3401803399 -0.7483967478
-0.2721442719 -0.2721442719 -0.1360721360
-0.2041082040 -0.2041082040 -0.2041082040
-0.1360721360 -0.1360721360 -0.2721442719
-0.0680360680 -0.0680360680 -0.3401803399
-0.0000000000 -0.0000000000 -0.4082164079
0.0680360680 0.0680360680 -0.4762524759
0.1360721360 0.1360721360 -0.5442885439
0.2041082040 0.2041082040 -0.6123246119
0.2721442719 0.2721442719 -0.6803606798
-0.2041082040 -0.3401803399 -0.0680360680
-0.1360721360 -0.2721442719 -0.1360721360
-0.0680360680 -0.2041082040 -0.2041082040
-0.0000000000 -0.1360721360 -0.2721442719
0.0680360680 -0.0680360680 -0.3401803399
0.1360721360 -0.0000000000 -0.4082164079
0.2041082040 0.0680360680 -0.4762524759
0.2721442719 0.1360721360 -0.5442885439
0.3401803399 0.2041082040 -0.6123246119
-0.1360721360 -0.4082164079 0.0000000000
-0.0680360680 -0.3401803399 -0.0680360680
-0.0000000000 -0.2721442719 -0.1360721360
0.0680360680 -0.2041082040 -0.2041082040
0.1360721360 -0.1360721360 -0.2721442719
0.2041082040 -0.0680360680 -0.3401803399
0.2721442719 -0.0000000000 -0.4082164079
0.3401803399 0.0680360680 -0.4762524759
0.4082164079 0.1360721360 -0.5442885439
-0.0680360680 -0.4762524759 0.0680360680
-0.0000000000 -0.4082164079 0.0000000000
0.0680360680 -0.3401803399 -0.0680360680
0.1360721360 -0.2721442719 -0.1360721360
0.2041082040 -0.2041082040 -0.2041082040
0.2721442719 -0.1360721360 -0.2721442719
0.3401803399 -0.0680360680 -0.3401803399
0.4082164079 0.0000000000 -0.4082164079
0.4762524759 0.0680360680 -0.4762524759
-0.0000000000 -0.5442885439 0.1360721360
0.0680360680 -0.4762524759 0.0680360680
0.1360721360 -0.4082164079 0.0000000000
0.2041082040 -0.3401803399 -0.0680360680
0.2721442719 -0.2721442719 -0.1360721360
0.3401803399 -0.2041082040 -0.2041082040
0.4082164079 -0.1360721360 -0.2721442719
0.4762524759 -0.0680360680 -0.3401803399
0.5442885439 0.0000000000 -0.4082164079
0.0680360680 -0.6123246119 0.2041082040
0.1360721360 -0.5442885439 0.1360721360
0.2041082040 -0.4762524759 0.0680360680
0.2721442719 -0.4082164079 0.0000000000
0.3401803399 -0.3401803399 -0.0680360680
0.4082164079 -0.2721442719 -0.1360721360
0.4762524759 -0.2041082040 -0.2041082040
0.5442885439 -0.1360721360 -0.2721442719
0.6123246119 -0.0680360680 -0.3401803399
0.1360721360 -0.6803606798 0.2721442719
0.2041082040 -0.6123246119 0.2041082040
0.2721442719 -0.5442885439 0.1360721360
0.3401803399 -0.4762524759 0.0680360680
0.4082164079 -0.4082164079 0.0000000000
0.4762524759 -0.3401803399 -0.0680360680
0.5442885439 -0.2721442719 -0.1360721360
0.6123246119 -0.2041082040 -0.2041082040
0.6803606798 -0.1360721360 -0.2721442719
0.2041082040 -0.7483967478 0.3401803399
0.2721442719 -0.6803606798 0.2721442719
0.3401803399 -0.6123246119 0.2041082040
0.4082164079 -0.5442885439 0.1360721360
0.4762524759 -0.4762524759 0.0680360680
0.5442885439 -0.4082164079 0.0000000000
0.6123246119 -0.3401803399 -0.0680360680
0.6803606798 -0.2721442719 -0.1360721360
0.7483967478 -0.2041082040 -0.2041082040
-0.4082164079 -0.1360721360 -0.1360721360
-0.3401803399 -0.0680360680 -0.2041082040
-0.2721442719 -0.0000000000 -0.2721442719
-0.2041082040 0.0680360680 -0.3401803399
-0.1360721360 0.1360721360 -0.4082164079
-0.0680360680 0.2041082040 -0.4762524759
-0.0000000000 0.2721442719 -0.5442885439
0.0680360680 0.3401803399 -0.6123246119
0.1360721360 0.4082164079 -0.6803606798
-0.3401803399 -0.2041082040 -0.0680360680
-0.2721442719 -0.1360721360 -0.1360721360
-0.2041082040 -0.0680360680 -0.2041082040
-0.1360721360 -0.0000000000 -0.2721442719
-0.0680360680 0.0680360680 -0.3401803399
-0.0000000000 0.1360721360 -0.4082164079
0.0680360680 0.2041082040 -0.4762524759
0.1360721360 0.2721442719 -0.5442885439
0.2041082040 0.3401803399 -0.6123246119
-0.2721442719 -0.2721442719 0.0000000000
-0.2041082040 -0.2041082040 -0.0680360680
-0.1360721360 -0.1360721360 -0.1360721360
-0.0680360680 -0.0680360680 -0.2041082040
-0.0000000000 -0.0000000000 -0.2721442719
0.0680360680 0.0680360680 -0.3401803399
0.1360721360 0.1360721360 -0.4082164079
0.2041082040 0.2041082040 -0.4762524759
0.2721442719 0.2721442719 -0.5442885439
-0.2041082040 -0.3401803399 0.0680360680
-0.1360721360 -0.2721442719 -0.0000000000
-0.0680360680 -0.2041082040 -0.0680360680
-0.0000000000 -0.1360721360 -0.1360721360
0.0680360680 -0.0680360680 -0.2041082040
0.1360721360 -0.0000000000 -0.2721442719
0.2041082040 0.0680360680 -0.3401803399
0.2721442719 0.1360721360 -0.4082164079
0.3401803399 0.2041082040 -0.4762524759
-0.1360721360 -0.4082164079 0.1360721360
-0.0680360680 -0.3401803399 0.0680360680
-0.0000000000 -0.2721442719 0.0000000000
0.0680360680 -0.2041082040 -0.0680360680
0.1360721360 -0.1360721360 -0.1360721360
0.2041082040 -0.0680360680 -0.2041082040
0.2721442719 0.0000000000 -0.2721442719
0.3401803399 0.0680360680 -0.3401803399
0.4082164079 0.1360721360 -0.4082164079
-0.0680360680 -0.4762524759 0.2041082040
-0.0000000000 -0.4082164079 0.1360721360
0.0680360680 -0.3401803399 0.0680360680
0.1360721360 -0.2721442719 0.0000000000
0.2041082040 -0.2041082040 -0.0680360680
0.2721442719 -0.1360721360 -0.1360721360
0.3401803399 -0.0680360680 -0.2041082040
0.4082164079 0.0000000000 -0.2721442719
0.4762524759 0.0680360680 -0.3401803399
-0.0000000000 -0.5442885439 0.2721442719
0.0680360680 -0.4762524759 0.2041082040
0.1360721360 -0.4082164079 0.1360721360
0.2041082040 -0.3401803399 0.0680360680
0.2721442719 -0.2721442719 0.0000000000
0.3401803399 -0.2041082040 -0.0680360680
0.4082164079 -0.1360721360 -0.1360721360
0.4762524759 -0.0680360680 -0.2041082040
0.5442885439 0.0000000000 -0.2721442719
0.0680360680 -0.6123246119 0.3401803399
0.1360721360 -0.5442885439 0.2721442719
0.2041082040 -0.4762524759 0.2041082040
0.2721442719 -0.4082164079 0.1360721360
0.3401803399 -0.3401803399 0.0680360680
0.4082164079 -0.2721442719 0.0000000000
0.4762524759 -0.2041082040 -0.0680360680
0.5442885439 -0.1360721360 -0.1360721360
0.6123246119 -0.0680360680 -0.2041082040
0.1360721360 -0.6803606798 0.4082164079
0.2041082040 -0.6123246119 0.3401803399
0.2721442719 -0.5442885439 0.2721442719
0.3401803399 -0.4762524759 0.2041082040
0.4082164079 -0.4082164079 0.1360721360
0.4762524759 -0.3401803399 0.0680360680
0.5442885439 -0.2721442719 0.0000000000
0.6123246119 -0.2041082040 -0.0680360680
0.6803606798 -0.1360721360 -0.1360721360
-0.4762524759 -0.0680360680 -0.0680360680
-0.4082164079 -0.0000000000 -0.1360721360
-0.3401803399 0.0680360680 -0.2041082040
-0.2721442719 0.1360721360 -0.2721442719
-0.2041082040 0.2041082040 -0.3401803399
-0.1360721360 0.2721442719 -0.4082164079
-0.0680360680 0.3401803399 -0.4762524759
0.0000000000 0.4082164079 -0.5442885439
0.0680360680 0.4762524759 -0.6123246119
-0.4082164079 -0.1360721360 0.0000000000
-0.3401803399 -0.0680360680 -0.0680360680
-0.2721442719 -0.0000000000 -0.1360721360
-0.2041082040 0.0680360680 -0.2041082040
-0.1360721360 0.1360721360 -0.2721442719
-0.0680360680 0.2041082040 -0.3401803399
0.0000000000 0.2721442719 -0.4082164079
0.0680360680 0.3401803399 -0.4762524759
0.1360721360 0.4082164079 -0.5442885439
-0.3401803399 -0.2041082040 0.0680360680
-0.2721442719 -0.1360721360 -0.0000000000
-0.2041082040 -0.0680360680 -0.0680360680
-0.1360721360 -0.0000000000 -0.1360721360
-0.0680360680 0.0680360680 -0.2041082040
-0.0000000000 0.1360721360 -0.2721442719
0.0680360680 0.2041082040 -0.3401803399
0.1360721360 0.2721442719 -0.4082164079
0.2041082040 0.3401803399 -0.4762524759
-0.2721442719 -0.2721442719 0.1360721360
-0.2041082040 -0.2041082040 0.0680360680
-0.1360721360 -0.1360721360 0.0000000000
-0.0680360680 -0.0680360680 -0.0680360680
-0.0000000000 -0.0000000000 -0.1360721360
0.0680360680 0.0680360680 -0.2041082040
0.1360721360 0.1360721360 -0.2721442719
0.2041082040 0.2041082040 -0.3401803399
0.2721442719 0.2721442719 -0.4082164079
-0.2041082040 -0.3401803399 0.2041082040
-0.1360721360 -0.2721442719 0.1360721360
-0.0680360680 -0.2041082040 0.0680360680
-0.0000000000 -0.1360721360 0.0000000000
0.0680360680 -0.0680360680 -0.0680360680
0.1360721360 0.0000000000 -0.1360721360
0.2041082040 0.0680360680 -0.2041082040
0.2721442719 0.1360721360 -0.2721442719
0.3401803399 0.2041082040 -0.3401803399
-0.1360721360 -0.4082164079 0.2721442719
-0.0680360680 -0.3401803399 0.2041082040
-0.0000000000 -0.2721442719 0.1360721360
0.0680360680 -0.2041082040 0.0680360680
0.1360721360 -0.1360721360 0.0000000000
0.2041082040 -0.0680360680 -0.0680360680
0.2721442719 0.0000000000 -0.1360721360
0.3401803399 0.0680360680 -0.2041082040
0.4082164079 0.1360721360 -0.2721442719
-0.0680360680 -0.4762524759 0.3401803399
-0.0000000000 -0.4082164079 0.2721442719
0.0680360680 -0.3401803399 0.2041082040
0.1360721360 -0.2721442719 0.1360721360
0.2041082040 -0.2041082040 0.0680360680
0.2721442719 -0.1360721360 0.0000000000
0.3401803399 -0.0680360680 -0.0680360680
0.4082164079 0.0000000000 -0.1360721360
0.4762524759 0.0680360680 -0.2041082040
-0.0000000000 -0.5442885439 0.4082164079
0.0680360680 -0.4762524759 0.3401803399
0.1360721360 -0.4082164079 0.2721442719
0.2041082040 -0.3401803399 0.2041082040
0.2721442719 -0.2721442719 0.1360721360
0.3401803399 -0.2041082040 0.0680360680
0.4082164079 -0.1360721360 0.0000000000
0.4762524759 -0.0680360680 -0.0680360680
0.5442885439 0.0000000000 -0.1360721360
0.0680360680 -0.6123246119 0.4762524759
0.1360721360 -0.5442885439 0.4082164079
0.2041082040 -0.4762524759 0.3401803399
0.2721442719 -0.4082164079 0.2721442719
0.3401803399 -0.3401803399 0.2041082040
0.4082164079 -0.2721442719 0.1360721360
0.4762524759 -0.2041082040 0.0680360680
0.5442885439 -0.1360721360 0.0000000000
0.6123246119 -0.0680360680 -0.0680360680
-0.5442885439 -0.0000000000 0.0000000000
-0.4762524759 0.0680360680 -0.0680360680
-0.4082164079 0.1360721360 -0.1360721360
-0.3401803399 0.2041082040 -0.2041082040
-0.2721442719 0.2721442719 -0.2721442719
-0.2041082040 0.3401803399 -0.3401803399
-0.1360721360 0.4082164079 -0.4082164079
-0.0680360680 0.4762524759 -0.4762524759
0.0000000000 0.5442885439 -0.5442885439
-0.4762524759 -0.0680360680 0.0680360680
-0.4082164079 -0.0000000000 -0.0000000000
-0.3401803399 0.0680360680 -0.0680360680
-0.2721442719 0.1360721360 -0.1360721360
-0.2041082040 0.2041082040 -0.2041082040
-0.1360721360 0.2721442719 -0.2721442719
-0.0680360680 0.3401803399 -0.3401803399
0.0000000000 0.4082164079 -0.4082164079
0.0680360680 0.4762524759 -0.4762524759
-0.4082164079 -0.1360721360 0.1360721360
-0.3401803399 -0.0680360680 0.0680360680
-0.2721442719 -0.0000000000 0.0000000000
-0.2041082040 0.0680360680 -0.0680360680
-0.1360721360 0.1360721360 -0.1360721360
-0.0680360680 0.2041082040 -0.2041082040
0.0000000000 0.2721442719 -0.2721442719
0.0680360680 0.3401803399 -0.3401803399
0.1360721360 0.4082164079 -0.4082164079
-0.3401803399 -0.2041082040 0.2041082040
-0.2721442719 -0.1360721360 0.1360721360
-0.2041082040 -0.0680360680 0.0680360680
-0.1360721360 -0.0000000000 0.0000000000
-0.0680360680 0.0680360680 -0.0680360680
0.0000000000 0.1360721360 -0.1360721360
0.0680360680 0.2041082040 -0.2041082040
0.1360721360 0.2721442719 -0.2721442719
0.2041082040 0.3401803399 -0.3401803399
-0.2721442719 -0.2721442719 0.2721442719
-0.2041082040 -0.2041082040 0.2041082040
-0.1360721360 -0.1360721360 0.1360721360
-0.0680360680 -0.0680360680 0.0680360680
0.0000000000 0.0000000000 0.0000000000
0.0680360680 0.0680360680 -0.0680360680
0.1360721360 0.1360721360 -0.1360721360
0.2041082040 0.2041082040 -0.2041082040
0.2721442719 0.2721442719 -0.2721442719
-0.2041082040 -0.3401803399 0.3401803399
-0.1360721360 -0.2721442719 0.2721442719
-0.0680360680 -0.2041082040 0.2041082040
0.0000000000 -0.1360721360 0.1360721360
0.0680360680 -0.0680360680 0.0680360680
0.1360721360 0.0000000000 0.0000000000
0.2041082040 0.0680360680 -0.0680360680
0.2721442719 0.1360721360 -0.1360721360
0.3401803399 0.2041082040 -0.2041082040
-0.1360721360 -0.4082164079 0.4082164079
-0.0680360680 -0.3401803399 0.3401803399
0.0000000000 -0.2721442719 0.2721442719
0.0680360680 -0.2041082040 0.2041082040
0.1360721360 -0.1360721360 0.1360721360
0.2041082040 -0.0680360680 0.0680360680
0.2721442719 0.0000000000 0.0000000000
0.3401803399 0.0680360680 -0.0680360680
0.4082164079 0.1360721360 -0.1360721360
-0.0680360680 -0.4762524759 0.4762524759
-0.0000000000 -0.4082164079 0.4082164079
0.0680360680 -0.3401803399 0.3401803399
0.1360721360 -0.2721442719 0.2721442719
0.2041082040 -0.2041082040 0.2041082040
0.2721442719 -0.1360721360 0.1360721360
0.3401803399 -0.0680360680 0.0680360680
0.4082164079 0.0000000000 0.0000000000
0.4762524759 0.0680360680 -0.0680360680
0.0000000000 -0.5442885439 0.5442885439
0.0680360680 -0.4762524759 0.4762524759
0.1360721360 -0.4082164079 0.4082164079
0.2041082040 -0.3401803399 0.3401803399
0.2721442719 -0.2721442719 0.2721442719
0.3401803399 -0.2041082040 0.2041082040
0.4082164079 -0.1360721360 0.1360721360
0.4762524759 -0.0680360680 0.0680360680
0.5442885439 0.0000000000 0.0000000000
-0.6123246119 0.0680360680 0.0680360680
-0.5442885439 0.1360721360 -0.0000000000
-0.4762524759 0.2041082040 -0.0680360680
-0.4082164079 0.2721442719 -0.1360721360
-0.3401803399 0.3401803399 -0.2041082040
-0.2721442719 0.4082164079 -0.2721442719
-0.2041082040 0.4762524759 -0.3401803399
-0.1360721360 0.5442885439 -0.4082164079
-0.0680360680 0.6123246119 -0.4762524759
-0.5442885439 -0.0000000000 0.1360721360
-0.4762524759 0.0680360680 0.0680360680
-0.4082164079 0.1360721360 -0.0000000000
-0.3401803399 0.2041082040 -0.0680360680
-0.2721442719 0.2721442719 -0.1360721360
-0.2041082040 0.3401803399 -0.2041082040
-0.1360721360 0.4082164079 -0.2721442719
-0.0680360680 0.4762524759 -0.3401803399
0.0000000000 0.5442885439 -0.4082164079
-0.4762524759 -0.0680360680 0.2041082040
-0.4082164079 -0.0000000000 0.1360721360
-0.3401803399 0.0680360680 0.0680360680
-0.2721442719 0.1360721360 0.0000000000
-0.2041082040 0.2041082040 -0.0680360680
-0.1360721360 0.2721442719 -0.1360721360
-0.0680360680 0.3401803399 -0.2041082040
0.0000000000 0.4082164079 -0.2721442719
0.0680360680 0.4762524759 -0.3401803399
-0.4082164079 -0.1360721360 0.2721442719
-0.3401803399 -0.0680360680 0.2041082040
-0.2721442719 0.0000000000 0.1360721360
-0.2041082040 0.0680360680 0.0680360680
-0.1360721360 0.1360721360 0.0000000000
-0.0680360680 0.2041082040 -0.0680360680
0.0000000000 0.2721442719 -0.1360721360
0.0680360680 0.3401803399 -0.2041082040
0.1360721360 0.4082164079 -0.2721442719
-0.3401803399 -0.2041082040 0.3401803399
-0.2721442719 -0.1360721360 0.2721442719
-0.2041082040 -0.0680360680 0.2041082040
-0.1360721360 0.0000000000 0.1360721360
-0.0680360680 0.0680360680 0.0680360680
0.0000000000 0.1360721360 0.0000000000
0.0680360680 0.2041082040 -0.0680360680
0.1360721360 0.2721442719 -0.1360721360
0.2041082040 0.3401803399 -0.2041082040
-0.2721442719 -0.2721442719 0.4082164079
-0.2041082040 -0.2041082040 0.3401803399
-0.1360721360 -0.1360721360 0.2721442719
-0.0680360680 -0.0680360680 0.2041082040
0.0000000000 0.0000000000 0.1360721360
0.0680360680 0.0680360680 0.0680360680
0.1360721360 0.1360721360 0.0000000000
0.2041082040 0.2041082040 -0.0680360680
0.2721442719 0.2721442719 -0.1360721360
-0.2041082040 -0.3401803399 0.4762524759
-0.1360721360 -0.2721442719 0.4082164079
-0.0680360680 -0.2041082040 0.3401803399
0.0000000000 -0.1360721360 0.2721442719
0.0680360680 -0.0680360680 0.2041082040
0.1360721360 0.0000000000 0.1360721360
0.2041082040 0.0680360680 0.0680360680
0.2721442719 0.1360721360 0.0000000000
0.3401803399 0.2041082040 -0.0680360680
-0.1360721360 -0.4082164079 0.5442885439
-0.0680360680 -0.3401803399 0.4762524759
0.0000000000 -0.2721442719 0.4082164079
0.0680360680 -0.2041082040 0.3401803399
0.1360721360 -0.1360721360 0.2721442719
0.2041082040 -0.0680360680 0.2041082040
0.2721442719 0.0000000000 0.1360721360
0.3401803399 0.0680360680 0.0680360680
0.4082164079 0.1360721360 0.0000000000
-0.0680360680 -0.4762524759 0.6123246119
0.0000000000 -0.4082164079 0.5442885439
0.0680360680 -0.3401803399 0.4762524759
0.1360721360 -0.2721442719 0.4082164079
0.2041082040 -0.2041082040 0.3401803399
0.2721442719 -0.1360721360 0.2721442719
0.3401803399 -0.0680360680 0.2041082040
0.4082164079 0.0000000000 0.1360721360
0.4762524759 0.0680360680 0.0680360680
-0.6803606798 0.1360721360 0.1360721360
-0.6123246119 0.2041082040 0.0680360680
-0.5442885439 0.2721442719 0.0000000000
-0.4762524759 0.3401803399 -0.0680360680
-0.4082164079 0.4082164079 -0.1360721360
-0.3401803399 0.4762524759 -0.2041082040
-0.2721442719 0.5442885439 -0.2721442719
-0.2041082040 0.6123246119 -0.3401803399
-0.1360721360 0.6803606798 -0.4082164079
-0.6123246119 0.0680360680 0.2041082040
-0.5442885439 0.1360721360 0.1360721360
-0.4762524759 0.2041082040 0.0680360680
-0.4082164079 0.2721442719 -0.0000000000
-0.3401803399 0.3401803399 -0.0680360680
-0.2721442719 0.4082164079 -0.1360721360
-0.2041082040 0.4762524759 -0.2041082040
-0.1360721360 0.5442885439 -0.2721442719
-0.0680360680 0.6123246119 -0.3401803399
-0.5442885439 0.0000000000 0.2721442719
-0.4762524759 0.0680360680 0.2041082040
-0.4082164079 0.1360721360 0.1360721360
-0.3401803399 0.2041082040 0.0680360680
-0.2721442719 0.2721442719 0.0000000000
-0.2041082040 0.3401803399 -0.0680360680
-0.1360721360 0.4082164079 -0.1360721360
-0.0680360680 0.4762524759 -0.2041082040
0.0000000000 0.5442885439 -0.2721442719
-0.4762524759 -0.0680360680 0.3401803399
-0.4082164079 -0.0000000000 0.2721442719
-0.3401803399 0.0680360680 0.2041082040
-0.2721442719 0.1360721360 0.1360721360
-0.2041082040 0.2041082040 0.0680360680
-0.1360721360 0.2721442719 0.0000000000
-0.0680360680 0.3401803399 -0.0680360680
0.0000000000 0.4082164079 -0.1360721360
0.0680360680 0.4762524759 -0.2041082040
-0.4082164079 -0.1360721360 0.4082164079
-0.3401803399 -0.0680360680 0.3401803399
-0.2721442719 0.0000000000 0.2721442719
-0.2041082040 0.0680360680 0.2041082040
-0.1360721360 0.1360721360 0.1360721360
-0.0680360680 0.2041082040 0.0680360680
0.0000000000 0.2721442719 0.0000000000
0.0680360680 0.3401803399 -0.0680360680
0.1360721360 0.4082164079 -0.1360721360
-0.3401803399 -0.2041082040 0.4762524759
-0.2721442719 -0.1360721360 0.4082164079
-0.2041082040 -0.0680360680 0.3401803399
-0.1360721360 0.0000000000 0.2721442719
-0.0680360680 0.0680360680 0.2041082040
0.0000000000 0.1360721360 0.1360721360
0.0680360680 0.2041082040 0.0680360680
0.1360721360 0.2721442719 0.0000000000
0.2041082040 0.3401803399 -0.0680360680
-0.2721442719 -0.2721442719 0.5442885439
-0.2041082040 -0.2041082040 0.4762524759
-0.1360721360 -0.1360721360 0.4082164079
-0.0680360680 -0.0680360680 0.3401803399
0.0000000000 0.0000000000 0.2721442719
0.0680360680 0.0680360680 0.2041082040
0.1360721360 0.1360721360 0.1360721360
0.2041082040 0.2041082040 0.0680360680
0.2721442719 0.2721442719 0.0000000000
-0.2041082040 -0.3401803399 0.6123246119
-0.1360721360 -0.2721442719 0.5442885439
-0.0680360680 -0.2041082040 0.4762524759
0.0000000000 -0.1360721360 0.4082164079
0.0680360680 -0.0680360680 0.3401803399
0.1360721360 0.0000000000 0.2721442719
0.2041082040 0.0680360680 0.2041082040
0.2721442719 0.1360721360 0.1360721360
0.3401803399 0.2041082040 0.0680360680
-0.1360721360 -0.4082164079 0.6803606798
-0.0680360680 -0.3401803399 0.6123246119
0.0000000000 -0.2721442719 0.5442885439
0.0680360680 -0.2041082040 0.4762524759
0.1360721360 -0.1360721360 0.4082164079
0.2041082040 -0.0680360680 0.3401803399
0.2721442719 0.0000000000 0.2721442719
0.3401803399 0.0680360680 0.2041082040
0.4082164079 0.1360721360 0.1360721360
-0.7483967478 0.2041082040 0.2041082040
-0.6803606798 0.2721442719 0.1360721360
-0.6123246119 0.3401803399 0.0680360680
-0.5442885439 0.4082164079 -0.0000000000
-0.4762524759 0.4762524759 -0.0680360680
-0.4082164079 0.5442885439 -0.1360721360
-0.3401803399 0.6123246119 -0.2041082040
-0.2721442719 0.6803606798 -0.2721442719
-0.2041082040 0.7483967478 -0.3401803399
-0.6803606798 0.1360721360 0.2721442719
-0.6123246119 0.2041082040 0.2041082040
-0.5442885439 0.2721442719 0.1360721360
-0.4762524759 0.3401803399 0.0680360680
-0.4082164079 0.4082164079 -0.0000000000
-0.3401803399 0.4762524759 -0.0680360680
-0.2721442719 0.5442885439 -0.1360721360
-0.2041082040 0.6123246119 -0.2041082040
-0.1360721360 0.6803606798 -0.2721442719
-0.6123246119 0.0680360680 0.3401803399
-0.5442885439 0.1360721360 0.2721442719
-0.4762524759 0.2041082040 0.2041082040
-0.4082164079 0.2721442719 0.1360721360
-0.3401803399 0.3401803399 0.0680360680
-0.2721442719 0.4082164079 -0.0000000000
-0.2041082040 0.4762524759 -0.0680360680
-0.1360721360 0.5442885439 -0.1360721360
-0.0680360680 0.6123246119 -0.2041082040
-0.5442885439 0.0000000000 0.4082164079
-0.4762524759 0.0680360680 0.3401803399
-0.4082164079 0.1360721360 0.2721442719
-0.3401803399 0.2041082040 0.2041082040
-0.2721442719 0.2721442719 0.1360721360
-0.2041082040 0.3401803399 0.0680360680
-0.1360721360 0.4082164079 -0.0000000000
-0.0680360680 0.4762524759 -0.0680360680
0.0000000000 0.5442885439 -0.1360721360
-0.4762524759 -0.0680360680 0.4762524759
-0.4082164079 0.0000000000 0.4082164079
-0.3401803399 0.0680360680 0.3401803399
-0.2721442719 0.1360721360 0.2721442719
-0.2041082040 0.2041082040 0.2041082040
-0.1360721360 0.2721442719 0.1360721360
-0.0680360680 0.3401803399 0.0680360680
0.0000000000 0.4082164079 0.0000000000
0.0680360680 0.4762524759 -0.0680360680
-0.4082164079 -0.1360721360 0.5442885439
-0.3401803399 -0.0680360680 0.4762524759
-0.2721442719 0.0000000000 0.4082164079
-0.2041082040 0.0680360680 0.3401803399
-0.1360721360 0.1360721360 0.2721442719
-0.0680360680 0.2041082040 0.2041082040
0.0000000000 0.2721442719 0.1360721360
0.0680360680 0.3401803399 0.0680360680
0.1360721360 0.4082164079 0.0000000000
-0.3401803399 -0.2041082040 0.6123246119
-0.2721442719 -0.1360721360 0.5442885439
-0.2041082040 -0.0680360680 0.4762524759
-0.1360721360 0.0000000000 0.4082164079
-0.0680360680 0.0680360680 0.3401803399
0.0000000000 0.1360721360 0.2721442719
0.0680360680 0.2041082040 0.2041082040
0.1360721360 0.2721442719 0.1360721360
0.2041082040 0.3401803399 0.0680360680
-0.2721442719 -0.2721442719 0.6803606798
-0.2041082040 -0.2041082040 0.6123246119
-0.1360721360 -0.1360721360 0.5442885439
-0.0680360680 -0.0680360680 0.4762524759
0.0000000000 0.0000000000 0.4082164079
0.0680360680 0.0680360680 0.3401803399
0.1360721360 0.1360721360 0.2721442719
0.2041082040 0.2041082040 0.2041082040
0.2721442719 0.2721442719 0.1360721360
-0.2041082040 -0.3401803399 0.7483967478
-0.1360721360 -0.2721442719 0.6803606798
-0.0680360680 -0.2041082040 0.6123246119
0.0000000000 -0.1360721360 0.5442885439
0.0680360680 -0.0680360680 0.4762524759
0.1360721360 0.0000000000 0.4082164079
0.2041082040 0.0680360680 0.3401803399
0.2721442719 0.1360721360 0.2721442719
0.3401803399 0.2041082040 0.2041082040
-0.8164328158 0.2721442719 0.2721442719
-0.7483967478 0.3401803399 0.2041082040
-0.6803606798 0.4082164079 0.1360721360
-0.6123246119 0.4762524759 0.0680360680
-0.5442885439 0.5442885439 0.0000000000
-0.4762524759 0.6123246119 -0.0680360680
-0.4082164079 0.6803606798 -0.1360721360
-0.3401803399 0.7483967478 -0.2041082040
-0.2721442719 0.8164328158 -0.2721442719
-0.7483967478 0.2041082040 0.3401803399
-0.6803606798 0.2721442719 0.2721442719
-0.6123246119 0.3401803399 0.2041082040
-0.5442885439 0.4082164079 0.1360721360
-0.4762524759 0.4762524759 0.0680360680
-0.4082164079 0.5442885439 -0.0000000000
-0.3401803399 0.6123246119 -0.0680360680
-0.2721442719 0.6803606798 -0.1360721360
-0.2041082040 0.7483967478 -0.2041082040
-0.6803606798 0.1360721360 0.4082164079
-0.6123246119 0.2041082040 0.3401803399
-0.5442885439 0.2721442719 0.2721442719
-0.4762524759 0.3401803399 0.2041082040
-0.4082164079 0.4082164079 0.1360721360
-0.3401803399 0.4762524759 0.0680360680
-0.2721442719 0.5442885439 0.0000000000
-0.2041082040 0.6123246119 -0.0680360680
-0.1360721360 0.6803606798 -0.1360721360
-0.6123246119 0.0680360680 0.4762524759
-0.5442885439 0.1360721360 0.4082164079
-0.4762524759 0.2041082040 0.3401803399
-0.4082164079 0.2721442719 0.2721442719
-0.3401803399 0.3401803399 0.2041082040
-0.2721442719 0.4082164079 0.1360721360
-0.2041082040 0.4762524759 0.0680360680
-0.1360721360 0.5442885439 0.0000000000
-0.0680360680 0.6123246119 -0.0680360680
-0.5442885439 0.0000000000 0.5442885439
-0.4762524759 0.0680360680 0.4762524759
-0.4082164079 0.1360721360 0.4082164079
-0.3401803399 0.2041082040 0.3401803399
-0.2721442719 0.2721442719 0.2721442719
-0.2041082040 0.3401803399 0.2041082040
-0.1360721360 0.4082164079 0.1360721360
-0.0680360680 0.4762524759 0.0680360680
0.0000000000 0.5442885439 0.0000000000
-0.4762524759 -0.0680360680 0.6123246119
-0.4082164079 0.0000000000 0.5442885439
-0.3401803399 0.0680360680 0.4762524759
-0.2721442719 0.1360721360 0.4082164079
-0.2041082040 0.2041082040 0.3401803399
-0.1360721360 0.2721442719 0.2721442719
-0.0680360680 0.3401803399 0.2041082040
0.0000000000 0.4082164079 0.1360721360
0.0680360680 0.4762524759 0.0680360680
-0.4082164079 -0.1360721360 0.6803606798
-0.3401803399 -0.0680360680 0.6123246119
-0.2721442719 0.0000000000 0.5442885439
-0.2041082040 0.0680360680 0.4762524759
-0.1360721360 0.1360721360 0.4082164079
-0.0680360680 0.2041082040 0.3401803399
0.0000000000 0.2721442719 0.2721442719
0.0680360680 0.3401803399 0.2041082040
0.1360721360 0.4082164079 0.1360721360
-0.3401803399 -0.2041082040 0.7483967478
-0.2721442719 -0.1360721360 0.6803606798
-0.2041082040 -0.0680360680 0.6123246119
-0.1360721360 0.0000000000 0.5442885439
-0.0680360680 0.0680360680 0.4762524759
0.0000000000 0.1360721360 0.4082164079
0.0680360680 0.2041082040 0.3401803399
0.1360721360 0.2721442719 0.2721442719
0.2041082040 0.3401803399 0.2041082040
-0.2721442719 -0.2721442719 0.8164328158
-0.2041082040 -0.2041082040 0.7483967478
-0.1360721360 -0.1360721360 0.6803606798
-0.0680360680 -0.0680360680 0.6123246119
0.0000000000 0.0000000000 0.5442885439
0.0680360680 0.0680360680 0.4762524759
0.1360721360 0.1360721360 0.4082164079
0.2041082040 0.2041082040 0.3401803399
0.2721442719 0.2721442719 0.2721442719
 There are 14 alpha and 14 beta electrons
 Start computing overlap matrix
 Allocate 162409536 B from available memory: 1048575734752 B
 Time for computing overlap matrix: 3.9950000000 s
 ====== Initialize compute kernels for all-electron RI-J (kpts) ====== 
 ========================================================== 
 Range-separated parameter omega        = 0.299999999999999989
 Threshold for 1e2c shellpair           = 0.000000000000010000
 Threshold for 2e2c SR integral         = 0.000000000000000001
 Threshold for 2e3c SR integral         = 0.000000000100000000
 Threshold for AFT G-space screening is = 0.000000000001000000
 The exponent cutoff for C/D classification (omega2 / 2) is  = 0.044999999999999998
 ========================================================== 
 === Post process the basis set for RI calculation (exp_cutoff = 0.044999999999999998 ) === 
nshells_b1 before uncontraction = 28
nshells_b1 after uncontraction = 28
nshells_baux before uncontraction = 80
nshells_baux after uncontraction = 80
===============================================
nbsf total   = 118
nbsf compact = 118
nbsf diffuse = 0
naux total   = 296
naux compact = 296
naux diffuse = 0
nshells_bnuc = 2

 Number of unique atoms is 1
 Unique atom #0 (si) has 14 shells.

Shell 0 to 13 belongs to atom si
Shell 14 to 27 belongs to atom si

 Number of unique atom is 1
 Unique atom #0 (si) has 40 auxiliary shells.

Auxiliary Shell 0 to 39 belongs to atom si
Auxiliary Shell 40 to 79 belongs to atom si

================= Automatically determine grid size for reciprocal space summation =================
 Range-separated parameter = 0.30000000000000 and G-space screening threshold = 0.00000000000100
The number of grid points along each axis dimension is (4, 4, 4)
Total number of grid points = 729

Use nonortho shellpair for diffuse density
======== Initializing relevant kernel for RIJ (CC type) ========
There are 406 shellpairs in the reference unit cell
There are 3757 images and we expect to have 1525342 in total
There are 35954 shellpairs in the lattice sum after screening
****** AFT -> SR ******
Maximum bra distance cutoff is 30.000000000000
Maximum bra ket distance cutoff is 37.583407605466
Maximum bra ket screening distance is 30.187500000000
Number of auxiliary image is 1657
There are 406 shellpairs in the reference unit cell
There are 1031 images and we expect to have 418586 in total
There are 35954 shellpairs in the lattice sum after screening
Available memory per thread for 2e3c calculation is 32.762916413000Gb
Finish initializing 2e3c SR with the lattice sum!
=================================================
======== Initialize the SR component for Vnuc (CC type) ========
Maximum bra distance cutoff is 30.000000000000
Maximum bra ket distance cutoff is 31.203423477913
Maximum bra ket screening distance is 23.767099300136
Number of auxiliary image is 1097
There are 406 shellpairs in the reference unit cell
There are 1031 images and we expect to have 418586 in total
There are 35954 shellpairs in the lattice sum after screening
Available memory per thread for 2e3c calculation is 32.762916413000Gb
Finish initializing 2e3c SR with the lattice sum!
=================================================
 Aufbau occupation scheme, occupation determined by eigenvalue
 == 0-th k-point nmo = 114 (-0.27214,-0.27214,-0.27214) ==
 == 1-th k-point nmo = 114 (-0.20411,-0.20411,-0.34018) ==
 == 2-th k-point nmo = 114 (-0.13607,-0.13607,-0.40822) ==
 == 3-th k-point nmo = 114 (-0.06804,-0.06804,-0.47625) ==
 == 4-th k-point nmo = 114 (-0.00000,-0.00000,-0.54429) ==
 == 5-th k-point nmo = 114 (0.06804,0.06804,-0.61232) ==
 == 6-th k-point nmo = 114 (0.13607,0.13607,-0.68036) ==
 == 7-th k-point nmo = 114 (0.20411,0.20411,-0.74840) ==
 == 8-th k-point nmo = 114 (0.27214,0.27214,-0.81643) ==
 == 9-th k-point nmo = 114 (-0.20411,-0.34018,-0.20411) ==
 == 10-th k-point nmo = 114 (-0.13607,-0.27214,-0.27214) ==
 == 11-th k-point nmo = 114 (-0.06804,-0.20411,-0.34018) ==
 == 12-th k-point nmo = 114 (-0.00000,-0.13607,-0.40822) ==
 == 13-th k-point nmo = 114 (0.06804,-0.06804,-0.47625) ==
 == 14-th k-point nmo = 114 (0.13607,-0.00000,-0.54429) ==
 == 15-th k-point nmo = 114 (0.20411,0.06804,-0.61232) ==
 == 16-th k-point nmo = 114 (0.27214,0.13607,-0.68036) ==
 == 17-th k-point nmo = 114 (0.34018,0.20411,-0.74840) ==
 == 18-th k-point nmo = 114 (-0.13607,-0.40822,-0.13607) ==
 == 19-th k-point nmo = 114 (-0.06804,-0.34018,-0.20411) ==
 == 20-th k-point nmo = 114 (-0.00000,-0.27214,-0.27214) ==
 == 21-th k-point nmo = 114 (0.06804,-0.20411,-0.34018) ==
 == 22-th k-point nmo = 114 (0.13607,-0.13607,-0.40822) ==
 == 23-th k-point nmo = 114 (0.20411,-0.06804,-0.47625) ==
 == 24-th k-point nmo = 114 (0.27214,-0.00000,-0.54429) ==
 == 25-th k-point nmo = 114 (0.34018,0.06804,-0.61232) ==
 == 26-th k-point nmo = 114 (0.40822,0.13607,-0.68036) ==
 == 27-th k-point nmo = 114 (-0.06804,-0.47625,-0.06804) ==
 == 28-th k-point nmo = 114 (-0.00000,-0.40822,-0.13607) ==
 == 29-th k-point nmo = 114 (0.06804,-0.34018,-0.20411) ==
 == 30-th k-point nmo = 114 (0.13607,-0.27214,-0.27214) ==
 == 31-th k-point nmo = 114 (0.20411,-0.20411,-0.34018) ==
 == 32-th k-point nmo = 114 (0.27214,-0.13607,-0.40822) ==
 == 33-th k-point nmo = 114 (0.34018,-0.06804,-0.47625) ==
 == 34-th k-point nmo = 114 (0.40822,0.00000,-0.54429) ==
 == 35-th k-point nmo = 114 (0.47625,0.06804,-0.61232) ==
 == 36-th k-point nmo = 114 (-0.00000,-0.54429,0.00000) ==
 == 37-th k-point nmo = 114 (0.06804,-0.47625,-0.06804) ==
 == 38-th k-point nmo = 114 (0.13607,-0.40822,-0.13607) ==
 == 39-th k-point nmo = 114 (0.20411,-0.34018,-0.20411) ==
 == 40-th k-point nmo = 114 (0.27214,-0.27214,-0.27214) ==
 == 41-th k-point nmo = 114 (0.34018,-0.20411,-0.34018) ==
 == 42-th k-point nmo = 114 (0.40822,-0.13607,-0.40822) ==
 == 43-th k-point nmo = 114 (0.47625,-0.06804,-0.47625) ==
 == 44-th k-point nmo = 114 (0.54429,0.00000,-0.54429) ==
 == 45-th k-point nmo = 114 (0.06804,-0.61232,0.06804) ==
 == 46-th k-point nmo = 114 (0.13607,-0.54429,-0.00000) ==
 == 47-th k-point nmo = 114 (0.20411,-0.47625,-0.06804) ==
 == 48-th k-point nmo = 114 (0.27214,-0.40822,-0.13607) ==
 == 49-th k-point nmo = 114 (0.34018,-0.34018,-0.20411) ==
 == 50-th k-point nmo = 114 (0.40822,-0.27214,-0.27214) ==
 == 51-th k-point nmo = 114 (0.47625,-0.20411,-0.34018) ==
 == 52-th k-point nmo = 114 (0.54429,-0.13607,-0.40822) ==
 == 53-th k-point nmo = 114 (0.61232,-0.06804,-0.47625) ==
 == 54-th k-point nmo = 114 (0.13607,-0.68036,0.13607) ==
 == 55-th k-point nmo = 114 (0.20411,-0.61232,0.06804) ==
 == 56-th k-point nmo = 114 (0.27214,-0.54429,0.00000) ==
 == 57-th k-point nmo = 114 (0.34018,-0.47625,-0.06804) ==
 == 58-th k-point nmo = 114 (0.40822,-0.40822,-0.13607) ==
 == 59-th k-point nmo = 114 (0.47625,-0.34018,-0.20411) ==
 == 60-th k-point nmo = 114 (0.54429,-0.27214,-0.27214) ==
 == 61-th k-point nmo = 114 (0.61232,-0.20411,-0.34018) ==
 == 62-th k-point nmo = 114 (0.68036,-0.13607,-0.40822) ==
 == 63-th k-point nmo = 114 (0.20411,-0.74840,0.20411) ==
 == 64-th k-point nmo = 114 (0.27214,-0.68036,0.13607) ==
 == 65-th k-point nmo = 114 (0.34018,-0.61232,0.06804) ==
 == 66-th k-point nmo = 114 (0.40822,-0.54429,0.00000) ==
 == 67-th k-point nmo = 114 (0.47625,-0.47625,-0.06804) ==
 == 68-th k-point nmo = 114 (0.54429,-0.40822,-0.13607) ==
 == 69-th k-point nmo = 114 (0.61232,-0.34018,-0.20411) ==
 == 70-th k-point nmo = 114 (0.68036,-0.27214,-0.27214) ==
 == 71-th k-point nmo = 114 (0.74840,-0.20411,-0.34018) ==
 == 72-th k-point nmo = 114 (0.27214,-0.81643,0.27214) ==
 == 73-th k-point nmo = 114 (0.34018,-0.74840,0.20411) ==
 == 74-th k-point nmo = 114 (0.40822,-0.68036,0.13607) ==
 == 75-th k-point nmo = 114 (0.47625,-0.61232,0.06804) ==
 == 76-th k-point nmo = 114 (0.54429,-0.54429,0.00000) ==
 == 77-th k-point nmo = 114 (0.61232,-0.47625,-0.06804) ==
 == 78-th k-point nmo = 114 (0.68036,-0.40822,-0.13607) ==
 == 79-th k-point nmo = 114 (0.74840,-0.34018,-0.20411) ==
 == 80-th k-point nmo = 114 (0.81643,-0.27214,-0.27214) ==
 == 81-th k-point nmo = 114 (-0.34018,-0.20411,-0.20411) ==
 == 82-th k-point nmo = 114 (-0.27214,-0.13607,-0.27214) ==
 == 83-th k-point nmo = 114 (-0.20411,-0.06804,-0.34018) ==
 == 84-th k-point nmo = 114 (-0.13607,-0.00000,-0.40822) ==
 == 85-th k-point nmo = 114 (-0.06804,0.06804,-0.47625) ==
 == 86-th k-point nmo = 114 (-0.00000,0.13607,-0.54429) ==
 == 87-th k-point nmo = 114 (0.06804,0.20411,-0.61232) ==
 == 88-th k-point nmo = 114 (0.13607,0.27214,-0.68036) ==
 == 89-th k-point nmo = 114 (0.20411,0.34018,-0.74840) ==
 == 90-th k-point nmo = 114 (-0.27214,-0.27214,-0.13607) ==
 == 91-th k-point nmo = 114 (-0.20411,-0.20411,-0.20411) ==
 == 92-th k-point nmo = 114 (-0.13607,-0.13607,-0.27214) ==
 == 93-th k-point nmo = 114 (-0.06804,-0.06804,-0.34018) ==
 == 94-th k-point nmo = 114 (-0.00000,-0.00000,-0.40822) ==
 == 95-th k-point nmo = 114 (0.06804,0.06804,-0.47625) ==
 == 96-th k-point nmo = 114 (0.13607,0.13607,-0.54429) ==
 == 97-th k-point nmo = 114 (0.20411,0.20411,-0.61232) ==
 == 98-th k-point nmo = 114 (0.27214,0.27214,-0.68036) ==
 == 99-th k-point nmo = 114 (-0.20411,-0.34018,-0.06804) ==
 == 100-th k-point nmo = 114 (-0.13607,-0.27214,-0.13607) ==
 == 101-th k-point nmo = 114 (-0.06804,-0.20411,-0.20411) ==
 == 102-th k-point nmo = 114 (-0.00000,-0.13607,-0.27214) ==
 == 103-th k-point nmo = 114 (0.06804,-0.06804,-0.34018) ==
 == 104-th k-point nmo = 114 (0.13607,-0.00000,-0.40822) ==
 == 105-th k-point nmo = 114 (0.20411,0.06804,-0.47625) ==
 == 106-th k-point nmo = 114 (0.27214,0.13607,-0.54429) ==
 == 107-th k-point nmo = 114 (0.34018,0.20411,-0.61232) ==
 == 108-th k-point nmo = 114 (-0.13607,-0.40822,0.00000) ==
 == 109-th k-point nmo = 114 (-0.06804,-0.34018,-0.06804) ==
 == 110-th k-point nmo = 114 (-0.00000,-0.27214,-0.13607) ==
 == 111-th k-point nmo = 114 (0.06804,-0.20411,-0.20411) ==
 == 112-th k-point nmo = 114 (0.13607,-0.13607,-0.27214) ==
 == 113-th k-point nmo = 114 (0.20411,-0.06804,-0.34018) ==
 == 114-th k-point nmo = 114 (0.27214,-0.00000,-0.40822) ==
 == 115-th k-point nmo = 114 (0.34018,0.06804,-0.47625) ==
 == 116-th k-point nmo = 114 (0.40822,0.13607,-0.54429) ==
 == 117-th k-point nmo = 114 (-0.06804,-0.47625,0.06804) ==
 == 118-th k-point nmo = 114 (-0.00000,-0.40822,0.00000) ==
 == 119-th k-point nmo = 114 (0.06804,-0.34018,-0.06804) ==
 == 120-th k-point nmo = 114 (0.13607,-0.27214,-0.13607) ==
 == 121-th k-point nmo = 114 (0.20411,-0.20411,-0.20411) ==
 == 122-th k-point nmo = 114 (0.27214,-0.13607,-0.27214) ==
 == 123-th k-point nmo = 114 (0.34018,-0.06804,-0.34018) ==
 == 124-th k-point nmo = 114 (0.40822,0.00000,-0.40822) ==
 == 125-th k-point nmo = 114 (0.47625,0.06804,-0.47625) ==
 == 126-th k-point nmo = 114 (-0.00000,-0.54429,0.13607) ==
 == 127-th k-point nmo = 114 (0.06804,-0.47625,0.06804) ==
 == 128-th k-point nmo = 114 (0.13607,-0.40822,0.00000) ==
 == 129-th k-point nmo = 114 (0.20411,-0.34018,-0.06804) ==
 == 130-th k-point nmo = 114 (0.27214,-0.27214,-0.13607) ==
 == 131-th k-point nmo = 114 (0.34018,-0.20411,-0.20411) ==
 == 132-th k-point nmo = 114 (0.40822,-0.13607,-0.27214) ==
 == 133-th k-point nmo = 114 (0.47625,-0.06804,-0.34018) ==
 == 134-th k-point nmo = 114 (0.54429,0.00000,-0.40822) ==
 == 135-th k-point nmo = 114 (0.06804,-0.61232,0.20411) ==
 == 136-th k-point nmo = 114 (0.13607,-0.54429,0.13607) ==
 == 137-th k-point nmo = 114 (0.20411,-0.47625,0.06804) ==
 == 138-th k-point nmo = 114 (0.27214,-0.40822,0.00000) ==
 == 139-th k-point nmo = 114 (0.34018,-0.34018,-0.06804) ==
 == 140-th k-point nmo = 114 (0.40822,-0.27214,-0.13607) ==
 == 141-th k-point nmo = 114 (0.47625,-0.20411,-0.20411) ==
 == 142-th k-point nmo = 114 (0.54429,-0.13607,-0.27214) ==
 == 143-th k-point nmo = 114 (0.61232,-0.06804,-0.34018) ==
 == 144-th k-point nmo = 114 (0.13607,-0.68036,0.27214) ==
 == 145-th k-point nmo = 114 (0.20411,-0.61232,0.20411) ==
 == 146-th k-point nmo = 114 (0.27214,-0.54429,0.13607) ==
 == 147-th k-point nmo = 114 (0.34018,-0.47625,0.06804) ==
 == 148-th k-point nmo = 114 (0.40822,-0.40822,0.00000) ==
 == 149-th k-point nmo = 114 (0.47625,-0.34018,-0.06804) ==
 == 150-th k-point nmo = 114 (0.54429,-0.27214,-0.13607) ==
 == 151-th k-point nmo = 114 (0.61232,-0.20411,-0.20411) ==
 == 152-th k-point nmo = 114 (0.68036,-0.13607,-0.27214) ==
 == 153-th k-point nmo = 114 (0.20411,-0.74840,0.34018) ==
 == 154-th k-point nmo = 114 (0.27214,-0.68036,0.27214) ==
 == 155-th k-point nmo = 114 (0.34018,-0.61232,0.20411) ==
 == 156-th k-point nmo = 114 (0.40822,-0.54429,0.13607) ==
 == 157-th k-point nmo = 114 (0.47625,-0.47625,0.06804) ==
 == 158-th k-point nmo = 114 (0.54429,-0.40822,0.00000) ==
 == 159-th k-point nmo = 114 (0.61232,-0.34018,-0.06804) ==
 == 160-th k-point nmo = 114 (0.68036,-0.27214,-0.13607) ==
 == 161-th k-point nmo = 114 (0.74840,-0.20411,-0.20411) ==
 == 162-th k-point nmo = 114 (-0.40822,-0.13607,-0.13607) ==
 == 163-th k-point nmo = 114 (-0.34018,-0.06804,-0.20411) ==
 == 164-th k-point nmo = 114 (-0.27214,-0.00000,-0.27214) ==
 == 165-th k-point nmo = 114 (-0.20411,0.06804,-0.34018) ==
 == 166-th k-point nmo = 114 (-0.13607,0.13607,-0.40822) ==
 == 167-th k-point nmo = 114 (-0.06804,0.20411,-0.47625) ==
 == 168-th k-point nmo = 114 (-0.00000,0.27214,-0.54429) ==
 == 169-th k-point nmo = 114 (0.06804,0.34018,-0.61232) ==
 == 170-th k-point nmo = 114 (0.13607,0.40822,-0.68036) ==
 == 171-th k-point nmo = 114 (-0.34018,-0.20411,-0.06804) ==
 == 172-th k-point nmo = 114 (-0.27214,-0.13607,-0.13607) ==
 == 173-th k-point nmo = 114 (-0.20411,-0.06804,-0.20411) ==
 == 174-th k-point nmo = 114 (-0.13607,-0.00000,-0.27214) ==
 == 175-th k-point nmo = 114 (-0.06804,0.06804,-0.34018) ==
 == 176-th k-point nmo = 114 (-0.00000,0.13607,-0.40822) ==
 == 177-th k-point nmo = 114 (0.06804,0.20411,-0.47625) ==
 == 178-th k-point nmo = 114 (0.13607,0.27214,-0.54429) ==
 == 179-th k-point nmo = 114 (0.20411,0.34018,-0.61232) ==
 == 180-th k-point nmo = 114 (-0.27214,-0.27214,0.00000) ==
 == 181-th k-point nmo = 114 (-0.20411,-0.20411,-0.06804) ==
 == 182-th k-point nmo = 115 (-0.13607,-0.13607,-0.13607) ==
 == 183-th k-point nmo = 114 (-0.06804,-0.06804,-0.20411) ==
 == 184-th k-point nmo = 114 (-0.00000,-0.00000,-0.27214) ==
 == 185-th k-point nmo = 114 (0.06804,0.06804,-0.34018) ==
 == 186-th k-point nmo = 114 (0.13607,0.13607,-0.40822) ==
 == 187-th k-point nmo = 114 (0.20411,0.20411,-0.47625) ==
 == 188-th k-point nmo = 114 (0.27214,0.27214,-0.54429) ==
 == 189-th k-point nmo = 114 (-0.20411,-0.34018,0.06804) ==
 == 190-th k-point nmo = 114 (-0.13607,-0.27214,-0.00000) ==
 == 191-th k-point nmo = 114 (-0.06804,-0.20411,-0.06804) ==
 == 192-th k-point nmo = 115 (-0.00000,-0.13607,-0.13607) ==
 == 193-th k-point nmo = 114 (0.06804,-0.06804,-0.20411) ==
 == 194-th k-point nmo = 114 (0.13607,-0.00000,-0.27214) ==
 == 195-th k-point nmo = 114 (0.20411,0.06804,-0.34018) ==
 == 196-th k-point nmo = 114 (0.27214,0.13607,-0.40822) ==
 == 197-th k-point nmo = 114 (0.34018,0.20411,-0.47625) ==
 == 198-th k-point nmo = 114 (-0.13607,-0.40822,0.13607) ==
 == 199-th k-point nmo = 114 (-0.06804,-0.34018,0.06804) ==
 == 200-th k-point nmo = 114 (-0.00000,-0.27214,0.00000) ==
 == 201-th k-point nmo = 114 (0.06804,-0.20411,-0.06804) ==
 == 202-th k-point nmo = 115 (0.13607,-0.13607,-0.13607) ==
 == 203-th k-point nmo = 114 (0.20411,-0.06804,-0.20411) ==
 == 204-th k-point nmo = 114 (0.27214,0.00000,-0.27214) ==
 == 205-th k-point nmo = 114 (0.34018,0.06804,-0.34018) ==
 == 206-th k-point nmo = 114 (0.40822,0.13607,-0.40822) ==
 == 207-th k-point nmo = 114 (-0.06804,-0.47625,0.20411) ==
 == 208-th k-point nmo = 114 (-0.00000,-0.40822,0.13607) ==
 == 209-th k-point nmo = 114 (0.06804,-0.34018,0.06804) ==
 == 210-th k-point nmo = 114 (0.13607,-0.27214,0.00000) ==
 == 211-th k-point nmo = 114 (0.20411,-0.20411,-0.06804) ==
 == 212-th k-point nmo = 114 (0.27214,-0.13607,-0.13607) ==
 == 213-th k-point nmo = 114 (0.34018,-0.06804,-0.20411) ==
 == 214-th k-point nmo = 114 (0.40822,0.00000,-0.27214) ==
 == 215-th k-point nmo = 114 (0.47625,0.06804,-0.34018) ==
 == 216-th k-point nmo = 114 (-0.00000,-0.54429,0.27214) ==
 == 217-th k-point nmo = 114 (0.06804,-0.47625,0.20411) ==
 == 218-th k-point nmo = 114 (0.13607,-0.40822,0.13607) ==
 == 219-th k-point nmo = 114 (0.20411,-0.34018,0.06804) ==
 == 220-th k-point nmo = 114 (0.27214,-0.27214,0.00000) ==
 == 221-th k-point nmo = 114 (0.34018,-0.20411,-0.06804) ==
 == 222-th k-point nmo = 114 (0.40822,-0.13607,-0.13607) ==
 == 223-th k-point nmo = 114 (0.47625,-0.06804,-0.20411) ==
 == 224-th k-point nmo = 114 (0.54429,0.00000,-0.27214) ==
 == 225-th k-point nmo = 114 (0.06804,-0.61232,0.34018) ==
 == 226-th k-point nmo = 114 (0.13607,-0.54429,0.27214) ==
 == 227-th k-point nmo = 114 (0.20411,-0.47625,0.20411) ==
 == 228-th k-point nmo = 114 (0.27214,-0.40822,0.13607) ==
 == 229-th k-point nmo = 114 (0.34018,-0.34018,0.06804) ==
 == 230-th k-point nmo = 114 (0.40822,-0.27214,0.00000) ==
 == 231-th k-point nmo = 114 (0.47625,-0.20411,-0.06804) ==
 == 232-th k-point nmo = 114 (0.54429,-0.13607,-0.13607) ==
 == 233-th k-point nmo = 114 (0.61232,-0.06804,-0.20411) ==
 == 234-th k-point nmo = 114 (0.13607,-0.68036,0.40822) ==
 == 235-th k-point nmo = 114 (0.20411,-0.61232,0.34018) ==
 == 236-th k-point nmo = 114 (0.27214,-0.54429,0.27214) ==
 == 237-th k-point nmo = 114 (0.34018,-0.47625,0.20411) ==
 == 238-th k-point nmo = 114 (0.40822,-0.40822,0.13607) ==
 == 239-th k-point nmo = 114 (0.47625,-0.34018,0.06804) ==
 == 240-th k-point nmo = 114 (0.54429,-0.27214,0.00000) ==
 == 241-th k-point nmo = 114 (0.61232,-0.20411,-0.06804) ==
 == 242-th k-point nmo = 114 (0.68036,-0.13607,-0.13607) ==
 == 243-th k-point nmo = 114 (-0.47625,-0.06804,-0.06804) ==
 == 244-th k-point nmo = 114 (-0.40822,-0.00000,-0.13607) ==
 == 245-th k-point nmo = 114 (-0.34018,0.06804,-0.20411) ==
 == 246-th k-point nmo = 114 (-0.27214,0.13607,-0.27214) ==
 == 247-th k-point nmo = 114 (-0.20411,0.20411,-0.34018) ==
 == 248-th k-point nmo = 114 (-0.13607,0.27214,-0.40822) ==
 == 249-th k-point nmo = 114 (-0.06804,0.34018,-0.47625) ==
 == 250-th k-point nmo = 114 (0.00000,0.40822,-0.54429) ==
 == 251-th k-point nmo = 114 (0.06804,0.47625,-0.61232) ==
 == 252-th k-point nmo = 114 (-0.40822,-0.13607,0.00000) ==
 == 253-th k-point nmo = 114 (-0.34018,-0.06804,-0.06804) ==
 == 254-th k-point nmo = 114 (-0.27214,-0.00000,-0.13607) ==
 == 255-th k-point nmo = 114 (-0.20411,0.06804,-0.20411) ==
 == 256-th k-point nmo = 114 (-0.13607,0.13607,-0.27214) ==
 == 257-th k-point nmo = 114 (-0.06804,0.20411,-0.34018) ==
 == 258-th k-point nmo = 114 (0.00000,0.27214,-0.40822) ==
 == 259-th k-point nmo = 114 (0.06804,0.34018,-0.47625) ==
 == 260-th k-point nmo = 114 (0.13607,0.40822,-0.54429) ==
 == 261-th k-point nmo = 114 (-0.34018,-0.20411,0.06804) ==
 == 262-th k-point nmo = 114 (-0.27214,-0.13607,-0.00000) ==
 == 263-th k-point nmo = 114 (-0.20411,-0.06804,-0.06804) ==
 == 264-th k-point nmo = 115 (-0.13607,-0.00000,-0.13607) ==
 == 265-th k-point nmo = 114 (-0.06804,0.06804,-0.20411) ==
 == 266-th k-point nmo = 114 (-0.00000,0.13607,-0.27214) ==
 == 267-th k-point nmo = 114 (0.06804,0.20411,-0.34018) ==
 == 268-th k-point nmo = 114 (0.13607,0.27214,-0.40822) ==
 == 269-th k-point nmo = 114 (0.20411,0.34018,-0.47625) ==
 == 270-th k-point nmo = 114 (-0.27214,-0.27214,0.13607) ==
 == 271-th k-point nmo = 114 (-0.20411,-0.20411,0.06804) ==
 == 272-th k-point nmo = 115 (-0.13607,-0.13607,0.00000) ==
 == 273-th k-point nmo = 115 (-0.06804,-0.06804,-0.06804) ==
 == 274-th k-point nmo = 116 (-0.00000,-0.00000,-0.13607) ==
 == 275-th k-point nmo = 114 (0.06804,0.06804,-0.20411) ==
 == 276-th k-point nmo = 114 (0.13607,0.13607,-0.27214) ==
 == 277-th k-point nmo = 114 (0.20411,0.20411,-0.34018) ==
 == 278-th k-point nmo = 114 (0.27214,0.27214,-0.40822) ==
 == 279-th k-point nmo = 114 (-0.20411,-0.34018,0.20411) ==
 == 280-th k-point nmo = 114 (-0.13607,-0.27214,0.13607) ==
 == 281-th k-point nmo = 114 (-0.06804,-0.20411,0.06804) ==
 == 282-th k-point nmo = 116 (-0.00000,-0.13607,0.00000) ==
 == 283-th k-point nmo = 115 (0.06804,-0.06804,-0.06804) ==
 == 284-th k-point nmo = 115 (0.13607,0.00000,-0.13607) ==
 == 285-th k-point nmo = 114 (0.20411,0.06804,-0.20411) ==
 == 286-th k-point nmo = 114 (0.27214,0.13607,-0.27214) ==
 == 287-th k-point nmo = 114 (0.34018,0.20411,-0.34018) ==
 == 288-th k-point nmo = 114 (-0.13607,-0.40822,0.27214) ==
 == 289-th k-point nmo = 114 (-0.06804,-0.34018,0.20411) ==
 == 290-th k-point nmo = 114 (-0.00000,-0.27214,0.13607) ==
 == 291-th k-point nmo = 114 (0.06804,-0.20411,0.06804) ==
 == 292-th k-point nmo = 115 (0.13607,-0.13607,0.00000) ==
 == 293-th k-point nmo = 114 (0.20411,-0.06804,-0.06804) ==
 == 294-th k-point nmo = 114 (0.27214,0.00000,-0.13607) ==
 == 295-th k-point nmo = 114 (0.34018,0.06804,-0.20411) ==
 == 296-th k-point nmo = 114 (0.40822,0.13607,-0.27214) ==
 == 297-th k-point nmo = 114 (-0.06804,-0.47625,0.34018) ==
 == 298-th k-point nmo = 114 (-0.00000,-0.40822,0.27214) ==
 == 299-th k-point nmo = 114 (0.06804,-0.34018,0.20411) ==
 == 300-th k-point nmo = 114 (0.13607,-0.27214,0.13607) ==
 == 301-th k-point nmo = 114 (0.20411,-0.20411,0.06804) ==
 == 302-th k-point nmo = 114 (0.27214,-0.13607,0.00000) ==
 == 303-th k-point nmo = 114 (0.34018,-0.06804,-0.06804) ==
 == 304-th k-point nmo = 114 (0.40822,0.00000,-0.13607) ==
 == 305-th k-point nmo = 114 (0.47625,0.06804,-0.20411) ==
 == 306-th k-point nmo = 114 (-0.00000,-0.54429,0.40822) ==
 == 307-th k-point nmo = 114 (0.06804,-0.47625,0.34018) ==
 == 308-th k-point nmo = 114 (0.13607,-0.40822,0.27214) ==
 == 309-th k-point nmo = 114 (0.20411,-0.34018,0.20411) ==
 == 310-th k-point nmo = 114 (0.27214,-0.27214,0.13607) ==
 == 311-th k-point nmo = 114 (0.34018,-0.20411,0.06804) ==
 == 312-th k-point nmo = 114 (0.40822,-0.13607,0.00000) ==
 == 313-th k-point nmo = 114 (0.47625,-0.06804,-0.06804) ==
 == 314-th k-point nmo = 114 (0.54429,0.00000,-0.13607) ==
 == 315-th k-point nmo = 114 (0.06804,-0.61232,0.47625) ==
 == 316-th k-point nmo = 114 (0.13607,-0.54429,0.40822) ==
 == 317-th k-point nmo = 114 (0.20411,-0.47625,0.34018) ==
 == 318-th k-point nmo = 114 (0.27214,-0.40822,0.27214) ==
 == 319-th k-point nmo = 114 (0.34018,-0.34018,0.20411) ==
 == 320-th k-point nmo = 114 (0.40822,-0.27214,0.13607) ==
 == 321-th k-point nmo = 114 (0.47625,-0.20411,0.06804) ==
 == 322-th k-point nmo = 114 (0.54429,-0.13607,0.00000) ==
 == 323-th k-point nmo = 114 (0.61232,-0.06804,-0.06804) ==
 == 324-th k-point nmo = 114 (-0.54429,-0.00000,0.00000) ==
 == 325-th k-point nmo = 114 (-0.47625,0.06804,-0.06804) ==
 == 326-th k-point nmo = 114 (-0.40822,0.13607,-0.13607) ==
 == 327-th k-point nmo = 114 (-0.34018,0.20411,-0.20411) ==
 == 328-th k-point nmo = 114 (-0.27214,0.27214,-0.27214) ==
 == 329-th k-point nmo = 114 (-0.20411,0.34018,-0.34018) ==
 == 330-th k-point nmo = 114 (-0.13607,0.40822,-0.40822) ==
 == 331-th k-point nmo = 114 (-0.06804,0.47625,-0.47625) ==
 == 332-th k-point nmo = 114 (0.00000,0.54429,-0.54429) ==
 == 333-th k-point nmo = 114 (-0.47625,-0.06804,0.06804) ==
 == 334-th k-point nmo = 114 (-0.40822,-0.00000,-0.00000) ==
 == 335-th k-point nmo = 114 (-0.34018,0.06804,-0.06804) ==
 == 336-th k-point nmo = 114 (-0.27214,0.13607,-0.13607) ==
 == 337-th k-point nmo = 114 (-0.20411,0.20411,-0.20411) ==
 == 338-th k-point nmo = 114 (-0.13607,0.27214,-0.27214) ==
 == 339-th k-point nmo = 114 (-0.06804,0.34018,-0.34018) ==
 == 340-th k-point nmo = 114 (0.00000,0.40822,-0.40822) ==
 == 341-th k-point nmo = 114 (0.06804,0.47625,-0.47625) ==
 == 342-th k-point nmo = 114 (-0.40822,-0.13607,0.13607) ==
 == 343-th k-point nmo = 114 (-0.34018,-0.06804,0.06804) ==
 == 344-th k-point nmo = 114 (-0.27214,-0.00000,0.00000) ==
 == 345-th k-point nmo = 114 (-0.20411,0.06804,-0.06804) ==
 == 346-th k-point nmo = 115 (-0.13607,0.13607,-0.13607) ==
 == 347-th k-point nmo = 114 (-0.06804,0.20411,-0.20411) ==
 == 348-th k-point nmo = 114 (0.00000,0.27214,-0.27214) ==
 == 349-th k-point nmo = 114 (0.06804,0.34018,-0.34018) ==
 == 350-th k-point nmo = 114 (0.13607,0.40822,-0.40822) ==
 == 351-th k-point nmo = 114 (-0.34018,-0.20411,0.20411) ==
 == 352-th k-point nmo = 114 (-0.27214,-0.13607,0.13607) ==
 == 353-th k-point nmo = 114 (-0.20411,-0.06804,0.06804) ==
 == 354-th k-point nmo = 116 (-0.13607,-0.00000,0.00000) ==
 == 355-th k-point nmo = 115 (-0.06804,0.06804,-0.06804) ==
 == 356-th k-point nmo = 115 (0.00000,0.13607,-0.13607) ==
 == 357-th k-point nmo = 114 (0.06804,0.20411,-0.20411) ==
 == 358-th k-point nmo = 114 (0.13607,0.27214,-0.27214) ==
 == 359-th k-point nmo = 114 (0.20411,0.34018,-0.34018) ==
 == 360-th k-point nmo = 114 (-0.27214,-0.27214,0.27214) ==
 == 361-th k-point nmo = 114 (-0.20411,-0.20411,0.20411) ==
 == 362-th k-point nmo = 115 (-0.13607,-0.13607,0.13607) ==
 == 363-th k-point nmo = 115 (-0.06804,-0.06804,0.06804) ==
 == 364-th k-point nmo = 115 (0.00000,0.00000,0.00000) ==
 == 365-th k-point nmo = 115 (0.06804,0.06804,-0.06804) ==
 == 366-th k-point nmo = 115 (0.13607,0.13607,-0.13607) ==
 == 367-th k-point nmo = 114 (0.20411,0.20411,-0.20411) ==
 == 368-th k-point nmo = 114 (0.27214,0.27214,-0.27214) ==
 == 369-th k-point nmo = 114 (-0.20411,-0.34018,0.34018) ==
 == 370-th k-point nmo = 114 (-0.13607,-0.27214,0.27214) ==
 == 371-th k-point nmo = 114 (-0.06804,-0.20411,0.20411) ==
 == 372-th k-point nmo = 115 (0.00000,-0.13607,0.13607) ==
 == 373-th k-point nmo = 115 (0.06804,-0.06804,0.06804) ==
 == 374-th k-point nmo = 116 (0.13607,0.00000,0.00000) ==
 == 375-th k-point nmo = 114 (0.20411,0.06804,-0.06804) ==
 == 376-th k-point nmo = 114 (0.27214,0.13607,-0.13607) ==
 == 377-th k-point nmo = 114 (0.34018,0.20411,-0.20411) ==
 == 378-th k-point nmo = 114 (-0.13607,-0.40822,0.40822) ==
 == 379-th k-point nmo = 114 (-0.06804,-0.34018,0.34018) ==
 == 380-th k-point nmo = 114 (0.00000,-0.27214,0.27214) ==
 == 381-th k-point nmo = 114 (0.06804,-0.20411,0.20411) ==
 == 382-th k-point nmo = 115 (0.13607,-0.13607,0.13607) ==
 == 383-th k-point nmo = 114 (0.20411,-0.06804,0.06804) ==
 == 384-th k-point nmo = 114 (0.27214,0.00000,0.00000) ==
 == 385-th k-point nmo = 114 (0.34018,0.06804,-0.06804) ==
 == 386-th k-point nmo = 114 (0.40822,0.13607,-0.13607) ==
 == 387-th k-point nmo = 114 (-0.06804,-0.47625,0.47625) ==
 == 388-th k-point nmo = 114 (-0.00000,-0.40822,0.40822) ==
 == 389-th k-point nmo = 114 (0.06804,-0.34018,0.34018) ==
 == 390-th k-point nmo = 114 (0.13607,-0.27214,0.27214) ==
 == 391-th k-point nmo = 114 (0.20411,-0.20411,0.20411) ==
 == 392-th k-point nmo = 114 (0.27214,-0.13607,0.13607) ==
 == 393-th k-point nmo = 114 (0.34018,-0.06804,0.06804) ==
 == 394-th k-point nmo = 114 (0.40822,0.00000,0.00000) ==
 == 395-th k-point nmo = 114 (0.47625,0.06804,-0.06804) ==
 == 396-th k-point nmo = 114 (0.00000,-0.54429,0.54429) ==
 == 397-th k-point nmo = 114 (0.06804,-0.47625,0.47625) ==
 == 398-th k-point nmo = 114 (0.13607,-0.40822,0.40822) ==
 == 399-th k-point nmo = 114 (0.20411,-0.34018,0.34018) ==
 == 400-th k-point nmo = 114 (0.27214,-0.27214,0.27214) ==
 == 401-th k-point nmo = 114 (0.34018,-0.20411,0.20411) ==
 == 402-th k-point nmo = 114 (0.40822,-0.13607,0.13607) ==
 == 403-th k-point nmo = 114 (0.47625,-0.06804,0.06804) ==
 == 404-th k-point nmo = 114 (0.54429,0.00000,0.00000) ==
 == 405-th k-point nmo = 114 (-0.61232,0.06804,0.06804) ==
 == 406-th k-point nmo = 114 (-0.54429,0.13607,-0.00000) ==
 == 407-th k-point nmo = 114 (-0.47625,0.20411,-0.06804) ==
 == 408-th k-point nmo = 114 (-0.40822,0.27214,-0.13607) ==
 == 409-th k-point nmo = 114 (-0.34018,0.34018,-0.20411) ==
 == 410-th k-point nmo = 114 (-0.27214,0.40822,-0.27214) ==
 == 411-th k-point nmo = 114 (-0.20411,0.47625,-0.34018) ==
 == 412-th k-point nmo = 114 (-0.13607,0.54429,-0.40822) ==
 == 413-th k-point nmo = 114 (-0.06804,0.61232,-0.47625) ==
 == 414-th k-point nmo = 114 (-0.54429,-0.00000,0.13607) ==
 == 415-th k-point nmo = 114 (-0.47625,0.06804,0.06804) ==
 == 416-th k-point nmo = 114 (-0.40822,0.13607,-0.00000) ==
 == 417-th k-point nmo = 114 (-0.34018,0.20411,-0.06804) ==
 == 418-th k-point nmo = 114 (-0.27214,0.27214,-0.13607) ==
 == 419-th k-point nmo = 114 (-0.20411,0.34018,-0.20411) ==
 == 420-th k-point nmo = 114 (-0.13607,0.40822,-0.27214) ==
 == 421-th k-point nmo = 114 (-0.06804,0.47625,-0.34018) ==
 == 422-th k-point nmo = 114 (0.00000,0.54429,-0.40822) ==
 == 423-th k-point nmo = 114 (-0.47625,-0.06804,0.20411) ==
 == 424-th k-point nmo = 114 (-0.40822,-0.00000,0.13607) ==
 == 425-th k-point nmo = 114 (-0.34018,0.06804,0.06804) ==
 == 426-th k-point nmo = 114 (-0.27214,0.13607,0.00000) ==
 == 427-th k-point nmo = 114 (-0.20411,0.20411,-0.06804) ==
 == 428-th k-point nmo = 114 (-0.13607,0.27214,-0.13607) ==
 == 429-th k-point nmo = 114 (-0.06804,0.34018,-0.20411) ==
 == 430-th k-point nmo = 114 (0.00000,0.40822,-0.27214) ==
 == 431-th k-point nmo = 114 (0.06804,0.47625,-0.34018) ==
 == 432-th k-point nmo = 114 (-0.40822,-0.13607,0.27214) ==
 == 433-th k-point nmo = 114 (-0.34018,-0.06804,0.20411) ==
 == 434-th k-point nmo = 114 (-0.27214,0.00000,0.13607) ==
 == 435-th k-point nmo = 114 (-0.20411,0.06804,0.06804) ==
 == 436-th k-point nmo = 115 (-0.13607,0.13607,0.00000) ==
 == 437-th k-point nmo = 114 (-0.06804,0.20411,-0.06804) ==
 == 438-th k-point nmo = 114 (0.00000,0.27214,-0.13607) ==
 == 439-th k-point nmo = 114 (0.06804,0.34018,-0.20411) ==
 == 440-th k-point nmo = 114 (0.13607,0.40822,-0.27214) ==
 == 441-th k-point nmo = 114 (-0.34018,-0.20411,0.34018) ==
 == 442-th k-point nmo = 114 (-0.27214,-0.13607,0.27214) ==
 == 443-th k-point nmo = 114 (-0.20411,-0.06804,0.20411) ==
 == 444-th k-point nmo = 115 (-0.13607,0.00000,0.13607) ==
 == 445-th k-point nmo = 115 (-0.06804,0.06804,0.06804) ==
 == 446-th k-point nmo = 116 (0.00000,0.13607,0.00000) ==
 == 447-th k-point nmo = 114 (0.06804,0.20411,-0.06804) ==
 == 448-th k-point nmo = 114 (0.13607,0.27214,-0.13607) ==
 == 449-th k-point nmo = 114 (0.20411,0.34018,-0.20411) ==
 == 450-th k-point nmo = 114 (-0.27214,-0.27214,0.40822) ==
 == 451-th k-point nmo = 114 (-0.20411,-0.20411,0.34018) ==
 == 452-th k-point nmo = 114 (-0.13607,-0.13607,0.27214) ==
 == 453-th k-point nmo = 114 (-0.06804,-0.06804,0.20411) ==
 == 454-th k-point nmo = 116 (0.00000,0.00000,0.13607) ==
 == 455-th k-point nmo = 115 (0.06804,0.06804,0.06804) ==
 == 456-th k-point nmo = 115 (0.13607,0.13607,0.00000) ==
 == 457-th k-point nmo = 114 (0.20411,0.20411,-0.06804) ==
 == 458-th k-point nmo = 114 (0.27214,0.27214,-0.13607) ==
 == 459-th k-point nmo = 114 (-0.20411,-0.34018,0.47625) ==
 == 460-th k-point nmo = 114 (-0.13607,-0.27214,0.40822) ==
 == 461-th k-point nmo = 114 (-0.06804,-0.20411,0.34018) ==
 == 462-th k-point nmo = 114 (0.00000,-0.13607,0.27214) ==
 == 463-th k-point nmo = 114 (0.06804,-0.06804,0.20411) ==
 == 464-th k-point nmo = 115 (0.13607,0.00000,0.13607) ==
 == 465-th k-point nmo = 114 (0.20411,0.06804,0.06804) ==
 == 466-th k-point nmo = 114 (0.27214,0.13607,0.00000) ==
 == 467-th k-point nmo = 114 (0.34018,0.20411,-0.06804) ==
 == 468-th k-point nmo = 114 (-0.13607,-0.40822,0.54429) ==
 == 469-th k-point nmo = 114 (-0.06804,-0.34018,0.47625) ==
 == 470-th k-point nmo = 114 (0.00000,-0.27214,0.40822) ==
 == 471-th k-point nmo = 114 (0.06804,-0.20411,0.34018) ==
 == 472-th k-point nmo = 114 (0.13607,-0.13607,0.27214) ==
 == 473-th k-point nmo = 114 (0.20411,-0.06804,0.20411) ==
 == 474-th k-point nmo = 114 (0.27214,0.00000,0.13607) ==
 == 475-th k-point nmo = 114 (0.34018,0.06804,0.06804) ==
 == 476-th k-point nmo = 114 (0.40822,0.13607,0.00000) ==
 == 477-th k-point nmo = 114 (-0.06804,-0.47625,0.61232) ==
 == 478-th k-point nmo = 114 (0.00000,-0.40822,0.54429) ==
 == 479-th k-point nmo = 114 (0.06804,-0.34018,0.47625) ==
 == 480-th k-point nmo = 114 (0.13607,-0.27214,0.40822) ==
 == 481-th k-point nmo = 114 (0.20411,-0.20411,0.34018) ==
 == 482-th k-point nmo = 114 (0.27214,-0.13607,0.27214) ==
 == 483-th k-point nmo = 114 (0.34018,-0.06804,0.20411) ==
 == 484-th k-point nmo = 114 (0.40822,0.00000,0.13607) ==
 == 485-th k-point nmo = 114 (0.47625,0.06804,0.06804) ==
 == 486-th k-point nmo = 114 (-0.68036,0.13607,0.13607) ==
 == 487-th k-point nmo = 114 (-0.61232,0.20411,0.06804) ==
 == 488-th k-point nmo = 114 (-0.54429,0.27214,0.00000) ==
 == 489-th k-point nmo = 114 (-0.47625,0.34018,-0.06804) ==
 == 490-th k-point nmo = 114 (-0.40822,0.40822,-0.13607) ==
 == 491-th k-point nmo = 114 (-0.34018,0.47625,-0.20411) ==
 == 492-th k-point nmo = 114 (-0.27214,0.54429,-0.27214) ==
 == 493-th k-point nmo = 114 (-0.20411,0.61232,-0.34018) ==
 == 494-th k-point nmo = 114 (-0.13607,0.68036,-0.40822) ==
 == 495-th k-point nmo = 114 (-0.61232,0.06804,0.20411) ==
 == 496-th k-point nmo = 114 (-0.54429,0.13607,0.13607) ==
 == 497-th k-point nmo = 114 (-0.47625,0.20411,0.06804) ==
 == 498-th k-point nmo = 114 (-0.40822,0.27214,-0.00000) ==
 == 499-th k-point nmo = 114 (-0.34018,0.34018,-0.06804) ==
 == 500-th k-point nmo = 114 (-0.27214,0.40822,-0.13607) ==
 == 501-th k-point nmo = 114 (-0.20411,0.47625,-0.20411) ==
 == 502-th k-point nmo = 114 (-0.13607,0.54429,-0.27214) ==
 == 503-th k-point nmo = 114 (-0.06804,0.61232,-0.34018) ==
 == 504-th k-point nmo = 114 (-0.54429,0.00000,0.27214) ==
 == 505-th k-point nmo = 114 (-0.47625,0.06804,0.20411) ==
 == 506-th k-point nmo = 114 (-0.40822,0.13607,0.13607) ==
 == 507-th k-point nmo = 114 (-0.34018,0.20411,0.06804) ==
 == 508-th k-point nmo = 114 (-0.27214,0.27214,0.00000) ==
 == 509-th k-point nmo = 114 (-0.20411,0.34018,-0.06804) ==
 == 510-th k-point nmo = 114 (-0.13607,0.40822,-0.13607) ==
 == 511-th k-point nmo = 114 (-0.06804,0.47625,-0.20411) ==
 == 512-th k-point nmo = 114 (0.00000,0.54429,-0.27214) ==
 == 513-th k-point nmo = 114 (-0.47625,-0.06804,0.34018) ==
 == 514-th k-point nmo = 114 (-0.40822,-0.00000,0.27214) ==
 == 515-th k-point nmo = 114 (-0.34018,0.06804,0.20411) ==
 == 516-th k-point nmo = 114 (-0.27214,0.13607,0.13607) ==
 == 517-th k-point nmo = 114 (-0.20411,0.20411,0.06804) ==
 == 518-th k-point nmo = 114 (-0.13607,0.27214,0.00000) ==
 == 519-th k-point nmo = 114 (-0.06804,0.34018,-0.06804) ==
 == 520-th k-point nmo = 114 (0.00000,0.40822,-0.13607) ==
 == 521-th k-point nmo = 114 (0.06804,0.47625,-0.20411) ==
 == 522-th k-point nmo = 114 (-0.40822,-0.13607,0.40822) ==
 == 523-th k-point nmo = 114 (-0.34018,-0.06804,0.34018) ==
 == 524-th k-point nmo = 114 (-0.27214,0.00000,0.27214) ==
 == 525-th k-point nmo = 114 (-0.20411,0.06804,0.20411) ==
 == 526-th k-point nmo = 115 (-0.13607,0.13607,0.13607) ==
 == 527-th k-point nmo = 114 (-0.06804,0.20411,0.06804) ==
 == 528-th k-point nmo = 114 (0.00000,0.27214,0.00000) ==
 == 529-th k-point nmo = 114 (0.06804,0.34018,-0.06804) ==
 == 530-th k-point nmo = 114 (0.13607,0.40822,-0.13607) ==
 == 531-th k-point nmo = 114 (-0.34018,-0.20411,0.47625) ==
 == 532-th k-point nmo = 114 (-0.27214,-0.13607,0.40822) ==
 == 533-th k-point nmo = 114 (-0.20411,-0.06804,0.34018) ==
 == 534-th k-point nmo = 114 (-0.13607,0.00000,0.27214) ==
 == 535-th k-point nmo = 114 (-0.06804,0.06804,0.20411) ==
 == 536-th k-point nmo = 115 (0.00000,0.13607,0.13607) ==
 == 537-th k-point nmo = 114 (0.06804,0.20411,0.06804) ==
 == 538-th k-point nmo = 114 (0.13607,0.27214,0.00000) ==
 == 539-th k-point nmo = 114 (0.20411,0.34018,-0.06804) ==
 == 540-th k-point nmo = 114 (-0.27214,-0.27214,0.54429) ==
 == 541-th k-point nmo = 114 (-0.20411,-0.20411,0.47625) ==
 == 542-th k-point nmo = 114 (-0.13607,-0.13607,0.40822) ==
 == 543-th k-point nmo = 114 (-0.06804,-0.06804,0.34018) ==
 == 544-th k-point nmo = 114 (0.00000,0.00000,0.27214) ==
 == 545-th k-point nmo = 114 (0.06804,0.06804,0.20411) ==
 == 546-th k-point nmo = 115 (0.13607,0.13607,0.13607) ==
 == 547-th k-point nmo = 114 (0.20411,0.20411,0.06804) ==
 == 548-th k-point nmo = 114 (0.27214,0.27214,0.00000) ==
 == 549-th k-point nmo = 114 (-0.20411,-0.34018,0.61232) ==
 == 550-th k-point nmo = 114 (-0.13607,-0.27214,0.54429) ==
 == 551-th k-point nmo = 114 (-0.06804,-0.20411,0.47625) ==
 == 552-th k-point nmo = 114 (0.00000,-0.13607,0.40822) ==
 == 553-th k-point nmo = 114 (0.06804,-0.06804,0.34018) ==
 == 554-th k-point nmo = 114 (0.13607,0.00000,0.27214) ==
 == 555-th k-point nmo = 114 (0.20411,0.06804,0.20411) ==
 == 556-th k-point nmo = 114 (0.27214,0.13607,0.13607) ==
 == 557-th k-point nmo = 114 (0.34018,0.20411,0.06804) ==
 == 558-th k-point nmo = 114 (-0.13607,-0.40822,0.68036) ==
 == 559-th k-point nmo = 114 (-0.06804,-0.34018,0.61232) ==
 == 560-th k-point nmo = 114 (0.00000,-0.27214,0.54429) ==
 == 561-th k-point nmo = 114 (0.06804,-0.20411,0.47625) ==
 == 562-th k-point nmo = 114 (0.13607,-0.13607,0.40822) ==
 == 563-th k-point nmo = 114 (0.20411,-0.06804,0.34018) ==
 == 564-th k-point nmo = 114 (0.27214,0.00000,0.27214) ==
 == 565-th k-point nmo = 114 (0.34018,0.06804,0.20411) ==
 == 566-th k-point nmo = 114 (0.40822,0.13607,0.13607) ==
 == 567-th k-point nmo = 114 (-0.74840,0.20411,0.20411) ==
 == 568-th k-point nmo = 114 (-0.68036,0.27214,0.13607) ==
 == 569-th k-point nmo = 114 (-0.61232,0.34018,0.06804) ==
 == 570-th k-point nmo = 114 (-0.54429,0.40822,-0.00000) ==
 == 571-th k-point nmo = 114 (-0.47625,0.47625,-0.06804) ==
 == 572-th k-point nmo = 114 (-0.40822,0.54429,-0.13607) ==
 == 573-th k-point nmo = 114 (-0.34018,0.61232,-0.20411) ==
 == 574-th k-point nmo = 114 (-0.27214,0.68036,-0.27214) ==
 == 575-th k-point nmo = 114 (-0.20411,0.74840,-0.34018) ==
 == 576-th k-point nmo = 114 (-0.68036,0.13607,0.27214) ==
 == 577-th k-point nmo = 114 (-0.61232,0.20411,0.20411) ==
 == 578-th k-point nmo = 114 (-0.54429,0.27214,0.13607) ==
 == 579-th k-point nmo = 114 (-0.47625,0.34018,0.06804) ==
 == 580-th k-point nmo = 114 (-0.40822,0.40822,-0.00000) ==
 == 581-th k-point nmo = 114 (-0.34018,0.47625,-0.06804) ==
 == 582-th k-point nmo = 114 (-0.27214,0.54429,-0.13607) ==
 == 583-th k-point nmo = 114 (-0.20411,0.61232,-0.20411) ==
 == 584-th k-point nmo = 114 (-0.13607,0.68036,-0.27214) ==
 == 585-th k-point nmo = 114 (-0.61232,0.06804,0.34018) ==
 == 586-th k-point nmo = 114 (-0.54429,0.13607,0.27214) ==
 == 587-th k-point nmo = 114 (-0.47625,0.20411,0.20411) ==
 == 588-th k-point nmo = 114 (-0.40822,0.27214,0.13607) ==
 == 589-th k-point nmo = 114 (-0.34018,0.34018,0.06804) ==
 == 590-th k-point nmo = 114 (-0.27214,0.40822,-0.00000) ==
 == 591-th k-point nmo = 114 (-0.20411,0.47625,-0.06804) ==
 == 592-th k-point nmo = 114 (-0.13607,0.54429,-0.13607) ==
 == 593-th k-point nmo = 114 (-0.06804,0.61232,-0.20411) ==
 == 594-th k-point nmo = 114 (-0.54429,0.00000,0.40822) ==
 == 595-th k-point nmo = 114 (-0.47625,0.06804,0.34018) ==
 == 596-th k-point nmo = 114 (-0.40822,0.13607,0.27214) ==
 == 597-th k-point nmo = 114 (-0.34018,0.20411,0.20411) ==
 == 598-th k-point nmo = 114 (-0.27214,0.27214,0.13607) ==
 == 599-th k-point nmo = 114 (-0.20411,0.34018,0.06804) ==
 == 600-th k-point nmo = 114 (-0.13607,0.40822,-0.00000) ==
 == 601-th k-point nmo = 114 (-0.06804,0.47625,-0.06804) ==
 == 602-th k-point nmo = 114 (0.00000,0.54429,-0.13607) ==
 == 603-th k-point nmo = 114 (-0.47625,-0.06804,0.47625) ==
 == 604-th k-point nmo = 114 (-0.40822,0.00000,0.40822) ==
 == 605-th k-point nmo = 114 (-0.34018,0.06804,0.34018) ==
 == 606-th k-point nmo = 114 (-0.27214,0.13607,0.27214) ==
 == 607-th k-point nmo = 114 (-0.20411,0.20411,0.20411) ==
 == 608-th k-point nmo = 114 (-0.13607,0.27214,0.13607) ==
 == 609-th k-point nmo = 114 (-0.06804,0.34018,0.06804) ==
 == 610-th k-point nmo = 114 (0.00000,0.40822,0.00000) ==
 == 611-th k-point nmo = 114 (0.06804,0.47625,-0.06804) ==
 == 612-th k-point nmo = 114 (-0.40822,-0.13607,0.54429) ==
 == 613-th k-point nmo = 114 (-0.34018,-0.06804,0.47625) ==
 == 614-th k-point nmo = 114 (-0.27214,0.00000,0.40822) ==
 == 615-th k-point nmo = 114 (-0.20411,0.06804,0.34018) ==
 == 616-th k-point nmo = 114 (-0.13607,0.13607,0.27214) ==
 == 617-th k-point nmo = 114 (-0.06804,0.20411,0.20411) ==
 == 618-th k-point nmo = 114 (0.00000,0.27214,0.13607) ==
 == 619-th k-point nmo = 114 (0.06804,0.34018,0.06804) ==
 == 620-th k-point nmo = 114 (0.13607,0.40822,0.00000) ==
 == 621-th k-point nmo = 114 (-0.34018,-0.20411,0.61232) ==
 == 622-th k-point nmo = 114 (-0.27214,-0.13607,0.54429) ==
 == 623-th k-point nmo = 114 (-0.20411,-0.06804,0.47625) ==
 == 624-th k-point nmo = 114 (-0.13607,0.00000,0.40822) ==
 == 625-th k-point nmo = 114 (-0.06804,0.06804,0.34018) ==
[...]
 -0.08216 0.06125 0.16296 0.19682 0.33684 0.43113 0.47119 0.48554 0.66673 0.68459
 0.70342 0.71769 0.76043 0.86123 0.90890 0.97401 0.98609 1.00237 1.07650 1.11887
 1.20077 1.25079 1.26338 1.27912 1.35566 1.39887 1.41147 1.43342 1.51199 1.56933
 1.62023 1.62230 1.66626 1.68421 1.73120 1.79664 1.90202 1.93024 1.94250 1.95092
 2.00648 2.04298 2.06113 2.12809 2.13766 2.14391 2.25895 2.33999 2.35306 2.38131
 2.43878 2.47019 2.50313 2.56805 2.61528 2.63818 2.66962 2.74918 2.79116 2.80071
 2.82122 2.86395 2.89383 2.91764 2.97288 3.03504 3.05057 3.06505 3.10853 3.11810
 3.17556 3.24605 3.31376 3.32392 3.34268 3.37726 3.38624 3.44258 3.51425 3.51841
 3.56994 3.63026 3.65650 3.69444 3.74149 3.79810 3.81904 3.85596 3.86406 4.02470
 4.06660 4.17268 4.26212 4.31405 4.57014 4.57129 8.01352 8.25413 8.25589 9.05418
 9.99860 10.26898 13.07174 14.14244
 == 711-th k-point (-0.34018,-0.20411,0.74840) occupation: 14==
 -65.00567 -65.00567 -4.62781 -4.62770 -3.03968 -3.03966 -3.03947 -3.03915 -3.03895 -3.03893
 -0.06867 0.03368 0.15830 0.20375 0.38218 0.39425 0.47650 0.51792 0.59556 0.64623
 0.69722 0.75449 0.79407 0.87231 0.91753 0.99097 1.00816 1.04168 1.09332 1.11432
 1.16705 1.24434 1.25565 1.28732 1.30844 1.36912 1.42069 1.44595 1.47617 1.52589
 1.57834 1.60660 1.64089 1.74094 1.76263 1.79755 1.86381 1.92310 1.95439 1.99422
 2.03958 2.08546 2.09440 2.17470 2.18212 2.22919 2.28249 2.31057 2.35531 2.36106
 2.42311 2.43782 2.46269 2.52967 2.56453 2.65366 2.70593 2.75279 2.80291 2.81704
 2.83832 2.88707 2.91422 2.93903 2.96863 2.99344 3.01739 3.06426 3.09459 3.15447
 3.18316 3.24269 3.26136 3.28217 3.33519 3.39755 3.43899 3.45356 3.47889 3.51483
 3.55666 3.59529 3.65973 3.67920 3.70687 3.75210 3.81237 3.85002 3.89886 3.99275
 4.05051 4.14069 4.24381 4.29449 4.51152 4.55131 8.15937 8.34708 8.38314 8.89424
 9.35020 9.92044 13.04622 14.48260
 == 712-th k-point (-0.27214,-0.13607,0.68036) occupation: 14==
 -65.00567 -65.00567 -4.62779 -4.62772 -3.03969 -3.03968 -3.03941 -3.03921 -3.03894 -3.03892
 -0.04359 0.02464 0.12249 0.17952 0.36913 0.44330 0.50061 0.52069 0.55370 0.64914
 0.75804 0.77976 0.87776 0.88169 0.91888 0.93059 0.98695 1.01640 1.06190 1.09861
 1.13099 1.22288 1.23730 1.24634 1.31921 1.36457 1.41226 1.44232 1.46760 1.52140
 1.56280 1.65635 1.69886 1.74340 1.77577 1.80290 1.86942 1.90466 1.93894 1.97825
 2.02174 2.09561 2.12299 2.17061 2.20342 2.25156 2.27623 2.29443 2.32923 2.38066
 2.42988 2.44688 2.49180 2.50354 2.57504 2.61051 2.67658 2.74149 2.78170 2.83726
 2.86731 2.89551 2.94029 2.96027 2.97546 2.99689 3.03329 3.08035 3.10027 3.16243
 3.23492 3.24527 3.27825 3.31025 3.33283 3.36906 3.40245 3.43168 3.46794 3.49915
 3.50885 3.55090 3.60461 3.64028 3.67209 3.75494 3.84630 3.86927 3.90941 3.96956
 4.02217 4.16535 4.24483 4.26191 4.54266 4.57857 8.18954 8.42240 8.52464 8.81399
 9.17342 9.75372 13.32008 14.26329
 == 713-th k-point (-0.20411,-0.06804,0.61232) occupation: 14==
 -65.00567 -65.00567 -4.62777 -4.62774 -3.03970 -3.03969 -3.03934 -3.03926 -3.03894 -3.03892
 -0.01834 0.00355 0.12381 0.16154 0.35063 0.41140 0.52292 0.53259 0.62760 0.65966
 0.76139 0.80057 0.86046 0.89571 0.90036 0.91296 0.98078 1.01415 1.03598 1.09691
 1.12519 1.15222 1.20225 1.21707 1.36209 1.36966 1.45058 1.46144 1.48946 1.50731
 1.63268 1.65076 1.68135 1.74520 1.75380 1.81667 1.86574 1.87209 1.92342 1.93338
 2.02560 2.07094 2.14495 2.20683 2.23133 2.23434 2.28398 2.29559 2.33179 2.37398
 2.38732 2.45911 2.48268 2.51657 2.60210 2.67436 2.71263 2.72192 2.77556 2.79358
 2.86391 2.86485 2.90105 2.94580 2.99248 3.01231 3.05537 3.08288 3.11583 3.12454
 3.22555 3.24177 3.27502 3.29170 3.34054 3.35578 3.38229 3.40658 3.46465 3.47922
 3.54491 3.59794 3.64051 3.65343 3.68413 3.72080 3.81081 3.88062 3.95732 4.00478
 4.08772 4.20363 4.27390 4.28240 4.57444 4.59411 8.25405 8.43134 8.60890 8.70467
 9.41547 9.84399 13.39433 13.77653
 == 714-th k-point (-0.13607,0.00000,0.54429) occupation: 14==
 -65.00567 -65.00567 -4.62778 -4.62773 -3.03969 -3.03969 -3.03935 -3.03925 -3.03894 -3.03894
 -0.03770 0.02055 0.15055 0.15825 0.33683 0.34847 0.54345 0.61183 0.63404 0.69845
 0.72755 0.78564 0.80104 0.87131 0.87391 0.93101 0.98679 1.02912 1.05044 1.06172
 1.14772 1.15323 1.16526 1.21757 1.38953 1.41373 1.46506 1.50431 1.51467 1.52825
 1.55841 1.69452 1.73347 1.73515 1.75835 1.78072 1.83567 1.84139 1.87634 1.89743
 2.04540 2.04720 2.15355 2.15466 2.17544 2.23576 2.26217 2.31986 2.35653 2.39229
 2.41536 2.45347 2.51203 2.52994 2.58256 2.61109 2.70200 2.75983 2.78619 2.80862
 2.85664 2.86788 2.92016 2.95207 2.97746 2.98941 2.99189 3.07335 3.10820 3.12199
 3.19545 3.22253 3.29118 3.30501 3.32915 3.35125 3.38001 3.39844 3.51068 3.52799
 3.54689 3.55232 3.64301 3.65800 3.71295 3.72075 3.89088 3.93765 3.98443 4.03457
 4.20084 4.21541 4.30300 4.33221 4.59806 4.61100 8.19047 8.42526 8.52912 8.65547
 9.88352 9.91356 13.34405 13.45781
 == 715-th k-point (-0.06804,0.06804,0.47625) occupation: 14==
 -65.00567 -65.00567 -4.62780 -4.62771 -3.03969 -3.03968 -3.03941 -3.03919 -3.03896 -3.03895
 -0.06685 0.05292 0.15887 0.17978 0.31177 0.35152 0.55604 0.55797 0.69651 0.70156
 0.71711 0.72199 0.82117 0.83316 0.86274 0.92432 0.94529 0.99503 1.08118 1.13632
 1.15925 1.18386 1.21020 1.28018 1.35767 1.36011 1.44274 1.51440 1.53061 1.57724
 1.63248 1.66024 1.70691 1.73224 1.75034 1.79117 1.81913 1.85272 1.86296 1.93044
 1.97604 2.04796 2.06323 2.15541 2.17468 2.19715 2.20594 2.36414 2.38415 2.39247
 2.43593 2.43866 2.52933 2.53532 2.60226 2.60435 2.66279 2.76896 2.81502 2.83652
 2.85813 2.88832 2.89289 2.92571 2.94428 2.98846 3.00615 3.02273 3.08668 3.17222
 3.23372 3.23504 3.25475 3.33309 3.33625 3.36162 3.40627 3.44412 3.52737 3.52770
 3.54698 3.55614 3.60150 3.68021 3.70917 3.75451 3.88947 3.90986 3.94868 4.12581
 4.16306 4.23409 4.28880 4.35487 4.60813 4.61515 8.05866 8.31327 8.35636 8.78758
 10.24173 10.34435 13.24489 13.47186
 == 716-th k-point (0.00000,0.13607,0.40822) occupation: 14==
 -65.00567 -65.00567 -4.62782 -4.62769 -3.03968 -3.03967 -3.03946 -3.03915 -3.03896 -3.03896
 -0.08762 0.08038 0.16122 0.18668 0.34316 0.38085 0.47767 0.54152 0.62786 0.69008
 0.71073 0.76639 0.79225 0.82515 0.86387 0.92922 0.95906 1.02890 1.08916 1.14395
 1.20192 1.20768 1.27233 1.29951 1.34279 1.36628 1.45085 1.50652 1.52934 1.55567
 1.56376 1.65372 1.70959 1.72941 1.79094 1.79619 1.83589 1.83607 1.88695 1.96140
 2.00770 2.01052 2.03641 2.13781 2.14526 2.17039 2.19722 2.31561 2.38903 2.43273
 2.43589 2.46154 2.54055 2.55638 2.61012 2.62118 2.64283 2.73165 2.79970 2.81391
 2.83587 2.88379 2.88721 2.92633 2.93366 3.02644 3.03677 3.09226 3.11068 3.12926
 3.22380 3.26407 3.32310 3.33188 3.38021 3.38371 3.42891 3.43023 3.48258 3.53303
 3.54000 3.55134 3.62535 3.66534 3.71534 3.73578 3.88612 3.90042 3.95475 4.03279
 4.09547 4.13724 4.27225 4.36235 4.57954 4.61340 8.04670 8.07124 8.18431 9.06830
 10.23108 10.55166 13.24307 13.62416
 == 717-th k-point (0.06804,0.20411,0.34018) occupation: 14==
 -65.00567 -65.00567 -4.62783 -4.62767 -3.03967 -3.03966 -3.03950 -3.03912 -3.03897 -3.03895
 -0.09809 0.08132 0.16528 0.21577 0.37823 0.40949 0.45324 0.47856 0.58624 0.65733
 0.70864 0.72849 0.79769 0.84384 0.88008 0.96788 0.97961 1.04630 1.10246 1.17356
 1.19340 1.21433 1.28191 1.30959 1.37604 1.41768 1.44971 1.46706 1.49044 1.54958
 1.58637 1.62440 1.66885 1.72727 1.75524 1.81878 1.82850 1.86683 1.89212 1.96777
 2.01049 2.03222 2.06129 2.11587 2.14744 2.18932 2.25794 2.31054 2.37770 2.41429
 2.43121 2.49519 2.51149 2.58032 2.60386 2.63522 2.65295 2.76086 2.77277 2.80213
 2.80902 2.85476 2.89785 2.91685 2.96443 2.98581 3.04664 3.10113 3.14906 3.18699
 3.20485 3.29010 3.30020 3.32896 3.36196 3.40203 3.43185 3.47090 3.48744 3.51248
 3.53434 3.60147 3.63608 3.70838 3.74652 3.77008 3.80819 3.84046 3.91903 3.94250
 4.06143 4.09756 4.24874 4.37694 4.54129 4.59793 7.85237 8.06290 8.25767 9.40207
 9.65479 10.24817 13.06737 14.16430
 == 718-th k-point (0.13607,0.27214,0.27214) occupation: 14==
 -65.00567 -65.00566 -4.62784 -4.62767 -3.03966 -3.03966 -3.03953 -3.03910 -3.03896 -3.03896
 -0.09793 0.06118 0.19216 0.23549 0.36514 0.41082 0.41354 0.54873 0.55478 0.61999
 0.69318 0.72319 0.81545 0.84134 0.88892 0.92872 1.00732 1.12840 1.12964 1.15544
 1.17552 1.22782 1.30303 1.33369 1.35196 1.38505 1.42151 1.46949 1.49360 1.54551
 1.55350 1.63494 1.68775 1.72915 1.75580 1.78737 1.82370 1.84632 1.90901 1.97829
 2.04218 2.08479 2.09371 2.12715 2.14948 2.19656 2.28831 2.34142 2.37974 2.38943
 2.40440 2.46885 2.55281 2.57847 2.58887 2.65070 2.71055 2.77214 2.77683 2.78247
 2.82189 2.87937 2.88755 2.90738 2.94733 2.98145 3.00203 3.11732 3.13019 3.14474
 3.15296 3.22672 3.30607 3.34020 3.36856 3.46032 3.46730 3.48109 3.49540 3.53923
 3.59451 3.62799 3.66150 3.68774 3.73856 3.76179 3.79637 3.87821 3.94311 3.96314
 4.03060 4.07756 4.22866 4.39078 4.49670 4.56706 7.86708 8.10458 8.22675 9.53980
 9.71038 10.00580 12.54209 14.56065
 == 719-th k-point (0.20411,0.34018,0.20411) occupation: 14==
 -65.00567 -65.00566 -4.62783 -4.62768 -3.03967 -3.03965 -3.03952 -3.03910 -3.03898 -3.03894
 -0.08764 0.04360 0.20307 0.21807 0.35775 0.40186 0.42808 0.52698 0.60647 0.66176
 0.68460 0.72035 0.74860 0.84951 0.91827 0.96059 1.01983 1.09693 1.11273 1.15980
 1.19243 1.21037 1.30089 1.31775 1.33295 1.39915 1.42143 1.43875 1.48354 1.51309
 1.55572 1.61123 1.68102 1.72240 1.74311 1.79691 1.85749 1.90983 1.96401 1.98824
 1.99252 2.07380 2.10441 2.17441 2.17513 2.25006 2.25137 2.31533 2.32706 2.40078
 2.40700 2.40792 2.53911 2.57438 2.62950 2.64153 2.75427 2.76998 2.77615 2.79361
 2.79699 2.86610 2.86905 2.91168 2.94286 3.01165 3.05130 3.07018 3.09163 3.12232
 3.14354 3.21381 3.26700 3.28085 3.38953 3.43104 3.44667 3.49327 3.53764 3.55615
 3.57504 3.65010 3.65764 3.70209 3.74476 3.76337 3.81759 3.84588 3.94981 3.96108
 4.03689 4.12743 4.22477 4.34671 4.51324 4.51857 8.04118 8.26125 8.29384 9.33155
 9.91095 9.97292 12.51803 14.66568
 == 720-th k-point (-0.27214,-0.27214,0.81643) occupation: 14==
 -65.00567 -65.00566 -4.62782 -4.62769 -3.03967 -3.03966 -3.03951 -3.03911 -3.03896 -3.03894
 -0.07360 0.02242 0.19347 0.22323 0.35815 0.40257 0.41826 0.57561 0.61268 0.62739
 0.67945 0.74786 0.76264 0.78662 0.96955 1.02156 1.04510 1.06828 1.09624 1.10928
 1.20628 1.23812 1.25869 1.31379 1.32186 1.36952 1.40193 1.41966 1.49434 1.51925
 1.53401 1.60462 1.67015 1.71053 1.73798 1.81567 1.84036 1.92529 1.97771 2.00129
 2.08633 2.12119 2.12671 2.18224 2.19045 2.21303 2.27356 2.28538 2.32510 2.34667
 2.44940 2.47008 2.50827 2.51476 2.55253 2.68068 2.74034 2.74727 2.77633 2.82868
 2.82896 2.86764 2.90376 2.93711 2.94249 2.96442 3.03726 3.04825 3.10994 3.12512
 3.17790 3.19413 3.22327 3.23983 3.39350 3.40526 3.45401 3.49289 3.51652 3.53496
 3.58455 3.63313 3.66641 3.69410 3.70840 3.75838 3.76233 3.88773 3.97820 3.98161
 4.02074 4.14980 4.25438 4.29980 4.47514 4.49396 8.18852 8.35221 8.39516 9.18871
 9.20352 9.97471 12.55089 14.64389
 == 721-th k-point (-0.20411,-0.20411,0.74840) occupation: 14==
 -65.00567 -65.00567 -4.62780 -4.62770 -3.03969 -3.03967 -3.03945 -3.03916 -3.03896 -3.03892
 -0.05792 0.02637 0.14379 0.20256 0.34253 0.46196 0.47122 0.50477 0.61418 0.62381
 0.72136 0.76790 0.78800 0.89588 0.95759 0.97161 0.98274 1.03968 1.04431 1.09898
 1.18724 1.23088 1.24271 1.27301 1.32283 1.36457 1.39045 1.43774 1.46904 1.55408
 1.61982 1.62453 1.65808 1.67576 1.71499 1.82086 1.90068 1.93222 1.94958 1.98040
 2.06088 2.10111 2.10379 2.15092 2.17176 2.26498 2.29307 2.30683 2.31351 2.34352
 2.40215 2.43371 2.49289 2.52688 2.55080 2.63622 2.66385 2.74902 2.79248 2.83500
 2.87579 2.91031 2.91955 2.96879 2.97375 3.02783 3.02980 3.05547 3.06482 3.11742
 3.17856 3.24132 3.27157 3.29792 3.34141 3.36483 3.39066 3.42658 3.49093 3.51984
 3.56438 3.59228 3.64965 3.67627 3.74689 3.76143 3.81286 3.85867 3.87148 3.93597
 4.04602 4.19862 4.24191 4.28050 4.52816 4.54638 8.12472 8.40082 8.43566 8.88165
 9.26382 9.83999 13.11616 14.43822
 == 722-th k-point (-0.13607,-0.13607,0.68036) occupation: 14==
 -65.00567 -65.00567 -4.62778 -4.62773 -3.03970 -3.03968 -3.03938 -3.03923 -3.03894 -3.03892
 -0.03752 0.01981 0.12549 0.18374 0.31917 0.41077 0.54382 0.54824 0.62680 0.63053
 0.78076 0.79074 0.81411 0.87981 0.89626 0.94009 0.99472 1.00963 1.03336 1.12062
 1.13112 1.14442 1.17338 1.26948 1.36782 1.38944 1.39122 1.47100 1.54611 1.56668
 1.59661 1.61529 1.69129 1.70067 1.76372 1.76536 1.87108 1.87893 1.93003 1.98896
 2.01050 2.08731 2.08951 2.17836 2.22438 2.25792 2.27119 2.31036 2.33881 2.35353
 2.39795 2.43030 2.50085 2.50277 2.57018 2.66497 2.66802 2.76079 2.77703 2.79037
 2.83290 2.90671 2.91581 2.95803 3.00980 3.01646 3.06614 3.07332 3.09814 3.11975
 3.22276 3.23093 3.26355 3.30271 3.30275 3.32867 3.37211 3.43066 3.44800 3.47783
 3.56405 3.65244 3.65967 3.67598 3.73563 3.74663 3.78755 3.89418 3.96106 3.96128
 4.08108 4.24699 4.26918 4.29607 4.57075 4.59630 8.14553 8.43547 8.53645 8.69240
 9.36699 9.94725 13.31345 13.85428
 == 723-th k-point (-0.06804,-0.06804,0.61232) occupation: 14==
 -65.00567 -65.00567 -4.62776 -4.62775 -3.03970 -3.03969 -3.03931 -3.03928 -3.03894 -3.03894
 -0.01353 -0.00736 0.14866 0.17270 0.30602 0.33667 0.61633 0.62766 0.64520 0.65448
 0.77443 0.77778 0.77871 0.80502 0.92867 0.93934 1.00812 1.01714 1.03241 1.06809
 1.08090 1.11005 1.18338 1.22561 1.37339 1.42648 1.47341 1.52053 1.55702 1.58954
 1.61657 1.62423 1.69782 1.72060 1.72106 1.75391 1.82133 1.84825 1.89859 1.89911
 2.04035 2.06954 2.09602 2.14051 2.22862 2.25230 2.30642 2.30658 2.34069 2.40026
 2.40579 2.44917 2.49540 2.51427 2.53128 2.62816 2.72043 2.75055 2.76679 2.79551
 2.85296 2.87668 2.91839 2.95828 2.98754 3.03468 3.03942 3.04370 3.10136 3.13645
 3.21360 3.24051 3.24940 3.25200 3.27580 3.31614 3.38943 3.41929 3.50131 3.52220
 3.54684 3.55793 3.66509 3.68135 3.69601 3.73431 3.92797 3.96859 3.97551 4.03381
 4.22769 4.28273 4.33342 4.33411 4.60230 4.62054 8.27165 8.35767 8.61779 8.62720
 9.53975 9.88774 13.39907 13.40112
 == 724-th k-point (0.00000,0.00000,0.54429) occupation: 14==
 -65.00567 -65.00567 -4.62778 -4.62773 -3.03969 -3.03969 -3.03935 -3.03924 -3.03894 -3.03894
 -0.04202 0.02110 0.17131 0.17131 0.29758 0.31248 0.62169 0.62169 0.70728 0.71570
 0.71570 0.72097 0.77788 0.78562 0.92750 0.95227 0.95227 0.98950 1.07298 1.08023
 1.08023 1.12430 1.20955 1.26641 1.36987 1.36987 1.48595 1.55268 1.55268 1.62559
 1.62918 1.63403 1.71100 1.72830 1.74771 1.74771 1.81510 1.81510 1.85418 1.86970
 2.03643 2.03643 2.08696 2.14568 2.14568 2.25080 2.28725 2.35062 2.35821 2.41709
 2.41709 2.44997 2.52177 2.52177 2.55599 2.55636 2.72697 2.74580 2.80091 2.80091
 2.87401 2.87401 2.93815 2.94979 2.97372 2.99740 3.03428 3.03428 3.06617 3.11148
 3.22736 3.23070 3.23070 3.30516 3.30516 3.30999 3.45301 3.45301 3.48994 3.49435
 3.56148 3.56148 3.58143 3.68961 3.73191 3.73477 3.92928 3.92928 3.98064 4.15052
 4.27847 4.27847 4.31275 4.38308 4.62111 4.62112 8.14398 8.52964 8.54150 8.54150
 9.87858 9.87858 13.37635 13.38644
 == 725-th k-point (0.06804,0.06804,0.47625) occupation: 14==
 -65.00567 -65.00567 -4.62780 -4.62771 -3.03969 -3.03968 -3.03941 -3.03919 -3.03896 -3.03895
 -0.06685 0.05292 0.15887 0.17978 0.31177 0.35152 0.55604 0.55797 0.69651 0.70156
 0.71711 0.72199 0.82117 0.83316 0.86274 0.92432 0.94529 0.99503 1.08118 1.13632
 1.15925 1.18386 1.21020 1.28018 1.35767 1.36011 1.44274 1.51440 1.53061 1.57724
 1.63248 1.66024 1.70691 1.73224 1.75034 1.79117 1.81913 1.85272 1.86296 1.93044
 1.97604 2.04796 2.06323 2.15541 2.17468 2.19715 2.20594 2.36414 2.38415 2.39247
 2.43593 2.43866 2.52933 2.53532 2.60226 2.60435 2.66279 2.76896 2.81502 2.83652
 2.85813 2.88832 2.89289 2.92571 2.94428 2.98846 3.00615 3.02273 3.08668 3.17222
 3.23372 3.23504 3.25475 3.33309 3.33625 3.36162 3.40627 3.44412 3.52737 3.52770
 3.54698 3.55614 3.60150 3.68021 3.70917 3.75451 3.88947 3.90986 3.94868 4.12581
 4.16306 4.23409 4.28880 4.35487 4.60813 4.61515 8.05866 8.31327 8.35636 8.78758
 10.24173 10.34435 13.24489 13.47186
 == 726-th k-point (0.13607,0.13607,0.40822) occupation: 14==
 -65.00567 -65.00567 -4.62782 -4.62769 -3.03968 -3.03967 -3.03947 -3.03914 -3.03897 -3.03894
 -0.08216 0.06125 0.16296 0.19682 0.33684 0.43113 0.47119 0.48554 0.66673 0.68459
 0.70342 0.71769 0.76043 0.86123 0.90890 0.97401 0.98609 1.00237 1.07650 1.11887
 1.20077 1.25079 1.26338 1.27912 1.35566 1.39887 1.41147 1.43342 1.51199 1.56933
 1.62023 1.62230 1.66626 1.68421 1.73120 1.79664 1.90202 1.93024 1.94250 1.95092
 2.00648 2.04298 2.06113 2.12809 2.13766 2.14391 2.25895 2.33999 2.35306 2.38131
 2.43878 2.47019 2.50313 2.56805 2.61528 2.63818 2.66962 2.74918 2.79116 2.80071
 2.82122 2.86395 2.89383 2.91764 2.97288 3.03504 3.05057 3.06505 3.10853 3.11810
 3.17556 3.24605 3.31376 3.32392 3.34268 3.37726 3.38624 3.44258 3.51425 3.51841
 3.56994 3.63026 3.65650 3.69444 3.74149 3.79810 3.81904 3.85596 3.86406 4.02470
 4.06660 4.17268 4.26212 4.31405 4.57014 4.57129 8.01352 8.25413 8.25589 9.05418
 9.99860 10.26898 13.07174 14.14244
 == 727-th k-point (0.20411,0.20411,0.34018) occupation: 14==
 -65.00567 -65.00566 -4.62783 -4.62768 -3.03967 -3.03965 -3.03952 -3.03910 -3.03898 -3.03894
 -0.08764 0.04360 0.20307 0.21807 0.35775 0.40186 0.42808 0.52698 0.60647 0.66176
 0.68460 0.72035 0.74860 0.84951 0.91827 0.96059 1.01983 1.09693 1.11273 1.15980
 1.19243 1.21037 1.30089 1.31775 1.33295 1.39915 1.42143 1.43875 1.48354 1.51309
 1.55572 1.61123 1.68102 1.72240 1.74311 1.79691 1.85749 1.90983 1.96401 1.98824
 1.99252 2.07380 2.10441 2.17441 2.17513 2.25006 2.25137 2.31533 2.32706 2.40078
 2.40700 2.40792 2.53911 2.57438 2.62950 2.64153 2.75427 2.76998 2.77615 2.79361
 2.79699 2.86610 2.86905 2.91168 2.94286 3.01165 3.05130 3.07018 3.09163 3.12232
 3.14354 3.21381 3.26700 3.28085 3.38953 3.43104 3.44667 3.49327 3.53764 3.55615
 3.57504 3.65010 3.65764 3.70209 3.74476 3.76337 3.81759 3.84588 3.94981 3.96108
 4.03689 4.12743 4.22477 4.34671 4.51324 4.51857 8.04118 8.26125 8.29384 9.33155
 9.91095 9.97292 12.51803 14.66568
 == 728-th k-point (0.27214,0.27214,0.27214) occupation: 14==
 -65.00568 -65.00566 -4.62783 -4.62768 -3.03966 -3.03966 -3.03954 -3.03907 -3.03896 -3.03896
 -0.08417 0.02754 0.23145 0.23145 0.33441 0.40080 0.40080 0.55972 0.64074 0.64074
 0.67344 0.73060 0.73060 0.77149 0.94611 1.03522 1.03522 1.07442 1.14321 1.14321
 1.20904 1.26453 1.26453 1.30976 1.30976 1.38175 1.41344 1.48956 1.48956 1.50964
 1.50964 1.58453 1.63244 1.66529 1.87208 1.87208 1.88868 1.90020 1.90020 1.92099
 2.07353 2.07353 2.15872 2.22159 2.22159 2.26860 2.26860 2.27563 2.34360 2.34360
 2.42546 2.42546 2.58935 2.58935 2.59227 2.64909 2.77053 2.79664 2.80151 2.80331
 2.80331 2.80702 2.80702 2.87171 2.98693 3.02780 3.05457 3.05457 3.09913 3.09913
 3.15150 3.15150 3.28255 3.28255 3.31244 3.46705 3.46705 3.54791 3.54791 3.54808
 3.55909 3.67428 3.67428 3.69008 3.74413 3.76395 3.90618 3.90618 3.98317 3.98317
 4.11825 4.11825 4.12508 4.36213 4.45828 4.45828 8.21971 8.21971 8.25547 9.57993
 9.57993 10.01123 11.94968 14.75041
 ---------------------------------------------------------------------------
 VBM is at 364-th k-point with 7.49121 eV
 CBM is at 324-th k-point with 8.09754 eV
 Band gap is 0.60632 eV


           Ground-State Mulliken Net Atomic Charges

      Atom                 Charge (a.u.)          Spin (a.u.)
   --------------------------------------------------------
      1 Si                (0.000000,0.000000)    (0.000000,0.000000)
      2 Si              (-0.000000,-0.000000)    (0.000000,0.000000)
   --------------------------------------------------------
  Sum of atomic charges =     (-0.000000,-0.000000)
  Sum of spin   charges =       (0.000000,0.000000)



 Total job time:  828.20 s.
 Tue Sep  9 04:35:24 2025


        *************************************************************
        *                                                           *
        *  Thank you very much for using QCPBC. Have a nice day.    *
        *                                                           *
        *************************************************************

Running job 1 of 1
