                  Welcome to Q-Chem
           with Periodic Boundary Condition
     A Quantum Leap Into The Future Of Chemistry

 Adam Rettig, Xintian Feng, Meng-Fu Chen, Hieu Dinh, Stephen Quiton,
 Anton Ni, Paul J. Robinson, Jinghong Zhang, Joonho Lee

Contributors to earlier versions of Q-Chem not listed above:
 Evgeny Epifanovsky, Leo Cunha, Jerome F. Gonthier, Kuan-Yu Liu
 Input file: /n/netscratch/joonholee_lab/Lab/hieudinh//si_2_ccpvqz_omega_0.9_111111.scratch20250909070800/si_2_ccpvqz_omega_0.9_111111.0
 Scratch folder: /n/netscratch/joonholee_lab/Lab/hieudinh//si_2_ccpvqz_omega_0.9_111111.scratch20250909070800
 Auxillary files located at: /n/holylabs/LABS/joonholee_lab/Lab/qchem_base/qcaux
 Q-Chem begins on Tue Sep  9 07:08:01 2025

 -------------------------------------------------------------
 User input:
 -------------------------------------------------------------
 $lattice
 3
 0.000000 5.130600 5.130600
 5.130600 0.000000 5.130600
 5.130600 5.130600 0.000000
 $end
 
 $unitcell
 ABSOLUTE
 0 1
 Si 0.000000 0.000000 0.000000
 Si 2.565300 2.565300 2.565300
 $end
 
 $rem
 jobtype = sp
 method = pbe
 scf_convergence = 5
 scf_guess = autosad
 scf_algorithm = diis_gdm
 basis = cc-pvqz
 aux_basis = cc-pvqz-jk
 input_bohr = true
 symmetry = false
 rsdf_print_level 1
 is_basis_uctr true
 
 mp_mesh = [11,11,11]
 
 integral_direct true
 bvk_cgto true
 
 thresh 14
 mem_total 1000000
 threads 32
 
 MAX_SCF_CYCLES 500
 madelung = false
 omega 0.9
 do_rij_bigmem true
 automate_g true
 print_level 10
 grid_type_xc 1
 
 thresh_1e2c_sp 1e-14
 thresh_2e3c_bra_ket_sep 1e-10
 thresh_g 1e-12
 $end
 
 -------------------------------------------------------------
 Running PBC job

 Requested Exchange Correlation Functionals: 
  DFT Exchange:  1.00000 pbe_x
  DFT Correlation:  1.00000 pbe_c
 using 32 threads for computing.
 ---------------------------------------------------------------
      Coordinates of Atoms in Central Unit Cell (Angstroms)
    I     Atom         X            Y            Z
 ---------------------------------------------------------------
    1      Si      0.000000     0.000000     0.000000
    2      Si      1.357498     1.357498     1.357498
 ---------------------------------------------------------------
 --------------------------------------------------
              Lattice Vectors (Angstroms)
              X            Y            Z
 --------------------------------------------------
   X       0.000000     2.714997     2.714997
   Y       2.714997     0.000000     2.714997
   Z       2.714997     2.714997     0.000000
 --------------------------------------------------
 --------------------------------------------------
       Reciprocal Lattice Vectors (Angstroms^-1)
              X            Y            Z
 --------------------------------------------------
   X      -1.157126     1.157126     1.157126
   Y       1.157126    -1.157126     1.157126
   Z       1.157126     1.157126    -1.157126
 --------------------------------------------------

 Single point calculation requested

 Hamiltonian contributions:
 List of terms in Hamiltonian: kpts_nn, kpts_kinetic, kpts_vnuc_df, kpts_xc, kpts_rij_bigmem

 K-Points calculation started.

 Basis set information about using solid harmonic (1) or Cartesian (0):
  si : D(1) D(1) D(1) F(1) F(1) G(1) 

 Basis set information about using solid harmonic (1) or Cartesian (0):
  si : D(1) D(1) D(1) D(1) D(1) D(1) D(1) D(1) D(1) F(1) F(1) F(1) F(1) G(1) G(1) H(1) 

 There are 118 basis functions in the central unit cell.
 Print atomic basis of atoms in the central unit cell:
 -------------------------------------------------------------
2 66 134 28

  0.00000000000000e+00  0.00000000000000e+00  0.00000000000000e+00
  2.56530000000000e+00  2.56530000000000e+00  2.56530000000000e+00

  5.13000000000000e+05
  7.68200000000000e+04
  1.74700000000000e+04
  4.93500000000000e+03
  1.60200000000000e+03
  5.74100000000000e+02
  2.21500000000000e+02
  9.05400000000000e+01
  3.87400000000000e+01
  1.69500000000000e+01
  6.45200000000000e+00
  2.87400000000000e+00
  1.25000000000000e+00
  3.59900000000000e-01
  1.69900000000000e-01
  7.06600000000000e-02
  1.12200000000000e+03
  2.66000000000000e+02
  8.59200000000000e+01
  3.23300000000000e+01
  1.33700000000000e+01
  5.80000000000000e+00
  2.55900000000000e+00
  1.12400000000000e+00
  3.98800000000000e-01
  1.53300000000000e-01
  5.72800000000000e-02
  7.60000000000000e-01
  3.02000000000000e-01
  1.20000000000000e-01
  5.41000000000000e-01
  2.12000000000000e-01
  4.61000000000000e-01
  5.13000000000000e+05
  7.68200000000000e+04
  1.74700000000000e+04
  4.93500000000000e+03
  1.60200000000000e+03
  5.74100000000000e+02
  2.21500000000000e+02
  9.05400000000000e+01
  3.87400000000000e+01
  1.69500000000000e+01
  6.45200000000000e+00
  2.87400000000000e+00
  1.25000000000000e+00
  3.59900000000000e-01
  1.69900000000000e-01
  7.06600000000000e-02
  1.12200000000000e+03
  2.66000000000000e+02
  8.59200000000000e+01
  3.23300000000000e+01
  1.33700000000000e+01
  5.80000000000000e+00
  2.55900000000000e+00
  1.12400000000000e+00
  3.98800000000000e-01
  1.53300000000000e-01
  5.72800000000000e-02
  7.60000000000000e-01
  3.02000000000000e-01
  1.20000000000000e-01
  5.41000000000000e-01
  2.12000000000000e-01
  4.61000000000000e-01

  3.56439732356011e-01
  6.67250935594825e-01
  1.15567538346971e+00
  1.89079471139597e+00
  2.92997535092854e+00
  4.25377897422013e+00
  5.53035652706994e+00
  5.88407857713363e+00
  4.26432221020809e+00
  1.46246852660687e+00
  9.90009037975635e-02
 -5.26805361731285e-03
  1.58075269248041e-03
 -9.63604858609034e-02
 -1.80140685379119e-01
 -3.12991611081079e-01
 -5.12013980868736e-01
 -8.03092560139717e-01
 -1.18597193899895e+00
 -1.63453354628192e+00
 -1.94138718043020e+00
 -1.86039340932271e+00
 -9.21642524314205e-01
  4.93552860211257e-01
  9.09065541611183e-01
  3.40430003714153e-01
  4.89002727192571e-02
  9.13245846186842e-02
  1.58921585782757e-01
  2.59526822498432e-01
  4.08347517411705e-01
  6.02266139654795e-01
  8.36774006155092e-01
  9.98775610751853e-01
  9.86583994360998e-01
  5.01500269670235e-01
 -2.91439000418814e-01
 -6.84883633703988e-01
 -4.85138432421684e-01
  3.31166560285492e-01
  1.88605835767988e-01
  9.76765512168845e-02
  4.17977074735086e+00
  5.88843070847456e+00
  7.44317185052013e+00
  8.05001094515016e+00
  6.97099017282640e+00
  4.33955185260449e+00
  1.76355858703549e+00
  3.34437932089088e-01
 -4.09551658476811e+00
 -5.70145272051300e+00
 -7.35388974061730e+00
 -7.93663059323219e+00
 -7.17813870370958e+00
 -4.42768957771269e+00
 -2.05517820096269e+00
 -1.72105843348797e-01
  4.51735295769850e-01
  1.36731249153695e-01
  3.99432914781939e-02
  1.01820035164008e+00
  2.02498404800701e-01
  4.02695370421242e-02
  3.69528803814005e-01
  4.48962571437413e-02
  1.32316184864580e-01
  3.56439732356011e-01
  6.67250935594825e-01
  1.15567538346971e+00
  1.89079471139597e+00
  2.92997535092854e+00
  4.25377897422013e+00
  5.53035652706994e+00
  5.88407857713363e+00
  4.26432221020809e+00
  1.46246852660687e+00
  9.90009037975635e-02
 -5.26805361731285e-03
  1.58075269248041e-03
 -9.63604858609034e-02
 -1.80140685379119e-01
 -3.12991611081079e-01
 -5.12013980868736e-01
 -8.03092560139717e-01
 -1.18597193899895e+00
 -1.63453354628192e+00
 -1.94138718043020e+00
 -1.86039340932271e+00
 -9.21642524314205e-01
  4.93552860211257e-01
  9.09065541611183e-01
  3.40430003714153e-01
  4.89002727192571e-02
  9.13245846186842e-02
  1.58921585782757e-01
  2.59526822498432e-01
  4.08347517411705e-01
  6.02266139654795e-01
  8.36774006155092e-01
  9.98775610751853e-01
  9.86583994360998e-01
  5.01500269670235e-01
 -2.91439000418814e-01
 -6.84883633703988e-01
 -4.85138432421684e-01
  3.31166560285492e-01
  1.88605835767988e-01
  9.76765512168845e-02
  4.17977074735086e+00
  5.88843070847456e+00
  7.44317185052013e+00
  8.05001094515016e+00
  6.97099017282640e+00
  4.33955185260449e+00
  1.76355858703549e+00
  3.34437932089088e-01
 -4.09551658476811e+00
 -5.70145272051300e+00
 -7.35388974061730e+00
 -7.93663059323219e+00
 -7.17813870370958e+00
 -4.42768957771269e+00
 -2.05517820096269e+00
 -1.72105843348797e-01
  4.51735295769850e-01
  1.36731249153695e-01
  3.99432914781939e-02
  1.01820035164008e+00
  2.02498404800701e-01
  4.02695370421242e-02
  3.69528803814005e-01
  4.48962571437413e-02
  1.32316184864580e-01

0 0 0 0 3 3 3
0 0 13 0 26 0 
13 0

0 3 3 13 1 1 1
39 0 
1 0

0 4 4 14 1 1 1
40 0 
1 0

0 5 5 15 1 1 1
41 0 
1 0

0 6 6 16 2 6 6
42 1 50 1 
8 0

0 12 12 24 1 3 3
58 1 
1 0

0 15 15 25 1 3 3
59 1 
1 0

0 18 18 26 1 3 3
60 1 
1 0

0 21 21 27 1 5 6
61 2 
1 1

0 26 26 28 1 5 6
62 2 
1 1

0 31 31 29 1 5 6
63 2 
1 1

0 36 36 30 1 7 10
64 3 
1 1

0 43 43 31 1 7 10
65 3 
1 1

0 50 50 32 1 9 15
66 4 
1 1

1 59 59 33 3 3 3
67 0 80 0 93 0 
13 0

1 62 62 46 1 1 1
106 0 
1 0

1 63 63 47 1 1 1
107 0 
1 0

1 64 64 48 1 1 1
108 0 
1 0

1 65 65 49 2 6 6
109 1 117 1 
8 0

1 71 71 57 1 3 3
125 1 
1 0

1 74 74 58 1 3 3
126 1 
1 0

1 77 77 59 1 3 3
127 1 
1 0

1 80 80 60 1 5 6
128 2 
1 1

1 85 85 61 1 5 6
129 2 
1 1

1 90 90 62 1 5 6
130 2 
1 1

1 95 95 63 1 7 10
131 3 
1 1

1 102 102 64 1 7 10
132 3 
1 1

1 109 109 65 1 9 15
133 4 
1 1

 -------------------------------------------------------------
 Allocate 265256 B from available memory: 1048576000000 B
 There are 2197 image cells after screening.
 There are 2061 image cells for CGTO evaluation after screening.
 Real-Space grid for FFT initialized based on kinetic energy cutoff (eV) = 500.0
 Real-Space grid for FFT: (10,10,10)
 There are 9261 real-space grid points.
 There are 64 batches of real-space grid points. 
 Size of each grid batch is around 128
 Grid for AFT initialized based on kinetic energy cutoff (eV) = 500.0
 Real-Space grid for AFT: (10,10,10)
 There are 9261 real-space grid points.

 There are 5628 atom-centered grid points.

 Spacegroup symmetry group: Fd-3m
 Reducing spacegroup symmetry to symmorphic group: F -4 3 m
 Monkhorst-Pack mesh is [11,11,11]
 There are 1331 k points.
kpoints in Bohr
-0.2783293690 -0.2783293690 -0.2783293690
-0.2226634952 -0.2226634952 -0.3339952428
-0.1669976214 -0.1669976214 -0.3896611166
-0.1113317476 -0.1113317476 -0.4453269904
-0.0556658738 -0.0556658738 -0.5009928642
-0.0000000000 -0.0000000000 -0.5566587381
0.0556658738 0.0556658738 -0.6123246119
0.1113317476 0.1113317476 -0.6679904857
0.1669976214 0.1669976214 -0.7236563595
0.2226634952 0.2226634952 -0.7793222333
0.2783293690 0.2783293690 -0.8349881071
-0.2226634952 -0.3339952428 -0.2226634952
-0.1669976214 -0.2783293690 -0.2783293690
-0.1113317476 -0.2226634952 -0.3339952428
-0.0556658738 -0.1669976214 -0.3896611166
-0.0000000000 -0.1113317476 -0.4453269904
0.0556658738 -0.0556658738 -0.5009928642
0.1113317476 -0.0000000000 -0.5566587381
0.1669976214 0.0556658738 -0.6123246119
0.2226634952 0.1113317476 -0.6679904857
0.2783293690 0.1669976214 -0.7236563595
0.3339952428 0.2226634952 -0.7793222333
-0.1669976214 -0.3896611166 -0.1669976214
-0.1113317476 -0.3339952428 -0.2226634952
-0.0556658738 -0.2783293690 -0.2783293690
-0.0000000000 -0.2226634952 -0.3339952428
0.0556658738 -0.1669976214 -0.3896611166
0.1113317476 -0.1113317476 -0.4453269904
0.1669976214 -0.0556658738 -0.5009928642
0.2226634952 -0.0000000000 -0.5566587381
0.2783293690 0.0556658738 -0.6123246119
0.3339952428 0.1113317476 -0.6679904857
0.3896611166 0.1669976214 -0.7236563595
-0.1113317476 -0.4453269904 -0.1113317476
-0.0556658738 -0.3896611166 -0.1669976214
-0.0000000000 -0.3339952428 -0.2226634952
0.0556658738 -0.2783293690 -0.2783293690
0.1113317476 -0.2226634952 -0.3339952428
0.1669976214 -0.1669976214 -0.3896611166
0.2226634952 -0.1113317476 -0.4453269904
0.2783293690 -0.0556658738 -0.5009928642
0.3339952428 0.0000000000 -0.5566587381
0.3896611166 0.0556658738 -0.6123246119
0.4453269904 0.1113317476 -0.6679904857
-0.0556658738 -0.5009928642 -0.0556658738
-0.0000000000 -0.4453269904 -0.1113317476
0.0556658738 -0.3896611166 -0.1669976214
0.1113317476 -0.3339952428 -0.2226634952
0.1669976214 -0.2783293690 -0.2783293690
0.2226634952 -0.2226634952 -0.3339952428
0.2783293690 -0.1669976214 -0.3896611166
0.3339952428 -0.1113317476 -0.4453269904
0.3896611166 -0.0556658738 -0.5009928642
0.4453269904 0.0000000000 -0.5566587381
0.5009928642 0.0556658738 -0.6123246119
-0.0000000000 -0.5566587381 0.0000000000
0.0556658738 -0.5009928642 -0.0556658738
0.1113317476 -0.4453269904 -0.1113317476
0.1669976214 -0.3896611166 -0.1669976214
0.2226634952 -0.3339952428 -0.2226634952
0.2783293690 -0.2783293690 -0.2783293690
0.3339952428 -0.2226634952 -0.3339952428
0.3896611166 -0.1669976214 -0.3896611166
0.4453269904 -0.1113317476 -0.4453269904
0.5009928642 -0.0556658738 -0.5009928642
0.5566587381 0.0000000000 -0.5566587381
0.0556658738 -0.6123246119 0.0556658738
0.1113317476 -0.5566587381 0.0000000000
0.1669976214 -0.5009928642 -0.0556658738
0.2226634952 -0.4453269904 -0.1113317476
0.2783293690 -0.3896611166 -0.1669976214
0.3339952428 -0.3339952428 -0.2226634952
0.3896611166 -0.2783293690 -0.2783293690
0.4453269904 -0.2226634952 -0.3339952428
0.5009928642 -0.1669976214 -0.3896611166
0.5566587381 -0.1113317476 -0.4453269904
0.6123246119 -0.0556658738 -0.5009928642
0.1113317476 -0.6679904857 0.1113317476
0.1669976214 -0.6123246119 0.0556658738
0.2226634952 -0.5566587381 0.0000000000
0.2783293690 -0.5009928642 -0.0556658738
0.3339952428 -0.4453269904 -0.1113317476
0.3896611166 -0.3896611166 -0.1669976214
0.4453269904 -0.3339952428 -0.2226634952
0.5009928642 -0.2783293690 -0.2783293690
0.5566587381 -0.2226634952 -0.3339952428
0.6123246119 -0.1669976214 -0.3896611166
0.6679904857 -0.1113317476 -0.4453269904
0.1669976214 -0.7236563595 0.1669976214
0.2226634952 -0.6679904857 0.1113317476
0.2783293690 -0.6123246119 0.0556658738
0.3339952428 -0.5566587381 0.0000000000
0.3896611166 -0.5009928642 -0.0556658738
0.4453269904 -0.4453269904 -0.1113317476
0.5009928642 -0.3896611166 -0.1669976214
0.5566587381 -0.3339952428 -0.2226634952
0.6123246119 -0.2783293690 -0.2783293690
0.6679904857 -0.2226634952 -0.3339952428
0.7236563595 -0.1669976214 -0.3896611166
0.2226634952 -0.7793222333 0.2226634952
0.2783293690 -0.7236563595 0.1669976214
0.3339952428 -0.6679904857 0.1113317476
0.3896611166 -0.6123246119 0.0556658738
0.4453269904 -0.5566587381 0.0000000000
0.5009928642 -0.5009928642 -0.0556658738
0.5566587381 -0.4453269904 -0.1113317476
0.6123246119 -0.3896611166 -0.1669976214
0.6679904857 -0.3339952428 -0.2226634952
0.7236563595 -0.2783293690 -0.2783293690
0.7793222333 -0.2226634952 -0.3339952428
0.2783293690 -0.8349881071 0.2783293690
0.3339952428 -0.7793222333 0.2226634952
0.3896611166 -0.7236563595 0.1669976214
0.4453269904 -0.6679904857 0.1113317476
0.5009928642 -0.6123246119 0.0556658738
0.5566587381 -0.5566587381 0.0000000000
0.6123246119 -0.5009928642 -0.0556658738
0.6679904857 -0.4453269904 -0.1113317476
0.7236563595 -0.3896611166 -0.1669976214
0.7793222333 -0.3339952428 -0.2226634952
0.8349881071 -0.2783293690 -0.2783293690
-0.3339952428 -0.2226634952 -0.2226634952
-0.2783293690 -0.1669976214 -0.2783293690
-0.2226634952 -0.1113317476 -0.3339952428
-0.1669976214 -0.0556658738 -0.3896611166
-0.1113317476 -0.0000000000 -0.4453269904
-0.0556658738 0.0556658738 -0.5009928642
-0.0000000000 0.1113317476 -0.5566587381
0.0556658738 0.1669976214 -0.6123246119
0.1113317476 0.2226634952 -0.6679904857
0.1669976214 0.2783293690 -0.7236563595
0.2226634952 0.3339952428 -0.7793222333
-0.2783293690 -0.2783293690 -0.1669976214
-0.2226634952 -0.2226634952 -0.2226634952
-0.1669976214 -0.1669976214 -0.2783293690
-0.1113317476 -0.1113317476 -0.3339952428
-0.0556658738 -0.0556658738 -0.3896611166
-0.0000000000 -0.0000000000 -0.4453269904
0.0556658738 0.0556658738 -0.5009928642
0.1113317476 0.1113317476 -0.5566587381
0.1669976214 0.1669976214 -0.6123246119
0.2226634952 0.2226634952 -0.6679904857
0.2783293690 0.2783293690 -0.7236563595
-0.2226634952 -0.3339952428 -0.1113317476
-0.1669976214 -0.2783293690 -0.1669976214
-0.1113317476 -0.2226634952 -0.2226634952
-0.0556658738 -0.1669976214 -0.2783293690
-0.0000000000 -0.1113317476 -0.3339952428
0.0556658738 -0.0556658738 -0.3896611166
0.1113317476 -0.0000000000 -0.4453269904
0.1669976214 0.0556658738 -0.5009928642
0.2226634952 0.1113317476 -0.5566587381
0.2783293690 0.1669976214 -0.6123246119
0.3339952428 0.2226634952 -0.6679904857
-0.1669976214 -0.3896611166 -0.0556658738
-0.1113317476 -0.3339952428 -0.1113317476
-0.0556658738 -0.2783293690 -0.1669976214
-0.0000000000 -0.2226634952 -0.2226634952
0.0556658738 -0.1669976214 -0.2783293690
0.1113317476 -0.1113317476 -0.3339952428
0.1669976214 -0.0556658738 -0.3896611166
0.2226634952 -0.0000000000 -0.4453269904
0.2783293690 0.0556658738 -0.5009928642
0.3339952428 0.1113317476 -0.5566587381
0.3896611166 0.1669976214 -0.6123246119
-0.1113317476 -0.4453269904 0.0000000000
-0.0556658738 -0.3896611166 -0.0556658738
-0.0000000000 -0.3339952428 -0.1113317476
0.0556658738 -0.2783293690 -0.1669976214
0.1113317476 -0.2226634952 -0.2226634952
0.1669976214 -0.1669976214 -0.2783293690
0.2226634952 -0.1113317476 -0.3339952428
0.2783293690 -0.0556658738 -0.3896611166
0.3339952428 -0.0000000000 -0.4453269904
0.3896611166 0.0556658738 -0.5009928642
0.4453269904 0.1113317476 -0.5566587381
-0.0556658738 -0.5009928642 0.0556658738
-0.0000000000 -0.4453269904 0.0000000000
0.0556658738 -0.3896611166 -0.0556658738
0.1113317476 -0.3339952428 -0.1113317476
0.1669976214 -0.2783293690 -0.1669976214
0.2226634952 -0.2226634952 -0.2226634952
0.2783293690 -0.1669976214 -0.2783293690
0.3339952428 -0.1113317476 -0.3339952428
0.3896611166 -0.0556658738 -0.3896611166
0.4453269904 0.0000000000 -0.4453269904
0.5009928642 0.0556658738 -0.5009928642
-0.0000000000 -0.5566587381 0.1113317476
0.0556658738 -0.5009928642 0.0556658738
0.1113317476 -0.4453269904 -0.0000000000
0.1669976214 -0.3896611166 -0.0556658738
0.2226634952 -0.3339952428 -0.1113317476
0.2783293690 -0.2783293690 -0.1669976214
0.3339952428 -0.2226634952 -0.2226634952
0.3896611166 -0.1669976214 -0.2783293690
0.4453269904 -0.1113317476 -0.3339952428
0.5009928642 -0.0556658738 -0.3896611166
0.5566587381 0.0000000000 -0.4453269904
0.0556658738 -0.6123246119 0.1669976214
0.1113317476 -0.5566587381 0.1113317476
0.1669976214 -0.5009928642 0.0556658738
0.2226634952 -0.4453269904 0.0000000000
0.2783293690 -0.3896611166 -0.0556658738
0.3339952428 -0.3339952428 -0.1113317476
0.3896611166 -0.2783293690 -0.1669976214
0.4453269904 -0.2226634952 -0.2226634952
0.5009928642 -0.1669976214 -0.2783293690
0.5566587381 -0.1113317476 -0.3339952428
0.6123246119 -0.0556658738 -0.3896611166
0.1113317476 -0.6679904857 0.2226634952
0.1669976214 -0.6123246119 0.1669976214
0.2226634952 -0.5566587381 0.1113317476
0.2783293690 -0.5009928642 0.0556658738
0.3339952428 -0.4453269904 0.0000000000
0.3896611166 -0.3896611166 -0.0556658738
0.4453269904 -0.3339952428 -0.1113317476
0.5009928642 -0.2783293690 -0.1669976214
0.5566587381 -0.2226634952 -0.2226634952
0.6123246119 -0.1669976214 -0.2783293690
0.6679904857 -0.1113317476 -0.3339952428
0.1669976214 -0.7236563595 0.2783293690
0.2226634952 -0.6679904857 0.2226634952
0.2783293690 -0.6123246119 0.1669976214
0.3339952428 -0.5566587381 0.1113317476
0.3896611166 -0.5009928642 0.0556658738
0.4453269904 -0.4453269904 0.0000000000
0.5009928642 -0.3896611166 -0.0556658738
0.5566587381 -0.3339952428 -0.1113317476
0.6123246119 -0.2783293690 -0.1669976214
0.6679904857 -0.2226634952 -0.2226634952
0.7236563595 -0.1669976214 -0.2783293690
0.2226634952 -0.7793222333 0.3339952428
0.2783293690 -0.7236563595 0.2783293690
0.3339952428 -0.6679904857 0.2226634952
0.3896611166 -0.6123246119 0.1669976214
0.4453269904 -0.5566587381 0.1113317476
0.5009928642 -0.5009928642 0.0556658738
0.5566587381 -0.4453269904 -0.0000000000
0.6123246119 -0.3896611166 -0.0556658738
0.6679904857 -0.3339952428 -0.1113317476
0.7236563595 -0.2783293690 -0.1669976214
0.7793222333 -0.2226634952 -0.2226634952
-0.3896611166 -0.1669976214 -0.1669976214
-0.3339952428 -0.1113317476 -0.2226634952
-0.2783293690 -0.0556658738 -0.2783293690
-0.2226634952 -0.0000000000 -0.3339952428
-0.1669976214 0.0556658738 -0.3896611166
-0.1113317476 0.1113317476 -0.4453269904
-0.0556658738 0.1669976214 -0.5009928642
-0.0000000000 0.2226634952 -0.5566587381
0.0556658738 0.2783293690 -0.6123246119
0.1113317476 0.3339952428 -0.6679904857
0.1669976214 0.3896611166 -0.7236563595
-0.3339952428 -0.2226634952 -0.1113317476
-0.2783293690 -0.1669976214 -0.1669976214
-0.2226634952 -0.1113317476 -0.2226634952
-0.1669976214 -0.0556658738 -0.2783293690
-0.1113317476 -0.0000000000 -0.3339952428
-0.0556658738 0.0556658738 -0.3896611166
-0.0000000000 0.1113317476 -0.4453269904
0.0556658738 0.1669976214 -0.5009928642
0.1113317476 0.2226634952 -0.5566587381
0.1669976214 0.2783293690 -0.6123246119
0.2226634952 0.3339952428 -0.6679904857
-0.2783293690 -0.2783293690 -0.0556658738
-0.2226634952 -0.2226634952 -0.1113317476
-0.1669976214 -0.1669976214 -0.1669976214
-0.1113317476 -0.1113317476 -0.2226634952
-0.0556658738 -0.0556658738 -0.2783293690
-0.0000000000 -0.0000000000 -0.3339952428
0.0556658738 0.0556658738 -0.3896611166
0.1113317476 0.1113317476 -0.4453269904
0.1669976214 0.1669976214 -0.5009928642
0.2226634952 0.2226634952 -0.5566587381
0.2783293690 0.2783293690 -0.6123246119
-0.2226634952 -0.3339952428 0.0000000000
-0.1669976214 -0.2783293690 -0.0556658738
-0.1113317476 -0.2226634952 -0.1113317476
-0.0556658738 -0.1669976214 -0.1669976214
-0.0000000000 -0.1113317476 -0.2226634952
0.0556658738 -0.0556658738 -0.2783293690
0.1113317476 -0.0000000000 -0.3339952428
0.1669976214 0.0556658738 -0.3896611166
0.2226634952 0.1113317476 -0.4453269904
0.2783293690 0.1669976214 -0.5009928642
0.3339952428 0.2226634952 -0.5566587381
-0.1669976214 -0.3896611166 0.0556658738
-0.1113317476 -0.3339952428 0.0000000000
-0.0556658738 -0.2783293690 -0.0556658738
-0.0000000000 -0.2226634952 -0.1113317476
0.0556658738 -0.1669976214 -0.1669976214
0.1113317476 -0.1113317476 -0.2226634952
0.1669976214 -0.0556658738 -0.2783293690
0.2226634952 0.0000000000 -0.3339952428
0.2783293690 0.0556658738 -0.3896611166
0.3339952428 0.1113317476 -0.4453269904
0.3896611166 0.1669976214 -0.5009928642
-0.1113317476 -0.4453269904 0.1113317476
-0.0556658738 -0.3896611166 0.0556658738
-0.0000000000 -0.3339952428 0.0000000000
0.0556658738 -0.2783293690 -0.0556658738
0.1113317476 -0.2226634952 -0.1113317476
0.1669976214 -0.1669976214 -0.1669976214
0.2226634952 -0.1113317476 -0.2226634952
0.2783293690 -0.0556658738 -0.2783293690
0.3339952428 0.0000000000 -0.3339952428
0.3896611166 0.0556658738 -0.3896611166
0.4453269904 0.1113317476 -0.4453269904
-0.0556658738 -0.5009928642 0.1669976214
-0.0000000000 -0.4453269904 0.1113317476
0.0556658738 -0.3896611166 0.0556658738
0.1113317476 -0.3339952428 0.0000000000
0.1669976214 -0.2783293690 -0.0556658738
0.2226634952 -0.2226634952 -0.1113317476
0.2783293690 -0.1669976214 -0.1669976214
0.3339952428 -0.1113317476 -0.2226634952
0.3896611166 -0.0556658738 -0.2783293690
0.4453269904 0.0000000000 -0.3339952428
0.5009928642 0.0556658738 -0.3896611166
-0.0000000000 -0.5566587381 0.2226634952
0.0556658738 -0.5009928642 0.1669976214
0.1113317476 -0.4453269904 0.1113317476
0.1669976214 -0.3896611166 0.0556658738
0.2226634952 -0.3339952428 0.0000000000
0.2783293690 -0.2783293690 -0.0556658738
0.3339952428 -0.2226634952 -0.1113317476
0.3896611166 -0.1669976214 -0.1669976214
0.4453269904 -0.1113317476 -0.2226634952
0.5009928642 -0.0556658738 -0.2783293690
0.5566587381 0.0000000000 -0.3339952428
0.0556658738 -0.6123246119 0.2783293690
0.1113317476 -0.5566587381 0.2226634952
0.1669976214 -0.5009928642 0.1669976214
0.2226634952 -0.4453269904 0.1113317476
0.2783293690 -0.3896611166 0.0556658738
0.3339952428 -0.3339952428 0.0000000000
0.3896611166 -0.2783293690 -0.0556658738
0.4453269904 -0.2226634952 -0.1113317476
0.5009928642 -0.1669976214 -0.1669976214
0.5566587381 -0.1113317476 -0.2226634952
0.6123246119 -0.0556658738 -0.2783293690
0.1113317476 -0.6679904857 0.3339952428
0.1669976214 -0.6123246119 0.2783293690
0.2226634952 -0.5566587381 0.2226634952
0.2783293690 -0.5009928642 0.1669976214
0.3339952428 -0.4453269904 0.1113317476
0.3896611166 -0.3896611166 0.0556658738
0.4453269904 -0.3339952428 0.0000000000
0.5009928642 -0.2783293690 -0.0556658738
0.5566587381 -0.2226634952 -0.1113317476
0.6123246119 -0.1669976214 -0.1669976214
0.6679904857 -0.1113317476 -0.2226634952
0.1669976214 -0.7236563595 0.3896611166
0.2226634952 -0.6679904857 0.3339952428
0.2783293690 -0.6123246119 0.2783293690
0.3339952428 -0.5566587381 0.2226634952
0.3896611166 -0.5009928642 0.1669976214
0.4453269904 -0.4453269904 0.1113317476
0.5009928642 -0.3896611166 0.0556658738
0.5566587381 -0.3339952428 0.0000000000
0.6123246119 -0.2783293690 -0.0556658738
0.6679904857 -0.2226634952 -0.1113317476
0.7236563595 -0.1669976214 -0.1669976214
-0.4453269904 -0.1113317476 -0.1113317476
-0.3896611166 -0.0556658738 -0.1669976214
-0.3339952428 -0.0000000000 -0.2226634952
-0.2783293690 0.0556658738 -0.2783293690
-0.2226634952 0.1113317476 -0.3339952428
-0.1669976214 0.1669976214 -0.3896611166
-0.1113317476 0.2226634952 -0.4453269904
-0.0556658738 0.2783293690 -0.5009928642
-0.0000000000 0.3339952428 -0.5566587381
0.0556658738 0.3896611166 -0.6123246119
0.1113317476 0.4453269904 -0.6679904857
-0.3896611166 -0.1669976214 -0.0556658738
-0.3339952428 -0.1113317476 -0.1113317476
-0.2783293690 -0.0556658738 -0.1669976214
-0.2226634952 -0.0000000000 -0.2226634952
-0.1669976214 0.0556658738 -0.2783293690
-0.1113317476 0.1113317476 -0.3339952428
-0.0556658738 0.1669976214 -0.3896611166
-0.0000000000 0.2226634952 -0.4453269904
0.0556658738 0.2783293690 -0.5009928642
0.1113317476 0.3339952428 -0.5566587381
0.1669976214 0.3896611166 -0.6123246119
-0.3339952428 -0.2226634952 0.0000000000
-0.2783293690 -0.1669976214 -0.0556658738
-0.2226634952 -0.1113317476 -0.1113317476
-0.1669976214 -0.0556658738 -0.1669976214
-0.1113317476 -0.0000000000 -0.2226634952
-0.0556658738 0.0556658738 -0.2783293690
-0.0000000000 0.1113317476 -0.3339952428
0.0556658738 0.1669976214 -0.3896611166
0.1113317476 0.2226634952 -0.4453269904
0.1669976214 0.2783293690 -0.5009928642
0.2226634952 0.3339952428 -0.5566587381
-0.2783293690 -0.2783293690 0.0556658738
-0.2226634952 -0.2226634952 -0.0000000000
-0.1669976214 -0.1669976214 -0.0556658738
-0.1113317476 -0.1113317476 -0.1113317476
-0.0556658738 -0.0556658738 -0.1669976214
-0.0000000000 -0.0000000000 -0.2226634952
0.0556658738 0.0556658738 -0.2783293690
0.1113317476 0.1113317476 -0.3339952428
0.1669976214 0.1669976214 -0.3896611166
0.2226634952 0.2226634952 -0.4453269904
0.2783293690 0.2783293690 -0.5009928642
-0.2226634952 -0.3339952428 0.1113317476
-0.1669976214 -0.2783293690 0.0556658738
-0.1113317476 -0.2226634952 -0.0000000000
-0.0556658738 -0.1669976214 -0.0556658738
-0.0000000000 -0.1113317476 -0.1113317476
0.0556658738 -0.0556658738 -0.1669976214
0.1113317476 -0.0000000000 -0.2226634952
0.1669976214 0.0556658738 -0.2783293690
0.2226634952 0.1113317476 -0.3339952428
0.2783293690 0.1669976214 -0.3896611166
0.3339952428 0.2226634952 -0.4453269904
-0.1669976214 -0.3896611166 0.1669976214
-0.1113317476 -0.3339952428 0.1113317476
-0.0556658738 -0.2783293690 0.0556658738
-0.0000000000 -0.2226634952 0.0000000000
0.0556658738 -0.1669976214 -0.0556658738
0.1113317476 -0.1113317476 -0.1113317476
0.1669976214 -0.0556658738 -0.1669976214
0.2226634952 0.0000000000 -0.2226634952
0.2783293690 0.0556658738 -0.2783293690
0.3339952428 0.1113317476 -0.3339952428
0.3896611166 0.1669976214 -0.3896611166
-0.1113317476 -0.4453269904 0.2226634952
-0.0556658738 -0.3896611166 0.1669976214
-0.0000000000 -0.3339952428 0.1113317476
0.0556658738 -0.2783293690 0.0556658738
0.1113317476 -0.2226634952 0.0000000000
0.1669976214 -0.1669976214 -0.0556658738
0.2226634952 -0.1113317476 -0.1113317476
0.2783293690 -0.0556658738 -0.1669976214
0.3339952428 0.0000000000 -0.2226634952
0.3896611166 0.0556658738 -0.2783293690
0.4453269904 0.1113317476 -0.3339952428
-0.0556658738 -0.5009928642 0.2783293690
-0.0000000000 -0.4453269904 0.2226634952
0.0556658738 -0.3896611166 0.1669976214
0.1113317476 -0.3339952428 0.1113317476
0.1669976214 -0.2783293690 0.0556658738
0.2226634952 -0.2226634952 0.0000000000
0.2783293690 -0.1669976214 -0.0556658738
0.3339952428 -0.1113317476 -0.1113317476
0.3896611166 -0.0556658738 -0.1669976214
0.4453269904 0.0000000000 -0.2226634952
0.5009928642 0.0556658738 -0.2783293690
-0.0000000000 -0.5566587381 0.3339952428
0.0556658738 -0.5009928642 0.2783293690
0.1113317476 -0.4453269904 0.2226634952
0.1669976214 -0.3896611166 0.1669976214
0.2226634952 -0.3339952428 0.1113317476
0.2783293690 -0.2783293690 0.0556658738
0.3339952428 -0.2226634952 0.0000000000
0.3896611166 -0.1669976214 -0.0556658738
0.4453269904 -0.1113317476 -0.1113317476
0.5009928642 -0.0556658738 -0.1669976214
0.5566587381 0.0000000000 -0.2226634952
0.0556658738 -0.6123246119 0.3896611166
0.1113317476 -0.5566587381 0.3339952428
0.1669976214 -0.5009928642 0.2783293690
0.2226634952 -0.4453269904 0.2226634952
0.2783293690 -0.3896611166 0.1669976214
0.3339952428 -0.3339952428 0.1113317476
0.3896611166 -0.2783293690 0.0556658738
0.4453269904 -0.2226634952 0.0000000000
0.5009928642 -0.1669976214 -0.0556658738
0.5566587381 -0.1113317476 -0.1113317476
0.6123246119 -0.0556658738 -0.1669976214
0.1113317476 -0.6679904857 0.4453269904
0.1669976214 -0.6123246119 0.3896611166
0.2226634952 -0.5566587381 0.3339952428
0.2783293690 -0.5009928642 0.2783293690
0.3339952428 -0.4453269904 0.2226634952
0.3896611166 -0.3896611166 0.1669976214
0.4453269904 -0.3339952428 0.1113317476
0.5009928642 -0.2783293690 0.0556658738
0.5566587381 -0.2226634952 0.0000000000
0.6123246119 -0.1669976214 -0.0556658738
0.6679904857 -0.1113317476 -0.1113317476
-0.5009928642 -0.0556658738 -0.0556658738
-0.4453269904 -0.0000000000 -0.1113317476
-0.3896611166 0.0556658738 -0.1669976214
-0.3339952428 0.1113317476 -0.2226634952
-0.2783293690 0.1669976214 -0.2783293690
-0.2226634952 0.2226634952 -0.3339952428
-0.1669976214 0.2783293690 -0.3896611166
-0.1113317476 0.3339952428 -0.4453269904
-0.0556658738 0.3896611166 -0.5009928642
0.0000000000 0.4453269904 -0.5566587381
0.0556658738 0.5009928642 -0.6123246119
-0.4453269904 -0.1113317476 -0.0000000000
-0.3896611166 -0.0556658738 -0.0556658738
-0.3339952428 -0.0000000000 -0.1113317476
-0.2783293690 0.0556658738 -0.1669976214
-0.2226634952 0.1113317476 -0.2226634952
-0.1669976214 0.1669976214 -0.2783293690
-0.1113317476 0.2226634952 -0.3339952428
-0.0556658738 0.2783293690 -0.3896611166
0.0000000000 0.3339952428 -0.4453269904
0.0556658738 0.3896611166 -0.5009928642
0.1113317476 0.4453269904 -0.5566587381
-0.3896611166 -0.1669976214 0.0556658738
-0.3339952428 -0.1113317476 0.0000000000
-0.2783293690 -0.0556658738 -0.0556658738
-0.2226634952 -0.0000000000 -0.1113317476
-0.1669976214 0.0556658738 -0.1669976214
-0.1113317476 0.1113317476 -0.2226634952
-0.0556658738 0.1669976214 -0.2783293690
0.0000000000 0.2226634952 -0.3339952428
0.0556658738 0.2783293690 -0.3896611166
0.1113317476 0.3339952428 -0.4453269904
0.1669976214 0.3896611166 -0.5009928642
-0.3339952428 -0.2226634952 0.1113317476
-0.2783293690 -0.1669976214 0.0556658738
-0.2226634952 -0.1113317476 -0.0000000000
-0.1669976214 -0.0556658738 -0.0556658738
-0.1113317476 -0.0000000000 -0.1113317476
-0.0556658738 0.0556658738 -0.1669976214
-0.0000000000 0.1113317476 -0.2226634952
0.0556658738 0.1669976214 -0.2783293690
0.1113317476 0.2226634952 -0.3339952428
0.1669976214 0.2783293690 -0.3896611166
0.2226634952 0.3339952428 -0.4453269904
-0.2783293690 -0.2783293690 0.1669976214
-0.2226634952 -0.2226634952 0.1113317476
-0.1669976214 -0.1669976214 0.0556658738
-0.1113317476 -0.1113317476 -0.0000000000
-0.0556658738 -0.0556658738 -0.0556658738
-0.0000000000 -0.0000000000 -0.1113317476
0.0556658738 0.0556658738 -0.1669976214
0.1113317476 0.1113317476 -0.2226634952
0.1669976214 0.1669976214 -0.2783293690
0.2226634952 0.2226634952 -0.3339952428
0.2783293690 0.2783293690 -0.3896611166
-0.2226634952 -0.3339952428 0.2226634952
-0.1669976214 -0.2783293690 0.1669976214
-0.1113317476 -0.2226634952 0.1113317476
-0.0556658738 -0.1669976214 0.0556658738
-0.0000000000 -0.1113317476 0.0000000000
0.0556658738 -0.0556658738 -0.0556658738
0.1113317476 0.0000000000 -0.1113317476
0.1669976214 0.0556658738 -0.1669976214
0.2226634952 0.1113317476 -0.2226634952
0.2783293690 0.1669976214 -0.2783293690
0.3339952428 0.2226634952 -0.3339952428
-0.1669976214 -0.3896611166 0.2783293690
-0.1113317476 -0.3339952428 0.2226634952
-0.0556658738 -0.2783293690 0.1669976214
-0.0000000000 -0.2226634952 0.1113317476
0.0556658738 -0.1669976214 0.0556658738
0.1113317476 -0.1113317476 0.0000000000
0.1669976214 -0.0556658738 -0.0556658738
0.2226634952 0.0000000000 -0.1113317476
0.2783293690 0.0556658738 -0.1669976214
0.3339952428 0.1113317476 -0.2226634952
0.3896611166 0.1669976214 -0.2783293690
-0.1113317476 -0.4453269904 0.3339952428
-0.0556658738 -0.3896611166 0.2783293690
-0.0000000000 -0.3339952428 0.2226634952
0.0556658738 -0.2783293690 0.1669976214
0.1113317476 -0.2226634952 0.1113317476
0.1669976214 -0.1669976214 0.0556658738
0.2226634952 -0.1113317476 0.0000000000
0.2783293690 -0.0556658738 -0.0556658738
0.3339952428 0.0000000000 -0.1113317476
0.3896611166 0.0556658738 -0.1669976214
0.4453269904 0.1113317476 -0.2226634952
-0.0556658738 -0.5009928642 0.3896611166
-0.0000000000 -0.4453269904 0.3339952428
0.0556658738 -0.3896611166 0.2783293690
0.1113317476 -0.3339952428 0.2226634952
0.1669976214 -0.2783293690 0.1669976214
0.2226634952 -0.2226634952 0.1113317476
0.2783293690 -0.1669976214 0.0556658738
0.3339952428 -0.1113317476 0.0000000000
0.3896611166 -0.0556658738 -0.0556658738
0.4453269904 0.0000000000 -0.1113317476
0.5009928642 0.0556658738 -0.1669976214
0.0000000000 -0.5566587381 0.4453269904
0.0556658738 -0.5009928642 0.3896611166
0.1113317476 -0.4453269904 0.3339952428
0.1669976214 -0.3896611166 0.2783293690
0.2226634952 -0.3339952428 0.2226634952
0.2783293690 -0.2783293690 0.1669976214
0.3339952428 -0.2226634952 0.1113317476
0.3896611166 -0.1669976214 0.0556658738
0.4453269904 -0.1113317476 0.0000000000
0.5009928642 -0.0556658738 -0.0556658738
0.5566587381 0.0000000000 -0.1113317476
0.0556658738 -0.6123246119 0.5009928642
0.1113317476 -0.5566587381 0.4453269904
0.1669976214 -0.5009928642 0.3896611166
0.2226634952 -0.4453269904 0.3339952428
0.2783293690 -0.3896611166 0.2783293690
0.3339952428 -0.3339952428 0.2226634952
0.3896611166 -0.2783293690 0.1669976214
0.4453269904 -0.2226634952 0.1113317476
0.5009928642 -0.1669976214 0.0556658738
0.5566587381 -0.1113317476 0.0000000000
0.6123246119 -0.0556658738 -0.0556658738
-0.5566587381 -0.0000000000 0.0000000000
-0.5009928642 0.0556658738 -0.0556658738
-0.4453269904 0.1113317476 -0.1113317476
-0.3896611166 0.1669976214 -0.1669976214
-0.3339952428 0.2226634952 -0.2226634952
-0.2783293690 0.2783293690 -0.2783293690
-0.2226634952 0.3339952428 -0.3339952428
-0.1669976214 0.3896611166 -0.3896611166
-0.1113317476 0.4453269904 -0.4453269904
-0.0556658738 0.5009928642 -0.5009928642
0.0000000000 0.5566587381 -0.5566587381
-0.5009928642 -0.0556658738 0.0556658738
-0.4453269904 -0.0000000000 -0.0000000000
-0.3896611166 0.0556658738 -0.0556658738
-0.3339952428 0.1113317476 -0.1113317476
-0.2783293690 0.1669976214 -0.1669976214
-0.2226634952 0.2226634952 -0.2226634952
-0.1669976214 0.2783293690 -0.2783293690
-0.1113317476 0.3339952428 -0.3339952428
-0.0556658738 0.3896611166 -0.3896611166
0.0000000000 0.4453269904 -0.4453269904
0.0556658738 0.5009928642 -0.5009928642
-0.4453269904 -0.1113317476 0.1113317476
-0.3896611166 -0.0556658738 0.0556658738
-0.3339952428 -0.0000000000 -0.0000000000
-0.2783293690 0.0556658738 -0.0556658738
-0.2226634952 0.1113317476 -0.1113317476
-0.1669976214 0.1669976214 -0.1669976214
-0.1113317476 0.2226634952 -0.2226634952
-0.0556658738 0.2783293690 -0.2783293690
0.0000000000 0.3339952428 -0.3339952428
0.0556658738 0.3896611166 -0.3896611166
0.1113317476 0.4453269904 -0.4453269904
-0.3896611166 -0.1669976214 0.1669976214
-0.3339952428 -0.1113317476 0.1113317476
-0.2783293690 -0.0556658738 0.0556658738
-0.2226634952 -0.0000000000 -0.0000000000
-0.1669976214 0.0556658738 -0.0556658738
-0.1113317476 0.1113317476 -0.1113317476
-0.0556658738 0.1669976214 -0.1669976214
0.0000000000 0.2226634952 -0.2226634952
0.0556658738 0.2783293690 -0.2783293690
0.1113317476 0.3339952428 -0.3339952428
0.1669976214 0.3896611166 -0.3896611166
-0.3339952428 -0.2226634952 0.2226634952
-0.2783293690 -0.1669976214 0.1669976214
-0.2226634952 -0.1113317476 0.1113317476
-0.1669976214 -0.0556658738 0.0556658738
-0.1113317476 -0.0000000000 -0.0000000000
-0.0556658738 0.0556658738 -0.0556658738
0.0000000000 0.1113317476 -0.1113317476
0.0556658738 0.1669976214 -0.1669976214
0.1113317476 0.2226634952 -0.2226634952
0.1669976214 0.2783293690 -0.2783293690
0.2226634952 0.3339952428 -0.3339952428
-0.2783293690 -0.2783293690 0.2783293690
-0.2226634952 -0.2226634952 0.2226634952
-0.1669976214 -0.1669976214 0.1669976214
-0.1113317476 -0.1113317476 0.1113317476
-0.0556658738 -0.0556658738 0.0556658738
0.0000000000 0.0000000000 0.0000000000
0.0556658738 0.0556658738 -0.0556658738
0.1113317476 0.1113317476 -0.1113317476
0.1669976214 0.1669976214 -0.1669976214
0.2226634952 0.2226634952 -0.2226634952
0.2783293690 0.2783293690 -0.2783293690
-0.2226634952 -0.3339952428 0.3339952428
-0.1669976214 -0.2783293690 0.2783293690
-0.1113317476 -0.2226634952 0.2226634952
-0.0556658738 -0.1669976214 0.1669976214
-0.0000000000 -0.1113317476 0.1113317476
0.0556658738 -0.0556658738 0.0556658738
0.1113317476 0.0000000000 0.0000000000
0.1669976214 0.0556658738 -0.0556658738
0.2226634952 0.1113317476 -0.1113317476
0.2783293690 0.1669976214 -0.1669976214
0.3339952428 0.2226634952 -0.2226634952
-0.1669976214 -0.3896611166 0.3896611166
-0.1113317476 -0.3339952428 0.3339952428
-0.0556658738 -0.2783293690 0.2783293690
-0.0000000000 -0.2226634952 0.2226634952
0.0556658738 -0.1669976214 0.1669976214
0.1113317476 -0.1113317476 0.1113317476
0.1669976214 -0.0556658738 0.0556658738
0.2226634952 0.0000000000 0.0000000000
0.2783293690 0.0556658738 -0.0556658738
0.3339952428 0.1113317476 -0.1113317476
0.3896611166 0.1669976214 -0.1669976214
-0.1113317476 -0.4453269904 0.4453269904
-0.0556658738 -0.3896611166 0.3896611166
-0.0000000000 -0.3339952428 0.3339952428
0.0556658738 -0.2783293690 0.2783293690
0.1113317476 -0.2226634952 0.2226634952
0.1669976214 -0.1669976214 0.1669976214
0.2226634952 -0.1113317476 0.1113317476
0.2783293690 -0.0556658738 0.0556658738
0.3339952428 0.0000000000 0.0000000000
0.3896611166 0.0556658738 -0.0556658738
0.4453269904 0.1113317476 -0.1113317476
-0.0556658738 -0.5009928642 0.5009928642
-0.0000000000 -0.4453269904 0.4453269904
0.0556658738 -0.3896611166 0.3896611166
0.1113317476 -0.3339952428 0.3339952428
0.1669976214 -0.2783293690 0.2783293690
0.2226634952 -0.2226634952 0.2226634952
0.2783293690 -0.1669976214 0.1669976214
0.3339952428 -0.1113317476 0.1113317476
0.3896611166 -0.0556658738 0.0556658738
0.4453269904 0.0000000000 0.0000000000
0.5009928642 0.0556658738 -0.0556658738
0.0000000000 -0.5566587381 0.5566587381
0.0556658738 -0.5009928642 0.5009928642
0.1113317476 -0.4453269904 0.4453269904
0.1669976214 -0.3896611166 0.3896611166
0.2226634952 -0.3339952428 0.3339952428
0.2783293690 -0.2783293690 0.2783293690
0.3339952428 -0.2226634952 0.2226634952
0.3896611166 -0.1669976214 0.1669976214
0.4453269904 -0.1113317476 0.1113317476
0.5009928642 -0.0556658738 0.0556658738
0.5566587381 0.0000000000 0.0000000000
-0.6123246119 0.0556658738 0.0556658738
-0.5566587381 0.1113317476 0.0000000000
-0.5009928642 0.1669976214 -0.0556658738
-0.4453269904 0.2226634952 -0.1113317476
-0.3896611166 0.2783293690 -0.1669976214
-0.3339952428 0.3339952428 -0.2226634952
-0.2783293690 0.3896611166 -0.2783293690
-0.2226634952 0.4453269904 -0.3339952428
-0.1669976214 0.5009928642 -0.3896611166
-0.1113317476 0.5566587381 -0.4453269904
-0.0556658738 0.6123246119 -0.5009928642
-0.5566587381 -0.0000000000 0.1113317476
-0.5009928642 0.0556658738 0.0556658738
-0.4453269904 0.1113317476 -0.0000000000
-0.3896611166 0.1669976214 -0.0556658738
-0.3339952428 0.2226634952 -0.1113317476
-0.2783293690 0.2783293690 -0.1669976214
-0.2226634952 0.3339952428 -0.2226634952
-0.1669976214 0.3896611166 -0.2783293690
-0.1113317476 0.4453269904 -0.3339952428
-0.0556658738 0.5009928642 -0.3896611166
0.0000000000 0.5566587381 -0.4453269904
-0.5009928642 -0.0556658738 0.1669976214
-0.4453269904 -0.0000000000 0.1113317476
-0.3896611166 0.0556658738 0.0556658738
-0.3339952428 0.1113317476 -0.0000000000
-0.2783293690 0.1669976214 -0.0556658738
-0.2226634952 0.2226634952 -0.1113317476
-0.1669976214 0.2783293690 -0.1669976214
-0.1113317476 0.3339952428 -0.2226634952
-0.0556658738 0.3896611166 -0.2783293690
0.0000000000 0.4453269904 -0.3339952428
0.0556658738 0.5009928642 -0.3896611166
-0.4453269904 -0.1113317476 0.2226634952
-0.3896611166 -0.0556658738 0.1669976214
-0.3339952428 -0.0000000000 0.1113317476
-0.2783293690 0.0556658738 0.0556658738
-0.2226634952 0.1113317476 -0.0000000000
-0.1669976214 0.1669976214 -0.0556658738
-0.1113317476 0.2226634952 -0.1113317476
-0.0556658738 0.2783293690 -0.1669976214
0.0000000000 0.3339952428 -0.2226634952
0.0556658738 0.3896611166 -0.2783293690
0.1113317476 0.4453269904 -0.3339952428
-0.3896611166 -0.1669976214 0.2783293690
-0.3339952428 -0.1113317476 0.2226634952
-0.2783293690 -0.0556658738 0.1669976214
-0.2226634952 -0.0000000000 0.1113317476
-0.1669976214 0.0556658738 0.0556658738
-0.1113317476 0.1113317476 -0.0000000000
-0.0556658738 0.1669976214 -0.0556658738
0.0000000000 0.2226634952 -0.1113317476
0.0556658738 0.2783293690 -0.1669976214
0.1113317476 0.3339952428 -0.2226634952
0.1669976214 0.3896611166 -0.2783293690
-0.3339952428 -0.2226634952 0.3339952428
-0.2783293690 -0.1669976214 0.2783293690
-0.2226634952 -0.1113317476 0.2226634952
-0.1669976214 -0.0556658738 0.1669976214
-0.1113317476 0.0000000000 0.1113317476
-0.0556658738 0.0556658738 0.0556658738
0.0000000000 0.1113317476 0.0000000000
0.0556658738 0.1669976214 -0.0556658738
0.1113317476 0.2226634952 -0.1113317476
0.1669976214 0.2783293690 -0.1669976214
0.2226634952 0.3339952428 -0.2226634952
-0.2783293690 -0.2783293690 0.3896611166
-0.2226634952 -0.2226634952 0.3339952428
-0.1669976214 -0.1669976214 0.2783293690
-0.1113317476 -0.1113317476 0.2226634952
-0.0556658738 -0.0556658738 0.1669976214
0.0000000000 0.0000000000 0.1113317476
0.0556658738 0.0556658738 0.0556658738
0.1113317476 0.1113317476 0.0000000000
0.1669976214 0.1669976214 -0.0556658738
0.2226634952 0.2226634952 -0.1113317476
0.2783293690 0.2783293690 -0.1669976214
-0.2226634952 -0.3339952428 0.4453269904
-0.1669976214 -0.2783293690 0.3896611166
-0.1113317476 -0.2226634952 0.3339952428
-0.0556658738 -0.1669976214 0.2783293690
0.0000000000 -0.1113317476 0.2226634952
0.0556658738 -0.0556658738 0.1669976214
0.1113317476 0.0000000000 0.1113317476
0.1669976214 0.0556658738 0.0556658738
0.2226634952 0.1113317476 0.0000000000
0.2783293690 0.1669976214 -0.0556658738
0.3339952428 0.2226634952 -0.1113317476
-0.1669976214 -0.3896611166 0.5009928642
-0.1113317476 -0.3339952428 0.4453269904
-0.0556658738 -0.2783293690 0.3896611166
-0.0000000000 -0.2226634952 0.3339952428
0.0556658738 -0.1669976214 0.2783293690
0.1113317476 -0.1113317476 0.2226634952
0.1669976214 -0.0556658738 0.1669976214
0.2226634952 0.0000000000 0.1113317476
0.2783293690 0.0556658738 0.0556658738
0.3339952428 0.1113317476 0.0000000000
0.3896611166 0.1669976214 -0.0556658738
-0.1113317476 -0.4453269904 0.5566587381
-0.0556658738 -0.3896611166 0.5009928642
0.0000000000 -0.3339952428 0.4453269904
0.0556658738 -0.2783293690 0.3896611166
0.1113317476 -0.2226634952 0.3339952428
0.1669976214 -0.1669976214 0.2783293690
0.2226634952 -0.1113317476 0.2226634952
0.2783293690 -0.0556658738 0.1669976214
0.3339952428 0.0000000000 0.1113317476
0.3896611166 0.0556658738 0.0556658738
0.4453269904 0.1113317476 0.0000000000
-0.0556658738 -0.5009928642 0.6123246119
0.0000000000 -0.4453269904 0.5566587381
0.0556658738 -0.3896611166 0.5009928642
0.1113317476 -0.3339952428 0.4453269904
0.1669976214 -0.2783293690 0.3896611166
0.2226634952 -0.2226634952 0.3339952428
0.2783293690 -0.1669976214 0.2783293690
0.3339952428 -0.1113317476 0.2226634952
0.3896611166 -0.0556658738 0.1669976214
0.4453269904 0.0000000000 0.1113317476
0.5009928642 0.0556658738 0.0556658738
-0.6679904857 0.1113317476 0.1113317476
-0.6123246119 0.1669976214 0.0556658738
-0.5566587381 0.2226634952 -0.0000000000
-0.5009928642 0.2783293690 -0.0556658738
-0.4453269904 0.3339952428 -0.1113317476
-0.3896611166 0.3896611166 -0.1669976214
-0.3339952428 0.4453269904 -0.2226634952
-0.2783293690 0.5009928642 -0.2783293690
-0.2226634952 0.5566587381 -0.3339952428
-0.1669976214 0.6123246119 -0.3896611166
-0.1113317476 0.6679904857 -0.4453269904
-0.6123246119 0.0556658738 0.1669976214
-0.5566587381 0.1113317476 0.1113317476
-0.5009928642 0.1669976214 0.0556658738
-0.4453269904 0.2226634952 -0.0000000000
-0.3896611166 0.2783293690 -0.0556658738
-0.3339952428 0.3339952428 -0.1113317476
-0.2783293690 0.3896611166 -0.1669976214
-0.2226634952 0.4453269904 -0.2226634952
-0.1669976214 0.5009928642 -0.2783293690
-0.1113317476 0.5566587381 -0.3339952428
-0.0556658738 0.6123246119 -0.3896611166
-0.5566587381 -0.0000000000 0.2226634952
-0.5009928642 0.0556658738 0.1669976214
-0.4453269904 0.1113317476 0.1113317476
-0.3896611166 0.1669976214 0.0556658738
-0.3339952428 0.2226634952 -0.0000000000
-0.2783293690 0.2783293690 -0.0556658738
-0.2226634952 0.3339952428 -0.1113317476
-0.1669976214 0.3896611166 -0.1669976214
-0.1113317476 0.4453269904 -0.2226634952
-0.0556658738 0.5009928642 -0.2783293690
0.0000000000 0.5566587381 -0.3339952428
-0.5009928642 -0.0556658738 0.2783293690
-0.4453269904 -0.0000000000 0.2226634952
-0.3896611166 0.0556658738 0.1669976214
-0.3339952428 0.1113317476 0.1113317476
-0.2783293690 0.1669976214 0.0556658738
-0.2226634952 0.2226634952 -0.0000000000
-0.1669976214 0.2783293690 -0.0556658738
-0.1113317476 0.3339952428 -0.1113317476
-0.0556658738 0.3896611166 -0.1669976214
0.0000000000 0.4453269904 -0.2226634952
0.0556658738 0.5009928642 -0.2783293690
-0.4453269904 -0.1113317476 0.3339952428
-0.3896611166 -0.0556658738 0.2783293690
-0.3339952428 0.0000000000 0.2226634952
-0.2783293690 0.0556658738 0.1669976214
-0.2226634952 0.1113317476 0.1113317476
-0.1669976214 0.1669976214 0.0556658738
-0.1113317476 0.2226634952 -0.0000000000
-0.0556658738 0.2783293690 -0.0556658738
0.0000000000 0.3339952428 -0.1113317476
0.0556658738 0.3896611166 -0.1669976214
0.1113317476 0.4453269904 -0.2226634952
-0.3896611166 -0.1669976214 0.3896611166
-0.3339952428 -0.1113317476 0.3339952428
-0.2783293690 -0.0556658738 0.2783293690
-0.2226634952 0.0000000000 0.2226634952
-0.1669976214 0.0556658738 0.1669976214
-0.1113317476 0.1113317476 0.1113317476
-0.0556658738 0.1669976214 0.0556658738
0.0000000000 0.2226634952 0.0000000000
0.0556658738 0.2783293690 -0.0556658738
0.1113317476 0.3339952428 -0.1113317476
0.1669976214 0.3896611166 -0.1669976214
-0.3339952428 -0.2226634952 0.4453269904
-0.2783293690 -0.1669976214 0.3896611166
-0.2226634952 -0.1113317476 0.3339952428
-0.1669976214 -0.0556658738 0.2783293690
-0.1113317476 0.0000000000 0.2226634952
-0.0556658738 0.0556658738 0.1669976214
0.0000000000 0.1113317476 0.1113317476
0.0556658738 0.1669976214 0.0556658738
0.1113317476 0.2226634952 0.0000000000
0.1669976214 0.2783293690 -0.0556658738
0.2226634952 0.3339952428 -0.1113317476
-0.2783293690 -0.2783293690 0.5009928642
-0.2226634952 -0.2226634952 0.4453269904
-0.1669976214 -0.1669976214 0.3896611166
-0.1113317476 -0.1113317476 0.3339952428
-0.0556658738 -0.0556658738 0.2783293690
0.0000000000 0.0000000000 0.2226634952
0.0556658738 0.0556658738 0.1669976214
0.1113317476 0.1113317476 0.1113317476
0.1669976214 0.1669976214 0.0556658738
0.2226634952 0.2226634952 0.0000000000
0.2783293690 0.2783293690 -0.0556658738
-0.2226634952 -0.3339952428 0.5566587381
-0.1669976214 -0.2783293690 0.5009928642
-0.1113317476 -0.2226634952 0.4453269904
-0.0556658738 -0.1669976214 0.3896611166
0.0000000000 -0.1113317476 0.3339952428
0.0556658738 -0.0556658738 0.2783293690
0.1113317476 0.0000000000 0.2226634952
0.1669976214 0.0556658738 0.1669976214
0.2226634952 0.1113317476 0.1113317476
0.2783293690 0.1669976214 0.0556658738
0.3339952428 0.2226634952 0.0000000000
-0.1669976214 -0.3896611166 0.6123246119
-0.1113317476 -0.3339952428 0.5566587381
-0.0556658738 -0.2783293690 0.5009928642
0.0000000000 -0.2226634952 0.4453269904
0.0556658738 -0.1669976214 0.3896611166
0.1113317476 -0.1113317476 0.3339952428
0.1669976214 -0.0556658738 0.2783293690
0.2226634952 0.0000000000 0.2226634952
0.2783293690 0.0556658738 0.1669976214
0.3339952428 0.1113317476 0.1113317476
0.3896611166 0.1669976214 0.0556658738
-0.1113317476 -0.4453269904 0.6679904857
-0.0556658738 -0.3896611166 0.6123246119
0.0000000000 -0.3339952428 0.5566587381
0.0556658738 -0.2783293690 0.5009928642
0.1113317476 -0.2226634952 0.4453269904
0.1669976214 -0.1669976214 0.3896611166
0.2226634952 -0.1113317476 0.3339952428
0.2783293690 -0.0556658738 0.2783293690
0.3339952428 0.0000000000 0.2226634952
0.3896611166 0.0556658738 0.1669976214
0.4453269904 0.1113317476 0.1113317476
-0.7236563595 0.1669976214 0.1669976214
-0.6679904857 0.2226634952 0.1113317476
-0.6123246119 0.2783293690 0.0556658738
-0.5566587381 0.3339952428 -0.0000000000
-0.5009928642 0.3896611166 -0.0556658738
-0.4453269904 0.4453269904 -0.1113317476
-0.3896611166 0.5009928642 -0.1669976214
-0.3339952428 0.5566587381 -0.2226634952
-0.2783293690 0.6123246119 -0.2783293690
-0.2226634952 0.6679904857 -0.3339952428
-0.1669976214 0.7236563595 -0.3896611166
-0.6679904857 0.1113317476 0.2226634952
-0.6123246119 0.1669976214 0.1669976214
-0.5566587381 0.2226634952 0.1113317476
-0.5009928642 0.2783293690 0.0556658738
-0.4453269904 0.3339952428 -0.0000000000
-0.3896611166 0.3896611166 -0.0556658738
-0.3339952428 0.4453269904 -0.1113317476
-0.2783293690 0.5009928642 -0.1669976214
-0.2226634952 0.5566587381 -0.2226634952
-0.1669976214 0.6123246119 -0.2783293690
-0.1113317476 0.6679904857 -0.3339952428
-0.6123246119 0.0556658738 0.2783293690
-0.5566587381 0.1113317476 0.2226634952
-0.5009928642 0.1669976214 0.1669976214
-0.4453269904 0.2226634952 0.1113317476
-0.3896611166 0.2783293690 0.0556658738
-0.3339952428 0.3339952428 -0.0000000000
-0.2783293690 0.3896611166 -0.0556658738
-0.2226634952 0.4453269904 -0.1113317476
-0.1669976214 0.5009928642 -0.1669976214
-0.1113317476 0.5566587381 -0.2226634952
-0.0556658738 0.6123246119 -0.2783293690
-0.5566587381 0.0000000000 0.3339952428
-0.5009928642 0.0556658738 0.2783293690
-0.4453269904 0.1113317476 0.2226634952
-0.3896611166 0.1669976214 0.1669976214
-0.3339952428 0.2226634952 0.1113317476
-0.2783293690 0.2783293690 0.0556658738
-0.2226634952 0.3339952428 -0.0000000000
-0.1669976214 0.3896611166 -0.0556658738
-0.1113317476 0.4453269904 -0.1113317476
-0.0556658738 0.5009928642 -0.1669976214
0.0000000000 0.5566587381 -0.2226634952
-0.5009928642 -0.0556658738 0.3896611166
-0.4453269904 -0.0000000000 0.3339952428
-0.3896611166 0.0556658738 0.2783293690
-0.3339952428 0.1113317476 0.2226634952
-0.2783293690 0.1669976214 0.1669976214
-0.2226634952 0.2226634952 0.1113317476
-0.1669976214 0.2783293690 0.0556658738
-0.1113317476 0.3339952428 -0.0000000000
-0.0556658738 0.3896611166 -0.0556658738
0.0000000000 0.4453269904 -0.1113317476
0.0556658738 0.5009928642 -0.1669976214
-0.4453269904 -0.1113317476 0.4453269904
-0.3896611166 -0.0556658738 0.3896611166
-0.3339952428 0.0000000000 0.3339952428
-0.2783293690 0.0556658738 0.2783293690
-0.2226634952 0.1113317476 0.2226634952
-0.1669976214 0.1669976214 0.1669976214
-0.1113317476 0.2226634952 0.1113317476
-0.0556658738 0.2783293690 0.0556658738
0.0000000000 0.3339952428 0.0000000000
0.0556658738 0.3896611166 -0.0556658738
0.1113317476 0.4453269904 -0.1113317476
-0.3896611166 -0.1669976214 0.5009928642
-0.3339952428 -0.1113317476 0.4453269904
-0.2783293690 -0.0556658738 0.3896611166
-0.2226634952 0.0000000000 0.3339952428
-0.1669976214 0.0556658738 0.2783293690
-0.1113317476 0.1113317476 0.2226634952
-0.0556658738 0.1669976214 0.1669976214
0.0000000000 0.2226634952 0.1113317476
0.0556658738 0.2783293690 0.0556658738
0.1113317476 0.3339952428 -0.0000000000
0.1669976214 0.3896611166 -0.0556658738
-0.3339952428 -0.2226634952 0.5566587381
-0.2783293690 -0.1669976214 0.5009928642
-0.2226634952 -0.1113317476 0.4453269904
-0.1669976214 -0.0556658738 0.3896611166
-0.1113317476 0.0000000000 0.3339952428
-0.0556658738 0.0556658738 0.2783293690
0.0000000000 0.1113317476 0.2226634952
0.0556658738 0.1669976214 0.1669976214
0.1113317476 0.2226634952 0.1113317476
0.1669976214 0.2783293690 0.0556658738
0.2226634952 0.3339952428 0.0000000000
-0.2783293690 -0.2783293690 0.6123246119
-0.2226634952 -0.2226634952 0.5566587381
-0.1669976214 -0.1669976214 0.5009928642
-0.1113317476 -0.1113317476 0.4453269904
-0.0556658738 -0.0556658738 0.3896611166
0.0000000000 0.0000000000 0.3339952428
0.0556658738 0.0556658738 0.2783293690
0.1113317476 0.1113317476 0.2226634952
0.1669976214 0.1669976214 0.1669976214
0.2226634952 0.2226634952 0.1113317476
0.2783293690 0.2783293690 0.0556658738
-0.2226634952 -0.3339952428 0.6679904857
-0.1669976214 -0.2783293690 0.6123246119
-0.1113317476 -0.2226634952 0.5566587381
-0.0556658738 -0.1669976214 0.5009928642
0.0000000000 -0.1113317476 0.4453269904
0.0556658738 -0.0556658738 0.3896611166
0.1113317476 0.0000000000 0.3339952428
0.1669976214 0.0556658738 0.2783293690
0.2226634952 0.1113317476 0.2226634952
0.2783293690 0.1669976214 0.1669976214
0.3339952428 0.2226634952 0.1113317476
-0.1669976214 -0.3896611166 0.7236563595
-0.1113317476 -0.3339952428 0.6679904857
-0.0556658738 -0.2783293690 0.6123246119
0.0000000000 -0.2226634952 0.5566587381
0.0556658738 -0.1669976214 0.5009928642
0.1113317476 -0.1113317476 0.4453269904
0.1669976214 -0.0556658738 0.3896611166
0.2226634952 0.0000000000 0.3339952428
0.2783293690 0.0556658738 0.2783293690
0.3339952428 0.1113317476 0.2226634952
0.3896611166 0.1669976214 0.1669976214
-0.7793222333 0.2226634952 0.2226634952
-0.7236563595 0.2783293690 0.1669976214
-0.6679904857 0.3339952428 0.1113317476
-0.6123246119 0.3896611166 0.0556658738
-0.5566587381 0.4453269904 0.0000000000
-0.5009928642 0.5009928642 -0.0556658738
-0.4453269904 0.5566587381 -0.1113317476
-0.3896611166 0.6123246119 -0.1669976214
-0.3339952428 0.6679904857 -0.2226634952
-0.2783293690 0.7236563595 -0.2783293690
-0.2226634952 0.7793222333 -0.3339952428
-0.7236563595 0.1669976214 0.2783293690
-0.6679904857 0.2226634952 0.2226634952
-0.6123246119 0.2783293690 0.1669976214
-0.5566587381 0.3339952428 0.1113317476
-0.5009928642 0.3896611166 0.0556658738
-0.4453269904 0.4453269904 -0.0000000000
-0.3896611166 0.5009928642 -0.0556658738
-0.3339952428 0.5566587381 -0.1113317476
-0.2783293690 0.6123246119 -0.1669976214
-0.2226634952 0.6679904857 -0.2226634952
-0.1669976214 0.7236563595 -0.2783293690
-0.6679904857 0.1113317476 0.3339952428
-0.6123246119 0.1669976214 0.2783293690
-0.5566587381 0.2226634952 0.2226634952
-0.5009928642 0.2783293690 0.1669976214
-0.4453269904 0.3339952428 0.1113317476
-0.3896611166 0.3896611166 0.0556658738
-0.3339952428 0.4453269904 -0.0000000000
-0.2783293690 0.5009928642 -0.0556658738
-0.2226634952 0.5566587381 -0.1113317476
-0.1669976214 0.6123246119 -0.1669976214
-0.1113317476 0.6679904857 -0.2226634952
-0.6123246119 0.0556658738 0.3896611166
-0.5566587381 0.1113317476 0.3339952428
-0.5009928642 0.1669976214 0.2783293690
-0.4453269904 0.2226634952 0.2226634952
-0.3896611166 0.2783293690 0.1669976214
-0.3339952428 0.3339952428 0.1113317476
-0.2783293690 0.3896611166 0.0556658738
-0.2226634952 0.4453269904 -0.0000000000
-0.1669976214 0.5009928642 -0.0556658738
-0.1113317476 0.5566587381 -0.1113317476
-0.0556658738 0.6123246119 -0.1669976214
-0.5566587381 0.0000000000 0.4453269904
-0.5009928642 0.0556658738 0.3896611166
-0.4453269904 0.1113317476 0.3339952428
-0.3896611166 0.1669976214 0.2783293690
-0.3339952428 0.2226634952 0.2226634952
-0.2783293690 0.2783293690 0.1669976214
-0.2226634952 0.3339952428 0.1113317476
-0.1669976214 0.3896611166 0.0556658738
-0.1113317476 0.4453269904 0.0000000000
-0.0556658738 0.5009928642 -0.0556658738
0.0000000000 0.5566587381 -0.1113317476
-0.5009928642 -0.0556658738 0.5009928642
-0.4453269904 0.0000000000 0.4453269904
-0.3896611166 0.0556658738 0.3896611166
-0.3339952428 0.1113317476 0.3339952428
-0.2783293690 0.1669976214 0.2783293690
-0.2226634952 0.2226634952 0.2226634952
-0.1669976214 0.2783293690 0.1669976214
-0.1113317476 0.3339952428 0.1113317476
-0.0556658738 0.3896611166 0.0556658738
0.0000000000 0.4453269904 0.0000000000
0.0556658738 0.5009928642 -0.0556658738
-0.4453269904 -0.1113317476 0.5566587381
-0.3896611166 -0.0556658738 0.5009928642
-0.3339952428 0.0000000000 0.4453269904
-0.2783293690 0.0556658738 0.3896611166
-0.2226634952 0.1113317476 0.3339952428
-0.1669976214 0.1669976214 0.2783293690
-0.1113317476 0.2226634952 0.2226634952
-0.0556658738 0.2783293690 0.1669976214
0.0000000000 0.3339952428 0.1113317476
0.0556658738 0.3896611166 0.0556658738
0.1113317476 0.4453269904 0.0000000000
-0.3896611166 -0.1669976214 0.6123246119
-0.3339952428 -0.1113317476 0.5566587381
-0.2783293690 -0.0556658738 0.5009928642
-0.2226634952 0.0000000000 0.4453269904
-0.1669976214 0.0556658738 0.3896611166
-0.1113317476 0.1113317476 0.3339952428
-0.0556658738 0.1669976214 0.2783293690
0.0000000000 0.2226634952 0.2226634952
0.0556658738 0.2783293690 0.1669976214
0.1113317476 0.3339952428 0.1113317476
0.1669976214 0.3896611166 0.0556658738
-0.3339952428 -0.2226634952 0.6679904857
-0.2783293690 -0.1669976214 0.6123246119
-0.2226634952 -0.1113317476 0.5566587381
-0.1669976214 -0.0556658738 0.5009928642
-0.1113317476 0.0000000000 0.4453269904
-0.0556658738 0.0556658738 0.3896611166
0.0000000000 0.1113317476 0.3339952428
0.0556658738 0.1669976214 0.2783293690
0.1113317476 0.2226634952 0.2226634952
0.1669976214 0.2783293690 0.1669976214
0.2226634952 0.3339952428 0.1113317476
-0.2783293690 -0.2783293690 0.7236563595
-0.2226634952 -0.2226634952 0.6679904857
-0.1669976214 -0.1669976214 0.6123246119
-0.1113317476 -0.1113317476 0.5566587381
-0.0556658738 -0.0556658738 0.5009928642
0.0000000000 0.0000000000 0.4453269904
0.0556658738 0.0556658738 0.3896611166
0.1113317476 0.1113317476 0.3339952428
0.1669976214 0.1669976214 0.2783293690
0.2226634952 0.2226634952 0.2226634952
0.2783293690 0.2783293690 0.1669976214
-0.2226634952 -0.3339952428 0.7793222333
-0.1669976214 -0.2783293690 0.7236563595
-0.1113317476 -0.2226634952 0.6679904857
-0.0556658738 -0.1669976214 0.6123246119
0.0000000000 -0.1113317476 0.5566587381
0.0556658738 -0.0556658738 0.5009928642
0.1113317476 0.0000000000 0.4453269904
0.1669976214 0.0556658738 0.3896611166
0.2226634952 0.1113317476 0.3339952428
0.2783293690 0.1669976214 0.2783293690
0.3339952428 0.2226634952 0.2226634952
-0.8349881071 0.2783293690 0.2783293690
-0.7793222333 0.3339952428 0.2226634952
-0.7236563595 0.3896611166 0.1669976214
-0.6679904857 0.4453269904 0.1113317476
-0.6123246119 0.5009928642 0.0556658738
-0.5566587381 0.5566587381 0.0000000000
-0.5009928642 0.6123246119 -0.0556658738
-0.4453269904 0.6679904857 -0.1113317476
-0.3896611166 0.7236563595 -0.1669976214
-0.3339952428 0.7793222333 -0.2226634952
-0.2783293690 0.8349881071 -0.2783293690
-0.7793222333 0.2226634952 0.3339952428
-0.7236563595 0.2783293690 0.2783293690
-0.6679904857 0.3339952428 0.2226634952
-0.6123246119 0.3896611166 0.1669976214
-0.5566587381 0.4453269904 0.1113317476
-0.5009928642 0.5009928642 0.0556658738
-0.4453269904 0.5566587381 -0.0000000000
-0.3896611166 0.6123246119 -0.0556658738
-0.3339952428 0.6679904857 -0.1113317476
-0.2783293690 0.7236563595 -0.1669976214
-0.2226634952 0.7793222333 -0.2226634952
-0.7236563595 0.1669976214 0.3896611166
-0.6679904857 0.2226634952 0.3339952428
-0.6123246119 0.2783293690 0.2783293690
-0.5566587381 0.3339952428 0.2226634952
-0.5009928642 0.3896611166 0.1669976214
-0.4453269904 0.4453269904 0.1113317476
-0.3896611166 0.5009928642 0.0556658738
-0.3339952428 0.5566587381 -0.0000000000
-0.2783293690 0.6123246119 -0.0556658738
-0.2226634952 0.6679904857 -0.1113317476
-0.1669976214 0.7236563595 -0.1669976214
-0.6679904857 0.1113317476 0.4453269904
-0.6123246119 0.1669976214 0.3896611166
-0.5566587381 0.2226634952 0.3339952428
-0.5009928642 0.2783293690 0.2783293690
-0.4453269904 0.3339952428 0.2226634952
-0.3896611166 0.3896611166 0.1669976214
-0.3339952428 0.4453269904 0.1113317476
-0.2783293690 0.5009928642 0.0556658738
-0.2226634952 0.5566587381 0.0000000000
-0.1669976214 0.6123246119 -0.0556658738
-0.1113317476 0.6679904857 -0.1113317476
-0.6123246119 0.0556658738 0.5009928642
-0.5566587381 0.1113317476 0.4453269904
-0.5009928642 0.1669976214 0.3896611166
-0.4453269904 0.2226634952 0.3339952428
-0.3896611166 0.2783293690 0.2783293690
-0.3339952428 0.3339952428 0.2226634952
-0.2783293690 0.3896611166 0.1669976214
-0.2226634952 0.4453269904 0.1113317476
-0.1669976214 0.5009928642 0.0556658738
-0.1113317476 0.5566587381 -0.0000000000
-0.0556658738 0.6123246119 -0.0556658738
-0.5566587381 0.0000000000 0.5566587381
-0.5009928642 0.0556658738 0.5009928642
-0.4453269904 0.1113317476 0.4453269904
-0.3896611166 0.1669976214 0.3896611166
-0.3339952428 0.2226634952 0.3339952428
-0.2783293690 0.2783293690 0.2783293690
-0.2226634952 0.3339952428 0.2226634952
-0.1669976214 0.3896611166 0.1669976214
-0.1113317476 0.4453269904 0.1113317476
-0.0556658738 0.5009928642 0.0556658738
0.0000000000 0.5566587381 0.0000000000
-0.5009928642 -0.0556658738 0.6123246119
-0.4453269904 -0.0000000000 0.5566587381
-0.3896611166 0.0556658738 0.5009928642
-0.3339952428 0.1113317476 0.4453269904
-0.2783293690 0.1669976214 0.3896611166
-0.2226634952 0.2226634952 0.3339952428
-0.1669976214 0.2783293690 0.2783293690
-0.1113317476 0.3339952428 0.2226634952
-0.0556658738 0.3896611166 0.1669976214
0.0000000000 0.4453269904 0.1113317476
0.0556658738 0.5009928642 0.0556658738
-0.4453269904 -0.1113317476 0.6679904857
-0.3896611166 -0.0556658738 0.6123246119
-0.3339952428 0.0000000000 0.5566587381
-0.2783293690 0.0556658738 0.5009928642
-0.2226634952 0.1113317476 0.4453269904
-0.1669976214 0.1669976214 0.3896611166
-0.1113317476 0.2226634952 0.3339952428
-0.0556658738 0.2783293690 0.2783293690
0.0000000000 0.3339952428 0.2226634952
0.0556658738 0.3896611166 0.1669976214
0.1113317476 0.4453269904 0.1113317476
-0.3896611166 -0.1669976214 0.7236563595
-0.3339952428 -0.1113317476 0.6679904857
-0.2783293690 -0.0556658738 0.6123246119
-0.2226634952 0.0000000000 0.5566587381
-0.1669976214 0.0556658738 0.5009928642
-0.1113317476 0.1113317476 0.4453269904
-0.0556658738 0.1669976214 0.3896611166
0.0000000000 0.2226634952 0.3339952428
0.0556658738 0.2783293690 0.2783293690
0.1113317476 0.3339952428 0.2226634952
0.1669976214 0.3896611166 0.1669976214
-0.3339952428 -0.2226634952 0.7793222333
-0.2783293690 -0.1669976214 0.7236563595
-0.2226634952 -0.1113317476 0.6679904857
-0.1669976214 -0.0556658738 0.6123246119
-0.1113317476 0.0000000000 0.5566587381
-0.0556658738 0.0556658738 0.5009928642
0.0000000000 0.1113317476 0.4453269904
0.0556658738 0.1669976214 0.3896611166
0.1113317476 0.2226634952 0.3339952428
0.1669976214 0.2783293690 0.2783293690
0.2226634952 0.3339952428 0.2226634952
-0.2783293690 -0.2783293690 0.8349881071
-0.2226634952 -0.2226634952 0.7793222333
-0.1669976214 -0.1669976214 0.7236563595
-0.1113317476 -0.1113317476 0.6679904857
-0.0556658738 -0.0556658738 0.6123246119
0.0000000000 0.0000000000 0.5566587381
0.0556658738 0.0556658738 0.5009928642
0.1113317476 0.1113317476 0.4453269904
0.1669976214 0.1669976214 0.3896611166
0.2226634952 0.2226634952 0.3339952428
0.2783293690 0.2783293690 0.2783293690
 There are 14 alpha and 14 beta electrons
 Start computing overlap matrix
 Allocate 296525504 B from available memory: 1048575734752 B
 Time for computing overlap matrix: 4.1510000000 s
 ====== Initialize compute kernels for all-electron RI-J (kpts) ====== 
 ========================================================== 
 Range-separated parameter omega        = 0.900000000000000022
 Threshold for 1e2c shellpair           = 0.000000000000010000
 Threshold for 2e2c SR integral         = 0.000000000000000001
 Threshold for 2e3c SR integral         = 0.000000000100000000
 Threshold for AFT G-space screening is = 0.000000000001000000
 The exponent cutoff for C/D classification (omega2 / 2) is  = 0.405000000000000027
 ========================================================== 
 === Post process the basis set for RI calculation (exp_cutoff = 0.405000000000000027 ) === 
nshells_b1 before uncontraction = 28
nshells_b1 after uncontraction = 28
nshells_baux before uncontraction = 80
nshells_baux after uncontraction = 80
===============================================
nbsf total   = 118
nbsf compact = 60
nbsf diffuse = 58
naux total   = 296
naux compact = 296
naux diffuse = 0
nshells_bnuc = 2

 Number of unique atoms is 1
 Unique atom #0 (si) has 5 shells.

Shell 0 to 4 belongs to atom si
Shell 5 to 9 belongs to atom si

 Number of unique atoms is 1
 Unique atom #0 (si) has 9 shells.

Shell 0 to 8 belongs to atom si
Shell 9 to 17 belongs to atom si

 Number of unique atom is 1
 Unique atom #0 (si) has 40 auxiliary shells.

Auxiliary Shell 0 to 39 belongs to atom si
Auxiliary Shell 40 to 79 belongs to atom si

================= Automatically determine grid size for reciprocal space summation =================
 Range-separated parameter = 0.90000000000000 and G-space screening threshold = 0.00000000000100
The number of grid points along each axis dimension is (10, 10, 10)
Total number of grid points = 9261

Use nonortho shellpair for diffuse density
======== Initializing relevant kernel for RIJ (DD type) ========
There are 171 shellpairs in the reference unit cell
There are 3661 images and we expect to have 626031 in total
There are 23126 shellpairs in the lattice sum after screening
======== Initializing relevant kernel for RIJ (CD type) ========
There are 180 shellpairs in the reference unit cell
There are 2395 images and we expect to have 431100 in total
There are 12134 shellpairs in the lattice sum after screening
****** AFT -> SR ******
Maximum bra distance cutoff is 23.000000000000
Maximum bra ket distance cutoff is 20.611302005944
Maximum bra ket screening distance is 19.000000000000
Number of auxiliary image is 551
There are 180 shellpairs in the reference unit cell
There are 551 images and we expect to have 99180 in total
There are 12134 shellpairs in the lattice sum after screening
Available memory per thread for 2e3c calculation is 32.758725289000Gb
Finish initializing 2e3c SR with the lattice sum!
=================================================
======== Initializing relevant kernel for RIJ (CC type) ========
There are 55 shellpairs in the reference unit cell
There are 695 images and we expect to have 38225 in total
There are 694 shellpairs in the lattice sum after screening
****** AFT -> SR ******
Maximum bra distance cutoff is 11.000000000000
Maximum bra ket distance cutoff is 21.062500000000
Maximum bra ket screening distance is 18.718750000000
Number of auxiliary image is 455
There are 55 shellpairs in the reference unit cell
There are 117 images and we expect to have 6435 in total
There are 694 shellpairs in the lattice sum after screening
Available memory per thread for 2e3c calculation is 32.758725289000Gb
Finish initializing 2e3c SR with the lattice sum!
=================================================
======== Initializing the SR component for Vnuc (CD type) ========
Maximum bra distance cutoff is 23.000000000000
Maximum bra ket distance cutoff is 11.920357219976
Maximum bra ket screening distance is 9.960251940080
Number of auxiliary image is 551
There are 180 shellpairs in the reference unit cell
There are 551 images and we expect to have 99180 in total
There are 12134 shellpairs in the lattice sum after screening
Available memory per thread for 2e3c calculation is 32.758725289000Gb
Finish initializing 2e3c SR with the lattice sum!
=================================================
======== Initialize the SR component for Vnuc (CC type) ========
Maximum bra distance cutoff is 11.000000000000
Maximum bra ket distance cutoff is 13.059451665625
Maximum bra ket screening distance is 9.261023449952
Number of auxiliary image is 213
There are 55 shellpairs in the reference unit cell
There are 117 images and we expect to have 6435 in total
There are 694 shellpairs in the lattice sum after screening
Available memory per thread for 2e3c calculation is 32.758725289000Gb
Finish initializing 2e3c SR with the lattice sum!
=================================================
 Aufbau occupation scheme, occupation determined by eigenvalue
 == 0-th k-point nmo = 114 (-0.27833,-0.27833,-0.27833) ==
 == 1-th k-point nmo = 114 (-0.22266,-0.22266,-0.33400) ==
 == 2-th k-point nmo = 114 (-0.16700,-0.16700,-0.38966) ==
 == 3-th k-point nmo = 114 (-0.11133,-0.11133,-0.44533) ==
 == 4-th k-point nmo = 114 (-0.05567,-0.05567,-0.50099) ==
 == 5-th k-point nmo = 114 (-0.00000,-0.00000,-0.55666) ==
 == 6-th k-point nmo = 114 (0.05567,0.05567,-0.61232) ==
 == 7-th k-point nmo = 114 (0.11133,0.11133,-0.66799) ==
 == 8-th k-point nmo = 114 (0.16700,0.16700,-0.72366) ==
 == 9-th k-point nmo = 114 (0.22266,0.22266,-0.77932) ==
 == 10-th k-point nmo = 114 (0.27833,0.27833,-0.83499) ==
 == 11-th k-point nmo = 114 (-0.22266,-0.33400,-0.22266) ==
 == 12-th k-point nmo = 114 (-0.16700,-0.27833,-0.27833) ==
 == 13-th k-point nmo = 114 (-0.11133,-0.22266,-0.33400) ==
 == 14-th k-point nmo = 114 (-0.05567,-0.16700,-0.38966) ==
 == 15-th k-point nmo = 114 (-0.00000,-0.11133,-0.44533) ==
 == 16-th k-point nmo = 114 (0.05567,-0.05567,-0.50099) ==
 == 17-th k-point nmo = 114 (0.11133,-0.00000,-0.55666) ==
 == 18-th k-point nmo = 114 (0.16700,0.05567,-0.61232) ==
 == 19-th k-point nmo = 114 (0.22266,0.11133,-0.66799) ==
 == 20-th k-point nmo = 114 (0.27833,0.16700,-0.72366) ==
 == 21-th k-point nmo = 114 (0.33400,0.22266,-0.77932) ==
 == 22-th k-point nmo = 114 (-0.16700,-0.38966,-0.16700) ==
 == 23-th k-point nmo = 114 (-0.11133,-0.33400,-0.22266) ==
 == 24-th k-point nmo = 114 (-0.05567,-0.27833,-0.27833) ==
 == 25-th k-point nmo = 114 (-0.00000,-0.22266,-0.33400) ==
 == 26-th k-point nmo = 114 (0.05567,-0.16700,-0.38966) ==
 == 27-th k-point nmo = 114 (0.11133,-0.11133,-0.44533) ==
 == 28-th k-point nmo = 114 (0.16700,-0.05567,-0.50099) ==
 == 29-th k-point nmo = 114 (0.22266,-0.00000,-0.55666) ==
 == 30-th k-point nmo = 114 (0.27833,0.05567,-0.61232) ==
 == 31-th k-point nmo = 114 (0.33400,0.11133,-0.66799) ==
 == 32-th k-point nmo = 114 (0.38966,0.16700,-0.72366) ==
 == 33-th k-point nmo = 114 (-0.11133,-0.44533,-0.11133) ==
 == 34-th k-point nmo = 114 (-0.05567,-0.38966,-0.16700) ==
 == 35-th k-point nmo = 114 (-0.00000,-0.33400,-0.22266) ==
 == 36-th k-point nmo = 114 (0.05567,-0.27833,-0.27833) ==
 == 37-th k-point nmo = 114 (0.11133,-0.22266,-0.33400) ==
 == 38-th k-point nmo = 114 (0.16700,-0.16700,-0.38966) ==
 == 39-th k-point nmo = 114 (0.22266,-0.11133,-0.44533) ==
 == 40-th k-point nmo = 114 (0.27833,-0.05567,-0.50099) ==
 == 41-th k-point nmo = 114 (0.33400,0.00000,-0.55666) ==
 == 42-th k-point nmo = 114 (0.38966,0.05567,-0.61232) ==
 == 43-th k-point nmo = 114 (0.44533,0.11133,-0.66799) ==
 == 44-th k-point nmo = 114 (-0.05567,-0.50099,-0.05567) ==
 == 45-th k-point nmo = 114 (-0.00000,-0.44533,-0.11133) ==
 == 46-th k-point nmo = 114 (0.05567,-0.38966,-0.16700) ==
 == 47-th k-point nmo = 114 (0.11133,-0.33400,-0.22266) ==
 == 48-th k-point nmo = 114 (0.16700,-0.27833,-0.27833) ==
 == 49-th k-point nmo = 114 (0.22266,-0.22266,-0.33400) ==
 == 50-th k-point nmo = 114 (0.27833,-0.16700,-0.38966) ==
 == 51-th k-point nmo = 114 (0.33400,-0.11133,-0.44533) ==
 == 52-th k-point nmo = 114 (0.38966,-0.05567,-0.50099) ==
 == 53-th k-point nmo = 114 (0.44533,0.00000,-0.55666) ==
 == 54-th k-point nmo = 114 (0.50099,0.05567,-0.61232) ==
 == 55-th k-point nmo = 114 (-0.00000,-0.55666,0.00000) ==
 == 56-th k-point nmo = 114 (0.05567,-0.50099,-0.05567) ==
 == 57-th k-point nmo = 114 (0.11133,-0.44533,-0.11133) ==
 == 58-th k-point nmo = 114 (0.16700,-0.38966,-0.16700) ==
 == 59-th k-point nmo = 114 (0.22266,-0.33400,-0.22266) ==
 == 60-th k-point nmo = 114 (0.27833,-0.27833,-0.27833) ==
 == 61-th k-point nmo = 114 (0.33400,-0.22266,-0.33400) ==
 == 62-th k-point nmo = 114 (0.38966,-0.16700,-0.38966) ==
 == 63-th k-point nmo = 114 (0.44533,-0.11133,-0.44533) ==
 == 64-th k-point nmo = 114 (0.50099,-0.05567,-0.50099) ==
 == 65-th k-point nmo = 114 (0.55666,0.00000,-0.55666) ==
 == 66-th k-point nmo = 114 (0.05567,-0.61232,0.05567) ==
 == 67-th k-point nmo = 114 (0.11133,-0.55666,0.00000) ==
 == 68-th k-point nmo = 114 (0.16700,-0.50099,-0.05567) ==
 == 69-th k-point nmo = 114 (0.22266,-0.44533,-0.11133) ==
 == 70-th k-point nmo = 114 (0.27833,-0.38966,-0.16700) ==
 == 71-th k-point nmo = 114 (0.33400,-0.33400,-0.22266) ==
 == 72-th k-point nmo = 114 (0.38966,-0.27833,-0.27833) ==
 == 73-th k-point nmo = 114 (0.44533,-0.22266,-0.33400) ==
 == 74-th k-point nmo = 114 (0.50099,-0.16700,-0.38966) ==
 == 75-th k-point nmo = 114 (0.55666,-0.11133,-0.44533) ==
 == 76-th k-point nmo = 114 (0.61232,-0.05567,-0.50099) ==
 == 77-th k-point nmo = 114 (0.11133,-0.66799,0.11133) ==
 == 78-th k-point nmo = 114 (0.16700,-0.61232,0.05567) ==
 == 79-th k-point nmo = 114 (0.22266,-0.55666,0.00000) ==
 == 80-th k-point nmo = 114 (0.27833,-0.50099,-0.05567) ==
 == 81-th k-point nmo = 114 (0.33400,-0.44533,-0.11133) ==
 == 82-th k-point nmo = 114 (0.38966,-0.38966,-0.16700) ==
 == 83-th k-point nmo = 114 (0.44533,-0.33400,-0.22266) ==
 == 84-th k-point nmo = 114 (0.50099,-0.27833,-0.27833) ==
 == 85-th k-point nmo = 114 (0.55666,-0.22266,-0.33400) ==
 == 86-th k-point nmo = 114 (0.61232,-0.16700,-0.38966) ==
 == 87-th k-point nmo = 114 (0.66799,-0.11133,-0.44533) ==
 == 88-th k-point nmo = 114 (0.16700,-0.72366,0.16700) ==
 == 89-th k-point nmo = 114 (0.22266,-0.66799,0.11133) ==
 == 90-th k-point nmo = 114 (0.27833,-0.61232,0.05567) ==
 == 91-th k-point nmo = 114 (0.33400,-0.55666,0.00000) ==
 == 92-th k-point nmo = 114 (0.38966,-0.50099,-0.05567) ==
 == 93-th k-point nmo = 114 (0.44533,-0.44533,-0.11133) ==
 == 94-th k-point nmo = 114 (0.50099,-0.38966,-0.16700) ==
 == 95-th k-point nmo = 114 (0.55666,-0.33400,-0.22266) ==
 == 96-th k-point nmo = 114 (0.61232,-0.27833,-0.27833) ==
 == 97-th k-point nmo = 114 (0.66799,-0.22266,-0.33400) ==
 == 98-th k-point nmo = 114 (0.72366,-0.16700,-0.38966) ==
 == 99-th k-point nmo = 114 (0.22266,-0.77932,0.22266) ==
 == 100-th k-point nmo = 114 (0.27833,-0.72366,0.16700) ==
 == 101-th k-point nmo = 114 (0.33400,-0.66799,0.11133) ==
 == 102-th k-point nmo = 114 (0.38966,-0.61232,0.05567) ==
 == 103-th k-point nmo = 114 (0.44533,-0.55666,0.00000) ==
 == 104-th k-point nmo = 114 (0.50099,-0.50099,-0.05567) ==
 == 105-th k-point nmo = 114 (0.55666,-0.44533,-0.11133) ==
 == 106-th k-point nmo = 114 (0.61232,-0.38966,-0.16700) ==
 == 107-th k-point nmo = 114 (0.66799,-0.33400,-0.22266) ==
 == 108-th k-point nmo = 114 (0.72366,-0.27833,-0.27833) ==
 == 109-th k-point nmo = 114 (0.77932,-0.22266,-0.33400) ==
 == 110-th k-point nmo = 114 (0.27833,-0.83499,0.27833) ==
 == 111-th k-point nmo = 114 (0.33400,-0.77932,0.22266) ==
 == 112-th k-point nmo = 114 (0.38966,-0.72366,0.16700) ==
 == 113-th k-point nmo = 114 (0.44533,-0.66799,0.11133) ==
 == 114-th k-point nmo = 114 (0.50099,-0.61232,0.05567) ==
 == 115-th k-point nmo = 114 (0.55666,-0.55666,0.00000) ==
 == 116-th k-point nmo = 114 (0.61232,-0.50099,-0.05567) ==
 == 117-th k-point nmo = 114 (0.66799,-0.44533,-0.11133) ==
 == 118-th k-point nmo = 114 (0.72366,-0.38966,-0.16700) ==
 == 119-th k-point nmo = 114 (0.77932,-0.33400,-0.22266) ==
 == 120-th k-point nmo = 114 (0.83499,-0.27833,-0.27833) ==
 == 121-th k-point nmo = 114 (-0.33400,-0.22266,-0.22266) ==
 == 122-th k-point nmo = 114 (-0.27833,-0.16700,-0.27833) ==
 == 123-th k-point nmo = 114 (-0.22266,-0.11133,-0.33400) ==
 == 124-th k-point nmo = 114 (-0.16700,-0.05567,-0.38966) ==
 == 125-th k-point nmo = 114 (-0.11133,-0.00000,-0.44533) ==
 == 126-th k-point nmo = 114 (-0.05567,0.05567,-0.50099) ==
 == 127-th k-point nmo = 114 (-0.00000,0.11133,-0.55666) ==
 == 128-th k-point nmo = 114 (0.05567,0.16700,-0.61232) ==
 == 129-th k-point nmo = 114 (0.11133,0.22266,-0.66799) ==
 == 130-th k-point nmo = 114 (0.16700,0.27833,-0.72366) ==
 == 131-th k-point nmo = 114 (0.22266,0.33400,-0.77932) ==
 == 132-th k-point nmo = 114 (-0.27833,-0.27833,-0.16700) ==
 == 133-th k-point nmo = 114 (-0.22266,-0.22266,-0.22266) ==
 == 134-th k-point nmo = 114 (-0.16700,-0.16700,-0.27833) ==
 == 135-th k-point nmo = 114 (-0.11133,-0.11133,-0.33400) ==
 == 136-th k-point nmo = 114 (-0.05567,-0.05567,-0.38966) ==
 == 137-th k-point nmo = 114 (-0.00000,-0.00000,-0.44533) ==
 == 138-th k-point nmo = 114 (0.05567,0.05567,-0.50099) ==
 == 139-th k-point nmo = 114 (0.11133,0.11133,-0.55666) ==
 == 140-th k-point nmo = 114 (0.16700,0.16700,-0.61232) ==
 == 141-th k-point nmo = 114 (0.22266,0.22266,-0.66799) ==
 == 142-th k-point nmo = 114 (0.27833,0.27833,-0.72366) ==
 == 143-th k-point nmo = 114 (-0.22266,-0.33400,-0.11133) ==
 == 144-th k-point nmo = 114 (-0.16700,-0.27833,-0.16700) ==
 == 145-th k-point nmo = 114 (-0.11133,-0.22266,-0.22266) ==
 == 146-th k-point nmo = 114 (-0.05567,-0.16700,-0.27833) ==
 == 147-th k-point nmo = 114 (-0.00000,-0.11133,-0.33400) ==
 == 148-th k-point nmo = 114 (0.05567,-0.05567,-0.38966) ==
 == 149-th k-point nmo = 114 (0.11133,-0.00000,-0.44533) ==
 == 150-th k-point nmo = 114 (0.16700,0.05567,-0.50099) ==
 == 151-th k-point nmo = 114 (0.22266,0.11133,-0.55666) ==
 == 152-th k-point nmo = 114 (0.27833,0.16700,-0.61232) ==
 == 153-th k-point nmo = 114 (0.33400,0.22266,-0.66799) ==
 == 154-th k-point nmo = 114 (-0.16700,-0.38966,-0.05567) ==
 == 155-th k-point nmo = 114 (-0.11133,-0.33400,-0.11133) ==
 == 156-th k-point nmo = 114 (-0.05567,-0.27833,-0.16700) ==
 == 157-th k-point nmo = 113 (-0.00000,-0.22266,-0.22266) ==
 == 158-th k-point nmo = 114 (0.05567,-0.16700,-0.27833) ==
 == 159-th k-point nmo = 114 (0.11133,-0.11133,-0.33400) ==
 == 160-th k-point nmo = 114 (0.16700,-0.05567,-0.38966) ==
 == 161-th k-point nmo = 114 (0.22266,-0.00000,-0.44533) ==
 == 162-th k-point nmo = 114 (0.27833,0.05567,-0.50099) ==
 == 163-th k-point nmo = 114 (0.33400,0.11133,-0.55666) ==
 == 164-th k-point nmo = 114 (0.38966,0.16700,-0.61232) ==
 == 165-th k-point nmo = 114 (-0.11133,-0.44533,0.00000) ==
 == 166-th k-point nmo = 114 (-0.05567,-0.38966,-0.05567) ==
 == 167-th k-point nmo = 114 (-0.00000,-0.33400,-0.11133) ==
 == 168-th k-point nmo = 114 (0.05567,-0.27833,-0.16700) ==
 == 169-th k-point nmo = 114 (0.11133,-0.22266,-0.22266) ==
 == 170-th k-point nmo = 114 (0.16700,-0.16700,-0.27833) ==
 == 171-th k-point nmo = 114 (0.22266,-0.11133,-0.33400) ==
 == 172-th k-point nmo = 114 (0.27833,-0.05567,-0.38966) ==
 == 173-th k-point nmo = 114 (0.33400,-0.00000,-0.44533) ==
 == 174-th k-point nmo = 114 (0.38966,0.05567,-0.50099) ==
 == 175-th k-point nmo = 114 (0.44533,0.11133,-0.55666) ==
 == 176-th k-point nmo = 114 (-0.05567,-0.50099,0.05567) ==
 == 177-th k-point nmo = 114 (-0.00000,-0.44533,0.00000) ==
 == 178-th k-point nmo = 114 (0.05567,-0.38966,-0.05567) ==
 == 179-th k-point nmo = 114 (0.11133,-0.33400,-0.11133) ==
 == 180-th k-point nmo = 114 (0.16700,-0.27833,-0.16700) ==
 == 181-th k-point nmo = 114 (0.22266,-0.22266,-0.22266) ==
 == 182-th k-point nmo = 114 (0.27833,-0.16700,-0.27833) ==
 == 183-th k-point nmo = 114 (0.33400,-0.11133,-0.33400) ==
 == 184-th k-point nmo = 114 (0.38966,-0.05567,-0.38966) ==
[...]
 0.75843 0.78875 0.85269 0.87872 0.89776 0.90870 0.98268 1.00844 1.06646 1.08212
 1.13006 1.14090 1.17499 1.19357 1.37709 1.41996 1.45394 1.45730 1.51450 1.52455
 1.63881 1.63951 1.66783 1.74529 1.75121 1.80837 1.82749 1.88030 1.91777 1.91810
 2.01866 2.06193 2.14520 2.20948 2.23372 2.24773 2.28195 2.30000 2.33059 2.35270
 2.40682 2.44523 2.47392 2.52699 2.58017 2.71205 2.71980 2.72017 2.75750 2.77936
 2.85455 2.86551 2.90051 2.95529 2.96983 3.01042 3.06269 3.07192 3.12280 3.13916
 3.21144 3.23451 3.27794 3.28329 3.32690 3.33022 3.37266 3.37934 3.47858 3.50436
 3.58057 3.59575 3.62388 3.65459 3.70549 3.73324 3.84732 3.91487 3.95331 4.01100
 4.13976 4.22723 4.29189 4.30206 4.58232 4.60545 8.25781 8.40260 8.61130 8.65183
 9.49697 9.91550 13.38171 13.58431
 == 1313-th k-point (-0.11133,0.00000,0.55666) occupation: 14==
 -65.00572 -65.00572 -4.62781 -4.62777 -3.03973 -3.03973 -3.03938 -3.03929 -3.03898 -3.03898
 -0.03397 0.01512 0.15584 0.16030 0.32545 0.33553 0.56890 0.62061 0.64609 0.69961
 0.72510 0.77910 0.78874 0.84839 0.88981 0.94282 0.98440 1.02076 1.04926 1.05524
 1.13530 1.14357 1.16816 1.21655 1.39412 1.40652 1.47897 1.50813 1.54233 1.55007
 1.56043 1.68358 1.72605 1.74670 1.75508 1.75748 1.82026 1.82052 1.88669 1.89310
 2.03870 2.06014 2.13155 2.14828 2.17323 2.26357 2.26615 2.31308 2.37001 2.37417
 2.42421 2.45858 2.50042 2.52768 2.57202 2.59561 2.71555 2.75204 2.79343 2.80040
 2.85954 2.86194 2.93810 2.95752 2.97382 2.98616 2.99330 3.07783 3.10374 3.11291
 3.21465 3.21907 3.28221 3.30162 3.30430 3.32430 3.38553 3.40677 3.52065 3.52969
 3.53654 3.54797 3.64584 3.67175 3.70752 3.72198 3.92022 3.94484 3.97535 4.05300
 4.22604 4.23794 4.31421 4.34375 4.60331 4.61002 8.19390 8.43239 8.55596 8.62902
 9.83300 9.85967 13.35036 13.41467
 == 1314-th k-point (-0.05567,0.05567,0.50099) occupation: 14==
 -65.00572 -65.00572 -4.62783 -4.62775 -3.03973 -3.03972 -3.03942 -3.03925 -3.03899 -3.03899
 -0.05821 0.04185 0.16053 0.17640 0.30724 0.33792 0.57792 0.57797 0.70356 0.70361
 0.71583 0.72213 0.81377 0.83995 0.85674 0.93125 0.95066 0.99301 1.06881 1.13065
 1.13988 1.17184 1.18644 1.26636 1.36380 1.37904 1.44762 1.51973 1.54810 1.57466
 1.63049 1.65580 1.72509 1.73239 1.76610 1.77738 1.80270 1.82918 1.86089 1.90833
 1.98858 2.04922 2.07628 2.15195 2.16816 2.21574 2.24810 2.36448 2.36774 2.39323
 2.43265 2.43573 2.51546 2.53258 2.59051 2.59314 2.69058 2.75937 2.82774 2.83318
 2.85052 2.88430 2.90582 2.93872 2.95001 2.98282 3.00673 3.01377 3.08387 3.15541
 3.22487 3.23714 3.25908 3.32108 3.33753 3.34677 3.40301 3.43949 3.51539 3.53086
 3.53859 3.55096 3.60190 3.69128 3.71270 3.74579 3.90454 3.92216 3.94838 4.13649
 4.20139 4.25197 4.29707 4.36522 4.61066 4.61822 8.07978 8.39298 8.42861 8.69880
 10.08053 10.22429 13.29465 13.40677
 == 1315-th k-point (0.00000,0.11133,0.44533) occupation: 14==
 -65.00572 -65.00572 -4.62785 -4.62773 -3.03972 -3.03972 -3.03947 -3.03921 -3.03900 -3.03900
 -0.07709 0.06682 0.16297 0.17741 0.32796 0.35975 0.51203 0.56443 0.65342 0.69445
 0.71602 0.77209 0.79710 0.82165 0.87603 0.90239 0.95715 1.00450 1.11542 1.11555
 1.16967 1.20532 1.25341 1.29408 1.32002 1.37262 1.43637 1.52068 1.54844 1.55921
 1.56810 1.68383 1.70858 1.73608 1.78856 1.80250 1.81761 1.82266 1.86826 1.93911
 2.01188 2.03037 2.03281 2.15304 2.17145 2.17856 2.18595 2.35175 2.38163 2.42387
 2.42614 2.44520 2.52374 2.57661 2.61213 2.61944 2.62279 2.77469 2.78172 2.83594
 2.86094 2.88120 2.89457 2.92874 2.93259 2.99783 3.02319 3.04727 3.07558 3.17389
 3.20719 3.24604 3.30714 3.33589 3.36456 3.37931 3.42017 3.43559 3.50170 3.53293
 3.54240 3.54733 3.61388 3.68039 3.71862 3.71993 3.89952 3.90666 3.94949 4.09656
 4.14790 4.17116 4.28259 4.35896 4.59723 4.62120 8.05972 8.21165 8.24249 8.90804
 10.38689 10.49172 13.24245 13.49234
 == 1316-th k-point (0.05567,0.16700,0.38966) occupation: 14==
 -65.00572 -65.00572 -4.62786 -4.62772 -3.03971 -3.03970 -3.03951 -3.03918 -3.03901 -3.03898
 -0.08935 0.07721 0.15948 0.19556 0.35466 0.41348 0.44914 0.51414 0.62406 0.67230
 0.71777 0.74016 0.79833 0.82586 0.88151 0.95334 0.98122 1.03215 1.08060 1.14071
 1.19938 1.23019 1.25437 1.30253 1.36062 1.39352 1.45053 1.47358 1.50270 1.53780
 1.59602 1.63189 1.67188 1.73358 1.75554 1.82056 1.84826 1.88523 1.90443 1.95314
 1.99312 2.04250 2.06212 2.10282 2.15228 2.15951 2.24498 2.30428 2.38386 2.41624
 2.44503 2.47620 2.50470 2.57646 2.59675 2.62332 2.67218 2.72605 2.79379 2.80806
 2.83626 2.87229 2.88453 2.90549 2.96622 3.01811 3.05992 3.06532 3.11793 3.16108
 3.20874 3.29116 3.30598 3.31953 3.34678 3.39454 3.42392 3.45078 3.48890 3.52063
 3.54087 3.57213 3.65220 3.68119 3.71749 3.75950 3.83693 3.88989 3.93764 3.97711
 4.09084 4.11836 4.26249 4.35202 4.56153 4.60562 7.98235 8.11171 8.22931 9.14799
 9.95064 10.41569 13.18772 13.92464
 == 1317-th k-point (0.11133,0.22266,0.33400) occupation: 14==
 -65.00572 -65.00571 -4.62787 -4.62771 -3.03971 -3.03970 -3.03955 -3.03915 -3.03901 -3.03898
 -0.09464 0.06587 0.17715 0.21998 0.37563 0.40001 0.45383 0.48872 0.59697 0.63815
 0.70881 0.71858 0.80068 0.84594 0.90014 0.94024 0.99638 1.07540 1.11947 1.15672
 1.19485 1.20994 1.29526 1.30752 1.37478 1.38612 1.43007 1.46872 1.48898 1.54663
 1.56727 1.64414 1.65229 1.73947 1.74759 1.79191 1.82526 1.89497 1.90332 1.99083
 2.01708 2.03915 2.07902 2.11991 2.18427 2.19547 2.26626 2.32756 2.35985 2.40215
 2.40887 2.47304 2.52230 2.57554 2.60004 2.64618 2.69313 2.75745 2.78180 2.80324
 2.81351 2.85312 2.89501 2.91030 2.95309 2.98609 3.04912 3.08988 3.12428 3.16907
 3.17884 3.26023 3.30165 3.32617 3.34206 3.41327 3.46971 3.48287 3.49201 3.51459
 3.57930 3.60181 3.64481 3.71863 3.72277 3.77190 3.80406 3.85043 3.91833 3.95633
 4.06541 4.08572 4.24312 4.36508 4.52518 4.58310 7.90577 8.13041 8.27801 9.39397
 9.66401 10.11379 12.87747 14.41367
 == 1318-th k-point (0.16700,0.27833,0.27833) occupation: 14==
 -65.00572 -65.00571 -4.62787 -4.62771 -3.03970 -3.03970 -3.03957 -3.03913 -3.03900 -3.03900
 -0.09307 0.04899 0.20209 0.23392 0.35793 0.40618 0.40940 0.56173 0.57470 0.61563
 0.69330 0.71823 0.81232 0.81302 0.89980 0.95097 1.01983 1.13040 1.14232 1.14243
 1.18516 1.21908 1.30342 1.32310 1.32954 1.39777 1.43023 1.45218 1.47720 1.53464
 1.54966 1.61408 1.67745 1.71758 1.77238 1.81705 1.82942 1.85262 1.93705 1.98084
 2.02429 2.10639 2.10704 2.14327 2.15776 2.21459 2.31008 2.32470 2.37359 2.39100
 2.39714 2.42586 2.55707 2.58247 2.60337 2.63511 2.73568 2.77082 2.78432 2.79031
 2.81846 2.86675 2.88451 2.93186 2.93807 2.98123 2.98627 3.11428 3.11825 3.13247
 3.14940 3.18799 3.28069 3.35121 3.39070 3.43111 3.46524 3.48468 3.50753 3.54436
 3.61542 3.61659 3.69135 3.70169 3.74352 3.76107 3.79203 3.88394 3.95803 3.97836
 4.01652 4.09651 4.22008 4.37812 4.48044 4.54305 7.97572 8.12791 8.27619 9.57256
 9.61434 10.00182 12.40654 14.64863
 == 1319-th k-point (0.22266,0.33400,0.22266) occupation: 14==
 -65.00572 -65.00571 -4.62786 -4.62772 -3.03970 -3.03969 -3.03956 -3.03913 -3.03901 -3.03898
 -0.08515 0.03612 0.21009 0.22169 0.35497 0.39713 0.41932 0.54826 0.59977 0.66391
 0.68712 0.71355 0.74295 0.82843 0.92724 0.98302 1.03530 1.08558 1.12761 1.14713
 1.20722 1.21338 1.28418 1.31289 1.33161 1.40923 1.41450 1.44155 1.46522 1.51581
 1.54740 1.60278 1.67133 1.71036 1.76041 1.81526 1.85347 1.92260 1.95104 1.98012
 2.01023 2.09057 2.13410 2.18071 2.19657 2.23668 2.26230 2.30788 2.33316 2.37585
 2.40826 2.42385 2.55295 2.56704 2.61473 2.64808 2.75116 2.77456 2.77947 2.80105
 2.80524 2.85734 2.87234 2.90935 2.94066 3.00023 3.06558 3.06949 3.08501 3.11866
 3.14193 3.19633 3.26203 3.26798 3.40667 3.44623 3.45773 3.47814 3.54296 3.54391
 3.60754 3.64290 3.67412 3.68971 3.74977 3.76115 3.81923 3.85195 3.96569 3.97838
 4.03994 4.12882 4.21544 4.34630 4.49191 4.50847 8.09226 8.29288 8.30006 9.33513
 9.81252 9.99737 12.36596 14.70563
 == 1320-th k-point (-0.27833,-0.27833,0.83499) occupation: 14==
 -65.00572 -65.00571 -4.62786 -4.62772 -3.03970 -3.03969 -3.03956 -3.03914 -3.03900 -3.03898
 -0.07511 0.02121 0.20347 0.22546 0.35415 0.39912 0.41239 0.57177 0.62386 0.63655
 0.68150 0.73622 0.74819 0.77770 0.97918 1.02090 1.05053 1.07488 1.09769 1.11249
 1.21513 1.24018 1.25307 1.31674 1.32156 1.37152 1.41747 1.42268 1.47380 1.52319
 1.52962 1.59808 1.66226 1.69724 1.76325 1.82693 1.84380 1.92428 1.96937 1.99404
 2.08964 2.12278 2.14629 2.18917 2.19343 2.21058 2.27277 2.28108 2.32508 2.34487
 2.45308 2.47069 2.52160 2.52546 2.56306 2.68332 2.74867 2.74954 2.77125 2.81703
 2.82862 2.86158 2.88236 2.93251 2.94584 2.96120 3.04872 3.05534 3.11348 3.11847
 3.17383 3.19508 3.21400 3.23513 3.39751 3.40952 3.46103 3.50879 3.51886 3.53645
 3.60929 3.63180 3.67806 3.67838 3.73057 3.76097 3.78274 3.88445 3.98731 3.99072
 4.02998 4.14641 4.23993 4.30934 4.46906 4.48278 8.21706 8.34123 8.38652 9.24626
 9.25158 9.99389 12.39325 14.67037
 == 1321-th k-point (-0.22266,-0.22266,0.77932) occupation: 14==
 -65.00572 -65.00571 -4.62785 -4.62773 -3.03972 -3.03970 -3.03951 -3.03918 -3.03900 -3.03896
 -0.06456 0.02511 0.16106 0.20949 0.35089 0.43597 0.45007 0.53169 0.61192 0.63171
 0.70054 0.75273 0.77599 0.86004 0.97430 0.98122 1.01073 1.05794 1.06256 1.08967
 1.19547 1.24780 1.27067 1.27442 1.30577 1.36787 1.38573 1.44012 1.47048 1.54567
 1.58012 1.62469 1.66772 1.67443 1.72863 1.81111 1.87641 1.94722 1.96268 1.99442
 2.05752 2.10263 2.10963 2.16744 2.16772 2.26807 2.27559 2.27783 2.32564 2.34859
 2.42837 2.43259 2.50098 2.50538 2.53906 2.67407 2.68903 2.74653 2.78475 2.85071
 2.86251 2.89656 2.91264 2.95099 2.96229 3.00466 3.02419 3.05199 3.07566 3.12881
 3.17051 3.22771 3.24723 3.26397 3.35241 3.39740 3.41962 3.44624 3.50596 3.52240
 3.59218 3.61675 3.62429 3.65971 3.75526 3.76272 3.77978 3.86731 3.89624 3.94805
 4.04490 4.18324 4.25505 4.27776 4.51292 4.52495 8.14446 8.39211 8.41235 8.95086
 9.30121 9.88767 12.96935 14.54325
 == 1322-th k-point (-0.16700,-0.16700,0.72366) occupation: 14==
 -65.00572 -65.00572 -4.62783 -4.62775 -3.03973 -3.03971 -3.03946 -3.03923 -3.03899 -3.03896
 -0.05082 0.02835 0.13129 0.19240 0.33013 0.45162 0.50257 0.50391 0.62772 0.63355
 0.76038 0.76729 0.78428 0.93032 0.93537 0.95077 0.96788 1.01354 1.02123 1.12784
 1.15968 1.18110 1.20086 1.33540 1.33990 1.35581 1.36517 1.45292 1.50154 1.56314
 1.59991 1.62834 1.68843 1.69799 1.70681 1.81153 1.89805 1.91561 1.92706 2.01606
 2.02850 2.07820 2.09252 2.13359 2.18962 2.26526 2.28140 2.31777 2.32461 2.34522
 2.40245 2.43675 2.49555 2.54793 2.57167 2.60813 2.65806 2.75370 2.78820 2.81088
 2.84656 2.92377 2.93021 2.96601 2.98924 3.03227 3.05301 3.05387 3.06994 3.11731
 3.17931 3.24368 3.30079 3.31001 3.32437 3.34018 3.36940 3.43609 3.46797 3.48701
 3.55245 3.61371 3.67556 3.70977 3.72702 3.76364 3.80206 3.85808 3.89137 3.94297
 4.05608 4.22151 4.24538 4.28655 4.54962 4.57149 8.12263 8.40456 8.47010 8.79033
 9.38531 9.86553 13.22330 14.19591
 == 1323-th k-point (-0.11133,-0.11133,0.66799) occupation: 14==
 -65.00572 -65.00572 -4.62781 -4.62777 -3.03973 -3.03972 -3.03940 -3.03928 -3.03898 -3.03897
 -0.03327 0.01539 0.13169 0.17911 0.31359 0.38184 0.56717 0.57291 0.63771 0.64203
 0.77303 0.78216 0.83980 0.85009 0.87071 0.94810 0.99808 1.00006 1.05504 1.09517
 1.11828 1.13500 1.17554 1.23875 1.36971 1.40978 1.43867 1.47344 1.54717 1.56329
 1.61737 1.62347 1.68534 1.70299 1.74649 1.78826 1.83109 1.88172 1.92058 1.95518
 1.99648 2.08471 2.08948 2.21084 2.21371 2.24555 2.26038 2.32828 2.34015 2.36465
 2.40041 2.43269 2.49245 2.50389 2.56524 2.67581 2.68780 2.76106 2.77274 2.79273
 2.83124 2.89520 2.89883 2.95800 2.99535 3.00552 3.06464 3.07124 3.11491 3.11549
 3.21722 3.24100 3.25309 3.29229 3.29631 3.33080 3.35726 3.41772 3.46179 3.50338
 3.57650 3.62186 3.63807 3.68708 3.72725 3.73971 3.83286 3.90694 3.98154 3.99656
 4.13203 4.25951 4.29033 4.31167 4.57688 4.61157 8.16842 8.43515 8.56070 8.64855
 9.44838 10.01901 13.34332 13.62753
 == 1324-th k-point (-0.05567,-0.05567,0.61232) occupation: 14==
 -65.00572 -65.00572 -4.62779 -4.62779 -3.03973 -3.03973 -3.03934 -3.03932 -3.03898 -3.03897
 -0.01286 -0.00880 0.15437 0.17163 0.30479 0.32641 0.62497 0.63360 0.65584 0.66312
 0.76873 0.76916 0.76937 0.79222 0.93983 0.94906 1.00688 1.01235 1.02927 1.05897
 1.07770 1.09928 1.19604 1.22946 1.37356 1.41353 1.48834 1.53754 1.56296 1.58705
 1.61178 1.62637 1.69746 1.72593 1.73671 1.74038 1.82315 1.82397 1.88583 1.89702
 2.05398 2.07072 2.09614 2.12208 2.21646 2.23568 2.30631 2.30659 2.35891 2.40959
 2.42046 2.45706 2.49723 2.51622 2.51756 2.60349 2.72576 2.74720 2.76963 2.79193
 2.85689 2.87314 2.93868 2.96518 2.98778 3.03059 3.03211 3.03827 3.09506 3.12473
 3.22197 3.23952 3.24376 3.25145 3.27405 3.30128 3.40301 3.42727 3.51383 3.51512
 3.54053 3.54746 3.67136 3.68240 3.68317 3.73316 3.92976 3.96685 4.00085 4.04540
 4.24700 4.28467 4.34075 4.34125 4.59850 4.61920 8.28588 8.34468 8.62036 8.62630
 9.56784 9.82963 13.39219 13.40296
 == 1325-th k-point (0.00000,0.00000,0.55666) occupation: 14==
 -65.00572 -65.00572 -4.62781 -4.62777 -3.03973 -3.03973 -3.03938 -3.03929 -3.03898 -3.03898
 -0.03672 0.01497 0.17070 0.17070 0.29805 0.31021 0.62831 0.62831 0.70880 0.70880
 0.71370 0.72765 0.77496 0.77780 0.93688 0.96234 0.96234 0.99203 1.06576 1.06789
 1.06790 1.11299 1.21458 1.26119 1.37116 1.37118 1.50387 1.55007 1.55008 1.62466
 1.62948 1.63331 1.70632 1.71461 1.74674 1.74677 1.81900 1.81923 1.85356 1.86602
 2.04395 2.04441 2.10494 2.13616 2.13644 2.26088 2.26945 2.34302 2.37492 2.42086
 2.42090 2.45933 2.52112 2.52184 2.53822 2.54670 2.73002 2.74344 2.79285 2.79318
 2.87197 2.87238 2.95407 2.95767 2.97852 2.99730 3.04625 3.04640 3.05602 3.09660
 3.23014 3.23046 3.23193 3.29083 3.29099 3.30157 3.45001 3.45263 3.48898 3.49475
 3.55947 3.55990 3.59345 3.68262 3.73019 3.73394 3.93085 3.93147 3.99520 4.13897
 4.28152 4.28222 4.32046 4.38023 4.61220 4.61636 8.17124 8.48922 8.56788 8.56816
 9.79751 9.80515 13.38430 13.39815
 == 1326-th k-point (0.05567,0.05567,0.50099) occupation: 14==
 -65.00572 -65.00572 -4.62783 -4.62775 -3.03973 -3.03972 -3.03942 -3.03925 -3.03899 -3.03899
 -0.05821 0.04185 0.16053 0.17640 0.30724 0.33792 0.57792 0.57796 0.70356 0.70361
 0.71583 0.72213 0.81377 0.83995 0.85674 0.93125 0.95066 0.99301 1.06880 1.13065
 1.13989 1.17185 1.18645 1.26636 1.36380 1.37906 1.44763 1.51974 1.54810 1.57466
 1.63048 1.65581 1.72522 1.73239 1.76612 1.77733 1.80281 1.82916 1.86096 1.90832
 1.98844 2.04962 2.07620 2.15178 2.16854 2.21585 2.24808 2.36444 2.36772 2.39322
 2.43265 2.43571 2.51527 2.53289 2.59050 2.59323 2.69064 2.75963 2.82758 2.83325
 2.85116 2.88402 2.90582 2.93876 2.95032 2.98284 3.00660 3.01422 3.08387 3.15541
 3.22483 3.23660 3.26041 3.32119 3.33712 3.34703 3.40271 3.44074 3.51652 3.53012
 3.53956 3.55192 3.60186 3.69136 3.71259 3.74589 3.90433 3.92204 3.94934 4.13643
 4.20336 4.25146 4.29743 4.36535 4.60860 4.62394 8.07978 8.39347 8.42828 8.69889
 10.07624 10.23821 13.29495 13.40738
 == 1327-th k-point (0.11133,0.11133,0.44533) occupation: 14==
 -65.00572 -65.00572 -4.62785 -4.62773 -3.03972 -3.03971 -3.03947 -3.03921 -3.03900 -3.03898
 -0.07360 0.05813 0.15245 0.18823 0.32507 0.39675 0.50884 0.51621 0.68474 0.69840
 0.71070 0.71572 0.78015 0.85601 0.89891 0.95810 0.96531 1.00284 1.06734 1.10798
 1.20495 1.20759 1.22467 1.31470 1.34031 1.35690 1.44928 1.45174 1.51043 1.57460
 1.63560 1.64089 1.68318 1.68874 1.72608 1.80772 1.86656 1.90586 1.91936 1.96807
 1.98381 2.03462 2.09209 2.12585 2.14507 2.16442 2.22383 2.34347 2.36782 2.39030
 2.44962 2.47493 2.51705 2.56451 2.60289 2.60857 2.63626 2.77000 2.78940 2.82859
 2.83424 2.88452 2.90111 2.93033 2.94060 3.01594 3.02829 3.05893 3.09805 3.17209
 3.18025 3.22656 3.27538 3.33039 3.34308 3.36757 3.39661 3.46160 3.50485 3.51163
 3.56536 3.61417 3.64206 3.68312 3.69531 3.77758 3.85588 3.87394 3.92324 4.05995
 4.08837 4.20719 4.27440 4.31930 4.58848 4.59094 8.05137 8.25964 8.31285 8.91012
 10.16049 10.23358 13.17141 13.85156
 == 1328-th k-point (0.16700,0.16700,0.38966) occupation: 14==
 -65.00572 -65.00571 -4.62786 -4.62772 -3.03971 -3.03970 -3.03952 -3.03917 -3.03901 -3.03897
 -0.08250 0.05148 0.17351 0.20463 0.34704 0.44082 0.46097 0.47132 0.64177 0.68249
 0.70401 0.71012 0.74701 0.87465 0.93347 0.94627 1.00169 1.04516 1.07588 1.13952
 1.17974 1.24991 1.27878 1.29913 1.35488 1.36561 1.42263 1.43550 1.49774 1.55271
 1.58056 1.61805 1.67673 1.68499 1.74081 1.79403 1.90331 1.90336 1.96728 1.99147
 2.02806 2.03949 2.05034 2.13733 2.15288 2.19055 2.29379 2.32452 2.32803 2.36813
 2.43759 2.43770 2.51240 2.55105 2.62344 2.64728 2.71843 2.74632 2.78256 2.79697
 2.80213 2.86951 2.90218 2.91137 2.99835 3.01400 3.05471 3.07436 3.09193 3.09461
 3.15773 3.25376 3.31278 3.32027 3.36007 3.36461 3.40032 3.43754 3.52674 3.52685
 3.58930 3.62303 3.68190 3.70060 3.77848 3.78418 3.82228 3.82579 3.84582 3.98765
 4.06051 4.16450 4.25138 4.31131 4.54866 4.55588 8.03090 8.28190 8.30110 9.10682
 9.92654 10.10751 12.94592 14.42418
 == 1329-th k-point (0.22266,0.22266,0.33400) occupation: 14==
 -65.00572 -65.00571 -4.62786 -4.62772 -3.03970 -3.03969 -3.03956 -3.03913 -3.03901 -3.03898
 -0.08515 0.03612 0.21009 0.22169 0.35497 0.39713 0.41932 0.54826 0.59977 0.66391
 0.68712 0.71355 0.74295 0.82843 0.92724 0.98302 1.03530 1.08558 1.12761 1.14713
 1.20722 1.21338 1.28418 1.31289 1.33161 1.40923 1.41450 1.44155 1.46522 1.51581
 1.54740 1.60278 1.67133 1.71036 1.76041 1.81526 1.85347 1.92260 1.95104 1.98012
 2.01023 2.09057 2.13410 2.18071 2.19657 2.23668 2.26230 2.30788 2.33316 2.37585
 2.40826 2.42385 2.55295 2.56704 2.61473 2.64808 2.75116 2.77456 2.77947 2.80105
 2.80524 2.85734 2.87234 2.90935 2.94066 3.00023 3.06558 3.06949 3.08501 3.11866
 3.14193 3.19633 3.26203 3.26798 3.40667 3.44623 3.45773 3.47814 3.54296 3.54391
 3.60754 3.64290 3.67412 3.68971 3.74977 3.76115 3.81923 3.85195 3.96569 3.97838
 4.03994 4.12882 4.21544 4.34630 4.49191 4.50847 8.09226 8.29288 8.30006 9.33513
 9.81252 9.99737 12.36596 14.70563
 == 1330-th k-point (0.27833,0.27833,0.27833) occupation: 14==
 -65.00572 -65.00571 -4.62786 -4.62772 -3.03969 -3.03969 -3.03958 -3.03911 -3.03900 -3.03900
 -0.08231 0.02471 0.23116 0.23116 0.33409 0.40049 0.40049 0.55925 0.64769 0.64769
 0.67887 0.72245 0.72245 0.76674 0.95635 1.04576 1.04576 1.06217 1.13512 1.13512
 1.21751 1.26311 1.26311 1.30867 1.30867 1.37507 1.41440 1.48959 1.48959 1.50720
 1.50720 1.58393 1.63016 1.66156 1.87478 1.87478 1.88811 1.90280 1.90280 1.92067
 2.08656 2.08656 2.16694 2.22134 2.22134 2.26801 2.26807 2.26807 2.34019 2.34019
 2.43680 2.43680 2.58047 2.58047 2.59519 2.65725 2.76430 2.79713 2.79713 2.80090
 2.80598 2.81061 2.81061 2.87839 2.97962 3.00984 3.06710 3.06710 3.09899 3.09899
 3.15704 3.15704 3.27084 3.27084 3.31309 3.46728 3.46728 3.54941 3.55156 3.55156
 3.56075 3.68353 3.68353 3.69042 3.73970 3.76316 3.91653 3.91653 3.99427 3.99427
 4.12530 4.12853 4.12853 4.35355 4.45468 4.45468 8.23593 8.23593 8.27958 9.52458
 9.52458 10.00917 11.95018 14.74093
 ---------------------------------------------------------------------------
 VBM is at 665-th k-point with 7.49058 eV
 CBM is at 55-th k-point with 8.11029 eV
 Band gap is 0.61971 eV


           Ground-State Mulliken Net Atomic Charges

      Atom                 Charge (a.u.)          Spin (a.u.)
   --------------------------------------------------------
      1 Si               (0.000000,-0.000000)    (0.000000,0.000000)
      2 Si               (-0.000000,0.000000)    (0.000000,0.000000)
   --------------------------------------------------------
  Sum of atomic charges =      (-0.000000,0.000000)
  Sum of spin   charges =       (0.000000,0.000000)



 Total job time:  1590.22 s.
 Tue Sep  9 07:34:31 2025


        *************************************************************
        *                                                           *
        *  Thank you very much for using QCPBC. Have a nice day.    *
        *                                                           *
        *************************************************************

Running job 1 of 1
