                  Welcome to Q-Chem
           with Periodic Boundary Condition
     A Quantum Leap Into The Future Of Chemistry

 Adam Rettig, Xintian Feng, Meng-Fu Chen, Hieu Dinh, Stephen Quiton,
 Anton Ni, Paul J. Robinson, Jinghong Zhang, Joonho Lee

Contributors to earlier versions of Q-Chem not listed above:
 Evgeny Epifanovsky, Leo Cunha, Jerome F. Gonthier, Kuan-Yu Liu
 Input file: /n/netscratch/joonholee_lab/Lab/hieudinh//si_2_ccpvqz_omega_0.3_101010.scratch20250909050318/si_2_ccpvqz_omega_0.3_101010.0
 Scratch folder: /n/netscratch/joonholee_lab/Lab/hieudinh//si_2_ccpvqz_omega_0.3_101010.scratch20250909050318
 Auxillary files located at: /n/holylabs/LABS/joonholee_lab/Lab/qchem_base/qcaux
 Q-Chem begins on Tue Sep  9 05:03:19 2025

 -------------------------------------------------------------
 User input:
 -------------------------------------------------------------
 $lattice
 3
 0.000000 5.130600 5.130600
 5.130600 0.000000 5.130600
 5.130600 5.130600 0.000000
 $end
 
 $unitcell
 ABSOLUTE
 0 1
 Si 0.000000 0.000000 0.000000
 Si 2.565300 2.565300 2.565300
 $end
 
 $rem
 jobtype = sp
 method = pbe
 scf_convergence = 5
 scf_guess = autosad
 scf_algorithm = diis_gdm
 basis = cc-pvqz
 aux_basis = cc-pvqz-jk
 input_bohr = true
 symmetry = false
 rsdf_print_level 1
 is_basis_uctr true
 
 mp_mesh = [10,10,10]
 
 integral_direct true
 bvk_cgto true
 
 thresh 14
 mem_total 1000000
 threads 32
 
 MAX_SCF_CYCLES 500
 madelung = false
 omega 0.3
 do_rij_bigmem true
 automate_g true
 print_level 10
 grid_type_xc 1
 
 thresh_1e2c_sp 1e-14
 thresh_2e3c_bra_ket_sep 1e-10
 thresh_g 1e-12
 $end
 
 -------------------------------------------------------------
 Running PBC job

 Requested Exchange Correlation Functionals: 
  DFT Exchange:  1.00000 pbe_x
  DFT Correlation:  1.00000 pbe_c
 using 32 threads for computing.
 ---------------------------------------------------------------
      Coordinates of Atoms in Central Unit Cell (Angstroms)
    I     Atom         X            Y            Z
 ---------------------------------------------------------------
    1      Si      0.000000     0.000000     0.000000
    2      Si      1.357498     1.357498     1.357498
 ---------------------------------------------------------------
 --------------------------------------------------
              Lattice Vectors (Angstroms)
              X            Y            Z
 --------------------------------------------------
   X       0.000000     2.714997     2.714997
   Y       2.714997     0.000000     2.714997
   Z       2.714997     2.714997     0.000000
 --------------------------------------------------
 --------------------------------------------------
       Reciprocal Lattice Vectors (Angstroms^-1)
              X            Y            Z
 --------------------------------------------------
   X      -1.157126     1.157126     1.157126
   Y       1.157126    -1.157126     1.157126
   Z       1.157126     1.157126    -1.157126
 --------------------------------------------------

 Single point calculation requested

 Hamiltonian contributions:
 List of terms in Hamiltonian: kpts_nn, kpts_kinetic, kpts_vnuc_df, kpts_xc, kpts_rij_bigmem

 K-Points calculation started.

 Basis set information about using solid harmonic (1) or Cartesian (0):
  si : D(1) D(1) D(1) F(1) F(1) G(1) 

 Basis set information about using solid harmonic (1) or Cartesian (0):
  si : D(1) D(1) D(1) D(1) D(1) D(1) D(1) D(1) D(1) F(1) F(1) F(1) F(1) G(1) G(1) H(1) 

 There are 118 basis functions in the central unit cell.
 Print atomic basis of atoms in the central unit cell:
 -------------------------------------------------------------
2 66 134 28

  0.00000000000000e+00  0.00000000000000e+00  0.00000000000000e+00
  2.56530000000000e+00  2.56530000000000e+00  2.56530000000000e+00

  5.13000000000000e+05
  7.68200000000000e+04
  1.74700000000000e+04
  4.93500000000000e+03
  1.60200000000000e+03
  5.74100000000000e+02
  2.21500000000000e+02
  9.05400000000000e+01
  3.87400000000000e+01
  1.69500000000000e+01
  6.45200000000000e+00
  2.87400000000000e+00
  1.25000000000000e+00
  3.59900000000000e-01
  1.69900000000000e-01
  7.06600000000000e-02
  1.12200000000000e+03
  2.66000000000000e+02
  8.59200000000000e+01
  3.23300000000000e+01
  1.33700000000000e+01
  5.80000000000000e+00
  2.55900000000000e+00
  1.12400000000000e+00
  3.98800000000000e-01
  1.53300000000000e-01
  5.72800000000000e-02
  7.60000000000000e-01
  3.02000000000000e-01
  1.20000000000000e-01
  5.41000000000000e-01
  2.12000000000000e-01
  4.61000000000000e-01
  5.13000000000000e+05
  7.68200000000000e+04
  1.74700000000000e+04
  4.93500000000000e+03
  1.60200000000000e+03
  5.74100000000000e+02
  2.21500000000000e+02
  9.05400000000000e+01
  3.87400000000000e+01
  1.69500000000000e+01
  6.45200000000000e+00
  2.87400000000000e+00
  1.25000000000000e+00
  3.59900000000000e-01
  1.69900000000000e-01
  7.06600000000000e-02
  1.12200000000000e+03
  2.66000000000000e+02
  8.59200000000000e+01
  3.23300000000000e+01
  1.33700000000000e+01
  5.80000000000000e+00
  2.55900000000000e+00
  1.12400000000000e+00
  3.98800000000000e-01
  1.53300000000000e-01
  5.72800000000000e-02
  7.60000000000000e-01
  3.02000000000000e-01
  1.20000000000000e-01
  5.41000000000000e-01
  2.12000000000000e-01
  4.61000000000000e-01

  3.56439732356011e-01
  6.67250935594825e-01
  1.15567538346971e+00
  1.89079471139597e+00
  2.92997535092854e+00
  4.25377897422013e+00
  5.53035652706994e+00
  5.88407857713363e+00
  4.26432221020809e+00
  1.46246852660687e+00
  9.90009037975635e-02
 -5.26805361731285e-03
  1.58075269248041e-03
 -9.63604858609034e-02
 -1.80140685379119e-01
 -3.12991611081079e-01
 -5.12013980868736e-01
 -8.03092560139717e-01
 -1.18597193899895e+00
 -1.63453354628192e+00
 -1.94138718043020e+00
 -1.86039340932271e+00
 -9.21642524314205e-01
  4.93552860211257e-01
  9.09065541611183e-01
  3.40430003714153e-01
  4.89002727192571e-02
  9.13245846186842e-02
  1.58921585782757e-01
  2.59526822498432e-01
  4.08347517411705e-01
  6.02266139654795e-01
  8.36774006155092e-01
  9.98775610751853e-01
  9.86583994360998e-01
  5.01500269670235e-01
 -2.91439000418814e-01
 -6.84883633703988e-01
 -4.85138432421684e-01
  3.31166560285492e-01
  1.88605835767988e-01
  9.76765512168845e-02
  4.17977074735086e+00
  5.88843070847456e+00
  7.44317185052013e+00
  8.05001094515016e+00
  6.97099017282640e+00
  4.33955185260449e+00
  1.76355858703549e+00
  3.34437932089088e-01
 -4.09551658476811e+00
 -5.70145272051300e+00
 -7.35388974061730e+00
 -7.93663059323219e+00
 -7.17813870370958e+00
 -4.42768957771269e+00
 -2.05517820096269e+00
 -1.72105843348797e-01
  4.51735295769850e-01
  1.36731249153695e-01
  3.99432914781939e-02
  1.01820035164008e+00
  2.02498404800701e-01
  4.02695370421242e-02
  3.69528803814005e-01
  4.48962571437413e-02
  1.32316184864580e-01
  3.56439732356011e-01
  6.67250935594825e-01
  1.15567538346971e+00
  1.89079471139597e+00
  2.92997535092854e+00
  4.25377897422013e+00
  5.53035652706994e+00
  5.88407857713363e+00
  4.26432221020809e+00
  1.46246852660687e+00
  9.90009037975635e-02
 -5.26805361731285e-03
  1.58075269248041e-03
 -9.63604858609034e-02
 -1.80140685379119e-01
 -3.12991611081079e-01
 -5.12013980868736e-01
 -8.03092560139717e-01
 -1.18597193899895e+00
 -1.63453354628192e+00
 -1.94138718043020e+00
 -1.86039340932271e+00
 -9.21642524314205e-01
  4.93552860211257e-01
  9.09065541611183e-01
  3.40430003714153e-01
  4.89002727192571e-02
  9.13245846186842e-02
  1.58921585782757e-01
  2.59526822498432e-01
  4.08347517411705e-01
  6.02266139654795e-01
  8.36774006155092e-01
  9.98775610751853e-01
  9.86583994360998e-01
  5.01500269670235e-01
 -2.91439000418814e-01
 -6.84883633703988e-01
 -4.85138432421684e-01
  3.31166560285492e-01
  1.88605835767988e-01
  9.76765512168845e-02
  4.17977074735086e+00
  5.88843070847456e+00
  7.44317185052013e+00
  8.05001094515016e+00
  6.97099017282640e+00
  4.33955185260449e+00
  1.76355858703549e+00
  3.34437932089088e-01
 -4.09551658476811e+00
 -5.70145272051300e+00
 -7.35388974061730e+00
 -7.93663059323219e+00
 -7.17813870370958e+00
 -4.42768957771269e+00
 -2.05517820096269e+00
 -1.72105843348797e-01
  4.51735295769850e-01
  1.36731249153695e-01
  3.99432914781939e-02
  1.01820035164008e+00
  2.02498404800701e-01
  4.02695370421242e-02
  3.69528803814005e-01
  4.48962571437413e-02
  1.32316184864580e-01

0 0 0 0 3 3 3
0 0 13 0 26 0 
13 0

0 3 3 13 1 1 1
39 0 
1 0

0 4 4 14 1 1 1
40 0 
1 0

0 5 5 15 1 1 1
41 0 
1 0

0 6 6 16 2 6 6
42 1 50 1 
8 0

0 12 12 24 1 3 3
58 1 
1 0

0 15 15 25 1 3 3
59 1 
1 0

0 18 18 26 1 3 3
60 1 
1 0

0 21 21 27 1 5 6
61 2 
1 1

0 26 26 28 1 5 6
62 2 
1 1

0 31 31 29 1 5 6
63 2 
1 1

0 36 36 30 1 7 10
64 3 
1 1

0 43 43 31 1 7 10
65 3 
1 1

0 50 50 32 1 9 15
66 4 
1 1

1 59 59 33 3 3 3
67 0 80 0 93 0 
13 0

1 62 62 46 1 1 1
106 0 
1 0

1 63 63 47 1 1 1
107 0 
1 0

1 64 64 48 1 1 1
108 0 
1 0

1 65 65 49 2 6 6
109 1 117 1 
8 0

1 71 71 57 1 3 3
125 1 
1 0

1 74 74 58 1 3 3
126 1 
1 0

1 77 77 59 1 3 3
127 1 
1 0

1 80 80 60 1 5 6
128 2 
1 1

1 85 85 61 1 5 6
129 2 
1 1

1 90 90 62 1 5 6
130 2 
1 1

1 95 95 63 1 7 10
131 3 
1 1

1 102 102 64 1 7 10
132 3 
1 1

1 109 109 65 1 9 15
133 4 
1 1

 -------------------------------------------------------------
 Allocate 265256 B from available memory: 1048576000000 B
 There are 2197 image cells after screening.
 There are 2061 image cells for CGTO evaluation after screening.
 Real-Space grid for FFT initialized based on kinetic energy cutoff (eV) = 500.0
 Real-Space grid for FFT: (10,10,10)
 There are 9261 real-space grid points.
 There are 64 batches of real-space grid points. 
 Size of each grid batch is around 128
 Grid for AFT initialized based on kinetic energy cutoff (eV) = 500.0
 Real-Space grid for AFT: (10,10,10)
 There are 9261 real-space grid points.

 There are 5628 atom-centered grid points.

 Spacegroup symmetry group: Fd-3m
 Reducing spacegroup symmetry to symmorphic group: F -4 3 m
 Monkhorst-Pack mesh is [10,10,10]
 There are 1000 k points.
kpoints in Bohr
-0.2449298447 -0.2449298447 -0.2449298447
-0.1836973836 -0.1836973836 -0.3061623059
-0.1224649224 -0.1224649224 -0.3673947671
-0.0612324612 -0.0612324612 -0.4286272283
-0.0000000000 -0.0000000000 -0.4898596895
0.0612324612 0.0612324612 -0.5510921507
0.1224649224 0.1224649224 -0.6123246119
0.1836973836 0.1836973836 -0.6735570730
0.2449298447 0.2449298447 -0.7347895342
0.3061623059 0.3061623059 -0.7960219954
-0.1836973836 -0.3061623059 -0.1836973836
-0.1224649224 -0.2449298447 -0.2449298447
-0.0612324612 -0.1836973836 -0.3061623059
-0.0000000000 -0.1224649224 -0.3673947671
0.0612324612 -0.0612324612 -0.4286272283
0.1224649224 -0.0000000000 -0.4898596895
0.1836973836 0.0612324612 -0.5510921507
0.2449298447 0.1224649224 -0.6123246119
0.3061623059 0.1836973836 -0.6735570730
0.3673947671 0.2449298447 -0.7347895342
-0.1224649224 -0.3673947671 -0.1224649224
-0.0612324612 -0.3061623059 -0.1836973836
-0.0000000000 -0.2449298447 -0.2449298447
0.0612324612 -0.1836973836 -0.3061623059
0.1224649224 -0.1224649224 -0.3673947671
0.1836973836 -0.0612324612 -0.4286272283
0.2449298447 -0.0000000000 -0.4898596895
0.3061623059 0.0612324612 -0.5510921507
0.3673947671 0.1224649224 -0.6123246119
0.4286272283 0.1836973836 -0.6735570730
-0.0612324612 -0.4286272283 -0.0612324612
-0.0000000000 -0.3673947671 -0.1224649224
0.0612324612 -0.3061623059 -0.1836973836
0.1224649224 -0.2449298447 -0.2449298447
0.1836973836 -0.1836973836 -0.3061623059
0.2449298447 -0.1224649224 -0.3673947671
0.3061623059 -0.0612324612 -0.4286272283
0.3673947671 -0.0000000000 -0.4898596895
0.4286272283 0.0612324612 -0.5510921507
0.4898596895 0.1224649224 -0.6123246119
-0.0000000000 -0.4898596895 0.0000000000
0.0612324612 -0.4286272283 -0.0612324612
0.1224649224 -0.3673947671 -0.1224649224
0.1836973836 -0.3061623059 -0.1836973836
0.2449298447 -0.2449298447 -0.2449298447
0.3061623059 -0.1836973836 -0.3061623059
0.3673947671 -0.1224649224 -0.3673947671
0.4286272283 -0.0612324612 -0.4286272283
0.4898596895 -0.0000000000 -0.4898596895
0.5510921507 0.0612324612 -0.5510921507
0.0612324612 -0.5510921507 0.0612324612
0.1224649224 -0.4898596895 -0.0000000000
0.1836973836 -0.4286272283 -0.0612324612
0.2449298447 -0.3673947671 -0.1224649224
0.3061623059 -0.3061623059 -0.1836973836
0.3673947671 -0.2449298447 -0.2449298447
0.4286272283 -0.1836973836 -0.3061623059
0.4898596895 -0.1224649224 -0.3673947671
0.5510921507 -0.0612324612 -0.4286272283
0.6123246119 0.0000000000 -0.4898596895
0.1224649224 -0.6123246119 0.1224649224
0.1836973836 -0.5510921507 0.0612324612
0.2449298447 -0.4898596895 0.0000000000
0.3061623059 -0.4286272283 -0.0612324612
0.3673947671 -0.3673947671 -0.1224649224
0.4286272283 -0.3061623059 -0.1836973836
0.4898596895 -0.2449298447 -0.2449298447
0.5510921507 -0.1836973836 -0.3061623059
0.6123246119 -0.1224649224 -0.3673947671
0.6735570730 -0.0612324612 -0.4286272283
0.1836973836 -0.6735570730 0.1836973836
0.2449298447 -0.6123246119 0.1224649224
0.3061623059 -0.5510921507 0.0612324612
0.3673947671 -0.4898596895 -0.0000000000
0.4286272283 -0.4286272283 -0.0612324612
0.4898596895 -0.3673947671 -0.1224649224
0.5510921507 -0.3061623059 -0.1836973836
0.6123246119 -0.2449298447 -0.2449298447
0.6735570730 -0.1836973836 -0.3061623059
0.7347895342 -0.1224649224 -0.3673947671
0.2449298447 -0.7347895342 0.2449298447
0.3061623059 -0.6735570730 0.1836973836
0.3673947671 -0.6123246119 0.1224649224
0.4286272283 -0.5510921507 0.0612324612
0.4898596895 -0.4898596895 0.0000000000
0.5510921507 -0.4286272283 -0.0612324612
0.6123246119 -0.3673947671 -0.1224649224
0.6735570730 -0.3061623059 -0.1836973836
0.7347895342 -0.2449298447 -0.2449298447
0.7960219954 -0.1836973836 -0.3061623059
0.3061623059 -0.7960219954 0.3061623059
0.3673947671 -0.7347895342 0.2449298447
0.4286272283 -0.6735570730 0.1836973836
0.4898596895 -0.6123246119 0.1224649224
0.5510921507 -0.5510921507 0.0612324612
0.6123246119 -0.4898596895 0.0000000000
0.6735570730 -0.4286272283 -0.0612324612
0.7347895342 -0.3673947671 -0.1224649224
0.7960219954 -0.3061623059 -0.1836973836
0.8572544566 -0.2449298447 -0.2449298447
-0.3061623059 -0.1836973836 -0.1836973836
-0.2449298447 -0.1224649224 -0.2449298447
-0.1836973836 -0.0612324612 -0.3061623059
-0.1224649224 -0.0000000000 -0.3673947671
-0.0612324612 0.0612324612 -0.4286272283
-0.0000000000 0.1224649224 -0.4898596895
0.0612324612 0.1836973836 -0.5510921507
0.1224649224 0.2449298447 -0.6123246119
0.1836973836 0.3061623059 -0.6735570730
0.2449298447 0.3673947671 -0.7347895342
-0.2449298447 -0.2449298447 -0.1224649224
-0.1836973836 -0.1836973836 -0.1836973836
-0.1224649224 -0.1224649224 -0.2449298447
-0.0612324612 -0.0612324612 -0.3061623059
-0.0000000000 -0.0000000000 -0.3673947671
0.0612324612 0.0612324612 -0.4286272283
0.1224649224 0.1224649224 -0.4898596895
0.1836973836 0.1836973836 -0.5510921507
0.2449298447 0.2449298447 -0.6123246119
0.3061623059 0.3061623059 -0.6735570730
-0.1836973836 -0.3061623059 -0.0612324612
-0.1224649224 -0.2449298447 -0.1224649224
-0.0612324612 -0.1836973836 -0.1836973836
-0.0000000000 -0.1224649224 -0.2449298447
0.0612324612 -0.0612324612 -0.3061623059
0.1224649224 -0.0000000000 -0.3673947671
0.1836973836 0.0612324612 -0.4286272283
0.2449298447 0.1224649224 -0.4898596895
0.3061623059 0.1836973836 -0.5510921507
0.3673947671 0.2449298447 -0.6123246119
-0.1224649224 -0.3673947671 0.0000000000
-0.0612324612 -0.3061623059 -0.0612324612
-0.0000000000 -0.2449298447 -0.1224649224
0.0612324612 -0.1836973836 -0.1836973836
0.1224649224 -0.1224649224 -0.2449298447
0.1836973836 -0.0612324612 -0.3061623059
0.2449298447 -0.0000000000 -0.3673947671
0.3061623059 0.0612324612 -0.4286272283
0.3673947671 0.1224649224 -0.4898596895
0.4286272283 0.1836973836 -0.5510921507
-0.0612324612 -0.4286272283 0.0612324612
-0.0000000000 -0.3673947671 0.0000000000
0.0612324612 -0.3061623059 -0.0612324612
0.1224649224 -0.2449298447 -0.1224649224
0.1836973836 -0.1836973836 -0.1836973836
0.2449298447 -0.1224649224 -0.2449298447
0.3061623059 -0.0612324612 -0.3061623059
0.3673947671 0.0000000000 -0.3673947671
0.4286272283 0.0612324612 -0.4286272283
0.4898596895 0.1224649224 -0.4898596895
-0.0000000000 -0.4898596895 0.1224649224
0.0612324612 -0.4286272283 0.0612324612
0.1224649224 -0.3673947671 0.0000000000
0.1836973836 -0.3061623059 -0.0612324612
0.2449298447 -0.2449298447 -0.1224649224
0.3061623059 -0.1836973836 -0.1836973836
0.3673947671 -0.1224649224 -0.2449298447
0.4286272283 -0.0612324612 -0.3061623059
0.4898596895 0.0000000000 -0.3673947671
0.5510921507 0.0612324612 -0.4286272283
0.0612324612 -0.5510921507 0.1836973836
0.1224649224 -0.4898596895 0.1224649224
0.1836973836 -0.4286272283 0.0612324612
0.2449298447 -0.3673947671 0.0000000000
0.3061623059 -0.3061623059 -0.0612324612
0.3673947671 -0.2449298447 -0.1224649224
0.4286272283 -0.1836973836 -0.1836973836
0.4898596895 -0.1224649224 -0.2449298447
0.5510921507 -0.0612324612 -0.3061623059
0.6123246119 0.0000000000 -0.3673947671
0.1224649224 -0.6123246119 0.2449298447
0.1836973836 -0.5510921507 0.1836973836
0.2449298447 -0.4898596895 0.1224649224
0.3061623059 -0.4286272283 0.0612324612
0.3673947671 -0.3673947671 0.0000000000
0.4286272283 -0.3061623059 -0.0612324612
0.4898596895 -0.2449298447 -0.1224649224
0.5510921507 -0.1836973836 -0.1836973836
0.6123246119 -0.1224649224 -0.2449298447
0.6735570730 -0.0612324612 -0.3061623059
0.1836973836 -0.6735570730 0.3061623059
0.2449298447 -0.6123246119 0.2449298447
0.3061623059 -0.5510921507 0.1836973836
0.3673947671 -0.4898596895 0.1224649224
0.4286272283 -0.4286272283 0.0612324612
0.4898596895 -0.3673947671 0.0000000000
0.5510921507 -0.3061623059 -0.0612324612
0.6123246119 -0.2449298447 -0.1224649224
0.6735570730 -0.1836973836 -0.1836973836
0.7347895342 -0.1224649224 -0.2449298447
0.2449298447 -0.7347895342 0.3673947671
0.3061623059 -0.6735570730 0.3061623059
0.3673947671 -0.6123246119 0.2449298447
0.4286272283 -0.5510921507 0.1836973836
0.4898596895 -0.4898596895 0.1224649224
0.5510921507 -0.4286272283 0.0612324612
0.6123246119 -0.3673947671 0.0000000000
0.6735570730 -0.3061623059 -0.0612324612
0.7347895342 -0.2449298447 -0.1224649224
0.7960219954 -0.1836973836 -0.1836973836
-0.3673947671 -0.1224649224 -0.1224649224
-0.3061623059 -0.0612324612 -0.1836973836
-0.2449298447 -0.0000000000 -0.2449298447
-0.1836973836 0.0612324612 -0.3061623059
-0.1224649224 0.1224649224 -0.3673947671
-0.0612324612 0.1836973836 -0.4286272283
-0.0000000000 0.2449298447 -0.4898596895
0.0612324612 0.3061623059 -0.5510921507
0.1224649224 0.3673947671 -0.6123246119
0.1836973836 0.4286272283 -0.6735570730
-0.3061623059 -0.1836973836 -0.0612324612
-0.2449298447 -0.1224649224 -0.1224649224
-0.1836973836 -0.0612324612 -0.1836973836
-0.1224649224 -0.0000000000 -0.2449298447
-0.0612324612 0.0612324612 -0.3061623059
-0.0000000000 0.1224649224 -0.3673947671
0.0612324612 0.1836973836 -0.4286272283
0.1224649224 0.2449298447 -0.4898596895
0.1836973836 0.3061623059 -0.5510921507
0.2449298447 0.3673947671 -0.6123246119
-0.2449298447 -0.2449298447 0.0000000000
-0.1836973836 -0.1836973836 -0.0612324612
-0.1224649224 -0.1224649224 -0.1224649224
-0.0612324612 -0.0612324612 -0.1836973836
-0.0000000000 -0.0000000000 -0.2449298447
0.0612324612 0.0612324612 -0.3061623059
0.1224649224 0.1224649224 -0.3673947671
0.1836973836 0.1836973836 -0.4286272283
0.2449298447 0.2449298447 -0.4898596895
0.3061623059 0.3061623059 -0.5510921507
-0.1836973836 -0.3061623059 0.0612324612
-0.1224649224 -0.2449298447 -0.0000000000
-0.0612324612 -0.1836973836 -0.0612324612
-0.0000000000 -0.1224649224 -0.1224649224
0.0612324612 -0.0612324612 -0.1836973836
0.1224649224 -0.0000000000 -0.2449298447
0.1836973836 0.0612324612 -0.3061623059
0.2449298447 0.1224649224 -0.3673947671
0.3061623059 0.1836973836 -0.4286272283
0.3673947671 0.2449298447 -0.4898596895
-0.1224649224 -0.3673947671 0.1224649224
-0.0612324612 -0.3061623059 0.0612324612
-0.0000000000 -0.2449298447 0.0000000000
0.0612324612 -0.1836973836 -0.0612324612
0.1224649224 -0.1224649224 -0.1224649224
0.1836973836 -0.0612324612 -0.1836973836
0.2449298447 0.0000000000 -0.2449298447
0.3061623059 0.0612324612 -0.3061623059
0.3673947671 0.1224649224 -0.3673947671
0.4286272283 0.1836973836 -0.4286272283
-0.0612324612 -0.4286272283 0.1836973836
-0.0000000000 -0.3673947671 0.1224649224
0.0612324612 -0.3061623059 0.0612324612
0.1224649224 -0.2449298447 -0.0000000000
0.1836973836 -0.1836973836 -0.0612324612
0.2449298447 -0.1224649224 -0.1224649224
0.3061623059 -0.0612324612 -0.1836973836
0.3673947671 0.0000000000 -0.2449298447
0.4286272283 0.0612324612 -0.3061623059
0.4898596895 0.1224649224 -0.3673947671
-0.0000000000 -0.4898596895 0.2449298447
0.0612324612 -0.4286272283 0.1836973836
0.1224649224 -0.3673947671 0.1224649224
0.1836973836 -0.3061623059 0.0612324612
0.2449298447 -0.2449298447 0.0000000000
0.3061623059 -0.1836973836 -0.0612324612
0.3673947671 -0.1224649224 -0.1224649224
0.4286272283 -0.0612324612 -0.1836973836
0.4898596895 0.0000000000 -0.2449298447
0.5510921507 0.0612324612 -0.3061623059
0.0612324612 -0.5510921507 0.3061623059
0.1224649224 -0.4898596895 0.2449298447
0.1836973836 -0.4286272283 0.1836973836
0.2449298447 -0.3673947671 0.1224649224
0.3061623059 -0.3061623059 0.0612324612
0.3673947671 -0.2449298447 0.0000000000
0.4286272283 -0.1836973836 -0.0612324612
0.4898596895 -0.1224649224 -0.1224649224
0.5510921507 -0.0612324612 -0.1836973836
0.6123246119 0.0000000000 -0.2449298447
0.1224649224 -0.6123246119 0.3673947671
0.1836973836 -0.5510921507 0.3061623059
0.2449298447 -0.4898596895 0.2449298447
0.3061623059 -0.4286272283 0.1836973836
0.3673947671 -0.3673947671 0.1224649224
0.4286272283 -0.3061623059 0.0612324612
0.4898596895 -0.2449298447 0.0000000000
0.5510921507 -0.1836973836 -0.0612324612
0.6123246119 -0.1224649224 -0.1224649224
0.6735570730 -0.0612324612 -0.1836973836
0.1836973836 -0.6735570730 0.4286272283
0.2449298447 -0.6123246119 0.3673947671
0.3061623059 -0.5510921507 0.3061623059
0.3673947671 -0.4898596895 0.2449298447
0.4286272283 -0.4286272283 0.1836973836
0.4898596895 -0.3673947671 0.1224649224
0.5510921507 -0.3061623059 0.0612324612
0.6123246119 -0.2449298447 0.0000000000
0.6735570730 -0.1836973836 -0.0612324612
0.7347895342 -0.1224649224 -0.1224649224
-0.4286272283 -0.0612324612 -0.0612324612
-0.3673947671 -0.0000000000 -0.1224649224
-0.3061623059 0.0612324612 -0.1836973836
-0.2449298447 0.1224649224 -0.2449298447
-0.1836973836 0.1836973836 -0.3061623059
-0.1224649224 0.2449298447 -0.3673947671
-0.0612324612 0.3061623059 -0.4286272283
-0.0000000000 0.3673947671 -0.4898596895
0.0612324612 0.4286272283 -0.5510921507
0.1224649224 0.4898596895 -0.6123246119
-0.3673947671 -0.1224649224 0.0000000000
-0.3061623059 -0.0612324612 -0.0612324612
-0.2449298447 -0.0000000000 -0.1224649224
-0.1836973836 0.0612324612 -0.1836973836
-0.1224649224 0.1224649224 -0.2449298447
-0.0612324612 0.1836973836 -0.3061623059
0.0000000000 0.2449298447 -0.3673947671
0.0612324612 0.3061623059 -0.4286272283
0.1224649224 0.3673947671 -0.4898596895
0.1836973836 0.4286272283 -0.5510921507
-0.3061623059 -0.1836973836 0.0612324612
-0.2449298447 -0.1224649224 -0.0000000000
-0.1836973836 -0.0612324612 -0.0612324612
-0.1224649224 -0.0000000000 -0.1224649224
-0.0612324612 0.0612324612 -0.1836973836
-0.0000000000 0.1224649224 -0.2449298447
0.0612324612 0.1836973836 -0.3061623059
0.1224649224 0.2449298447 -0.3673947671
0.1836973836 0.3061623059 -0.4286272283
0.2449298447 0.3673947671 -0.4898596895
-0.2449298447 -0.2449298447 0.1224649224
-0.1836973836 -0.1836973836 0.0612324612
-0.1224649224 -0.1224649224 0.0000000000
-0.0612324612 -0.0612324612 -0.0612324612
-0.0000000000 -0.0000000000 -0.1224649224
0.0612324612 0.0612324612 -0.1836973836
0.1224649224 0.1224649224 -0.2449298447
0.1836973836 0.1836973836 -0.3061623059
0.2449298447 0.2449298447 -0.3673947671
0.3061623059 0.3061623059 -0.4286272283
-0.1836973836 -0.3061623059 0.1836973836
-0.1224649224 -0.2449298447 0.1224649224
-0.0612324612 -0.1836973836 0.0612324612
-0.0000000000 -0.1224649224 0.0000000000
0.0612324612 -0.0612324612 -0.0612324612
0.1224649224 0.0000000000 -0.1224649224
0.1836973836 0.0612324612 -0.1836973836
0.2449298447 0.1224649224 -0.2449298447
0.3061623059 0.1836973836 -0.3061623059
0.3673947671 0.2449298447 -0.3673947671
-0.1224649224 -0.3673947671 0.2449298447
-0.0612324612 -0.3061623059 0.1836973836
-0.0000000000 -0.2449298447 0.1224649224
0.0612324612 -0.1836973836 0.0612324612
0.1224649224 -0.1224649224 0.0000000000
0.1836973836 -0.0612324612 -0.0612324612
0.2449298447 0.0000000000 -0.1224649224
0.3061623059 0.0612324612 -0.1836973836
0.3673947671 0.1224649224 -0.2449298447
0.4286272283 0.1836973836 -0.3061623059
-0.0612324612 -0.4286272283 0.3061623059
-0.0000000000 -0.3673947671 0.2449298447
0.0612324612 -0.3061623059 0.1836973836
0.1224649224 -0.2449298447 0.1224649224
0.1836973836 -0.1836973836 0.0612324612
0.2449298447 -0.1224649224 0.0000000000
0.3061623059 -0.0612324612 -0.0612324612
0.3673947671 0.0000000000 -0.1224649224
0.4286272283 0.0612324612 -0.1836973836
0.4898596895 0.1224649224 -0.2449298447
-0.0000000000 -0.4898596895 0.3673947671
0.0612324612 -0.4286272283 0.3061623059
0.1224649224 -0.3673947671 0.2449298447
0.1836973836 -0.3061623059 0.1836973836
0.2449298447 -0.2449298447 0.1224649224
0.3061623059 -0.1836973836 0.0612324612
0.3673947671 -0.1224649224 0.0000000000
0.4286272283 -0.0612324612 -0.0612324612
0.4898596895 0.0000000000 -0.1224649224
0.5510921507 0.0612324612 -0.1836973836
0.0612324612 -0.5510921507 0.4286272283
0.1224649224 -0.4898596895 0.3673947671
0.1836973836 -0.4286272283 0.3061623059
0.2449298447 -0.3673947671 0.2449298447
0.3061623059 -0.3061623059 0.1836973836
0.3673947671 -0.2449298447 0.1224649224
0.4286272283 -0.1836973836 0.0612324612
0.4898596895 -0.1224649224 0.0000000000
0.5510921507 -0.0612324612 -0.0612324612
0.6123246119 0.0000000000 -0.1224649224
0.1224649224 -0.6123246119 0.4898596895
0.1836973836 -0.5510921507 0.4286272283
0.2449298447 -0.4898596895 0.3673947671
0.3061623059 -0.4286272283 0.3061623059
0.3673947671 -0.3673947671 0.2449298447
0.4286272283 -0.3061623059 0.1836973836
0.4898596895 -0.2449298447 0.1224649224
0.5510921507 -0.1836973836 0.0612324612
0.6123246119 -0.1224649224 0.0000000000
0.6735570730 -0.0612324612 -0.0612324612
-0.4898596895 -0.0000000000 -0.0000000000
-0.4286272283 0.0612324612 -0.0612324612
-0.3673947671 0.1224649224 -0.1224649224
-0.3061623059 0.1836973836 -0.1836973836
-0.2449298447 0.2449298447 -0.2449298447
-0.1836973836 0.3061623059 -0.3061623059
-0.1224649224 0.3673947671 -0.3673947671
-0.0612324612 0.4286272283 -0.4286272283
0.0000000000 0.4898596895 -0.4898596895
0.0612324612 0.5510921507 -0.5510921507
-0.4286272283 -0.0612324612 0.0612324612
-0.3673947671 -0.0000000000 -0.0000000000
-0.3061623059 0.0612324612 -0.0612324612
-0.2449298447 0.1224649224 -0.1224649224
-0.1836973836 0.1836973836 -0.1836973836
-0.1224649224 0.2449298447 -0.2449298447
-0.0612324612 0.3061623059 -0.3061623059
0.0000000000 0.3673947671 -0.3673947671
0.0612324612 0.4286272283 -0.4286272283
0.1224649224 0.4898596895 -0.4898596895
-0.3673947671 -0.1224649224 0.1224649224
-0.3061623059 -0.0612324612 0.0612324612
-0.2449298447 -0.0000000000 -0.0000000000
-0.1836973836 0.0612324612 -0.0612324612
-0.1224649224 0.1224649224 -0.1224649224
-0.0612324612 0.1836973836 -0.1836973836
0.0000000000 0.2449298447 -0.2449298447
0.0612324612 0.3061623059 -0.3061623059
0.1224649224 0.3673947671 -0.3673947671
0.1836973836 0.4286272283 -0.4286272283
-0.3061623059 -0.1836973836 0.1836973836
-0.2449298447 -0.1224649224 0.1224649224
-0.1836973836 -0.0612324612 0.0612324612
-0.1224649224 -0.0000000000 -0.0000000000
-0.0612324612 0.0612324612 -0.0612324612
0.0000000000 0.1224649224 -0.1224649224
0.0612324612 0.1836973836 -0.1836973836
0.1224649224 0.2449298447 -0.2449298447
0.1836973836 0.3061623059 -0.3061623059
0.2449298447 0.3673947671 -0.3673947671
-0.2449298447 -0.2449298447 0.2449298447
-0.1836973836 -0.1836973836 0.1836973836
-0.1224649224 -0.1224649224 0.1224649224
-0.0612324612 -0.0612324612 0.0612324612
0.0000000000 0.0000000000 0.0000000000
0.0612324612 0.0612324612 -0.0612324612
0.1224649224 0.1224649224 -0.1224649224
0.1836973836 0.1836973836 -0.1836973836
0.2449298447 0.2449298447 -0.2449298447
0.3061623059 0.3061623059 -0.3061623059
-0.1836973836 -0.3061623059 0.3061623059
-0.1224649224 -0.2449298447 0.2449298447
-0.0612324612 -0.1836973836 0.1836973836
0.0000000000 -0.1224649224 0.1224649224
0.0612324612 -0.0612324612 0.0612324612
0.1224649224 0.0000000000 0.0000000000
0.1836973836 0.0612324612 -0.0612324612
0.2449298447 0.1224649224 -0.1224649224
0.3061623059 0.1836973836 -0.1836973836
0.3673947671 0.2449298447 -0.2449298447
-0.1224649224 -0.3673947671 0.3673947671
-0.0612324612 -0.3061623059 0.3061623059
-0.0000000000 -0.2449298447 0.2449298447
0.0612324612 -0.1836973836 0.1836973836
0.1224649224 -0.1224649224 0.1224649224
0.1836973836 -0.0612324612 0.0612324612
0.2449298447 0.0000000000 0.0000000000
0.3061623059 0.0612324612 -0.0612324612
0.3673947671 0.1224649224 -0.1224649224
0.4286272283 0.1836973836 -0.1836973836
-0.0612324612 -0.4286272283 0.4286272283
-0.0000000000 -0.3673947671 0.3673947671
0.0612324612 -0.3061623059 0.3061623059
0.1224649224 -0.2449298447 0.2449298447
0.1836973836 -0.1836973836 0.1836973836
0.2449298447 -0.1224649224 0.1224649224
0.3061623059 -0.0612324612 0.0612324612
0.3673947671 0.0000000000 0.0000000000
0.4286272283 0.0612324612 -0.0612324612
0.4898596895 0.1224649224 -0.1224649224
-0.0000000000 -0.4898596895 0.4898596895
0.0612324612 -0.4286272283 0.4286272283
0.1224649224 -0.3673947671 0.3673947671
0.1836973836 -0.3061623059 0.3061623059
0.2449298447 -0.2449298447 0.2449298447
0.3061623059 -0.1836973836 0.1836973836
0.3673947671 -0.1224649224 0.1224649224
0.4286272283 -0.0612324612 0.0612324612
0.4898596895 0.0000000000 0.0000000000
0.5510921507 0.0612324612 -0.0612324612
0.0612324612 -0.5510921507 0.5510921507
0.1224649224 -0.4898596895 0.4898596895
0.1836973836 -0.4286272283 0.4286272283
0.2449298447 -0.3673947671 0.3673947671
0.3061623059 -0.3061623059 0.3061623059
0.3673947671 -0.2449298447 0.2449298447
0.4286272283 -0.1836973836 0.1836973836
0.4898596895 -0.1224649224 0.1224649224
0.5510921507 -0.0612324612 0.0612324612
0.6123246119 0.0000000000 0.0000000000
-0.5510921507 0.0612324612 0.0612324612
-0.4898596895 0.1224649224 -0.0000000000
-0.4286272283 0.1836973836 -0.0612324612
-0.3673947671 0.2449298447 -0.1224649224
-0.3061623059 0.3061623059 -0.1836973836
-0.2449298447 0.3673947671 -0.2449298447
-0.1836973836 0.4286272283 -0.3061623059
-0.1224649224 0.4898596895 -0.3673947671
-0.0612324612 0.5510921507 -0.4286272283
0.0000000000 0.6123246119 -0.4898596895
-0.4898596895 -0.0000000000 0.1224649224
-0.4286272283 0.0612324612 0.0612324612
-0.3673947671 0.1224649224 0.0000000000
-0.3061623059 0.1836973836 -0.0612324612
-0.2449298447 0.2449298447 -0.1224649224
-0.1836973836 0.3061623059 -0.1836973836
-0.1224649224 0.3673947671 -0.2449298447
-0.0612324612 0.4286272283 -0.3061623059
0.0000000000 0.4898596895 -0.3673947671
0.0612324612 0.5510921507 -0.4286272283
-0.4286272283 -0.0612324612 0.1836973836
-0.3673947671 -0.0000000000 0.1224649224
-0.3061623059 0.0612324612 0.0612324612
-0.2449298447 0.1224649224 -0.0000000000
-0.1836973836 0.1836973836 -0.0612324612
-0.1224649224 0.2449298447 -0.1224649224
-0.0612324612 0.3061623059 -0.1836973836
0.0000000000 0.3673947671 -0.2449298447
0.0612324612 0.4286272283 -0.3061623059
0.1224649224 0.4898596895 -0.3673947671
-0.3673947671 -0.1224649224 0.2449298447
-0.3061623059 -0.0612324612 0.1836973836
-0.2449298447 -0.0000000000 0.1224649224
-0.1836973836 0.0612324612 0.0612324612
-0.1224649224 0.1224649224 0.0000000000
-0.0612324612 0.1836973836 -0.0612324612
0.0000000000 0.2449298447 -0.1224649224
0.0612324612 0.3061623059 -0.1836973836
0.1224649224 0.3673947671 -0.2449298447
0.1836973836 0.4286272283 -0.3061623059
-0.3061623059 -0.1836973836 0.3061623059
-0.2449298447 -0.1224649224 0.2449298447
-0.1836973836 -0.0612324612 0.1836973836
-0.1224649224 0.0000000000 0.1224649224
-0.0612324612 0.0612324612 0.0612324612
0.0000000000 0.1224649224 0.0000000000
0.0612324612 0.1836973836 -0.0612324612
0.1224649224 0.2449298447 -0.1224649224
0.1836973836 0.3061623059 -0.1836973836
0.2449298447 0.3673947671 -0.2449298447
-0.2449298447 -0.2449298447 0.3673947671
-0.1836973836 -0.1836973836 0.3061623059
-0.1224649224 -0.1224649224 0.2449298447
-0.0612324612 -0.0612324612 0.1836973836
0.0000000000 0.0000000000 0.1224649224
0.0612324612 0.0612324612 0.0612324612
0.1224649224 0.1224649224 0.0000000000
0.1836973836 0.1836973836 -0.0612324612
0.2449298447 0.2449298447 -0.1224649224
0.3061623059 0.3061623059 -0.1836973836
-0.1836973836 -0.3061623059 0.4286272283
-0.1224649224 -0.2449298447 0.3673947671
-0.0612324612 -0.1836973836 0.3061623059
0.0000000000 -0.1224649224 0.2449298447
0.0612324612 -0.0612324612 0.1836973836
0.1224649224 0.0000000000 0.1224649224
0.1836973836 0.0612324612 0.0612324612
0.2449298447 0.1224649224 0.0000000000
0.3061623059 0.1836973836 -0.0612324612
0.3673947671 0.2449298447 -0.1224649224
-0.1224649224 -0.3673947671 0.4898596895
-0.0612324612 -0.3061623059 0.4286272283
-0.0000000000 -0.2449298447 0.3673947671
0.0612324612 -0.1836973836 0.3061623059
0.1224649224 -0.1224649224 0.2449298447
0.1836973836 -0.0612324612 0.1836973836
0.2449298447 0.0000000000 0.1224649224
0.3061623059 0.0612324612 0.0612324612
0.3673947671 0.1224649224 0.0000000000
0.4286272283 0.1836973836 -0.0612324612
-0.0612324612 -0.4286272283 0.5510921507
-0.0000000000 -0.3673947671 0.4898596895
0.0612324612 -0.3061623059 0.4286272283
0.1224649224 -0.2449298447 0.3673947671
0.1836973836 -0.1836973836 0.3061623059
0.2449298447 -0.1224649224 0.2449298447
0.3061623059 -0.0612324612 0.1836973836
0.3673947671 0.0000000000 0.1224649224
0.4286272283 0.0612324612 0.0612324612
0.4898596895 0.1224649224 0.0000000000
-0.0000000000 -0.4898596895 0.6123246119
0.0612324612 -0.4286272283 0.5510921507
0.1224649224 -0.3673947671 0.4898596895
0.1836973836 -0.3061623059 0.4286272283
0.2449298447 -0.2449298447 0.3673947671
0.3061623059 -0.1836973836 0.3061623059
0.3673947671 -0.1224649224 0.2449298447
0.4286272283 -0.0612324612 0.1836973836
0.4898596895 0.0000000000 0.1224649224
0.5510921507 0.0612324612 0.0612324612
-0.6123246119 0.1224649224 0.1224649224
-0.5510921507 0.1836973836 0.0612324612
-0.4898596895 0.2449298447 -0.0000000000
-0.4286272283 0.3061623059 -0.0612324612
-0.3673947671 0.3673947671 -0.1224649224
-0.3061623059 0.4286272283 -0.1836973836
-0.2449298447 0.4898596895 -0.2449298447
-0.1836973836 0.5510921507 -0.3061623059
-0.1224649224 0.6123246119 -0.3673947671
-0.0612324612 0.6735570730 -0.4286272283
-0.5510921507 0.0612324612 0.1836973836
-0.4898596895 0.1224649224 0.1224649224
-0.4286272283 0.1836973836 0.0612324612
-0.3673947671 0.2449298447 -0.0000000000
-0.3061623059 0.3061623059 -0.0612324612
-0.2449298447 0.3673947671 -0.1224649224
-0.1836973836 0.4286272283 -0.1836973836
-0.1224649224 0.4898596895 -0.2449298447
-0.0612324612 0.5510921507 -0.3061623059
0.0000000000 0.6123246119 -0.3673947671
-0.4898596895 -0.0000000000 0.2449298447
-0.4286272283 0.0612324612 0.1836973836
-0.3673947671 0.1224649224 0.1224649224
-0.3061623059 0.1836973836 0.0612324612
-0.2449298447 0.2449298447 -0.0000000000
-0.1836973836 0.3061623059 -0.0612324612
-0.1224649224 0.3673947671 -0.1224649224
-0.0612324612 0.4286272283 -0.1836973836
0.0000000000 0.4898596895 -0.2449298447
0.0612324612 0.5510921507 -0.3061623059
-0.4286272283 -0.0612324612 0.3061623059
-0.3673947671 0.0000000000 0.2449298447
-0.3061623059 0.0612324612 0.1836973836
-0.2449298447 0.1224649224 0.1224649224
-0.1836973836 0.1836973836 0.0612324612
-0.1224649224 0.2449298447 0.0000000000
-0.0612324612 0.3061623059 -0.0612324612
0.0000000000 0.3673947671 -0.1224649224
0.0612324612 0.4286272283 -0.1836973836
0.1224649224 0.4898596895 -0.2449298447
-0.3673947671 -0.1224649224 0.3673947671
-0.3061623059 -0.0612324612 0.3061623059
-0.2449298447 0.0000000000 0.2449298447
-0.1836973836 0.0612324612 0.1836973836
-0.1224649224 0.1224649224 0.1224649224
-0.0612324612 0.1836973836 0.0612324612
0.0000000000 0.2449298447 0.0000000000
0.0612324612 0.3061623059 -0.0612324612
0.1224649224 0.3673947671 -0.1224649224
0.1836973836 0.4286272283 -0.1836973836
-0.3061623059 -0.1836973836 0.4286272283
-0.2449298447 -0.1224649224 0.3673947671
-0.1836973836 -0.0612324612 0.3061623059
-0.1224649224 0.0000000000 0.2449298447
-0.0612324612 0.0612324612 0.1836973836
0.0000000000 0.1224649224 0.1224649224
0.0612324612 0.1836973836 0.0612324612
0.1224649224 0.2449298447 0.0000000000
0.1836973836 0.3061623059 -0.0612324612
0.2449298447 0.3673947671 -0.1224649224
-0.2449298447 -0.2449298447 0.4898596895
-0.1836973836 -0.1836973836 0.4286272283
-0.1224649224 -0.1224649224 0.3673947671
-0.0612324612 -0.0612324612 0.3061623059
0.0000000000 0.0000000000 0.2449298447
0.0612324612 0.0612324612 0.1836973836
0.1224649224 0.1224649224 0.1224649224
0.1836973836 0.1836973836 0.0612324612
0.2449298447 0.2449298447 0.0000000000
0.3061623059 0.3061623059 -0.0612324612
-0.1836973836 -0.3061623059 0.5510921507
-0.1224649224 -0.2449298447 0.4898596895
-0.0612324612 -0.1836973836 0.4286272283
0.0000000000 -0.1224649224 0.3673947671
0.0612324612 -0.0612324612 0.3061623059
0.1224649224 0.0000000000 0.2449298447
0.1836973836 0.0612324612 0.1836973836
0.2449298447 0.1224649224 0.1224649224
0.3061623059 0.1836973836 0.0612324612
0.3673947671 0.2449298447 0.0000000000
-0.1224649224 -0.3673947671 0.6123246119
-0.0612324612 -0.3061623059 0.5510921507
-0.0000000000 -0.2449298447 0.4898596895
0.0612324612 -0.1836973836 0.4286272283
0.1224649224 -0.1224649224 0.3673947671
0.1836973836 -0.0612324612 0.3061623059
0.2449298447 0.0000000000 0.2449298447
0.3061623059 0.0612324612 0.1836973836
0.3673947671 0.1224649224 0.1224649224
0.4286272283 0.1836973836 0.0612324612
-0.0612324612 -0.4286272283 0.6735570730
0.0000000000 -0.3673947671 0.6123246119
0.0612324612 -0.3061623059 0.5510921507
0.1224649224 -0.2449298447 0.4898596895
0.1836973836 -0.1836973836 0.4286272283
0.2449298447 -0.1224649224 0.3673947671
0.3061623059 -0.0612324612 0.3061623059
0.3673947671 0.0000000000 0.2449298447
0.4286272283 0.0612324612 0.1836973836
0.4898596895 0.1224649224 0.1224649224
-0.6735570730 0.1836973836 0.1836973836
-0.6123246119 0.2449298447 0.1224649224
-0.5510921507 0.3061623059 0.0612324612
-0.4898596895 0.3673947671 -0.0000000000
-0.4286272283 0.4286272283 -0.0612324612
-0.3673947671 0.4898596895 -0.1224649224
-0.3061623059 0.5510921507 -0.1836973836
-0.2449298447 0.6123246119 -0.2449298447
-0.1836973836 0.6735570730 -0.3061623059
-0.1224649224 0.7347895342 -0.3673947671
-0.6123246119 0.1224649224 0.2449298447
-0.5510921507 0.1836973836 0.1836973836
-0.4898596895 0.2449298447 0.1224649224
-0.4286272283 0.3061623059 0.0612324612
-0.3673947671 0.3673947671 -0.0000000000
-0.3061623059 0.4286272283 -0.0612324612
-0.2449298447 0.4898596895 -0.1224649224
-0.1836973836 0.5510921507 -0.1836973836
-0.1224649224 0.6123246119 -0.2449298447
-0.0612324612 0.6735570730 -0.3061623059
-0.5510921507 0.0612324612 0.3061623059
-0.4898596895 0.1224649224 0.2449298447
-0.4286272283 0.1836973836 0.1836973836
-0.3673947671 0.2449298447 0.1224649224
-0.3061623059 0.3061623059 0.0612324612
-0.2449298447 0.3673947671 -0.0000000000
-0.1836973836 0.4286272283 -0.0612324612
-0.1224649224 0.4898596895 -0.1224649224
-0.0612324612 0.5510921507 -0.1836973836
0.0000000000 0.6123246119 -0.2449298447
-0.4898596895 -0.0000000000 0.3673947671
-0.4286272283 0.0612324612 0.3061623059
-0.3673947671 0.1224649224 0.2449298447
-0.3061623059 0.1836973836 0.1836973836
-0.2449298447 0.2449298447 0.1224649224
-0.1836973836 0.3061623059 0.0612324612
-0.1224649224 0.3673947671 -0.0000000000
-0.0612324612 0.4286272283 -0.0612324612
0.0000000000 0.4898596895 -0.1224649224
0.0612324612 0.5510921507 -0.1836973836
-0.4286272283 -0.0612324612 0.4286272283
-0.3673947671 0.0000000000 0.3673947671
-0.3061623059 0.0612324612 0.3061623059
-0.2449298447 0.1224649224 0.2449298447
-0.1836973836 0.1836973836 0.1836973836
-0.1224649224 0.2449298447 0.1224649224
-0.0612324612 0.3061623059 0.0612324612
0.0000000000 0.3673947671 0.0000000000
0.0612324612 0.4286272283 -0.0612324612
0.1224649224 0.4898596895 -0.1224649224
-0.3673947671 -0.1224649224 0.4898596895
-0.3061623059 -0.0612324612 0.4286272283
-0.2449298447 0.0000000000 0.3673947671
-0.1836973836 0.0612324612 0.3061623059
-0.1224649224 0.1224649224 0.2449298447
-0.0612324612 0.1836973836 0.1836973836
0.0000000000 0.2449298447 0.1224649224
0.0612324612 0.3061623059 0.0612324612
0.1224649224 0.3673947671 0.0000000000
0.1836973836 0.4286272283 -0.0612324612
-0.3061623059 -0.1836973836 0.5510921507
-0.2449298447 -0.1224649224 0.4898596895
-0.1836973836 -0.0612324612 0.4286272283
-0.1224649224 0.0000000000 0.3673947671
-0.0612324612 0.0612324612 0.3061623059
0.0000000000 0.1224649224 0.2449298447
0.0612324612 0.1836973836 0.1836973836
0.1224649224 0.2449298447 0.1224649224
0.1836973836 0.3061623059 0.0612324612
0.2449298447 0.3673947671 0.0000000000
-0.2449298447 -0.2449298447 0.6123246119
-0.1836973836 -0.1836973836 0.5510921507
-0.1224649224 -0.1224649224 0.4898596895
-0.0612324612 -0.0612324612 0.4286272283
0.0000000000 0.0000000000 0.3673947671
0.0612324612 0.0612324612 0.3061623059
0.1224649224 0.1224649224 0.2449298447
0.1836973836 0.1836973836 0.1836973836
0.2449298447 0.2449298447 0.1224649224
0.3061623059 0.3061623059 0.0612324612
-0.1836973836 -0.3061623059 0.6735570730
-0.1224649224 -0.2449298447 0.6123246119
-0.0612324612 -0.1836973836 0.5510921507
0.0000000000 -0.1224649224 0.4898596895
0.0612324612 -0.0612324612 0.4286272283
0.1224649224 0.0000000000 0.3673947671
0.1836973836 0.0612324612 0.3061623059
0.2449298447 0.1224649224 0.2449298447
0.3061623059 0.1836973836 0.1836973836
0.3673947671 0.2449298447 0.1224649224
-0.1224649224 -0.3673947671 0.7347895342
-0.0612324612 -0.3061623059 0.6735570730
0.0000000000 -0.2449298447 0.6123246119
0.0612324612 -0.1836973836 0.5510921507
0.1224649224 -0.1224649224 0.4898596895
0.1836973836 -0.0612324612 0.4286272283
0.2449298447 0.0000000000 0.3673947671
0.3061623059 0.0612324612 0.3061623059
0.3673947671 0.1224649224 0.2449298447
0.4286272283 0.1836973836 0.1836973836
-0.7347895342 0.2449298447 0.2449298447
-0.6735570730 0.3061623059 0.1836973836
-0.6123246119 0.3673947671 0.1224649224
-0.5510921507 0.4286272283 0.0612324612
-0.4898596895 0.4898596895 -0.0000000000
-0.4286272283 0.5510921507 -0.0612324612
-0.3673947671 0.6123246119 -0.1224649224
-0.3061623059 0.6735570730 -0.1836973836
-0.2449298447 0.7347895342 -0.2449298447
-0.1836973836 0.7960219954 -0.3061623059
-0.6735570730 0.1836973836 0.3061623059
-0.6123246119 0.2449298447 0.2449298447
-0.5510921507 0.3061623059 0.1836973836
-0.4898596895 0.3673947671 0.1224649224
-0.4286272283 0.4286272283 0.0612324612
-0.3673947671 0.4898596895 -0.0000000000
-0.3061623059 0.5510921507 -0.0612324612
-0.2449298447 0.6123246119 -0.1224649224
-0.1836973836 0.6735570730 -0.1836973836
-0.1224649224 0.7347895342 -0.2449298447
-0.6123246119 0.1224649224 0.3673947671
-0.5510921507 0.1836973836 0.3061623059
-0.4898596895 0.2449298447 0.2449298447
-0.4286272283 0.3061623059 0.1836973836
-0.3673947671 0.3673947671 0.1224649224
-0.3061623059 0.4286272283 0.0612324612
-0.2449298447 0.4898596895 -0.0000000000
-0.1836973836 0.5510921507 -0.0612324612
-0.1224649224 0.6123246119 -0.1224649224
-0.0612324612 0.6735570730 -0.1836973836
-0.5510921507 0.0612324612 0.4286272283
-0.4898596895 0.1224649224 0.3673947671
-0.4286272283 0.1836973836 0.3061623059
-0.3673947671 0.2449298447 0.2449298447
-0.3061623059 0.3061623059 0.1836973836
-0.2449298447 0.3673947671 0.1224649224
-0.1836973836 0.4286272283 0.0612324612
-0.1224649224 0.4898596895 -0.0000000000
-0.0612324612 0.5510921507 -0.0612324612
0.0000000000 0.6123246119 -0.1224649224
-0.4898596895 -0.0000000000 0.4898596895
-0.4286272283 0.0612324612 0.4286272283
-0.3673947671 0.1224649224 0.3673947671
-0.3061623059 0.1836973836 0.3061623059
-0.2449298447 0.2449298447 0.2449298447
-0.1836973836 0.3061623059 0.1836973836
-0.1224649224 0.3673947671 0.1224649224
-0.0612324612 0.4286272283 0.0612324612
0.0000000000 0.4898596895 0.0000000000
0.0612324612 0.5510921507 -0.0612324612
-0.4286272283 -0.0612324612 0.5510921507
-0.3673947671 0.0000000000 0.4898596895
-0.3061623059 0.0612324612 0.4286272283
-0.2449298447 0.1224649224 0.3673947671
-0.1836973836 0.1836973836 0.3061623059
-0.1224649224 0.2449298447 0.2449298447
-0.0612324612 0.3061623059 0.1836973836
0.0000000000 0.3673947671 0.1224649224
0.0612324612 0.4286272283 0.0612324612
0.1224649224 0.4898596895 0.0000000000
-0.3673947671 -0.1224649224 0.6123246119
-0.3061623059 -0.0612324612 0.5510921507
-0.2449298447 0.0000000000 0.4898596895
-0.1836973836 0.0612324612 0.4286272283
-0.1224649224 0.1224649224 0.3673947671
-0.0612324612 0.1836973836 0.3061623059
0.0000000000 0.2449298447 0.2449298447
0.0612324612 0.3061623059 0.1836973836
0.1224649224 0.3673947671 0.1224649224
0.1836973836 0.4286272283 0.0612324612
-0.3061623059 -0.1836973836 0.6735570730
-0.2449298447 -0.1224649224 0.6123246119
-0.1836973836 -0.0612324612 0.5510921507
-0.1224649224 0.0000000000 0.4898596895
-0.0612324612 0.0612324612 0.4286272283
0.0000000000 0.1224649224 0.3673947671
0.0612324612 0.1836973836 0.3061623059
0.1224649224 0.2449298447 0.2449298447
0.1836973836 0.3061623059 0.1836973836
0.2449298447 0.3673947671 0.1224649224
-0.2449298447 -0.2449298447 0.7347895342
-0.1836973836 -0.1836973836 0.6735570730
-0.1224649224 -0.1224649224 0.6123246119
-0.0612324612 -0.0612324612 0.5510921507
0.0000000000 0.0000000000 0.4898596895
0.0612324612 0.0612324612 0.4286272283
0.1224649224 0.1224649224 0.3673947671
0.1836973836 0.1836973836 0.3061623059
0.2449298447 0.2449298447 0.2449298447
0.3061623059 0.3061623059 0.1836973836
-0.1836973836 -0.3061623059 0.7960219954
-0.1224649224 -0.2449298447 0.7347895342
-0.0612324612 -0.1836973836 0.6735570730
0.0000000000 -0.1224649224 0.6123246119
0.0612324612 -0.0612324612 0.5510921507
0.1224649224 0.0000000000 0.4898596895
0.1836973836 0.0612324612 0.4286272283
0.2449298447 0.1224649224 0.3673947671
0.3061623059 0.1836973836 0.3061623059
0.3673947671 0.2449298447 0.2449298447
-0.7960219954 0.3061623059 0.3061623059
-0.7347895342 0.3673947671 0.2449298447
-0.6735570730 0.4286272283 0.1836973836
-0.6123246119 0.4898596895 0.1224649224
-0.5510921507 0.5510921507 0.0612324612
-0.4898596895 0.6123246119 -0.0000000000
-0.4286272283 0.6735570730 -0.0612324612
-0.3673947671 0.7347895342 -0.1224649224
-0.3061623059 0.7960219954 -0.1836973836
-0.2449298447 0.8572544566 -0.2449298447
-0.7347895342 0.2449298447 0.3673947671
-0.6735570730 0.3061623059 0.3061623059
-0.6123246119 0.3673947671 0.2449298447
-0.5510921507 0.4286272283 0.1836973836
-0.4898596895 0.4898596895 0.1224649224
-0.4286272283 0.5510921507 0.0612324612
-0.3673947671 0.6123246119 -0.0000000000
-0.3061623059 0.6735570730 -0.0612324612
-0.2449298447 0.7347895342 -0.1224649224
-0.1836973836 0.7960219954 -0.1836973836
-0.6735570730 0.1836973836 0.4286272283
-0.6123246119 0.2449298447 0.3673947671
-0.5510921507 0.3061623059 0.3061623059
-0.4898596895 0.3673947671 0.2449298447
-0.4286272283 0.4286272283 0.1836973836
-0.3673947671 0.4898596895 0.1224649224
-0.3061623059 0.5510921507 0.0612324612
-0.2449298447 0.6123246119 0.0000000000
-0.1836973836 0.6735570730 -0.0612324612
-0.1224649224 0.7347895342 -0.1224649224
-0.6123246119 0.1224649224 0.4898596895
-0.5510921507 0.1836973836 0.4286272283
-0.4898596895 0.2449298447 0.3673947671
-0.4286272283 0.3061623059 0.3061623059
-0.3673947671 0.3673947671 0.2449298447
-0.3061623059 0.4286272283 0.1836973836
-0.2449298447 0.4898596895 0.1224649224
-0.1836973836 0.5510921507 0.0612324612
-0.1224649224 0.6123246119 0.0000000000
-0.0612324612 0.6735570730 -0.0612324612
-0.5510921507 0.0612324612 0.5510921507
-0.4898596895 0.1224649224 0.4898596895
-0.4286272283 0.1836973836 0.4286272283
-0.3673947671 0.2449298447 0.3673947671
-0.3061623059 0.3061623059 0.3061623059
-0.2449298447 0.3673947671 0.2449298447
-0.1836973836 0.4286272283 0.1836973836
-0.1224649224 0.4898596895 0.1224649224
-0.0612324612 0.5510921507 0.0612324612
0.0000000000 0.6123246119 0.0000000000
-0.4898596895 0.0000000000 0.6123246119
-0.4286272283 0.0612324612 0.5510921507
-0.3673947671 0.1224649224 0.4898596895
-0.3061623059 0.1836973836 0.4286272283
-0.2449298447 0.2449298447 0.3673947671
-0.1836973836 0.3061623059 0.3061623059
-0.1224649224 0.3673947671 0.2449298447
-0.0612324612 0.4286272283 0.1836973836
0.0000000000 0.4898596895 0.1224649224
0.0612324612 0.5510921507 0.0612324612
-0.4286272283 -0.0612324612 0.6735570730
-0.3673947671 0.0000000000 0.6123246119
-0.3061623059 0.0612324612 0.5510921507
-0.2449298447 0.1224649224 0.4898596895
-0.1836973836 0.1836973836 0.4286272283
-0.1224649224 0.2449298447 0.3673947671
-0.0612324612 0.3061623059 0.3061623059
0.0000000000 0.3673947671 0.2449298447
0.0612324612 0.4286272283 0.1836973836
0.1224649224 0.4898596895 0.1224649224
-0.3673947671 -0.1224649224 0.7347895342
-0.3061623059 -0.0612324612 0.6735570730
-0.2449298447 0.0000000000 0.6123246119
-0.1836973836 0.0612324612 0.5510921507
-0.1224649224 0.1224649224 0.4898596895
-0.0612324612 0.1836973836 0.4286272283
0.0000000000 0.2449298447 0.3673947671
0.0612324612 0.3061623059 0.3061623059
0.1224649224 0.3673947671 0.2449298447
0.1836973836 0.4286272283 0.1836973836
-0.3061623059 -0.1836973836 0.7960219954
-0.2449298447 -0.1224649224 0.7347895342
-0.1836973836 -0.0612324612 0.6735570730
-0.1224649224 0.0000000000 0.6123246119
-0.0612324612 0.0612324612 0.5510921507
0.0000000000 0.1224649224 0.4898596895
0.0612324612 0.1836973836 0.4286272283
0.1224649224 0.2449298447 0.3673947671
0.1836973836 0.3061623059 0.3061623059
0.2449298447 0.3673947671 0.2449298447
-0.2449298447 -0.2449298447 0.8572544566
-0.1836973836 -0.1836973836 0.7960219954
-0.1224649224 -0.1224649224 0.7347895342
-0.0612324612 -0.0612324612 0.6735570730
0.0000000000 0.0000000000 0.6123246119
0.0612324612 0.0612324612 0.5510921507
0.1224649224 0.1224649224 0.4898596895
0.1836973836 0.1836973836 0.4286272283
0.2449298447 0.2449298447 0.3673947671
0.3061623059 0.3061623059 0.3061623059
 There are 14 alpha and 14 beta electrons
 Start computing overlap matrix
 Allocate 222784000 B from available memory: 1048575734752 B
 Time for computing overlap matrix: 3.6430000000 s
 ====== Initialize compute kernels for all-electron RI-J (kpts) ====== 
 ========================================================== 
 Range-separated parameter omega        = 0.299999999999999989
 Threshold for 1e2c shellpair           = 0.000000000000010000
 Threshold for 2e2c SR integral         = 0.000000000000000001
 Threshold for 2e3c SR integral         = 0.000000000100000000
 Threshold for AFT G-space screening is = 0.000000000001000000
 The exponent cutoff for C/D classification (omega2 / 2) is  = 0.044999999999999998
 ========================================================== 
 === Post process the basis set for RI calculation (exp_cutoff = 0.044999999999999998 ) === 
nshells_b1 before uncontraction = 28
nshells_b1 after uncontraction = 28
nshells_baux before uncontraction = 80
nshells_baux after uncontraction = 80
===============================================
nbsf total   = 118
nbsf compact = 118
nbsf diffuse = 0
naux total   = 296
naux compact = 296
naux diffuse = 0
nshells_bnuc = 2

 Number of unique atoms is 1
 Unique atom #0 (si) has 14 shells.

Shell 0 to 13 belongs to atom si
Shell 14 to 27 belongs to atom si

 Number of unique atom is 1
 Unique atom #0 (si) has 40 auxiliary shells.

Auxiliary Shell 0 to 39 belongs to atom si
Auxiliary Shell 40 to 79 belongs to atom si

================= Automatically determine grid size for reciprocal space summation =================
 Range-separated parameter = 0.30000000000000 and G-space screening threshold = 0.00000000000100
The number of grid points along each axis dimension is (4, 4, 4)
Total number of grid points = 729

Use nonortho shellpair for diffuse density
======== Initializing relevant kernel for RIJ (CC type) ========
There are 406 shellpairs in the reference unit cell
There are 3757 images and we expect to have 1525342 in total
There are 35954 shellpairs in the lattice sum after screening
****** AFT -> SR ******
Maximum bra distance cutoff is 30.000000000000
Maximum bra ket distance cutoff is 37.583407605466
Maximum bra ket screening distance is 30.187500000000
Number of auxiliary image is 1657
There are 406 shellpairs in the reference unit cell
There are 1031 images and we expect to have 418586 in total
There are 35954 shellpairs in the lattice sum after screening
Available memory per thread for 2e3c calculation is 32.761029711000Gb
Finish initializing 2e3c SR with the lattice sum!
=================================================
======== Initialize the SR component for Vnuc (CC type) ========
Maximum bra distance cutoff is 30.000000000000
Maximum bra ket distance cutoff is 31.203423477913
Maximum bra ket screening distance is 23.767099300136
Number of auxiliary image is 1097
There are 406 shellpairs in the reference unit cell
There are 1031 images and we expect to have 418586 in total
There are 35954 shellpairs in the lattice sum after screening
Available memory per thread for 2e3c calculation is 32.761029711000Gb
Finish initializing 2e3c SR with the lattice sum!
=================================================
 Aufbau occupation scheme, occupation determined by eigenvalue
 == 0-th k-point nmo = 114 (-0.24493,-0.24493,-0.24493) ==
 == 1-th k-point nmo = 114 (-0.18370,-0.18370,-0.30616) ==
 == 2-th k-point nmo = 114 (-0.12246,-0.12246,-0.36739) ==
 == 3-th k-point nmo = 114 (-0.06123,-0.06123,-0.42863) ==
 == 4-th k-point nmo = 114 (-0.00000,-0.00000,-0.48986) ==
 == 5-th k-point nmo = 114 (0.06123,0.06123,-0.55109) ==
 == 6-th k-point nmo = 114 (0.12246,0.12246,-0.61232) ==
 == 7-th k-point nmo = 114 (0.18370,0.18370,-0.67356) ==
 == 8-th k-point nmo = 114 (0.24493,0.24493,-0.73479) ==
 == 9-th k-point nmo = 114 (0.30616,0.30616,-0.79602) ==
 == 10-th k-point nmo = 114 (-0.18370,-0.30616,-0.18370) ==
 == 11-th k-point nmo = 114 (-0.12246,-0.24493,-0.24493) ==
 == 12-th k-point nmo = 114 (-0.06123,-0.18370,-0.30616) ==
 == 13-th k-point nmo = 114 (-0.00000,-0.12246,-0.36739) ==
 == 14-th k-point nmo = 114 (0.06123,-0.06123,-0.42863) ==
 == 15-th k-point nmo = 114 (0.12246,-0.00000,-0.48986) ==
 == 16-th k-point nmo = 114 (0.18370,0.06123,-0.55109) ==
 == 17-th k-point nmo = 114 (0.24493,0.12246,-0.61232) ==
 == 18-th k-point nmo = 114 (0.30616,0.18370,-0.67356) ==
 == 19-th k-point nmo = 114 (0.36739,0.24493,-0.73479) ==
 == 20-th k-point nmo = 114 (-0.12246,-0.36739,-0.12246) ==
 == 21-th k-point nmo = 114 (-0.06123,-0.30616,-0.18370) ==
 == 22-th k-point nmo = 114 (-0.00000,-0.24493,-0.24493) ==
 == 23-th k-point nmo = 114 (0.06123,-0.18370,-0.30616) ==
 == 24-th k-point nmo = 114 (0.12246,-0.12246,-0.36739) ==
 == 25-th k-point nmo = 114 (0.18370,-0.06123,-0.42863) ==
 == 26-th k-point nmo = 114 (0.24493,-0.00000,-0.48986) ==
 == 27-th k-point nmo = 114 (0.30616,0.06123,-0.55109) ==
 == 28-th k-point nmo = 114 (0.36739,0.12246,-0.61232) ==
 == 29-th k-point nmo = 114 (0.42863,0.18370,-0.67356) ==
 == 30-th k-point nmo = 114 (-0.06123,-0.42863,-0.06123) ==
 == 31-th k-point nmo = 114 (-0.00000,-0.36739,-0.12246) ==
 == 32-th k-point nmo = 114 (0.06123,-0.30616,-0.18370) ==
 == 33-th k-point nmo = 114 (0.12246,-0.24493,-0.24493) ==
 == 34-th k-point nmo = 114 (0.18370,-0.18370,-0.30616) ==
 == 35-th k-point nmo = 114 (0.24493,-0.12246,-0.36739) ==
 == 36-th k-point nmo = 114 (0.30616,-0.06123,-0.42863) ==
 == 37-th k-point nmo = 114 (0.36739,-0.00000,-0.48986) ==
 == 38-th k-point nmo = 114 (0.42863,0.06123,-0.55109) ==
 == 39-th k-point nmo = 114 (0.48986,0.12246,-0.61232) ==
 == 40-th k-point nmo = 114 (-0.00000,-0.48986,0.00000) ==
 == 41-th k-point nmo = 114 (0.06123,-0.42863,-0.06123) ==
 == 42-th k-point nmo = 114 (0.12246,-0.36739,-0.12246) ==
 == 43-th k-point nmo = 114 (0.18370,-0.30616,-0.18370) ==
 == 44-th k-point nmo = 114 (0.24493,-0.24493,-0.24493) ==
 == 45-th k-point nmo = 114 (0.30616,-0.18370,-0.30616) ==
 == 46-th k-point nmo = 114 (0.36739,-0.12246,-0.36739) ==
 == 47-th k-point nmo = 114 (0.42863,-0.06123,-0.42863) ==
 == 48-th k-point nmo = 114 (0.48986,-0.00000,-0.48986) ==
 == 49-th k-point nmo = 114 (0.55109,0.06123,-0.55109) ==
 == 50-th k-point nmo = 114 (0.06123,-0.55109,0.06123) ==
 == 51-th k-point nmo = 114 (0.12246,-0.48986,-0.00000) ==
 == 52-th k-point nmo = 114 (0.18370,-0.42863,-0.06123) ==
 == 53-th k-point nmo = 114 (0.24493,-0.36739,-0.12246) ==
 == 54-th k-point nmo = 114 (0.30616,-0.30616,-0.18370) ==
 == 55-th k-point nmo = 114 (0.36739,-0.24493,-0.24493) ==
 == 56-th k-point nmo = 114 (0.42863,-0.18370,-0.30616) ==
 == 57-th k-point nmo = 114 (0.48986,-0.12246,-0.36739) ==
 == 58-th k-point nmo = 114 (0.55109,-0.06123,-0.42863) ==
 == 59-th k-point nmo = 114 (0.61232,0.00000,-0.48986) ==
 == 60-th k-point nmo = 114 (0.12246,-0.61232,0.12246) ==
 == 61-th k-point nmo = 114 (0.18370,-0.55109,0.06123) ==
 == 62-th k-point nmo = 114 (0.24493,-0.48986,0.00000) ==
 == 63-th k-point nmo = 114 (0.30616,-0.42863,-0.06123) ==
 == 64-th k-point nmo = 114 (0.36739,-0.36739,-0.12246) ==
 == 65-th k-point nmo = 114 (0.42863,-0.30616,-0.18370) ==
 == 66-th k-point nmo = 114 (0.48986,-0.24493,-0.24493) ==
 == 67-th k-point nmo = 114 (0.55109,-0.18370,-0.30616) ==
 == 68-th k-point nmo = 114 (0.61232,-0.12246,-0.36739) ==
 == 69-th k-point nmo = 114 (0.67356,-0.06123,-0.42863) ==
 == 70-th k-point nmo = 114 (0.18370,-0.67356,0.18370) ==
 == 71-th k-point nmo = 114 (0.24493,-0.61232,0.12246) ==
 == 72-th k-point nmo = 114 (0.30616,-0.55109,0.06123) ==
 == 73-th k-point nmo = 114 (0.36739,-0.48986,-0.00000) ==
 == 74-th k-point nmo = 114 (0.42863,-0.42863,-0.06123) ==
 == 75-th k-point nmo = 114 (0.48986,-0.36739,-0.12246) ==
 == 76-th k-point nmo = 114 (0.55109,-0.30616,-0.18370) ==
 == 77-th k-point nmo = 114 (0.61232,-0.24493,-0.24493) ==
 == 78-th k-point nmo = 114 (0.67356,-0.18370,-0.30616) ==
 == 79-th k-point nmo = 114 (0.73479,-0.12246,-0.36739) ==
 == 80-th k-point nmo = 114 (0.24493,-0.73479,0.24493) ==
 == 81-th k-point nmo = 114 (0.30616,-0.67356,0.18370) ==
 == 82-th k-point nmo = 114 (0.36739,-0.61232,0.12246) ==
 == 83-th k-point nmo = 114 (0.42863,-0.55109,0.06123) ==
 == 84-th k-point nmo = 114 (0.48986,-0.48986,0.00000) ==
 == 85-th k-point nmo = 114 (0.55109,-0.42863,-0.06123) ==
 == 86-th k-point nmo = 114 (0.61232,-0.36739,-0.12246) ==
 == 87-th k-point nmo = 114 (0.67356,-0.30616,-0.18370) ==
 == 88-th k-point nmo = 114 (0.73479,-0.24493,-0.24493) ==
 == 89-th k-point nmo = 114 (0.79602,-0.18370,-0.30616) ==
 == 90-th k-point nmo = 114 (0.30616,-0.79602,0.30616) ==
 == 91-th k-point nmo = 114 (0.36739,-0.73479,0.24493) ==
 == 92-th k-point nmo = 114 (0.42863,-0.67356,0.18370) ==
 == 93-th k-point nmo = 114 (0.48986,-0.61232,0.12246) ==
 == 94-th k-point nmo = 114 (0.55109,-0.55109,0.06123) ==
 == 95-th k-point nmo = 114 (0.61232,-0.48986,0.00000) ==
 == 96-th k-point nmo = 114 (0.67356,-0.42863,-0.06123) ==
 == 97-th k-point nmo = 114 (0.73479,-0.36739,-0.12246) ==
 == 98-th k-point nmo = 114 (0.79602,-0.30616,-0.18370) ==
 == 99-th k-point nmo = 114 (0.85725,-0.24493,-0.24493) ==
 == 100-th k-point nmo = 114 (-0.30616,-0.18370,-0.18370) ==
 == 101-th k-point nmo = 114 (-0.24493,-0.12246,-0.24493) ==
 == 102-th k-point nmo = 114 (-0.18370,-0.06123,-0.30616) ==
 == 103-th k-point nmo = 114 (-0.12246,-0.00000,-0.36739) ==
 == 104-th k-point nmo = 114 (-0.06123,0.06123,-0.42863) ==
 == 105-th k-point nmo = 114 (-0.00000,0.12246,-0.48986) ==
 == 106-th k-point nmo = 114 (0.06123,0.18370,-0.55109) ==
 == 107-th k-point nmo = 114 (0.12246,0.24493,-0.61232) ==
 == 108-th k-point nmo = 114 (0.18370,0.30616,-0.67356) ==
 == 109-th k-point nmo = 114 (0.24493,0.36739,-0.73479) ==
 == 110-th k-point nmo = 114 (-0.24493,-0.24493,-0.12246) ==
 == 111-th k-point nmo = 114 (-0.18370,-0.18370,-0.18370) ==
 == 112-th k-point nmo = 114 (-0.12246,-0.12246,-0.24493) ==
 == 113-th k-point nmo = 114 (-0.06123,-0.06123,-0.30616) ==
 == 114-th k-point nmo = 114 (-0.00000,-0.00000,-0.36739) ==
 == 115-th k-point nmo = 114 (0.06123,0.06123,-0.42863) ==
 == 116-th k-point nmo = 114 (0.12246,0.12246,-0.48986) ==
 == 117-th k-point nmo = 114 (0.18370,0.18370,-0.55109) ==
 == 118-th k-point nmo = 114 (0.24493,0.24493,-0.61232) ==
 == 119-th k-point nmo = 114 (0.30616,0.30616,-0.67356) ==
 == 120-th k-point nmo = 114 (-0.18370,-0.30616,-0.06123) ==
 == 121-th k-point nmo = 114 (-0.12246,-0.24493,-0.12246) ==
 == 122-th k-point nmo = 115 (-0.06123,-0.18370,-0.18370) ==
 == 123-th k-point nmo = 114 (-0.00000,-0.12246,-0.24493) ==
 == 124-th k-point nmo = 114 (0.06123,-0.06123,-0.30616) ==
 == 125-th k-point nmo = 114 (0.12246,-0.00000,-0.36739) ==
 == 126-th k-point nmo = 114 (0.18370,0.06123,-0.42863) ==
 == 127-th k-point nmo = 114 (0.24493,0.12246,-0.48986) ==
 == 128-th k-point nmo = 114 (0.30616,0.18370,-0.55109) ==
 == 129-th k-point nmo = 114 (0.36739,0.24493,-0.61232) ==
 == 130-th k-point nmo = 114 (-0.12246,-0.36739,0.00000) ==
 == 131-th k-point nmo = 114 (-0.06123,-0.30616,-0.06123) ==
 == 132-th k-point nmo = 114 (-0.00000,-0.24493,-0.12246) ==
 == 133-th k-point nmo = 115 (0.06123,-0.18370,-0.18370) ==
 == 134-th k-point nmo = 114 (0.12246,-0.12246,-0.24493) ==
 == 135-th k-point nmo = 114 (0.18370,-0.06123,-0.30616) ==
 == 136-th k-point nmo = 114 (0.24493,-0.00000,-0.36739) ==
 == 137-th k-point nmo = 114 (0.30616,0.06123,-0.42863) ==
 == 138-th k-point nmo = 114 (0.36739,0.12246,-0.48986) ==
 == 139-th k-point nmo = 114 (0.42863,0.18370,-0.55109) ==
 == 140-th k-point nmo = 114 (-0.06123,-0.42863,0.06123) ==
 == 141-th k-point nmo = 114 (-0.00000,-0.36739,0.00000) ==
 == 142-th k-point nmo = 114 (0.06123,-0.30616,-0.06123) ==
 == 143-th k-point nmo = 114 (0.12246,-0.24493,-0.12246) ==
 == 144-th k-point nmo = 114 (0.18370,-0.18370,-0.18370) ==
 == 145-th k-point nmo = 114 (0.24493,-0.12246,-0.24493) ==
 == 146-th k-point nmo = 114 (0.30616,-0.06123,-0.30616) ==
 == 147-th k-point nmo = 114 (0.36739,0.00000,-0.36739) ==
 == 148-th k-point nmo = 114 (0.42863,0.06123,-0.42863) ==
 == 149-th k-point nmo = 114 (0.48986,0.12246,-0.48986) ==
 == 150-th k-point nmo = 114 (-0.00000,-0.48986,0.12246) ==
 == 151-th k-point nmo = 114 (0.06123,-0.42863,0.06123) ==
 == 152-th k-point nmo = 114 (0.12246,-0.36739,0.00000) ==
 == 153-th k-point nmo = 114 (0.18370,-0.30616,-0.06123) ==
 == 154-th k-point nmo = 114 (0.24493,-0.24493,-0.12246) ==
 == 155-th k-point nmo = 114 (0.30616,-0.18370,-0.18370) ==
 == 156-th k-point nmo = 114 (0.36739,-0.12246,-0.24493) ==
 == 157-th k-point nmo = 114 (0.42863,-0.06123,-0.30616) ==
 == 158-th k-point nmo = 114 (0.48986,0.00000,-0.36739) ==
 == 159-th k-point nmo = 114 (0.55109,0.06123,-0.42863) ==
 == 160-th k-point nmo = 114 (0.06123,-0.55109,0.18370) ==
 == 161-th k-point nmo = 114 (0.12246,-0.48986,0.12246) ==
 == 162-th k-point nmo = 114 (0.18370,-0.42863,0.06123) ==
 == 163-th k-point nmo = 114 (0.24493,-0.36739,0.00000) ==
 == 164-th k-point nmo = 114 (0.30616,-0.30616,-0.06123) ==
 == 165-th k-point nmo = 114 (0.36739,-0.24493,-0.12246) ==
 == 166-th k-point nmo = 114 (0.42863,-0.18370,-0.18370) ==
 == 167-th k-point nmo = 114 (0.48986,-0.12246,-0.24493) ==
 == 168-th k-point nmo = 114 (0.55109,-0.06123,-0.30616) ==
 == 169-th k-point nmo = 114 (0.61232,0.00000,-0.36739) ==
 == 170-th k-point nmo = 114 (0.12246,-0.61232,0.24493) ==
 == 171-th k-point nmo = 114 (0.18370,-0.55109,0.18370) ==
 == 172-th k-point nmo = 114 (0.24493,-0.48986,0.12246) ==
 == 173-th k-point nmo = 114 (0.30616,-0.42863,0.06123) ==
 == 174-th k-point nmo = 114 (0.36739,-0.36739,0.00000) ==
 == 175-th k-point nmo = 114 (0.42863,-0.30616,-0.06123) ==
 == 176-th k-point nmo = 114 (0.48986,-0.24493,-0.12246) ==
 == 177-th k-point nmo = 114 (0.55109,-0.18370,-0.18370) ==
 == 178-th k-point nmo = 114 (0.61232,-0.12246,-0.24493) ==
 == 179-th k-point nmo = 114 (0.67356,-0.06123,-0.30616) ==
 == 180-th k-point nmo = 114 (0.18370,-0.67356,0.30616) ==
 == 181-th k-point nmo = 114 (0.24493,-0.61232,0.24493) ==
 == 182-th k-point nmo = 114 (0.30616,-0.55109,0.18370) ==
 == 183-th k-point nmo = 114 (0.36739,-0.48986,0.12246) ==
 == 184-th k-point nmo = 114 (0.42863,-0.42863,0.06123) ==
 == 185-th k-point nmo = 114 (0.48986,-0.36739,0.00000) ==
 == 186-th k-point nmo = 114 (0.55109,-0.30616,-0.06123) ==
 == 187-th k-point nmo = 114 (0.61232,-0.24493,-0.12246) ==
 == 188-th k-point nmo = 114 (0.67356,-0.18370,-0.18370) ==
 == 189-th k-point nmo = 114 (0.73479,-0.12246,-0.24493) ==
 == 190-th k-point nmo = 114 (0.24493,-0.73479,0.36739) ==
 == 191-th k-point nmo = 114 (0.30616,-0.67356,0.30616) ==
 == 192-th k-point nmo = 114 (0.36739,-0.61232,0.24493) ==
 == 193-th k-point nmo = 114 (0.42863,-0.55109,0.18370) ==
 == 194-th k-point nmo = 114 (0.48986,-0.48986,0.12246) ==
 == 195-th k-point nmo = 114 (0.55109,-0.42863,0.06123) ==
 == 196-th k-point nmo = 114 (0.61232,-0.36739,0.00000) ==
 == 197-th k-point nmo = 114 (0.67356,-0.30616,-0.06123) ==
 == 198-th k-point nmo = 114 (0.73479,-0.24493,-0.12246) ==
 == 199-th k-point nmo = 114 (0.79602,-0.18370,-0.18370) ==
 == 200-th k-point nmo = 114 (-0.36739,-0.12246,-0.12246) ==
 == 201-th k-point nmo = 114 (-0.30616,-0.06123,-0.18370) ==
 == 202-th k-point nmo = 114 (-0.24493,-0.00000,-0.24493) ==
 == 203-th k-point nmo = 114 (-0.18370,0.06123,-0.30616) ==
 == 204-th k-point nmo = 114 (-0.12246,0.12246,-0.36739) ==
 == 205-th k-point nmo = 114 (-0.06123,0.18370,-0.42863) ==
 == 206-th k-point nmo = 114 (-0.00000,0.24493,-0.48986) ==
 == 207-th k-point nmo = 114 (0.06123,0.30616,-0.55109) ==
 == 208-th k-point nmo = 114 (0.12246,0.36739,-0.61232) ==
 == 209-th k-point nmo = 114 (0.18370,0.42863,-0.67356) ==
 == 210-th k-point nmo = 114 (-0.30616,-0.18370,-0.06123) ==
 == 211-th k-point nmo = 114 (-0.24493,-0.12246,-0.12246) ==
 == 212-th k-point nmo = 115 (-0.18370,-0.06123,-0.18370) ==
 == 213-th k-point nmo = 114 (-0.12246,-0.00000,-0.24493) ==
 == 214-th k-point nmo = 114 (-0.06123,0.06123,-0.30616) ==
 == 215-th k-point nmo = 114 (-0.00000,0.12246,-0.36739) ==
 == 216-th k-point nmo = 114 (0.06123,0.18370,-0.42863) ==
 == 217-th k-point nmo = 114 (0.12246,0.24493,-0.48986) ==
 == 218-th k-point nmo = 114 (0.18370,0.30616,-0.55109) ==
 == 219-th k-point nmo = 114 (0.24493,0.36739,-0.61232) ==
 == 220-th k-point nmo = 114 (-0.24493,-0.24493,0.00000) ==
 == 221-th k-point nmo = 115 (-0.18370,-0.18370,-0.06123) ==
 == 222-th k-point nmo = 115 (-0.12246,-0.12246,-0.12246) ==
 == 223-th k-point nmo = 114 (-0.06123,-0.06123,-0.18370) ==
 == 224-th k-point nmo = 114 (-0.00000,-0.00000,-0.24493) ==
 == 225-th k-point nmo = 114 (0.06123,0.06123,-0.30616) ==
 == 226-th k-point nmo = 114 (0.12246,0.12246,-0.36739) ==
 == 227-th k-point nmo = 114 (0.18370,0.18370,-0.42863) ==
 == 228-th k-point nmo = 114 (0.24493,0.24493,-0.48986) ==
 == 229-th k-point nmo = 114 (0.30616,0.30616,-0.55109) ==
 == 230-th k-point nmo = 114 (-0.18370,-0.30616,0.06123) ==
 == 231-th k-point nmo = 114 (-0.12246,-0.24493,-0.00000) ==
 == 232-th k-point nmo = 114 (-0.06123,-0.18370,-0.06123) ==
 == 233-th k-point nmo = 115 (-0.00000,-0.12246,-0.12246) ==
 == 234-th k-point nmo = 114 (0.06123,-0.06123,-0.18370) ==
 == 235-th k-point nmo = 114 (0.12246,-0.00000,-0.24493) ==
 == 236-th k-point nmo = 114 (0.18370,0.06123,-0.30616) ==
 == 237-th k-point nmo = 114 (0.24493,0.12246,-0.36739) ==
 == 238-th k-point nmo = 114 (0.30616,0.18370,-0.42863) ==
 == 239-th k-point nmo = 114 (0.36739,0.24493,-0.48986) ==
 == 240-th k-point nmo = 114 (-0.12246,-0.36739,0.12246) ==
 == 241-th k-point nmo = 114 (-0.06123,-0.30616,0.06123) ==
 == 242-th k-point nmo = 114 (-0.00000,-0.24493,0.00000) ==
 == 243-th k-point nmo = 114 (0.06123,-0.18370,-0.06123) ==
 == 244-th k-point nmo = 115 (0.12246,-0.12246,-0.12246) ==
 == 245-th k-point nmo = 115 (0.18370,-0.06123,-0.18370) ==
 == 246-th k-point nmo = 114 (0.24493,0.00000,-0.24493) ==
 == 247-th k-point nmo = 114 (0.30616,0.06123,-0.30616) ==
 == 248-th k-point nmo = 114 (0.36739,0.12246,-0.36739) ==
 == 249-th k-point nmo = 114 (0.42863,0.18370,-0.42863) ==
 == 250-th k-point nmo = 114 (-0.06123,-0.42863,0.18370) ==
 == 251-th k-point nmo = 114 (-0.00000,-0.36739,0.12246) ==
 == 252-th k-point nmo = 114 (0.06123,-0.30616,0.06123) ==
 == 253-th k-point nmo = 114 (0.12246,-0.24493,-0.00000) ==
 == 254-th k-point nmo = 115 (0.18370,-0.18370,-0.06123) ==
 == 255-th k-point nmo = 114 (0.24493,-0.12246,-0.12246) ==
 == 256-th k-point nmo = 114 (0.30616,-0.06123,-0.18370) ==
 == 257-th k-point nmo = 114 (0.36739,0.00000,-0.24493) ==
 == 258-th k-point nmo = 114 (0.42863,0.06123,-0.30616) ==
 == 259-th k-point nmo = 114 (0.48986,0.12246,-0.36739) ==
 == 260-th k-point nmo = 114 (-0.00000,-0.48986,0.24493) ==
 == 261-th k-point nmo = 114 (0.06123,-0.42863,0.18370) ==
 == 262-th k-point nmo = 114 (0.12246,-0.36739,0.12246) ==
 == 263-th k-point nmo = 114 (0.18370,-0.30616,0.06123) ==
 == 264-th k-point nmo = 114 (0.24493,-0.24493,0.00000) ==
 == 265-th k-point nmo = 114 (0.30616,-0.18370,-0.06123) ==
 == 266-th k-point nmo = 114 (0.36739,-0.12246,-0.12246) ==
 == 267-th k-point nmo = 114 (0.42863,-0.06123,-0.18370) ==
 == 268-th k-point nmo = 114 (0.48986,0.00000,-0.24493) ==
 == 269-th k-point nmo = 114 (0.55109,0.06123,-0.30616) ==
 == 270-th k-point nmo = 114 (0.06123,-0.55109,0.30616) ==
 == 271-th k-point nmo = 114 (0.12246,-0.48986,0.24493) ==
 == 272-th k-point nmo = 114 (0.18370,-0.42863,0.18370) ==
 == 273-th k-point nmo = 114 (0.24493,-0.36739,0.12246) ==
 == 274-th k-point nmo = 114 (0.30616,-0.30616,0.06123) ==
 == 275-th k-point nmo = 114 (0.36739,-0.24493,0.00000) ==
 == 276-th k-point nmo = 114 (0.42863,-0.18370,-0.06123) ==
 == 277-th k-point nmo = 114 (0.48986,-0.12246,-0.12246) ==
 == 278-th k-point nmo = 114 (0.55109,-0.06123,-0.18370) ==
 == 279-th k-point nmo = 114 (0.61232,0.00000,-0.24493) ==
 == 280-th k-point nmo = 114 (0.12246,-0.61232,0.36739) ==
 == 281-th k-point nmo = 114 (0.18370,-0.55109,0.30616) ==
 == 282-th k-point nmo = 114 (0.24493,-0.48986,0.24493) ==
 == 283-th k-point nmo = 114 (0.30616,-0.42863,0.18370) ==
 == 284-th k-point nmo = 114 (0.36739,-0.36739,0.12246) ==
 == 285-th k-point nmo = 114 (0.42863,-0.30616,0.06123) ==
 == 286-th k-point nmo = 114 (0.48986,-0.24493,0.00000) ==
 == 287-th k-point nmo = 114 (0.55109,-0.18370,-0.06123) ==
 == 288-th k-point nmo = 114 (0.61232,-0.12246,-0.12246) ==
 == 289-th k-point nmo = 114 (0.67356,-0.06123,-0.18370) ==
 == 290-th k-point nmo = 114 (0.18370,-0.67356,0.42863) ==
 == 291-th k-point nmo = 114 (0.24493,-0.61232,0.36739) ==
 == 292-th k-point nmo = 114 (0.30616,-0.55109,0.30616) ==
 == 293-th k-point nmo = 114 (0.36739,-0.48986,0.24493) ==
 == 294-th k-point nmo = 114 (0.42863,-0.42863,0.18370) ==
 == 295-th k-point nmo = 114 (0.48986,-0.36739,0.12246) ==
 == 296-th k-point nmo = 114 (0.55109,-0.30616,0.06123) ==
 == 297-th k-point nmo = 114 (0.61232,-0.24493,0.00000) ==
 == 298-th k-point nmo = 114 (0.67356,-0.18370,-0.06123) ==
 == 299-th k-point nmo = 114 (0.73479,-0.12246,-0.12246) ==
 == 300-th k-point nmo = 114 (-0.42863,-0.06123,-0.06123) ==
 == 301-th k-point nmo = 114 (-0.36739,-0.00000,-0.12246) ==
 == 302-th k-point nmo = 114 (-0.30616,0.06123,-0.18370) ==
 == 303-th k-point nmo = 114 (-0.24493,0.12246,-0.24493) ==
 == 304-th k-point nmo = 114 (-0.18370,0.18370,-0.30616) ==
 == 305-th k-point nmo = 114 (-0.12246,0.24493,-0.36739) ==
 == 306-th k-point nmo = 114 (-0.06123,0.30616,-0.42863) ==
 == 307-th k-point nmo = 114 (-0.00000,0.36739,-0.48986) ==
 == 308-th k-point nmo = 114 (0.06123,0.42863,-0.55109) ==
 == 309-th k-point nmo = 114 (0.12246,0.48986,-0.61232) ==
 == 310-th k-point nmo = 114 (-0.36739,-0.12246,0.00000) ==
 == 311-th k-point nmo = 114 (-0.30616,-0.06123,-0.06123) ==
 == 312-th k-point nmo = 114 (-0.24493,-0.00000,-0.12246) ==
 == 313-th k-point nmo = 115 (-0.18370,0.06123,-0.18370) ==
 == 314-th k-point nmo = 114 (-0.12246,0.12246,-0.24493) ==
 == 315-th k-point nmo = 114 (-0.06123,0.18370,-0.30616) ==
 == 316-th k-point nmo = 114 (0.00000,0.24493,-0.36739) ==
 == 317-th k-point nmo = 114 (0.06123,0.30616,-0.42863) ==
 == 318-th k-point nmo = 114 (0.12246,0.36739,-0.48986) ==
 == 319-th k-point nmo = 114 (0.18370,0.42863,-0.55109) ==
 == 320-th k-point nmo = 114 (-0.30616,-0.18370,0.06123) ==
 == 321-th k-point nmo = 114 (-0.24493,-0.12246,-0.00000) ==
 == 322-th k-point nmo = 114 (-0.18370,-0.06123,-0.06123) ==
 == 323-th k-point nmo = 115 (-0.12246,-0.00000,-0.12246) ==
 == 324-th k-point nmo = 114 (-0.06123,0.06123,-0.18370) ==
 == 325-th k-point nmo = 114 (-0.00000,0.12246,-0.24493) ==
 == 326-th k-point nmo = 114 (0.06123,0.18370,-0.30616) ==
 == 327-th k-point nmo = 114 (0.12246,0.24493,-0.36739) ==
 == 328-th k-point nmo = 114 (0.18370,0.30616,-0.42863) ==
 == 329-th k-point nmo = 114 (0.24493,0.36739,-0.48986) ==
 == 330-th k-point nmo = 114 (-0.24493,-0.24493,0.12246) ==
 == 331-th k-point nmo = 115 (-0.18370,-0.18370,0.06123) ==
 == 332-th k-point nmo = 115 (-0.12246,-0.12246,0.00000) ==
 == 333-th k-point nmo = 115 (-0.06123,-0.06123,-0.06123) ==
 == 334-th k-point nmo = 116 (-0.00000,-0.00000,-0.12246) ==
 == 335-th k-point nmo = 114 (0.06123,0.06123,-0.18370) ==
 == 336-th k-point nmo = 114 (0.12246,0.12246,-0.24493) ==
 == 337-th k-point nmo = 114 (0.18370,0.18370,-0.30616) ==
 == 338-th k-point nmo = 114 (0.24493,0.24493,-0.36739) ==
 == 339-th k-point nmo = 114 (0.30616,0.30616,-0.42863) ==
 == 340-th k-point nmo = 114 (-0.18370,-0.30616,0.18370) ==
 == 341-th k-point nmo = 114 (-0.12246,-0.24493,0.12246) ==
 == 342-th k-point nmo = 114 (-0.06123,-0.18370,0.06123) ==
 == 343-th k-point nmo = 116 (-0.00000,-0.12246,0.00000) ==
 == 344-th k-point nmo = 115 (0.06123,-0.06123,-0.06123) ==
 == 345-th k-point nmo = 115 (0.12246,0.00000,-0.12246) ==
 == 346-th k-point nmo = 115 (0.18370,0.06123,-0.18370) ==
 == 347-th k-point nmo = 114 (0.24493,0.12246,-0.24493) ==
 == 348-th k-point nmo = 114 (0.30616,0.18370,-0.30616) ==
 == 349-th k-point nmo = 114 (0.36739,0.24493,-0.36739) ==
 == 350-th k-point nmo = 114 (-0.12246,-0.36739,0.24493) ==
 == 351-th k-point nmo = 114 (-0.06123,-0.30616,0.18370) ==
 == 352-th k-point nmo = 114 (-0.00000,-0.24493,0.12246) ==
 == 353-th k-point nmo = 114 (0.06123,-0.18370,0.06123) ==
 == 354-th k-point nmo = 115 (0.12246,-0.12246,0.00000) ==
 == 355-th k-point nmo = 114 (0.18370,-0.06123,-0.06123) ==
 == 356-th k-point nmo = 114 (0.24493,0.00000,-0.12246) ==
 == 357-th k-point nmo = 114 (0.30616,0.06123,-0.18370) ==
 == 358-th k-point nmo = 114 (0.36739,0.12246,-0.24493) ==
 == 359-th k-point nmo = 114 (0.42863,0.18370,-0.30616) ==
 == 360-th k-point nmo = 114 (-0.06123,-0.42863,0.30616) ==
 == 361-th k-point nmo = 114 (-0.00000,-0.36739,0.24493) ==
 == 362-th k-point nmo = 114 (0.06123,-0.30616,0.18370) ==
 == 363-th k-point nmo = 114 (0.12246,-0.24493,0.12246) ==
 == 364-th k-point nmo = 115 (0.18370,-0.18370,0.06123) ==
 == 365-th k-point nmo = 114 (0.24493,-0.12246,0.00000) ==
 == 366-th k-point nmo = 114 (0.30616,-0.06123,-0.06123) ==
 == 367-th k-point nmo = 114 (0.36739,0.00000,-0.12246) ==
 == 368-th k-point nmo = 114 (0.42863,0.06123,-0.18370) ==
 == 369-th k-point nmo = 114 (0.48986,0.12246,-0.24493) ==
 == 370-th k-point nmo = 114 (-0.00000,-0.48986,0.36739) ==
 == 371-th k-point nmo = 114 (0.06123,-0.42863,0.30616) ==
 == 372-th k-point nmo = 114 (0.12246,-0.36739,0.24493) ==
 == 373-th k-point nmo = 114 (0.18370,-0.30616,0.18370) ==
 == 374-th k-point nmo = 114 (0.24493,-0.24493,0.12246) ==
 == 375-th k-point nmo = 114 (0.30616,-0.18370,0.06123) ==
 == 376-th k-point nmo = 114 (0.36739,-0.12246,0.00000) ==
 == 377-th k-point nmo = 114 (0.42863,-0.06123,-0.06123) ==
 == 378-th k-point nmo = 114 (0.48986,0.00000,-0.12246) ==
 == 379-th k-point nmo = 114 (0.55109,0.06123,-0.18370) ==
 == 380-th k-point nmo = 114 (0.06123,-0.55109,0.42863) ==
 == 381-th k-point nmo = 114 (0.12246,-0.48986,0.36739) ==
 == 382-th k-point nmo = 114 (0.18370,-0.42863,0.30616) ==
 == 383-th k-point nmo = 114 (0.24493,-0.36739,0.24493) ==
 == 384-th k-point nmo = 114 (0.30616,-0.30616,0.18370) ==
 == 385-th k-point nmo = 114 (0.36739,-0.24493,0.12246) ==
 == 386-th k-point nmo = 114 (0.42863,-0.18370,0.06123) ==
 == 387-th k-point nmo = 114 (0.48986,-0.12246,0.00000) ==
 == 388-th k-point nmo = 114 (0.55109,-0.06123,-0.06123) ==
 == 389-th k-point nmo = 114 (0.61232,0.00000,-0.12246) ==
 == 390-th k-point nmo = 114 (0.12246,-0.61232,0.48986) ==
 == 391-th k-point nmo = 114 (0.18370,-0.55109,0.42863) ==
 == 392-th k-point nmo = 114 (0.24493,-0.48986,0.36739) ==
 == 393-th k-point nmo = 114 (0.30616,-0.42863,0.30616) ==
 == 394-th k-point nmo = 114 (0.36739,-0.36739,0.24493) ==
 == 395-th k-point nmo = 114 (0.42863,-0.30616,0.18370) ==
 == 396-th k-point nmo = 114 (0.48986,-0.24493,0.12246) ==
 == 397-th k-point nmo = 114 (0.55109,-0.18370,0.06123) ==
 == 398-th k-point nmo = 114 (0.61232,-0.12246,0.00000) ==
 == 399-th k-point nmo = 114 (0.67356,-0.06123,-0.06123) ==
 == 400-th k-point nmo = 114 (-0.48986,-0.00000,-0.00000) ==
 == 401-th k-point nmo = 114 (-0.42863,0.06123,-0.06123) ==
 == 402-th k-point nmo = 114 (-0.36739,0.12246,-0.12246) ==
 == 403-th k-point nmo = 114 (-0.30616,0.18370,-0.18370) ==
 == 404-th k-point nmo = 114 (-0.24493,0.24493,-0.24493) ==
 == 405-th k-point nmo = 114 (-0.18370,0.30616,-0.30616) ==
 == 406-th k-point nmo = 114 (-0.12246,0.36739,-0.36739) ==
 == 407-th k-point nmo = 114 (-0.06123,0.42863,-0.42863) ==
 == 408-th k-point nmo = 114 (0.00000,0.48986,-0.48986) ==
 == 409-th k-point nmo = 114 (0.06123,0.55109,-0.55109) ==
 == 410-th k-point nmo = 114 (-0.42863,-0.06123,0.06123) ==
 == 411-th k-point nmo = 114 (-0.36739,-0.00000,-0.00000) ==
 == 412-th k-point nmo = 114 (-0.30616,0.06123,-0.06123) ==
 == 413-th k-point nmo = 114 (-0.24493,0.12246,-0.12246) ==
 == 414-th k-point nmo = 114 (-0.18370,0.18370,-0.18370) ==
 == 415-th k-point nmo = 114 (-0.12246,0.24493,-0.24493) ==
 == 416-th k-point nmo = 114 (-0.06123,0.30616,-0.30616) ==
 == 417-th k-point nmo = 114 (0.00000,0.36739,-0.36739) ==
 == 418-th k-point nmo = 114 (0.06123,0.42863,-0.42863) ==
 == 419-th k-point nmo = 114 (0.12246,0.48986,-0.48986) ==
 == 420-th k-point nmo = 114 (-0.36739,-0.12246,0.12246) ==
 == 421-th k-point nmo = 114 (-0.30616,-0.06123,0.06123) ==
 == 422-th k-point nmo = 114 (-0.24493,-0.00000,-0.00000) ==
 == 423-th k-point nmo = 114 (-0.18370,0.06123,-0.06123) ==
 == 424-th k-point nmo = 115 (-0.12246,0.12246,-0.12246) ==
 == 425-th k-point nmo = 115 (-0.06123,0.18370,-0.18370) ==
 == 426-th k-point nmo = 114 (0.00000,0.24493,-0.24493) ==
 == 427-th k-point nmo = 114 (0.06123,0.30616,-0.30616) ==
 == 428-th k-point nmo = 114 (0.12246,0.36739,-0.36739) ==
 == 429-th k-point nmo = 114 (0.18370,0.42863,-0.42863) ==
 == 430-th k-point nmo = 114 (-0.30616,-0.18370,0.18370) ==
 == 431-th k-point nmo = 114 (-0.24493,-0.12246,0.12246) ==
 == 432-th k-point nmo = 114 (-0.18370,-0.06123,0.06123) ==
 == 433-th k-point nmo = 116 (-0.12246,-0.00000,-0.00000) ==
 == 434-th k-point nmo = 115 (-0.06123,0.06123,-0.06123) ==
 == 435-th k-point nmo = 115 (0.00000,0.12246,-0.12246) ==
 == 436-th k-point nmo = 115 (0.06123,0.18370,-0.18370) ==
 == 437-th k-point nmo = 114 (0.12246,0.24493,-0.24493) ==
 == 438-th k-point nmo = 114 (0.18370,0.30616,-0.30616) ==
 == 439-th k-point nmo = 114 (0.24493,0.36739,-0.36739) ==
 == 440-th k-point nmo = 114 (-0.24493,-0.24493,0.24493) ==
 == 441-th k-point nmo = 114 (-0.18370,-0.18370,0.18370) ==
[...]
 -0.05105 0.02780 0.13359 0.18371 0.36256 0.43766 0.47989 0.53029 0.57028 0.68039
 0.71989 0.75763 0.83553 0.90925 0.92329 0.96287 0.97838 1.00304 1.07270 1.10084
 1.15948 1.17653 1.24011 1.28825 1.33439 1.37438 1.39276 1.45549 1.48465 1.51371
 1.55166 1.63650 1.67569 1.73718 1.78635 1.81849 1.88691 1.91115 1.93276 1.98393
 2.02361 2.07754 2.08981 2.17526 2.18223 2.25037 2.30400 2.31175 2.33629 2.35297
 2.41008 2.43904 2.48626 2.51848 2.58189 2.63086 2.68335 2.73911 2.78966 2.83868
 2.84597 2.89143 2.94966 2.95783 2.98305 2.99254 3.02797 3.06755 3.08928 3.13843
 3.19837 3.26205 3.27169 3.30319 3.32425 3.39556 3.40159 3.40529 3.48238 3.50764
 3.53764 3.60325 3.62452 3.67109 3.69313 3.74498 3.81514 3.87645 3.89507 3.95950
 4.06081 4.16321 4.24517 4.27326 4.53795 4.57198 8.20183 8.39721 8.46225 8.80315
 9.34964 9.83518 13.25032 14.28849
 == 982-th k-point (-0.18370,-0.06123,0.67356) occupation: 14==
 -65.00570 -65.00569 -4.62780 -4.62776 -3.03972 -3.03971 -3.03938 -3.03927 -3.03896 -3.03895
 -0.03274 0.01701 0.13021 0.16477 0.34384 0.39732 0.51099 0.57670 0.60765 0.68602
 0.73489 0.80883 0.84264 0.84920 0.91210 0.94757 0.95873 1.03467 1.04828 1.07662
 1.14076 1.15229 1.17104 1.24751 1.36273 1.40465 1.43357 1.46452 1.50334 1.51989
 1.58855 1.63964 1.72887 1.74643 1.75415 1.81098 1.85208 1.87185 1.89427 1.95255
 2.01555 2.06424 2.13578 2.18693 2.20255 2.25526 2.28830 2.29158 2.33239 2.37711
 2.39653 2.45618 2.49842 2.53259 2.57554 2.67348 2.69965 2.73306 2.78466 2.78760
 2.84417 2.88376 2.90542 2.95039 2.99808 3.00971 3.02528 3.08508 3.11648 3.11881
 3.19131 3.22833 3.28515 3.31192 3.32394 3.37041 3.38977 3.39709 3.47148 3.49532
 3.55372 3.60380 3.62733 3.66605 3.69380 3.73067 3.82544 3.90529 3.95984 4.00434
 4.11321 4.20749 4.27625 4.29761 4.57572 4.59976 8.22405 8.41947 8.55202 8.69100
 9.56776 9.92494 13.35445 13.72746
 == 983-th k-point (-0.12246,0.00000,0.61232) occupation: 14==
 -65.00570 -65.00569 -4.62778 -4.62778 -3.03972 -3.03972 -3.03932 -3.03932 -3.03896 -3.03896
 -0.00967 -0.00967 0.15448 0.15448 0.33376 0.33376 0.59020 0.59020 0.67013 0.67013
 0.75204 0.75204 0.82942 0.82942 0.93086 0.93086 0.98662 0.98662 1.07399 1.07399
 1.11369 1.11369 1.18435 1.18435 1.40797 1.40797 1.49217 1.49217 1.53155 1.53155
 1.62545 1.62545 1.73902 1.73902 1.74621 1.74621 1.82940 1.82940 1.89943 1.89943
 2.05076 2.05076 2.14233 2.14233 2.23714 2.23714 2.30967 2.30967 2.33919 2.33919
 2.45415 2.45415 2.48865 2.48865 2.60672 2.60672 2.73804 2.73804 2.77571 2.77571
 2.86221 2.86221 2.94171 2.94171 2.97838 2.97838 3.05036 3.05036 3.13289 3.13289
 3.21412 3.21412 3.27251 3.27251 3.31611 3.31611 3.38237 3.38237 3.52252 3.52252
 3.55521 3.55521 3.64799 3.64799 3.71980 3.71980 3.94164 3.94164 3.99493 3.99493
 4.23362 4.23362 4.32552 4.32552 4.60751 4.60751 8.32004 8.32004 8.62421 8.62421
 9.75508 9.75508 13.39260 13.39260
 == 984-th k-point (-0.06123,0.06123,0.55109) occupation: 14==
 -65.00570 -65.00569 -4.62780 -4.62776 -3.03972 -3.03971 -3.03937 -3.03927 -3.03897 -3.03896
 -0.03751 0.01773 0.15377 0.17353 0.30620 0.33420 0.60016 0.60338 0.67783 0.68212
 0.73586 0.74967 0.81118 0.81234 0.88882 0.96949 0.97838 0.99352 1.04500 1.08139
 1.10361 1.14351 1.17892 1.24228 1.37031 1.40730 1.48348 1.52479 1.53402 1.56313
 1.62690 1.65738 1.70764 1.72467 1.75207 1.75460 1.80672 1.83762 1.88006 1.90097
 2.01271 2.07460 2.11286 2.14956 2.15304 2.25697 2.29252 2.31800 2.34781 2.39657
 2.44326 2.44495 2.50142 2.51859 2.55019 2.60009 2.71456 2.75192 2.78921 2.81670
 2.84705 2.88263 2.93125 2.95837 2.96653 2.98383 3.03856 3.04869 3.09347 3.10919
 3.22319 3.24093 3.24887 3.29567 3.30244 3.31388 3.39542 3.43052 3.51544 3.51585
 3.54644 3.55152 3.64503 3.67753 3.70814 3.73749 3.92143 3.94323 3.96539 4.09093
 4.22484 4.27487 4.31563 4.35447 4.60697 4.62079 8.16469 8.45669 8.55817 8.60373
 9.72337 9.98421 13.36080 13.40661
 == 985-th k-point (0.00000,0.12246,0.48986) occupation: 14==
 -65.00570 -65.00569 -4.62782 -4.62774 -3.03971 -3.03971 -3.03942 -3.03923 -3.03898 -3.03897
 -0.05997 0.04552 0.15611 0.16810 0.33071 0.35284 0.52601 0.59052 0.66394 0.67680
 0.74266 0.76409 0.79882 0.83813 0.88459 0.90311 0.99314 1.00334 1.06843 1.10287
 1.14200 1.18253 1.21192 1.25809 1.36912 1.37869 1.45592 1.51408 1.53447 1.53857
 1.55148 1.69574 1.71978 1.74271 1.78839 1.79598 1.82015 1.83134 1.87824 1.89152
 2.03027 2.04226 2.08856 2.16329 2.16697 2.20146 2.21614 2.35611 2.36562 2.41603
 2.42396 2.44452 2.53308 2.55358 2.57887 2.60124 2.65903 2.76911 2.79727 2.84226
 2.86663 2.88328 2.91591 2.92463 2.95685 2.99634 2.99945 3.02518 3.06868 3.17113
 3.18000 3.23710 3.30791 3.32912 3.33141 3.37247 3.39945 3.43195 3.51613 3.52208
 3.53711 3.54035 3.64341 3.67718 3.70616 3.71802 3.88995 3.92313 3.96753 4.08512
 4.17682 4.19981 4.29323 4.34644 4.59707 4.61727 8.10238 8.35821 8.38638 8.75750
 10.17314 10.17454 13.29606 13.47707
 == 986-th k-point (0.06123,0.18370,0.42863) occupation: 14==
 -65.00570 -65.00569 -4.62784 -4.62772 -3.03971 -3.03970 -3.03947 -3.03919 -3.03898 -3.03896
 -0.07507 0.05970 0.14859 0.18578 0.35572 0.41505 0.45448 0.53294 0.64667 0.64846
 0.73923 0.75521 0.79187 0.83291 0.91081 0.94094 1.00232 1.02790 1.06972 1.10519
 1.17613 1.19200 1.27263 1.30023 1.35271 1.36734 1.42843 1.47868 1.50785 1.51757
 1.57381 1.65072 1.66688 1.73801 1.77407 1.82032 1.85711 1.89054 1.92331 1.95404
 2.00399 2.04733 2.07960 2.12460 2.14666 2.19153 2.26065 2.30901 2.36949 2.41285
 2.44292 2.46409 2.51335 2.56075 2.57803 2.62021 2.67015 2.72722 2.80114 2.82046
 2.84419 2.89544 2.91026 2.91899 2.96526 2.99308 3.04431 3.05622 3.08795 3.14359
 3.19118 3.28714 3.30377 3.32114 3.33041 3.39436 3.40794 3.45128 3.49001 3.51136
 3.54387 3.57590 3.66856 3.67211 3.70530 3.74300 3.83594 3.88452 3.94400 3.98462
 4.11083 4.13701 4.25914 4.32483 4.55703 4.60308 8.09879 8.23836 8.28785 8.95690
 9.93744 10.18171 13.25137 13.97417
 == 987-th k-point (0.12246,0.24493,0.36739) occupation: 14==
 -65.00570 -65.00569 -4.62785 -4.62771 -3.03970 -3.03968 -3.03951 -3.03915 -3.03898 -3.03896
 -0.08239 0.04930 0.16816 0.21228 0.37793 0.39748 0.46330 0.50029 0.61622 0.63043
 0.69912 0.74643 0.78415 0.86094 0.91102 0.95079 1.01374 1.07488 1.09717 1.13342
 1.17761 1.23683 1.27728 1.28849 1.33525 1.37633 1.42557 1.46158 1.48205 1.54798
 1.56444 1.62723 1.63726 1.73976 1.75772 1.79229 1.84165 1.90520 1.93283 1.99665
 2.03177 2.05807 2.09206 2.14376 2.18869 2.22397 2.26729 2.31897 2.36842 2.38804
 2.41132 2.43656 2.50022 2.55667 2.59404 2.62845 2.70720 2.76294 2.78138 2.81252
 2.82854 2.87253 2.90107 2.91841 2.96032 2.98435 3.02401 3.07965 3.10726 3.15929
 3.17578 3.25252 3.28564 3.30703 3.33751 3.40692 3.45942 3.46865 3.48145 3.50954
 3.56600 3.59875 3.65738 3.70697 3.73307 3.73992 3.82005 3.82993 3.91320 3.97554
 4.06762 4.11567 4.24392 4.32818 4.51469 4.56856 8.03536 8.24531 8.34635 9.09470
 9.54737 9.99857 12.96222 14.46451
 == 988-th k-point (0.18370,0.30616,0.30616) occupation: 14==
 -65.00570 -65.00569 -4.62785 -4.62771 -3.03969 -3.03968 -3.03954 -3.03912 -3.03898 -3.03897
 -0.08236 0.03334 0.19746 0.22890 0.35812 0.40355 0.41261 0.57136 0.59690 0.62057
 0.68834 0.72908 0.78282 0.80166 0.92521 0.98923 1.05480 1.08330 1.12348 1.13194
 1.19910 1.22254 1.28146 1.31138 1.32122 1.38315 1.41714 1.43758 1.48371 1.53233
 1.53556 1.60322 1.67160 1.71066 1.75686 1.82340 1.83270 1.88336 1.96950 1.99255
 2.04575 2.11768 2.13253 2.16815 2.17370 2.20895 2.30966 2.31596 2.33162 2.37084
 2.42207 2.44423 2.52164 2.56386 2.58034 2.64177 2.73992 2.76360 2.79085 2.79925
 2.82053 2.86371 2.90132 2.91762 2.95707 2.97897 2.98844 3.09676 3.11400 3.11682
 3.16605 3.17105 3.24642 3.33728 3.37230 3.40365 3.46126 3.47944 3.51324 3.54445
 3.60237 3.62989 3.68948 3.70079 3.73514 3.74876 3.75101 3.89370 3.98078 3.99176
 4.00808 4.12916 4.23724 4.33559 4.46978 4.51488 8.09932 8.23212 8.36790 9.27284
 9.39402 9.98228 12.48317 14.64409
 == 989-th k-point (0.24493,0.36739,0.24493) occupation: 14==
 -65.00570 -65.00569 -4.62785 -4.62771 -3.03969 -3.03968 -3.03954 -3.03913 -3.03899 -3.03896
 -0.07616 0.02413 0.20223 0.22151 0.35578 0.39870 0.41845 0.56293 0.60558 0.66931
 0.69824 0.70443 0.73520 0.80831 0.96664 1.02413 1.03242 1.07490 1.10280 1.11378
 1.21302 1.24592 1.24751 1.31282 1.32911 1.38383 1.40667 1.42299 1.47922 1.51397
 1.53797 1.60161 1.66802 1.70699 1.74833 1.81814 1.84902 1.94933 1.95292 1.99108
 2.06843 2.11433 2.13272 2.19043 2.21203 2.22101 2.24320 2.28536 2.33648 2.34056
 2.44522 2.44823 2.51428 2.55237 2.56537 2.67927 2.75073 2.76433 2.76996 2.80514
 2.82212 2.86171 2.88374 2.92596 2.96145 2.96308 3.03119 3.08614 3.09677 3.11688
 3.15055 3.20710 3.22186 3.22728 3.40095 3.42843 3.45601 3.49105 3.53720 3.53805
 3.59399 3.64489 3.66040 3.66788 3.72922 3.76906 3.79654 3.86373 3.97516 3.97739
 4.03737 4.14542 4.23895 4.31036 4.48291 4.48458 8.19516 8.35322 8.36570 9.16850
 9.50047 9.99110 12.43735 14.68136
 == 990-th k-point (-0.24493,-0.24493,0.85725) occupation: 14==
 -65.00570 -65.00569 -4.62785 -4.62771 -3.03969 -3.03968 -3.03954 -3.03913 -3.03899 -3.03896
 -0.07616 0.02413 0.20223 0.22151 0.35578 0.39870 0.41845 0.56293 0.60558 0.66931
 0.69824 0.70443 0.73520 0.80831 0.96664 1.02413 1.03242 1.07490 1.10280 1.11378
 1.21302 1.24592 1.24751 1.31282 1.32911 1.38383 1.40667 1.42299 1.47922 1.51397
 1.53797 1.60161 1.66802 1.70699 1.74833 1.81814 1.84902 1.94933 1.95292 1.99108
 2.06843 2.11433 2.13272 2.19043 2.21203 2.22101 2.24320 2.28536 2.33648 2.34056
 2.44522 2.44823 2.51428 2.55237 2.56537 2.67927 2.75073 2.76433 2.76996 2.80514
 2.82212 2.86171 2.88374 2.92596 2.96145 2.96308 3.03119 3.08614 3.09677 3.11688
 3.15055 3.20710 3.22186 3.22728 3.40095 3.42843 3.45601 3.49105 3.53720 3.53805
 3.59399 3.64489 3.66040 3.66788 3.72922 3.76906 3.79654 3.86373 3.97516 3.97739
 4.03737 4.14542 4.23895 4.31036 4.48291 4.48458 8.19516 8.35322 8.36570 9.16850
 9.50047 9.99110 12.43735 14.68136
 == 991-th k-point (-0.18370,-0.18370,0.79602) occupation: 14==
 -65.00570 -65.00569 -4.62784 -4.62772 -3.03971 -3.03969 -3.03949 -3.03917 -3.03899 -3.03895
 -0.06953 0.03656 0.15957 0.20278 0.34409 0.44996 0.46533 0.48477 0.63665 0.66795
 0.72163 0.72167 0.74758 0.89937 0.94248 0.96489 1.02209 1.02949 1.03478 1.14002
 1.15173 1.25711 1.26672 1.29574 1.31755 1.36322 1.41576 1.43246 1.47410 1.55395
 1.59907 1.61414 1.66654 1.67837 1.72947 1.81011 1.90606 1.92095 1.98963 1.99229
 2.03582 2.05588 2.06661 2.14841 2.15432 2.24352 2.29197 2.30170 2.31320 2.37072
 2.41530 2.47105 2.48828 2.51054 2.59099 2.66995 2.68147 2.73717 2.78786 2.82075
 2.83790 2.89722 2.93673 2.94062 2.95068 3.01585 3.05329 3.05357 3.06694 3.10745
 3.14576 3.24744 3.29682 3.30624 3.35096 3.36087 3.39210 3.42521 3.51841 3.52340
 3.58103 3.63571 3.66247 3.70869 3.75572 3.77521 3.81524 3.83118 3.84722 3.96094
 4.06421 4.18745 4.24945 4.28815 4.53557 4.54189 8.11422 8.35004 8.38291 8.93922
 9.71506 9.90008 13.02716 14.45157
 == 992-th k-point (-0.12246,-0.12246,0.73479) occupation: 14==
 -65.00570 -65.00569 -4.62782 -4.62773 -3.03971 -3.03970 -3.03943 -3.03922 -3.03898 -3.03896
 -0.05691 0.03938 0.13897 0.18520 0.32145 0.40101 0.52639 0.52877 0.66369 0.67273
 0.73459 0.75131 0.78919 0.87980 0.90099 0.96865 0.97760 1.00130 1.02863 1.11550
 1.16528 1.17414 1.19461 1.30621 1.35780 1.36264 1.42342 1.46969 1.50773 1.56798
 1.61535 1.63027 1.68680 1.71372 1.72384 1.81636 1.86657 1.87706 1.93519 1.97919
 1.98461 2.05548 2.12014 2.13822 2.17449 2.19193 2.24618 2.32977 2.35604 2.37744
 2.45321 2.45654 2.51427 2.54407 2.55151 2.63249 2.65548 2.76405 2.79294 2.81588
 2.82567 2.91350 2.91756 2.95329 2.95632 3.02075 3.02237 3.05747 3.07951 3.14850
 3.19089 3.22345 3.26884 3.32639 3.32896 3.35358 3.36612 3.46037 3.48506 3.48653
 3.56750 3.64217 3.65849 3.66506 3.71081 3.76608 3.82968 3.87952 3.94259 4.02226
 4.09740 4.23347 4.27194 4.30688 4.57769 4.59219 8.10061 8.36311 8.44165 8.77081
 9.79010 10.06379 13.24206 13.85491
 == 993-th k-point (-0.06123,-0.06123,0.67356) occupation: 14==
 -65.00570 -65.00569 -4.62780 -4.62776 -3.03972 -3.03971 -3.03937 -3.03927 -3.03897 -3.03896
 -0.03751 0.01773 0.15377 0.17353 0.30620 0.33420 0.60016 0.60338 0.67783 0.68212
 0.73586 0.74967 0.81118 0.81234 0.88882 0.96949 0.97838 0.99352 1.04500 1.08139
 1.10361 1.14351 1.17892 1.24228 1.37031 1.40730 1.48348 1.52479 1.53402 1.56313
 1.62690 1.65738 1.70764 1.72467 1.75207 1.75460 1.80672 1.83762 1.88006 1.90097
 2.01271 2.07460 2.11286 2.14956 2.15304 2.25697 2.29252 2.31800 2.34781 2.39657
 2.44326 2.44495 2.50142 2.51859 2.55019 2.60009 2.71456 2.75192 2.78921 2.81670
 2.84705 2.88263 2.93125 2.95837 2.96653 2.98383 3.03856 3.04869 3.09347 3.10919
 3.22319 3.24093 3.24887 3.29567 3.30244 3.31388 3.39542 3.43052 3.51544 3.51585
 3.54644 3.55152 3.64503 3.67753 3.70814 3.73749 3.92143 3.94323 3.96539 4.09093
 4.22484 4.27487 4.31563 4.35447 4.60698 4.62079 8.16469 8.45669 8.55817 8.60373
 9.72337 9.98421 13.36080 13.40661
 == 994-th k-point (0.00000,0.00000,0.61232) occupation: 14==
 -65.00570 -65.00569 -4.62778 -4.62778 -3.03972 -3.03972 -3.03932 -3.03932 -3.03896 -3.03896
 -0.01166 -0.01166 0.16950 0.16950 0.30233 0.30233 0.64790 0.64790 0.68864 0.68864
 0.74435 0.74435 0.75498 0.75498 0.97739 0.97739 1.00276 1.00276 1.02304 1.02304
 1.06988 1.06988 1.23782 1.23782 1.37413 1.37414 1.54470 1.54470 1.58191 1.58191
 1.63095 1.63095 1.69129 1.69129 1.74496 1.74496 1.82810 1.82810 1.85626 1.85626
 2.08217 2.08217 2.09745 2.09745 2.18716 2.18716 2.30490 2.30490 2.43079 2.43079
 2.45550 2.45550 2.50288 2.50288 2.52316 2.52316 2.73707 2.73707 2.77741 2.77741
 2.86852 2.86852 2.98826 2.98826 3.00917 3.00917 3.02670 3.02670 3.08165 3.08165
 3.23377 3.23377 3.25069 3.25069 3.26314 3.26314 3.45943 3.45943 3.49237 3.49237
 3.55763 3.55763 3.64297 3.64297 3.72921 3.72921 3.93755 3.93755 4.06938 4.06938
 4.29191 4.29191 4.35419 4.35419 4.61748 4.61748 8.31772 8.31772 8.62574 8.62574
 9.67354 9.67354 13.41106 13.41106
 == 995-th k-point (0.06123,0.06123,0.55109) occupation: 14==
 -65.00570 -65.00569 -4.62780 -4.62776 -3.03972 -3.03971 -3.03937 -3.03927 -3.03897 -3.03896
 -0.03751 0.01773 0.15377 0.17353 0.30620 0.33420 0.60016 0.60338 0.67783 0.68212
 0.73586 0.74967 0.81118 0.81234 0.88882 0.96949 0.97838 0.99352 1.04500 1.08139
 1.10361 1.14351 1.17892 1.24228 1.37031 1.40730 1.48348 1.52479 1.53402 1.56313
 1.62690 1.65738 1.70764 1.72467 1.75207 1.75460 1.80672 1.83762 1.88006 1.90097
 2.01271 2.07460 2.11286 2.14956 2.15304 2.25697 2.29252 2.31800 2.34781 2.39657
 2.44326 2.44495 2.50142 2.51859 2.55019 2.60009 2.71456 2.75192 2.78921 2.81670
 2.84705 2.88263 2.93125 2.95837 2.96653 2.98383 3.03856 3.04869 3.09347 3.10919
 3.22319 3.24093 3.24887 3.29567 3.30244 3.31388 3.39542 3.43052 3.51544 3.51585
 3.54644 3.55152 3.64503 3.67753 3.70814 3.73749 3.92143 3.94323 3.96539 4.09093
 4.22484 4.27487 4.31563 4.35447 4.60698 4.62079 8.16469 8.45669 8.55817 8.60373
 9.72337 9.98421 13.36080 13.40661
 == 996-th k-point (0.12246,0.12246,0.48986) occupation: 14==
 -65.00570 -65.00569 -4.62782 -4.62773 -3.03971 -3.03970 -3.03943 -3.03922 -3.03898 -3.03896
 -0.05691 0.03938 0.13897 0.18520 0.32145 0.40101 0.52639 0.52877 0.66369 0.67273
 0.73459 0.75131 0.78919 0.87980 0.90099 0.96865 0.97760 1.00130 1.02863 1.11550
 1.16528 1.17414 1.19461 1.30621 1.35780 1.36264 1.42342 1.46969 1.50773 1.56798
 1.61535 1.63027 1.68680 1.71372 1.72384 1.81636 1.86657 1.87706 1.93519 1.97919
 1.98461 2.05548 2.12014 2.13822 2.17449 2.19193 2.24618 2.32977 2.35604 2.37744
 2.45321 2.45654 2.51427 2.54407 2.55151 2.63249 2.65548 2.76405 2.79294 2.81588
 2.82567 2.91350 2.91756 2.95329 2.95632 3.02075 3.02237 3.05747 3.07951 3.14850
 3.19089 3.22345 3.26884 3.32639 3.32896 3.35358 3.36612 3.46037 3.48506 3.48653
 3.56750 3.64217 3.65849 3.66506 3.71081 3.76608 3.82968 3.87952 3.94259 4.02226
 4.09740 4.23347 4.27194 4.30688 4.57769 4.59219 8.10061 8.36311 8.44165 8.77081
 9.79010 10.06379 13.24206 13.85491
 == 997-th k-point (0.18370,0.18370,0.42863) occupation: 14==
 -65.00570 -65.00569 -4.62784 -4.62772 -3.03971 -3.03969 -3.03949 -3.03917 -3.03899 -3.03895
 -0.06953 0.03656 0.15957 0.20278 0.34409 0.44996 0.46533 0.48477 0.63665 0.66795
 0.72163 0.72167 0.74758 0.89937 0.94248 0.96489 1.02209 1.02949 1.03478 1.14002
 1.15173 1.25711 1.26672 1.29574 1.31755 1.36322 1.41576 1.43246 1.47410 1.55395
 1.59907 1.61414 1.66654 1.67837 1.72947 1.81011 1.90606 1.92095 1.98963 1.99229
 2.03582 2.05588 2.06661 2.14841 2.15432 2.24352 2.29197 2.30170 2.31320 2.37072
 2.41530 2.47105 2.48828 2.51054 2.59099 2.66995 2.68147 2.73717 2.78786 2.82075
 2.83790 2.89722 2.93673 2.94062 2.95068 3.01585 3.05329 3.05357 3.06694 3.10745
 3.14576 3.24744 3.29682 3.30624 3.35096 3.36087 3.39210 3.42521 3.51841 3.52340
 3.58103 3.63571 3.66247 3.70869 3.75572 3.77521 3.81524 3.83118 3.84722 3.96094
 4.06421 4.18745 4.24945 4.28815 4.53557 4.54189 8.11422 8.35004 8.38291 8.93922
 9.71506 9.90008 13.02716 14.45157
 == 998-th k-point (0.24493,0.24493,0.36739) occupation: 14==
 -65.00570 -65.00569 -4.62785 -4.62771 -3.03969 -3.03968 -3.03954 -3.03913 -3.03899 -3.03896
 -0.07616 0.02413 0.20223 0.22151 0.35578 0.39870 0.41845 0.56293 0.60558 0.66931
 0.69824 0.70443 0.73520 0.80831 0.96664 1.02413 1.03242 1.07490 1.10280 1.11378
 1.21302 1.24592 1.24751 1.31282 1.32911 1.38383 1.40667 1.42299 1.47922 1.51397
 1.53797 1.60161 1.66802 1.70699 1.74833 1.81814 1.84902 1.94933 1.95292 1.99108
 2.06843 2.11433 2.13272 2.19043 2.21203 2.22101 2.24320 2.28536 2.33648 2.34056
 2.44522 2.44823 2.51428 2.55237 2.56537 2.67927 2.75073 2.76433 2.76996 2.80514
 2.82212 2.86171 2.88374 2.92596 2.96145 2.96308 3.03119 3.08614 3.09677 3.11688
 3.15055 3.20710 3.22186 3.22728 3.40095 3.42843 3.45601 3.49105 3.53720 3.53805
 3.59399 3.64489 3.66040 3.66788 3.72922 3.76906 3.79654 3.86373 3.97516 3.97739
 4.03737 4.14542 4.23895 4.31036 4.48291 4.48458 8.19516 8.35322 8.36570 9.16850
 9.50047 9.99110 12.43735 14.68136
 == 999-th k-point (0.30616,0.30616,0.30616) occupation: 14==
 -65.00570 -65.00569 -4.62785 -4.62771 -3.03968 -3.03968 -3.03956 -3.03910 -3.03898 -3.03898
 -0.07814 0.01867 0.23061 0.23061 0.33348 0.39988 0.39988 0.55829 0.67259 0.67259
 0.69294 0.69516 0.69516 0.75385 0.99992 1.01490 1.09074 1.09074 1.09450 1.09450
 1.23854 1.26019 1.26019 1.30694 1.30694 1.35741 1.41647 1.49027 1.49027 1.50092
 1.50092 1.58381 1.62551 1.65337 1.87966 1.87966 1.88661 1.90794 1.90794 1.92001
 2.12700 2.12700 2.19129 2.19558 2.19558 2.24476 2.26799 2.26799 2.33169 2.33169
 2.46140 2.46140 2.55497 2.55497 2.60134 2.67917 2.74720 2.77403 2.77403 2.79478
 2.81587 2.81587 2.82819 2.91981 2.94998 2.96171 3.09502 3.09502 3.09726 3.09726
 3.19198 3.19198 3.20979 3.20979 3.31469 3.46462 3.46462 3.55214 3.55486 3.55486
 3.56434 3.66039 3.66039 3.69000 3.73079 3.76017 3.93125 3.93125 3.99916 3.99916
 4.12745 4.14541 4.14541 4.33480 4.43706 4.43706 8.25309 8.25309 8.32990 9.36291
 9.36291 10.00441 11.95022 14.72122
 ---------------------------------------------------------------------------
 VBM is at 444-th k-point with 7.49079 eV
 CBM is at 4-th k-point with 8.09238 eV
 Band gap is 0.60159 eV


           Ground-State Mulliken Net Atomic Charges

      Atom                 Charge (a.u.)          Spin (a.u.)
   --------------------------------------------------------
      1 Si              (-0.000001,-0.000000)    (0.000000,0.000000)
      2 Si                (0.000001,0.000000)    (0.000000,0.000000)
   --------------------------------------------------------
  Sum of atomic charges =      (-0.000000,0.000000)
  Sum of spin   charges =       (0.000000,0.000000)



 Total job time:  1409.60 s.
 Tue Sep  9 05:26:48 2025


        *************************************************************
        *                                                           *
        *  Thank you very much for using QCPBC. Have a nice day.    *
        *                                                           *
        *************************************************************

Running job 1 of 1
