                  Welcome to Q-Chem
           with Periodic Boundary Condition
     A Quantum Leap Into The Future Of Chemistry

 Adam Rettig, Xintian Feng, Meng-Fu Chen, Hieu Dinh, Stephen Quiton,
 Anton Ni, Paul J. Robinson, Jinghong Zhang, Joonho Lee

Contributors to earlier versions of Q-Chem not listed above:
 Evgeny Epifanovsky, Leo Cunha, Jerome F. Gonthier, Kuan-Yu Liu
 Input file: /n/netscratch/joonholee_lab/Lab/hieudinh//si_2_ccpvqz_omega_0.9_101010.scratch20250909055040/si_2_ccpvqz_omega_0.9_101010.0
 Scratch folder: /n/netscratch/joonholee_lab/Lab/hieudinh//si_2_ccpvqz_omega_0.9_101010.scratch20250909055040
 Auxillary files located at: /n/holylabs/LABS/joonholee_lab/Lab/qchem_base/qcaux
 Q-Chem begins on Tue Sep  9 05:50:41 2025

 -------------------------------------------------------------
 User input:
 -------------------------------------------------------------
 $lattice
 3
 0.000000 5.130600 5.130600
 5.130600 0.000000 5.130600
 5.130600 5.130600 0.000000
 $end
 
 $unitcell
 ABSOLUTE
 0 1
 Si 0.000000 0.000000 0.000000
 Si 2.565300 2.565300 2.565300
 $end
 
 $rem
 jobtype = sp
 method = pbe
 scf_convergence = 5
 scf_guess = autosad
 scf_algorithm = diis_gdm
 basis = cc-pvqz
 aux_basis = cc-pvqz-jk
 input_bohr = true
 symmetry = false
 rsdf_print_level 1
 is_basis_uctr true
 
 mp_mesh = [10,10,10]
 
 integral_direct true
 bvk_cgto true
 
 thresh 14
 mem_total 1000000
 threads 32
 
 MAX_SCF_CYCLES 500
 madelung = false
 omega 0.9
 do_rij_bigmem true
 automate_g true
 print_level 10
 grid_type_xc 1
 
 thresh_1e2c_sp 1e-14
 thresh_2e3c_bra_ket_sep 1e-10
 thresh_g 1e-12
 $end
 
 -------------------------------------------------------------
 Running PBC job

 Requested Exchange Correlation Functionals: 
  DFT Exchange:  1.00000 pbe_x
  DFT Correlation:  1.00000 pbe_c
 using 32 threads for computing.
 ---------------------------------------------------------------
      Coordinates of Atoms in Central Unit Cell (Angstroms)
    I     Atom         X            Y            Z
 ---------------------------------------------------------------
    1      Si      0.000000     0.000000     0.000000
    2      Si      1.357498     1.357498     1.357498
 ---------------------------------------------------------------
 --------------------------------------------------
              Lattice Vectors (Angstroms)
              X            Y            Z
 --------------------------------------------------
   X       0.000000     2.714997     2.714997
   Y       2.714997     0.000000     2.714997
   Z       2.714997     2.714997     0.000000
 --------------------------------------------------
 --------------------------------------------------
       Reciprocal Lattice Vectors (Angstroms^-1)
              X            Y            Z
 --------------------------------------------------
   X      -1.157126     1.157126     1.157126
   Y       1.157126    -1.157126     1.157126
   Z       1.157126     1.157126    -1.157126
 --------------------------------------------------

 Single point calculation requested

 Hamiltonian contributions:
 List of terms in Hamiltonian: kpts_nn, kpts_kinetic, kpts_vnuc_df, kpts_xc, kpts_rij_bigmem

 K-Points calculation started.

 Basis set information about using solid harmonic (1) or Cartesian (0):
  si : D(1) D(1) D(1) F(1) F(1) G(1) 

 Basis set information about using solid harmonic (1) or Cartesian (0):
  si : D(1) D(1) D(1) D(1) D(1) D(1) D(1) D(1) D(1) F(1) F(1) F(1) F(1) G(1) G(1) H(1) 

 There are 118 basis functions in the central unit cell.
 Print atomic basis of atoms in the central unit cell:
 -------------------------------------------------------------
2 66 134 28

  0.00000000000000e+00  0.00000000000000e+00  0.00000000000000e+00
  2.56530000000000e+00  2.56530000000000e+00  2.56530000000000e+00

  5.13000000000000e+05
  7.68200000000000e+04
  1.74700000000000e+04
  4.93500000000000e+03
  1.60200000000000e+03
  5.74100000000000e+02
  2.21500000000000e+02
  9.05400000000000e+01
  3.87400000000000e+01
  1.69500000000000e+01
  6.45200000000000e+00
  2.87400000000000e+00
  1.25000000000000e+00
  3.59900000000000e-01
  1.69900000000000e-01
  7.06600000000000e-02
  1.12200000000000e+03
  2.66000000000000e+02
  8.59200000000000e+01
  3.23300000000000e+01
  1.33700000000000e+01
  5.80000000000000e+00
  2.55900000000000e+00
  1.12400000000000e+00
  3.98800000000000e-01
  1.53300000000000e-01
  5.72800000000000e-02
  7.60000000000000e-01
  3.02000000000000e-01
  1.20000000000000e-01
  5.41000000000000e-01
  2.12000000000000e-01
  4.61000000000000e-01
  5.13000000000000e+05
  7.68200000000000e+04
  1.74700000000000e+04
  4.93500000000000e+03
  1.60200000000000e+03
  5.74100000000000e+02
  2.21500000000000e+02
  9.05400000000000e+01
  3.87400000000000e+01
  1.69500000000000e+01
  6.45200000000000e+00
  2.87400000000000e+00
  1.25000000000000e+00
  3.59900000000000e-01
  1.69900000000000e-01
  7.06600000000000e-02
  1.12200000000000e+03
  2.66000000000000e+02
  8.59200000000000e+01
  3.23300000000000e+01
  1.33700000000000e+01
  5.80000000000000e+00
  2.55900000000000e+00
  1.12400000000000e+00
  3.98800000000000e-01
  1.53300000000000e-01
  5.72800000000000e-02
  7.60000000000000e-01
  3.02000000000000e-01
  1.20000000000000e-01
  5.41000000000000e-01
  2.12000000000000e-01
  4.61000000000000e-01

  3.56439732356011e-01
  6.67250935594825e-01
  1.15567538346971e+00
  1.89079471139597e+00
  2.92997535092854e+00
  4.25377897422013e+00
  5.53035652706994e+00
  5.88407857713363e+00
  4.26432221020809e+00
  1.46246852660687e+00
  9.90009037975635e-02
 -5.26805361731285e-03
  1.58075269248041e-03
 -9.63604858609034e-02
 -1.80140685379119e-01
 -3.12991611081079e-01
 -5.12013980868736e-01
 -8.03092560139717e-01
 -1.18597193899895e+00
 -1.63453354628192e+00
 -1.94138718043020e+00
 -1.86039340932271e+00
 -9.21642524314205e-01
  4.93552860211257e-01
  9.09065541611183e-01
  3.40430003714153e-01
  4.89002727192571e-02
  9.13245846186842e-02
  1.58921585782757e-01
  2.59526822498432e-01
  4.08347517411705e-01
  6.02266139654795e-01
  8.36774006155092e-01
  9.98775610751853e-01
  9.86583994360998e-01
  5.01500269670235e-01
 -2.91439000418814e-01
 -6.84883633703988e-01
 -4.85138432421684e-01
  3.31166560285492e-01
  1.88605835767988e-01
  9.76765512168845e-02
  4.17977074735086e+00
  5.88843070847456e+00
  7.44317185052013e+00
  8.05001094515016e+00
  6.97099017282640e+00
  4.33955185260449e+00
  1.76355858703549e+00
  3.34437932089088e-01
 -4.09551658476811e+00
 -5.70145272051300e+00
 -7.35388974061730e+00
 -7.93663059323219e+00
 -7.17813870370958e+00
 -4.42768957771269e+00
 -2.05517820096269e+00
 -1.72105843348797e-01
  4.51735295769850e-01
  1.36731249153695e-01
  3.99432914781939e-02
  1.01820035164008e+00
  2.02498404800701e-01
  4.02695370421242e-02
  3.69528803814005e-01
  4.48962571437413e-02
  1.32316184864580e-01
  3.56439732356011e-01
  6.67250935594825e-01
  1.15567538346971e+00
  1.89079471139597e+00
  2.92997535092854e+00
  4.25377897422013e+00
  5.53035652706994e+00
  5.88407857713363e+00
  4.26432221020809e+00
  1.46246852660687e+00
  9.90009037975635e-02
 -5.26805361731285e-03
  1.58075269248041e-03
 -9.63604858609034e-02
 -1.80140685379119e-01
 -3.12991611081079e-01
 -5.12013980868736e-01
 -8.03092560139717e-01
 -1.18597193899895e+00
 -1.63453354628192e+00
 -1.94138718043020e+00
 -1.86039340932271e+00
 -9.21642524314205e-01
  4.93552860211257e-01
  9.09065541611183e-01
  3.40430003714153e-01
  4.89002727192571e-02
  9.13245846186842e-02
  1.58921585782757e-01
  2.59526822498432e-01
  4.08347517411705e-01
  6.02266139654795e-01
  8.36774006155092e-01
  9.98775610751853e-01
  9.86583994360998e-01
  5.01500269670235e-01
 -2.91439000418814e-01
 -6.84883633703988e-01
 -4.85138432421684e-01
  3.31166560285492e-01
  1.88605835767988e-01
  9.76765512168845e-02
  4.17977074735086e+00
  5.88843070847456e+00
  7.44317185052013e+00
  8.05001094515016e+00
  6.97099017282640e+00
  4.33955185260449e+00
  1.76355858703549e+00
  3.34437932089088e-01
 -4.09551658476811e+00
 -5.70145272051300e+00
 -7.35388974061730e+00
 -7.93663059323219e+00
 -7.17813870370958e+00
 -4.42768957771269e+00
 -2.05517820096269e+00
 -1.72105843348797e-01
  4.51735295769850e-01
  1.36731249153695e-01
  3.99432914781939e-02
  1.01820035164008e+00
  2.02498404800701e-01
  4.02695370421242e-02
  3.69528803814005e-01
  4.48962571437413e-02
  1.32316184864580e-01

0 0 0 0 3 3 3
0 0 13 0 26 0 
13 0

0 3 3 13 1 1 1
39 0 
1 0

0 4 4 14 1 1 1
40 0 
1 0

0 5 5 15 1 1 1
41 0 
1 0

0 6 6 16 2 6 6
42 1 50 1 
8 0

0 12 12 24 1 3 3
58 1 
1 0

0 15 15 25 1 3 3
59 1 
1 0

0 18 18 26 1 3 3
60 1 
1 0

0 21 21 27 1 5 6
61 2 
1 1

0 26 26 28 1 5 6
62 2 
1 1

0 31 31 29 1 5 6
63 2 
1 1

0 36 36 30 1 7 10
64 3 
1 1

0 43 43 31 1 7 10
65 3 
1 1

0 50 50 32 1 9 15
66 4 
1 1

1 59 59 33 3 3 3
67 0 80 0 93 0 
13 0

1 62 62 46 1 1 1
106 0 
1 0

1 63 63 47 1 1 1
107 0 
1 0

1 64 64 48 1 1 1
108 0 
1 0

1 65 65 49 2 6 6
109 1 117 1 
8 0

1 71 71 57 1 3 3
125 1 
1 0

1 74 74 58 1 3 3
126 1 
1 0

1 77 77 59 1 3 3
127 1 
1 0

1 80 80 60 1 5 6
128 2 
1 1

1 85 85 61 1 5 6
129 2 
1 1

1 90 90 62 1 5 6
130 2 
1 1

1 95 95 63 1 7 10
131 3 
1 1

1 102 102 64 1 7 10
132 3 
1 1

1 109 109 65 1 9 15
133 4 
1 1

 -------------------------------------------------------------
 Allocate 265256 B from available memory: 1048576000000 B
 There are 2197 image cells after screening.
 There are 2061 image cells for CGTO evaluation after screening.
 Real-Space grid for FFT initialized based on kinetic energy cutoff (eV) = 500.0
 Real-Space grid for FFT: (10,10,10)
 There are 9261 real-space grid points.
 There are 64 batches of real-space grid points. 
 Size of each grid batch is around 128
 Grid for AFT initialized based on kinetic energy cutoff (eV) = 500.0
 Real-Space grid for AFT: (10,10,10)
 There are 9261 real-space grid points.

 There are 5628 atom-centered grid points.

 Spacegroup symmetry group: Fd-3m
 Reducing spacegroup symmetry to symmorphic group: F -4 3 m
 Monkhorst-Pack mesh is [10,10,10]
 There are 1000 k points.
kpoints in Bohr
-0.2449298447 -0.2449298447 -0.2449298447
-0.1836973836 -0.1836973836 -0.3061623059
-0.1224649224 -0.1224649224 -0.3673947671
-0.0612324612 -0.0612324612 -0.4286272283
-0.0000000000 -0.0000000000 -0.4898596895
0.0612324612 0.0612324612 -0.5510921507
0.1224649224 0.1224649224 -0.6123246119
0.1836973836 0.1836973836 -0.6735570730
0.2449298447 0.2449298447 -0.7347895342
0.3061623059 0.3061623059 -0.7960219954
-0.1836973836 -0.3061623059 -0.1836973836
-0.1224649224 -0.2449298447 -0.2449298447
-0.0612324612 -0.1836973836 -0.3061623059
-0.0000000000 -0.1224649224 -0.3673947671
0.0612324612 -0.0612324612 -0.4286272283
0.1224649224 -0.0000000000 -0.4898596895
0.1836973836 0.0612324612 -0.5510921507
0.2449298447 0.1224649224 -0.6123246119
0.3061623059 0.1836973836 -0.6735570730
0.3673947671 0.2449298447 -0.7347895342
-0.1224649224 -0.3673947671 -0.1224649224
-0.0612324612 -0.3061623059 -0.1836973836
-0.0000000000 -0.2449298447 -0.2449298447
0.0612324612 -0.1836973836 -0.3061623059
0.1224649224 -0.1224649224 -0.3673947671
0.1836973836 -0.0612324612 -0.4286272283
0.2449298447 -0.0000000000 -0.4898596895
0.3061623059 0.0612324612 -0.5510921507
0.3673947671 0.1224649224 -0.6123246119
0.4286272283 0.1836973836 -0.6735570730
-0.0612324612 -0.4286272283 -0.0612324612
-0.0000000000 -0.3673947671 -0.1224649224
0.0612324612 -0.3061623059 -0.1836973836
0.1224649224 -0.2449298447 -0.2449298447
0.1836973836 -0.1836973836 -0.3061623059
0.2449298447 -0.1224649224 -0.3673947671
0.3061623059 -0.0612324612 -0.4286272283
0.3673947671 -0.0000000000 -0.4898596895
0.4286272283 0.0612324612 -0.5510921507
0.4898596895 0.1224649224 -0.6123246119
-0.0000000000 -0.4898596895 0.0000000000
0.0612324612 -0.4286272283 -0.0612324612
0.1224649224 -0.3673947671 -0.1224649224
0.1836973836 -0.3061623059 -0.1836973836
0.2449298447 -0.2449298447 -0.2449298447
0.3061623059 -0.1836973836 -0.3061623059
0.3673947671 -0.1224649224 -0.3673947671
0.4286272283 -0.0612324612 -0.4286272283
0.4898596895 -0.0000000000 -0.4898596895
0.5510921507 0.0612324612 -0.5510921507
0.0612324612 -0.5510921507 0.0612324612
0.1224649224 -0.4898596895 -0.0000000000
0.1836973836 -0.4286272283 -0.0612324612
0.2449298447 -0.3673947671 -0.1224649224
0.3061623059 -0.3061623059 -0.1836973836
0.3673947671 -0.2449298447 -0.2449298447
0.4286272283 -0.1836973836 -0.3061623059
0.4898596895 -0.1224649224 -0.3673947671
0.5510921507 -0.0612324612 -0.4286272283
0.6123246119 0.0000000000 -0.4898596895
0.1224649224 -0.6123246119 0.1224649224
0.1836973836 -0.5510921507 0.0612324612
0.2449298447 -0.4898596895 0.0000000000
0.3061623059 -0.4286272283 -0.0612324612
0.3673947671 -0.3673947671 -0.1224649224
0.4286272283 -0.3061623059 -0.1836973836
0.4898596895 -0.2449298447 -0.2449298447
0.5510921507 -0.1836973836 -0.3061623059
0.6123246119 -0.1224649224 -0.3673947671
0.6735570730 -0.0612324612 -0.4286272283
0.1836973836 -0.6735570730 0.1836973836
0.2449298447 -0.6123246119 0.1224649224
0.3061623059 -0.5510921507 0.0612324612
0.3673947671 -0.4898596895 -0.0000000000
0.4286272283 -0.4286272283 -0.0612324612
0.4898596895 -0.3673947671 -0.1224649224
0.5510921507 -0.3061623059 -0.1836973836
0.6123246119 -0.2449298447 -0.2449298447
0.6735570730 -0.1836973836 -0.3061623059
0.7347895342 -0.1224649224 -0.3673947671
0.2449298447 -0.7347895342 0.2449298447
0.3061623059 -0.6735570730 0.1836973836
0.3673947671 -0.6123246119 0.1224649224
0.4286272283 -0.5510921507 0.0612324612
0.4898596895 -0.4898596895 0.0000000000
0.5510921507 -0.4286272283 -0.0612324612
0.6123246119 -0.3673947671 -0.1224649224
0.6735570730 -0.3061623059 -0.1836973836
0.7347895342 -0.2449298447 -0.2449298447
0.7960219954 -0.1836973836 -0.3061623059
0.3061623059 -0.7960219954 0.3061623059
0.3673947671 -0.7347895342 0.2449298447
0.4286272283 -0.6735570730 0.1836973836
0.4898596895 -0.6123246119 0.1224649224
0.5510921507 -0.5510921507 0.0612324612
0.6123246119 -0.4898596895 0.0000000000
0.6735570730 -0.4286272283 -0.0612324612
0.7347895342 -0.3673947671 -0.1224649224
0.7960219954 -0.3061623059 -0.1836973836
0.8572544566 -0.2449298447 -0.2449298447
-0.3061623059 -0.1836973836 -0.1836973836
-0.2449298447 -0.1224649224 -0.2449298447
-0.1836973836 -0.0612324612 -0.3061623059
-0.1224649224 -0.0000000000 -0.3673947671
-0.0612324612 0.0612324612 -0.4286272283
-0.0000000000 0.1224649224 -0.4898596895
0.0612324612 0.1836973836 -0.5510921507
0.1224649224 0.2449298447 -0.6123246119
0.1836973836 0.3061623059 -0.6735570730
0.2449298447 0.3673947671 -0.7347895342
-0.2449298447 -0.2449298447 -0.1224649224
-0.1836973836 -0.1836973836 -0.1836973836
-0.1224649224 -0.1224649224 -0.2449298447
-0.0612324612 -0.0612324612 -0.3061623059
-0.0000000000 -0.0000000000 -0.3673947671
0.0612324612 0.0612324612 -0.4286272283
0.1224649224 0.1224649224 -0.4898596895
0.1836973836 0.1836973836 -0.5510921507
0.2449298447 0.2449298447 -0.6123246119
0.3061623059 0.3061623059 -0.6735570730
-0.1836973836 -0.3061623059 -0.0612324612
-0.1224649224 -0.2449298447 -0.1224649224
-0.0612324612 -0.1836973836 -0.1836973836
-0.0000000000 -0.1224649224 -0.2449298447
0.0612324612 -0.0612324612 -0.3061623059
0.1224649224 -0.0000000000 -0.3673947671
0.1836973836 0.0612324612 -0.4286272283
0.2449298447 0.1224649224 -0.4898596895
0.3061623059 0.1836973836 -0.5510921507
0.3673947671 0.2449298447 -0.6123246119
-0.1224649224 -0.3673947671 0.0000000000
-0.0612324612 -0.3061623059 -0.0612324612
-0.0000000000 -0.2449298447 -0.1224649224
0.0612324612 -0.1836973836 -0.1836973836
0.1224649224 -0.1224649224 -0.2449298447
0.1836973836 -0.0612324612 -0.3061623059
0.2449298447 -0.0000000000 -0.3673947671
0.3061623059 0.0612324612 -0.4286272283
0.3673947671 0.1224649224 -0.4898596895
0.4286272283 0.1836973836 -0.5510921507
-0.0612324612 -0.4286272283 0.0612324612
-0.0000000000 -0.3673947671 0.0000000000
0.0612324612 -0.3061623059 -0.0612324612
0.1224649224 -0.2449298447 -0.1224649224
0.1836973836 -0.1836973836 -0.1836973836
0.2449298447 -0.1224649224 -0.2449298447
0.3061623059 -0.0612324612 -0.3061623059
0.3673947671 0.0000000000 -0.3673947671
0.4286272283 0.0612324612 -0.4286272283
0.4898596895 0.1224649224 -0.4898596895
-0.0000000000 -0.4898596895 0.1224649224
0.0612324612 -0.4286272283 0.0612324612
0.1224649224 -0.3673947671 0.0000000000
0.1836973836 -0.3061623059 -0.0612324612
0.2449298447 -0.2449298447 -0.1224649224
0.3061623059 -0.1836973836 -0.1836973836
0.3673947671 -0.1224649224 -0.2449298447
0.4286272283 -0.0612324612 -0.3061623059
0.4898596895 0.0000000000 -0.3673947671
0.5510921507 0.0612324612 -0.4286272283
0.0612324612 -0.5510921507 0.1836973836
0.1224649224 -0.4898596895 0.1224649224
0.1836973836 -0.4286272283 0.0612324612
0.2449298447 -0.3673947671 0.0000000000
0.3061623059 -0.3061623059 -0.0612324612
0.3673947671 -0.2449298447 -0.1224649224
0.4286272283 -0.1836973836 -0.1836973836
0.4898596895 -0.1224649224 -0.2449298447
0.5510921507 -0.0612324612 -0.3061623059
0.6123246119 0.0000000000 -0.3673947671
0.1224649224 -0.6123246119 0.2449298447
0.1836973836 -0.5510921507 0.1836973836
0.2449298447 -0.4898596895 0.1224649224
0.3061623059 -0.4286272283 0.0612324612
0.3673947671 -0.3673947671 0.0000000000
0.4286272283 -0.3061623059 -0.0612324612
0.4898596895 -0.2449298447 -0.1224649224
0.5510921507 -0.1836973836 -0.1836973836
0.6123246119 -0.1224649224 -0.2449298447
0.6735570730 -0.0612324612 -0.3061623059
0.1836973836 -0.6735570730 0.3061623059
0.2449298447 -0.6123246119 0.2449298447
0.3061623059 -0.5510921507 0.1836973836
0.3673947671 -0.4898596895 0.1224649224
0.4286272283 -0.4286272283 0.0612324612
0.4898596895 -0.3673947671 0.0000000000
0.5510921507 -0.3061623059 -0.0612324612
0.6123246119 -0.2449298447 -0.1224649224
0.6735570730 -0.1836973836 -0.1836973836
0.7347895342 -0.1224649224 -0.2449298447
0.2449298447 -0.7347895342 0.3673947671
0.3061623059 -0.6735570730 0.3061623059
0.3673947671 -0.6123246119 0.2449298447
0.4286272283 -0.5510921507 0.1836973836
0.4898596895 -0.4898596895 0.1224649224
0.5510921507 -0.4286272283 0.0612324612
0.6123246119 -0.3673947671 0.0000000000
0.6735570730 -0.3061623059 -0.0612324612
0.7347895342 -0.2449298447 -0.1224649224
0.7960219954 -0.1836973836 -0.1836973836
-0.3673947671 -0.1224649224 -0.1224649224
-0.3061623059 -0.0612324612 -0.1836973836
-0.2449298447 -0.0000000000 -0.2449298447
-0.1836973836 0.0612324612 -0.3061623059
-0.1224649224 0.1224649224 -0.3673947671
-0.0612324612 0.1836973836 -0.4286272283
-0.0000000000 0.2449298447 -0.4898596895
0.0612324612 0.3061623059 -0.5510921507
0.1224649224 0.3673947671 -0.6123246119
0.1836973836 0.4286272283 -0.6735570730
-0.3061623059 -0.1836973836 -0.0612324612
-0.2449298447 -0.1224649224 -0.1224649224
-0.1836973836 -0.0612324612 -0.1836973836
-0.1224649224 -0.0000000000 -0.2449298447
-0.0612324612 0.0612324612 -0.3061623059
-0.0000000000 0.1224649224 -0.3673947671
0.0612324612 0.1836973836 -0.4286272283
0.1224649224 0.2449298447 -0.4898596895
0.1836973836 0.3061623059 -0.5510921507
0.2449298447 0.3673947671 -0.6123246119
-0.2449298447 -0.2449298447 0.0000000000
-0.1836973836 -0.1836973836 -0.0612324612
-0.1224649224 -0.1224649224 -0.1224649224
-0.0612324612 -0.0612324612 -0.1836973836
-0.0000000000 -0.0000000000 -0.2449298447
0.0612324612 0.0612324612 -0.3061623059
0.1224649224 0.1224649224 -0.3673947671
0.1836973836 0.1836973836 -0.4286272283
0.2449298447 0.2449298447 -0.4898596895
0.3061623059 0.3061623059 -0.5510921507
-0.1836973836 -0.3061623059 0.0612324612
-0.1224649224 -0.2449298447 -0.0000000000
-0.0612324612 -0.1836973836 -0.0612324612
-0.0000000000 -0.1224649224 -0.1224649224
0.0612324612 -0.0612324612 -0.1836973836
0.1224649224 -0.0000000000 -0.2449298447
0.1836973836 0.0612324612 -0.3061623059
0.2449298447 0.1224649224 -0.3673947671
0.3061623059 0.1836973836 -0.4286272283
0.3673947671 0.2449298447 -0.4898596895
-0.1224649224 -0.3673947671 0.1224649224
-0.0612324612 -0.3061623059 0.0612324612
-0.0000000000 -0.2449298447 0.0000000000
0.0612324612 -0.1836973836 -0.0612324612
0.1224649224 -0.1224649224 -0.1224649224
0.1836973836 -0.0612324612 -0.1836973836
0.2449298447 0.0000000000 -0.2449298447
0.3061623059 0.0612324612 -0.3061623059
0.3673947671 0.1224649224 -0.3673947671
0.4286272283 0.1836973836 -0.4286272283
-0.0612324612 -0.4286272283 0.1836973836
-0.0000000000 -0.3673947671 0.1224649224
0.0612324612 -0.3061623059 0.0612324612
0.1224649224 -0.2449298447 -0.0000000000
0.1836973836 -0.1836973836 -0.0612324612
0.2449298447 -0.1224649224 -0.1224649224
0.3061623059 -0.0612324612 -0.1836973836
0.3673947671 0.0000000000 -0.2449298447
0.4286272283 0.0612324612 -0.3061623059
0.4898596895 0.1224649224 -0.3673947671
-0.0000000000 -0.4898596895 0.2449298447
0.0612324612 -0.4286272283 0.1836973836
0.1224649224 -0.3673947671 0.1224649224
0.1836973836 -0.3061623059 0.0612324612
0.2449298447 -0.2449298447 0.0000000000
0.3061623059 -0.1836973836 -0.0612324612
0.3673947671 -0.1224649224 -0.1224649224
0.4286272283 -0.0612324612 -0.1836973836
0.4898596895 0.0000000000 -0.2449298447
0.5510921507 0.0612324612 -0.3061623059
0.0612324612 -0.5510921507 0.3061623059
0.1224649224 -0.4898596895 0.2449298447
0.1836973836 -0.4286272283 0.1836973836
0.2449298447 -0.3673947671 0.1224649224
0.3061623059 -0.3061623059 0.0612324612
0.3673947671 -0.2449298447 0.0000000000
0.4286272283 -0.1836973836 -0.0612324612
0.4898596895 -0.1224649224 -0.1224649224
0.5510921507 -0.0612324612 -0.1836973836
0.6123246119 0.0000000000 -0.2449298447
0.1224649224 -0.6123246119 0.3673947671
0.1836973836 -0.5510921507 0.3061623059
0.2449298447 -0.4898596895 0.2449298447
0.3061623059 -0.4286272283 0.1836973836
0.3673947671 -0.3673947671 0.1224649224
0.4286272283 -0.3061623059 0.0612324612
0.4898596895 -0.2449298447 0.0000000000
0.5510921507 -0.1836973836 -0.0612324612
0.6123246119 -0.1224649224 -0.1224649224
0.6735570730 -0.0612324612 -0.1836973836
0.1836973836 -0.6735570730 0.4286272283
0.2449298447 -0.6123246119 0.3673947671
0.3061623059 -0.5510921507 0.3061623059
0.3673947671 -0.4898596895 0.2449298447
0.4286272283 -0.4286272283 0.1836973836
0.4898596895 -0.3673947671 0.1224649224
0.5510921507 -0.3061623059 0.0612324612
0.6123246119 -0.2449298447 0.0000000000
0.6735570730 -0.1836973836 -0.0612324612
0.7347895342 -0.1224649224 -0.1224649224
-0.4286272283 -0.0612324612 -0.0612324612
-0.3673947671 -0.0000000000 -0.1224649224
-0.3061623059 0.0612324612 -0.1836973836
-0.2449298447 0.1224649224 -0.2449298447
-0.1836973836 0.1836973836 -0.3061623059
-0.1224649224 0.2449298447 -0.3673947671
-0.0612324612 0.3061623059 -0.4286272283
-0.0000000000 0.3673947671 -0.4898596895
0.0612324612 0.4286272283 -0.5510921507
0.1224649224 0.4898596895 -0.6123246119
-0.3673947671 -0.1224649224 0.0000000000
-0.3061623059 -0.0612324612 -0.0612324612
-0.2449298447 -0.0000000000 -0.1224649224
-0.1836973836 0.0612324612 -0.1836973836
-0.1224649224 0.1224649224 -0.2449298447
-0.0612324612 0.1836973836 -0.3061623059
0.0000000000 0.2449298447 -0.3673947671
0.0612324612 0.3061623059 -0.4286272283
0.1224649224 0.3673947671 -0.4898596895
0.1836973836 0.4286272283 -0.5510921507
-0.3061623059 -0.1836973836 0.0612324612
-0.2449298447 -0.1224649224 -0.0000000000
-0.1836973836 -0.0612324612 -0.0612324612
-0.1224649224 -0.0000000000 -0.1224649224
-0.0612324612 0.0612324612 -0.1836973836
-0.0000000000 0.1224649224 -0.2449298447
0.0612324612 0.1836973836 -0.3061623059
0.1224649224 0.2449298447 -0.3673947671
0.1836973836 0.3061623059 -0.4286272283
0.2449298447 0.3673947671 -0.4898596895
-0.2449298447 -0.2449298447 0.1224649224
-0.1836973836 -0.1836973836 0.0612324612
-0.1224649224 -0.1224649224 0.0000000000
-0.0612324612 -0.0612324612 -0.0612324612
-0.0000000000 -0.0000000000 -0.1224649224
0.0612324612 0.0612324612 -0.1836973836
0.1224649224 0.1224649224 -0.2449298447
0.1836973836 0.1836973836 -0.3061623059
0.2449298447 0.2449298447 -0.3673947671
0.3061623059 0.3061623059 -0.4286272283
-0.1836973836 -0.3061623059 0.1836973836
-0.1224649224 -0.2449298447 0.1224649224
-0.0612324612 -0.1836973836 0.0612324612
-0.0000000000 -0.1224649224 0.0000000000
0.0612324612 -0.0612324612 -0.0612324612
0.1224649224 0.0000000000 -0.1224649224
0.1836973836 0.0612324612 -0.1836973836
0.2449298447 0.1224649224 -0.2449298447
0.3061623059 0.1836973836 -0.3061623059
0.3673947671 0.2449298447 -0.3673947671
-0.1224649224 -0.3673947671 0.2449298447
-0.0612324612 -0.3061623059 0.1836973836
-0.0000000000 -0.2449298447 0.1224649224
0.0612324612 -0.1836973836 0.0612324612
0.1224649224 -0.1224649224 0.0000000000
0.1836973836 -0.0612324612 -0.0612324612
0.2449298447 0.0000000000 -0.1224649224
0.3061623059 0.0612324612 -0.1836973836
0.3673947671 0.1224649224 -0.2449298447
0.4286272283 0.1836973836 -0.3061623059
-0.0612324612 -0.4286272283 0.3061623059
-0.0000000000 -0.3673947671 0.2449298447
0.0612324612 -0.3061623059 0.1836973836
0.1224649224 -0.2449298447 0.1224649224
0.1836973836 -0.1836973836 0.0612324612
0.2449298447 -0.1224649224 0.0000000000
0.3061623059 -0.0612324612 -0.0612324612
0.3673947671 0.0000000000 -0.1224649224
0.4286272283 0.0612324612 -0.1836973836
0.4898596895 0.1224649224 -0.2449298447
-0.0000000000 -0.4898596895 0.3673947671
0.0612324612 -0.4286272283 0.3061623059
0.1224649224 -0.3673947671 0.2449298447
0.1836973836 -0.3061623059 0.1836973836
0.2449298447 -0.2449298447 0.1224649224
0.3061623059 -0.1836973836 0.0612324612
0.3673947671 -0.1224649224 0.0000000000
0.4286272283 -0.0612324612 -0.0612324612
0.4898596895 0.0000000000 -0.1224649224
0.5510921507 0.0612324612 -0.1836973836
0.0612324612 -0.5510921507 0.4286272283
0.1224649224 -0.4898596895 0.3673947671
0.1836973836 -0.4286272283 0.3061623059
0.2449298447 -0.3673947671 0.2449298447
0.3061623059 -0.3061623059 0.1836973836
0.3673947671 -0.2449298447 0.1224649224
0.4286272283 -0.1836973836 0.0612324612
0.4898596895 -0.1224649224 0.0000000000
0.5510921507 -0.0612324612 -0.0612324612
0.6123246119 0.0000000000 -0.1224649224
0.1224649224 -0.6123246119 0.4898596895
0.1836973836 -0.5510921507 0.4286272283
0.2449298447 -0.4898596895 0.3673947671
0.3061623059 -0.4286272283 0.3061623059
0.3673947671 -0.3673947671 0.2449298447
0.4286272283 -0.3061623059 0.1836973836
0.4898596895 -0.2449298447 0.1224649224
0.5510921507 -0.1836973836 0.0612324612
0.6123246119 -0.1224649224 0.0000000000
0.6735570730 -0.0612324612 -0.0612324612
-0.4898596895 -0.0000000000 -0.0000000000
-0.4286272283 0.0612324612 -0.0612324612
-0.3673947671 0.1224649224 -0.1224649224
-0.3061623059 0.1836973836 -0.1836973836
-0.2449298447 0.2449298447 -0.2449298447
-0.1836973836 0.3061623059 -0.3061623059
-0.1224649224 0.3673947671 -0.3673947671
-0.0612324612 0.4286272283 -0.4286272283
0.0000000000 0.4898596895 -0.4898596895
0.0612324612 0.5510921507 -0.5510921507
-0.4286272283 -0.0612324612 0.0612324612
-0.3673947671 -0.0000000000 -0.0000000000
-0.3061623059 0.0612324612 -0.0612324612
-0.2449298447 0.1224649224 -0.1224649224
-0.1836973836 0.1836973836 -0.1836973836
-0.1224649224 0.2449298447 -0.2449298447
-0.0612324612 0.3061623059 -0.3061623059
0.0000000000 0.3673947671 -0.3673947671
0.0612324612 0.4286272283 -0.4286272283
0.1224649224 0.4898596895 -0.4898596895
-0.3673947671 -0.1224649224 0.1224649224
-0.3061623059 -0.0612324612 0.0612324612
-0.2449298447 -0.0000000000 -0.0000000000
-0.1836973836 0.0612324612 -0.0612324612
-0.1224649224 0.1224649224 -0.1224649224
-0.0612324612 0.1836973836 -0.1836973836
0.0000000000 0.2449298447 -0.2449298447
0.0612324612 0.3061623059 -0.3061623059
0.1224649224 0.3673947671 -0.3673947671
0.1836973836 0.4286272283 -0.4286272283
-0.3061623059 -0.1836973836 0.1836973836
-0.2449298447 -0.1224649224 0.1224649224
-0.1836973836 -0.0612324612 0.0612324612
-0.1224649224 -0.0000000000 -0.0000000000
-0.0612324612 0.0612324612 -0.0612324612
0.0000000000 0.1224649224 -0.1224649224
0.0612324612 0.1836973836 -0.1836973836
0.1224649224 0.2449298447 -0.2449298447
0.1836973836 0.3061623059 -0.3061623059
0.2449298447 0.3673947671 -0.3673947671
-0.2449298447 -0.2449298447 0.2449298447
-0.1836973836 -0.1836973836 0.1836973836
-0.1224649224 -0.1224649224 0.1224649224
-0.0612324612 -0.0612324612 0.0612324612
0.0000000000 0.0000000000 0.0000000000
0.0612324612 0.0612324612 -0.0612324612
0.1224649224 0.1224649224 -0.1224649224
0.1836973836 0.1836973836 -0.1836973836
0.2449298447 0.2449298447 -0.2449298447
0.3061623059 0.3061623059 -0.3061623059
-0.1836973836 -0.3061623059 0.3061623059
-0.1224649224 -0.2449298447 0.2449298447
-0.0612324612 -0.1836973836 0.1836973836
0.0000000000 -0.1224649224 0.1224649224
0.0612324612 -0.0612324612 0.0612324612
0.1224649224 0.0000000000 0.0000000000
0.1836973836 0.0612324612 -0.0612324612
0.2449298447 0.1224649224 -0.1224649224
0.3061623059 0.1836973836 -0.1836973836
0.3673947671 0.2449298447 -0.2449298447
-0.1224649224 -0.3673947671 0.3673947671
-0.0612324612 -0.3061623059 0.3061623059
-0.0000000000 -0.2449298447 0.2449298447
0.0612324612 -0.1836973836 0.1836973836
0.1224649224 -0.1224649224 0.1224649224
0.1836973836 -0.0612324612 0.0612324612
0.2449298447 0.0000000000 0.0000000000
0.3061623059 0.0612324612 -0.0612324612
0.3673947671 0.1224649224 -0.1224649224
0.4286272283 0.1836973836 -0.1836973836
-0.0612324612 -0.4286272283 0.4286272283
-0.0000000000 -0.3673947671 0.3673947671
0.0612324612 -0.3061623059 0.3061623059
0.1224649224 -0.2449298447 0.2449298447
0.1836973836 -0.1836973836 0.1836973836
0.2449298447 -0.1224649224 0.1224649224
0.3061623059 -0.0612324612 0.0612324612
0.3673947671 0.0000000000 0.0000000000
0.4286272283 0.0612324612 -0.0612324612
0.4898596895 0.1224649224 -0.1224649224
-0.0000000000 -0.4898596895 0.4898596895
0.0612324612 -0.4286272283 0.4286272283
0.1224649224 -0.3673947671 0.3673947671
0.1836973836 -0.3061623059 0.3061623059
0.2449298447 -0.2449298447 0.2449298447
0.3061623059 -0.1836973836 0.1836973836
0.3673947671 -0.1224649224 0.1224649224
0.4286272283 -0.0612324612 0.0612324612
0.4898596895 0.0000000000 0.0000000000
0.5510921507 0.0612324612 -0.0612324612
0.0612324612 -0.5510921507 0.5510921507
0.1224649224 -0.4898596895 0.4898596895
0.1836973836 -0.4286272283 0.4286272283
0.2449298447 -0.3673947671 0.3673947671
0.3061623059 -0.3061623059 0.3061623059
0.3673947671 -0.2449298447 0.2449298447
0.4286272283 -0.1836973836 0.1836973836
0.4898596895 -0.1224649224 0.1224649224
0.5510921507 -0.0612324612 0.0612324612
0.6123246119 0.0000000000 0.0000000000
-0.5510921507 0.0612324612 0.0612324612
-0.4898596895 0.1224649224 -0.0000000000
-0.4286272283 0.1836973836 -0.0612324612
-0.3673947671 0.2449298447 -0.1224649224
-0.3061623059 0.3061623059 -0.1836973836
-0.2449298447 0.3673947671 -0.2449298447
-0.1836973836 0.4286272283 -0.3061623059
-0.1224649224 0.4898596895 -0.3673947671
-0.0612324612 0.5510921507 -0.4286272283
0.0000000000 0.6123246119 -0.4898596895
-0.4898596895 -0.0000000000 0.1224649224
-0.4286272283 0.0612324612 0.0612324612
-0.3673947671 0.1224649224 0.0000000000
-0.3061623059 0.1836973836 -0.0612324612
-0.2449298447 0.2449298447 -0.1224649224
-0.1836973836 0.3061623059 -0.1836973836
-0.1224649224 0.3673947671 -0.2449298447
-0.0612324612 0.4286272283 -0.3061623059
0.0000000000 0.4898596895 -0.3673947671
0.0612324612 0.5510921507 -0.4286272283
-0.4286272283 -0.0612324612 0.1836973836
-0.3673947671 -0.0000000000 0.1224649224
-0.3061623059 0.0612324612 0.0612324612
-0.2449298447 0.1224649224 -0.0000000000
-0.1836973836 0.1836973836 -0.0612324612
-0.1224649224 0.2449298447 -0.1224649224
-0.0612324612 0.3061623059 -0.1836973836
0.0000000000 0.3673947671 -0.2449298447
0.0612324612 0.4286272283 -0.3061623059
0.1224649224 0.4898596895 -0.3673947671
-0.3673947671 -0.1224649224 0.2449298447
-0.3061623059 -0.0612324612 0.1836973836
-0.2449298447 -0.0000000000 0.1224649224
-0.1836973836 0.0612324612 0.0612324612
-0.1224649224 0.1224649224 0.0000000000
-0.0612324612 0.1836973836 -0.0612324612
0.0000000000 0.2449298447 -0.1224649224
0.0612324612 0.3061623059 -0.1836973836
0.1224649224 0.3673947671 -0.2449298447
0.1836973836 0.4286272283 -0.3061623059
-0.3061623059 -0.1836973836 0.3061623059
-0.2449298447 -0.1224649224 0.2449298447
-0.1836973836 -0.0612324612 0.1836973836
-0.1224649224 0.0000000000 0.1224649224
-0.0612324612 0.0612324612 0.0612324612
0.0000000000 0.1224649224 0.0000000000
0.0612324612 0.1836973836 -0.0612324612
0.1224649224 0.2449298447 -0.1224649224
0.1836973836 0.3061623059 -0.1836973836
0.2449298447 0.3673947671 -0.2449298447
-0.2449298447 -0.2449298447 0.3673947671
-0.1836973836 -0.1836973836 0.3061623059
-0.1224649224 -0.1224649224 0.2449298447
-0.0612324612 -0.0612324612 0.1836973836
0.0000000000 0.0000000000 0.1224649224
0.0612324612 0.0612324612 0.0612324612
0.1224649224 0.1224649224 0.0000000000
0.1836973836 0.1836973836 -0.0612324612
0.2449298447 0.2449298447 -0.1224649224
0.3061623059 0.3061623059 -0.1836973836
-0.1836973836 -0.3061623059 0.4286272283
-0.1224649224 -0.2449298447 0.3673947671
-0.0612324612 -0.1836973836 0.3061623059
0.0000000000 -0.1224649224 0.2449298447
0.0612324612 -0.0612324612 0.1836973836
0.1224649224 0.0000000000 0.1224649224
0.1836973836 0.0612324612 0.0612324612
0.2449298447 0.1224649224 0.0000000000
0.3061623059 0.1836973836 -0.0612324612
0.3673947671 0.2449298447 -0.1224649224
-0.1224649224 -0.3673947671 0.4898596895
-0.0612324612 -0.3061623059 0.4286272283
-0.0000000000 -0.2449298447 0.3673947671
0.0612324612 -0.1836973836 0.3061623059
0.1224649224 -0.1224649224 0.2449298447
0.1836973836 -0.0612324612 0.1836973836
0.2449298447 0.0000000000 0.1224649224
0.3061623059 0.0612324612 0.0612324612
0.3673947671 0.1224649224 0.0000000000
0.4286272283 0.1836973836 -0.0612324612
-0.0612324612 -0.4286272283 0.5510921507
-0.0000000000 -0.3673947671 0.4898596895
0.0612324612 -0.3061623059 0.4286272283
0.1224649224 -0.2449298447 0.3673947671
0.1836973836 -0.1836973836 0.3061623059
0.2449298447 -0.1224649224 0.2449298447
0.3061623059 -0.0612324612 0.1836973836
0.3673947671 0.0000000000 0.1224649224
0.4286272283 0.0612324612 0.0612324612
0.4898596895 0.1224649224 0.0000000000
-0.0000000000 -0.4898596895 0.6123246119
0.0612324612 -0.4286272283 0.5510921507
0.1224649224 -0.3673947671 0.4898596895
0.1836973836 -0.3061623059 0.4286272283
0.2449298447 -0.2449298447 0.3673947671
0.3061623059 -0.1836973836 0.3061623059
0.3673947671 -0.1224649224 0.2449298447
0.4286272283 -0.0612324612 0.1836973836
0.4898596895 0.0000000000 0.1224649224
0.5510921507 0.0612324612 0.0612324612
-0.6123246119 0.1224649224 0.1224649224
-0.5510921507 0.1836973836 0.0612324612
-0.4898596895 0.2449298447 -0.0000000000
-0.4286272283 0.3061623059 -0.0612324612
-0.3673947671 0.3673947671 -0.1224649224
-0.3061623059 0.4286272283 -0.1836973836
-0.2449298447 0.4898596895 -0.2449298447
-0.1836973836 0.5510921507 -0.3061623059
-0.1224649224 0.6123246119 -0.3673947671
-0.0612324612 0.6735570730 -0.4286272283
-0.5510921507 0.0612324612 0.1836973836
-0.4898596895 0.1224649224 0.1224649224
-0.4286272283 0.1836973836 0.0612324612
-0.3673947671 0.2449298447 -0.0000000000
-0.3061623059 0.3061623059 -0.0612324612
-0.2449298447 0.3673947671 -0.1224649224
-0.1836973836 0.4286272283 -0.1836973836
-0.1224649224 0.4898596895 -0.2449298447
-0.0612324612 0.5510921507 -0.3061623059
0.0000000000 0.6123246119 -0.3673947671
-0.4898596895 -0.0000000000 0.2449298447
-0.4286272283 0.0612324612 0.1836973836
-0.3673947671 0.1224649224 0.1224649224
-0.3061623059 0.1836973836 0.0612324612
-0.2449298447 0.2449298447 -0.0000000000
-0.1836973836 0.3061623059 -0.0612324612
-0.1224649224 0.3673947671 -0.1224649224
-0.0612324612 0.4286272283 -0.1836973836
0.0000000000 0.4898596895 -0.2449298447
0.0612324612 0.5510921507 -0.3061623059
-0.4286272283 -0.0612324612 0.3061623059
-0.3673947671 0.0000000000 0.2449298447
-0.3061623059 0.0612324612 0.1836973836
-0.2449298447 0.1224649224 0.1224649224
-0.1836973836 0.1836973836 0.0612324612
-0.1224649224 0.2449298447 0.0000000000
-0.0612324612 0.3061623059 -0.0612324612
0.0000000000 0.3673947671 -0.1224649224
0.0612324612 0.4286272283 -0.1836973836
0.1224649224 0.4898596895 -0.2449298447
-0.3673947671 -0.1224649224 0.3673947671
-0.3061623059 -0.0612324612 0.3061623059
-0.2449298447 0.0000000000 0.2449298447
-0.1836973836 0.0612324612 0.1836973836
-0.1224649224 0.1224649224 0.1224649224
-0.0612324612 0.1836973836 0.0612324612
0.0000000000 0.2449298447 0.0000000000
0.0612324612 0.3061623059 -0.0612324612
0.1224649224 0.3673947671 -0.1224649224
0.1836973836 0.4286272283 -0.1836973836
-0.3061623059 -0.1836973836 0.4286272283
-0.2449298447 -0.1224649224 0.3673947671
-0.1836973836 -0.0612324612 0.3061623059
-0.1224649224 0.0000000000 0.2449298447
-0.0612324612 0.0612324612 0.1836973836
0.0000000000 0.1224649224 0.1224649224
0.0612324612 0.1836973836 0.0612324612
0.1224649224 0.2449298447 0.0000000000
0.1836973836 0.3061623059 -0.0612324612
0.2449298447 0.3673947671 -0.1224649224
-0.2449298447 -0.2449298447 0.4898596895
-0.1836973836 -0.1836973836 0.4286272283
-0.1224649224 -0.1224649224 0.3673947671
-0.0612324612 -0.0612324612 0.3061623059
0.0000000000 0.0000000000 0.2449298447
0.0612324612 0.0612324612 0.1836973836
0.1224649224 0.1224649224 0.1224649224
0.1836973836 0.1836973836 0.0612324612
0.2449298447 0.2449298447 0.0000000000
0.3061623059 0.3061623059 -0.0612324612
-0.1836973836 -0.3061623059 0.5510921507
-0.1224649224 -0.2449298447 0.4898596895
-0.0612324612 -0.1836973836 0.4286272283
0.0000000000 -0.1224649224 0.3673947671
0.0612324612 -0.0612324612 0.3061623059
0.1224649224 0.0000000000 0.2449298447
0.1836973836 0.0612324612 0.1836973836
0.2449298447 0.1224649224 0.1224649224
0.3061623059 0.1836973836 0.0612324612
0.3673947671 0.2449298447 0.0000000000
-0.1224649224 -0.3673947671 0.6123246119
-0.0612324612 -0.3061623059 0.5510921507
-0.0000000000 -0.2449298447 0.4898596895
0.0612324612 -0.1836973836 0.4286272283
0.1224649224 -0.1224649224 0.3673947671
0.1836973836 -0.0612324612 0.3061623059
0.2449298447 0.0000000000 0.2449298447
0.3061623059 0.0612324612 0.1836973836
0.3673947671 0.1224649224 0.1224649224
0.4286272283 0.1836973836 0.0612324612
-0.0612324612 -0.4286272283 0.6735570730
0.0000000000 -0.3673947671 0.6123246119
0.0612324612 -0.3061623059 0.5510921507
0.1224649224 -0.2449298447 0.4898596895
0.1836973836 -0.1836973836 0.4286272283
0.2449298447 -0.1224649224 0.3673947671
0.3061623059 -0.0612324612 0.3061623059
0.3673947671 0.0000000000 0.2449298447
0.4286272283 0.0612324612 0.1836973836
0.4898596895 0.1224649224 0.1224649224
-0.6735570730 0.1836973836 0.1836973836
-0.6123246119 0.2449298447 0.1224649224
-0.5510921507 0.3061623059 0.0612324612
-0.4898596895 0.3673947671 -0.0000000000
-0.4286272283 0.4286272283 -0.0612324612
-0.3673947671 0.4898596895 -0.1224649224
-0.3061623059 0.5510921507 -0.1836973836
-0.2449298447 0.6123246119 -0.2449298447
-0.1836973836 0.6735570730 -0.3061623059
-0.1224649224 0.7347895342 -0.3673947671
-0.6123246119 0.1224649224 0.2449298447
-0.5510921507 0.1836973836 0.1836973836
-0.4898596895 0.2449298447 0.1224649224
-0.4286272283 0.3061623059 0.0612324612
-0.3673947671 0.3673947671 -0.0000000000
-0.3061623059 0.4286272283 -0.0612324612
-0.2449298447 0.4898596895 -0.1224649224
-0.1836973836 0.5510921507 -0.1836973836
-0.1224649224 0.6123246119 -0.2449298447
-0.0612324612 0.6735570730 -0.3061623059
-0.5510921507 0.0612324612 0.3061623059
-0.4898596895 0.1224649224 0.2449298447
-0.4286272283 0.1836973836 0.1836973836
-0.3673947671 0.2449298447 0.1224649224
-0.3061623059 0.3061623059 0.0612324612
-0.2449298447 0.3673947671 -0.0000000000
-0.1836973836 0.4286272283 -0.0612324612
-0.1224649224 0.4898596895 -0.1224649224
-0.0612324612 0.5510921507 -0.1836973836
0.0000000000 0.6123246119 -0.2449298447
-0.4898596895 -0.0000000000 0.3673947671
-0.4286272283 0.0612324612 0.3061623059
-0.3673947671 0.1224649224 0.2449298447
-0.3061623059 0.1836973836 0.1836973836
-0.2449298447 0.2449298447 0.1224649224
-0.1836973836 0.3061623059 0.0612324612
-0.1224649224 0.3673947671 -0.0000000000
-0.0612324612 0.4286272283 -0.0612324612
0.0000000000 0.4898596895 -0.1224649224
0.0612324612 0.5510921507 -0.1836973836
-0.4286272283 -0.0612324612 0.4286272283
-0.3673947671 0.0000000000 0.3673947671
-0.3061623059 0.0612324612 0.3061623059
-0.2449298447 0.1224649224 0.2449298447
-0.1836973836 0.1836973836 0.1836973836
-0.1224649224 0.2449298447 0.1224649224
-0.0612324612 0.3061623059 0.0612324612
0.0000000000 0.3673947671 0.0000000000
0.0612324612 0.4286272283 -0.0612324612
0.1224649224 0.4898596895 -0.1224649224
-0.3673947671 -0.1224649224 0.4898596895
-0.3061623059 -0.0612324612 0.4286272283
-0.2449298447 0.0000000000 0.3673947671
-0.1836973836 0.0612324612 0.3061623059
-0.1224649224 0.1224649224 0.2449298447
-0.0612324612 0.1836973836 0.1836973836
0.0000000000 0.2449298447 0.1224649224
0.0612324612 0.3061623059 0.0612324612
0.1224649224 0.3673947671 0.0000000000
0.1836973836 0.4286272283 -0.0612324612
-0.3061623059 -0.1836973836 0.5510921507
-0.2449298447 -0.1224649224 0.4898596895
-0.1836973836 -0.0612324612 0.4286272283
-0.1224649224 0.0000000000 0.3673947671
-0.0612324612 0.0612324612 0.3061623059
0.0000000000 0.1224649224 0.2449298447
0.0612324612 0.1836973836 0.1836973836
0.1224649224 0.2449298447 0.1224649224
0.1836973836 0.3061623059 0.0612324612
0.2449298447 0.3673947671 0.0000000000
-0.2449298447 -0.2449298447 0.6123246119
-0.1836973836 -0.1836973836 0.5510921507
-0.1224649224 -0.1224649224 0.4898596895
-0.0612324612 -0.0612324612 0.4286272283
0.0000000000 0.0000000000 0.3673947671
0.0612324612 0.0612324612 0.3061623059
0.1224649224 0.1224649224 0.2449298447
0.1836973836 0.1836973836 0.1836973836
0.2449298447 0.2449298447 0.1224649224
0.3061623059 0.3061623059 0.0612324612
-0.1836973836 -0.3061623059 0.6735570730
-0.1224649224 -0.2449298447 0.6123246119
-0.0612324612 -0.1836973836 0.5510921507
0.0000000000 -0.1224649224 0.4898596895
0.0612324612 -0.0612324612 0.4286272283
0.1224649224 0.0000000000 0.3673947671
0.1836973836 0.0612324612 0.3061623059
0.2449298447 0.1224649224 0.2449298447
0.3061623059 0.1836973836 0.1836973836
0.3673947671 0.2449298447 0.1224649224
-0.1224649224 -0.3673947671 0.7347895342
-0.0612324612 -0.3061623059 0.6735570730
0.0000000000 -0.2449298447 0.6123246119
0.0612324612 -0.1836973836 0.5510921507
0.1224649224 -0.1224649224 0.4898596895
0.1836973836 -0.0612324612 0.4286272283
0.2449298447 0.0000000000 0.3673947671
0.3061623059 0.0612324612 0.3061623059
0.3673947671 0.1224649224 0.2449298447
0.4286272283 0.1836973836 0.1836973836
-0.7347895342 0.2449298447 0.2449298447
-0.6735570730 0.3061623059 0.1836973836
-0.6123246119 0.3673947671 0.1224649224
-0.5510921507 0.4286272283 0.0612324612
-0.4898596895 0.4898596895 -0.0000000000
-0.4286272283 0.5510921507 -0.0612324612
-0.3673947671 0.6123246119 -0.1224649224
-0.3061623059 0.6735570730 -0.1836973836
-0.2449298447 0.7347895342 -0.2449298447
-0.1836973836 0.7960219954 -0.3061623059
-0.6735570730 0.1836973836 0.3061623059
-0.6123246119 0.2449298447 0.2449298447
-0.5510921507 0.3061623059 0.1836973836
-0.4898596895 0.3673947671 0.1224649224
-0.4286272283 0.4286272283 0.0612324612
-0.3673947671 0.4898596895 -0.0000000000
-0.3061623059 0.5510921507 -0.0612324612
-0.2449298447 0.6123246119 -0.1224649224
-0.1836973836 0.6735570730 -0.1836973836
-0.1224649224 0.7347895342 -0.2449298447
-0.6123246119 0.1224649224 0.3673947671
-0.5510921507 0.1836973836 0.3061623059
-0.4898596895 0.2449298447 0.2449298447
-0.4286272283 0.3061623059 0.1836973836
-0.3673947671 0.3673947671 0.1224649224
-0.3061623059 0.4286272283 0.0612324612
-0.2449298447 0.4898596895 -0.0000000000
-0.1836973836 0.5510921507 -0.0612324612
-0.1224649224 0.6123246119 -0.1224649224
-0.0612324612 0.6735570730 -0.1836973836
-0.5510921507 0.0612324612 0.4286272283
-0.4898596895 0.1224649224 0.3673947671
-0.4286272283 0.1836973836 0.3061623059
-0.3673947671 0.2449298447 0.2449298447
-0.3061623059 0.3061623059 0.1836973836
-0.2449298447 0.3673947671 0.1224649224
-0.1836973836 0.4286272283 0.0612324612
-0.1224649224 0.4898596895 -0.0000000000
-0.0612324612 0.5510921507 -0.0612324612
0.0000000000 0.6123246119 -0.1224649224
-0.4898596895 -0.0000000000 0.4898596895
-0.4286272283 0.0612324612 0.4286272283
-0.3673947671 0.1224649224 0.3673947671
-0.3061623059 0.1836973836 0.3061623059
-0.2449298447 0.2449298447 0.2449298447
-0.1836973836 0.3061623059 0.1836973836
-0.1224649224 0.3673947671 0.1224649224
-0.0612324612 0.4286272283 0.0612324612
0.0000000000 0.4898596895 0.0000000000
0.0612324612 0.5510921507 -0.0612324612
-0.4286272283 -0.0612324612 0.5510921507
-0.3673947671 0.0000000000 0.4898596895
-0.3061623059 0.0612324612 0.4286272283
-0.2449298447 0.1224649224 0.3673947671
-0.1836973836 0.1836973836 0.3061623059
-0.1224649224 0.2449298447 0.2449298447
-0.0612324612 0.3061623059 0.1836973836
0.0000000000 0.3673947671 0.1224649224
0.0612324612 0.4286272283 0.0612324612
0.1224649224 0.4898596895 0.0000000000
-0.3673947671 -0.1224649224 0.6123246119
-0.3061623059 -0.0612324612 0.5510921507
-0.2449298447 0.0000000000 0.4898596895
-0.1836973836 0.0612324612 0.4286272283
-0.1224649224 0.1224649224 0.3673947671
-0.0612324612 0.1836973836 0.3061623059
0.0000000000 0.2449298447 0.2449298447
0.0612324612 0.3061623059 0.1836973836
0.1224649224 0.3673947671 0.1224649224
0.1836973836 0.4286272283 0.0612324612
-0.3061623059 -0.1836973836 0.6735570730
-0.2449298447 -0.1224649224 0.6123246119
-0.1836973836 -0.0612324612 0.5510921507
-0.1224649224 0.0000000000 0.4898596895
-0.0612324612 0.0612324612 0.4286272283
0.0000000000 0.1224649224 0.3673947671
0.0612324612 0.1836973836 0.3061623059
0.1224649224 0.2449298447 0.2449298447
0.1836973836 0.3061623059 0.1836973836
0.2449298447 0.3673947671 0.1224649224
-0.2449298447 -0.2449298447 0.7347895342
-0.1836973836 -0.1836973836 0.6735570730
-0.1224649224 -0.1224649224 0.6123246119
-0.0612324612 -0.0612324612 0.5510921507
0.0000000000 0.0000000000 0.4898596895
0.0612324612 0.0612324612 0.4286272283
0.1224649224 0.1224649224 0.3673947671
0.1836973836 0.1836973836 0.3061623059
0.2449298447 0.2449298447 0.2449298447
0.3061623059 0.3061623059 0.1836973836
-0.1836973836 -0.3061623059 0.7960219954
-0.1224649224 -0.2449298447 0.7347895342
-0.0612324612 -0.1836973836 0.6735570730
0.0000000000 -0.1224649224 0.6123246119
0.0612324612 -0.0612324612 0.5510921507
0.1224649224 0.0000000000 0.4898596895
0.1836973836 0.0612324612 0.4286272283
0.2449298447 0.1224649224 0.3673947671
0.3061623059 0.1836973836 0.3061623059
0.3673947671 0.2449298447 0.2449298447
-0.7960219954 0.3061623059 0.3061623059
-0.7347895342 0.3673947671 0.2449298447
-0.6735570730 0.4286272283 0.1836973836
-0.6123246119 0.4898596895 0.1224649224
-0.5510921507 0.5510921507 0.0612324612
-0.4898596895 0.6123246119 -0.0000000000
-0.4286272283 0.6735570730 -0.0612324612
-0.3673947671 0.7347895342 -0.1224649224
-0.3061623059 0.7960219954 -0.1836973836
-0.2449298447 0.8572544566 -0.2449298447
-0.7347895342 0.2449298447 0.3673947671
-0.6735570730 0.3061623059 0.3061623059
-0.6123246119 0.3673947671 0.2449298447
-0.5510921507 0.4286272283 0.1836973836
-0.4898596895 0.4898596895 0.1224649224
-0.4286272283 0.5510921507 0.0612324612
-0.3673947671 0.6123246119 -0.0000000000
-0.3061623059 0.6735570730 -0.0612324612
-0.2449298447 0.7347895342 -0.1224649224
-0.1836973836 0.7960219954 -0.1836973836
-0.6735570730 0.1836973836 0.4286272283
-0.6123246119 0.2449298447 0.3673947671
-0.5510921507 0.3061623059 0.3061623059
-0.4898596895 0.3673947671 0.2449298447
-0.4286272283 0.4286272283 0.1836973836
-0.3673947671 0.4898596895 0.1224649224
-0.3061623059 0.5510921507 0.0612324612
-0.2449298447 0.6123246119 0.0000000000
-0.1836973836 0.6735570730 -0.0612324612
-0.1224649224 0.7347895342 -0.1224649224
-0.6123246119 0.1224649224 0.4898596895
-0.5510921507 0.1836973836 0.4286272283
-0.4898596895 0.2449298447 0.3673947671
-0.4286272283 0.3061623059 0.3061623059
-0.3673947671 0.3673947671 0.2449298447
-0.3061623059 0.4286272283 0.1836973836
-0.2449298447 0.4898596895 0.1224649224
-0.1836973836 0.5510921507 0.0612324612
-0.1224649224 0.6123246119 0.0000000000
-0.0612324612 0.6735570730 -0.0612324612
-0.5510921507 0.0612324612 0.5510921507
-0.4898596895 0.1224649224 0.4898596895
-0.4286272283 0.1836973836 0.4286272283
-0.3673947671 0.2449298447 0.3673947671
-0.3061623059 0.3061623059 0.3061623059
-0.2449298447 0.3673947671 0.2449298447
-0.1836973836 0.4286272283 0.1836973836
-0.1224649224 0.4898596895 0.1224649224
-0.0612324612 0.5510921507 0.0612324612
0.0000000000 0.6123246119 0.0000000000
-0.4898596895 0.0000000000 0.6123246119
-0.4286272283 0.0612324612 0.5510921507
-0.3673947671 0.1224649224 0.4898596895
-0.3061623059 0.1836973836 0.4286272283
-0.2449298447 0.2449298447 0.3673947671
-0.1836973836 0.3061623059 0.3061623059
-0.1224649224 0.3673947671 0.2449298447
-0.0612324612 0.4286272283 0.1836973836
0.0000000000 0.4898596895 0.1224649224
0.0612324612 0.5510921507 0.0612324612
-0.4286272283 -0.0612324612 0.6735570730
-0.3673947671 0.0000000000 0.6123246119
-0.3061623059 0.0612324612 0.5510921507
-0.2449298447 0.1224649224 0.4898596895
-0.1836973836 0.1836973836 0.4286272283
-0.1224649224 0.2449298447 0.3673947671
-0.0612324612 0.3061623059 0.3061623059
0.0000000000 0.3673947671 0.2449298447
0.0612324612 0.4286272283 0.1836973836
0.1224649224 0.4898596895 0.1224649224
-0.3673947671 -0.1224649224 0.7347895342
-0.3061623059 -0.0612324612 0.6735570730
-0.2449298447 0.0000000000 0.6123246119
-0.1836973836 0.0612324612 0.5510921507
-0.1224649224 0.1224649224 0.4898596895
-0.0612324612 0.1836973836 0.4286272283
0.0000000000 0.2449298447 0.3673947671
0.0612324612 0.3061623059 0.3061623059
0.1224649224 0.3673947671 0.2449298447
0.1836973836 0.4286272283 0.1836973836
-0.3061623059 -0.1836973836 0.7960219954
-0.2449298447 -0.1224649224 0.7347895342
-0.1836973836 -0.0612324612 0.6735570730
-0.1224649224 0.0000000000 0.6123246119
-0.0612324612 0.0612324612 0.5510921507
0.0000000000 0.1224649224 0.4898596895
0.0612324612 0.1836973836 0.4286272283
0.1224649224 0.2449298447 0.3673947671
0.1836973836 0.3061623059 0.3061623059
0.2449298447 0.3673947671 0.2449298447
-0.2449298447 -0.2449298447 0.8572544566
-0.1836973836 -0.1836973836 0.7960219954
-0.1224649224 -0.1224649224 0.7347895342
-0.0612324612 -0.0612324612 0.6735570730
0.0000000000 0.0000000000 0.6123246119
0.0612324612 0.0612324612 0.5510921507
0.1224649224 0.1224649224 0.4898596895
0.1836973836 0.1836973836 0.4286272283
0.2449298447 0.2449298447 0.3673947671
0.3061623059 0.3061623059 0.3061623059
 There are 14 alpha and 14 beta electrons
 Start computing overlap matrix
 Allocate 222784000 B from available memory: 1048575734752 B
 Time for computing overlap matrix: 3.9270000000 s
 ====== Initialize compute kernels for all-electron RI-J (kpts) ====== 
 ========================================================== 
 Range-separated parameter omega        = 0.900000000000000022
 Threshold for 1e2c shellpair           = 0.000000000000010000
 Threshold for 2e2c SR integral         = 0.000000000000000001
 Threshold for 2e3c SR integral         = 0.000000000100000000
 Threshold for AFT G-space screening is = 0.000000000001000000
 The exponent cutoff for C/D classification (omega2 / 2) is  = 0.405000000000000027
 ========================================================== 
 === Post process the basis set for RI calculation (exp_cutoff = 0.405000000000000027 ) === 
nshells_b1 before uncontraction = 28
nshells_b1 after uncontraction = 28
nshells_baux before uncontraction = 80
nshells_baux after uncontraction = 80
===============================================
nbsf total   = 118
nbsf compact = 60
nbsf diffuse = 58
naux total   = 296
naux compact = 296
naux diffuse = 0
nshells_bnuc = 2

 Number of unique atoms is 1
 Unique atom #0 (si) has 5 shells.

Shell 0 to 4 belongs to atom si
Shell 5 to 9 belongs to atom si

 Number of unique atoms is 1
 Unique atom #0 (si) has 9 shells.

Shell 0 to 8 belongs to atom si
Shell 9 to 17 belongs to atom si

 Number of unique atom is 1
 Unique atom #0 (si) has 40 auxiliary shells.

Auxiliary Shell 0 to 39 belongs to atom si
Auxiliary Shell 40 to 79 belongs to atom si

================= Automatically determine grid size for reciprocal space summation =================
 Range-separated parameter = 0.90000000000000 and G-space screening threshold = 0.00000000000100
The number of grid points along each axis dimension is (10, 10, 10)
Total number of grid points = 9261

Use nonortho shellpair for diffuse density
======== Initializing relevant kernel for RIJ (DD type) ========
There are 171 shellpairs in the reference unit cell
There are 3661 images and we expect to have 626031 in total
There are 23126 shellpairs in the lattice sum after screening
======== Initializing relevant kernel for RIJ (CD type) ========
There are 180 shellpairs in the reference unit cell
There are 2395 images and we expect to have 431100 in total
There are 12134 shellpairs in the lattice sum after screening
****** AFT -> SR ******
Maximum bra distance cutoff is 23.000000000000
Maximum bra ket distance cutoff is 20.611302005944
Maximum bra ket screening distance is 19.000000000000
Number of auxiliary image is 551
There are 180 shellpairs in the reference unit cell
There are 551 images and we expect to have 99180 in total
There are 12134 shellpairs in the lattice sum after screening
Available memory per thread for 2e3c calculation is 32.761029711000Gb
Finish initializing 2e3c SR with the lattice sum!
=================================================
======== Initializing relevant kernel for RIJ (CC type) ========
There are 55 shellpairs in the reference unit cell
There are 695 images and we expect to have 38225 in total
There are 694 shellpairs in the lattice sum after screening
****** AFT -> SR ******
Maximum bra distance cutoff is 11.000000000000
Maximum bra ket distance cutoff is 21.062500000000
Maximum bra ket screening distance is 18.718750000000
Number of auxiliary image is 455
There are 55 shellpairs in the reference unit cell
There are 117 images and we expect to have 6435 in total
There are 694 shellpairs in the lattice sum after screening
Available memory per thread for 2e3c calculation is 32.761029711000Gb
Finish initializing 2e3c SR with the lattice sum!
=================================================
======== Initializing the SR component for Vnuc (CD type) ========
Maximum bra distance cutoff is 23.000000000000
Maximum bra ket distance cutoff is 11.920357219976
Maximum bra ket screening distance is 9.960251940080
Number of auxiliary image is 551
There are 180 shellpairs in the reference unit cell
There are 551 images and we expect to have 99180 in total
There are 12134 shellpairs in the lattice sum after screening
Available memory per thread for 2e3c calculation is 32.761029711000Gb
Finish initializing 2e3c SR with the lattice sum!
=================================================
======== Initialize the SR component for Vnuc (CC type) ========
Maximum bra distance cutoff is 11.000000000000
Maximum bra ket distance cutoff is 13.059451665625
Maximum bra ket screening distance is 9.261023449952
Number of auxiliary image is 213
There are 55 shellpairs in the reference unit cell
There are 117 images and we expect to have 6435 in total
There are 694 shellpairs in the lattice sum after screening
Available memory per thread for 2e3c calculation is 32.761029711000Gb
Finish initializing 2e3c SR with the lattice sum!
=================================================
 Aufbau occupation scheme, occupation determined by eigenvalue
 == 0-th k-point nmo = 114 (-0.24493,-0.24493,-0.24493) ==
 == 1-th k-point nmo = 114 (-0.18370,-0.18370,-0.30616) ==
 == 2-th k-point nmo = 114 (-0.12246,-0.12246,-0.36739) ==
 == 3-th k-point nmo = 114 (-0.06123,-0.06123,-0.42863) ==
 == 4-th k-point nmo = 114 (-0.00000,-0.00000,-0.48986) ==
 == 5-th k-point nmo = 114 (0.06123,0.06123,-0.55109) ==
 == 6-th k-point nmo = 114 (0.12246,0.12246,-0.61232) ==
 == 7-th k-point nmo = 114 (0.18370,0.18370,-0.67356) ==
 == 8-th k-point nmo = 114 (0.24493,0.24493,-0.73479) ==
 == 9-th k-point nmo = 114 (0.30616,0.30616,-0.79602) ==
 == 10-th k-point nmo = 114 (-0.18370,-0.30616,-0.18370) ==
 == 11-th k-point nmo = 114 (-0.12246,-0.24493,-0.24493) ==
 == 12-th k-point nmo = 114 (-0.06123,-0.18370,-0.30616) ==
 == 13-th k-point nmo = 114 (-0.00000,-0.12246,-0.36739) ==
 == 14-th k-point nmo = 114 (0.06123,-0.06123,-0.42863) ==
 == 15-th k-point nmo = 114 (0.12246,-0.00000,-0.48986) ==
 == 16-th k-point nmo = 114 (0.18370,0.06123,-0.55109) ==
 == 17-th k-point nmo = 114 (0.24493,0.12246,-0.61232) ==
 == 18-th k-point nmo = 114 (0.30616,0.18370,-0.67356) ==
 == 19-th k-point nmo = 114 (0.36739,0.24493,-0.73479) ==
 == 20-th k-point nmo = 114 (-0.12246,-0.36739,-0.12246) ==
 == 21-th k-point nmo = 114 (-0.06123,-0.30616,-0.18370) ==
 == 22-th k-point nmo = 114 (-0.00000,-0.24493,-0.24493) ==
 == 23-th k-point nmo = 114 (0.06123,-0.18370,-0.30616) ==
 == 24-th k-point nmo = 114 (0.12246,-0.12246,-0.36739) ==
 == 25-th k-point nmo = 114 (0.18370,-0.06123,-0.42863) ==
 == 26-th k-point nmo = 114 (0.24493,-0.00000,-0.48986) ==
 == 27-th k-point nmo = 114 (0.30616,0.06123,-0.55109) ==
 == 28-th k-point nmo = 114 (0.36739,0.12246,-0.61232) ==
 == 29-th k-point nmo = 114 (0.42863,0.18370,-0.67356) ==
 == 30-th k-point nmo = 114 (-0.06123,-0.42863,-0.06123) ==
 == 31-th k-point nmo = 114 (-0.00000,-0.36739,-0.12246) ==
 == 32-th k-point nmo = 114 (0.06123,-0.30616,-0.18370) ==
 == 33-th k-point nmo = 114 (0.12246,-0.24493,-0.24493) ==
 == 34-th k-point nmo = 114 (0.18370,-0.18370,-0.30616) ==
 == 35-th k-point nmo = 114 (0.24493,-0.12246,-0.36739) ==
 == 36-th k-point nmo = 114 (0.30616,-0.06123,-0.42863) ==
 == 37-th k-point nmo = 114 (0.36739,-0.00000,-0.48986) ==
 == 38-th k-point nmo = 114 (0.42863,0.06123,-0.55109) ==
 == 39-th k-point nmo = 114 (0.48986,0.12246,-0.61232) ==
 == 40-th k-point nmo = 114 (-0.00000,-0.48986,0.00000) ==
 == 41-th k-point nmo = 114 (0.06123,-0.42863,-0.06123) ==
 == 42-th k-point nmo = 114 (0.12246,-0.36739,-0.12246) ==
 == 43-th k-point nmo = 114 (0.18370,-0.30616,-0.18370) ==
 == 44-th k-point nmo = 114 (0.24493,-0.24493,-0.24493) ==
 == 45-th k-point nmo = 114 (0.30616,-0.18370,-0.30616) ==
 == 46-th k-point nmo = 114 (0.36739,-0.12246,-0.36739) ==
 == 47-th k-point nmo = 114 (0.42863,-0.06123,-0.42863) ==
 == 48-th k-point nmo = 114 (0.48986,-0.00000,-0.48986) ==
 == 49-th k-point nmo = 114 (0.55109,0.06123,-0.55109) ==
 == 50-th k-point nmo = 114 (0.06123,-0.55109,0.06123) ==
 == 51-th k-point nmo = 114 (0.12246,-0.48986,-0.00000) ==
 == 52-th k-point nmo = 114 (0.18370,-0.42863,-0.06123) ==
 == 53-th k-point nmo = 114 (0.24493,-0.36739,-0.12246) ==
 == 54-th k-point nmo = 114 (0.30616,-0.30616,-0.18370) ==
 == 55-th k-point nmo = 114 (0.36739,-0.24493,-0.24493) ==
 == 56-th k-point nmo = 114 (0.42863,-0.18370,-0.30616) ==
 == 57-th k-point nmo = 114 (0.48986,-0.12246,-0.36739) ==
 == 58-th k-point nmo = 114 (0.55109,-0.06123,-0.42863) ==
 == 59-th k-point nmo = 114 (0.61232,0.00000,-0.48986) ==
 == 60-th k-point nmo = 114 (0.12246,-0.61232,0.12246) ==
 == 61-th k-point nmo = 114 (0.18370,-0.55109,0.06123) ==
 == 62-th k-point nmo = 114 (0.24493,-0.48986,0.00000) ==
 == 63-th k-point nmo = 114 (0.30616,-0.42863,-0.06123) ==
 == 64-th k-point nmo = 114 (0.36739,-0.36739,-0.12246) ==
 == 65-th k-point nmo = 114 (0.42863,-0.30616,-0.18370) ==
 == 66-th k-point nmo = 114 (0.48986,-0.24493,-0.24493) ==
 == 67-th k-point nmo = 114 (0.55109,-0.18370,-0.30616) ==
 == 68-th k-point nmo = 114 (0.61232,-0.12246,-0.36739) ==
 == 69-th k-point nmo = 114 (0.67356,-0.06123,-0.42863) ==
 == 70-th k-point nmo = 114 (0.18370,-0.67356,0.18370) ==
 == 71-th k-point nmo = 114 (0.24493,-0.61232,0.12246) ==
 == 72-th k-point nmo = 114 (0.30616,-0.55109,0.06123) ==
 == 73-th k-point nmo = 114 (0.36739,-0.48986,-0.00000) ==
 == 74-th k-point nmo = 114 (0.42863,-0.42863,-0.06123) ==
 == 75-th k-point nmo = 114 (0.48986,-0.36739,-0.12246) ==
 == 76-th k-point nmo = 114 (0.55109,-0.30616,-0.18370) ==
 == 77-th k-point nmo = 114 (0.61232,-0.24493,-0.24493) ==
 == 78-th k-point nmo = 114 (0.67356,-0.18370,-0.30616) ==
 == 79-th k-point nmo = 114 (0.73479,-0.12246,-0.36739) ==
 == 80-th k-point nmo = 114 (0.24493,-0.73479,0.24493) ==
 == 81-th k-point nmo = 114 (0.30616,-0.67356,0.18370) ==
 == 82-th k-point nmo = 114 (0.36739,-0.61232,0.12246) ==
 == 83-th k-point nmo = 114 (0.42863,-0.55109,0.06123) ==
 == 84-th k-point nmo = 114 (0.48986,-0.48986,0.00000) ==
 == 85-th k-point nmo = 114 (0.55109,-0.42863,-0.06123) ==
 == 86-th k-point nmo = 114 (0.61232,-0.36739,-0.12246) ==
 == 87-th k-point nmo = 114 (0.67356,-0.30616,-0.18370) ==
 == 88-th k-point nmo = 114 (0.73479,-0.24493,-0.24493) ==
 == 89-th k-point nmo = 114 (0.79602,-0.18370,-0.30616) ==
 == 90-th k-point nmo = 114 (0.30616,-0.79602,0.30616) ==
 == 91-th k-point nmo = 114 (0.36739,-0.73479,0.24493) ==
 == 92-th k-point nmo = 114 (0.42863,-0.67356,0.18370) ==
 == 93-th k-point nmo = 114 (0.48986,-0.61232,0.12246) ==
 == 94-th k-point nmo = 114 (0.55109,-0.55109,0.06123) ==
 == 95-th k-point nmo = 114 (0.61232,-0.48986,0.00000) ==
 == 96-th k-point nmo = 114 (0.67356,-0.42863,-0.06123) ==
 == 97-th k-point nmo = 114 (0.73479,-0.36739,-0.12246) ==
 == 98-th k-point nmo = 114 (0.79602,-0.30616,-0.18370) ==
 == 99-th k-point nmo = 114 (0.85725,-0.24493,-0.24493) ==
 == 100-th k-point nmo = 114 (-0.30616,-0.18370,-0.18370) ==
 == 101-th k-point nmo = 114 (-0.24493,-0.12246,-0.24493) ==
 == 102-th k-point nmo = 114 (-0.18370,-0.06123,-0.30616) ==
 == 103-th k-point nmo = 114 (-0.12246,-0.00000,-0.36739) ==
 == 104-th k-point nmo = 114 (-0.06123,0.06123,-0.42863) ==
 == 105-th k-point nmo = 114 (-0.00000,0.12246,-0.48986) ==
 == 106-th k-point nmo = 114 (0.06123,0.18370,-0.55109) ==
 == 107-th k-point nmo = 114 (0.12246,0.24493,-0.61232) ==
 == 108-th k-point nmo = 114 (0.18370,0.30616,-0.67356) ==
 == 109-th k-point nmo = 114 (0.24493,0.36739,-0.73479) ==
 == 110-th k-point nmo = 114 (-0.24493,-0.24493,-0.12246) ==
 == 111-th k-point nmo = 114 (-0.18370,-0.18370,-0.18370) ==
 == 112-th k-point nmo = 114 (-0.12246,-0.12246,-0.24493) ==
 == 113-th k-point nmo = 114 (-0.06123,-0.06123,-0.30616) ==
 == 114-th k-point nmo = 114 (-0.00000,-0.00000,-0.36739) ==
 == 115-th k-point nmo = 114 (0.06123,0.06123,-0.42863) ==
 == 116-th k-point nmo = 114 (0.12246,0.12246,-0.48986) ==
 == 117-th k-point nmo = 114 (0.18370,0.18370,-0.55109) ==
 == 118-th k-point nmo = 114 (0.24493,0.24493,-0.61232) ==
 == 119-th k-point nmo = 114 (0.30616,0.30616,-0.67356) ==
 == 120-th k-point nmo = 114 (-0.18370,-0.30616,-0.06123) ==
 == 121-th k-point nmo = 114 (-0.12246,-0.24493,-0.12246) ==
 == 122-th k-point nmo = 115 (-0.06123,-0.18370,-0.18370) ==
 == 123-th k-point nmo = 114 (-0.00000,-0.12246,-0.24493) ==
 == 124-th k-point nmo = 114 (0.06123,-0.06123,-0.30616) ==
 == 125-th k-point nmo = 114 (0.12246,-0.00000,-0.36739) ==
 == 126-th k-point nmo = 114 (0.18370,0.06123,-0.42863) ==
 == 127-th k-point nmo = 114 (0.24493,0.12246,-0.48986) ==
 == 128-th k-point nmo = 114 (0.30616,0.18370,-0.55109) ==
 == 129-th k-point nmo = 114 (0.36739,0.24493,-0.61232) ==
 == 130-th k-point nmo = 114 (-0.12246,-0.36739,0.00000) ==
 == 131-th k-point nmo = 114 (-0.06123,-0.30616,-0.06123) ==
 == 132-th k-point nmo = 114 (-0.00000,-0.24493,-0.12246) ==
 == 133-th k-point nmo = 115 (0.06123,-0.18370,-0.18370) ==
 == 134-th k-point nmo = 114 (0.12246,-0.12246,-0.24493) ==
 == 135-th k-point nmo = 114 (0.18370,-0.06123,-0.30616) ==
 == 136-th k-point nmo = 114 (0.24493,-0.00000,-0.36739) ==
 == 137-th k-point nmo = 114 (0.30616,0.06123,-0.42863) ==
 == 138-th k-point nmo = 114 (0.36739,0.12246,-0.48986) ==
 == 139-th k-point nmo = 114 (0.42863,0.18370,-0.55109) ==
 == 140-th k-point nmo = 114 (-0.06123,-0.42863,0.06123) ==
 == 141-th k-point nmo = 114 (-0.00000,-0.36739,0.00000) ==
 == 142-th k-point nmo = 114 (0.06123,-0.30616,-0.06123) ==
 == 143-th k-point nmo = 114 (0.12246,-0.24493,-0.12246) ==
 == 144-th k-point nmo = 114 (0.18370,-0.18370,-0.18370) ==
 == 145-th k-point nmo = 114 (0.24493,-0.12246,-0.24493) ==
 == 146-th k-point nmo = 114 (0.30616,-0.06123,-0.30616) ==
 == 147-th k-point nmo = 114 (0.36739,0.00000,-0.36739) ==
 == 148-th k-point nmo = 114 (0.42863,0.06123,-0.42863) ==
 == 149-th k-point nmo = 114 (0.48986,0.12246,-0.48986) ==
 == 150-th k-point nmo = 114 (-0.00000,-0.48986,0.12246) ==
 == 151-th k-point nmo = 114 (0.06123,-0.42863,0.06123) ==
 == 152-th k-point nmo = 114 (0.12246,-0.36739,0.00000) ==
 == 153-th k-point nmo = 114 (0.18370,-0.30616,-0.06123) ==
 == 154-th k-point nmo = 114 (0.24493,-0.24493,-0.12246) ==
 == 155-th k-point nmo = 114 (0.30616,-0.18370,-0.18370) ==
 == 156-th k-point nmo = 114 (0.36739,-0.12246,-0.24493) ==
 == 157-th k-point nmo = 114 (0.42863,-0.06123,-0.30616) ==
 == 158-th k-point nmo = 114 (0.48986,0.00000,-0.36739) ==
 == 159-th k-point nmo = 114 (0.55109,0.06123,-0.42863) ==
 == 160-th k-point nmo = 114 (0.06123,-0.55109,0.18370) ==
 == 161-th k-point nmo = 114 (0.12246,-0.48986,0.12246) ==
 == 162-th k-point nmo = 114 (0.18370,-0.42863,0.06123) ==
 == 163-th k-point nmo = 114 (0.24493,-0.36739,0.00000) ==
 == 164-th k-point nmo = 114 (0.30616,-0.30616,-0.06123) ==
 == 165-th k-point nmo = 114 (0.36739,-0.24493,-0.12246) ==
 == 166-th k-point nmo = 114 (0.42863,-0.18370,-0.18370) ==
 == 167-th k-point nmo = 114 (0.48986,-0.12246,-0.24493) ==
 == 168-th k-point nmo = 114 (0.55109,-0.06123,-0.30616) ==
 == 169-th k-point nmo = 114 (0.61232,0.00000,-0.36739) ==
 == 170-th k-point nmo = 114 (0.12246,-0.61232,0.24493) ==
 == 171-th k-point nmo = 114 (0.18370,-0.55109,0.18370) ==
 == 172-th k-point nmo = 114 (0.24493,-0.48986,0.12246) ==
 == 173-th k-point nmo = 114 (0.30616,-0.42863,0.06123) ==
 == 174-th k-point nmo = 114 (0.36739,-0.36739,0.00000) ==
 == 175-th k-point nmo = 114 (0.42863,-0.30616,-0.06123) ==
 == 176-th k-point nmo = 114 (0.48986,-0.24493,-0.12246) ==
 == 177-th k-point nmo = 114 (0.55109,-0.18370,-0.18370) ==
 == 178-th k-point nmo = 114 (0.61232,-0.12246,-0.24493) ==
 == 179-th k-point nmo = 114 (0.67356,-0.06123,-0.30616) ==
 == 180-th k-point nmo = 114 (0.18370,-0.67356,0.30616) ==
 == 181-th k-point nmo = 114 (0.24493,-0.61232,0.24493) ==
 == 182-th k-point nmo = 114 (0.30616,-0.55109,0.18370) ==
 == 183-th k-point nmo = 114 (0.36739,-0.48986,0.12246) ==
 == 184-th k-point nmo = 114 (0.42863,-0.42863,0.06123) ==
 == 185-th k-point nmo = 114 (0.48986,-0.36739,0.00000) ==
 == 186-th k-point nmo = 114 (0.55109,-0.30616,-0.06123) ==
 == 187-th k-point nmo = 114 (0.61232,-0.24493,-0.12246) ==
 == 188-th k-point nmo = 114 (0.67356,-0.18370,-0.18370) ==
 == 189-th k-point nmo = 114 (0.73479,-0.12246,-0.24493) ==
 == 190-th k-point nmo = 114 (0.24493,-0.73479,0.36739) ==
 == 191-th k-point nmo = 114 (0.30616,-0.67356,0.30616) ==
 == 192-th k-point nmo = 114 (0.36739,-0.61232,0.24493) ==
 == 193-th k-point nmo = 114 (0.42863,-0.55109,0.18370) ==
 == 194-th k-point nmo = 114 (0.48986,-0.48986,0.12246) ==
 == 195-th k-point nmo = 114 (0.55109,-0.42863,0.06123) ==
 == 196-th k-point nmo = 114 (0.61232,-0.36739,0.00000) ==
 == 197-th k-point nmo = 114 (0.67356,-0.30616,-0.06123) ==
 == 198-th k-point nmo = 114 (0.73479,-0.24493,-0.12246) ==
 == 199-th k-point nmo = 114 (0.79602,-0.18370,-0.18370) ==
 == 200-th k-point nmo = 114 (-0.36739,-0.12246,-0.12246) ==
 == 201-th k-point nmo = 114 (-0.30616,-0.06123,-0.18370) ==
 == 202-th k-point nmo = 114 (-0.24493,-0.00000,-0.24493) ==
 == 203-th k-point nmo = 114 (-0.18370,0.06123,-0.30616) ==
 == 204-th k-point nmo = 114 (-0.12246,0.12246,-0.36739) ==
 == 205-th k-point nmo = 114 (-0.06123,0.18370,-0.42863) ==
 == 206-th k-point nmo = 114 (-0.00000,0.24493,-0.48986) ==
 == 207-th k-point nmo = 114 (0.06123,0.30616,-0.55109) ==
 == 208-th k-point nmo = 114 (0.12246,0.36739,-0.61232) ==
 == 209-th k-point nmo = 114 (0.18370,0.42863,-0.67356) ==
 == 210-th k-point nmo = 114 (-0.30616,-0.18370,-0.06123) ==
 == 211-th k-point nmo = 114 (-0.24493,-0.12246,-0.12246) ==
 == 212-th k-point nmo = 115 (-0.18370,-0.06123,-0.18370) ==
 == 213-th k-point nmo = 114 (-0.12246,-0.00000,-0.24493) ==
 == 214-th k-point nmo = 114 (-0.06123,0.06123,-0.30616) ==
 == 215-th k-point nmo = 114 (-0.00000,0.12246,-0.36739) ==
 == 216-th k-point nmo = 114 (0.06123,0.18370,-0.42863) ==
 == 217-th k-point nmo = 114 (0.12246,0.24493,-0.48986) ==
 == 218-th k-point nmo = 114 (0.18370,0.30616,-0.55109) ==
 == 219-th k-point nmo = 114 (0.24493,0.36739,-0.61232) ==
 == 220-th k-point nmo = 114 (-0.24493,-0.24493,0.00000) ==
 == 221-th k-point nmo = 115 (-0.18370,-0.18370,-0.06123) ==
 == 222-th k-point nmo = 115 (-0.12246,-0.12246,-0.12246) ==
 == 223-th k-point nmo = 114 (-0.06123,-0.06123,-0.18370) ==
 == 224-th k-point nmo = 114 (-0.00000,-0.00000,-0.24493) ==
 == 225-th k-point nmo = 114 (0.06123,0.06123,-0.30616) ==
 == 226-th k-point nmo = 114 (0.12246,0.12246,-0.36739) ==
 == 227-th k-point nmo = 114 (0.18370,0.18370,-0.42863) ==
 == 228-th k-point nmo = 114 (0.24493,0.24493,-0.48986) ==
 == 229-th k-point nmo = 114 (0.30616,0.30616,-0.55109) ==
 == 230-th k-point nmo = 114 (-0.18370,-0.30616,0.06123) ==
 == 231-th k-point nmo = 114 (-0.12246,-0.24493,-0.00000) ==
 == 232-th k-point nmo = 114 (-0.06123,-0.18370,-0.06123) ==
 == 233-th k-point nmo = 115 (-0.00000,-0.12246,-0.12246) ==
 == 234-th k-point nmo = 114 (0.06123,-0.06123,-0.18370) ==
 == 235-th k-point nmo = 114 (0.12246,-0.00000,-0.24493) ==
 == 236-th k-point nmo = 114 (0.18370,0.06123,-0.30616) ==
 == 237-th k-point nmo = 114 (0.24493,0.12246,-0.36739) ==
 == 238-th k-point nmo = 114 (0.30616,0.18370,-0.42863) ==
 == 239-th k-point nmo = 114 (0.36739,0.24493,-0.48986) ==
 == 240-th k-point nmo = 114 (-0.12246,-0.36739,0.12246) ==
 == 241-th k-point nmo = 114 (-0.06123,-0.30616,0.06123) ==
 == 242-th k-point nmo = 114 (-0.00000,-0.24493,0.00000) ==
 == 243-th k-point nmo = 114 (0.06123,-0.18370,-0.06123) ==
 == 244-th k-point nmo = 115 (0.12246,-0.12246,-0.12246) ==
 == 245-th k-point nmo = 115 (0.18370,-0.06123,-0.18370) ==
 == 246-th k-point nmo = 114 (0.24493,0.00000,-0.24493) ==
 == 247-th k-point nmo = 114 (0.30616,0.06123,-0.30616) ==
 == 248-th k-point nmo = 114 (0.36739,0.12246,-0.36739) ==
 == 249-th k-point nmo = 114 (0.42863,0.18370,-0.42863) ==
 == 250-th k-point nmo = 114 (-0.06123,-0.42863,0.18370) ==
 == 251-th k-point nmo = 114 (-0.00000,-0.36739,0.12246) ==
 == 252-th k-point nmo = 114 (0.06123,-0.30616,0.06123) ==
 == 253-th k-point nmo = 114 (0.12246,-0.24493,-0.00000) ==
 == 254-th k-point nmo = 115 (0.18370,-0.18370,-0.06123) ==
 == 255-th k-point nmo = 114 (0.24493,-0.12246,-0.12246) ==
 == 256-th k-point nmo = 114 (0.30616,-0.06123,-0.18370) ==
 == 257-th k-point nmo = 114 (0.36739,0.00000,-0.24493) ==
 == 258-th k-point nmo = 114 (0.42863,0.06123,-0.30616) ==
 == 259-th k-point nmo = 114 (0.48986,0.12246,-0.36739) ==
 == 260-th k-point nmo = 114 (-0.00000,-0.48986,0.24493) ==
 == 261-th k-point nmo = 114 (0.06123,-0.42863,0.18370) ==
 == 262-th k-point nmo = 114 (0.12246,-0.36739,0.12246) ==
 == 263-th k-point nmo = 114 (0.18370,-0.30616,0.06123) ==
 == 264-th k-point nmo = 114 (0.24493,-0.24493,0.00000) ==
 == 265-th k-point nmo = 114 (0.30616,-0.18370,-0.06123) ==
 == 266-th k-point nmo = 114 (0.36739,-0.12246,-0.12246) ==
 == 267-th k-point nmo = 114 (0.42863,-0.06123,-0.18370) ==
 == 268-th k-point nmo = 114 (0.48986,0.00000,-0.24493) ==
 == 269-th k-point nmo = 114 (0.55109,0.06123,-0.30616) ==
 == 270-th k-point nmo = 114 (0.06123,-0.55109,0.30616) ==
 == 271-th k-point nmo = 114 (0.12246,-0.48986,0.24493) ==
 == 272-th k-point nmo = 114 (0.18370,-0.42863,0.18370) ==
 == 273-th k-point nmo = 114 (0.24493,-0.36739,0.12246) ==
 == 274-th k-point nmo = 114 (0.30616,-0.30616,0.06123) ==
 == 275-th k-point nmo = 114 (0.36739,-0.24493,0.00000) ==
 == 276-th k-point nmo = 114 (0.42863,-0.18370,-0.06123) ==
 == 277-th k-point nmo = 114 (0.48986,-0.12246,-0.12246) ==
 == 278-th k-point nmo = 114 (0.55109,-0.06123,-0.18370) ==
 == 279-th k-point nmo = 114 (0.61232,0.00000,-0.24493) ==
 == 280-th k-point nmo = 114 (0.12246,-0.61232,0.36739) ==
 == 281-th k-point nmo = 114 (0.18370,-0.55109,0.30616) ==
 == 282-th k-point nmo = 114 (0.24493,-0.48986,0.24493) ==
 == 283-th k-point nmo = 114 (0.30616,-0.42863,0.18370) ==
 == 284-th k-point nmo = 114 (0.36739,-0.36739,0.12246) ==
 == 285-th k-point nmo = 114 (0.42863,-0.30616,0.06123) ==
 == 286-th k-point nmo = 114 (0.48986,-0.24493,0.00000) ==
 == 287-th k-point nmo = 114 (0.55109,-0.18370,-0.06123) ==
 == 288-th k-point nmo = 114 (0.61232,-0.12246,-0.12246) ==
 == 289-th k-point nmo = 114 (0.67356,-0.06123,-0.18370) ==
 == 290-th k-point nmo = 114 (0.18370,-0.67356,0.42863) ==
 == 291-th k-point nmo = 114 (0.24493,-0.61232,0.36739) ==
 == 292-th k-point nmo = 114 (0.30616,-0.55109,0.30616) ==
 == 293-th k-point nmo = 114 (0.36739,-0.48986,0.24493) ==
 == 294-th k-point nmo = 114 (0.42863,-0.42863,0.18370) ==
 == 295-th k-point nmo = 114 (0.48986,-0.36739,0.12246) ==
 == 296-th k-point nmo = 114 (0.55109,-0.30616,0.06123) ==
 == 297-th k-point nmo = 114 (0.61232,-0.24493,0.00000) ==
 == 298-th k-point nmo = 114 (0.67356,-0.18370,-0.06123) ==
 == 299-th k-point nmo = 114 (0.73479,-0.12246,-0.12246) ==
 == 300-th k-point nmo = 114 (-0.42863,-0.06123,-0.06123) ==
 == 301-th k-point nmo = 114 (-0.36739,-0.00000,-0.12246) ==
 == 302-th k-point nmo = 114 (-0.30616,0.06123,-0.18370) ==
 == 303-th k-point nmo = 114 (-0.24493,0.12246,-0.24493) ==
 == 304-th k-point nmo = 114 (-0.18370,0.18370,-0.30616) ==
 == 305-th k-point nmo = 114 (-0.12246,0.24493,-0.36739) ==
 == 306-th k-point nmo = 114 (-0.06123,0.30616,-0.42863) ==
 == 307-th k-point nmo = 114 (-0.00000,0.36739,-0.48986) ==
 == 308-th k-point nmo = 114 (0.06123,0.42863,-0.55109) ==
 == 309-th k-point nmo = 114 (0.12246,0.48986,-0.61232) ==
 == 310-th k-point nmo = 114 (-0.36739,-0.12246,0.00000) ==
 == 311-th k-point nmo = 114 (-0.30616,-0.06123,-0.06123) ==
 == 312-th k-point nmo = 114 (-0.24493,-0.00000,-0.12246) ==
 == 313-th k-point nmo = 115 (-0.18370,0.06123,-0.18370) ==
 == 314-th k-point nmo = 114 (-0.12246,0.12246,-0.24493) ==
 == 315-th k-point nmo = 114 (-0.06123,0.18370,-0.30616) ==
 == 316-th k-point nmo = 114 (0.00000,0.24493,-0.36739) ==
 == 317-th k-point nmo = 114 (0.06123,0.30616,-0.42863) ==
 == 318-th k-point nmo = 114 (0.12246,0.36739,-0.48986) ==
 == 319-th k-point nmo = 114 (0.18370,0.42863,-0.55109) ==
 == 320-th k-point nmo = 114 (-0.30616,-0.18370,0.06123) ==
 == 321-th k-point nmo = 114 (-0.24493,-0.12246,-0.00000) ==
 == 322-th k-point nmo = 114 (-0.18370,-0.06123,-0.06123) ==
 == 323-th k-point nmo = 115 (-0.12246,-0.00000,-0.12246) ==
 == 324-th k-point nmo = 114 (-0.06123,0.06123,-0.18370) ==
 == 325-th k-point nmo = 114 (-0.00000,0.12246,-0.24493) ==
 == 326-th k-point nmo = 114 (0.06123,0.18370,-0.30616) ==
 == 327-th k-point nmo = 114 (0.12246,0.24493,-0.36739) ==
 == 328-th k-point nmo = 114 (0.18370,0.30616,-0.42863) ==
 == 329-th k-point nmo = 114 (0.24493,0.36739,-0.48986) ==
 == 330-th k-point nmo = 114 (-0.24493,-0.24493,0.12246) ==
 == 331-th k-point nmo = 115 (-0.18370,-0.18370,0.06123) ==
 == 332-th k-point nmo = 115 (-0.12246,-0.12246,0.00000) ==
 == 333-th k-point nmo = 115 (-0.06123,-0.06123,-0.06123) ==
 == 334-th k-point nmo = 116 (-0.00000,-0.00000,-0.12246) ==
 == 335-th k-point nmo = 114 (0.06123,0.06123,-0.18370) ==
 == 336-th k-point nmo = 114 (0.12246,0.12246,-0.24493) ==
 == 337-th k-point nmo = 114 (0.18370,0.18370,-0.30616) ==
 == 338-th k-point nmo = 114 (0.24493,0.24493,-0.36739) ==
 == 339-th k-point nmo = 114 (0.30616,0.30616,-0.42863) ==
 == 340-th k-point nmo = 114 (-0.18370,-0.30616,0.18370) ==
 == 341-th k-point nmo = 114 (-0.12246,-0.24493,0.12246) ==
 == 342-th k-point nmo = 114 (-0.06123,-0.18370,0.06123) ==
 == 343-th k-point nmo = 116 (-0.00000,-0.12246,0.00000) ==
 == 344-th k-point nmo = 115 (0.06123,-0.06123,-0.06123) ==
 == 345-th k-point nmo = 115 (0.12246,0.00000,-0.12246) ==
 == 346-th k-point nmo = 115 (0.18370,0.06123,-0.18370) ==
 == 347-th k-point nmo = 114 (0.24493,0.12246,-0.24493) ==
 == 348-th k-point nmo = 114 (0.30616,0.18370,-0.30616) ==
 == 349-th k-point nmo = 114 (0.36739,0.24493,-0.36739) ==
 == 350-th k-point nmo = 114 (-0.12246,-0.36739,0.24493) ==
 == 351-th k-point nmo = 114 (-0.06123,-0.30616,0.18370) ==
 == 352-th k-point nmo = 114 (-0.00000,-0.24493,0.12246) ==
 == 353-th k-point nmo = 114 (0.06123,-0.18370,0.06123) ==
 == 354-th k-point nmo = 115 (0.12246,-0.12246,0.00000) ==
 == 355-th k-point nmo = 114 (0.18370,-0.06123,-0.06123) ==
 == 356-th k-point nmo = 114 (0.24493,0.00000,-0.12246) ==
 == 357-th k-point nmo = 114 (0.30616,0.06123,-0.18370) ==
 == 358-th k-point nmo = 114 (0.36739,0.12246,-0.24493) ==
 == 359-th k-point nmo = 114 (0.42863,0.18370,-0.30616) ==
 == 360-th k-point nmo = 114 (-0.06123,-0.42863,0.30616) ==
 == 361-th k-point nmo = 114 (-0.00000,-0.36739,0.24493) ==
 == 362-th k-point nmo = 114 (0.06123,-0.30616,0.18370) ==
 == 363-th k-point nmo = 114 (0.12246,-0.24493,0.12246) ==
 == 364-th k-point nmo = 115 (0.18370,-0.18370,0.06123) ==
 == 365-th k-point nmo = 114 (0.24493,-0.12246,0.00000) ==
 == 366-th k-point nmo = 114 (0.30616,-0.06123,-0.06123) ==
 == 367-th k-point nmo = 114 (0.36739,0.00000,-0.12246) ==
 == 368-th k-point nmo = 114 (0.42863,0.06123,-0.18370) ==
 == 369-th k-point nmo = 114 (0.48986,0.12246,-0.24493) ==
 == 370-th k-point nmo = 114 (-0.00000,-0.48986,0.36739) ==
 == 371-th k-point nmo = 114 (0.06123,-0.42863,0.30616) ==
 == 372-th k-point nmo = 114 (0.12246,-0.36739,0.24493) ==
 == 373-th k-point nmo = 114 (0.18370,-0.30616,0.18370) ==
 == 374-th k-point nmo = 114 (0.24493,-0.24493,0.12246) ==
 == 375-th k-point nmo = 114 (0.30616,-0.18370,0.06123) ==
 == 376-th k-point nmo = 114 (0.36739,-0.12246,0.00000) ==
 == 377-th k-point nmo = 114 (0.42863,-0.06123,-0.06123) ==
 == 378-th k-point nmo = 114 (0.48986,0.00000,-0.12246) ==
 == 379-th k-point nmo = 114 (0.55109,0.06123,-0.18370) ==
 == 380-th k-point nmo = 114 (0.06123,-0.55109,0.42863) ==
 == 381-th k-point nmo = 114 (0.12246,-0.48986,0.36739) ==
 == 382-th k-point nmo = 114 (0.18370,-0.42863,0.30616) ==
 == 383-th k-point nmo = 114 (0.24493,-0.36739,0.24493) ==
 == 384-th k-point nmo = 114 (0.30616,-0.30616,0.18370) ==
 == 385-th k-point nmo = 114 (0.36739,-0.24493,0.12246) ==
 == 386-th k-point nmo = 114 (0.42863,-0.18370,0.06123) ==
 == 387-th k-point nmo = 114 (0.48986,-0.12246,0.00000) ==
 == 388-th k-point nmo = 114 (0.55109,-0.06123,-0.06123) ==
 == 389-th k-point nmo = 114 (0.61232,0.00000,-0.12246) ==
 == 390-th k-point nmo = 114 (0.12246,-0.61232,0.48986) ==
 == 391-th k-point nmo = 114 (0.18370,-0.55109,0.42863) ==
 == 392-th k-point nmo = 114 (0.24493,-0.48986,0.36739) ==
 == 393-th k-point nmo = 114 (0.30616,-0.42863,0.30616) ==
 == 394-th k-point nmo = 114 (0.36739,-0.36739,0.24493) ==
 == 395-th k-point nmo = 114 (0.42863,-0.30616,0.18370) ==
 == 396-th k-point nmo = 114 (0.48986,-0.24493,0.12246) ==
 == 397-th k-point nmo = 114 (0.55109,-0.18370,0.06123) ==
 == 398-th k-point nmo = 114 (0.61232,-0.12246,0.00000) ==
 == 399-th k-point nmo = 114 (0.67356,-0.06123,-0.06123) ==
 == 400-th k-point nmo = 114 (-0.48986,-0.00000,-0.00000) ==
 == 401-th k-point nmo = 114 (-0.42863,0.06123,-0.06123) ==
 == 402-th k-point nmo = 114 (-0.36739,0.12246,-0.12246) ==
 == 403-th k-point nmo = 114 (-0.30616,0.18370,-0.18370) ==
 == 404-th k-point nmo = 114 (-0.24493,0.24493,-0.24493) ==
 == 405-th k-point nmo = 114 (-0.18370,0.30616,-0.30616) ==
 == 406-th k-point nmo = 114 (-0.12246,0.36739,-0.36739) ==
 == 407-th k-point nmo = 114 (-0.06123,0.42863,-0.42863) ==
 == 408-th k-point nmo = 114 (0.00000,0.48986,-0.48986) ==
 == 409-th k-point nmo = 114 (0.06123,0.55109,-0.55109) ==
 == 410-th k-point nmo = 114 (-0.42863,-0.06123,0.06123) ==
 == 411-th k-point nmo = 114 (-0.36739,-0.00000,-0.00000) ==
 == 412-th k-point nmo = 114 (-0.30616,0.06123,-0.06123) ==
[...]
 -0.05105 0.02780 0.13359 0.18371 0.36256 0.43766 0.47989 0.53029 0.57028 0.68039
 0.71989 0.75763 0.83553 0.90925 0.92329 0.96287 0.97838 1.00304 1.07271 1.10084
 1.15949 1.17654 1.24008 1.28826 1.33439 1.37437 1.39272 1.45550 1.48459 1.51368
 1.55167 1.63650 1.67569 1.73719 1.78636 1.81847 1.88683 1.91118 1.93273 1.98393
 2.02349 2.07763 2.08976 2.17447 2.18173 2.25016 2.30398 2.31181 2.33634 2.35298
 2.41026 2.43903 2.48590 2.51847 2.58151 2.63101 2.68320 2.73908 2.78956 2.83839
 2.84625 2.89128 2.94961 2.95753 2.98288 2.99251 3.02801 3.06707 3.08924 3.13798
 3.19745 3.26171 3.27151 3.30335 3.32413 3.39548 3.40122 3.40505 3.48246 3.50810
 3.53719 3.60329 3.62403 3.67071 3.69432 3.74457 3.81434 3.87533 3.89612 3.95963
 4.06058 4.16141 4.24507 4.27366 4.53817 4.57104 8.20130 8.39717 8.46298 8.80215
 9.34771 9.83475 13.24926 14.28885
 == 982-th k-point (-0.18370,-0.06123,0.67356) occupation: 14==
 -65.00570 -65.00570 -4.62780 -4.62776 -3.03972 -3.03971 -3.03938 -3.03927 -3.03897 -3.03895
 -0.03274 0.01701 0.13021 0.16477 0.34384 0.39732 0.51099 0.57670 0.60765 0.68602
 0.73489 0.80883 0.84263 0.84920 0.91210 0.94757 0.95873 1.03467 1.04829 1.07662
 1.14076 1.15229 1.17104 1.24751 1.36273 1.40466 1.43355 1.46453 1.50334 1.51989
 1.58863 1.63971 1.72884 1.74640 1.75420 1.81096 1.85207 1.87187 1.89417 1.95254
 2.01554 2.06411 2.13585 2.18680 2.20232 2.25565 2.28825 2.29158 2.33246 2.37711
 2.39663 2.45619 2.49847 2.53260 2.57522 2.67372 2.70000 2.73308 2.78466 2.78727
 2.84425 2.88384 2.90541 2.95036 2.99812 3.00970 3.02527 3.08506 3.11646 3.11879
 3.19090 3.22826 3.28523 3.31177 3.32407 3.37043 3.38998 3.39757 3.47156 3.49526
 3.55388 3.60508 3.62743 3.66560 3.69432 3.73068 3.82541 3.90492 3.95957 4.00475
 4.11368 4.20687 4.27607 4.29797 4.57460 4.60141 8.22410 8.41947 8.55213 8.69140
 9.56385 9.92912 13.35425 13.72848
 == 983-th k-point (-0.12246,0.00000,0.61232) occupation: 14==
 -65.00570 -65.00570 -4.62778 -4.62778 -3.03972 -3.03972 -3.03932 -3.03932 -3.03896 -3.03896
 -0.00967 -0.00967 0.15448 0.15448 0.33376 0.33376 0.59020 0.59020 0.67012 0.67012
 0.75204 0.75204 0.82942 0.82942 0.93086 0.93087 0.98661 0.98661 1.07399 1.07400
 1.11368 1.11368 1.18435 1.18435 1.40795 1.40796 1.49217 1.49217 1.53154 1.53155
 1.62544 1.62544 1.73885 1.73894 1.74620 1.74621 1.82937 1.82938 1.89936 1.89939
 2.05070 2.05074 2.14207 2.14220 2.23710 2.23712 2.30963 2.30965 2.33909 2.33916
 2.45404 2.45408 2.48862 2.48864 2.60639 2.60658 2.73801 2.73802 2.77561 2.77563
 2.86200 2.86210 2.94170 2.94171 2.97829 2.97830 3.05033 3.05034 3.13284 3.13286
 3.21389 3.21401 3.27245 3.27249 3.31601 3.31605 3.38109 3.38175 3.52222 3.52233
 3.55481 3.55516 3.64798 3.64803 3.71966 3.71973 3.94142 3.94151 3.99473 3.99480
 4.23328 4.23342 4.32540 4.32567 4.60536 4.60654 8.32004 8.32004 8.62404 8.62412
 9.75086 9.75304 13.39240 13.39260
 == 984-th k-point (-0.06123,0.06123,0.55109) occupation: 14==
 -65.00570 -65.00570 -4.62780 -4.62776 -3.03972 -3.03971 -3.03937 -3.03927 -3.03897 -3.03896
 -0.03751 0.01773 0.15377 0.17353 0.30620 0.33420 0.60016 0.60338 0.67783 0.68212
 0.73586 0.74967 0.81118 0.81234 0.88882 0.96948 0.97838 0.99352 1.04501 1.08138
 1.10360 1.14350 1.17892 1.24228 1.37028 1.40727 1.48349 1.52481 1.53402 1.56313
 1.62689 1.65738 1.70757 1.72464 1.75196 1.75456 1.80656 1.83759 1.88000 1.90090
 2.01244 2.07447 2.11250 2.14951 2.15289 2.25687 2.29244 2.31796 2.34778 2.39656
 2.44328 2.44491 2.50086 2.51845 2.55016 2.59995 2.71454 2.75178 2.78892 2.81657
 2.84681 2.88225 2.93125 2.95833 2.96651 2.98382 3.03846 3.04853 3.09345 3.10917
 3.22313 3.24044 3.24857 3.29546 3.30244 3.31376 3.39375 3.42951 3.51499 3.51526
 3.54626 3.55092 3.64487 3.67761 3.70801 3.73755 3.92098 3.94308 3.96497 4.09104
 4.22413 4.27416 4.31548 4.35488 4.60352 4.61857 8.16469 8.45666 8.55785 8.60361
 9.71689 9.97912 13.36082 13.40643
 == 985-th k-point (0.00000,0.12246,0.48986) occupation: 14==
 -65.00570 -65.00570 -4.62782 -4.62774 -3.03971 -3.03971 -3.03942 -3.03923 -3.03898 -3.03897
 -0.05997 0.04552 0.15611 0.16810 0.33071 0.35284 0.52601 0.59052 0.66394 0.67680
 0.74266 0.76409 0.79883 0.83813 0.88460 0.90311 0.99315 1.00334 1.06845 1.10287
 1.14200 1.18252 1.21193 1.25808 1.36910 1.37869 1.45594 1.51408 1.53447 1.53858
 1.55151 1.69578 1.71994 1.74262 1.78839 1.79608 1.82014 1.83135 1.87826 1.89151
 2.03008 2.04233 2.08860 2.16319 2.16746 2.20159 2.21610 2.35607 2.36566 2.41636
 2.42406 2.44454 2.53304 2.55360 2.57880 2.60136 2.65918 2.76910 2.79726 2.84215
 2.86657 2.88360 2.91592 2.92465 2.95684 2.99625 2.99964 3.02517 3.06871 3.17115
 3.18019 3.23710 3.30833 3.32892 3.33171 3.37255 3.39943 3.43295 3.51633 3.52189
 3.53753 3.54028 3.64282 3.67727 3.70660 3.71833 3.88987 3.92301 3.96772 4.08507
 4.17730 4.19908 4.29332 4.34694 4.59732 4.61879 8.10245 8.35838 8.38666 8.75762
 10.16828 10.18210 13.29572 13.47719
 == 986-th k-point (0.06123,0.18370,0.42863) occupation: 14==
 -65.00570 -65.00569 -4.62784 -4.62772 -3.03971 -3.03970 -3.03947 -3.03919 -3.03898 -3.03896
 -0.07507 0.05970 0.14859 0.18578 0.35572 0.41505 0.45448 0.53294 0.64667 0.64846
 0.73923 0.75521 0.79187 0.83291 0.91081 0.94094 1.00233 1.02790 1.06972 1.10520
 1.17612 1.19201 1.27263 1.30022 1.35271 1.36735 1.42843 1.47868 1.50786 1.51755
 1.57384 1.65076 1.66688 1.73806 1.77410 1.82037 1.85713 1.89055 1.92336 1.95404
 2.00402 2.04730 2.07966 2.12461 2.14621 2.19152 2.26103 2.30934 2.36948 2.41312
 2.44291 2.46413 2.51347 2.56081 2.57787 2.62054 2.67019 2.72724 2.80134 2.82047
 2.84416 2.89546 2.91034 2.91906 2.96515 2.99298 3.04403 3.05596 3.08796 3.14311
 3.19125 3.28696 3.30360 3.32116 3.33098 3.39463 3.40806 3.45116 3.49105 3.51084
 3.54347 3.57610 3.66927 3.67176 3.70588 3.74340 3.83592 3.88365 3.94536 3.98437
 4.11064 4.13579 4.25923 4.32526 4.55697 4.60337 8.09884 8.23893 8.28784 8.95696
 9.93517 10.18234 13.25001 13.97514
 == 987-th k-point (0.12246,0.24493,0.36739) occupation: 14==
 -65.00570 -65.00569 -4.62785 -4.62771 -3.03970 -3.03969 -3.03951 -3.03915 -3.03899 -3.03896
 -0.08239 0.04930 0.16816 0.21228 0.37793 0.39748 0.46330 0.50029 0.61622 0.63043
 0.69912 0.74643 0.78415 0.86094 0.91102 0.95079 1.01374 1.07488 1.09717 1.13342
 1.17761 1.23684 1.27729 1.28849 1.33524 1.37633 1.42557 1.46156 1.48204 1.54794
 1.56442 1.62724 1.63726 1.73975 1.75773 1.79229 1.84167 1.90521 1.93279 1.99659
 2.03184 2.05802 2.09205 2.14376 2.18784 2.22405 2.26722 2.31853 2.36842 2.38817
 2.41085 2.43668 2.50028 2.55608 2.59389 2.62844 2.70713 2.76296 2.78147 2.81254
 2.82854 2.87259 2.90103 2.91880 2.96038 2.98419 3.02395 3.07962 3.10679 3.15909
 3.17567 3.25246 3.28592 3.30659 3.33764 3.40578 3.45930 3.46849 3.48139 3.50991
 3.56537 3.59792 3.65733 3.70717 3.73339 3.73952 3.81984 3.83298 3.91352 3.97553
 4.06725 4.11500 4.24384 4.32832 4.51533 4.56850 8.03410 8.24643 8.34621 9.09473
 9.54836 9.99974 12.96139 14.46503
 == 988-th k-point (0.18370,0.30616,0.30616) occupation: 14==
 -65.00570 -65.00569 -4.62785 -4.62771 -3.03969 -3.03968 -3.03954 -3.03912 -3.03898 -3.03897
 -0.08236 0.03334 0.19746 0.22890 0.35812 0.40355 0.41261 0.57136 0.59690 0.62057
 0.68834 0.72908 0.78282 0.80166 0.92521 0.98923 1.05480 1.08330 1.12348 1.13195
 1.19910 1.22255 1.28145 1.31137 1.32119 1.38314 1.41711 1.43757 1.48370 1.53240
 1.53563 1.60322 1.67161 1.71069 1.75685 1.82340 1.83270 1.88332 1.96954 1.99258
 2.04583 2.11812 2.13250 2.16782 2.17389 2.20894 2.31079 2.31590 2.33171 2.37090
 2.42221 2.44558 2.52171 2.56423 2.58003 2.64178 2.73987 2.76363 2.79095 2.80018
 2.82054 2.86346 2.90144 2.91890 2.95730 2.97938 2.98878 3.09695 3.11395 3.11697
 3.16602 3.17102 3.24744 3.33764 3.37365 3.40339 3.46130 3.48038 3.51359 3.54451
 3.60267 3.62998 3.69108 3.70281 3.73635 3.74943 3.75125 3.89449 3.97925 3.99207
 4.00912 4.12931 4.23712 4.33576 4.47032 4.51603 8.10000 8.23337 8.36801 9.27161
 9.39754 9.98233 12.48466 14.64398
 == 989-th k-point (0.24493,0.36739,0.24493) occupation: 14==
 -65.00570 -65.00569 -4.62785 -4.62771 -3.03969 -3.03968 -3.03954 -3.03913 -3.03899 -3.03897
 -0.07616 0.02413 0.20223 0.22151 0.35578 0.39870 0.41845 0.56293 0.60558 0.66931
 0.69824 0.70444 0.73520 0.80831 0.96664 1.02415 1.03242 1.07490 1.10280 1.11379
 1.21301 1.24593 1.24754 1.31283 1.32910 1.38377 1.40669 1.42298 1.47922 1.51400
 1.53818 1.60162 1.66811 1.70700 1.74833 1.81814 1.84904 1.94936 1.95296 1.99110
 2.06877 2.11419 2.13267 2.19011 2.21382 2.22099 2.24486 2.28548 2.33646 2.34101
 2.44528 2.44869 2.51512 2.55238 2.56531 2.67925 2.75071 2.76447 2.77026 2.80511
 2.82519 2.86398 2.88392 2.92590 2.96249 2.96302 3.03119 3.08782 3.09676 3.11710
 3.15163 3.20702 3.22708 3.22714 3.40149 3.42852 3.45591 3.49099 3.53769 3.53842
 3.59397 3.64967 3.65995 3.67050 3.72963 3.77082 3.80093 3.86394 3.97634 3.97701
 4.03719 4.14806 4.23859 4.31065 4.48295 4.48921 8.19535 8.35307 8.36947 9.16819
 9.51264 9.99134 12.43779 14.68131
 == 990-th k-point (-0.24493,-0.24493,0.85725) occupation: 14==
 -65.00570 -65.00569 -4.62785 -4.62771 -3.03969 -3.03968 -3.03954 -3.03913 -3.03899 -3.03897
 -0.07616 0.02413 0.20223 0.22151 0.35578 0.39870 0.41845 0.56293 0.60558 0.66931
 0.69824 0.70444 0.73520 0.80831 0.96664 1.02415 1.03242 1.07490 1.10280 1.11379
 1.21301 1.24593 1.24754 1.31283 1.32910 1.38377 1.40669 1.42298 1.47922 1.51400
 1.53818 1.60162 1.66811 1.70700 1.74833 1.81814 1.84904 1.94936 1.95296 1.99110
 2.06877 2.11419 2.13267 2.19011 2.21382 2.22099 2.24486 2.28548 2.33646 2.34101
 2.44528 2.44869 2.51512 2.55238 2.56531 2.67925 2.75071 2.76447 2.77026 2.80511
 2.82519 2.86398 2.88392 2.92590 2.96249 2.96302 3.03119 3.08782 3.09676 3.11710
 3.15163 3.20702 3.22708 3.22714 3.40149 3.42852 3.45591 3.49099 3.53769 3.53842
 3.59397 3.64967 3.65995 3.67050 3.72963 3.77082 3.80093 3.86394 3.97634 3.97701
 4.03719 4.14806 4.23859 4.31065 4.48295 4.48921 8.19535 8.35307 8.36947 9.16819
 9.51264 9.99134 12.43779 14.68131
 == 991-th k-point (-0.18370,-0.18370,0.79602) occupation: 14==
 -65.00570 -65.00569 -4.62784 -4.62772 -3.03971 -3.03969 -3.03949 -3.03917 -3.03899 -3.03895
 -0.06953 0.03656 0.15957 0.20278 0.34409 0.44996 0.46533 0.48477 0.63665 0.66795
 0.72164 0.72167 0.74758 0.89937 0.94248 0.96489 1.02208 1.02949 1.03479 1.14001
 1.15173 1.25712 1.26670 1.29574 1.31755 1.36323 1.41570 1.43245 1.47411 1.55401
 1.59907 1.61413 1.66668 1.67835 1.72947 1.81011 1.90607 1.92097 1.98965 1.99198
 2.03583 2.05613 2.06646 2.14835 2.15559 2.24360 2.29196 2.30212 2.31291 2.37077
 2.41504 2.47129 2.48836 2.51010 2.59100 2.66979 2.68158 2.73717 2.78778 2.82007
 2.83795 2.89722 2.93768 2.94063 2.95293 3.01583 3.05339 3.05353 3.06687 3.11034
 3.14591 3.24729 3.29813 3.30623 3.35126 3.36060 3.39219 3.42490 3.51953 3.52313
 3.58028 3.63396 3.66275 3.70916 3.75596 3.77596 3.81592 3.83089 3.84669 3.96166
 4.06428 4.18954 4.24927 4.28827 4.53883 4.54129 8.11373 8.34995 8.38380 8.93860
 9.72400 9.89983 13.02712 14.45161
 == 992-th k-point (-0.12246,-0.12246,0.73479) occupation: 14==
 -65.00570 -65.00570 -4.62782 -4.62774 -3.03971 -3.03970 -3.03943 -3.03922 -3.03898 -3.03896
 -0.05691 0.03938 0.13897 0.18520 0.32145 0.40101 0.52639 0.52877 0.66369 0.67273
 0.73459 0.75131 0.78919 0.87980 0.90099 0.96865 0.97760 1.00130 1.02863 1.11550
 1.16527 1.17414 1.19462 1.30621 1.35780 1.36262 1.42342 1.46969 1.50778 1.56798
 1.61543 1.63024 1.68683 1.71373 1.72379 1.81639 1.86659 1.87707 1.93511 1.97919
 1.98454 2.05553 2.11995 2.13785 2.17448 2.19202 2.24641 2.32978 2.35576 2.37750
 2.45312 2.45663 2.51434 2.54401 2.55138 2.63259 2.65567 2.76409 2.79292 2.81595
 2.82550 2.91352 2.91703 2.95326 2.95641 3.02078 3.02214 3.05747 3.07951 3.14846
 3.18931 3.22421 3.26885 3.32628 3.32903 3.35357 3.36608 3.46060 3.48412 3.48745
 3.56760 3.64225 3.65875 3.66479 3.71060 3.76629 3.82969 3.87921 3.94270 4.02187
 4.09746 4.23288 4.27195 4.30737 4.57547 4.59388 8.10073 8.36335 8.44108 8.77108
 9.78561 10.06615 13.24198 13.85592
 == 993-th k-point (-0.06123,-0.06123,0.67356) occupation: 14==
 -65.00570 -65.00570 -4.62780 -4.62776 -3.03972 -3.03971 -3.03937 -3.03927 -3.03897 -3.03896
 -0.03751 0.01773 0.15377 0.17353 0.30620 0.33420 0.60015 0.60338 0.67783 0.68212
 0.73586 0.74967 0.81118 0.81234 0.88882 0.96948 0.97838 0.99352 1.04500 1.08137
 1.10361 1.14350 1.17892 1.24228 1.37025 1.40730 1.48349 1.52480 1.53402 1.56312
 1.62687 1.65738 1.70761 1.72466 1.75213 1.75459 1.80640 1.83756 1.87998 1.90091
 2.01214 2.07469 2.11208 2.14946 2.15323 2.25696 2.29235 2.31794 2.34773 2.39658
 2.44330 2.44485 2.50026 2.51861 2.55008 2.60027 2.71459 2.75193 2.78859 2.81679
 2.84720 2.88184 2.93125 2.95841 2.96650 2.98388 3.03861 3.04838 3.09349 3.10917
 3.22317 3.23988 3.24907 3.29518 3.30248 3.31388 3.39189 3.43132 3.51466 3.51514
 3.54669 3.55158 3.64469 3.67774 3.70781 3.73758 3.92047 3.94295 3.96567 4.09098
 4.22501 4.27347 4.31557 4.35514 4.59977 4.62255 8.16470 8.45667 8.55752 8.60381
 9.71006 9.98763 13.36099 13.40670
 == 994-th k-point (0.00000,0.00000,0.61232) occupation: 14==
 -65.00570 -65.00570 -4.62778 -4.62778 -3.03972 -3.03972 -3.03932 -3.03932 -3.03896 -3.03896
 -0.01166 -0.01166 0.16950 0.16950 0.30233 0.30233 0.64790 0.64790 0.68863 0.68863
 0.74436 0.74436 0.75498 0.75498 0.97739 0.97739 1.00274 1.00275 1.02303 1.02303
 1.06987 1.06988 1.23782 1.23782 1.37407 1.37410 1.54468 1.54469 1.58190 1.58190
 1.63096 1.63096 1.69126 1.69126 1.74490 1.74493 1.82747 1.82780 1.85605 1.85611
 2.08072 2.08151 2.09734 2.09740 2.18715 2.18716 2.30476 2.30481 2.43072 2.43075
 2.45553 2.45555 2.50286 2.50287 2.52113 2.52222 2.73706 2.73706 2.77713 2.77727
 2.86747 2.86803 2.98826 2.98826 3.00915 3.00918 3.02668 3.02668 3.08134 3.08149
 3.23349 3.23363 3.25047 3.25061 3.26314 3.26319 3.45283 3.45635 3.49192 3.49206
 3.55744 3.55753 3.64297 3.64298 3.72925 3.72933 3.93614 3.93690 4.06955 4.06975
 4.29075 4.29131 4.35438 4.35477 4.60857 4.61330 8.31772 8.31774 8.62552 8.62562
 9.65779 9.66604 13.41111 13.41131
 == 995-th k-point (0.06123,0.06123,0.55109) occupation: 14==
 -65.00570 -65.00570 -4.62780 -4.62776 -3.03972 -3.03971 -3.03937 -3.03927 -3.03897 -3.03896
 -0.03751 0.01773 0.15377 0.17353 0.30620 0.33420 0.60015 0.60338 0.67783 0.68212
 0.73586 0.74967 0.81118 0.81234 0.88882 0.96948 0.97838 0.99352 1.04500 1.08137
 1.10361 1.14350 1.17892 1.24228 1.37025 1.40730 1.48349 1.52480 1.53402 1.56312
 1.62687 1.65738 1.70761 1.72466 1.75213 1.75459 1.80640 1.83756 1.87998 1.90091
 2.01214 2.07469 2.11208 2.14946 2.15323 2.25696 2.29235 2.31794 2.34773 2.39658
 2.44330 2.44485 2.50026 2.51861 2.55008 2.60027 2.71459 2.75193 2.78859 2.81679
 2.84720 2.88184 2.93125 2.95841 2.96650 2.98388 3.03861 3.04838 3.09349 3.10917
 3.22317 3.23988 3.24907 3.29518 3.30248 3.31388 3.39189 3.43132 3.51466 3.51514
 3.54669 3.55158 3.64469 3.67774 3.70781 3.73758 3.92047 3.94295 3.96567 4.09098
 4.22501 4.27347 4.31557 4.35514 4.59977 4.62255 8.16470 8.45667 8.55752 8.60381
 9.71006 9.98763 13.36099 13.40670
 == 996-th k-point (0.12246,0.12246,0.48986) occupation: 14==
 -65.00570 -65.00570 -4.62782 -4.62774 -3.03971 -3.03970 -3.03943 -3.03922 -3.03898 -3.03896
 -0.05691 0.03938 0.13897 0.18520 0.32145 0.40101 0.52639 0.52877 0.66369 0.67273
 0.73459 0.75131 0.78919 0.87980 0.90099 0.96865 0.97760 1.00130 1.02863 1.11550
 1.16527 1.17414 1.19462 1.30621 1.35780 1.36262 1.42342 1.46969 1.50778 1.56798
 1.61543 1.63024 1.68683 1.71373 1.72379 1.81639 1.86659 1.87707 1.93511 1.97919
 1.98454 2.05553 2.11995 2.13785 2.17448 2.19202 2.24641 2.32978 2.35576 2.37750
 2.45312 2.45663 2.51434 2.54401 2.55138 2.63259 2.65567 2.76409 2.79292 2.81595
 2.82550 2.91352 2.91703 2.95326 2.95641 3.02078 3.02214 3.05747 3.07951 3.14846
 3.18931 3.22421 3.26885 3.32628 3.32903 3.35357 3.36608 3.46060 3.48412 3.48745
 3.56760 3.64225 3.65875 3.66479 3.71060 3.76629 3.82969 3.87921 3.94270 4.02187
 4.09746 4.23288 4.27195 4.30737 4.57547 4.59388 8.10073 8.36335 8.44108 8.77108
 9.78561 10.06615 13.24198 13.85592
 == 997-th k-point (0.18370,0.18370,0.42863) occupation: 14==
 -65.00570 -65.00569 -4.62784 -4.62772 -3.03971 -3.03969 -3.03949 -3.03917 -3.03899 -3.03895
 -0.06953 0.03656 0.15957 0.20278 0.34409 0.44996 0.46533 0.48477 0.63665 0.66795
 0.72164 0.72167 0.74758 0.89937 0.94248 0.96489 1.02208 1.02949 1.03479 1.14001
 1.15173 1.25712 1.26670 1.29574 1.31755 1.36323 1.41570 1.43245 1.47411 1.55401
 1.59907 1.61413 1.66668 1.67835 1.72947 1.81011 1.90607 1.92097 1.98965 1.99198
 2.03583 2.05613 2.06646 2.14835 2.15559 2.24360 2.29196 2.30212 2.31291 2.37077
 2.41504 2.47129 2.48836 2.51010 2.59100 2.66979 2.68158 2.73717 2.78778 2.82007
 2.83795 2.89722 2.93768 2.94063 2.95293 3.01583 3.05339 3.05353 3.06687 3.11034
 3.14591 3.24729 3.29813 3.30623 3.35126 3.36060 3.39219 3.42490 3.51953 3.52313
 3.58028 3.63396 3.66275 3.70916 3.75596 3.77596 3.81592 3.83089 3.84669 3.96166
 4.06428 4.18954 4.24927 4.28827 4.53883 4.54129 8.11373 8.34995 8.38380 8.93860
 9.72400 9.89983 13.02712 14.45161
 == 998-th k-point (0.24493,0.24493,0.36739) occupation: 14==
 -65.00570 -65.00569 -4.62785 -4.62771 -3.03969 -3.03968 -3.03954 -3.03913 -3.03899 -3.03897
 -0.07616 0.02413 0.20223 0.22151 0.35578 0.39870 0.41845 0.56293 0.60558 0.66931
 0.69824 0.70444 0.73520 0.80831 0.96664 1.02415 1.03242 1.07490 1.10280 1.11379
 1.21301 1.24593 1.24754 1.31283 1.32910 1.38377 1.40669 1.42298 1.47922 1.51400
 1.53818 1.60162 1.66811 1.70700 1.74833 1.81814 1.84904 1.94936 1.95296 1.99110
 2.06877 2.11419 2.13267 2.19011 2.21382 2.22099 2.24486 2.28548 2.33646 2.34101
 2.44528 2.44869 2.51512 2.55238 2.56531 2.67925 2.75071 2.76447 2.77026 2.80511
 2.82519 2.86398 2.88392 2.92590 2.96249 2.96302 3.03119 3.08782 3.09676 3.11710
 3.15163 3.20702 3.22708 3.22714 3.40149 3.42852 3.45591 3.49099 3.53769 3.53842
 3.59397 3.64967 3.65995 3.67050 3.72963 3.77082 3.80093 3.86394 3.97634 3.97701
 4.03719 4.14806 4.23859 4.31065 4.48295 4.48921 8.19535 8.35307 8.36947 9.16819
 9.51264 9.99134 12.43779 14.68131
 == 999-th k-point (0.30616,0.30616,0.30616) occupation: 14==
 -65.00570 -65.00569 -4.62785 -4.62771 -3.03968 -3.03968 -3.03957 -3.03910 -3.03898 -3.03898
 -0.07814 0.01867 0.23061 0.23061 0.33348 0.39988 0.39988 0.55829 0.67259 0.67259
 0.69294 0.69516 0.69516 0.75385 0.99992 1.01491 1.09075 1.09075 1.09458 1.09458
 1.23859 1.26021 1.26021 1.30696 1.30696 1.35730 1.41646 1.49042 1.49042 1.50104
 1.50104 1.58384 1.62551 1.65338 1.87967 1.87967 1.88673 1.90814 1.90814 1.92003
 2.12733 2.12733 2.19130 2.19611 2.19611 2.24472 2.26987 2.26987 2.33412 2.33412
 2.46223 2.46223 2.55668 2.55668 2.60147 2.67913 2.74732 2.77455 2.77455 2.79477
 2.81808 2.81808 2.82822 2.91954 2.95000 2.96166 3.09534 3.09534 3.09792 3.09792
 3.19216 3.19216 3.21257 3.21257 3.31468 3.46580 3.46580 3.55215 3.55597 3.55597
 3.56436 3.67413 3.67413 3.69029 3.73070 3.76069 3.93380 3.93380 4.00622 4.00622
 4.12700 4.14908 4.14908 4.33510 4.43932 4.43932 8.25912 8.25912 8.32962 9.36514
 9.36514 10.00476 11.95044 14.72073
 ---------------------------------------------------------------------------
 VBM is at 444-th k-point with 7.49078 eV
 CBM is at 4-th k-point with 8.09239 eV
 Band gap is 0.60160 eV


           Ground-State Mulliken Net Atomic Charges

      Atom                 Charge (a.u.)          Spin (a.u.)
   --------------------------------------------------------
      1 Si              (-0.000001,-0.000000)    (0.000000,0.000000)
      2 Si                (0.000001,0.000000)    (0.000000,0.000000)
   --------------------------------------------------------
  Sum of atomic charges =       (0.000000,0.000000)
  Sum of spin   charges =       (0.000000,0.000000)



 Total job time:  1418.26 s.
 Tue Sep  9 06:14:19 2025


        *************************************************************
        *                                                           *
        *  Thank you very much for using QCPBC. Have a nice day.    *
        *                                                           *
        *************************************************************

Running job 1 of 1
