                  Welcome to Q-Chem
           with Periodic Boundary Condition
     A Quantum Leap Into The Future Of Chemistry

 Adam Rettig, Xintian Feng, Meng-Fu Chen, Hieu Dinh, Stephen Quiton,
 Anton Ni, Paul J. Robinson, Jinghong Zhang, Joonho Lee

Contributors to earlier versions of Q-Chem not listed above:
 Evgeny Epifanovsky, Leo Cunha, Jerome F. Gonthier, Kuan-Yu Liu
 Input file: /n/netscratch/joonholee_lab/Lab/hieudinh//si_2_ccpvqz_omega_0.6_999.scratch20250909043531/si_2_ccpvqz_omega_0.6_999.0
 Scratch folder: /n/netscratch/joonholee_lab/Lab/hieudinh//si_2_ccpvqz_omega_0.6_999.scratch20250909043531
 Auxillary files located at: /n/holylabs/LABS/joonholee_lab/Lab/qchem_base/qcaux
 Q-Chem begins on Tue Sep  9 04:35:32 2025

 -------------------------------------------------------------
 User input:
 -------------------------------------------------------------
 $lattice
 3
 0.000000 5.130600 5.130600
 5.130600 0.000000 5.130600
 5.130600 5.130600 0.000000
 $end
 
 $unitcell
 ABSOLUTE
 0 1
 Si 0.000000 0.000000 0.000000
 Si 2.565300 2.565300 2.565300
 $end
 
 $rem
 jobtype = sp
 method = pbe
 scf_convergence = 5
 scf_guess = autosad
 scf_algorithm = diis_gdm
 basis = cc-pvqz
 aux_basis = cc-pvqz-jk
 input_bohr = true
 symmetry = false
 rsdf_print_level 1
 is_basis_uctr true
 
 mp_mesh = [9,9,9]
 
 integral_direct true
 bvk_cgto true
 
 thresh 14
 mem_total 1000000
 threads 32
 
 MAX_SCF_CYCLES 500
 madelung = false
 omega 0.6
 do_rij_bigmem true
 automate_g true
 print_level 10
 grid_type_xc 1
 
 thresh_1e2c_sp 1e-14
 thresh_2e3c_bra_ket_sep 1e-10
 thresh_g 1e-12
 $end
 
 -------------------------------------------------------------
 Running PBC job

 Requested Exchange Correlation Functionals: 
  DFT Exchange:  1.00000 pbe_x
  DFT Correlation:  1.00000 pbe_c
 using 32 threads for computing.
 ---------------------------------------------------------------
      Coordinates of Atoms in Central Unit Cell (Angstroms)
    I     Atom         X            Y            Z
 ---------------------------------------------------------------
    1      Si      0.000000     0.000000     0.000000
    2      Si      1.357498     1.357498     1.357498
 ---------------------------------------------------------------
 --------------------------------------------------
              Lattice Vectors (Angstroms)
              X            Y            Z
 --------------------------------------------------
   X       0.000000     2.714997     2.714997
   Y       2.714997     0.000000     2.714997
   Z       2.714997     2.714997     0.000000
 --------------------------------------------------
 --------------------------------------------------
       Reciprocal Lattice Vectors (Angstroms^-1)
              X            Y            Z
 --------------------------------------------------
   X      -1.157126     1.157126     1.157126
   Y       1.157126    -1.157126     1.157126
   Z       1.157126     1.157126    -1.157126
 --------------------------------------------------

 Single point calculation requested

 Hamiltonian contributions:
 List of terms in Hamiltonian: kpts_nn, kpts_kinetic, kpts_vnuc_df, kpts_xc, kpts_rij_bigmem

 K-Points calculation started.

 Basis set information about using solid harmonic (1) or Cartesian (0):
  si : D(1) D(1) D(1) F(1) F(1) G(1) 

 Basis set information about using solid harmonic (1) or Cartesian (0):
  si : D(1) D(1) D(1) D(1) D(1) D(1) D(1) D(1) D(1) F(1) F(1) F(1) F(1) G(1) G(1) H(1) 

 There are 118 basis functions in the central unit cell.
 Print atomic basis of atoms in the central unit cell:
 -------------------------------------------------------------
2 66 134 28

  0.00000000000000e+00  0.00000000000000e+00  0.00000000000000e+00
  2.56530000000000e+00  2.56530000000000e+00  2.56530000000000e+00

  5.13000000000000e+05
  7.68200000000000e+04
  1.74700000000000e+04
  4.93500000000000e+03
  1.60200000000000e+03
  5.74100000000000e+02
  2.21500000000000e+02
  9.05400000000000e+01
  3.87400000000000e+01
  1.69500000000000e+01
  6.45200000000000e+00
  2.87400000000000e+00
  1.25000000000000e+00
  3.59900000000000e-01
  1.69900000000000e-01
  7.06600000000000e-02
  1.12200000000000e+03
  2.66000000000000e+02
  8.59200000000000e+01
  3.23300000000000e+01
  1.33700000000000e+01
  5.80000000000000e+00
  2.55900000000000e+00
  1.12400000000000e+00
  3.98800000000000e-01
  1.53300000000000e-01
  5.72800000000000e-02
  7.60000000000000e-01
  3.02000000000000e-01
  1.20000000000000e-01
  5.41000000000000e-01
  2.12000000000000e-01
  4.61000000000000e-01
  5.13000000000000e+05
  7.68200000000000e+04
  1.74700000000000e+04
  4.93500000000000e+03
  1.60200000000000e+03
  5.74100000000000e+02
  2.21500000000000e+02
  9.05400000000000e+01
  3.87400000000000e+01
  1.69500000000000e+01
  6.45200000000000e+00
  2.87400000000000e+00
  1.25000000000000e+00
  3.59900000000000e-01
  1.69900000000000e-01
  7.06600000000000e-02
  1.12200000000000e+03
  2.66000000000000e+02
  8.59200000000000e+01
  3.23300000000000e+01
  1.33700000000000e+01
  5.80000000000000e+00
  2.55900000000000e+00
  1.12400000000000e+00
  3.98800000000000e-01
  1.53300000000000e-01
  5.72800000000000e-02
  7.60000000000000e-01
  3.02000000000000e-01
  1.20000000000000e-01
  5.41000000000000e-01
  2.12000000000000e-01
  4.61000000000000e-01

  3.56439732356011e-01
  6.67250935594825e-01
  1.15567538346971e+00
  1.89079471139597e+00
  2.92997535092854e+00
  4.25377897422013e+00
  5.53035652706994e+00
  5.88407857713363e+00
  4.26432221020809e+00
  1.46246852660687e+00
  9.90009037975635e-02
 -5.26805361731285e-03
  1.58075269248041e-03
 -9.63604858609034e-02
 -1.80140685379119e-01
 -3.12991611081079e-01
 -5.12013980868736e-01
 -8.03092560139717e-01
 -1.18597193899895e+00
 -1.63453354628192e+00
 -1.94138718043020e+00
 -1.86039340932271e+00
 -9.21642524314205e-01
  4.93552860211257e-01
  9.09065541611183e-01
  3.40430003714153e-01
  4.89002727192571e-02
  9.13245846186842e-02
  1.58921585782757e-01
  2.59526822498432e-01
  4.08347517411705e-01
  6.02266139654795e-01
  8.36774006155092e-01
  9.98775610751853e-01
  9.86583994360998e-01
  5.01500269670235e-01
 -2.91439000418814e-01
 -6.84883633703988e-01
 -4.85138432421684e-01
  3.31166560285492e-01
  1.88605835767988e-01
  9.76765512168845e-02
  4.17977074735086e+00
  5.88843070847456e+00
  7.44317185052013e+00
  8.05001094515016e+00
  6.97099017282640e+00
  4.33955185260449e+00
  1.76355858703549e+00
  3.34437932089088e-01
 -4.09551658476811e+00
 -5.70145272051300e+00
 -7.35388974061730e+00
 -7.93663059323219e+00
 -7.17813870370958e+00
 -4.42768957771269e+00
 -2.05517820096269e+00
 -1.72105843348797e-01
  4.51735295769850e-01
  1.36731249153695e-01
  3.99432914781939e-02
  1.01820035164008e+00
  2.02498404800701e-01
  4.02695370421242e-02
  3.69528803814005e-01
  4.48962571437413e-02
  1.32316184864580e-01
  3.56439732356011e-01
  6.67250935594825e-01
  1.15567538346971e+00
  1.89079471139597e+00
  2.92997535092854e+00
  4.25377897422013e+00
  5.53035652706994e+00
  5.88407857713363e+00
  4.26432221020809e+00
  1.46246852660687e+00
  9.90009037975635e-02
 -5.26805361731285e-03
  1.58075269248041e-03
 -9.63604858609034e-02
 -1.80140685379119e-01
 -3.12991611081079e-01
 -5.12013980868736e-01
 -8.03092560139717e-01
 -1.18597193899895e+00
 -1.63453354628192e+00
 -1.94138718043020e+00
 -1.86039340932271e+00
 -9.21642524314205e-01
  4.93552860211257e-01
  9.09065541611183e-01
  3.40430003714153e-01
  4.89002727192571e-02
  9.13245846186842e-02
  1.58921585782757e-01
  2.59526822498432e-01
  4.08347517411705e-01
  6.02266139654795e-01
  8.36774006155092e-01
  9.98775610751853e-01
  9.86583994360998e-01
  5.01500269670235e-01
 -2.91439000418814e-01
 -6.84883633703988e-01
 -4.85138432421684e-01
  3.31166560285492e-01
  1.88605835767988e-01
  9.76765512168845e-02
  4.17977074735086e+00
  5.88843070847456e+00
  7.44317185052013e+00
  8.05001094515016e+00
  6.97099017282640e+00
  4.33955185260449e+00
  1.76355858703549e+00
  3.34437932089088e-01
 -4.09551658476811e+00
 -5.70145272051300e+00
 -7.35388974061730e+00
 -7.93663059323219e+00
 -7.17813870370958e+00
 -4.42768957771269e+00
 -2.05517820096269e+00
 -1.72105843348797e-01
  4.51735295769850e-01
  1.36731249153695e-01
  3.99432914781939e-02
  1.01820035164008e+00
  2.02498404800701e-01
  4.02695370421242e-02
  3.69528803814005e-01
  4.48962571437413e-02
  1.32316184864580e-01

0 0 0 0 3 3 3
0 0 13 0 26 0 
13 0

0 3 3 13 1 1 1
39 0 
1 0

0 4 4 14 1 1 1
40 0 
1 0

0 5 5 15 1 1 1
41 0 
1 0

0 6 6 16 2 6 6
42 1 50 1 
8 0

0 12 12 24 1 3 3
58 1 
1 0

0 15 15 25 1 3 3
59 1 
1 0

0 18 18 26 1 3 3
60 1 
1 0

0 21 21 27 1 5 6
61 2 
1 1

0 26 26 28 1 5 6
62 2 
1 1

0 31 31 29 1 5 6
63 2 
1 1

0 36 36 30 1 7 10
64 3 
1 1

0 43 43 31 1 7 10
65 3 
1 1

0 50 50 32 1 9 15
66 4 
1 1

1 59 59 33 3 3 3
67 0 80 0 93 0 
13 0

1 62 62 46 1 1 1
106 0 
1 0

1 63 63 47 1 1 1
107 0 
1 0

1 64 64 48 1 1 1
108 0 
1 0

1 65 65 49 2 6 6
109 1 117 1 
8 0

1 71 71 57 1 3 3
125 1 
1 0

1 74 74 58 1 3 3
126 1 
1 0

1 77 77 59 1 3 3
127 1 
1 0

1 80 80 60 1 5 6
128 2 
1 1

1 85 85 61 1 5 6
129 2 
1 1

1 90 90 62 1 5 6
130 2 
1 1

1 95 95 63 1 7 10
131 3 
1 1

1 102 102 64 1 7 10
132 3 
1 1

1 109 109 65 1 9 15
133 4 
1 1

 -------------------------------------------------------------
 Allocate 265256 B from available memory: 1048576000000 B
 There are 2197 image cells after screening.
 There are 2061 image cells for CGTO evaluation after screening.
 Real-Space grid for FFT initialized based on kinetic energy cutoff (eV) = 500.0
 Real-Space grid for FFT: (10,10,10)
 There are 9261 real-space grid points.
 There are 64 batches of real-space grid points. 
 Size of each grid batch is around 128
 Grid for AFT initialized based on kinetic energy cutoff (eV) = 500.0
 Real-Space grid for AFT: (10,10,10)
 There are 9261 real-space grid points.

 There are 5628 atom-centered grid points.

 Spacegroup symmetry group: Fd-3m
 Reducing spacegroup symmetry to symmorphic group: F -4 3 m
 Monkhorst-Pack mesh is [9,9,9]
 There are 729 k points.
kpoints in Bohr
-0.2721442719 -0.2721442719 -0.2721442719
-0.2041082040 -0.2041082040 -0.3401803399
-0.1360721360 -0.1360721360 -0.4082164079
-0.0680360680 -0.0680360680 -0.4762524759
-0.0000000000 -0.0000000000 -0.5442885439
0.0680360680 0.0680360680 -0.6123246119
0.1360721360 0.1360721360 -0.6803606798
0.2041082040 0.2041082040 -0.7483967478
0.2721442719 0.2721442719 -0.8164328158
-0.2041082040 -0.3401803399 -0.2041082040
-0.1360721360 -0.2721442719 -0.2721442719
-0.0680360680 -0.2041082040 -0.3401803399
-0.0000000000 -0.1360721360 -0.4082164079
0.0680360680 -0.0680360680 -0.4762524759
0.1360721360 -0.0000000000 -0.5442885439
0.2041082040 0.0680360680 -0.6123246119
0.2721442719 0.1360721360 -0.6803606798
0.3401803399 0.2041082040 -0.7483967478
-0.1360721360 -0.4082164079 -0.1360721360
-0.0680360680 -0.3401803399 -0.2041082040
-0.0000000000 -0.2721442719 -0.2721442719
0.0680360680 -0.2041082040 -0.3401803399
0.1360721360 -0.1360721360 -0.4082164079
0.2041082040 -0.0680360680 -0.4762524759
0.2721442719 -0.0000000000 -0.5442885439
0.3401803399 0.0680360680 -0.6123246119
0.4082164079 0.1360721360 -0.6803606798
-0.0680360680 -0.4762524759 -0.0680360680
-0.0000000000 -0.4082164079 -0.1360721360
0.0680360680 -0.3401803399 -0.2041082040
0.1360721360 -0.2721442719 -0.2721442719
0.2041082040 -0.2041082040 -0.3401803399
0.2721442719 -0.1360721360 -0.4082164079
0.3401803399 -0.0680360680 -0.4762524759
0.4082164079 0.0000000000 -0.5442885439
0.4762524759 0.0680360680 -0.6123246119
-0.0000000000 -0.5442885439 0.0000000000
0.0680360680 -0.4762524759 -0.0680360680
0.1360721360 -0.4082164079 -0.1360721360
0.2041082040 -0.3401803399 -0.2041082040
0.2721442719 -0.2721442719 -0.2721442719
0.3401803399 -0.2041082040 -0.3401803399
0.4082164079 -0.1360721360 -0.4082164079
0.4762524759 -0.0680360680 -0.4762524759
0.5442885439 0.0000000000 -0.5442885439
0.0680360680 -0.6123246119 0.0680360680
0.1360721360 -0.5442885439 -0.0000000000
0.2041082040 -0.4762524759 -0.0680360680
0.2721442719 -0.4082164079 -0.1360721360
0.3401803399 -0.3401803399 -0.2041082040
0.4082164079 -0.2721442719 -0.2721442719
0.4762524759 -0.2041082040 -0.3401803399
0.5442885439 -0.1360721360 -0.4082164079
0.6123246119 -0.0680360680 -0.4762524759
0.1360721360 -0.6803606798 0.1360721360
0.2041082040 -0.6123246119 0.0680360680
0.2721442719 -0.5442885439 0.0000000000
0.3401803399 -0.4762524759 -0.0680360680
0.4082164079 -0.4082164079 -0.1360721360
0.4762524759 -0.3401803399 -0.2041082040
0.5442885439 -0.2721442719 -0.2721442719
0.6123246119 -0.2041082040 -0.3401803399
0.6803606798 -0.1360721360 -0.4082164079
0.2041082040 -0.7483967478 0.2041082040
0.2721442719 -0.6803606798 0.1360721360
0.3401803399 -0.6123246119 0.0680360680
0.4082164079 -0.5442885439 0.0000000000
0.4762524759 -0.4762524759 -0.0680360680
0.5442885439 -0.4082164079 -0.1360721360
0.6123246119 -0.3401803399 -0.2041082040
0.6803606798 -0.2721442719 -0.2721442719
0.7483967478 -0.2041082040 -0.3401803399
0.2721442719 -0.8164328158 0.2721442719
0.3401803399 -0.7483967478 0.2041082040
0.4082164079 -0.6803606798 0.1360721360
0.4762524759 -0.6123246119 0.0680360680
0.5442885439 -0.5442885439 0.0000000000
0.6123246119 -0.4762524759 -0.0680360680
0.6803606798 -0.4082164079 -0.1360721360
0.7483967478 -0.3401803399 -0.2041082040
0.8164328158 -0.2721442719 -0.2721442719
-0.3401803399 -0.2041082040 -0.2041082040
-0.2721442719 -0.1360721360 -0.2721442719
-0.2041082040 -0.0680360680 -0.3401803399
-0.1360721360 -0.0000000000 -0.4082164079
-0.0680360680 0.0680360680 -0.4762524759
-0.0000000000 0.1360721360 -0.5442885439
0.0680360680 0.2041082040 -0.6123246119
0.1360721360 0.2721442719 -0.6803606798
0.2041082040 0.3401803399 -0.7483967478
-0.2721442719 -0.2721442719 -0.1360721360
-0.2041082040 -0.2041082040 -0.2041082040
-0.1360721360 -0.1360721360 -0.2721442719
-0.0680360680 -0.0680360680 -0.3401803399
-0.0000000000 -0.0000000000 -0.4082164079
0.0680360680 0.0680360680 -0.4762524759
0.1360721360 0.1360721360 -0.5442885439
0.2041082040 0.2041082040 -0.6123246119
0.2721442719 0.2721442719 -0.6803606798
-0.2041082040 -0.3401803399 -0.0680360680
-0.1360721360 -0.2721442719 -0.1360721360
-0.0680360680 -0.2041082040 -0.2041082040
-0.0000000000 -0.1360721360 -0.2721442719
0.0680360680 -0.0680360680 -0.3401803399
0.1360721360 -0.0000000000 -0.4082164079
0.2041082040 0.0680360680 -0.4762524759
0.2721442719 0.1360721360 -0.5442885439
0.3401803399 0.2041082040 -0.6123246119
-0.1360721360 -0.4082164079 0.0000000000
-0.0680360680 -0.3401803399 -0.0680360680
-0.0000000000 -0.2721442719 -0.1360721360
0.0680360680 -0.2041082040 -0.2041082040
0.1360721360 -0.1360721360 -0.2721442719
0.2041082040 -0.0680360680 -0.3401803399
0.2721442719 -0.0000000000 -0.4082164079
0.3401803399 0.0680360680 -0.4762524759
0.4082164079 0.1360721360 -0.5442885439
-0.0680360680 -0.4762524759 0.0680360680
-0.0000000000 -0.4082164079 0.0000000000
0.0680360680 -0.3401803399 -0.0680360680
0.1360721360 -0.2721442719 -0.1360721360
0.2041082040 -0.2041082040 -0.2041082040
0.2721442719 -0.1360721360 -0.2721442719
0.3401803399 -0.0680360680 -0.3401803399
0.4082164079 0.0000000000 -0.4082164079
0.4762524759 0.0680360680 -0.4762524759
-0.0000000000 -0.5442885439 0.1360721360
0.0680360680 -0.4762524759 0.0680360680
0.1360721360 -0.4082164079 0.0000000000
0.2041082040 -0.3401803399 -0.0680360680
0.2721442719 -0.2721442719 -0.1360721360
0.3401803399 -0.2041082040 -0.2041082040
0.4082164079 -0.1360721360 -0.2721442719
0.4762524759 -0.0680360680 -0.3401803399
0.5442885439 0.0000000000 -0.4082164079
0.0680360680 -0.6123246119 0.2041082040
0.1360721360 -0.5442885439 0.1360721360
0.2041082040 -0.4762524759 0.0680360680
0.2721442719 -0.4082164079 0.0000000000
0.3401803399 -0.3401803399 -0.0680360680
0.4082164079 -0.2721442719 -0.1360721360
0.4762524759 -0.2041082040 -0.2041082040
0.5442885439 -0.1360721360 -0.2721442719
0.6123246119 -0.0680360680 -0.3401803399
0.1360721360 -0.6803606798 0.2721442719
0.2041082040 -0.6123246119 0.2041082040
0.2721442719 -0.5442885439 0.1360721360
0.3401803399 -0.4762524759 0.0680360680
0.4082164079 -0.4082164079 0.0000000000
0.4762524759 -0.3401803399 -0.0680360680
0.5442885439 -0.2721442719 -0.1360721360
0.6123246119 -0.2041082040 -0.2041082040
0.6803606798 -0.1360721360 -0.2721442719
0.2041082040 -0.7483967478 0.3401803399
0.2721442719 -0.6803606798 0.2721442719
0.3401803399 -0.6123246119 0.2041082040
0.4082164079 -0.5442885439 0.1360721360
0.4762524759 -0.4762524759 0.0680360680
0.5442885439 -0.4082164079 0.0000000000
0.6123246119 -0.3401803399 -0.0680360680
0.6803606798 -0.2721442719 -0.1360721360
0.7483967478 -0.2041082040 -0.2041082040
-0.4082164079 -0.1360721360 -0.1360721360
-0.3401803399 -0.0680360680 -0.2041082040
-0.2721442719 -0.0000000000 -0.2721442719
-0.2041082040 0.0680360680 -0.3401803399
-0.1360721360 0.1360721360 -0.4082164079
-0.0680360680 0.2041082040 -0.4762524759
-0.0000000000 0.2721442719 -0.5442885439
0.0680360680 0.3401803399 -0.6123246119
0.1360721360 0.4082164079 -0.6803606798
-0.3401803399 -0.2041082040 -0.0680360680
-0.2721442719 -0.1360721360 -0.1360721360
-0.2041082040 -0.0680360680 -0.2041082040
-0.1360721360 -0.0000000000 -0.2721442719
-0.0680360680 0.0680360680 -0.3401803399
-0.0000000000 0.1360721360 -0.4082164079
0.0680360680 0.2041082040 -0.4762524759
0.1360721360 0.2721442719 -0.5442885439
0.2041082040 0.3401803399 -0.6123246119
-0.2721442719 -0.2721442719 0.0000000000
-0.2041082040 -0.2041082040 -0.0680360680
-0.1360721360 -0.1360721360 -0.1360721360
-0.0680360680 -0.0680360680 -0.2041082040
-0.0000000000 -0.0000000000 -0.2721442719
0.0680360680 0.0680360680 -0.3401803399
0.1360721360 0.1360721360 -0.4082164079
0.2041082040 0.2041082040 -0.4762524759
0.2721442719 0.2721442719 -0.5442885439
-0.2041082040 -0.3401803399 0.0680360680
-0.1360721360 -0.2721442719 -0.0000000000
-0.0680360680 -0.2041082040 -0.0680360680
-0.0000000000 -0.1360721360 -0.1360721360
0.0680360680 -0.0680360680 -0.2041082040
0.1360721360 -0.0000000000 -0.2721442719
0.2041082040 0.0680360680 -0.3401803399
0.2721442719 0.1360721360 -0.4082164079
0.3401803399 0.2041082040 -0.4762524759
-0.1360721360 -0.4082164079 0.1360721360
-0.0680360680 -0.3401803399 0.0680360680
-0.0000000000 -0.2721442719 0.0000000000
0.0680360680 -0.2041082040 -0.0680360680
0.1360721360 -0.1360721360 -0.1360721360
0.2041082040 -0.0680360680 -0.2041082040
0.2721442719 0.0000000000 -0.2721442719
0.3401803399 0.0680360680 -0.3401803399
0.4082164079 0.1360721360 -0.4082164079
-0.0680360680 -0.4762524759 0.2041082040
-0.0000000000 -0.4082164079 0.1360721360
0.0680360680 -0.3401803399 0.0680360680
0.1360721360 -0.2721442719 0.0000000000
0.2041082040 -0.2041082040 -0.0680360680
0.2721442719 -0.1360721360 -0.1360721360
0.3401803399 -0.0680360680 -0.2041082040
0.4082164079 0.0000000000 -0.2721442719
0.4762524759 0.0680360680 -0.3401803399
-0.0000000000 -0.5442885439 0.2721442719
0.0680360680 -0.4762524759 0.2041082040
0.1360721360 -0.4082164079 0.1360721360
0.2041082040 -0.3401803399 0.0680360680
0.2721442719 -0.2721442719 0.0000000000
0.3401803399 -0.2041082040 -0.0680360680
0.4082164079 -0.1360721360 -0.1360721360
0.4762524759 -0.0680360680 -0.2041082040
0.5442885439 0.0000000000 -0.2721442719
0.0680360680 -0.6123246119 0.3401803399
0.1360721360 -0.5442885439 0.2721442719
0.2041082040 -0.4762524759 0.2041082040
0.2721442719 -0.4082164079 0.1360721360
0.3401803399 -0.3401803399 0.0680360680
0.4082164079 -0.2721442719 0.0000000000
0.4762524759 -0.2041082040 -0.0680360680
0.5442885439 -0.1360721360 -0.1360721360
0.6123246119 -0.0680360680 -0.2041082040
0.1360721360 -0.6803606798 0.4082164079
0.2041082040 -0.6123246119 0.3401803399
0.2721442719 -0.5442885439 0.2721442719
0.3401803399 -0.4762524759 0.2041082040
0.4082164079 -0.4082164079 0.1360721360
0.4762524759 -0.3401803399 0.0680360680
0.5442885439 -0.2721442719 0.0000000000
0.6123246119 -0.2041082040 -0.0680360680
0.6803606798 -0.1360721360 -0.1360721360
-0.4762524759 -0.0680360680 -0.0680360680
-0.4082164079 -0.0000000000 -0.1360721360
-0.3401803399 0.0680360680 -0.2041082040
-0.2721442719 0.1360721360 -0.2721442719
-0.2041082040 0.2041082040 -0.3401803399
-0.1360721360 0.2721442719 -0.4082164079
-0.0680360680 0.3401803399 -0.4762524759
0.0000000000 0.4082164079 -0.5442885439
0.0680360680 0.4762524759 -0.6123246119
-0.4082164079 -0.1360721360 0.0000000000
-0.3401803399 -0.0680360680 -0.0680360680
-0.2721442719 -0.0000000000 -0.1360721360
-0.2041082040 0.0680360680 -0.2041082040
-0.1360721360 0.1360721360 -0.2721442719
-0.0680360680 0.2041082040 -0.3401803399
0.0000000000 0.2721442719 -0.4082164079
0.0680360680 0.3401803399 -0.4762524759
0.1360721360 0.4082164079 -0.5442885439
-0.3401803399 -0.2041082040 0.0680360680
-0.2721442719 -0.1360721360 -0.0000000000
-0.2041082040 -0.0680360680 -0.0680360680
-0.1360721360 -0.0000000000 -0.1360721360
-0.0680360680 0.0680360680 -0.2041082040
-0.0000000000 0.1360721360 -0.2721442719
0.0680360680 0.2041082040 -0.3401803399
0.1360721360 0.2721442719 -0.4082164079
0.2041082040 0.3401803399 -0.4762524759
-0.2721442719 -0.2721442719 0.1360721360
-0.2041082040 -0.2041082040 0.0680360680
-0.1360721360 -0.1360721360 0.0000000000
-0.0680360680 -0.0680360680 -0.0680360680
-0.0000000000 -0.0000000000 -0.1360721360
0.0680360680 0.0680360680 -0.2041082040
0.1360721360 0.1360721360 -0.2721442719
0.2041082040 0.2041082040 -0.3401803399
0.2721442719 0.2721442719 -0.4082164079
-0.2041082040 -0.3401803399 0.2041082040
-0.1360721360 -0.2721442719 0.1360721360
-0.0680360680 -0.2041082040 0.0680360680
-0.0000000000 -0.1360721360 0.0000000000
0.0680360680 -0.0680360680 -0.0680360680
0.1360721360 0.0000000000 -0.1360721360
0.2041082040 0.0680360680 -0.2041082040
0.2721442719 0.1360721360 -0.2721442719
0.3401803399 0.2041082040 -0.3401803399
-0.1360721360 -0.4082164079 0.2721442719
-0.0680360680 -0.3401803399 0.2041082040
-0.0000000000 -0.2721442719 0.1360721360
0.0680360680 -0.2041082040 0.0680360680
0.1360721360 -0.1360721360 0.0000000000
0.2041082040 -0.0680360680 -0.0680360680
0.2721442719 0.0000000000 -0.1360721360
0.3401803399 0.0680360680 -0.2041082040
0.4082164079 0.1360721360 -0.2721442719
-0.0680360680 -0.4762524759 0.3401803399
-0.0000000000 -0.4082164079 0.2721442719
0.0680360680 -0.3401803399 0.2041082040
0.1360721360 -0.2721442719 0.1360721360
0.2041082040 -0.2041082040 0.0680360680
0.2721442719 -0.1360721360 0.0000000000
0.3401803399 -0.0680360680 -0.0680360680
0.4082164079 0.0000000000 -0.1360721360
0.4762524759 0.0680360680 -0.2041082040
-0.0000000000 -0.5442885439 0.4082164079
0.0680360680 -0.4762524759 0.3401803399
0.1360721360 -0.4082164079 0.2721442719
0.2041082040 -0.3401803399 0.2041082040
0.2721442719 -0.2721442719 0.1360721360
0.3401803399 -0.2041082040 0.0680360680
0.4082164079 -0.1360721360 0.0000000000
0.4762524759 -0.0680360680 -0.0680360680
0.5442885439 0.0000000000 -0.1360721360
0.0680360680 -0.6123246119 0.4762524759
0.1360721360 -0.5442885439 0.4082164079
0.2041082040 -0.4762524759 0.3401803399
0.2721442719 -0.4082164079 0.2721442719
0.3401803399 -0.3401803399 0.2041082040
0.4082164079 -0.2721442719 0.1360721360
0.4762524759 -0.2041082040 0.0680360680
0.5442885439 -0.1360721360 0.0000000000
0.6123246119 -0.0680360680 -0.0680360680
-0.5442885439 -0.0000000000 0.0000000000
-0.4762524759 0.0680360680 -0.0680360680
-0.4082164079 0.1360721360 -0.1360721360
-0.3401803399 0.2041082040 -0.2041082040
-0.2721442719 0.2721442719 -0.2721442719
-0.2041082040 0.3401803399 -0.3401803399
-0.1360721360 0.4082164079 -0.4082164079
-0.0680360680 0.4762524759 -0.4762524759
0.0000000000 0.5442885439 -0.5442885439
-0.4762524759 -0.0680360680 0.0680360680
-0.4082164079 -0.0000000000 -0.0000000000
-0.3401803399 0.0680360680 -0.0680360680
-0.2721442719 0.1360721360 -0.1360721360
-0.2041082040 0.2041082040 -0.2041082040
-0.1360721360 0.2721442719 -0.2721442719
-0.0680360680 0.3401803399 -0.3401803399
0.0000000000 0.4082164079 -0.4082164079
0.0680360680 0.4762524759 -0.4762524759
-0.4082164079 -0.1360721360 0.1360721360
-0.3401803399 -0.0680360680 0.0680360680
-0.2721442719 -0.0000000000 0.0000000000
-0.2041082040 0.0680360680 -0.0680360680
-0.1360721360 0.1360721360 -0.1360721360
-0.0680360680 0.2041082040 -0.2041082040
0.0000000000 0.2721442719 -0.2721442719
0.0680360680 0.3401803399 -0.3401803399
0.1360721360 0.4082164079 -0.4082164079
-0.3401803399 -0.2041082040 0.2041082040
-0.2721442719 -0.1360721360 0.1360721360
-0.2041082040 -0.0680360680 0.0680360680
-0.1360721360 -0.0000000000 0.0000000000
-0.0680360680 0.0680360680 -0.0680360680
0.0000000000 0.1360721360 -0.1360721360
0.0680360680 0.2041082040 -0.2041082040
0.1360721360 0.2721442719 -0.2721442719
0.2041082040 0.3401803399 -0.3401803399
-0.2721442719 -0.2721442719 0.2721442719
-0.2041082040 -0.2041082040 0.2041082040
-0.1360721360 -0.1360721360 0.1360721360
-0.0680360680 -0.0680360680 0.0680360680
0.0000000000 0.0000000000 0.0000000000
0.0680360680 0.0680360680 -0.0680360680
0.1360721360 0.1360721360 -0.1360721360
0.2041082040 0.2041082040 -0.2041082040
0.2721442719 0.2721442719 -0.2721442719
-0.2041082040 -0.3401803399 0.3401803399
-0.1360721360 -0.2721442719 0.2721442719
-0.0680360680 -0.2041082040 0.2041082040
0.0000000000 -0.1360721360 0.1360721360
0.0680360680 -0.0680360680 0.0680360680
0.1360721360 0.0000000000 0.0000000000
0.2041082040 0.0680360680 -0.0680360680
0.2721442719 0.1360721360 -0.1360721360
0.3401803399 0.2041082040 -0.2041082040
-0.1360721360 -0.4082164079 0.4082164079
-0.0680360680 -0.3401803399 0.3401803399
0.0000000000 -0.2721442719 0.2721442719
0.0680360680 -0.2041082040 0.2041082040
0.1360721360 -0.1360721360 0.1360721360
0.2041082040 -0.0680360680 0.0680360680
0.2721442719 0.0000000000 0.0000000000
0.3401803399 0.0680360680 -0.0680360680
0.4082164079 0.1360721360 -0.1360721360
-0.0680360680 -0.4762524759 0.4762524759
-0.0000000000 -0.4082164079 0.4082164079
0.0680360680 -0.3401803399 0.3401803399
0.1360721360 -0.2721442719 0.2721442719
0.2041082040 -0.2041082040 0.2041082040
0.2721442719 -0.1360721360 0.1360721360
0.3401803399 -0.0680360680 0.0680360680
0.4082164079 0.0000000000 0.0000000000
0.4762524759 0.0680360680 -0.0680360680
0.0000000000 -0.5442885439 0.5442885439
0.0680360680 -0.4762524759 0.4762524759
0.1360721360 -0.4082164079 0.4082164079
0.2041082040 -0.3401803399 0.3401803399
0.2721442719 -0.2721442719 0.2721442719
0.3401803399 -0.2041082040 0.2041082040
0.4082164079 -0.1360721360 0.1360721360
0.4762524759 -0.0680360680 0.0680360680
0.5442885439 0.0000000000 0.0000000000
-0.6123246119 0.0680360680 0.0680360680
-0.5442885439 0.1360721360 -0.0000000000
-0.4762524759 0.2041082040 -0.0680360680
-0.4082164079 0.2721442719 -0.1360721360
-0.3401803399 0.3401803399 -0.2041082040
-0.2721442719 0.4082164079 -0.2721442719
-0.2041082040 0.4762524759 -0.3401803399
-0.1360721360 0.5442885439 -0.4082164079
-0.0680360680 0.6123246119 -0.4762524759
-0.5442885439 -0.0000000000 0.1360721360
-0.4762524759 0.0680360680 0.0680360680
-0.4082164079 0.1360721360 -0.0000000000
-0.3401803399 0.2041082040 -0.0680360680
-0.2721442719 0.2721442719 -0.1360721360
-0.2041082040 0.3401803399 -0.2041082040
-0.1360721360 0.4082164079 -0.2721442719
-0.0680360680 0.4762524759 -0.3401803399
0.0000000000 0.5442885439 -0.4082164079
-0.4762524759 -0.0680360680 0.2041082040
-0.4082164079 -0.0000000000 0.1360721360
-0.3401803399 0.0680360680 0.0680360680
-0.2721442719 0.1360721360 0.0000000000
-0.2041082040 0.2041082040 -0.0680360680
-0.1360721360 0.2721442719 -0.1360721360
-0.0680360680 0.3401803399 -0.2041082040
0.0000000000 0.4082164079 -0.2721442719
0.0680360680 0.4762524759 -0.3401803399
-0.4082164079 -0.1360721360 0.2721442719
-0.3401803399 -0.0680360680 0.2041082040
-0.2721442719 0.0000000000 0.1360721360
-0.2041082040 0.0680360680 0.0680360680
-0.1360721360 0.1360721360 0.0000000000
-0.0680360680 0.2041082040 -0.0680360680
0.0000000000 0.2721442719 -0.1360721360
0.0680360680 0.3401803399 -0.2041082040
0.1360721360 0.4082164079 -0.2721442719
-0.3401803399 -0.2041082040 0.3401803399
-0.2721442719 -0.1360721360 0.2721442719
-0.2041082040 -0.0680360680 0.2041082040
-0.1360721360 0.0000000000 0.1360721360
-0.0680360680 0.0680360680 0.0680360680
0.0000000000 0.1360721360 0.0000000000
0.0680360680 0.2041082040 -0.0680360680
0.1360721360 0.2721442719 -0.1360721360
0.2041082040 0.3401803399 -0.2041082040
-0.2721442719 -0.2721442719 0.4082164079
-0.2041082040 -0.2041082040 0.3401803399
-0.1360721360 -0.1360721360 0.2721442719
-0.0680360680 -0.0680360680 0.2041082040
0.0000000000 0.0000000000 0.1360721360
0.0680360680 0.0680360680 0.0680360680
0.1360721360 0.1360721360 0.0000000000
0.2041082040 0.2041082040 -0.0680360680
0.2721442719 0.2721442719 -0.1360721360
-0.2041082040 -0.3401803399 0.4762524759
-0.1360721360 -0.2721442719 0.4082164079
-0.0680360680 -0.2041082040 0.3401803399
0.0000000000 -0.1360721360 0.2721442719
0.0680360680 -0.0680360680 0.2041082040
0.1360721360 0.0000000000 0.1360721360
0.2041082040 0.0680360680 0.0680360680
0.2721442719 0.1360721360 0.0000000000
0.3401803399 0.2041082040 -0.0680360680
-0.1360721360 -0.4082164079 0.5442885439
-0.0680360680 -0.3401803399 0.4762524759
0.0000000000 -0.2721442719 0.4082164079
0.0680360680 -0.2041082040 0.3401803399
0.1360721360 -0.1360721360 0.2721442719
0.2041082040 -0.0680360680 0.2041082040
0.2721442719 0.0000000000 0.1360721360
0.3401803399 0.0680360680 0.0680360680
0.4082164079 0.1360721360 0.0000000000
-0.0680360680 -0.4762524759 0.6123246119
0.0000000000 -0.4082164079 0.5442885439
0.0680360680 -0.3401803399 0.4762524759
0.1360721360 -0.2721442719 0.4082164079
0.2041082040 -0.2041082040 0.3401803399
0.2721442719 -0.1360721360 0.2721442719
0.3401803399 -0.0680360680 0.2041082040
0.4082164079 0.0000000000 0.1360721360
0.4762524759 0.0680360680 0.0680360680
-0.6803606798 0.1360721360 0.1360721360
-0.6123246119 0.2041082040 0.0680360680
-0.5442885439 0.2721442719 0.0000000000
-0.4762524759 0.3401803399 -0.0680360680
-0.4082164079 0.4082164079 -0.1360721360
-0.3401803399 0.4762524759 -0.2041082040
-0.2721442719 0.5442885439 -0.2721442719
-0.2041082040 0.6123246119 -0.3401803399
-0.1360721360 0.6803606798 -0.4082164079
-0.6123246119 0.0680360680 0.2041082040
-0.5442885439 0.1360721360 0.1360721360
-0.4762524759 0.2041082040 0.0680360680
-0.4082164079 0.2721442719 -0.0000000000
-0.3401803399 0.3401803399 -0.0680360680
-0.2721442719 0.4082164079 -0.1360721360
-0.2041082040 0.4762524759 -0.2041082040
-0.1360721360 0.5442885439 -0.2721442719
-0.0680360680 0.6123246119 -0.3401803399
-0.5442885439 0.0000000000 0.2721442719
-0.4762524759 0.0680360680 0.2041082040
-0.4082164079 0.1360721360 0.1360721360
-0.3401803399 0.2041082040 0.0680360680
-0.2721442719 0.2721442719 0.0000000000
-0.2041082040 0.3401803399 -0.0680360680
-0.1360721360 0.4082164079 -0.1360721360
-0.0680360680 0.4762524759 -0.2041082040
0.0000000000 0.5442885439 -0.2721442719
-0.4762524759 -0.0680360680 0.3401803399
-0.4082164079 -0.0000000000 0.2721442719
-0.3401803399 0.0680360680 0.2041082040
-0.2721442719 0.1360721360 0.1360721360
-0.2041082040 0.2041082040 0.0680360680
-0.1360721360 0.2721442719 0.0000000000
-0.0680360680 0.3401803399 -0.0680360680
0.0000000000 0.4082164079 -0.1360721360
0.0680360680 0.4762524759 -0.2041082040
-0.4082164079 -0.1360721360 0.4082164079
-0.3401803399 -0.0680360680 0.3401803399
-0.2721442719 0.0000000000 0.2721442719
-0.2041082040 0.0680360680 0.2041082040
-0.1360721360 0.1360721360 0.1360721360
-0.0680360680 0.2041082040 0.0680360680
0.0000000000 0.2721442719 0.0000000000
0.0680360680 0.3401803399 -0.0680360680
0.1360721360 0.4082164079 -0.1360721360
-0.3401803399 -0.2041082040 0.4762524759
-0.2721442719 -0.1360721360 0.4082164079
-0.2041082040 -0.0680360680 0.3401803399
-0.1360721360 0.0000000000 0.2721442719
-0.0680360680 0.0680360680 0.2041082040
0.0000000000 0.1360721360 0.1360721360
0.0680360680 0.2041082040 0.0680360680
0.1360721360 0.2721442719 0.0000000000
0.2041082040 0.3401803399 -0.0680360680
-0.2721442719 -0.2721442719 0.5442885439
-0.2041082040 -0.2041082040 0.4762524759
-0.1360721360 -0.1360721360 0.4082164079
-0.0680360680 -0.0680360680 0.3401803399
0.0000000000 0.0000000000 0.2721442719
0.0680360680 0.0680360680 0.2041082040
0.1360721360 0.1360721360 0.1360721360
0.2041082040 0.2041082040 0.0680360680
0.2721442719 0.2721442719 0.0000000000
-0.2041082040 -0.3401803399 0.6123246119
-0.1360721360 -0.2721442719 0.5442885439
-0.0680360680 -0.2041082040 0.4762524759
0.0000000000 -0.1360721360 0.4082164079
0.0680360680 -0.0680360680 0.3401803399
0.1360721360 0.0000000000 0.2721442719
0.2041082040 0.0680360680 0.2041082040
0.2721442719 0.1360721360 0.1360721360
0.3401803399 0.2041082040 0.0680360680
-0.1360721360 -0.4082164079 0.6803606798
-0.0680360680 -0.3401803399 0.6123246119
0.0000000000 -0.2721442719 0.5442885439
0.0680360680 -0.2041082040 0.4762524759
0.1360721360 -0.1360721360 0.4082164079
0.2041082040 -0.0680360680 0.3401803399
0.2721442719 0.0000000000 0.2721442719
0.3401803399 0.0680360680 0.2041082040
0.4082164079 0.1360721360 0.1360721360
-0.7483967478 0.2041082040 0.2041082040
-0.6803606798 0.2721442719 0.1360721360
-0.6123246119 0.3401803399 0.0680360680
-0.5442885439 0.4082164079 -0.0000000000
-0.4762524759 0.4762524759 -0.0680360680
-0.4082164079 0.5442885439 -0.1360721360
-0.3401803399 0.6123246119 -0.2041082040
-0.2721442719 0.6803606798 -0.2721442719
-0.2041082040 0.7483967478 -0.3401803399
-0.6803606798 0.1360721360 0.2721442719
-0.6123246119 0.2041082040 0.2041082040
-0.5442885439 0.2721442719 0.1360721360
-0.4762524759 0.3401803399 0.0680360680
-0.4082164079 0.4082164079 -0.0000000000
-0.3401803399 0.4762524759 -0.0680360680
-0.2721442719 0.5442885439 -0.1360721360
-0.2041082040 0.6123246119 -0.2041082040
-0.1360721360 0.6803606798 -0.2721442719
-0.6123246119 0.0680360680 0.3401803399
-0.5442885439 0.1360721360 0.2721442719
-0.4762524759 0.2041082040 0.2041082040
-0.4082164079 0.2721442719 0.1360721360
-0.3401803399 0.3401803399 0.0680360680
-0.2721442719 0.4082164079 -0.0000000000
-0.2041082040 0.4762524759 -0.0680360680
-0.1360721360 0.5442885439 -0.1360721360
-0.0680360680 0.6123246119 -0.2041082040
-0.5442885439 0.0000000000 0.4082164079
-0.4762524759 0.0680360680 0.3401803399
-0.4082164079 0.1360721360 0.2721442719
-0.3401803399 0.2041082040 0.2041082040
-0.2721442719 0.2721442719 0.1360721360
-0.2041082040 0.3401803399 0.0680360680
-0.1360721360 0.4082164079 -0.0000000000
-0.0680360680 0.4762524759 -0.0680360680
0.0000000000 0.5442885439 -0.1360721360
-0.4762524759 -0.0680360680 0.4762524759
-0.4082164079 0.0000000000 0.4082164079
-0.3401803399 0.0680360680 0.3401803399
-0.2721442719 0.1360721360 0.2721442719
-0.2041082040 0.2041082040 0.2041082040
-0.1360721360 0.2721442719 0.1360721360
-0.0680360680 0.3401803399 0.0680360680
0.0000000000 0.4082164079 0.0000000000
0.0680360680 0.4762524759 -0.0680360680
-0.4082164079 -0.1360721360 0.5442885439
-0.3401803399 -0.0680360680 0.4762524759
-0.2721442719 0.0000000000 0.4082164079
-0.2041082040 0.0680360680 0.3401803399
-0.1360721360 0.1360721360 0.2721442719
-0.0680360680 0.2041082040 0.2041082040
0.0000000000 0.2721442719 0.1360721360
0.0680360680 0.3401803399 0.0680360680
0.1360721360 0.4082164079 0.0000000000
-0.3401803399 -0.2041082040 0.6123246119
-0.2721442719 -0.1360721360 0.5442885439
-0.2041082040 -0.0680360680 0.4762524759
-0.1360721360 0.0000000000 0.4082164079
-0.0680360680 0.0680360680 0.3401803399
0.0000000000 0.1360721360 0.2721442719
0.0680360680 0.2041082040 0.2041082040
0.1360721360 0.2721442719 0.1360721360
0.2041082040 0.3401803399 0.0680360680
-0.2721442719 -0.2721442719 0.6803606798
-0.2041082040 -0.2041082040 0.6123246119
-0.1360721360 -0.1360721360 0.5442885439
-0.0680360680 -0.0680360680 0.4762524759
0.0000000000 0.0000000000 0.4082164079
0.0680360680 0.0680360680 0.3401803399
0.1360721360 0.1360721360 0.2721442719
0.2041082040 0.2041082040 0.2041082040
0.2721442719 0.2721442719 0.1360721360
-0.2041082040 -0.3401803399 0.7483967478
-0.1360721360 -0.2721442719 0.6803606798
-0.0680360680 -0.2041082040 0.6123246119
0.0000000000 -0.1360721360 0.5442885439
0.0680360680 -0.0680360680 0.4762524759
0.1360721360 0.0000000000 0.4082164079
0.2041082040 0.0680360680 0.3401803399
0.2721442719 0.1360721360 0.2721442719
0.3401803399 0.2041082040 0.2041082040
-0.8164328158 0.2721442719 0.2721442719
-0.7483967478 0.3401803399 0.2041082040
-0.6803606798 0.4082164079 0.1360721360
-0.6123246119 0.4762524759 0.0680360680
-0.5442885439 0.5442885439 0.0000000000
-0.4762524759 0.6123246119 -0.0680360680
-0.4082164079 0.6803606798 -0.1360721360
-0.3401803399 0.7483967478 -0.2041082040
-0.2721442719 0.8164328158 -0.2721442719
-0.7483967478 0.2041082040 0.3401803399
-0.6803606798 0.2721442719 0.2721442719
-0.6123246119 0.3401803399 0.2041082040
-0.5442885439 0.4082164079 0.1360721360
-0.4762524759 0.4762524759 0.0680360680
-0.4082164079 0.5442885439 -0.0000000000
-0.3401803399 0.6123246119 -0.0680360680
-0.2721442719 0.6803606798 -0.1360721360
-0.2041082040 0.7483967478 -0.2041082040
-0.6803606798 0.1360721360 0.4082164079
-0.6123246119 0.2041082040 0.3401803399
-0.5442885439 0.2721442719 0.2721442719
-0.4762524759 0.3401803399 0.2041082040
-0.4082164079 0.4082164079 0.1360721360
-0.3401803399 0.4762524759 0.0680360680
-0.2721442719 0.5442885439 0.0000000000
-0.2041082040 0.6123246119 -0.0680360680
-0.1360721360 0.6803606798 -0.1360721360
-0.6123246119 0.0680360680 0.4762524759
-0.5442885439 0.1360721360 0.4082164079
-0.4762524759 0.2041082040 0.3401803399
-0.4082164079 0.2721442719 0.2721442719
-0.3401803399 0.3401803399 0.2041082040
-0.2721442719 0.4082164079 0.1360721360
-0.2041082040 0.4762524759 0.0680360680
-0.1360721360 0.5442885439 0.0000000000
-0.0680360680 0.6123246119 -0.0680360680
-0.5442885439 0.0000000000 0.5442885439
-0.4762524759 0.0680360680 0.4762524759
-0.4082164079 0.1360721360 0.4082164079
-0.3401803399 0.2041082040 0.3401803399
-0.2721442719 0.2721442719 0.2721442719
-0.2041082040 0.3401803399 0.2041082040
-0.1360721360 0.4082164079 0.1360721360
-0.0680360680 0.4762524759 0.0680360680
0.0000000000 0.5442885439 0.0000000000
-0.4762524759 -0.0680360680 0.6123246119
-0.4082164079 0.0000000000 0.5442885439
-0.3401803399 0.0680360680 0.4762524759
-0.2721442719 0.1360721360 0.4082164079
-0.2041082040 0.2041082040 0.3401803399
-0.1360721360 0.2721442719 0.2721442719
-0.0680360680 0.3401803399 0.2041082040
0.0000000000 0.4082164079 0.1360721360
0.0680360680 0.4762524759 0.0680360680
-0.4082164079 -0.1360721360 0.6803606798
-0.3401803399 -0.0680360680 0.6123246119
-0.2721442719 0.0000000000 0.5442885439
-0.2041082040 0.0680360680 0.4762524759
-0.1360721360 0.1360721360 0.4082164079
-0.0680360680 0.2041082040 0.3401803399
0.0000000000 0.2721442719 0.2721442719
0.0680360680 0.3401803399 0.2041082040
0.1360721360 0.4082164079 0.1360721360
-0.3401803399 -0.2041082040 0.7483967478
-0.2721442719 -0.1360721360 0.6803606798
-0.2041082040 -0.0680360680 0.6123246119
-0.1360721360 0.0000000000 0.5442885439
-0.0680360680 0.0680360680 0.4762524759
0.0000000000 0.1360721360 0.4082164079
0.0680360680 0.2041082040 0.3401803399
0.1360721360 0.2721442719 0.2721442719
0.2041082040 0.3401803399 0.2041082040
-0.2721442719 -0.2721442719 0.8164328158
-0.2041082040 -0.2041082040 0.7483967478
-0.1360721360 -0.1360721360 0.6803606798
-0.0680360680 -0.0680360680 0.6123246119
0.0000000000 0.0000000000 0.5442885439
0.0680360680 0.0680360680 0.4762524759
0.1360721360 0.1360721360 0.4082164079
0.2041082040 0.2041082040 0.3401803399
0.2721442719 0.2721442719 0.2721442719
 There are 14 alpha and 14 beta electrons
 Start computing overlap matrix
 Allocate 162409536 B from available memory: 1048575734752 B
 Time for computing overlap matrix: 3.9030000000 s
 ====== Initialize compute kernels for all-electron RI-J (kpts) ====== 
 ========================================================== 
 Range-separated parameter omega        = 0.599999999999999978
 Threshold for 1e2c shellpair           = 0.000000000000010000
 Threshold for 2e2c SR integral         = 0.000000000000000001
 Threshold for 2e3c SR integral         = 0.000000000100000000
 Threshold for AFT G-space screening is = 0.000000000001000000
 The exponent cutoff for C/D classification (omega2 / 2) is  = 0.179999999999999993
 ========================================================== 
 === Post process the basis set for RI calculation (exp_cutoff = 0.179999999999999993 ) === 
nshells_b1 before uncontraction = 28
nshells_b1 after uncontraction = 28
nshells_baux before uncontraction = 80
nshells_baux after uncontraction = 80
===============================================
nbsf total   = 118
nbsf compact = 92
nbsf diffuse = 26
naux total   = 296
naux compact = 296
naux diffuse = 0
nshells_bnuc = 2

 Number of unique atoms is 1
 Unique atom #0 (si) has 9 shells.

Shell 0 to 8 belongs to atom si
Shell 9 to 17 belongs to atom si

 Number of unique atoms is 1
 Unique atom #0 (si) has 5 shells.

Shell 0 to 4 belongs to atom si
Shell 5 to 9 belongs to atom si

 Number of unique atom is 1
 Unique atom #0 (si) has 40 auxiliary shells.

Auxiliary Shell 0 to 39 belongs to atom si
Auxiliary Shell 40 to 79 belongs to atom si

================= Automatically determine grid size for reciprocal space summation =================
 Range-separated parameter = 0.60000000000000 and G-space screening threshold = 0.00000000000100
The number of grid points along each axis dimension is (7, 7, 7)
Total number of grid points = 3375

Use nonortho shellpair for diffuse density
======== Initializing relevant kernel for RIJ (DD type) ========
There are 55 shellpairs in the reference unit cell
There are 3757 images and we expect to have 206635 in total
There are 11898 shellpairs in the lattice sum after screening
======== Initializing relevant kernel for RIJ (CD type) ========
There are 180 shellpairs in the reference unit cell
There are 2659 images and we expect to have 478620 in total
There are 19974 shellpairs in the lattice sum after screening
****** AFT -> SR ******
Maximum bra distance cutoff is 23.000000000000
Maximum bra ket distance cutoff is 24.132153614458
Maximum bra ket screening distance is 21.593750000000
Number of auxiliary image is 647
There are 180 shellpairs in the reference unit cell
There are 551 images and we expect to have 99180 in total
There are 19974 shellpairs in the lattice sum after screening
Available memory per thread for 2e3c calculation is 32.762916413000Gb
Finish initializing 2e3c SR with the lattice sum!
=================================================
======== Initializing relevant kernel for RIJ (CC type) ========
There are 171 shellpairs in the reference unit cell
There are 1241 images and we expect to have 212211 in total
There are 4082 shellpairs in the lattice sum after screening
****** AFT -> SR ******
Maximum bra distance cutoff is 15.000000000000
Maximum bra ket distance cutoff is 25.131175705795
Maximum bra ket screening distance is 21.156250000000
Number of auxiliary image is 647
There are 171 shellpairs in the reference unit cell
There are 237 images and we expect to have 40527 in total
There are 4082 shellpairs in the lattice sum after screening
Available memory per thread for 2e3c calculation is 32.762916413000Gb
Finish initializing 2e3c SR with the lattice sum!
=================================================
======== Initializing the SR component for Vnuc (CD type) ========
Maximum bra distance cutoff is 23.000000000000
Maximum bra ket distance cutoff is 16.737418337388
Maximum bra ket screening distance is 14.115333913559
Number of auxiliary image is 551
There are 180 shellpairs in the reference unit cell
There are 551 images and we expect to have 99180 in total
There are 19974 shellpairs in the lattice sum after screening
Available memory per thread for 2e3c calculation is 32.762916413000Gb
Finish initializing 2e3c SR with the lattice sum!
=================================================
======== Initialize the SR component for Vnuc (CC type) ========
Maximum bra distance cutoff is 15.000000000000
Maximum bra ket distance cutoff is 17.743801426189
Maximum bra ket screening distance is 13.222397966002
Number of auxiliary image is 285
There are 171 shellpairs in the reference unit cell
There are 237 images and we expect to have 40527 in total
There are 4082 shellpairs in the lattice sum after screening
Available memory per thread for 2e3c calculation is 32.762916413000Gb
Finish initializing 2e3c SR with the lattice sum!
=================================================
 Aufbau occupation scheme, occupation determined by eigenvalue
 == 0-th k-point nmo = 114 (-0.27214,-0.27214,-0.27214) ==
 == 1-th k-point nmo = 114 (-0.20411,-0.20411,-0.34018) ==
 == 2-th k-point nmo = 114 (-0.13607,-0.13607,-0.40822) ==
 == 3-th k-point nmo = 114 (-0.06804,-0.06804,-0.47625) ==
 == 4-th k-point nmo = 114 (-0.00000,-0.00000,-0.54429) ==
 == 5-th k-point nmo = 114 (0.06804,0.06804,-0.61232) ==
 == 6-th k-point nmo = 114 (0.13607,0.13607,-0.68036) ==
 == 7-th k-point nmo = 114 (0.20411,0.20411,-0.74840) ==
 == 8-th k-point nmo = 114 (0.27214,0.27214,-0.81643) ==
 == 9-th k-point nmo = 114 (-0.20411,-0.34018,-0.20411) ==
 == 10-th k-point nmo = 114 (-0.13607,-0.27214,-0.27214) ==
 == 11-th k-point nmo = 114 (-0.06804,-0.20411,-0.34018) ==
 == 12-th k-point nmo = 114 (-0.00000,-0.13607,-0.40822) ==
 == 13-th k-point nmo = 114 (0.06804,-0.06804,-0.47625) ==
 == 14-th k-point nmo = 114 (0.13607,-0.00000,-0.54429) ==
 == 15-th k-point nmo = 114 (0.20411,0.06804,-0.61232) ==
 == 16-th k-point nmo = 114 (0.27214,0.13607,-0.68036) ==
 == 17-th k-point nmo = 114 (0.34018,0.20411,-0.74840) ==
 == 18-th k-point nmo = 114 (-0.13607,-0.40822,-0.13607) ==
 == 19-th k-point nmo = 114 (-0.06804,-0.34018,-0.20411) ==
 == 20-th k-point nmo = 114 (-0.00000,-0.27214,-0.27214) ==
 == 21-th k-point nmo = 114 (0.06804,-0.20411,-0.34018) ==
 == 22-th k-point nmo = 114 (0.13607,-0.13607,-0.40822) ==
 == 23-th k-point nmo = 114 (0.20411,-0.06804,-0.47625) ==
 == 24-th k-point nmo = 114 (0.27214,-0.00000,-0.54429) ==
 == 25-th k-point nmo = 114 (0.34018,0.06804,-0.61232) ==
 == 26-th k-point nmo = 114 (0.40822,0.13607,-0.68036) ==
 == 27-th k-point nmo = 114 (-0.06804,-0.47625,-0.06804) ==
 == 28-th k-point nmo = 114 (-0.00000,-0.40822,-0.13607) ==
 == 29-th k-point nmo = 114 (0.06804,-0.34018,-0.20411) ==
 == 30-th k-point nmo = 114 (0.13607,-0.27214,-0.27214) ==
 == 31-th k-point nmo = 114 (0.20411,-0.20411,-0.34018) ==
 == 32-th k-point nmo = 114 (0.27214,-0.13607,-0.40822) ==
 == 33-th k-point nmo = 114 (0.34018,-0.06804,-0.47625) ==
 == 34-th k-point nmo = 114 (0.40822,0.00000,-0.54429) ==
 == 35-th k-point nmo = 114 (0.47625,0.06804,-0.61232) ==
 == 36-th k-point nmo = 114 (-0.00000,-0.54429,0.00000) ==
 == 37-th k-point nmo = 114 (0.06804,-0.47625,-0.06804) ==
 == 38-th k-point nmo = 114 (0.13607,-0.40822,-0.13607) ==
 == 39-th k-point nmo = 114 (0.20411,-0.34018,-0.20411) ==
 == 40-th k-point nmo = 114 (0.27214,-0.27214,-0.27214) ==
 == 41-th k-point nmo = 114 (0.34018,-0.20411,-0.34018) ==
 == 42-th k-point nmo = 114 (0.40822,-0.13607,-0.40822) ==
 == 43-th k-point nmo = 114 (0.47625,-0.06804,-0.47625) ==
 == 44-th k-point nmo = 114 (0.54429,0.00000,-0.54429) ==
 == 45-th k-point nmo = 114 (0.06804,-0.61232,0.06804) ==
 == 46-th k-point nmo = 114 (0.13607,-0.54429,-0.00000) ==
 == 47-th k-point nmo = 114 (0.20411,-0.47625,-0.06804) ==
 == 48-th k-point nmo = 114 (0.27214,-0.40822,-0.13607) ==
 == 49-th k-point nmo = 114 (0.34018,-0.34018,-0.20411) ==
 == 50-th k-point nmo = 114 (0.40822,-0.27214,-0.27214) ==
 == 51-th k-point nmo = 114 (0.47625,-0.20411,-0.34018) ==
 == 52-th k-point nmo = 114 (0.54429,-0.13607,-0.40822) ==
 == 53-th k-point nmo = 114 (0.61232,-0.06804,-0.47625) ==
 == 54-th k-point nmo = 114 (0.13607,-0.68036,0.13607) ==
 == 55-th k-point nmo = 114 (0.20411,-0.61232,0.06804) ==
 == 56-th k-point nmo = 114 (0.27214,-0.54429,0.00000) ==
 == 57-th k-point nmo = 114 (0.34018,-0.47625,-0.06804) ==
 == 58-th k-point nmo = 114 (0.40822,-0.40822,-0.13607) ==
 == 59-th k-point nmo = 114 (0.47625,-0.34018,-0.20411) ==
 == 60-th k-point nmo = 114 (0.54429,-0.27214,-0.27214) ==
 == 61-th k-point nmo = 114 (0.61232,-0.20411,-0.34018) ==
 == 62-th k-point nmo = 114 (0.68036,-0.13607,-0.40822) ==
 == 63-th k-point nmo = 114 (0.20411,-0.74840,0.20411) ==
 == 64-th k-point nmo = 114 (0.27214,-0.68036,0.13607) ==
 == 65-th k-point nmo = 114 (0.34018,-0.61232,0.06804) ==
 == 66-th k-point nmo = 114 (0.40822,-0.54429,0.00000) ==
 == 67-th k-point nmo = 114 (0.47625,-0.47625,-0.06804) ==
 == 68-th k-point nmo = 114 (0.54429,-0.40822,-0.13607) ==
 == 69-th k-point nmo = 114 (0.61232,-0.34018,-0.20411) ==
 == 70-th k-point nmo = 114 (0.68036,-0.27214,-0.27214) ==
 == 71-th k-point nmo = 114 (0.74840,-0.20411,-0.34018) ==
 == 72-th k-point nmo = 114 (0.27214,-0.81643,0.27214) ==
 == 73-th k-point nmo = 114 (0.34018,-0.74840,0.20411) ==
 == 74-th k-point nmo = 114 (0.40822,-0.68036,0.13607) ==
 == 75-th k-point nmo = 114 (0.47625,-0.61232,0.06804) ==
 == 76-th k-point nmo = 114 (0.54429,-0.54429,0.00000) ==
 == 77-th k-point nmo = 114 (0.61232,-0.47625,-0.06804) ==
 == 78-th k-point nmo = 114 (0.68036,-0.40822,-0.13607) ==
 == 79-th k-point nmo = 114 (0.74840,-0.34018,-0.20411) ==
 == 80-th k-point nmo = 114 (0.81643,-0.27214,-0.27214) ==
 == 81-th k-point nmo = 114 (-0.34018,-0.20411,-0.20411) ==
 == 82-th k-point nmo = 114 (-0.27214,-0.13607,-0.27214) ==
 == 83-th k-point nmo = 114 (-0.20411,-0.06804,-0.34018) ==
 == 84-th k-point nmo = 114 (-0.13607,-0.00000,-0.40822) ==
 == 85-th k-point nmo = 114 (-0.06804,0.06804,-0.47625) ==
 == 86-th k-point nmo = 114 (-0.00000,0.13607,-0.54429) ==
 == 87-th k-point nmo = 114 (0.06804,0.20411,-0.61232) ==
 == 88-th k-point nmo = 114 (0.13607,0.27214,-0.68036) ==
 == 89-th k-point nmo = 114 (0.20411,0.34018,-0.74840) ==
 == 90-th k-point nmo = 114 (-0.27214,-0.27214,-0.13607) ==
 == 91-th k-point nmo = 114 (-0.20411,-0.20411,-0.20411) ==
 == 92-th k-point nmo = 114 (-0.13607,-0.13607,-0.27214) ==
 == 93-th k-point nmo = 114 (-0.06804,-0.06804,-0.34018) ==
 == 94-th k-point nmo = 114 (-0.00000,-0.00000,-0.40822) ==
 == 95-th k-point nmo = 114 (0.06804,0.06804,-0.47625) ==
 == 96-th k-point nmo = 114 (0.13607,0.13607,-0.54429) ==
 == 97-th k-point nmo = 114 (0.20411,0.20411,-0.61232) ==
 == 98-th k-point nmo = 114 (0.27214,0.27214,-0.68036) ==
 == 99-th k-point nmo = 114 (-0.20411,-0.34018,-0.06804) ==
 == 100-th k-point nmo = 114 (-0.13607,-0.27214,-0.13607) ==
 == 101-th k-point nmo = 114 (-0.06804,-0.20411,-0.20411) ==
 == 102-th k-point nmo = 114 (-0.00000,-0.13607,-0.27214) ==
 == 103-th k-point nmo = 114 (0.06804,-0.06804,-0.34018) ==
 == 104-th k-point nmo = 114 (0.13607,-0.00000,-0.40822) ==
 == 105-th k-point nmo = 114 (0.20411,0.06804,-0.47625) ==
 == 106-th k-point nmo = 114 (0.27214,0.13607,-0.54429) ==
 == 107-th k-point nmo = 114 (0.34018,0.20411,-0.61232) ==
 == 108-th k-point nmo = 114 (-0.13607,-0.40822,0.00000) ==
 == 109-th k-point nmo = 114 (-0.06804,-0.34018,-0.06804) ==
 == 110-th k-point nmo = 114 (-0.00000,-0.27214,-0.13607) ==
 == 111-th k-point nmo = 114 (0.06804,-0.20411,-0.20411) ==
 == 112-th k-point nmo = 114 (0.13607,-0.13607,-0.27214) ==
 == 113-th k-point nmo = 114 (0.20411,-0.06804,-0.34018) ==
 == 114-th k-point nmo = 114 (0.27214,-0.00000,-0.40822) ==
 == 115-th k-point nmo = 114 (0.34018,0.06804,-0.47625) ==
 == 116-th k-point nmo = 114 (0.40822,0.13607,-0.54429) ==
 == 117-th k-point nmo = 114 (-0.06804,-0.47625,0.06804) ==
 == 118-th k-point nmo = 114 (-0.00000,-0.40822,0.00000) ==
 == 119-th k-point nmo = 114 (0.06804,-0.34018,-0.06804) ==
 == 120-th k-point nmo = 114 (0.13607,-0.27214,-0.13607) ==
 == 121-th k-point nmo = 114 (0.20411,-0.20411,-0.20411) ==
 == 122-th k-point nmo = 114 (0.27214,-0.13607,-0.27214) ==
 == 123-th k-point nmo = 114 (0.34018,-0.06804,-0.34018) ==
 == 124-th k-point nmo = 114 (0.40822,0.00000,-0.40822) ==
 == 125-th k-point nmo = 114 (0.47625,0.06804,-0.47625) ==
 == 126-th k-point nmo = 114 (-0.00000,-0.54429,0.13607) ==
 == 127-th k-point nmo = 114 (0.06804,-0.47625,0.06804) ==
 == 128-th k-point nmo = 114 (0.13607,-0.40822,0.00000) ==
 == 129-th k-point nmo = 114 (0.20411,-0.34018,-0.06804) ==
 == 130-th k-point nmo = 114 (0.27214,-0.27214,-0.13607) ==
 == 131-th k-point nmo = 114 (0.34018,-0.20411,-0.20411) ==
 == 132-th k-point nmo = 114 (0.40822,-0.13607,-0.27214) ==
 == 133-th k-point nmo = 114 (0.47625,-0.06804,-0.34018) ==
 == 134-th k-point nmo = 114 (0.54429,0.00000,-0.40822) ==
 == 135-th k-point nmo = 114 (0.06804,-0.61232,0.20411) ==
 == 136-th k-point nmo = 114 (0.13607,-0.54429,0.13607) ==
 == 137-th k-point nmo = 114 (0.20411,-0.47625,0.06804) ==
 == 138-th k-point nmo = 114 (0.27214,-0.40822,0.00000) ==
 == 139-th k-point nmo = 114 (0.34018,-0.34018,-0.06804) ==
 == 140-th k-point nmo = 114 (0.40822,-0.27214,-0.13607) ==
 == 141-th k-point nmo = 114 (0.47625,-0.20411,-0.20411) ==
 == 142-th k-point nmo = 114 (0.54429,-0.13607,-0.27214) ==
 == 143-th k-point nmo = 114 (0.61232,-0.06804,-0.34018) ==
 == 144-th k-point nmo = 114 (0.13607,-0.68036,0.27214) ==
 == 145-th k-point nmo = 114 (0.20411,-0.61232,0.20411) ==
 == 146-th k-point nmo = 114 (0.27214,-0.54429,0.13607) ==
 == 147-th k-point nmo = 114 (0.34018,-0.47625,0.06804) ==
 == 148-th k-point nmo = 114 (0.40822,-0.40822,0.00000) ==
 == 149-th k-point nmo = 114 (0.47625,-0.34018,-0.06804) ==
 == 150-th k-point nmo = 114 (0.54429,-0.27214,-0.13607) ==
 == 151-th k-point nmo = 114 (0.61232,-0.20411,-0.20411) ==
 == 152-th k-point nmo = 114 (0.68036,-0.13607,-0.27214) ==
 == 153-th k-point nmo = 114 (0.20411,-0.74840,0.34018) ==
 == 154-th k-point nmo = 114 (0.27214,-0.68036,0.27214) ==
 == 155-th k-point nmo = 114 (0.34018,-0.61232,0.20411) ==
 == 156-th k-point nmo = 114 (0.40822,-0.54429,0.13607) ==
 == 157-th k-point nmo = 114 (0.47625,-0.47625,0.06804) ==
 == 158-th k-point nmo = 114 (0.54429,-0.40822,0.00000) ==
 == 159-th k-point nmo = 114 (0.61232,-0.34018,-0.06804) ==
 == 160-th k-point nmo = 114 (0.68036,-0.27214,-0.13607) ==
 == 161-th k-point nmo = 114 (0.74840,-0.20411,-0.20411) ==
 == 162-th k-point nmo = 114 (-0.40822,-0.13607,-0.13607) ==
 == 163-th k-point nmo = 114 (-0.34018,-0.06804,-0.20411) ==
 == 164-th k-point nmo = 114 (-0.27214,-0.00000,-0.27214) ==
 == 165-th k-point nmo = 114 (-0.20411,0.06804,-0.34018) ==
 == 166-th k-point nmo = 114 (-0.13607,0.13607,-0.40822) ==
 == 167-th k-point nmo = 114 (-0.06804,0.20411,-0.47625) ==
 == 168-th k-point nmo = 114 (-0.00000,0.27214,-0.54429) ==
 == 169-th k-point nmo = 114 (0.06804,0.34018,-0.61232) ==
 == 170-th k-point nmo = 114 (0.13607,0.40822,-0.68036) ==
 == 171-th k-point nmo = 114 (-0.34018,-0.20411,-0.06804) ==
 == 172-th k-point nmo = 114 (-0.27214,-0.13607,-0.13607) ==
 == 173-th k-point nmo = 114 (-0.20411,-0.06804,-0.20411) ==
 == 174-th k-point nmo = 114 (-0.13607,-0.00000,-0.27214) ==
 == 175-th k-point nmo = 114 (-0.06804,0.06804,-0.34018) ==
 == 176-th k-point nmo = 114 (-0.00000,0.13607,-0.40822) ==
 == 177-th k-point nmo = 114 (0.06804,0.20411,-0.47625) ==
 == 178-th k-point nmo = 114 (0.13607,0.27214,-0.54429) ==
 == 179-th k-point nmo = 114 (0.20411,0.34018,-0.61232) ==
 == 180-th k-point nmo = 114 (-0.27214,-0.27214,0.00000) ==
 == 181-th k-point nmo = 114 (-0.20411,-0.20411,-0.06804) ==
 == 182-th k-point nmo = 115 (-0.13607,-0.13607,-0.13607) ==
 == 183-th k-point nmo = 114 (-0.06804,-0.06804,-0.20411) ==
 == 184-th k-point nmo = 114 (-0.00000,-0.00000,-0.27214) ==
 == 185-th k-point nmo = 114 (0.06804,0.06804,-0.34018) ==
 == 186-th k-point nmo = 114 (0.13607,0.13607,-0.40822) ==
 == 187-th k-point nmo = 114 (0.20411,0.20411,-0.47625) ==
 == 188-th k-point nmo = 114 (0.27214,0.27214,-0.54429) ==
 == 189-th k-point nmo = 114 (-0.20411,-0.34018,0.06804) ==
 == 190-th k-point nmo = 114 (-0.13607,-0.27214,-0.00000) ==
 == 191-th k-point nmo = 114 (-0.06804,-0.20411,-0.06804) ==
 == 192-th k-point nmo = 115 (-0.00000,-0.13607,-0.13607) ==
 == 193-th k-point nmo = 114 (0.06804,-0.06804,-0.20411) ==
 == 194-th k-point nmo = 114 (0.13607,-0.00000,-0.27214) ==
 == 195-th k-point nmo = 114 (0.20411,0.06804,-0.34018) ==
 == 196-th k-point nmo = 114 (0.27214,0.13607,-0.40822) ==
 == 197-th k-point nmo = 114 (0.34018,0.20411,-0.47625) ==
 == 198-th k-point nmo = 114 (-0.13607,-0.40822,0.13607) ==
 == 199-th k-point nmo = 114 (-0.06804,-0.34018,0.06804) ==
 == 200-th k-point nmo = 114 (-0.00000,-0.27214,0.00000) ==
 == 201-th k-point nmo = 114 (0.06804,-0.20411,-0.06804) ==
 == 202-th k-point nmo = 115 (0.13607,-0.13607,-0.13607) ==
 == 203-th k-point nmo = 114 (0.20411,-0.06804,-0.20411) ==
 == 204-th k-point nmo = 114 (0.27214,0.00000,-0.27214) ==
 == 205-th k-point nmo = 114 (0.34018,0.06804,-0.34018) ==
 == 206-th k-point nmo = 114 (0.40822,0.13607,-0.40822) ==
 == 207-th k-point nmo = 114 (-0.06804,-0.47625,0.20411) ==
 == 208-th k-point nmo = 114 (-0.00000,-0.40822,0.13607) ==
 == 209-th k-point nmo = 114 (0.06804,-0.34018,0.06804) ==
 == 210-th k-point nmo = 114 (0.13607,-0.27214,0.00000) ==
 == 211-th k-point nmo = 114 (0.20411,-0.20411,-0.06804) ==
 == 212-th k-point nmo = 114 (0.27214,-0.13607,-0.13607) ==
 == 213-th k-point nmo = 114 (0.34018,-0.06804,-0.20411) ==
 == 214-th k-point nmo = 114 (0.40822,0.00000,-0.27214) ==
 == 215-th k-point nmo = 114 (0.47625,0.06804,-0.34018) ==
 == 216-th k-point nmo = 114 (-0.00000,-0.54429,0.27214) ==
 == 217-th k-point nmo = 114 (0.06804,-0.47625,0.20411) ==
 == 218-th k-point nmo = 114 (0.13607,-0.40822,0.13607) ==
 == 219-th k-point nmo = 114 (0.20411,-0.34018,0.06804) ==
 == 220-th k-point nmo = 114 (0.27214,-0.27214,0.00000) ==
 == 221-th k-point nmo = 114 (0.34018,-0.20411,-0.06804) ==
 == 222-th k-point nmo = 114 (0.40822,-0.13607,-0.13607) ==
 == 223-th k-point nmo = 114 (0.47625,-0.06804,-0.20411) ==
 == 224-th k-point nmo = 114 (0.54429,0.00000,-0.27214) ==
 == 225-th k-point nmo = 114 (0.06804,-0.61232,0.34018) ==
 == 226-th k-point nmo = 114 (0.13607,-0.54429,0.27214) ==
 == 227-th k-point nmo = 114 (0.20411,-0.47625,0.20411) ==
 == 228-th k-point nmo = 114 (0.27214,-0.40822,0.13607) ==
 == 229-th k-point nmo = 114 (0.34018,-0.34018,0.06804) ==
 == 230-th k-point nmo = 114 (0.40822,-0.27214,0.00000) ==
 == 231-th k-point nmo = 114 (0.47625,-0.20411,-0.06804) ==
 == 232-th k-point nmo = 114 (0.54429,-0.13607,-0.13607) ==
 == 233-th k-point nmo = 114 (0.61232,-0.06804,-0.20411) ==
 == 234-th k-point nmo = 114 (0.13607,-0.68036,0.40822) ==
 == 235-th k-point nmo = 114 (0.20411,-0.61232,0.34018) ==
 == 236-th k-point nmo = 114 (0.27214,-0.54429,0.27214) ==
 == 237-th k-point nmo = 114 (0.34018,-0.47625,0.20411) ==
 == 238-th k-point nmo = 114 (0.40822,-0.40822,0.13607) ==
 == 239-th k-point nmo = 114 (0.47625,-0.34018,0.06804) ==
 == 240-th k-point nmo = 114 (0.54429,-0.27214,0.00000) ==
 == 241-th k-point nmo = 114 (0.61232,-0.20411,-0.06804) ==
 == 242-th k-point nmo = 114 (0.68036,-0.13607,-0.13607) ==
 == 243-th k-point nmo = 114 (-0.47625,-0.06804,-0.06804) ==
 == 244-th k-point nmo = 114 (-0.40822,-0.00000,-0.13607) ==
 == 245-th k-point nmo = 114 (-0.34018,0.06804,-0.20411) ==
 == 246-th k-point nmo = 114 (-0.27214,0.13607,-0.27214) ==
 == 247-th k-point nmo = 114 (-0.20411,0.20411,-0.34018) ==
 == 248-th k-point nmo = 114 (-0.13607,0.27214,-0.40822) ==
 == 249-th k-point nmo = 114 (-0.06804,0.34018,-0.47625) ==
 == 250-th k-point nmo = 114 (0.00000,0.40822,-0.54429) ==
 == 251-th k-point nmo = 114 (0.06804,0.47625,-0.61232) ==
 == 252-th k-point nmo = 114 (-0.40822,-0.13607,0.00000) ==
 == 253-th k-point nmo = 114 (-0.34018,-0.06804,-0.06804) ==
 == 254-th k-point nmo = 114 (-0.27214,-0.00000,-0.13607) ==
 == 255-th k-point nmo = 114 (-0.20411,0.06804,-0.20411) ==
 == 256-th k-point nmo = 114 (-0.13607,0.13607,-0.27214) ==
 == 257-th k-point nmo = 114 (-0.06804,0.20411,-0.34018) ==
 == 258-th k-point nmo = 114 (0.00000,0.27214,-0.40822) ==
 == 259-th k-point nmo = 114 (0.06804,0.34018,-0.47625) ==
 == 260-th k-point nmo = 114 (0.13607,0.40822,-0.54429) ==
 == 261-th k-point nmo = 114 (-0.34018,-0.20411,0.06804) ==
 == 262-th k-point nmo = 114 (-0.27214,-0.13607,-0.00000) ==
 == 263-th k-point nmo = 114 (-0.20411,-0.06804,-0.06804) ==
 == 264-th k-point nmo = 115 (-0.13607,-0.00000,-0.13607) ==
 == 265-th k-point nmo = 114 (-0.06804,0.06804,-0.20411) ==
 == 266-th k-point nmo = 114 (-0.00000,0.13607,-0.27214) ==
 == 267-th k-point nmo = 114 (0.06804,0.20411,-0.34018) ==
 == 268-th k-point nmo = 114 (0.13607,0.27214,-0.40822) ==
 == 269-th k-point nmo = 114 (0.20411,0.34018,-0.47625) ==
 == 270-th k-point nmo = 114 (-0.27214,-0.27214,0.13607) ==
 == 271-th k-point nmo = 114 (-0.20411,-0.20411,0.06804) ==
 == 272-th k-point nmo = 115 (-0.13607,-0.13607,0.00000) ==
 == 273-th k-point nmo = 115 (-0.06804,-0.06804,-0.06804) ==
 == 274-th k-point nmo = 116 (-0.00000,-0.00000,-0.13607) ==
 == 275-th k-point nmo = 114 (0.06804,0.06804,-0.20411) ==
 == 276-th k-point nmo = 114 (0.13607,0.13607,-0.27214) ==
 == 277-th k-point nmo = 114 (0.20411,0.20411,-0.34018) ==
 == 278-th k-point nmo = 114 (0.27214,0.27214,-0.40822) ==
 == 279-th k-point nmo = 114 (-0.20411,-0.34018,0.20411) ==
 == 280-th k-point nmo = 114 (-0.13607,-0.27214,0.13607) ==
 == 281-th k-point nmo = 114 (-0.06804,-0.20411,0.06804) ==
 == 282-th k-point nmo = 116 (-0.00000,-0.13607,0.00000) ==
 == 283-th k-point nmo = 115 (0.06804,-0.06804,-0.06804) ==
 == 284-th k-point nmo = 115 (0.13607,0.00000,-0.13607) ==
 == 285-th k-point nmo = 114 (0.20411,0.06804,-0.20411) ==
 == 286-th k-point nmo = 114 (0.27214,0.13607,-0.27214) ==
 == 287-th k-point nmo = 114 (0.34018,0.20411,-0.34018) ==
 == 288-th k-point nmo = 114 (-0.13607,-0.40822,0.27214) ==
 == 289-th k-point nmo = 114 (-0.06804,-0.34018,0.20411) ==
 == 290-th k-point nmo = 114 (-0.00000,-0.27214,0.13607) ==
 == 291-th k-point nmo = 114 (0.06804,-0.20411,0.06804) ==
 == 292-th k-point nmo = 115 (0.13607,-0.13607,0.00000) ==
 == 293-th k-point nmo = 114 (0.20411,-0.06804,-0.06804) ==
 == 294-th k-point nmo = 114 (0.27214,0.00000,-0.13607) ==
 == 295-th k-point nmo = 114 (0.34018,0.06804,-0.20411) ==
 == 296-th k-point nmo = 114 (0.40822,0.13607,-0.27214) ==
 == 297-th k-point nmo = 114 (-0.06804,-0.47625,0.34018) ==
 == 298-th k-point nmo = 114 (-0.00000,-0.40822,0.27214) ==
 == 299-th k-point nmo = 114 (0.06804,-0.34018,0.20411) ==
 == 300-th k-point nmo = 114 (0.13607,-0.27214,0.13607) ==
 == 301-th k-point nmo = 114 (0.20411,-0.20411,0.06804) ==
 == 302-th k-point nmo = 114 (0.27214,-0.13607,0.00000) ==
 == 303-th k-point nmo = 114 (0.34018,-0.06804,-0.06804) ==
 == 304-th k-point nmo = 114 (0.40822,0.00000,-0.13607) ==
 == 305-th k-point nmo = 114 (0.47625,0.06804,-0.20411) ==
 == 306-th k-point nmo = 114 (-0.00000,-0.54429,0.40822) ==
 == 307-th k-point nmo = 114 (0.06804,-0.47625,0.34018) ==
 == 308-th k-point nmo = 114 (0.13607,-0.40822,0.27214) ==
 == 309-th k-point nmo = 114 (0.20411,-0.34018,0.20411) ==
 == 310-th k-point nmo = 114 (0.27214,-0.27214,0.13607) ==
 == 311-th k-point nmo = 114 (0.34018,-0.20411,0.06804) ==
 == 312-th k-point nmo = 114 (0.40822,-0.13607,0.00000) ==
 == 313-th k-point nmo = 114 (0.47625,-0.06804,-0.06804) ==
 == 314-th k-point nmo = 114 (0.54429,0.00000,-0.13607) ==
 == 315-th k-point nmo = 114 (0.06804,-0.61232,0.47625) ==
 == 316-th k-point nmo = 114 (0.13607,-0.54429,0.40822) ==
 == 317-th k-point nmo = 114 (0.20411,-0.47625,0.34018) ==
 == 318-th k-point nmo = 114 (0.27214,-0.40822,0.27214) ==
 == 319-th k-point nmo = 114 (0.34018,-0.34018,0.20411) ==
 == 320-th k-point nmo = 114 (0.40822,-0.27214,0.13607) ==
 == 321-th k-point nmo = 114 (0.47625,-0.20411,0.06804) ==
 == 322-th k-point nmo = 114 (0.54429,-0.13607,0.00000) ==
 == 323-th k-point nmo = 114 (0.61232,-0.06804,-0.06804) ==
 == 324-th k-point nmo = 114 (-0.54429,-0.00000,0.00000) ==
 == 325-th k-point nmo = 114 (-0.47625,0.06804,-0.06804) ==
 == 326-th k-point nmo = 114 (-0.40822,0.13607,-0.13607) ==
 == 327-th k-point nmo = 114 (-0.34018,0.20411,-0.20411) ==
 == 328-th k-point nmo = 114 (-0.27214,0.27214,-0.27214) ==
 == 329-th k-point nmo = 114 (-0.20411,0.34018,-0.34018) ==
 == 330-th k-point nmo = 114 (-0.13607,0.40822,-0.40822) ==
 == 331-th k-point nmo = 114 (-0.06804,0.47625,-0.47625) ==
 == 332-th k-point nmo = 114 (0.00000,0.54429,-0.54429) ==
 == 333-th k-point nmo = 114 (-0.47625,-0.06804,0.06804) ==
 == 334-th k-point nmo = 114 (-0.40822,-0.00000,-0.00000) ==
 == 335-th k-point nmo = 114 (-0.34018,0.06804,-0.06804) ==
 == 336-th k-point nmo = 114 (-0.27214,0.13607,-0.13607) ==
 == 337-th k-point nmo = 114 (-0.20411,0.20411,-0.20411) ==
 == 338-th k-point nmo = 114 (-0.13607,0.27214,-0.27214) ==
 == 339-th k-point nmo = 114 (-0.06804,0.34018,-0.34018) ==
 == 340-th k-point nmo = 114 (0.00000,0.40822,-0.40822) ==
 == 341-th k-point nmo = 114 (0.06804,0.47625,-0.47625) ==
 == 342-th k-point nmo = 114 (-0.40822,-0.13607,0.13607) ==
 == 343-th k-point nmo = 114 (-0.34018,-0.06804,0.06804) ==
 == 344-th k-point nmo = 114 (-0.27214,-0.00000,0.00000) ==
 == 345-th k-point nmo = 114 (-0.20411,0.06804,-0.06804) ==
 == 346-th k-point nmo = 115 (-0.13607,0.13607,-0.13607) ==
 == 347-th k-point nmo = 114 (-0.06804,0.20411,-0.20411) ==
 == 348-th k-point nmo = 114 (0.00000,0.27214,-0.27214) ==
 == 349-th k-point nmo = 114 (0.06804,0.34018,-0.34018) ==
 == 350-th k-point nmo = 114 (0.13607,0.40822,-0.40822) ==
 == 351-th k-point nmo = 114 (-0.34018,-0.20411,0.20411) ==
 == 352-th k-point nmo = 114 (-0.27214,-0.13607,0.13607) ==
 == 353-th k-point nmo = 114 (-0.20411,-0.06804,0.06804) ==
 == 354-th k-point nmo = 116 (-0.13607,-0.00000,0.00000) ==
 == 355-th k-point nmo = 115 (-0.06804,0.06804,-0.06804) ==
 == 356-th k-point nmo = 115 (0.00000,0.13607,-0.13607) ==
 == 357-th k-point nmo = 114 (0.06804,0.20411,-0.20411) ==
 == 358-th k-point nmo = 114 (0.13607,0.27214,-0.27214) ==
 == 359-th k-point nmo = 114 (0.20411,0.34018,-0.34018) ==
 == 360-th k-point nmo = 114 (-0.27214,-0.27214,0.27214) ==
 == 361-th k-point nmo = 114 (-0.20411,-0.20411,0.20411) ==
 == 362-th k-point nmo = 115 (-0.13607,-0.13607,0.13607) ==
 == 363-th k-point nmo = 115 (-0.06804,-0.06804,0.06804) ==
 == 364-th k-point nmo = 115 (0.00000,0.00000,0.00000) ==
 == 365-th k-point nmo = 115 (0.06804,0.06804,-0.06804) ==
 == 366-th k-point nmo = 115 (0.13607,0.13607,-0.13607) ==
 == 367-th k-point nmo = 114 (0.20411,0.20411,-0.20411) ==
 == 368-th k-point nmo = 114 (0.27214,0.27214,-0.27214) ==
 == 369-th k-point nmo = 114 (-0.20411,-0.34018,0.34018) ==
 == 370-th k-point nmo = 114 (-0.13607,-0.27214,0.27214) ==
 == 371-th k-point nmo = 114 (-0.06804,-0.20411,0.20411) ==
 == 372-th k-point nmo = 115 (0.00000,-0.13607,0.13607) ==
 == 373-th k-point nmo = 115 (0.06804,-0.06804,0.06804) ==
 == 374-th k-point nmo = 116 (0.13607,0.00000,0.00000) ==
 == 375-th k-point nmo = 114 (0.20411,0.06804,-0.06804) ==
 == 376-th k-point nmo = 114 (0.27214,0.13607,-0.13607) ==
 == 377-th k-point nmo = 114 (0.34018,0.20411,-0.20411) ==
 == 378-th k-point nmo = 114 (-0.13607,-0.40822,0.40822) ==
 == 379-th k-point nmo = 114 (-0.06804,-0.34018,0.34018) ==
 == 380-th k-point nmo = 114 (0.00000,-0.27214,0.27214) ==
 == 381-th k-point nmo = 114 (0.06804,-0.20411,0.20411) ==
 == 382-th k-point nmo = 115 (0.13607,-0.13607,0.13607) ==
 == 383-th k-point nmo = 114 (0.20411,-0.06804,0.06804) ==
 == 384-th k-point nmo = 114 (0.27214,0.00000,0.00000) ==
 == 385-th k-point nmo = 114 (0.34018,0.06804,-0.06804) ==
 == 386-th k-point nmo = 114 (0.40822,0.13607,-0.13607) ==
 == 387-th k-point nmo = 114 (-0.06804,-0.47625,0.47625) ==
 == 388-th k-point nmo = 114 (-0.00000,-0.40822,0.40822) ==
 == 389-th k-point nmo = 114 (0.06804,-0.34018,0.34018) ==
 == 390-th k-point nmo = 114 (0.13607,-0.27214,0.27214) ==
 == 391-th k-point nmo = 114 (0.20411,-0.20411,0.20411) ==
 == 392-th k-point nmo = 114 (0.27214,-0.13607,0.13607) ==
 == 393-th k-point nmo = 114 (0.34018,-0.06804,0.06804) ==
 == 394-th k-point nmo = 114 (0.40822,0.00000,0.00000) ==
 == 395-th k-point nmo = 114 (0.47625,0.06804,-0.06804) ==
 == 396-th k-point nmo = 114 (0.00000,-0.54429,0.54429) ==
 == 397-th k-point nmo = 114 (0.06804,-0.47625,0.47625) ==
 == 398-th k-point nmo = 114 (0.13607,-0.40822,0.40822) ==
 == 399-th k-point nmo = 114 (0.20411,-0.34018,0.34018) ==
 == 400-th k-point nmo = 114 (0.27214,-0.27214,0.27214) ==
 == 401-th k-point nmo = 114 (0.34018,-0.20411,0.20411) ==
 == 402-th k-point nmo = 114 (0.40822,-0.13607,0.13607) ==
 == 403-th k-point nmo = 114 (0.47625,-0.06804,0.06804) ==
 == 404-th k-point nmo = 114 (0.54429,0.00000,0.00000) ==
 == 405-th k-point nmo = 114 (-0.61232,0.06804,0.06804) ==
 == 406-th k-point nmo = 114 (-0.54429,0.13607,-0.00000) ==
 == 407-th k-point nmo = 114 (-0.47625,0.20411,-0.06804) ==
 == 408-th k-point nmo = 114 (-0.40822,0.27214,-0.13607) ==
 == 409-th k-point nmo = 114 (-0.34018,0.34018,-0.20411) ==
 == 410-th k-point nmo = 114 (-0.27214,0.40822,-0.27214) ==
 == 411-th k-point nmo = 114 (-0.20411,0.47625,-0.34018) ==
 == 412-th k-point nmo = 114 (-0.13607,0.54429,-0.40822) ==
 == 413-th k-point nmo = 114 (-0.06804,0.61232,-0.47625) ==
 == 414-th k-point nmo = 114 (-0.54429,-0.00000,0.13607) ==
 == 415-th k-point nmo = 114 (-0.47625,0.06804,0.06804) ==
 == 416-th k-point nmo = 114 (-0.40822,0.13607,-0.00000) ==
 == 417-th k-point nmo = 114 (-0.34018,0.20411,-0.06804) ==
 == 418-th k-point nmo = 114 (-0.27214,0.27214,-0.13607) ==
 == 419-th k-point nmo = 114 (-0.20411,0.34018,-0.20411) ==
 == 420-th k-point nmo = 114 (-0.13607,0.40822,-0.27214) ==
 == 421-th k-point nmo = 114 (-0.06804,0.47625,-0.34018) ==
 == 422-th k-point nmo = 114 (0.00000,0.54429,-0.40822) ==
 == 423-th k-point nmo = 114 (-0.47625,-0.06804,0.20411) ==
 == 424-th k-point nmo = 114 (-0.40822,-0.00000,0.13607) ==
 == 425-th k-point nmo = 114 (-0.34018,0.06804,0.06804) ==
 == 426-th k-point nmo = 114 (-0.27214,0.13607,0.00000) ==
 == 427-th k-point nmo = 114 (-0.20411,0.20411,-0.06804) ==
 == 428-th k-point nmo = 114 (-0.13607,0.27214,-0.13607) ==
 == 429-th k-point nmo = 114 (-0.06804,0.34018,-0.20411) ==
 == 430-th k-point nmo = 114 (0.00000,0.40822,-0.27214) ==
 == 431-th k-point nmo = 114 (0.06804,0.47625,-0.34018) ==
 == 432-th k-point nmo = 114 (-0.40822,-0.13607,0.27214) ==
 == 433-th k-point nmo = 114 (-0.34018,-0.06804,0.20411) ==
 == 434-th k-point nmo = 114 (-0.27214,0.00000,0.13607) ==
 == 435-th k-point nmo = 114 (-0.20411,0.06804,0.06804) ==
 == 436-th k-point nmo = 115 (-0.13607,0.13607,0.00000) ==
 == 437-th k-point nmo = 114 (-0.06804,0.20411,-0.06804) ==
 == 438-th k-point nmo = 114 (0.00000,0.27214,-0.13607) ==
 == 439-th k-point nmo = 114 (0.06804,0.34018,-0.20411) ==
 == 440-th k-point nmo = 114 (0.13607,0.40822,-0.27214) ==
 == 441-th k-point nmo = 114 (-0.34018,-0.20411,0.34018) ==
 == 442-th k-point nmo = 114 (-0.27214,-0.13607,0.27214) ==
 == 443-th k-point nmo = 114 (-0.20411,-0.06804,0.20411) ==
 == 444-th k-point nmo = 115 (-0.13607,0.00000,0.13607) ==
 == 445-th k-point nmo = 115 (-0.06804,0.06804,0.06804) ==
 == 446-th k-point nmo = 116 (0.00000,0.13607,0.00000) ==
 == 447-th k-point nmo = 114 (0.06804,0.20411,-0.06804) ==
 == 448-th k-point nmo = 114 (0.13607,0.27214,-0.13607) ==
 == 449-th k-point nmo = 114 (0.20411,0.34018,-0.20411) ==
 == 450-th k-point nmo = 114 (-0.27214,-0.27214,0.40822) ==
 == 451-th k-point nmo = 114 (-0.20411,-0.20411,0.34018) ==
 == 452-th k-point nmo = 114 (-0.13607,-0.13607,0.27214) ==
 == 453-th k-point nmo = 114 (-0.06804,-0.06804,0.20411) ==
 == 454-th k-point nmo = 116 (0.00000,0.00000,0.13607) ==
 == 455-th k-point nmo = 115 (0.06804,0.06804,0.06804) ==
 == 456-th k-point nmo = 115 (0.13607,0.13607,0.00000) ==
 == 457-th k-point nmo = 114 (0.20411,0.20411,-0.06804) ==
 == 458-th k-point nmo = 114 (0.27214,0.27214,-0.13607) ==
 == 459-th k-point nmo = 114 (-0.20411,-0.34018,0.47625) ==
 == 460-th k-point nmo = 114 (-0.13607,-0.27214,0.40822) ==
 == 461-th k-point nmo = 114 (-0.06804,-0.20411,0.34018) ==
 == 462-th k-point nmo = 114 (0.00000,-0.13607,0.27214) ==
 == 463-th k-point nmo = 114 (0.06804,-0.06804,0.20411) ==
 == 464-th k-point nmo = 115 (0.13607,0.00000,0.13607) ==
 == 465-th k-point nmo = 114 (0.20411,0.06804,0.06804) ==
 == 466-th k-point nmo = 114 (0.27214,0.13607,0.00000) ==
 == 467-th k-point nmo = 114 (0.34018,0.20411,-0.06804) ==
 == 468-th k-point nmo = 114 (-0.13607,-0.40822,0.54429) ==
 == 469-th k-point nmo = 114 (-0.06804,-0.34018,0.47625) ==
 == 470-th k-point nmo = 114 (0.00000,-0.27214,0.40822) ==
 == 471-th k-point nmo = 114 (0.06804,-0.20411,0.34018) ==
 == 472-th k-point nmo = 114 (0.13607,-0.13607,0.27214) ==
 == 473-th k-point nmo = 114 (0.20411,-0.06804,0.20411) ==
 == 474-th k-point nmo = 114 (0.27214,0.00000,0.13607) ==
 == 475-th k-point nmo = 114 (0.34018,0.06804,0.06804) ==
 == 476-th k-point nmo = 114 (0.40822,0.13607,0.00000) ==
 == 477-th k-point nmo = 114 (-0.06804,-0.47625,0.61232) ==
 == 478-th k-point nmo = 114 (0.00000,-0.40822,0.54429) ==
 == 479-th k-point nmo = 114 (0.06804,-0.34018,0.47625) ==
 == 480-th k-point nmo = 114 (0.13607,-0.27214,0.40822) ==
 == 481-th k-point nmo = 114 (0.20411,-0.20411,0.34018) ==
 == 482-th k-point nmo = 114 (0.27214,-0.13607,0.27214) ==
 == 483-th k-point nmo = 114 (0.34018,-0.06804,0.20411) ==
 == 484-th k-point nmo = 114 (0.40822,0.00000,0.13607) ==
 == 485-th k-point nmo = 114 (0.47625,0.06804,0.06804) ==
 == 486-th k-point nmo = 114 (-0.68036,0.13607,0.13607) ==
 == 487-th k-point nmo = 114 (-0.61232,0.20411,0.06804) ==
 == 488-th k-point nmo = 114 (-0.54429,0.27214,0.00000) ==
 == 489-th k-point nmo = 114 (-0.47625,0.34018,-0.06804) ==
 == 490-th k-point nmo = 114 (-0.40822,0.40822,-0.13607) ==
 == 491-th k-point nmo = 114 (-0.34018,0.47625,-0.20411) ==
 == 492-th k-point nmo = 114 (-0.27214,0.54429,-0.27214) ==
 == 493-th k-point nmo = 114 (-0.20411,0.61232,-0.34018) ==
 == 494-th k-point nmo = 114 (-0.13607,0.68036,-0.40822) ==
 == 495-th k-point nmo = 114 (-0.61232,0.06804,0.20411) ==
 == 496-th k-point nmo = 114 (-0.54429,0.13607,0.13607) ==
 == 497-th k-point nmo = 114 (-0.47625,0.20411,0.06804) ==
 == 498-th k-point nmo = 114 (-0.40822,0.27214,-0.00000) ==
 == 499-th k-point nmo = 114 (-0.34018,0.34018,-0.06804) ==
 == 500-th k-point nmo = 114 (-0.27214,0.40822,-0.13607) ==
 == 501-th k-point nmo = 114 (-0.20411,0.47625,-0.20411) ==
 == 502-th k-point nmo = 114 (-0.13607,0.54429,-0.27214) ==
 == 503-th k-point nmo = 114 (-0.06804,0.61232,-0.34018) ==
 == 504-th k-point nmo = 114 (-0.54429,0.00000,0.27214) ==
 == 505-th k-point nmo = 114 (-0.47625,0.06804,0.20411) ==
 == 506-th k-point nmo = 114 (-0.40822,0.13607,0.13607) ==
 == 507-th k-point nmo = 114 (-0.34018,0.20411,0.06804) ==
 == 508-th k-point nmo = 114 (-0.27214,0.27214,0.00000) ==
 == 509-th k-point nmo = 114 (-0.20411,0.34018,-0.06804) ==
 == 510-th k-point nmo = 114 (-0.13607,0.40822,-0.13607) ==
 == 511-th k-point nmo = 114 (-0.06804,0.47625,-0.20411) ==
 == 512-th k-point nmo = 114 (0.00000,0.54429,-0.27214) ==
 == 513-th k-point nmo = 114 (-0.47625,-0.06804,0.34018) ==
 == 514-th k-point nmo = 114 (-0.40822,-0.00000,0.27214) ==
 == 515-th k-point nmo = 114 (-0.34018,0.06804,0.20411) ==
 == 516-th k-point nmo = 114 (-0.27214,0.13607,0.13607) ==
 == 517-th k-point nmo = 114 (-0.20411,0.20411,0.06804) ==
 == 518-th k-point nmo = 114 (-0.13607,0.27214,0.00000) ==
 == 519-th k-point nmo = 114 (-0.06804,0.34018,-0.06804) ==
 == 520-th k-point nmo = 114 (0.00000,0.40822,-0.13607) ==
 == 521-th k-point nmo = 114 (0.06804,0.47625,-0.20411) ==
 == 522-th k-point nmo = 114 (-0.40822,-0.13607,0.40822) ==
 == 523-th k-point nmo = 114 (-0.34018,-0.06804,0.34018) ==
 == 524-th k-point nmo = 114 (-0.27214,0.00000,0.27214) ==
 == 525-th k-point nmo = 114 (-0.20411,0.06804,0.20411) ==
 == 526-th k-point nmo = 115 (-0.13607,0.13607,0.13607) ==
 == 527-th k-point nmo = 114 (-0.06804,0.20411,0.06804) ==
 == 528-th k-point nmo = 114 (0.00000,0.27214,0.00000) ==
 == 529-th k-point nmo = 114 (0.06804,0.34018,-0.06804) ==
 == 530-th k-point nmo = 114 (0.13607,0.40822,-0.13607) ==
 == 531-th k-point nmo = 114 (-0.34018,-0.20411,0.47625) ==
 == 532-th k-point nmo = 114 (-0.27214,-0.13607,0.40822) ==
 == 533-th k-point nmo = 114 (-0.20411,-0.06804,0.34018) ==
 == 534-th k-point nmo = 114 (-0.13607,0.00000,0.27214) ==
 == 535-th k-point nmo = 114 (-0.06804,0.06804,0.20411) ==
 == 536-th k-point nmo = 115 (0.00000,0.13607,0.13607) ==
 == 537-th k-point nmo = 114 (0.06804,0.20411,0.06804) ==
 == 538-th k-point nmo = 114 (0.13607,0.27214,0.00000) ==
 == 539-th k-point nmo = 114 (0.20411,0.34018,-0.06804) ==
 == 540-th k-point nmo = 114 (-0.27214,-0.27214,0.54429) ==
 == 541-th k-point nmo = 114 (-0.20411,-0.20411,0.47625) ==
 == 542-th k-point nmo = 114 (-0.13607,-0.13607,0.40822) ==
 == 543-th k-point nmo = 114 (-0.06804,-0.06804,0.34018) ==
 == 544-th k-point nmo = 114 (0.00000,0.00000,0.27214) ==
 == 545-th k-point nmo = 114 (0.06804,0.06804,0.20411) ==
 == 546-th k-point nmo = 115 (0.13607,0.13607,0.13607) ==
 == 547-th k-point nmo = 114 (0.20411,0.20411,0.06804) ==
 == 548-th k-point nmo = 114 (0.27214,0.27214,0.00000) ==
 == 549-th k-point nmo = 114 (-0.20411,-0.34018,0.61232) ==
 == 550-th k-point nmo = 114 (-0.13607,-0.27214,0.54429) ==
 == 551-th k-point nmo = 114 (-0.06804,-0.20411,0.47625) ==
 == 552-th k-point nmo = 114 (0.00000,-0.13607,0.40822) ==
 == 553-th k-point nmo = 114 (0.06804,-0.06804,0.34018) ==
 == 554-th k-point nmo = 114 (0.13607,0.00000,0.27214) ==
 == 555-th k-point nmo = 114 (0.20411,0.06804,0.20411) ==
 == 556-th k-point nmo = 114 (0.27214,0.13607,0.13607) ==
 == 557-th k-point nmo = 114 (0.34018,0.20411,0.06804) ==
 == 558-th k-point nmo = 114 (-0.13607,-0.40822,0.68036) ==
 == 559-th k-point nmo = 114 (-0.06804,-0.34018,0.61232) ==
 == 560-th k-point nmo = 114 (0.00000,-0.27214,0.54429) ==
 == 561-th k-point nmo = 114 (0.06804,-0.20411,0.47625) ==
 == 562-th k-point nmo = 114 (0.13607,-0.13607,0.40822) ==
 == 563-th k-point nmo = 114 (0.20411,-0.06804,0.34018) ==
 == 564-th k-point nmo = 114 (0.27214,0.00000,0.27214) ==
 == 565-th k-point nmo = 114 (0.34018,0.06804,0.20411) ==
 == 566-th k-point nmo = 114 (0.40822,0.13607,0.13607) ==
 == 567-th k-point nmo = 114 (-0.74840,0.20411,0.20411) ==
 == 568-th k-point nmo = 114 (-0.68036,0.27214,0.13607) ==
 == 569-th k-point nmo = 114 (-0.61232,0.34018,0.06804) ==
 == 570-th k-point nmo = 114 (-0.54429,0.40822,-0.00000) ==
 == 571-th k-point nmo = 114 (-0.47625,0.47625,-0.06804) ==
 == 572-th k-point nmo = 114 (-0.40822,0.54429,-0.13607) ==
 == 573-th k-point nmo = 114 (-0.34018,0.61232,-0.20411) ==
 == 574-th k-point nmo = 114 (-0.27214,0.68036,-0.27214) ==
 == 575-th k-point nmo = 114 (-0.20411,0.74840,-0.34018) ==
 == 576-th k-point nmo = 114 (-0.68036,0.13607,0.27214) ==
 == 577-th k-point nmo = 114 (-0.61232,0.20411,0.20411) ==
 == 578-th k-point nmo = 114 (-0.54429,0.27214,0.13607) ==
 == 579-th k-point nmo = 114 (-0.47625,0.34018,0.06804) ==
 == 580-th k-point nmo = 114 (-0.40822,0.40822,-0.00000) ==
 == 581-th k-point nmo = 114 (-0.34018,0.47625,-0.06804) ==
 == 582-th k-point nmo = 114 (-0.27214,0.54429,-0.13607) ==
 == 583-th k-point nmo = 114 (-0.20411,0.61232,-0.20411) ==
 == 584-th k-point nmo = 114 (-0.13607,0.68036,-0.27214) ==
 == 585-th k-point nmo = 114 (-0.61232,0.06804,0.34018) ==
 == 586-th k-point nmo = 114 (-0.54429,0.13607,0.27214) ==
 == 587-th k-point nmo = 114 (-0.47625,0.20411,0.20411) ==
 == 588-th k-point nmo = 114 (-0.40822,0.27214,0.13607) ==
 == 589-th k-point nmo = 114 (-0.34018,0.34018,0.06804) ==
 == 590-th k-point nmo = 114 (-0.27214,0.40822,-0.00000) ==
 == 591-th k-point nmo = 114 (-0.20411,0.47625,-0.06804) ==
 == 592-th k-point nmo = 114 (-0.13607,0.54429,-0.13607) ==
 == 593-th k-point nmo = 114 (-0.06804,0.61232,-0.20411) ==
 == 594-th k-point nmo = 114 (-0.54429,0.00000,0.40822) ==
 == 595-th k-point nmo = 114 (-0.47625,0.06804,0.34018) ==
[...]
 -0.08216 0.06125 0.16296 0.19682 0.33684 0.43113 0.47119 0.48554 0.66673 0.68459
 0.70342 0.71769 0.76043 0.86123 0.90890 0.97401 0.98609 1.00237 1.07650 1.11887
 1.20078 1.25081 1.26338 1.27913 1.35568 1.39888 1.41147 1.43342 1.51197 1.56935
 1.62024 1.62228 1.66646 1.68418 1.73120 1.79662 1.90202 1.93030 1.94264 1.95109
 2.00648 2.04292 2.06163 2.12814 2.13762 2.14502 2.25896 2.34004 2.35326 2.38138
 2.43885 2.47019 2.50303 2.56825 2.61521 2.63817 2.66978 2.74918 2.79119 2.80099
 2.82122 2.86393 2.89387 2.91767 2.97469 3.03503 3.05060 3.06607 3.10850 3.12451
 3.17558 3.24584 3.31379 3.32630 3.34266 3.37726 3.38626 3.44242 3.51747 3.51842
 3.56990 3.63049 3.65652 3.69467 3.74143 3.79798 3.81949 3.85619 3.86438 4.02538
 4.06667 4.17698 4.26207 4.31412 4.56969 4.57787 8.01343 8.25537 8.25584 9.05409
 9.99761 10.29071 13.07207 14.14208
 == 711-th k-point (-0.34018,-0.20411,0.74840) occupation: 14==
 -65.00568 -65.00567 -4.62781 -4.62770 -3.03968 -3.03966 -3.03947 -3.03915 -3.03895 -3.03893
 -0.06867 0.03368 0.15830 0.20375 0.38218 0.39425 0.47650 0.51792 0.59556 0.64623
 0.69722 0.75449 0.79407 0.87231 0.91753 0.99097 1.00816 1.04168 1.09332 1.11431
 1.16706 1.24433 1.25564 1.28731 1.30844 1.36910 1.42067 1.44596 1.47614 1.52573
 1.57833 1.60660 1.64090 1.74093 1.76265 1.79753 1.86381 1.92306 1.95434 1.99410
 2.03970 2.08546 2.09413 2.17450 2.18051 2.22912 2.28244 2.31059 2.35544 2.36065
 2.42292 2.43789 2.46291 2.52928 2.56365 2.65362 2.70587 2.75270 2.80297 2.81717
 2.83837 2.88691 2.91431 2.93902 2.96860 2.99205 3.01721 3.06423 3.09392 3.15422
 3.18208 3.24257 3.26091 3.28136 3.33497 3.39669 3.43856 3.45342 3.47875 3.51531
 3.55632 3.59473 3.65869 3.67968 3.70680 3.75244 3.81135 3.85237 3.89835 3.99261
 4.04908 4.13900 4.24374 4.29477 4.51209 4.55009 8.15749 8.34871 8.38295 8.89283
 9.34896 9.92080 13.04396 14.48287
 == 712-th k-point (-0.27214,-0.13607,0.68036) occupation: 14==
 -65.00567 -65.00567 -4.62779 -4.62772 -3.03969 -3.03968 -3.03941 -3.03921 -3.03894 -3.03892
 -0.04359 0.02464 0.12249 0.17952 0.36913 0.44330 0.50061 0.52069 0.55370 0.64914
 0.75804 0.77976 0.87776 0.88169 0.91888 0.93059 0.98695 1.01640 1.06190 1.09861
 1.13100 1.22287 1.23730 1.24634 1.31920 1.36456 1.41224 1.44230 1.46756 1.52139
 1.56278 1.65635 1.69886 1.74341 1.77577 1.80286 1.86939 1.90464 1.93892 1.97821
 2.02168 2.09565 2.12291 2.17061 2.20257 2.25149 2.27620 2.29445 2.32913 2.38069
 2.42986 2.44693 2.49169 2.50348 2.57507 2.61000 2.67656 2.74136 2.78156 2.83721
 2.86693 2.89574 2.94031 2.96008 2.97534 2.99682 3.03326 3.08009 3.10024 3.16242
 3.23443 3.24523 3.27783 3.31010 3.33264 3.36890 3.40239 3.43106 3.46788 3.49917
 3.50923 3.55071 3.60466 3.63996 3.67231 3.75425 3.84573 3.86845 3.90960 3.96964
 4.02218 4.16452 4.24491 4.26190 4.54252 4.57802 8.18925 8.42239 8.52506 8.81261
 9.17279 9.75330 13.31959 14.26311
 == 713-th k-point (-0.20411,-0.06804,0.61232) occupation: 14==
 -65.00567 -65.00567 -4.62777 -4.62774 -3.03970 -3.03969 -3.03934 -3.03926 -3.03894 -3.03892
 -0.01834 0.00355 0.12381 0.16154 0.35063 0.41140 0.52292 0.53259 0.62760 0.65967
 0.76139 0.80057 0.86046 0.89571 0.90037 0.91297 0.98078 1.01415 1.03598 1.09691
 1.12520 1.15222 1.20226 1.21708 1.36209 1.36968 1.45059 1.46143 1.48945 1.50734
 1.63272 1.65080 1.68137 1.74518 1.75381 1.81666 1.86574 1.87209 1.92337 1.93339
 2.02559 2.07095 2.14497 2.20689 2.23127 2.23438 2.28392 2.29580 2.33174 2.37400
 2.38740 2.45910 2.48271 2.51654 2.60190 2.67436 2.71276 2.72205 2.77561 2.79373
 2.86404 2.86485 2.90095 2.94585 2.99255 3.01230 3.05528 3.08308 3.11589 3.12453
 3.22575 3.24153 3.27477 3.29236 3.34056 3.35587 3.38260 3.40653 3.46521 3.47907
 3.54492 3.59891 3.64034 3.65417 3.68435 3.72065 3.81076 3.88064 3.95713 4.00513
 4.08840 4.20351 4.27412 4.28248 4.57341 4.59613 8.25410 8.43135 8.60881 8.70512
 9.41362 9.84829 13.39464 13.77758
 == 714-th k-point (-0.13607,0.00000,0.54429) occupation: 14==
 -65.00567 -65.00567 -4.62778 -4.62773 -3.03969 -3.03969 -3.03935 -3.03925 -3.03894 -3.03894
 -0.03770 0.02055 0.15055 0.15825 0.33683 0.34847 0.54345 0.61183 0.63404 0.69845
 0.72755 0.78564 0.80104 0.87131 0.87391 0.93101 0.98679 1.02911 1.05044 1.06172
 1.14772 1.15321 1.16526 1.21756 1.38953 1.41369 1.46506 1.50432 1.51465 1.52825
 1.55843 1.69451 1.73327 1.73516 1.75827 1.78068 1.83566 1.84137 1.87632 1.89736
 2.04510 2.04718 2.15357 2.15442 2.17523 2.23565 2.26198 2.31984 2.35652 2.39236
 2.41532 2.45344 2.51194 2.52990 2.58205 2.61098 2.70203 2.75964 2.78613 2.80790
 2.85662 2.86764 2.92015 2.95206 2.97738 2.98934 2.99179 3.07323 3.10819 3.12191
 3.19465 3.22239 3.29117 3.30493 3.32843 3.35116 3.37930 3.39732 3.51058 3.52740
 3.54713 3.55132 3.64232 3.65798 3.71264 3.72067 3.89074 3.93709 3.98408 4.03428
 4.20027 4.21422 4.30290 4.33220 4.59565 4.60859 8.19046 8.42522 8.52913 8.65533
 9.87807 9.90821 13.34333 13.45764
 == 715-th k-point (-0.06804,0.06804,0.47625) occupation: 14==
 -65.00567 -65.00567 -4.62780 -4.62771 -3.03969 -3.03968 -3.03941 -3.03919 -3.03896 -3.03895
 -0.06685 0.05292 0.15887 0.17978 0.31177 0.35152 0.55604 0.55797 0.69651 0.70156
 0.71710 0.72199 0.82117 0.83316 0.86274 0.92432 0.94529 0.99503 1.08119 1.13631
 1.15925 1.18385 1.21020 1.28017 1.35766 1.36011 1.44276 1.51440 1.53061 1.57724
 1.63248 1.66024 1.70698 1.73225 1.75033 1.79116 1.81918 1.85271 1.86274 1.93046
 1.97601 2.04784 2.06321 2.15532 2.17470 2.19703 2.20593 2.36417 2.38412 2.39252
 2.43591 2.43878 2.52930 2.53525 2.60222 2.60433 2.66280 2.76866 2.81498 2.83652
 2.85800 2.88827 2.89284 2.92570 2.94414 2.98846 3.00614 3.02254 3.08668 3.17222
 3.23362 3.23505 3.25460 3.33277 3.33610 3.36142 3.40626 3.44417 3.52507 3.52742
 3.54725 3.55605 3.60144 3.68031 3.70910 3.75451 3.88937 3.90978 3.94803 4.12562
 4.16141 4.23417 4.28859 4.35494 4.60749 4.61342 8.05871 8.31329 8.35626 8.78763
 10.24064 10.33829 13.24424 13.47122
 == 716-th k-point (0.00000,0.13607,0.40822) occupation: 14==
 -65.00567 -65.00567 -4.62782 -4.62769 -3.03968 -3.03967 -3.03946 -3.03915 -3.03896 -3.03896
 -0.08762 0.08038 0.16122 0.18668 0.34316 0.38085 0.47767 0.54152 0.62786 0.69008
 0.71073 0.76639 0.79225 0.82515 0.86387 0.92922 0.95906 1.02890 1.08916 1.14397
 1.20192 1.20768 1.27232 1.29952 1.34281 1.36628 1.45085 1.50652 1.52935 1.55568
 1.56378 1.65375 1.70959 1.72953 1.79124 1.79619 1.83587 1.83613 1.88702 1.96134
 2.00781 2.01058 2.03635 2.13787 2.14533 2.17042 2.19778 2.31575 2.38910 2.43302
 2.43613 2.46161 2.54057 2.55663 2.61012 2.62119 2.64283 2.73175 2.79977 2.81392
 2.83593 2.88376 2.88717 2.92634 2.93380 3.02657 3.03659 3.09228 3.11075 3.12946
 3.22391 3.26458 3.32496 3.33161 3.38042 3.38389 3.42933 3.43027 3.48169 3.53413
 3.54021 3.55148 3.62515 3.66564 3.71603 3.73600 3.88592 3.90036 3.95512 4.03156
 4.09643 4.13688 4.27274 4.36249 4.57980 4.61561 8.04710 8.07188 8.18436 9.06836
 10.23069 10.55721 13.24167 13.62531
 == 717-th k-point (0.06804,0.20411,0.34018) occupation: 14==
 -65.00567 -65.00567 -4.62783 -4.62767 -3.03967 -3.03966 -3.03950 -3.03912 -3.03897 -3.03895
 -0.09809 0.08132 0.16528 0.21577 0.37823 0.40949 0.45324 0.47856 0.58624 0.65733
 0.70864 0.72849 0.79769 0.84384 0.88008 0.96788 0.97961 1.04630 1.10246 1.17355
 1.19340 1.21434 1.28192 1.30959 1.37603 1.41768 1.44971 1.46703 1.49044 1.54958
 1.58637 1.62439 1.66881 1.72727 1.75522 1.81876 1.82855 1.86682 1.89208 1.96776
 2.01047 2.03231 2.06128 2.11578 2.14742 2.18885 2.25789 2.31051 2.37707 2.41413
 2.43126 2.49528 2.51129 2.58029 2.60380 2.63496 2.65319 2.76084 2.77275 2.80217
 2.80897 2.85478 2.89783 2.91703 2.96416 2.98586 3.04689 3.10112 3.14876 3.18678
 3.20479 3.28997 3.30030 3.32917 3.36177 3.40183 3.43103 3.47078 3.48738 3.51255
 3.53339 3.60130 3.63597 3.70817 3.74606 3.76966 3.80962 3.84084 3.91955 3.94196
 4.06085 4.09761 4.24853 4.37689 4.54124 4.59749 7.85164 8.06313 8.25766 9.40250
 9.65498 10.24702 13.06753 14.16386
 == 718-th k-point (0.13607,0.27214,0.27214) occupation: 14==
 -65.00567 -65.00567 -4.62784 -4.62767 -3.03966 -3.03966 -3.03953 -3.03910 -3.03896 -3.03896
 -0.09793 0.06118 0.19216 0.23549 0.36514 0.41082 0.41354 0.54873 0.55478 0.61999
 0.69318 0.72319 0.81545 0.84134 0.88893 0.92872 1.00732 1.12840 1.12963 1.15545
 1.17554 1.22781 1.30303 1.33367 1.35197 1.38507 1.42147 1.46949 1.49360 1.54549
 1.55357 1.63495 1.68775 1.72916 1.75581 1.78730 1.82375 1.84631 1.90912 1.97832
 2.04229 2.08536 2.09347 2.12719 2.14921 2.19651 2.28833 2.34115 2.37932 2.38946
 2.40457 2.46874 2.55292 2.57888 2.58909 2.64964 2.71037 2.77228 2.77673 2.78257
 2.82193 2.87937 2.88606 2.90708 2.94737 2.98134 3.00443 3.11732 3.12973 3.14460
 3.15296 3.22683 3.30709 3.34297 3.36802 3.46036 3.46716 3.47943 3.49564 3.54001
 3.59520 3.62639 3.66203 3.68603 3.73863 3.75981 3.79596 3.87849 3.93736 3.96400
 4.03141 4.07659 4.22881 4.39113 4.49596 4.56827 7.86728 8.10374 8.22687 9.54641
 9.70111 10.00598 12.54441 14.56031
 == 719-th k-point (0.20411,0.34018,0.20411) occupation: 14==
 -65.00568 -65.00567 -4.62783 -4.62768 -3.03967 -3.03965 -3.03952 -3.03910 -3.03898 -3.03894
 -0.08764 0.04360 0.20307 0.21807 0.35775 0.40186 0.42808 0.52698 0.60647 0.66176
 0.68460 0.72035 0.74860 0.84951 0.91827 0.96061 1.01983 1.09692 1.11273 1.15980
 1.19244 1.21040 1.30089 1.31777 1.33294 1.39920 1.42142 1.43872 1.48355 1.51309
 1.55589 1.61120 1.68120 1.72239 1.74312 1.79689 1.85750 1.90986 1.96406 1.98890
 1.99255 2.07359 2.10439 2.17404 2.17801 2.24961 2.25177 2.31542 2.32732 2.40020
 2.40719 2.40782 2.53908 2.57524 2.62947 2.64152 2.75420 2.77129 2.77618 2.79435
 2.79682 2.86888 2.87017 2.91174 2.94285 3.01580 3.05314 3.07002 3.09162 3.12304
 3.14526 3.21379 3.27731 3.28074 3.38982 3.43077 3.44652 3.49320 3.54018 3.55563
 3.57413 3.64876 3.65790 3.70618 3.74591 3.76622 3.81984 3.84546 3.94976 3.96297
 4.03702 4.13102 4.22480 4.34697 4.51298 4.52606 8.04046 8.26386 8.29389 9.33188
 9.93865 9.97402 12.51853 14.66631
 == 720-th k-point (-0.27214,-0.27214,0.81643) occupation: 14==
 -65.00568 -65.00567 -4.62782 -4.62769 -3.03967 -3.03966 -3.03951 -3.03911 -3.03896 -3.03894
 -0.07360 0.02242 0.19347 0.22323 0.35815 0.40257 0.41826 0.57561 0.61268 0.62739
 0.67945 0.74786 0.76264 0.78662 0.96955 1.02156 1.04510 1.06829 1.09624 1.10928
 1.20628 1.23812 1.25869 1.31379 1.32186 1.36951 1.40194 1.41966 1.49435 1.51926
 1.53416 1.60462 1.67020 1.71053 1.73797 1.81567 1.84036 1.92528 1.97771 2.00128
 2.08632 2.12096 2.12670 2.18240 2.19042 2.21307 2.27593 2.28532 2.32506 2.34677
 2.44940 2.47131 2.50824 2.51474 2.55255 2.68069 2.74044 2.74731 2.77634 2.82894
 2.83141 2.86776 2.90387 2.93709 2.94269 2.96438 3.03828 3.04822 3.10995 3.12518
 3.17783 3.19565 3.22314 3.24069 3.39390 3.40534 3.45391 3.49458 3.51652 3.53457
 3.58460 3.63525 3.66635 3.69549 3.70939 3.76059 3.76280 3.88770 3.97801 3.98173
 4.02063 4.15128 4.25445 4.29991 4.47705 4.49404 8.18869 8.35499 8.39513 9.18855
 9.20624 9.97493 12.55103 14.64395
 == 721-th k-point (-0.20411,-0.20411,0.74840) occupation: 14==
 -65.00567 -65.00567 -4.62780 -4.62770 -3.03969 -3.03967 -3.03945 -3.03916 -3.03896 -3.03892
 -0.05792 0.02637 0.14379 0.20256 0.34253 0.46196 0.47122 0.50477 0.61418 0.62381
 0.72136 0.76790 0.78800 0.89588 0.95759 0.97161 0.98274 1.03968 1.04430 1.09898
 1.18724 1.23088 1.24269 1.27301 1.32282 1.36457 1.39036 1.43773 1.46901 1.55406
 1.61980 1.62453 1.65807 1.67575 1.71497 1.82083 1.90068 1.93213 1.94946 1.98040
 2.06077 2.10097 2.10369 2.15081 2.17172 2.26495 2.29285 2.30653 2.31341 2.34346
 2.40209 2.43352 2.49248 2.52679 2.55076 2.63613 2.66378 2.74897 2.79241 2.83501
 2.87491 2.90972 2.91933 2.96873 2.97373 3.02780 3.02968 3.05541 3.06476 3.11736
 3.17831 3.24118 3.27158 3.29767 3.34143 3.36465 3.39063 3.42620 3.49055 3.51944
 3.56392 3.59222 3.64770 3.67538 3.74567 3.76142 3.81265 3.85802 3.87061 3.93597
 4.04592 4.19861 4.24167 4.28052 4.52756 4.54557 8.12422 8.40068 8.43501 8.88033
 9.26316 9.83949 13.11535 14.43774
 == 722-th k-point (-0.13607,-0.13607,0.68036) occupation: 14==
 -65.00567 -65.00567 -4.62778 -4.62773 -3.03970 -3.03968 -3.03938 -3.03923 -3.03894 -3.03892
 -0.03752 0.01981 0.12549 0.18374 0.31918 0.41077 0.54382 0.54824 0.62680 0.63053
 0.78076 0.79074 0.81411 0.87981 0.89626 0.94009 0.99472 1.00962 1.03336 1.12060
 1.13112 1.14442 1.17338 1.26947 1.36779 1.38944 1.39122 1.47103 1.54617 1.56665
 1.59665 1.61514 1.69129 1.70066 1.76356 1.76533 1.87110 1.87891 1.92988 1.98892
 2.01034 2.08621 2.08957 2.17756 2.22448 2.25780 2.27127 2.31034 2.33750 2.35369
 2.39789 2.43032 2.50006 2.50278 2.56996 2.66510 2.66819 2.76085 2.77642 2.79036
 2.83298 2.90573 2.91583 2.95815 3.00978 3.01651 3.06613 3.07310 3.09817 3.11947
 3.21824 3.23166 3.26380 3.30262 3.30279 3.32775 3.37211 3.43147 3.44686 3.47818
 3.56400 3.65336 3.65862 3.67565 3.73519 3.74708 3.78721 3.89308 3.96021 3.96157
 4.08142 4.24580 4.26950 4.29609 4.56514 4.59833 8.14556 8.43553 8.53562 8.69300
 9.35752 9.95061 13.31357 13.85520
 == 723-th k-point (-0.06804,-0.06804,0.61232) occupation: 14==
 -65.00567 -65.00567 -4.62776 -4.62775 -3.03970 -3.03969 -3.03931 -3.03928 -3.03894 -3.03894
 -0.01353 -0.00736 0.14866 0.17270 0.30602 0.33667 0.61633 0.62766 0.64520 0.65448
 0.77443 0.77778 0.77871 0.80502 0.92867 0.93934 1.00812 1.01712 1.03240 1.06808
 1.08090 1.11004 1.18338 1.22561 1.37334 1.42647 1.47341 1.52053 1.55699 1.58953
 1.61655 1.62418 1.69775 1.72058 1.72105 1.75389 1.82079 1.84822 1.89844 1.89907
 2.04027 2.06793 2.09602 2.14044 2.22827 2.25224 2.30628 2.30651 2.34069 2.40026
 2.40519 2.44915 2.49536 2.51246 2.53116 2.62807 2.72039 2.75052 2.76653 2.79550
 2.85290 2.87557 2.91839 2.95827 2.98758 3.03467 3.03942 3.04367 3.10113 3.13647
 3.21355 3.24048 3.24907 3.25144 3.27578 3.31611 3.38303 3.41904 3.50120 3.52196
 3.54664 3.55756 3.66503 3.68030 3.69593 3.73427 3.92657 3.96836 3.97544 4.03336
 4.22754 4.28161 4.33341 4.33415 4.59351 4.62002 8.27165 8.35766 8.61758 8.62718
 9.52490 9.88689 13.39899 13.40101
 == 724-th k-point (0.00000,0.00000,0.54429) occupation: 14==
 -65.00567 -65.00567 -4.62778 -4.62773 -3.03969 -3.03969 -3.03935 -3.03924 -3.03894 -3.03894
 -0.04202 0.02110 0.17131 0.17131 0.29758 0.31248 0.62169 0.62169 0.70728 0.71570
 0.71570 0.72097 0.77788 0.78562 0.92750 0.95226 0.95227 0.98950 1.07297 1.08022
 1.08023 1.12430 1.20955 1.26641 1.36984 1.36986 1.48596 1.55266 1.55267 1.62560
 1.62919 1.63403 1.71099 1.72817 1.74768 1.74769 1.81472 1.81492 1.85403 1.86962
 2.03560 2.03604 2.08696 2.14515 2.14543 2.25072 2.28725 2.35051 2.35818 2.41703
 2.41706 2.44993 2.52060 2.52121 2.55598 2.55635 2.72696 2.74576 2.80022 2.80058
 2.87329 2.87366 2.93815 2.94981 2.97373 2.99740 3.03404 3.03417 3.06618 3.11147
 3.22735 3.23008 3.23042 3.30476 3.30498 3.30989 3.44847 3.45084 3.48960 3.49414
 3.56040 3.56095 3.58143 3.68960 3.73190 3.73472 3.92822 3.92877 3.98045 4.15050
 4.27707 4.27784 4.31276 4.38307 4.61330 4.61734 8.14397 8.52965 8.54090 8.54122
 9.86406 9.87157 13.37628 13.38638
 == 725-th k-point (0.06804,0.06804,0.47625) occupation: 14==
 -65.00567 -65.00567 -4.62780 -4.62771 -3.03969 -3.03968 -3.03941 -3.03919 -3.03896 -3.03895
 -0.06685 0.05292 0.15887 0.17978 0.31177 0.35152 0.55605 0.55797 0.69651 0.70156
 0.71711 0.72198 0.82117 0.83316 0.86274 0.92432 0.94529 0.99503 1.08119 1.13632
 1.15925 1.18386 1.21020 1.28018 1.35767 1.36011 1.44277 1.51441 1.53061 1.57724
 1.63248 1.66024 1.70711 1.73226 1.75032 1.79118 1.81919 1.85271 1.86295 1.93046
 1.97599 2.04819 2.06318 2.15523 2.17507 2.19716 2.20593 2.36417 2.38411 2.39252
 2.43589 2.43878 2.52926 2.53540 2.60221 2.60442 2.66294 2.76904 2.81507 2.83652
 2.85825 2.88820 2.89276 2.92574 2.94458 2.98853 3.00610 3.02313 3.08668 3.17222
 3.23344 3.23507 3.25636 3.33310 3.33592 3.36167 3.40624 3.44482 3.52707 3.52813
 3.54820 3.55624 3.60143 3.68029 3.70903 3.75478 3.88930 3.90975 3.94929 4.12555
 4.16419 4.23413 4.28914 4.35499 4.60678 4.61941 8.05873 8.31390 8.35610 8.78773
 10.23932 10.35401 13.24497 13.47268
 == 726-th k-point (0.13607,0.13607,0.40822) occupation: 14==
 -65.00567 -65.00567 -4.62782 -4.62769 -3.03968 -3.03967 -3.03947 -3.03915 -3.03897 -3.03894
 -0.08216 0.06125 0.16296 0.19682 0.33684 0.43113 0.47119 0.48554 0.66673 0.68459
 0.70342 0.71769 0.76043 0.86123 0.90890 0.97401 0.98609 1.00237 1.07650 1.11887
 1.20078 1.25081 1.26338 1.27913 1.35568 1.39888 1.41147 1.43342 1.51197 1.56935
 1.62024 1.62228 1.66646 1.68418 1.73120 1.79662 1.90202 1.93030 1.94264 1.95109
 2.00648 2.04292 2.06163 2.12814 2.13762 2.14502 2.25896 2.34004 2.35326 2.38138
 2.43885 2.47019 2.50303 2.56825 2.61521 2.63817 2.66978 2.74918 2.79119 2.80099
 2.82122 2.86393 2.89387 2.91767 2.97469 3.03503 3.05060 3.06607 3.10850 3.12451
 3.17558 3.24584 3.31379 3.32630 3.34266 3.37726 3.38626 3.44242 3.51747 3.51842
 3.56990 3.63049 3.65652 3.69467 3.74143 3.79798 3.81949 3.85619 3.86438 4.02538
 4.06667 4.17698 4.26207 4.31412 4.56969 4.57787 8.01343 8.25537 8.25584 9.05409
 9.99761 10.29071 13.07207 14.14208
 == 727-th k-point (0.20411,0.20411,0.34018) occupation: 14==
 -65.00568 -65.00567 -4.62783 -4.62768 -3.03967 -3.03965 -3.03952 -3.03910 -3.03898 -3.03894
 -0.08764 0.04360 0.20307 0.21807 0.35775 0.40186 0.42808 0.52698 0.60647 0.66176
 0.68460 0.72035 0.74860 0.84951 0.91827 0.96061 1.01983 1.09692 1.11273 1.15980
 1.19244 1.21040 1.30089 1.31777 1.33294 1.39920 1.42142 1.43872 1.48355 1.51309
 1.55589 1.61120 1.68120 1.72239 1.74312 1.79689 1.85750 1.90986 1.96406 1.98890
 1.99255 2.07359 2.10439 2.17404 2.17801 2.24961 2.25177 2.31542 2.32732 2.40020
 2.40719 2.40782 2.53908 2.57524 2.62947 2.64152 2.75420 2.77129 2.77618 2.79435
 2.79682 2.86888 2.87017 2.91174 2.94285 3.01580 3.05314 3.07002 3.09162 3.12304
 3.14526 3.21379 3.27731 3.28074 3.38982 3.43077 3.44652 3.49320 3.54018 3.55563
 3.57413 3.64876 3.65790 3.70618 3.74591 3.76622 3.81984 3.84546 3.94976 3.96297
 4.03702 4.13102 4.22480 4.34697 4.51298 4.52606 8.04046 8.26386 8.29389 9.33188
 9.93865 9.97402 12.51853 14.66631
 == 728-th k-point (0.27214,0.27214,0.27214) occupation: 14==
 -65.00568 -65.00566 -4.62783 -4.62768 -3.03966 -3.03966 -3.03954 -3.03907 -3.03896 -3.03896
 -0.08417 0.02754 0.23145 0.23145 0.33441 0.40080 0.40080 0.55972 0.64075 0.64075
 0.67344 0.73060 0.73060 0.77149 0.94611 1.03525 1.03525 1.07442 1.14324 1.14324
 1.20907 1.26454 1.26454 1.30978 1.30978 1.38175 1.41345 1.48967 1.48967 1.50977
 1.50977 1.58455 1.63244 1.66530 1.87210 1.87210 1.88869 1.90036 1.90036 1.92100
 2.07375 2.07375 2.15874 2.22296 2.22296 2.26979 2.26979 2.27564 2.34494 2.34494
 2.42632 2.42632 2.59047 2.59047 2.59229 2.64914 2.77059 2.79664 2.80152 2.80686
 2.80686 2.80730 2.80730 2.87172 2.98693 3.02780 3.05495 3.05495 3.09968 3.09968
 3.15193 3.15193 3.28582 3.28582 3.31244 3.46774 3.46774 3.54809 3.54926 3.54926
 3.55909 3.68733 3.68733 3.69034 3.74413 3.76400 3.90840 3.90840 3.98814 3.98814
 4.12016 4.12016 4.12511 4.36250 4.46104 4.46104 8.22358 8.22358 8.25549 9.58770
 9.58770 10.01179 11.94981 14.75064
 ---------------------------------------------------------------------------
 VBM is at 364-th k-point with 7.49121 eV
 CBM is at 36-th k-point with 8.09754 eV
 Band gap is 0.60633 eV


           Ground-State Mulliken Net Atomic Charges

      Atom                 Charge (a.u.)          Spin (a.u.)
   --------------------------------------------------------
      1 Si              (-0.000000,-0.000000)    (0.000000,0.000000)
      2 Si                (0.000000,0.000000)    (0.000000,0.000000)
   --------------------------------------------------------
  Sum of atomic charges =      (-0.000000,0.000000)
  Sum of spin   charges =       (0.000000,0.000000)



 Total job time:  822.43 s.
 Tue Sep  9 04:49:15 2025


        *************************************************************
        *                                                           *
        *  Thank you very much for using QCPBC. Have a nice day.    *
        *                                                           *
        *************************************************************

Running job 1 of 1
