                  Welcome to Q-Chem
           with Periodic Boundary Condition
     A Quantum Leap Into The Future Of Chemistry

 Adam Rettig, Xintian Feng, Meng-Fu Chen, Hieu Dinh, Stephen Quiton,
 Anton Ni, Paul J. Robinson, Jinghong Zhang, Joonho Lee

Contributors to earlier versions of Q-Chem not listed above:
 Evgeny Epifanovsky, Leo Cunha, Jerome F. Gonthier, Kuan-Yu Liu
 Input file: /n/netscratch/joonholee_lab/Lab/hieudinh//si_2_ccpvqz_omega_0.9_222.scratch20250909025758/si_2_ccpvqz_omega_0.9_222.0
 Scratch folder: /n/netscratch/joonholee_lab/Lab/hieudinh//si_2_ccpvqz_omega_0.9_222.scratch20250909025758
 Auxillary files located at: /n/holylabs/LABS/joonholee_lab/Lab/qchem_base/qcaux
 Q-Chem begins on Tue Sep  9 02:57:59 2025

 -------------------------------------------------------------
 User input:
 -------------------------------------------------------------
 $lattice
 3
 0.000000 5.130600 5.130600
 5.130600 0.000000 5.130600
 5.130600 5.130600 0.000000
 $end
 
 $unitcell
 ABSOLUTE
 0 1
 Si 0.000000 0.000000 0.000000
 Si 2.565300 2.565300 2.565300
 $end
 
 $rem
 jobtype = sp
 method = pbe
 scf_convergence = 5
 scf_guess = autosad
 scf_algorithm = diis_gdm
 basis = cc-pvqz
 aux_basis = cc-pvqz-jk
 input_bohr = true
 symmetry = false
 rsdf_print_level 1
 is_basis_uctr true
 
 mp_mesh = [2,2,2]
 
 integral_direct true
 bvk_cgto true
 
 thresh 14
 mem_total 1000000
 threads 32
 
 MAX_SCF_CYCLES 500
 madelung = false
 omega 0.9
 do_rij_bigmem true
 automate_g true
 print_level 10
 grid_type_xc 1
 
 thresh_1e2c_sp 1e-14
 thresh_2e3c_bra_ket_sep 1e-10
 thresh_g 1e-12
 $end
 
 -------------------------------------------------------------
 Running PBC job

 Requested Exchange Correlation Functionals: 
  DFT Exchange:  1.00000 pbe_x
  DFT Correlation:  1.00000 pbe_c
 using 32 threads for computing.
 ---------------------------------------------------------------
      Coordinates of Atoms in Central Unit Cell (Angstroms)
    I     Atom         X            Y            Z
 ---------------------------------------------------------------
    1      Si      0.000000     0.000000     0.000000
    2      Si      1.357498     1.357498     1.357498
 ---------------------------------------------------------------
 --------------------------------------------------
              Lattice Vectors (Angstroms)
              X            Y            Z
 --------------------------------------------------
   X       0.000000     2.714997     2.714997
   Y       2.714997     0.000000     2.714997
   Z       2.714997     2.714997     0.000000
 --------------------------------------------------
 --------------------------------------------------
       Reciprocal Lattice Vectors (Angstroms^-1)
              X            Y            Z
 --------------------------------------------------
   X      -1.157126     1.157126     1.157126
   Y       1.157126    -1.157126     1.157126
   Z       1.157126     1.157126    -1.157126
 --------------------------------------------------

 Single point calculation requested

 Hamiltonian contributions:
 List of terms in Hamiltonian: kpts_nn, kpts_kinetic, kpts_vnuc_df, kpts_xc, kpts_rij_bigmem

 K-Points calculation started.

 Basis set information about using solid harmonic (1) or Cartesian (0):
  si : D(1) D(1) D(1) F(1) F(1) G(1) 

 Basis set information about using solid harmonic (1) or Cartesian (0):
  si : D(1) D(1) D(1) D(1) D(1) D(1) D(1) D(1) D(1) F(1) F(1) F(1) F(1) G(1) G(1) H(1) 

 There are 118 basis functions in the central unit cell.
 Print atomic basis of atoms in the central unit cell:
 -------------------------------------------------------------
2 66 134 28

  0.00000000000000e+00  0.00000000000000e+00  0.00000000000000e+00
  2.56530000000000e+00  2.56530000000000e+00  2.56530000000000e+00

  5.13000000000000e+05
  7.68200000000000e+04
  1.74700000000000e+04
  4.93500000000000e+03
  1.60200000000000e+03
  5.74100000000000e+02
  2.21500000000000e+02
  9.05400000000000e+01
  3.87400000000000e+01
  1.69500000000000e+01
  6.45200000000000e+00
  2.87400000000000e+00
  1.25000000000000e+00
  3.59900000000000e-01
  1.69900000000000e-01
  7.06600000000000e-02
  1.12200000000000e+03
  2.66000000000000e+02
  8.59200000000000e+01
  3.23300000000000e+01
  1.33700000000000e+01
  5.80000000000000e+00
  2.55900000000000e+00
  1.12400000000000e+00
  3.98800000000000e-01
  1.53300000000000e-01
  5.72800000000000e-02
  7.60000000000000e-01
  3.02000000000000e-01
  1.20000000000000e-01
  5.41000000000000e-01
  2.12000000000000e-01
  4.61000000000000e-01
  5.13000000000000e+05
  7.68200000000000e+04
  1.74700000000000e+04
  4.93500000000000e+03
  1.60200000000000e+03
  5.74100000000000e+02
  2.21500000000000e+02
  9.05400000000000e+01
  3.87400000000000e+01
  1.69500000000000e+01
  6.45200000000000e+00
  2.87400000000000e+00
  1.25000000000000e+00
  3.59900000000000e-01
  1.69900000000000e-01
  7.06600000000000e-02
  1.12200000000000e+03
  2.66000000000000e+02
  8.59200000000000e+01
  3.23300000000000e+01
  1.33700000000000e+01
  5.80000000000000e+00
  2.55900000000000e+00
  1.12400000000000e+00
  3.98800000000000e-01
  1.53300000000000e-01
  5.72800000000000e-02
  7.60000000000000e-01
  3.02000000000000e-01
  1.20000000000000e-01
  5.41000000000000e-01
  2.12000000000000e-01
  4.61000000000000e-01

  3.56439732356011e-01
  6.67250935594825e-01
  1.15567538346971e+00
  1.89079471139597e+00
  2.92997535092854e+00
  4.25377897422013e+00
  5.53035652706994e+00
  5.88407857713363e+00
  4.26432221020809e+00
  1.46246852660687e+00
  9.90009037975635e-02
 -5.26805361731285e-03
  1.58075269248041e-03
 -9.63604858609034e-02
 -1.80140685379119e-01
 -3.12991611081079e-01
 -5.12013980868736e-01
 -8.03092560139717e-01
 -1.18597193899895e+00
 -1.63453354628192e+00
 -1.94138718043020e+00
 -1.86039340932271e+00
 -9.21642524314205e-01
  4.93552860211257e-01
  9.09065541611183e-01
  3.40430003714153e-01
  4.89002727192571e-02
  9.13245846186842e-02
  1.58921585782757e-01
  2.59526822498432e-01
  4.08347517411705e-01
  6.02266139654795e-01
  8.36774006155092e-01
  9.98775610751853e-01
  9.86583994360998e-01
  5.01500269670235e-01
 -2.91439000418814e-01
 -6.84883633703988e-01
 -4.85138432421684e-01
  3.31166560285492e-01
  1.88605835767988e-01
  9.76765512168845e-02
  4.17977074735086e+00
  5.88843070847456e+00
  7.44317185052013e+00
  8.05001094515016e+00
  6.97099017282640e+00
  4.33955185260449e+00
  1.76355858703549e+00
  3.34437932089088e-01
 -4.09551658476811e+00
 -5.70145272051300e+00
 -7.35388974061730e+00
 -7.93663059323219e+00
 -7.17813870370958e+00
 -4.42768957771269e+00
 -2.05517820096269e+00
 -1.72105843348797e-01
  4.51735295769850e-01
  1.36731249153695e-01
  3.99432914781939e-02
  1.01820035164008e+00
  2.02498404800701e-01
  4.02695370421242e-02
  3.69528803814005e-01
  4.48962571437413e-02
  1.32316184864580e-01
  3.56439732356011e-01
  6.67250935594825e-01
  1.15567538346971e+00
  1.89079471139597e+00
  2.92997535092854e+00
  4.25377897422013e+00
  5.53035652706994e+00
  5.88407857713363e+00
  4.26432221020809e+00
  1.46246852660687e+00
  9.90009037975635e-02
 -5.26805361731285e-03
  1.58075269248041e-03
 -9.63604858609034e-02
 -1.80140685379119e-01
 -3.12991611081079e-01
 -5.12013980868736e-01
 -8.03092560139717e-01
 -1.18597193899895e+00
 -1.63453354628192e+00
 -1.94138718043020e+00
 -1.86039340932271e+00
 -9.21642524314205e-01
  4.93552860211257e-01
  9.09065541611183e-01
  3.40430003714153e-01
  4.89002727192571e-02
  9.13245846186842e-02
  1.58921585782757e-01
  2.59526822498432e-01
  4.08347517411705e-01
  6.02266139654795e-01
  8.36774006155092e-01
  9.98775610751853e-01
  9.86583994360998e-01
  5.01500269670235e-01
 -2.91439000418814e-01
 -6.84883633703988e-01
 -4.85138432421684e-01
  3.31166560285492e-01
  1.88605835767988e-01
  9.76765512168845e-02
  4.17977074735086e+00
  5.88843070847456e+00
  7.44317185052013e+00
  8.05001094515016e+00
  6.97099017282640e+00
  4.33955185260449e+00
  1.76355858703549e+00
  3.34437932089088e-01
 -4.09551658476811e+00
 -5.70145272051300e+00
 -7.35388974061730e+00
 -7.93663059323219e+00
 -7.17813870370958e+00
 -4.42768957771269e+00
 -2.05517820096269e+00
 -1.72105843348797e-01
  4.51735295769850e-01
  1.36731249153695e-01
  3.99432914781939e-02
  1.01820035164008e+00
  2.02498404800701e-01
  4.02695370421242e-02
  3.69528803814005e-01
  4.48962571437413e-02
  1.32316184864580e-01

0 0 0 0 3 3 3
0 0 13 0 26 0 
13 0

0 3 3 13 1 1 1
39 0 
1 0

0 4 4 14 1 1 1
40 0 
1 0

0 5 5 15 1 1 1
41 0 
1 0

0 6 6 16 2 6 6
42 1 50 1 
8 0

0 12 12 24 1 3 3
58 1 
1 0

0 15 15 25 1 3 3
59 1 
1 0

0 18 18 26 1 3 3
60 1 
1 0

0 21 21 27 1 5 6
61 2 
1 1

0 26 26 28 1 5 6
62 2 
1 1

0 31 31 29 1 5 6
63 2 
1 1

0 36 36 30 1 7 10
64 3 
1 1

0 43 43 31 1 7 10
65 3 
1 1

0 50 50 32 1 9 15
66 4 
1 1

1 59 59 33 3 3 3
67 0 80 0 93 0 
13 0

1 62 62 46 1 1 1
106 0 
1 0

1 63 63 47 1 1 1
107 0 
1 0

1 64 64 48 1 1 1
108 0 
1 0

1 65 65 49 2 6 6
109 1 117 1 
8 0

1 71 71 57 1 3 3
125 1 
1 0

1 74 74 58 1 3 3
126 1 
1 0

1 77 77 59 1 3 3
127 1 
1 0

1 80 80 60 1 5 6
128 2 
1 1

1 85 85 61 1 5 6
129 2 
1 1

1 90 90 62 1 5 6
130 2 
1 1

1 95 95 63 1 7 10
131 3 
1 1

1 102 102 64 1 7 10
132 3 
1 1

1 109 109 65 1 9 15
133 4 
1 1

 -------------------------------------------------------------
 Allocate 265256 B from available memory: 1048576000000 B
 There are 2197 image cells after screening.
 There are 2061 image cells for CGTO evaluation after screening.
 Real-Space grid for FFT initialized based on kinetic energy cutoff (eV) = 500.0
 Real-Space grid for FFT: (10,10,10)
 There are 9261 real-space grid points.
 There are 64 batches of real-space grid points. 
 Size of each grid batch is around 128
 Grid for AFT initialized based on kinetic energy cutoff (eV) = 500.0
 Real-Space grid for AFT: (10,10,10)
 There are 9261 real-space grid points.

 There are 5628 atom-centered grid points.

 Spacegroup symmetry group: Fd-3m
 Reducing spacegroup symmetry to symmorphic group: F -4 3 m
 Monkhorst-Pack mesh is [2,2,2]
 There are 8 k points.
kpoints in Bohr
0.0000000000 0.0000000000 0.0000000000
0.3061623059 0.3061623059 -0.3061623059
0.3061623059 -0.3061623059 0.3061623059
0.6123246119 0.0000000000 0.0000000000
-0.3061623059 0.3061623059 0.3061623059
0.0000000000 0.6123246119 0.0000000000
0.0000000000 0.0000000000 0.6123246119
0.3061623059 0.3061623059 0.3061623059
 There are 14 alpha and 14 beta electrons
 Start computing overlap matrix
 Allocate 1782272 B from available memory: 1048575734752 B
 Time for computing overlap matrix: 3.9770000000 s
 ====== Initialize compute kernels for all-electron RI-J (kpts) ====== 
 ========================================================== 
 Range-separated parameter omega        = 0.900000000000000022
 Threshold for 1e2c shellpair           = 0.000000000000010000
 Threshold for 2e2c SR integral         = 0.000000000000000001
 Threshold for 2e3c SR integral         = 0.000000000100000000
 Threshold for AFT G-space screening is = 0.000000000001000000
 The exponent cutoff for C/D classification (omega2 / 2) is  = 0.405000000000000027
 ========================================================== 
 === Post process the basis set for RI calculation (exp_cutoff = 0.405000000000000027 ) === 
nshells_b1 before uncontraction = 28
nshells_b1 after uncontraction = 28
nshells_baux before uncontraction = 80
nshells_baux after uncontraction = 80
===============================================
nbsf total   = 118
nbsf compact = 60
nbsf diffuse = 58
naux total   = 296
naux compact = 296
naux diffuse = 0
nshells_bnuc = 2

 Number of unique atoms is 1
 Unique atom #0 (si) has 5 shells.

Shell 0 to 4 belongs to atom si
Shell 5 to 9 belongs to atom si

 Number of unique atoms is 1
 Unique atom #0 (si) has 9 shells.

Shell 0 to 8 belongs to atom si
Shell 9 to 17 belongs to atom si

 Number of unique atom is 1
 Unique atom #0 (si) has 40 auxiliary shells.

Auxiliary Shell 0 to 39 belongs to atom si
Auxiliary Shell 40 to 79 belongs to atom si

================= Automatically determine grid size for reciprocal space summation =================
 Range-separated parameter = 0.90000000000000 and G-space screening threshold = 0.00000000000100
The number of grid points along each axis dimension is (10, 10, 10)
Total number of grid points = 9261

Use nonortho shellpair for diffuse density
======== Initializing relevant kernel for RIJ (DD type) ========
There are 171 shellpairs in the reference unit cell
There are 3661 images and we expect to have 626031 in total
There are 23126 shellpairs in the lattice sum after screening
======== Initializing relevant kernel for RIJ (CD type) ========
There are 180 shellpairs in the reference unit cell
There are 2395 images and we expect to have 431100 in total
There are 12134 shellpairs in the lattice sum after screening
****** AFT -> SR ******
Maximum bra distance cutoff is 23.000000000000
Maximum bra ket distance cutoff is 20.611302005944
Maximum bra ket screening distance is 19.000000000000
Number of auxiliary image is 551
There are 180 shellpairs in the reference unit cell
There are 551 images and we expect to have 99180 in total
There are 12134 shellpairs in the lattice sum after screening
Available memory per thread for 2e3c calculation is 32.767936015000Gb
Finish initializing 2e3c SR with the lattice sum!
=================================================
======== Initializing relevant kernel for RIJ (CC type) ========
There are 55 shellpairs in the reference unit cell
There are 695 images and we expect to have 38225 in total
There are 694 shellpairs in the lattice sum after screening
****** AFT -> SR ******
Maximum bra distance cutoff is 11.000000000000
Maximum bra ket distance cutoff is 21.062500000000
Maximum bra ket screening distance is 18.718750000000
Number of auxiliary image is 455
There are 55 shellpairs in the reference unit cell
There are 117 images and we expect to have 6435 in total
There are 694 shellpairs in the lattice sum after screening
Available memory per thread for 2e3c calculation is 32.767936015000Gb
Finish initializing 2e3c SR with the lattice sum!
=================================================
======== Initializing the SR component for Vnuc (CD type) ========
Maximum bra distance cutoff is 23.000000000000
Maximum bra ket distance cutoff is 11.920357219976
Maximum bra ket screening distance is 9.960251940080
Number of auxiliary image is 551
There are 180 shellpairs in the reference unit cell
There are 551 images and we expect to have 99180 in total
There are 12134 shellpairs in the lattice sum after screening
Available memory per thread for 2e3c calculation is 32.767936015000Gb
Finish initializing 2e3c SR with the lattice sum!
=================================================
======== Initialize the SR component for Vnuc (CC type) ========
Maximum bra distance cutoff is 11.000000000000
Maximum bra ket distance cutoff is 13.059451665625
Maximum bra ket screening distance is 9.261023449952
Number of auxiliary image is 213
There are 55 shellpairs in the reference unit cell
There are 117 images and we expect to have 6435 in total
There are 694 shellpairs in the lattice sum after screening
Available memory per thread for 2e3c calculation is 32.767936015000Gb
Finish initializing 2e3c SR with the lattice sum!
=================================================
 Aufbau occupation scheme, occupation determined by eigenvalue
 == 0-th k-point nmo = 115 (0.00000,0.00000,0.00000) ==
 == 1-th k-point nmo = 114 (0.30616,0.30616,-0.30616) ==
 == 2-th k-point nmo = 114 (0.30616,-0.30616,0.30616) ==
 == 3-th k-point nmo = 114 (0.61232,0.00000,0.00000) ==
 == 4-th k-point nmo = 114 (-0.30616,0.30616,0.30616) ==
 == 5-th k-point nmo = 114 (0.00000,0.61232,0.00000) ==
 == 6-th k-point nmo = 114 (0.00000,0.00000,0.61232) ==
 == 7-th k-point nmo = 114 (0.30616,0.30616,0.30616) ==

 Generate autoSAD guess
backing up fragment data
Atom # 0: si, charge: 0, multiplicity: 3.000000
writing autosad to fragment context
Settings for isolated fragments: 
  frgm_gamma: TRUE
  frgm_center: FALSE

    Running SCF for isolated atom #0
    Fragment Input file: /n/netscratch/joonholee_lab/Lab/hieudinh//si_2_ccpvqz_omega_0.9_222.scratch20250909025758/autosad_frgmt_0/frgmt_input.in
    Fragment Output file: /n/netscratch/joonholee_lab/Lab/hieudinh//si_2_ccpvqz_omega_0.9_222.scratch20250909025758/autosad_frgmt_0/frgmt_job.out
    Fragment job begins at Tue Sep  9 02:58:04 2025

 Integrated density by DFT XC:
   Numerical integral  =    13.999999643759
   Relative error      =     0.0000025446 %
Final energy components:
 DFT Correlation            Energy =  -0.48370207231610
 DFT Exchange               Energy = -20.13940840112200
 Kinetic (alpha)            Energy = 145.05483363964714
 Kinetic (beta)             Energy = 143.11842945473200
 Nuclear Attraction (alpha) Energy = -351.06191315317807
 Nuclear Attraction (beta)  Energy = -337.54515075030258
 Nuclear Repulsion          Energy =   0.00000000000000
 SEOQF                      Energy =  -0.00000000010144
 Total Coulomb              Energy = 131.82731983024340
----------------------------------------------
    SCF Energy: -289.2295914524
   Total fragment job time:  0.59 s.
restoring fragment data

 ------------------------------------------------------------------------
 Allocate 5552096 B from available memory: 1048573952480 B
 Time for generating SCF guess: 0.61 s

 Allocate 97424 B from available memory: 1048568400384 B
 Selected algorithms for each term:
  kpts_kinetic -> @0x153668914680
  kpts_nn -> @0x153668914800
  kpts_rij_bigmem -> @0x1536689143e0
  kpts_vnuc_df -> @0x153668914380
  kpts_xc -> @0x1536689142c0
 Time for computing kinetic matrix is 3.83 s
Start calculating Vnuc DD type!
Start calculating Vnuc CD type!
Start calculating Vnuc CC type!
 Time for computing nuclear attraction matrix is 8.54 s
Compute (P|Q) and use solve on the fly!
Maximum distance between P and Q is 28.44997180930993
Number of images for (P|Qn) is 887
 Time for computing 2e2c SR integral is 0.11 s
Maximum dynamic memory per thread for 2e3c SR integrals: 0.013 GiB
Batch size for basis function pair is 3480 out of 3480
 === bvk cell = 0 has 100.000 % of the basis function pairs === 
 === bvk cell = 1 has 100.000 % of the basis function pairs === 
 === bvk cell = 2 has 100.000 % of the basis function pairs === 
 === bvk cell = 3 has 100.000 % of the basis function pairs === 
 === bvk cell = 4 has 100.000 % of the basis function pairs === 
 === bvk cell = 5 has 100.000 % of the basis function pairs === 
 === bvk cell = 6 has 100.000 % of the basis function pairs === 
 === bvk cell = 7 has 98.448 % of the basis function pairs === 
Static memory requirement for 2e3c SR integrals: 0.061 GB
There are 1 munu batches for computing 2e3c SR integrals with latsum
There are 5 Q batches for computing 2e3c SR integrals with latsum
 Time for computing 2e3c SR integral (CD) is 1.70 s
Maximum dynamic memory per thread for 2e3c SR integrals: 0.007 GiB
Batch size for basis function pair is 2000 out of 2000
 === bvk cell = 0 has 100.000 % of the basis function pairs === 
 === bvk cell = 1 has 97.300 % of the basis function pairs === 
 === bvk cell = 2 has 97.300 % of the basis function pairs === 
 === bvk cell = 3 has 88.750 % of the basis function pairs === 
 === bvk cell = 4 has 97.300 % of the basis function pairs === 
 === bvk cell = 5 has 88.750 % of the basis function pairs === 
 === bvk cell = 6 has 88.750 % of the basis function pairs === 
 === bvk cell = 7 has 60.250 % of the basis function pairs === 
Static memory requirement for 2e3c SR integrals: 0.032 GB
There are 1 munu batches for computing 2e3c SR integrals with latsum
There are 5 Q batches for computing 2e3c SR integrals with latsum
 Time for computing 2e3c SR integral (CC) is 0.38 s
 Time for RI-J this SCF iteration is 4.22 s
 Time for RI-J this SCF iteration is 2.08 s
 ----------------------------------------------
 Guess energy: -578.6867492444
 ----------------------------------------------
 Guess energy components:
 DFT Correlation    Energy =  -1.08811156517595
 DFT Exchange       Energy = -40.64269904893327
 Kinetic            Energy = 577.90491525050322
 Nuclear Attraction Energy = -1187.31200640111456
 Nuclear Repulsion  Energy = -102.89365928466421
 Total Coulomb      Energy = 175.34481180495544
 ----------------------------------------------
  Cycle       Energy         DIIS error
 ----------------------------------------------
 Time for RI-J this SCF iteration is 2.02 s
    1    -578.6995902282      1.70e-03  
 Energy components after cycle 1:
 DFT Correlation    Energy =  -1.09276375890070
 DFT Exchange       Energy = -40.50450228095681
 Kinetic            Energy = 576.54071623374455
 Nuclear Attraction Energy = -1184.49265372949003
 Nuclear Repulsion  Energy = -102.89365928466421
 Total Coulomb      Energy = 173.74327259206504
    2    -578.6995902282      7.48e-04  
 Energy components after cycle 2:
 DFT Correlation    Energy =  -1.09276375890070
 DFT Exchange       Energy = -40.50450228095681
 Kinetic            Energy = 576.54071623374455
 Nuclear Attraction Energy = -1184.49265372949003
 Nuclear Repulsion  Energy = -102.89365928466421
 Total Coulomb      Energy = 173.74327259206504
 ----------------------------------------------
  Cycle       Energy        RMS Gradient
 ----------------------------------------------
 Time for RI-J this SCF iteration is 2.03 s
    1    -578.7008605954      2.94e-02   Normal BFGS step
 Energy components after cycle 1:
 DFT Correlation    Energy =  -1.09153212374138
 DFT Exchange       Energy = -40.56692330660170
 Kinetic            Energy = 577.23480511195419
 Nuclear Attraction Energy = -1185.76528614550284
 Nuclear Repulsion  Energy = -102.89365928466421
 Total Coulomb      Energy = 174.38173515318184
 Time for RI-J this SCF iteration is 2.00 s
    2    -578.7011562441      1.30e-02   Normal BFGS step
 Energy components after cycle 2:
 DFT Correlation    Energy =  -1.09175708524915
 DFT Exchange       Energy = -40.54822549401061
 Kinetic            Energy = 577.01602222531596
 Nuclear Attraction Energy = -1185.38196787202037
 Nuclear Repulsion  Energy = -102.89365928466421
 Total Coulomb      Energy = 174.19843126654285
 Time for RI-J this SCF iteration is 2.00 s
    3    -578.7011571054      7.58e-04   Normal BFGS step
 Energy components after cycle 3:
 DFT Correlation    Energy =  -1.09179902384163
 DFT Exchange       Energy = -40.54741119739609
 Kinetic            Energy = 577.00942238273979
 Nuclear Attraction Energy = -1185.36654397413463
 Nuclear Repulsion  Energy = -102.89365928466421
 Total Coulomb      Energy = 174.18883399189093
 Time for RI-J this SCF iteration is 2.00 s
    4    -578.7011573672      3.13e-04   Normal BFGS step
 Energy components after cycle 4:
 DFT Correlation    Energy =  -1.09179123306020
 DFT Exchange       Energy = -40.54779265278337
 Kinetic            Energy = 577.01363223440978
 Nuclear Attraction Energy = -1185.37429381490801
 Nuclear Repulsion  Energy = -102.89365928466421
 Total Coulomb      Energy = 174.19274738378417
 Time for RI-J this SCF iteration is 2.00 s
    5    -578.7011573765      1.55e-04   Normal BFGS step
 Energy components after cycle 5:
 DFT Correlation    Energy =  -1.09178668966774
 DFT Exchange       Energy = -40.54787150363496
 Kinetic            Energy = 577.01424248318153
 Nuclear Attraction Energy = -1185.37578973544623
 Nuclear Repulsion  Energy = -102.89365928466421
 Total Coulomb      Energy = 174.19370735373434
 Time for RI-J this SCF iteration is 2.00 s
    6    -578.7011573948      9.26e-05   Normal BFGS step
 Energy components after cycle 6:
 DFT Correlation    Energy =  -1.09178882189756
 DFT Exchange       Energy = -40.54778995933543
 Kinetic            Energy = 577.01338857475639
 Nuclear Attraction Energy = -1185.37415659024873
 Nuclear Repulsion  Energy = -102.89365928466421
 Total Coulomb      Energy = 174.19284868655546
 Time for RI-J this SCF iteration is 2.02 s
    7    -578.7011573949      3.64e-06   Normal BFGS step
 Energy components after cycle 7:
 DFT Correlation    Energy =  -1.09178902129973
 DFT Exchange       Energy = -40.54779723367495
 Kinetic            Energy = 577.01349928722186
 Nuclear Attraction Energy = -1185.37431632589482
 Nuclear Repulsion  Energy = -102.89365928466421
 Total Coulomb      Energy = 174.19290518344272
    7    -578.7011573949      3.64e-06  Convergence criterion met
 ----------------------------------------------
 Final energy components:
 DFT Correlation    Energy =  -1.09178902129973
 DFT Exchange       Energy = -40.54779723367495
 Kinetic            Energy = 577.01349928722186
 Nuclear Attraction Energy = -1185.37431632589482
 Nuclear Repulsion  Energy = -102.89365928466421
 Total Coulomb      Energy = 174.19290518344272
 ----------------------------------------------
 Final energy is -578.7011573949

 SCF time:   CPU 1420.93s  wall 53.00s 
 Total wall time for computing Kinetic: 0.00 s (10)
 Total wall time for computing RIJ-BIGMEM: 22.36 s (10)
 Total wall time for computing RSDF Vnuc: 0.00 s (10)
 Total wall time for computing DFT XC: 11.72 s (10)
 ---------------------------------------------------------------------------
                        Orbital Energies (a.u.)
 ---------------------------------------------------------------------------
 == 0-th k-point (0.00000,0.00000,0.00000) occupation: 14==
 -64.98526 -64.98525 -4.60979 -4.60950 -3.02123 -3.02123 -3.02123 -3.02062 -3.02062 -3.02062
 -0.15525 0.28623 0.28623 0.28623 0.37670 0.37670 0.37670 0.41252 0.57204 0.57204
 0.57647 0.69503 0.69503 0.69503 0.85059 1.15252 1.15273 1.15273 1.19632 1.19632
 1.24415 1.24415 1.24416 1.35994 1.35994 1.35994 1.59889 1.59889 1.59896 1.74119
 1.74119 1.81642 1.81642 1.83538 1.84581 1.84749 1.84749 1.90918 1.90919 1.90919
 1.93228 1.94004 1.94004 1.94005 1.95152 1.95218 1.95218 2.15234 2.30065 2.30065
 2.30065 2.31885 2.33484 2.33484 2.40155 2.40155 2.40243 2.50936 2.89958 2.95832
 2.95832 2.95833 2.98842 2.98842 3.14130 3.14762 3.14762 3.18737 3.18737 3.18738
 3.19718 3.19718 3.34545 3.34552 3.34552 3.41574 3.41574 3.49148 3.49148 3.49148
 3.55557 3.55557 3.57023 3.64452 3.64452 3.64487 3.69425 3.69622 3.69622 4.08708
 4.25699 4.25699 4.25708 4.40092 4.40092 4.40180 4.44426 7.42414 7.42500 7.42500
 7.57215 7.57215 7.57255 11.13696 12.58035
 == 1-th k-point (0.30616,0.30616,-0.30616) occupation: 14==
 -64.98527 -64.98525 -4.60971 -4.60957 -3.02130 -3.02130 -3.02118 -3.02071 -3.02059 -3.02059
 -0.06855 0.02704 0.24050 0.24050 0.34279 0.40577 0.40577 0.56587 0.67983 0.67983
 0.70232 0.70232 0.70528 0.76435 1.01165 1.02284 1.09759 1.09759 1.10186 1.10191
 1.25036 1.26726 1.26727 1.31782 1.31784 1.36230 1.42297 1.49837 1.49848 1.50788
 1.50796 1.59381 1.62752 1.66142 1.88594 1.88595 1.89582 1.91495 1.91508 1.92680
 2.13675 2.13696 2.20267 2.20383 2.20418 2.25640 2.27662 2.27846 2.33726 2.33881
 2.46914 2.46984 2.56519 2.56630 2.60992 2.69104 2.75839 2.78223 2.78259 2.80314
 2.82480 2.82621 2.83436 2.92965 2.95916 2.97149 3.10576 3.10617 3.10745 3.10779
 3.20049 3.20060 3.21854 3.22059 3.32531 3.47380 3.47462 3.56044 3.56332 3.56452
 3.57253 3.67227 3.68103 3.70009 3.73928 3.77138 3.94061 3.94228 4.00860 4.01326
 4.14114 4.15476 4.15720 4.34796 4.44908 4.45053 8.26718 8.27107 8.34197 9.37474
 9.37620 10.01761 11.96537 14.73624
 == 2-th k-point (0.30616,-0.30616,0.30616) occupation: 14==
 -64.98527 -64.98525 -4.60971 -4.60957 -3.02130 -3.02130 -3.02118 -3.02071 -3.02059 -3.02059
 -0.06855 0.02704 0.24050 0.24050 0.34279 0.40577 0.40577 0.56587 0.67983 0.67983
 0.70232 0.70232 0.70528 0.76435 1.01165 1.02284 1.09759 1.09759 1.10186 1.10191
 1.25036 1.26726 1.26727 1.31782 1.31784 1.36230 1.42297 1.49837 1.49848 1.50788
 1.50796 1.59381 1.62752 1.66142 1.88594 1.88595 1.89582 1.91495 1.91508 1.92680
 2.13675 2.13696 2.20267 2.20383 2.20418 2.25640 2.27662 2.27846 2.33726 2.33881
 2.46914 2.46984 2.56519 2.56630 2.60992 2.69104 2.75839 2.78223 2.78259 2.80314
 2.82480 2.82621 2.83436 2.92965 2.95916 2.97149 3.10576 3.10617 3.10745 3.10779
 3.20049 3.20060 3.21854 3.22059 3.32531 3.47380 3.47462 3.56044 3.56332 3.56452
 3.57253 3.67227 3.68103 3.70009 3.73928 3.77138 3.94061 3.94228 4.00860 4.01326
 4.14114 4.15476 4.15720 4.34796 4.44908 4.45053 8.26718 8.27107 8.34197 9.37474
 9.37620 10.01761 11.96537 14.73624
 == 3-th k-point (0.61232,0.00000,0.00000) occupation: 14==
 -64.98526 -64.98526 -4.60964 -4.60964 -3.02133 -3.02133 -3.02094 -3.02094 -3.02058 -3.02058
 -0.00201 -0.00201 0.17806 0.17806 0.30907 0.30907 0.65683 0.65683 0.69820 0.69820
 0.75023 0.75023 0.76670 0.76670 0.98818 0.98818 1.00904 1.00905 1.02785 1.02785
 1.07587 1.07587 1.24935 1.24936 1.38382 1.38385 1.55023 1.55024 1.58973 1.58974
 1.63775 1.63775 1.69817 1.69817 1.75124 1.75127 1.83762 1.83794 1.86260 1.86266
 2.08892 2.08967 2.10546 2.10552 2.19613 2.19613 2.31531 2.31536 2.44037 2.44040
 2.46093 2.46095 2.51530 2.51531 2.52950 2.53056 2.74651 2.74651 2.78674 2.78688
 2.87570 2.87624 2.99851 2.99852 3.01718 3.01720 3.03417 3.03417 3.08987 3.09002
 3.24372 3.24386 3.25865 3.25878 3.27222 3.27226 3.46233 3.46573 3.50101 3.50115
 3.56827 3.56835 3.65167 3.65168 3.73747 3.73755 3.94403 3.94477 4.07731 4.07750
 4.29907 4.29962 4.36708 4.36746 4.62095 4.62553 8.33045 8.33046 8.63680 8.63690
 9.66959 9.67755 13.42591 13.42610
 == 4-th k-point (-0.30616,0.30616,0.30616) occupation: 14==
 -64.98527 -64.98525 -4.60971 -4.60957 -3.02130 -3.02130 -3.02118 -3.02071 -3.02059 -3.02059
 -0.06855 0.02704 0.24050 0.24050 0.34279 0.40577 0.40577 0.56587 0.67983 0.67983
 0.70232 0.70232 0.70528 0.76435 1.01165 1.02284 1.09759 1.09759 1.10186 1.10191
 1.25036 1.26726 1.26727 1.31782 1.31784 1.36230 1.42297 1.49837 1.49848 1.50788
 1.50796 1.59381 1.62752 1.66142 1.88594 1.88595 1.89582 1.91495 1.91508 1.92680
 2.13675 2.13696 2.20267 2.20383 2.20418 2.25640 2.27662 2.27846 2.33726 2.33881
 2.46914 2.46984 2.56519 2.56630 2.60992 2.69104 2.75839 2.78223 2.78259 2.80314
 2.82480 2.82621 2.83436 2.92965 2.95916 2.97149 3.10576 3.10617 3.10745 3.10779
 3.20049 3.20060 3.21854 3.22059 3.32531 3.47380 3.47462 3.56044 3.56332 3.56452
 3.57253 3.67227 3.68103 3.70009 3.73928 3.77138 3.94061 3.94228 4.00860 4.01326
 4.14114 4.15476 4.15720 4.34796 4.44908 4.45053 8.26718 8.27107 8.34197 9.37474
 9.37620 10.01761 11.96537 14.73624
 == 5-th k-point (0.00000,0.61232,0.00000) occupation: 14==
 -64.98526 -64.98526 -4.60964 -4.60964 -3.02133 -3.02133 -3.02094 -3.02094 -3.02058 -3.02058
 -0.00201 -0.00201 0.17806 0.17806 0.30907 0.30907 0.65683 0.65683 0.69820 0.69820
 0.75023 0.75023 0.76670 0.76670 0.98818 0.98818 1.00904 1.00905 1.02785 1.02785
 1.07587 1.07587 1.24935 1.24936 1.38382 1.38385 1.55023 1.55024 1.58973 1.58974
 1.63775 1.63775 1.69817 1.69817 1.75124 1.75127 1.83762 1.83794 1.86260 1.86266
 2.08892 2.08967 2.10546 2.10552 2.19613 2.19613 2.31531 2.31536 2.44037 2.44040
 2.46093 2.46095 2.51530 2.51531 2.52950 2.53056 2.74651 2.74651 2.78674 2.78688
 2.87570 2.87624 2.99851 2.99852 3.01718 3.01720 3.03417 3.03417 3.08987 3.09002
 3.24372 3.24386 3.25865 3.25878 3.27222 3.27226 3.46233 3.46573 3.50101 3.50115
 3.56827 3.56835 3.65167 3.65168 3.73747 3.73755 3.94403 3.94477 4.07731 4.07750
 4.29907 4.29962 4.36708 4.36746 4.62095 4.62553 8.33045 8.33046 8.63680 8.63690
 9.66959 9.67755 13.42591 13.42610
 == 6-th k-point (0.00000,0.00000,0.61232) occupation: 14==
 -64.98526 -64.98526 -4.60964 -4.60964 -3.02133 -3.02133 -3.02094 -3.02094 -3.02058 -3.02058
 -0.00201 -0.00201 0.17806 0.17806 0.30907 0.30907 0.65683 0.65683 0.69820 0.69820
 0.75023 0.75023 0.76670 0.76670 0.98818 0.98818 1.00904 1.00905 1.02785 1.02785
 1.07587 1.07587 1.24935 1.24936 1.38382 1.38385 1.55023 1.55024 1.58973 1.58974
 1.63775 1.63775 1.69817 1.69817 1.75124 1.75127 1.83762 1.83794 1.86260 1.86266
 2.08892 2.08967 2.10546 2.10552 2.19613 2.19613 2.31531 2.31536 2.44037 2.44040
 2.46093 2.46095 2.51530 2.51531 2.52950 2.53056 2.74651 2.74651 2.78674 2.78688
 2.87570 2.87624 2.99851 2.99852 3.01718 3.01720 3.03417 3.03417 3.08987 3.09002
 3.24372 3.24386 3.25865 3.25878 3.27222 3.27226 3.46233 3.46573 3.50101 3.50115
 3.56827 3.56835 3.65167 3.65168 3.73747 3.73755 3.94403 3.94477 4.07731 4.07750
 4.29907 4.29962 4.36708 4.36746 4.62095 4.62553 8.33045 8.33046 8.63680 8.63690
 9.66959 9.67755 13.42591 13.42610
 == 7-th k-point (0.30616,0.30616,0.30616) occupation: 14==
 -64.98527 -64.98525 -4.60971 -4.60957 -3.02130 -3.02130 -3.02118 -3.02071 -3.02059 -3.02059
 -0.06855 0.02704 0.24050 0.24050 0.34279 0.40577 0.40577 0.56587 0.67984 0.67984
 0.70232 0.70232 0.70528 0.76435 1.01165 1.02283 1.09759 1.09759 1.10191 1.10191
 1.25028 1.26727 1.26727 1.31784 1.31784 1.36223 1.42297 1.49847 1.49847 1.50796
 1.50796 1.59379 1.62751 1.66138 1.88595 1.88595 1.89586 1.91510 1.91510 1.92674
 2.13697 2.13697 2.20261 2.20418 2.20418 2.25633 2.27820 2.27820 2.33891 2.33891
 2.46978 2.46978 2.56634 2.56634 2.60990 2.69102 2.75806 2.78258 2.78258 2.80311
 2.82626 2.82626 2.83436 2.92953 2.95920 2.97149 3.10619 3.10619 3.10774 3.10774
 3.20061 3.20061 3.22050 3.22050 3.32524 3.47459 3.47459 3.56045 3.56431 3.56431
 3.57253 3.68152 3.68152 3.69869 3.73926 3.77161 3.94235 3.94235 4.01323 4.01323
 4.14076 4.15717 4.15717 4.34744 4.45055 4.45055 8.27118 8.27118 8.34189 9.37617
 9.37617 10.01644 11.96527 14.73506
 ---------------------------------------------------------------------------
 VBM is at 0-th k-point with 7.78866 eV
 CBM is at 3-th k-point with 8.41017 eV
 Band gap is 0.62151 eV


           Ground-State Mulliken Net Atomic Charges

      Atom                 Charge (a.u.)          Spin (a.u.)
   --------------------------------------------------------
      1 Si               (0.000000,-0.000000)    (0.000000,0.000000)
      2 Si               (-0.000000,0.000000)    (0.000000,0.000000)
   --------------------------------------------------------
  Sum of atomic charges =       (0.000000,0.000000)
  Sum of spin   charges =       (0.000000,0.000000)



 Total job time:  53.59 s.
 Tue Sep  9 02:58:52 2025


        *************************************************************
        *                                                           *
        *  Thank you very much for using QCPBC. Have a nice day.    *
        *                                                           *
        *************************************************************

Running job 1 of 1
