                  Welcome to Q-Chem
           with Periodic Boundary Condition
     A Quantum Leap Into The Future Of Chemistry

 Adam Rettig, Xintian Feng, Meng-Fu Chen, Hieu Dinh, Stephen Quiton,
 Anton Ni, Paul J. Robinson, Jinghong Zhang, Joonho Lee

Contributors to earlier versions of Q-Chem not listed above:
 Evgeny Epifanovsky, Leo Cunha, Jerome F. Gonthier, Kuan-Yu Liu
 Input file: /n/netscratch/joonholee_lab/Lab/hieudinh//si_2_ccpvqz_omega_0.3_888.scratch20250909033849/si_2_ccpvqz_omega_0.3_888.0
 Scratch folder: /n/netscratch/joonholee_lab/Lab/hieudinh//si_2_ccpvqz_omega_0.3_888.scratch20250909033849
 Auxillary files located at: /n/holylabs/LABS/joonholee_lab/Lab/qchem_base/qcaux
 Q-Chem begins on Tue Sep  9 03:38:49 2025

 -------------------------------------------------------------
 User input:
 -------------------------------------------------------------
 $lattice
 3
 0.000000 5.130600 5.130600
 5.130600 0.000000 5.130600
 5.130600 5.130600 0.000000
 $end
 
 $unitcell
 ABSOLUTE
 0 1
 Si 0.000000 0.000000 0.000000
 Si 2.565300 2.565300 2.565300
 $end
 
 $rem
 jobtype = sp
 method = pbe
 scf_convergence = 5
 scf_guess = autosad
 scf_algorithm = diis_gdm
 basis = cc-pvqz
 aux_basis = cc-pvqz-jk
 input_bohr = true
 symmetry = false
 rsdf_print_level 1
 is_basis_uctr true
 
 mp_mesh = [8,8,8]
 
 integral_direct true
 bvk_cgto true
 
 thresh 14
 mem_total 1000000
 threads 32
 
 MAX_SCF_CYCLES 500
 madelung = false
 omega 0.3
 do_rij_bigmem true
 automate_g true
 print_level 10
 grid_type_xc 1
 
 thresh_1e2c_sp 1e-14
 thresh_2e3c_bra_ket_sep 1e-10
 thresh_g 1e-12
 $end
 
 -------------------------------------------------------------
 Running PBC job

 Requested Exchange Correlation Functionals: 
  DFT Exchange:  1.00000 pbe_x
  DFT Correlation:  1.00000 pbe_c
 using 32 threads for computing.
 ---------------------------------------------------------------
      Coordinates of Atoms in Central Unit Cell (Angstroms)
    I     Atom         X            Y            Z
 ---------------------------------------------------------------
    1      Si      0.000000     0.000000     0.000000
    2      Si      1.357498     1.357498     1.357498
 ---------------------------------------------------------------
 --------------------------------------------------
              Lattice Vectors (Angstroms)
              X            Y            Z
 --------------------------------------------------
   X       0.000000     2.714997     2.714997
   Y       2.714997     0.000000     2.714997
   Z       2.714997     2.714997     0.000000
 --------------------------------------------------
 --------------------------------------------------
       Reciprocal Lattice Vectors (Angstroms^-1)
              X            Y            Z
 --------------------------------------------------
   X      -1.157126     1.157126     1.157126
   Y       1.157126    -1.157126     1.157126
   Z       1.157126     1.157126    -1.157126
 --------------------------------------------------

 Single point calculation requested

 Hamiltonian contributions:
 List of terms in Hamiltonian: kpts_nn, kpts_kinetic, kpts_vnuc_df, kpts_xc, kpts_rij_bigmem

 K-Points calculation started.

 Basis set information about using solid harmonic (1) or Cartesian (0):
  si : D(1) D(1) D(1) F(1) F(1) G(1) 

 Basis set information about using solid harmonic (1) or Cartesian (0):
  si : D(1) D(1) D(1) D(1) D(1) D(1) D(1) D(1) D(1) F(1) F(1) F(1) F(1) G(1) G(1) H(1) 

 There are 118 basis functions in the central unit cell.
 Print atomic basis of atoms in the central unit cell:
 -------------------------------------------------------------
2 66 134 28

  0.00000000000000e+00  0.00000000000000e+00  0.00000000000000e+00
  2.56530000000000e+00  2.56530000000000e+00  2.56530000000000e+00

  5.13000000000000e+05
  7.68200000000000e+04
  1.74700000000000e+04
  4.93500000000000e+03
  1.60200000000000e+03
  5.74100000000000e+02
  2.21500000000000e+02
  9.05400000000000e+01
  3.87400000000000e+01
  1.69500000000000e+01
  6.45200000000000e+00
  2.87400000000000e+00
  1.25000000000000e+00
  3.59900000000000e-01
  1.69900000000000e-01
  7.06600000000000e-02
  1.12200000000000e+03
  2.66000000000000e+02
  8.59200000000000e+01
  3.23300000000000e+01
  1.33700000000000e+01
  5.80000000000000e+00
  2.55900000000000e+00
  1.12400000000000e+00
  3.98800000000000e-01
  1.53300000000000e-01
  5.72800000000000e-02
  7.60000000000000e-01
  3.02000000000000e-01
  1.20000000000000e-01
  5.41000000000000e-01
  2.12000000000000e-01
  4.61000000000000e-01
  5.13000000000000e+05
  7.68200000000000e+04
  1.74700000000000e+04
  4.93500000000000e+03
  1.60200000000000e+03
  5.74100000000000e+02
  2.21500000000000e+02
  9.05400000000000e+01
  3.87400000000000e+01
  1.69500000000000e+01
  6.45200000000000e+00
  2.87400000000000e+00
  1.25000000000000e+00
  3.59900000000000e-01
  1.69900000000000e-01
  7.06600000000000e-02
  1.12200000000000e+03
  2.66000000000000e+02
  8.59200000000000e+01
  3.23300000000000e+01
  1.33700000000000e+01
  5.80000000000000e+00
  2.55900000000000e+00
  1.12400000000000e+00
  3.98800000000000e-01
  1.53300000000000e-01
  5.72800000000000e-02
  7.60000000000000e-01
  3.02000000000000e-01
  1.20000000000000e-01
  5.41000000000000e-01
  2.12000000000000e-01
  4.61000000000000e-01

  3.56439732356011e-01
  6.67250935594825e-01
  1.15567538346971e+00
  1.89079471139597e+00
  2.92997535092854e+00
  4.25377897422013e+00
  5.53035652706994e+00
  5.88407857713363e+00
  4.26432221020809e+00
  1.46246852660687e+00
  9.90009037975635e-02
 -5.26805361731285e-03
  1.58075269248041e-03
 -9.63604858609034e-02
 -1.80140685379119e-01
 -3.12991611081079e-01
 -5.12013980868736e-01
 -8.03092560139717e-01
 -1.18597193899895e+00
 -1.63453354628192e+00
 -1.94138718043020e+00
 -1.86039340932271e+00
 -9.21642524314205e-01
  4.93552860211257e-01
  9.09065541611183e-01
  3.40430003714153e-01
  4.89002727192571e-02
  9.13245846186842e-02
  1.58921585782757e-01
  2.59526822498432e-01
  4.08347517411705e-01
  6.02266139654795e-01
  8.36774006155092e-01
  9.98775610751853e-01
  9.86583994360998e-01
  5.01500269670235e-01
 -2.91439000418814e-01
 -6.84883633703988e-01
 -4.85138432421684e-01
  3.31166560285492e-01
  1.88605835767988e-01
  9.76765512168845e-02
  4.17977074735086e+00
  5.88843070847456e+00
  7.44317185052013e+00
  8.05001094515016e+00
  6.97099017282640e+00
  4.33955185260449e+00
  1.76355858703549e+00
  3.34437932089088e-01
 -4.09551658476811e+00
 -5.70145272051300e+00
 -7.35388974061730e+00
 -7.93663059323219e+00
 -7.17813870370958e+00
 -4.42768957771269e+00
 -2.05517820096269e+00
 -1.72105843348797e-01
  4.51735295769850e-01
  1.36731249153695e-01
  3.99432914781939e-02
  1.01820035164008e+00
  2.02498404800701e-01
  4.02695370421242e-02
  3.69528803814005e-01
  4.48962571437413e-02
  1.32316184864580e-01
  3.56439732356011e-01
  6.67250935594825e-01
  1.15567538346971e+00
  1.89079471139597e+00
  2.92997535092854e+00
  4.25377897422013e+00
  5.53035652706994e+00
  5.88407857713363e+00
  4.26432221020809e+00
  1.46246852660687e+00
  9.90009037975635e-02
 -5.26805361731285e-03
  1.58075269248041e-03
 -9.63604858609034e-02
 -1.80140685379119e-01
 -3.12991611081079e-01
 -5.12013980868736e-01
 -8.03092560139717e-01
 -1.18597193899895e+00
 -1.63453354628192e+00
 -1.94138718043020e+00
 -1.86039340932271e+00
 -9.21642524314205e-01
  4.93552860211257e-01
  9.09065541611183e-01
  3.40430003714153e-01
  4.89002727192571e-02
  9.13245846186842e-02
  1.58921585782757e-01
  2.59526822498432e-01
  4.08347517411705e-01
  6.02266139654795e-01
  8.36774006155092e-01
  9.98775610751853e-01
  9.86583994360998e-01
  5.01500269670235e-01
 -2.91439000418814e-01
 -6.84883633703988e-01
 -4.85138432421684e-01
  3.31166560285492e-01
  1.88605835767988e-01
  9.76765512168845e-02
  4.17977074735086e+00
  5.88843070847456e+00
  7.44317185052013e+00
  8.05001094515016e+00
  6.97099017282640e+00
  4.33955185260449e+00
  1.76355858703549e+00
  3.34437932089088e-01
 -4.09551658476811e+00
 -5.70145272051300e+00
 -7.35388974061730e+00
 -7.93663059323219e+00
 -7.17813870370958e+00
 -4.42768957771269e+00
 -2.05517820096269e+00
 -1.72105843348797e-01
  4.51735295769850e-01
  1.36731249153695e-01
  3.99432914781939e-02
  1.01820035164008e+00
  2.02498404800701e-01
  4.02695370421242e-02
  3.69528803814005e-01
  4.48962571437413e-02
  1.32316184864580e-01

0 0 0 0 3 3 3
0 0 13 0 26 0 
13 0

0 3 3 13 1 1 1
39 0 
1 0

0 4 4 14 1 1 1
40 0 
1 0

0 5 5 15 1 1 1
41 0 
1 0

0 6 6 16 2 6 6
42 1 50 1 
8 0

0 12 12 24 1 3 3
58 1 
1 0

0 15 15 25 1 3 3
59 1 
1 0

0 18 18 26 1 3 3
60 1 
1 0

0 21 21 27 1 5 6
61 2 
1 1

0 26 26 28 1 5 6
62 2 
1 1

0 31 31 29 1 5 6
63 2 
1 1

0 36 36 30 1 7 10
64 3 
1 1

0 43 43 31 1 7 10
65 3 
1 1

0 50 50 32 1 9 15
66 4 
1 1

1 59 59 33 3 3 3
67 0 80 0 93 0 
13 0

1 62 62 46 1 1 1
106 0 
1 0

1 63 63 47 1 1 1
107 0 
1 0

1 64 64 48 1 1 1
108 0 
1 0

1 65 65 49 2 6 6
109 1 117 1 
8 0

1 71 71 57 1 3 3
125 1 
1 0

1 74 74 58 1 3 3
126 1 
1 0

1 77 77 59 1 3 3
127 1 
1 0

1 80 80 60 1 5 6
128 2 
1 1

1 85 85 61 1 5 6
129 2 
1 1

1 90 90 62 1 5 6
130 2 
1 1

1 95 95 63 1 7 10
131 3 
1 1

1 102 102 64 1 7 10
132 3 
1 1

1 109 109 65 1 9 15
133 4 
1 1

 -------------------------------------------------------------
 Allocate 265256 B from available memory: 1048576000000 B
 There are 2197 image cells after screening.
 There are 2061 image cells for CGTO evaluation after screening.
 Real-Space grid for FFT initialized based on kinetic energy cutoff (eV) = 500.0
 Real-Space grid for FFT: (10,10,10)
 There are 9261 real-space grid points.
 There are 64 batches of real-space grid points. 
 Size of each grid batch is around 128
 Grid for AFT initialized based on kinetic energy cutoff (eV) = 500.0
 Real-Space grid for AFT: (10,10,10)
 There are 9261 real-space grid points.

 There are 5628 atom-centered grid points.

 Spacegroup symmetry group: Fd-3m
 Reducing spacegroup symmetry to symmorphic group: F -4 3 m
 Monkhorst-Pack mesh is [8,8,8]
 There are 512 k points.
kpoints in Bohr
-0.2296217294 -0.2296217294 -0.2296217294
-0.1530811530 -0.1530811530 -0.3061623059
-0.0765405765 -0.0765405765 -0.3827028824
-0.0000000000 -0.0000000000 -0.4592434589
0.0765405765 0.0765405765 -0.5357840354
0.1530811530 0.1530811530 -0.6123246119
0.2296217294 0.2296217294 -0.6888651883
0.3061623059 0.3061623059 -0.7654057648
-0.1530811530 -0.3061623059 -0.1530811530
-0.0765405765 -0.2296217294 -0.2296217294
-0.0000000000 -0.1530811530 -0.3061623059
0.0765405765 -0.0765405765 -0.3827028824
0.1530811530 -0.0000000000 -0.4592434589
0.2296217294 0.0765405765 -0.5357840354
0.3061623059 0.1530811530 -0.6123246119
0.3827028824 0.2296217294 -0.6888651883
-0.0765405765 -0.3827028824 -0.0765405765
-0.0000000000 -0.3061623059 -0.1530811530
0.0765405765 -0.2296217294 -0.2296217294
0.1530811530 -0.1530811530 -0.3061623059
0.2296217294 -0.0765405765 -0.3827028824
0.3061623059 -0.0000000000 -0.4592434589
0.3827028824 0.0765405765 -0.5357840354
0.4592434589 0.1530811530 -0.6123246119
-0.0000000000 -0.4592434589 0.0000000000
0.0765405765 -0.3827028824 -0.0765405765
0.1530811530 -0.3061623059 -0.1530811530
0.2296217294 -0.2296217294 -0.2296217294
0.3061623059 -0.1530811530 -0.3061623059
0.3827028824 -0.0765405765 -0.3827028824
0.4592434589 0.0000000000 -0.4592434589
0.5357840354 0.0765405765 -0.5357840354
0.0765405765 -0.5357840354 0.0765405765
0.1530811530 -0.4592434589 0.0000000000
0.2296217294 -0.3827028824 -0.0765405765
0.3061623059 -0.3061623059 -0.1530811530
0.3827028824 -0.2296217294 -0.2296217294
0.4592434589 -0.1530811530 -0.3061623059
0.5357840354 -0.0765405765 -0.3827028824
0.6123246119 0.0000000000 -0.4592434589
0.1530811530 -0.6123246119 0.1530811530
0.2296217294 -0.5357840354 0.0765405765
0.3061623059 -0.4592434589 0.0000000000
0.3827028824 -0.3827028824 -0.0765405765
0.4592434589 -0.3061623059 -0.1530811530
0.5357840354 -0.2296217294 -0.2296217294
0.6123246119 -0.1530811530 -0.3061623059
0.6888651883 -0.0765405765 -0.3827028824
0.2296217294 -0.6888651883 0.2296217294
0.3061623059 -0.6123246119 0.1530811530
0.3827028824 -0.5357840354 0.0765405765
0.4592434589 -0.4592434589 0.0000000000
0.5357840354 -0.3827028824 -0.0765405765
0.6123246119 -0.3061623059 -0.1530811530
0.6888651883 -0.2296217294 -0.2296217294
0.7654057648 -0.1530811530 -0.3061623059
0.3061623059 -0.7654057648 0.3061623059
0.3827028824 -0.6888651883 0.2296217294
0.4592434589 -0.6123246119 0.1530811530
0.5357840354 -0.5357840354 0.0765405765
0.6123246119 -0.4592434589 0.0000000000
0.6888651883 -0.3827028824 -0.0765405765
0.7654057648 -0.3061623059 -0.1530811530
0.8419463413 -0.2296217294 -0.2296217294
-0.3061623059 -0.1530811530 -0.1530811530
-0.2296217294 -0.0765405765 -0.2296217294
-0.1530811530 -0.0000000000 -0.3061623059
-0.0765405765 0.0765405765 -0.3827028824
-0.0000000000 0.1530811530 -0.4592434589
0.0765405765 0.2296217294 -0.5357840354
0.1530811530 0.3061623059 -0.6123246119
0.2296217294 0.3827028824 -0.6888651883
-0.2296217294 -0.2296217294 -0.0765405765
-0.1530811530 -0.1530811530 -0.1530811530
-0.0765405765 -0.0765405765 -0.2296217294
-0.0000000000 -0.0000000000 -0.3061623059
0.0765405765 0.0765405765 -0.3827028824
0.1530811530 0.1530811530 -0.4592434589
0.2296217294 0.2296217294 -0.5357840354
0.3061623059 0.3061623059 -0.6123246119
-0.1530811530 -0.3061623059 -0.0000000000
-0.0765405765 -0.2296217294 -0.0765405765
-0.0000000000 -0.1530811530 -0.1530811530
0.0765405765 -0.0765405765 -0.2296217294
0.1530811530 -0.0000000000 -0.3061623059
0.2296217294 0.0765405765 -0.3827028824
0.3061623059 0.1530811530 -0.4592434589
0.3827028824 0.2296217294 -0.5357840354
-0.0765405765 -0.3827028824 0.0765405765
-0.0000000000 -0.3061623059 0.0000000000
0.0765405765 -0.2296217294 -0.0765405765
0.1530811530 -0.1530811530 -0.1530811530
0.2296217294 -0.0765405765 -0.2296217294
0.3061623059 0.0000000000 -0.3061623059
0.3827028824 0.0765405765 -0.3827028824
0.4592434589 0.1530811530 -0.4592434589
-0.0000000000 -0.4592434589 0.1530811530
0.0765405765 -0.3827028824 0.0765405765
0.1530811530 -0.3061623059 0.0000000000
0.2296217294 -0.2296217294 -0.0765405765
0.3061623059 -0.1530811530 -0.1530811530
0.3827028824 -0.0765405765 -0.2296217294
0.4592434589 0.0000000000 -0.3061623059
0.5357840354 0.0765405765 -0.3827028824
0.0765405765 -0.5357840354 0.2296217294
0.1530811530 -0.4592434589 0.1530811530
0.2296217294 -0.3827028824 0.0765405765
0.3061623059 -0.3061623059 0.0000000000
0.3827028824 -0.2296217294 -0.0765405765
0.4592434589 -0.1530811530 -0.1530811530
0.5357840354 -0.0765405765 -0.2296217294
0.6123246119 0.0000000000 -0.3061623059
0.1530811530 -0.6123246119 0.3061623059
0.2296217294 -0.5357840354 0.2296217294
0.3061623059 -0.4592434589 0.1530811530
0.3827028824 -0.3827028824 0.0765405765
0.4592434589 -0.3061623059 0.0000000000
0.5357840354 -0.2296217294 -0.0765405765
0.6123246119 -0.1530811530 -0.1530811530
0.6888651883 -0.0765405765 -0.2296217294
0.2296217294 -0.6888651883 0.3827028824
0.3061623059 -0.6123246119 0.3061623059
0.3827028824 -0.5357840354 0.2296217294
0.4592434589 -0.4592434589 0.1530811530
0.5357840354 -0.3827028824 0.0765405765
0.6123246119 -0.3061623059 0.0000000000
0.6888651883 -0.2296217294 -0.0765405765
0.7654057648 -0.1530811530 -0.1530811530
-0.3827028824 -0.0765405765 -0.0765405765
-0.3061623059 -0.0000000000 -0.1530811530
-0.2296217294 0.0765405765 -0.2296217294
-0.1530811530 0.1530811530 -0.3061623059
-0.0765405765 0.2296217294 -0.3827028824
0.0000000000 0.3061623059 -0.4592434589
0.0765405765 0.3827028824 -0.5357840354
0.1530811530 0.4592434589 -0.6123246119
-0.3061623059 -0.1530811530 -0.0000000000
-0.2296217294 -0.0765405765 -0.0765405765
-0.1530811530 -0.0000000000 -0.1530811530
-0.0765405765 0.0765405765 -0.2296217294
-0.0000000000 0.1530811530 -0.3061623059
0.0765405765 0.2296217294 -0.3827028824
0.1530811530 0.3061623059 -0.4592434589
0.2296217294 0.3827028824 -0.5357840354
-0.2296217294 -0.2296217294 0.0765405765
-0.1530811530 -0.1530811530 -0.0000000000
-0.0765405765 -0.0765405765 -0.0765405765
-0.0000000000 -0.0000000000 -0.1530811530
0.0765405765 0.0765405765 -0.2296217294
0.1530811530 0.1530811530 -0.3061623059
0.2296217294 0.2296217294 -0.3827028824
0.3061623059 0.3061623059 -0.4592434589
-0.1530811530 -0.3061623059 0.1530811530
-0.0765405765 -0.2296217294 0.0765405765
-0.0000000000 -0.1530811530 0.0000000000
0.0765405765 -0.0765405765 -0.0765405765
0.1530811530 0.0000000000 -0.1530811530
0.2296217294 0.0765405765 -0.2296217294
0.3061623059 0.1530811530 -0.3061623059
0.3827028824 0.2296217294 -0.3827028824
-0.0765405765 -0.3827028824 0.2296217294
-0.0000000000 -0.3061623059 0.1530811530
0.0765405765 -0.2296217294 0.0765405765
0.1530811530 -0.1530811530 0.0000000000
0.2296217294 -0.0765405765 -0.0765405765
0.3061623059 0.0000000000 -0.1530811530
0.3827028824 0.0765405765 -0.2296217294
0.4592434589 0.1530811530 -0.3061623059
-0.0000000000 -0.4592434589 0.3061623059
0.0765405765 -0.3827028824 0.2296217294
0.1530811530 -0.3061623059 0.1530811530
0.2296217294 -0.2296217294 0.0765405765
0.3061623059 -0.1530811530 0.0000000000
0.3827028824 -0.0765405765 -0.0765405765
0.4592434589 0.0000000000 -0.1530811530
0.5357840354 0.0765405765 -0.2296217294
0.0765405765 -0.5357840354 0.3827028824
0.1530811530 -0.4592434589 0.3061623059
0.2296217294 -0.3827028824 0.2296217294
0.3061623059 -0.3061623059 0.1530811530
0.3827028824 -0.2296217294 0.0765405765
0.4592434589 -0.1530811530 0.0000000000
0.5357840354 -0.0765405765 -0.0765405765
0.6123246119 0.0000000000 -0.1530811530
0.1530811530 -0.6123246119 0.4592434589
0.2296217294 -0.5357840354 0.3827028824
0.3061623059 -0.4592434589 0.3061623059
0.3827028824 -0.3827028824 0.2296217294
0.4592434589 -0.3061623059 0.1530811530
0.5357840354 -0.2296217294 0.0765405765
0.6123246119 -0.1530811530 0.0000000000
0.6888651883 -0.0765405765 -0.0765405765
-0.4592434589 -0.0000000000 -0.0000000000
-0.3827028824 0.0765405765 -0.0765405765
-0.3061623059 0.1530811530 -0.1530811530
-0.2296217294 0.2296217294 -0.2296217294
-0.1530811530 0.3061623059 -0.3061623059
-0.0765405765 0.3827028824 -0.3827028824
0.0000000000 0.4592434589 -0.4592434589
0.0765405765 0.5357840354 -0.5357840354
-0.3827028824 -0.0765405765 0.0765405765
-0.3061623059 -0.0000000000 -0.0000000000
-0.2296217294 0.0765405765 -0.0765405765
-0.1530811530 0.1530811530 -0.1530811530
-0.0765405765 0.2296217294 -0.2296217294
0.0000000000 0.3061623059 -0.3061623059
0.0765405765 0.3827028824 -0.3827028824
0.1530811530 0.4592434589 -0.4592434589
-0.3061623059 -0.1530811530 0.1530811530
-0.2296217294 -0.0765405765 0.0765405765
-0.1530811530 -0.0000000000 -0.0000000000
-0.0765405765 0.0765405765 -0.0765405765
0.0000000000 0.1530811530 -0.1530811530
0.0765405765 0.2296217294 -0.2296217294
0.1530811530 0.3061623059 -0.3061623059
0.2296217294 0.3827028824 -0.3827028824
-0.2296217294 -0.2296217294 0.2296217294
-0.1530811530 -0.1530811530 0.1530811530
-0.0765405765 -0.0765405765 0.0765405765
0.0000000000 0.0000000000 0.0000000000
0.0765405765 0.0765405765 -0.0765405765
0.1530811530 0.1530811530 -0.1530811530
0.2296217294 0.2296217294 -0.2296217294
0.3061623059 0.3061623059 -0.3061623059
-0.1530811530 -0.3061623059 0.3061623059
-0.0765405765 -0.2296217294 0.2296217294
-0.0000000000 -0.1530811530 0.1530811530
0.0765405765 -0.0765405765 0.0765405765
0.1530811530 0.0000000000 0.0000000000
0.2296217294 0.0765405765 -0.0765405765
0.3061623059 0.1530811530 -0.1530811530
0.3827028824 0.2296217294 -0.2296217294
-0.0765405765 -0.3827028824 0.3827028824
-0.0000000000 -0.3061623059 0.3061623059
0.0765405765 -0.2296217294 0.2296217294
0.1530811530 -0.1530811530 0.1530811530
0.2296217294 -0.0765405765 0.0765405765
0.3061623059 0.0000000000 0.0000000000
0.3827028824 0.0765405765 -0.0765405765
0.4592434589 0.1530811530 -0.1530811530
-0.0000000000 -0.4592434589 0.4592434589
0.0765405765 -0.3827028824 0.3827028824
0.1530811530 -0.3061623059 0.3061623059
0.2296217294 -0.2296217294 0.2296217294
0.3061623059 -0.1530811530 0.1530811530
0.3827028824 -0.0765405765 0.0765405765
0.4592434589 0.0000000000 0.0000000000
0.5357840354 0.0765405765 -0.0765405765
0.0765405765 -0.5357840354 0.5357840354
0.1530811530 -0.4592434589 0.4592434589
0.2296217294 -0.3827028824 0.3827028824
0.3061623059 -0.3061623059 0.3061623059
0.3827028824 -0.2296217294 0.2296217294
0.4592434589 -0.1530811530 0.1530811530
0.5357840354 -0.0765405765 0.0765405765
0.6123246119 0.0000000000 0.0000000000
-0.5357840354 0.0765405765 0.0765405765
-0.4592434589 0.1530811530 -0.0000000000
-0.3827028824 0.2296217294 -0.0765405765
-0.3061623059 0.3061623059 -0.1530811530
-0.2296217294 0.3827028824 -0.2296217294
-0.1530811530 0.4592434589 -0.3061623059
-0.0765405765 0.5357840354 -0.3827028824
0.0000000000 0.6123246119 -0.4592434589
-0.4592434589 -0.0000000000 0.1530811530
-0.3827028824 0.0765405765 0.0765405765
-0.3061623059 0.1530811530 -0.0000000000
-0.2296217294 0.2296217294 -0.0765405765
-0.1530811530 0.3061623059 -0.1530811530
-0.0765405765 0.3827028824 -0.2296217294
0.0000000000 0.4592434589 -0.3061623059
0.0765405765 0.5357840354 -0.3827028824
-0.3827028824 -0.0765405765 0.2296217294
-0.3061623059 -0.0000000000 0.1530811530
-0.2296217294 0.0765405765 0.0765405765
-0.1530811530 0.1530811530 -0.0000000000
-0.0765405765 0.2296217294 -0.0765405765
0.0000000000 0.3061623059 -0.1530811530
0.0765405765 0.3827028824 -0.2296217294
0.1530811530 0.4592434589 -0.3061623059
-0.3061623059 -0.1530811530 0.3061623059
-0.2296217294 -0.0765405765 0.2296217294
-0.1530811530 0.0000000000 0.1530811530
-0.0765405765 0.0765405765 0.0765405765
0.0000000000 0.1530811530 0.0000000000
0.0765405765 0.2296217294 -0.0765405765
0.1530811530 0.3061623059 -0.1530811530
0.2296217294 0.3827028824 -0.2296217294
-0.2296217294 -0.2296217294 0.3827028824
-0.1530811530 -0.1530811530 0.3061623059
-0.0765405765 -0.0765405765 0.2296217294
0.0000000000 0.0000000000 0.1530811530
0.0765405765 0.0765405765 0.0765405765
0.1530811530 0.1530811530 0.0000000000
0.2296217294 0.2296217294 -0.0765405765
0.3061623059 0.3061623059 -0.1530811530
-0.1530811530 -0.3061623059 0.4592434589
-0.0765405765 -0.2296217294 0.3827028824
0.0000000000 -0.1530811530 0.3061623059
0.0765405765 -0.0765405765 0.2296217294
0.1530811530 0.0000000000 0.1530811530
0.2296217294 0.0765405765 0.0765405765
0.3061623059 0.1530811530 0.0000000000
0.3827028824 0.2296217294 -0.0765405765
-0.0765405765 -0.3827028824 0.5357840354
0.0000000000 -0.3061623059 0.4592434589
0.0765405765 -0.2296217294 0.3827028824
0.1530811530 -0.1530811530 0.3061623059
0.2296217294 -0.0765405765 0.2296217294
0.3061623059 0.0000000000 0.1530811530
0.3827028824 0.0765405765 0.0765405765
0.4592434589 0.1530811530 0.0000000000
0.0000000000 -0.4592434589 0.6123246119
0.0765405765 -0.3827028824 0.5357840354
0.1530811530 -0.3061623059 0.4592434589
0.2296217294 -0.2296217294 0.3827028824
0.3061623059 -0.1530811530 0.3061623059
0.3827028824 -0.0765405765 0.2296217294
0.4592434589 0.0000000000 0.1530811530
0.5357840354 0.0765405765 0.0765405765
-0.6123246119 0.1530811530 0.1530811530
-0.5357840354 0.2296217294 0.0765405765
-0.4592434589 0.3061623059 -0.0000000000
-0.3827028824 0.3827028824 -0.0765405765
-0.3061623059 0.4592434589 -0.1530811530
-0.2296217294 0.5357840354 -0.2296217294
-0.1530811530 0.6123246119 -0.3061623059
-0.0765405765 0.6888651883 -0.3827028824
-0.5357840354 0.0765405765 0.2296217294
-0.4592434589 0.1530811530 0.1530811530
-0.3827028824 0.2296217294 0.0765405765
-0.3061623059 0.3061623059 -0.0000000000
-0.2296217294 0.3827028824 -0.0765405765
-0.1530811530 0.4592434589 -0.1530811530
-0.0765405765 0.5357840354 -0.2296217294
0.0000000000 0.6123246119 -0.3061623059
-0.4592434589 -0.0000000000 0.3061623059
-0.3827028824 0.0765405765 0.2296217294
-0.3061623059 0.1530811530 0.1530811530
-0.2296217294 0.2296217294 0.0765405765
-0.1530811530 0.3061623059 -0.0000000000
-0.0765405765 0.3827028824 -0.0765405765
0.0000000000 0.4592434589 -0.1530811530
0.0765405765 0.5357840354 -0.2296217294
-0.3827028824 -0.0765405765 0.3827028824
-0.3061623059 0.0000000000 0.3061623059
-0.2296217294 0.0765405765 0.2296217294
-0.1530811530 0.1530811530 0.1530811530
-0.0765405765 0.2296217294 0.0765405765
0.0000000000 0.3061623059 0.0000000000
0.0765405765 0.3827028824 -0.0765405765
0.1530811530 0.4592434589 -0.1530811530
-0.3061623059 -0.1530811530 0.4592434589
-0.2296217294 -0.0765405765 0.3827028824
-0.1530811530 0.0000000000 0.3061623059
-0.0765405765 0.0765405765 0.2296217294
0.0000000000 0.1530811530 0.1530811530
0.0765405765 0.2296217294 0.0765405765
0.1530811530 0.3061623059 0.0000000000
0.2296217294 0.3827028824 -0.0765405765
-0.2296217294 -0.2296217294 0.5357840354
-0.1530811530 -0.1530811530 0.4592434589
-0.0765405765 -0.0765405765 0.3827028824
0.0000000000 0.0000000000 0.3061623059
0.0765405765 0.0765405765 0.2296217294
0.1530811530 0.1530811530 0.1530811530
0.2296217294 0.2296217294 0.0765405765
0.3061623059 0.3061623059 0.0000000000
-0.1530811530 -0.3061623059 0.6123246119
-0.0765405765 -0.2296217294 0.5357840354
0.0000000000 -0.1530811530 0.4592434589
0.0765405765 -0.0765405765 0.3827028824
0.1530811530 0.0000000000 0.3061623059
0.2296217294 0.0765405765 0.2296217294
0.3061623059 0.1530811530 0.1530811530
0.3827028824 0.2296217294 0.0765405765
-0.0765405765 -0.3827028824 0.6888651883
0.0000000000 -0.3061623059 0.6123246119
0.0765405765 -0.2296217294 0.5357840354
0.1530811530 -0.1530811530 0.4592434589
0.2296217294 -0.0765405765 0.3827028824
0.3061623059 0.0000000000 0.3061623059
0.3827028824 0.0765405765 0.2296217294
0.4592434589 0.1530811530 0.1530811530
-0.6888651883 0.2296217294 0.2296217294
-0.6123246119 0.3061623059 0.1530811530
-0.5357840354 0.3827028824 0.0765405765
-0.4592434589 0.4592434589 -0.0000000000
-0.3827028824 0.5357840354 -0.0765405765
-0.3061623059 0.6123246119 -0.1530811530
-0.2296217294 0.6888651883 -0.2296217294
-0.1530811530 0.7654057648 -0.3061623059
-0.6123246119 0.1530811530 0.3061623059
-0.5357840354 0.2296217294 0.2296217294
-0.4592434589 0.3061623059 0.1530811530
-0.3827028824 0.3827028824 0.0765405765
-0.3061623059 0.4592434589 -0.0000000000
-0.2296217294 0.5357840354 -0.0765405765
-0.1530811530 0.6123246119 -0.1530811530
-0.0765405765 0.6888651883 -0.2296217294
-0.5357840354 0.0765405765 0.3827028824
-0.4592434589 0.1530811530 0.3061623059
-0.3827028824 0.2296217294 0.2296217294
-0.3061623059 0.3061623059 0.1530811530
-0.2296217294 0.3827028824 0.0765405765
-0.1530811530 0.4592434589 -0.0000000000
-0.0765405765 0.5357840354 -0.0765405765
0.0000000000 0.6123246119 -0.1530811530
-0.4592434589 0.0000000000 0.4592434589
-0.3827028824 0.0765405765 0.3827028824
-0.3061623059 0.1530811530 0.3061623059
-0.2296217294 0.2296217294 0.2296217294
-0.1530811530 0.3061623059 0.1530811530
-0.0765405765 0.3827028824 0.0765405765
0.0000000000 0.4592434589 0.0000000000
0.0765405765 0.5357840354 -0.0765405765
-0.3827028824 -0.0765405765 0.5357840354
-0.3061623059 0.0000000000 0.4592434589
-0.2296217294 0.0765405765 0.3827028824
-0.1530811530 0.1530811530 0.3061623059
-0.0765405765 0.2296217294 0.2296217294
0.0000000000 0.3061623059 0.1530811530
0.0765405765 0.3827028824 0.0765405765
0.1530811530 0.4592434589 0.0000000000
-0.3061623059 -0.1530811530 0.6123246119
-0.2296217294 -0.0765405765 0.5357840354
-0.1530811530 0.0000000000 0.4592434589
-0.0765405765 0.0765405765 0.3827028824
0.0000000000 0.1530811530 0.3061623059
0.0765405765 0.2296217294 0.2296217294
0.1530811530 0.3061623059 0.1530811530
0.2296217294 0.3827028824 0.0765405765
-0.2296217294 -0.2296217294 0.6888651883
-0.1530811530 -0.1530811530 0.6123246119
-0.0765405765 -0.0765405765 0.5357840354
0.0000000000 0.0000000000 0.4592434589
0.0765405765 0.0765405765 0.3827028824
0.1530811530 0.1530811530 0.3061623059
0.2296217294 0.2296217294 0.2296217294
0.3061623059 0.3061623059 0.1530811530
-0.1530811530 -0.3061623059 0.7654057648
-0.0765405765 -0.2296217294 0.6888651883
0.0000000000 -0.1530811530 0.6123246119
0.0765405765 -0.0765405765 0.5357840354
0.1530811530 0.0000000000 0.4592434589
0.2296217294 0.0765405765 0.3827028824
0.3061623059 0.1530811530 0.3061623059
0.3827028824 0.2296217294 0.2296217294
-0.7654057648 0.3061623059 0.3061623059
-0.6888651883 0.3827028824 0.2296217294
-0.6123246119 0.4592434589 0.1530811530
-0.5357840354 0.5357840354 0.0765405765
-0.4592434589 0.6123246119 -0.0000000000
-0.3827028824 0.6888651883 -0.0765405765
-0.3061623059 0.7654057648 -0.1530811530
-0.2296217294 0.8419463413 -0.2296217294
-0.6888651883 0.2296217294 0.3827028824
-0.6123246119 0.3061623059 0.3061623059
-0.5357840354 0.3827028824 0.2296217294
-0.4592434589 0.4592434589 0.1530811530
-0.3827028824 0.5357840354 0.0765405765
-0.3061623059 0.6123246119 -0.0000000000
-0.2296217294 0.6888651883 -0.0765405765
-0.1530811530 0.7654057648 -0.1530811530
-0.6123246119 0.1530811530 0.4592434589
-0.5357840354 0.2296217294 0.3827028824
-0.4592434589 0.3061623059 0.3061623059
-0.3827028824 0.3827028824 0.2296217294
-0.3061623059 0.4592434589 0.1530811530
-0.2296217294 0.5357840354 0.0765405765
-0.1530811530 0.6123246119 0.0000000000
-0.0765405765 0.6888651883 -0.0765405765
-0.5357840354 0.0765405765 0.5357840354
-0.4592434589 0.1530811530 0.4592434589
-0.3827028824 0.2296217294 0.3827028824
-0.3061623059 0.3061623059 0.3061623059
-0.2296217294 0.3827028824 0.2296217294
-0.1530811530 0.4592434589 0.1530811530
-0.0765405765 0.5357840354 0.0765405765
0.0000000000 0.6123246119 0.0000000000
-0.4592434589 0.0000000000 0.6123246119
-0.3827028824 0.0765405765 0.5357840354
-0.3061623059 0.1530811530 0.4592434589
-0.2296217294 0.2296217294 0.3827028824
-0.1530811530 0.3061623059 0.3061623059
-0.0765405765 0.3827028824 0.2296217294
0.0000000000 0.4592434589 0.1530811530
0.0765405765 0.5357840354 0.0765405765
-0.3827028824 -0.0765405765 0.6888651883
-0.3061623059 0.0000000000 0.6123246119
-0.2296217294 0.0765405765 0.5357840354
-0.1530811530 0.1530811530 0.4592434589
-0.0765405765 0.2296217294 0.3827028824
0.0000000000 0.3061623059 0.3061623059
0.0765405765 0.3827028824 0.2296217294
0.1530811530 0.4592434589 0.1530811530
-0.3061623059 -0.1530811530 0.7654057648
-0.2296217294 -0.0765405765 0.6888651883
-0.1530811530 0.0000000000 0.6123246119
-0.0765405765 0.0765405765 0.5357840354
0.0000000000 0.1530811530 0.4592434589
0.0765405765 0.2296217294 0.3827028824
0.1530811530 0.3061623059 0.3061623059
0.2296217294 0.3827028824 0.2296217294
-0.2296217294 -0.2296217294 0.8419463413
-0.1530811530 -0.1530811530 0.7654057648
-0.0765405765 -0.0765405765 0.6888651883
0.0000000000 0.0000000000 0.6123246119
0.0765405765 0.0765405765 0.5357840354
0.1530811530 0.1530811530 0.4592434589
0.2296217294 0.2296217294 0.3827028824
0.3061623059 0.3061623059 0.3061623059
 There are 14 alpha and 14 beta electrons
 Start computing overlap matrix
 Allocate 114065408 B from available memory: 1048575734752 B
 Time for computing overlap matrix: 3.8780000000 s
 ====== Initialize compute kernels for all-electron RI-J (kpts) ====== 
 ========================================================== 
 Range-separated parameter omega        = 0.299999999999999989
 Threshold for 1e2c shellpair           = 0.000000000000010000
 Threshold for 2e2c SR integral         = 0.000000000000000001
 Threshold for 2e3c SR integral         = 0.000000000100000000
 Threshold for AFT G-space screening is = 0.000000000001000000
 The exponent cutoff for C/D classification (omega2 / 2) is  = 0.044999999999999998
 ========================================================== 
 === Post process the basis set for RI calculation (exp_cutoff = 0.044999999999999998 ) === 
nshells_b1 before uncontraction = 28
nshells_b1 after uncontraction = 28
nshells_baux before uncontraction = 80
nshells_baux after uncontraction = 80
===============================================
nbsf total   = 118
nbsf compact = 118
nbsf diffuse = 0
naux total   = 296
naux compact = 296
naux diffuse = 0
nshells_bnuc = 2

 Number of unique atoms is 1
 Unique atom #0 (si) has 14 shells.

Shell 0 to 13 belongs to atom si
Shell 14 to 27 belongs to atom si

 Number of unique atom is 1
 Unique atom #0 (si) has 40 auxiliary shells.

Auxiliary Shell 0 to 39 belongs to atom si
Auxiliary Shell 40 to 79 belongs to atom si

================= Automatically determine grid size for reciprocal space summation =================
 Range-separated parameter = 0.30000000000000 and G-space screening threshold = 0.00000000000100
The number of grid points along each axis dimension is (4, 4, 4)
Total number of grid points = 729

Use nonortho shellpair for diffuse density
======== Initializing relevant kernel for RIJ (CC type) ========
There are 406 shellpairs in the reference unit cell
There are 3757 images and we expect to have 1525342 in total
There are 35954 shellpairs in the lattice sum after screening
****** AFT -> SR ******
Maximum bra distance cutoff is 30.000000000000
Maximum bra ket distance cutoff is 37.583407605466
Maximum bra ket screening distance is 30.187500000000
Number of auxiliary image is 1657
There are 406 shellpairs in the reference unit cell
There are 1031 images and we expect to have 418586 in total
There are 35954 shellpairs in the lattice sum after screening
Available memory per thread for 2e3c calculation is 32.764427167000Gb
Finish initializing 2e3c SR with the lattice sum!
=================================================
======== Initialize the SR component for Vnuc (CC type) ========
Maximum bra distance cutoff is 30.000000000000
Maximum bra ket distance cutoff is 31.203423477913
Maximum bra ket screening distance is 23.767099300136
Number of auxiliary image is 1097
There are 406 shellpairs in the reference unit cell
There are 1031 images and we expect to have 418586 in total
There are 35954 shellpairs in the lattice sum after screening
Available memory per thread for 2e3c calculation is 32.764427167000Gb
Finish initializing 2e3c SR with the lattice sum!
=================================================
 Aufbau occupation scheme, occupation determined by eigenvalue
 == 0-th k-point nmo = 114 (-0.22962,-0.22962,-0.22962) ==
 == 1-th k-point nmo = 114 (-0.15308,-0.15308,-0.30616) ==
 == 2-th k-point nmo = 114 (-0.07654,-0.07654,-0.38270) ==
 == 3-th k-point nmo = 114 (-0.00000,-0.00000,-0.45924) ==
 == 4-th k-point nmo = 114 (0.07654,0.07654,-0.53578) ==
 == 5-th k-point nmo = 114 (0.15308,0.15308,-0.61232) ==
 == 6-th k-point nmo = 114 (0.22962,0.22962,-0.68887) ==
 == 7-th k-point nmo = 114 (0.30616,0.30616,-0.76541) ==
 == 8-th k-point nmo = 114 (-0.15308,-0.30616,-0.15308) ==
 == 9-th k-point nmo = 114 (-0.07654,-0.22962,-0.22962) ==
 == 10-th k-point nmo = 114 (-0.00000,-0.15308,-0.30616) ==
 == 11-th k-point nmo = 114 (0.07654,-0.07654,-0.38270) ==
 == 12-th k-point nmo = 114 (0.15308,-0.00000,-0.45924) ==
 == 13-th k-point nmo = 114 (0.22962,0.07654,-0.53578) ==
 == 14-th k-point nmo = 114 (0.30616,0.15308,-0.61232) ==
 == 15-th k-point nmo = 114 (0.38270,0.22962,-0.68887) ==
 == 16-th k-point nmo = 114 (-0.07654,-0.38270,-0.07654) ==
 == 17-th k-point nmo = 114 (-0.00000,-0.30616,-0.15308) ==
 == 18-th k-point nmo = 114 (0.07654,-0.22962,-0.22962) ==
 == 19-th k-point nmo = 114 (0.15308,-0.15308,-0.30616) ==
 == 20-th k-point nmo = 114 (0.22962,-0.07654,-0.38270) ==
 == 21-th k-point nmo = 114 (0.30616,-0.00000,-0.45924) ==
 == 22-th k-point nmo = 114 (0.38270,0.07654,-0.53578) ==
 == 23-th k-point nmo = 114 (0.45924,0.15308,-0.61232) ==
 == 24-th k-point nmo = 114 (-0.00000,-0.45924,0.00000) ==
 == 25-th k-point nmo = 114 (0.07654,-0.38270,-0.07654) ==
 == 26-th k-point nmo = 114 (0.15308,-0.30616,-0.15308) ==
 == 27-th k-point nmo = 114 (0.22962,-0.22962,-0.22962) ==
 == 28-th k-point nmo = 114 (0.30616,-0.15308,-0.30616) ==
 == 29-th k-point nmo = 114 (0.38270,-0.07654,-0.38270) ==
 == 30-th k-point nmo = 114 (0.45924,0.00000,-0.45924) ==
 == 31-th k-point nmo = 114 (0.53578,0.07654,-0.53578) ==
 == 32-th k-point nmo = 114 (0.07654,-0.53578,0.07654) ==
 == 33-th k-point nmo = 114 (0.15308,-0.45924,0.00000) ==
 == 34-th k-point nmo = 114 (0.22962,-0.38270,-0.07654) ==
 == 35-th k-point nmo = 114 (0.30616,-0.30616,-0.15308) ==
 == 36-th k-point nmo = 114 (0.38270,-0.22962,-0.22962) ==
 == 37-th k-point nmo = 114 (0.45924,-0.15308,-0.30616) ==
 == 38-th k-point nmo = 114 (0.53578,-0.07654,-0.38270) ==
 == 39-th k-point nmo = 114 (0.61232,0.00000,-0.45924) ==
 == 40-th k-point nmo = 114 (0.15308,-0.61232,0.15308) ==
 == 41-th k-point nmo = 114 (0.22962,-0.53578,0.07654) ==
 == 42-th k-point nmo = 114 (0.30616,-0.45924,0.00000) ==
 == 43-th k-point nmo = 114 (0.38270,-0.38270,-0.07654) ==
 == 44-th k-point nmo = 114 (0.45924,-0.30616,-0.15308) ==
 == 45-th k-point nmo = 114 (0.53578,-0.22962,-0.22962) ==
 == 46-th k-point nmo = 114 (0.61232,-0.15308,-0.30616) ==
 == 47-th k-point nmo = 114 (0.68887,-0.07654,-0.38270) ==
 == 48-th k-point nmo = 114 (0.22962,-0.68887,0.22962) ==
 == 49-th k-point nmo = 114 (0.30616,-0.61232,0.15308) ==
 == 50-th k-point nmo = 114 (0.38270,-0.53578,0.07654) ==
 == 51-th k-point nmo = 114 (0.45924,-0.45924,0.00000) ==
 == 52-th k-point nmo = 114 (0.53578,-0.38270,-0.07654) ==
 == 53-th k-point nmo = 114 (0.61232,-0.30616,-0.15308) ==
 == 54-th k-point nmo = 114 (0.68887,-0.22962,-0.22962) ==
 == 55-th k-point nmo = 114 (0.76541,-0.15308,-0.30616) ==
 == 56-th k-point nmo = 114 (0.30616,-0.76541,0.30616) ==
 == 57-th k-point nmo = 114 (0.38270,-0.68887,0.22962) ==
 == 58-th k-point nmo = 114 (0.45924,-0.61232,0.15308) ==
 == 59-th k-point nmo = 114 (0.53578,-0.53578,0.07654) ==
 == 60-th k-point nmo = 114 (0.61232,-0.45924,0.00000) ==
 == 61-th k-point nmo = 114 (0.68887,-0.38270,-0.07654) ==
 == 62-th k-point nmo = 114 (0.76541,-0.30616,-0.15308) ==
 == 63-th k-point nmo = 114 (0.84195,-0.22962,-0.22962) ==
 == 64-th k-point nmo = 114 (-0.30616,-0.15308,-0.15308) ==
 == 65-th k-point nmo = 114 (-0.22962,-0.07654,-0.22962) ==
 == 66-th k-point nmo = 114 (-0.15308,-0.00000,-0.30616) ==
 == 67-th k-point nmo = 114 (-0.07654,0.07654,-0.38270) ==
 == 68-th k-point nmo = 114 (-0.00000,0.15308,-0.45924) ==
 == 69-th k-point nmo = 114 (0.07654,0.22962,-0.53578) ==
 == 70-th k-point nmo = 114 (0.15308,0.30616,-0.61232) ==
 == 71-th k-point nmo = 114 (0.22962,0.38270,-0.68887) ==
 == 72-th k-point nmo = 114 (-0.22962,-0.22962,-0.07654) ==
 == 73-th k-point nmo = 115 (-0.15308,-0.15308,-0.15308) ==
 == 74-th k-point nmo = 114 (-0.07654,-0.07654,-0.22962) ==
 == 75-th k-point nmo = 114 (-0.00000,-0.00000,-0.30616) ==
 == 76-th k-point nmo = 114 (0.07654,0.07654,-0.38270) ==
 == 77-th k-point nmo = 114 (0.15308,0.15308,-0.45924) ==
 == 78-th k-point nmo = 114 (0.22962,0.22962,-0.53578) ==
 == 79-th k-point nmo = 114 (0.30616,0.30616,-0.61232) ==
 == 80-th k-point nmo = 114 (-0.15308,-0.30616,-0.00000) ==
 == 81-th k-point nmo = 114 (-0.07654,-0.22962,-0.07654) ==
 == 82-th k-point nmo = 115 (-0.00000,-0.15308,-0.15308) ==
 == 83-th k-point nmo = 114 (0.07654,-0.07654,-0.22962) ==
 == 84-th k-point nmo = 114 (0.15308,-0.00000,-0.30616) ==
 == 85-th k-point nmo = 114 (0.22962,0.07654,-0.38270) ==
 == 86-th k-point nmo = 114 (0.30616,0.15308,-0.45924) ==
 == 87-th k-point nmo = 114 (0.38270,0.22962,-0.53578) ==
 == 88-th k-point nmo = 114 (-0.07654,-0.38270,0.07654) ==
 == 89-th k-point nmo = 114 (-0.00000,-0.30616,0.00000) ==
 == 90-th k-point nmo = 114 (0.07654,-0.22962,-0.07654) ==
 == 91-th k-point nmo = 115 (0.15308,-0.15308,-0.15308) ==
 == 92-th k-point nmo = 114 (0.22962,-0.07654,-0.22962) ==
 == 93-th k-point nmo = 114 (0.30616,0.00000,-0.30616) ==
 == 94-th k-point nmo = 114 (0.38270,0.07654,-0.38270) ==
 == 95-th k-point nmo = 114 (0.45924,0.15308,-0.45924) ==
 == 96-th k-point nmo = 114 (-0.00000,-0.45924,0.15308) ==
 == 97-th k-point nmo = 114 (0.07654,-0.38270,0.07654) ==
 == 98-th k-point nmo = 114 (0.15308,-0.30616,0.00000) ==
 == 99-th k-point nmo = 114 (0.22962,-0.22962,-0.07654) ==
 == 100-th k-point nmo = 114 (0.30616,-0.15308,-0.15308) ==
 == 101-th k-point nmo = 114 (0.38270,-0.07654,-0.22962) ==
 == 102-th k-point nmo = 114 (0.45924,0.00000,-0.30616) ==
 == 103-th k-point nmo = 114 (0.53578,0.07654,-0.38270) ==
 == 104-th k-point nmo = 114 (0.07654,-0.53578,0.22962) ==
 == 105-th k-point nmo = 114 (0.15308,-0.45924,0.15308) ==
 == 106-th k-point nmo = 114 (0.22962,-0.38270,0.07654) ==
 == 107-th k-point nmo = 114 (0.30616,-0.30616,0.00000) ==
 == 108-th k-point nmo = 114 (0.38270,-0.22962,-0.07654) ==
 == 109-th k-point nmo = 114 (0.45924,-0.15308,-0.15308) ==
 == 110-th k-point nmo = 114 (0.53578,-0.07654,-0.22962) ==
 == 111-th k-point nmo = 114 (0.61232,0.00000,-0.30616) ==
 == 112-th k-point nmo = 114 (0.15308,-0.61232,0.30616) ==
 == 113-th k-point nmo = 114 (0.22962,-0.53578,0.22962) ==
 == 114-th k-point nmo = 114 (0.30616,-0.45924,0.15308) ==
 == 115-th k-point nmo = 114 (0.38270,-0.38270,0.07654) ==
 == 116-th k-point nmo = 114 (0.45924,-0.30616,0.00000) ==
 == 117-th k-point nmo = 114 (0.53578,-0.22962,-0.07654) ==
 == 118-th k-point nmo = 114 (0.61232,-0.15308,-0.15308) ==
 == 119-th k-point nmo = 114 (0.68887,-0.07654,-0.22962) ==
 == 120-th k-point nmo = 114 (0.22962,-0.68887,0.38270) ==
 == 121-th k-point nmo = 114 (0.30616,-0.61232,0.30616) ==
 == 122-th k-point nmo = 114 (0.38270,-0.53578,0.22962) ==
 == 123-th k-point nmo = 114 (0.45924,-0.45924,0.15308) ==
 == 124-th k-point nmo = 114 (0.53578,-0.38270,0.07654) ==
 == 125-th k-point nmo = 114 (0.61232,-0.30616,0.00000) ==
 == 126-th k-point nmo = 114 (0.68887,-0.22962,-0.07654) ==
 == 127-th k-point nmo = 114 (0.76541,-0.15308,-0.15308) ==
 == 128-th k-point nmo = 114 (-0.38270,-0.07654,-0.07654) ==
 == 129-th k-point nmo = 114 (-0.30616,-0.00000,-0.15308) ==
 == 130-th k-point nmo = 114 (-0.22962,0.07654,-0.22962) ==
 == 131-th k-point nmo = 114 (-0.15308,0.15308,-0.30616) ==
 == 132-th k-point nmo = 114 (-0.07654,0.22962,-0.38270) ==
 == 133-th k-point nmo = 114 (0.00000,0.30616,-0.45924) ==
 == 134-th k-point nmo = 114 (0.07654,0.38270,-0.53578) ==
 == 135-th k-point nmo = 114 (0.15308,0.45924,-0.61232) ==
 == 136-th k-point nmo = 114 (-0.30616,-0.15308,-0.00000) ==
 == 137-th k-point nmo = 114 (-0.22962,-0.07654,-0.07654) ==
 == 138-th k-point nmo = 115 (-0.15308,-0.00000,-0.15308) ==
 == 139-th k-point nmo = 114 (-0.07654,0.07654,-0.22962) ==
 == 140-th k-point nmo = 114 (-0.00000,0.15308,-0.30616) ==
 == 141-th k-point nmo = 114 (0.07654,0.22962,-0.38270) ==
 == 142-th k-point nmo = 114 (0.15308,0.30616,-0.45924) ==
 == 143-th k-point nmo = 114 (0.22962,0.38270,-0.53578) ==
 == 144-th k-point nmo = 114 (-0.22962,-0.22962,0.07654) ==
 == 145-th k-point nmo = 115 (-0.15308,-0.15308,-0.00000) ==
 == 146-th k-point nmo = 115 (-0.07654,-0.07654,-0.07654) ==
 == 147-th k-point nmo = 115 (-0.00000,-0.00000,-0.15308) ==
 == 148-th k-point nmo = 114 (0.07654,0.07654,-0.22962) ==
 == 149-th k-point nmo = 114 (0.15308,0.15308,-0.30616) ==
 == 150-th k-point nmo = 114 (0.22962,0.22962,-0.38270) ==
 == 151-th k-point nmo = 114 (0.30616,0.30616,-0.45924) ==
 == 152-th k-point nmo = 114 (-0.15308,-0.30616,0.15308) ==
 == 153-th k-point nmo = 114 (-0.07654,-0.22962,0.07654) ==
 == 154-th k-point nmo = 115 (-0.00000,-0.15308,0.00000) ==
 == 155-th k-point nmo = 115 (0.07654,-0.07654,-0.07654) ==
 == 156-th k-point nmo = 115 (0.15308,0.00000,-0.15308) ==
 == 157-th k-point nmo = 114 (0.22962,0.07654,-0.22962) ==
 == 158-th k-point nmo = 114 (0.30616,0.15308,-0.30616) ==
 == 159-th k-point nmo = 114 (0.38270,0.22962,-0.38270) ==
 == 160-th k-point nmo = 114 (-0.07654,-0.38270,0.22962) ==
 == 161-th k-point nmo = 114 (-0.00000,-0.30616,0.15308) ==
 == 162-th k-point nmo = 114 (0.07654,-0.22962,0.07654) ==
 == 163-th k-point nmo = 115 (0.15308,-0.15308,0.00000) ==
 == 164-th k-point nmo = 114 (0.22962,-0.07654,-0.07654) ==
 == 165-th k-point nmo = 114 (0.30616,0.00000,-0.15308) ==
 == 166-th k-point nmo = 114 (0.38270,0.07654,-0.22962) ==
 == 167-th k-point nmo = 114 (0.45924,0.15308,-0.30616) ==
 == 168-th k-point nmo = 114 (-0.00000,-0.45924,0.30616) ==
 == 169-th k-point nmo = 114 (0.07654,-0.38270,0.22962) ==
 == 170-th k-point nmo = 114 (0.15308,-0.30616,0.15308) ==
 == 171-th k-point nmo = 114 (0.22962,-0.22962,0.07654) ==
 == 172-th k-point nmo = 114 (0.30616,-0.15308,0.00000) ==
 == 173-th k-point nmo = 114 (0.38270,-0.07654,-0.07654) ==
 == 174-th k-point nmo = 114 (0.45924,0.00000,-0.15308) ==
 == 175-th k-point nmo = 114 (0.53578,0.07654,-0.22962) ==
 == 176-th k-point nmo = 114 (0.07654,-0.53578,0.38270) ==
 == 177-th k-point nmo = 114 (0.15308,-0.45924,0.30616) ==
 == 178-th k-point nmo = 114 (0.22962,-0.38270,0.22962) ==
 == 179-th k-point nmo = 114 (0.30616,-0.30616,0.15308) ==
 == 180-th k-point nmo = 114 (0.38270,-0.22962,0.07654) ==
 == 181-th k-point nmo = 114 (0.45924,-0.15308,0.00000) ==
 == 182-th k-point nmo = 114 (0.53578,-0.07654,-0.07654) ==
 == 183-th k-point nmo = 114 (0.61232,0.00000,-0.15308) ==
 == 184-th k-point nmo = 114 (0.15308,-0.61232,0.45924) ==
 == 185-th k-point nmo = 114 (0.22962,-0.53578,0.38270) ==
 == 186-th k-point nmo = 114 (0.30616,-0.45924,0.30616) ==
 == 187-th k-point nmo = 114 (0.38270,-0.38270,0.22962) ==
 == 188-th k-point nmo = 114 (0.45924,-0.30616,0.15308) ==
 == 189-th k-point nmo = 114 (0.53578,-0.22962,0.07654) ==
 == 190-th k-point nmo = 114 (0.61232,-0.15308,0.00000) ==
 == 191-th k-point nmo = 114 (0.68887,-0.07654,-0.07654) ==
 == 192-th k-point nmo = 114 (-0.45924,-0.00000,-0.00000) ==
 == 193-th k-point nmo = 114 (-0.38270,0.07654,-0.07654) ==
 == 194-th k-point nmo = 114 (-0.30616,0.15308,-0.15308) ==
 == 195-th k-point nmo = 114 (-0.22962,0.22962,-0.22962) ==
 == 196-th k-point nmo = 114 (-0.15308,0.30616,-0.30616) ==
 == 197-th k-point nmo = 114 (-0.07654,0.38270,-0.38270) ==
 == 198-th k-point nmo = 114 (0.00000,0.45924,-0.45924) ==
 == 199-th k-point nmo = 114 (0.07654,0.53578,-0.53578) ==
 == 200-th k-point nmo = 114 (-0.38270,-0.07654,0.07654) ==
 == 201-th k-point nmo = 114 (-0.30616,-0.00000,-0.00000) ==
 == 202-th k-point nmo = 114 (-0.22962,0.07654,-0.07654) ==
 == 203-th k-point nmo = 115 (-0.15308,0.15308,-0.15308) ==
 == 204-th k-point nmo = 114 (-0.07654,0.22962,-0.22962) ==
 == 205-th k-point nmo = 114 (0.00000,0.30616,-0.30616) ==
 == 206-th k-point nmo = 114 (0.07654,0.38270,-0.38270) ==
 == 207-th k-point nmo = 114 (0.15308,0.45924,-0.45924) ==
 == 208-th k-point nmo = 114 (-0.30616,-0.15308,0.15308) ==
 == 209-th k-point nmo = 114 (-0.22962,-0.07654,0.07654) ==
 == 210-th k-point nmo = 115 (-0.15308,-0.00000,-0.00000) ==
 == 211-th k-point nmo = 115 (-0.07654,0.07654,-0.07654) ==
 == 212-th k-point nmo = 115 (0.00000,0.15308,-0.15308) ==
 == 213-th k-point nmo = 114 (0.07654,0.22962,-0.22962) ==
 == 214-th k-point nmo = 114 (0.15308,0.30616,-0.30616) ==
 == 215-th k-point nmo = 114 (0.22962,0.38270,-0.38270) ==
 == 216-th k-point nmo = 114 (-0.22962,-0.22962,0.22962) ==
 == 217-th k-point nmo = 115 (-0.15308,-0.15308,0.15308) ==
 == 218-th k-point nmo = 115 (-0.07654,-0.07654,0.07654) ==
 == 219-th k-point nmo = 115 (0.00000,0.00000,0.00000) ==
 == 220-th k-point nmo = 115 (0.07654,0.07654,-0.07654) ==
 == 221-th k-point nmo = 115 (0.15308,0.15308,-0.15308) ==
 == 222-th k-point nmo = 114 (0.22962,0.22962,-0.22962) ==
 == 223-th k-point nmo = 114 (0.30616,0.30616,-0.30616) ==
 == 224-th k-point nmo = 114 (-0.15308,-0.30616,0.30616) ==
 == 225-th k-point nmo = 114 (-0.07654,-0.22962,0.22962) ==
 == 226-th k-point nmo = 115 (-0.00000,-0.15308,0.15308) ==
 == 227-th k-point nmo = 115 (0.07654,-0.07654,0.07654) ==
 == 228-th k-point nmo = 115 (0.15308,0.00000,0.00000) ==
 == 229-th k-point nmo = 114 (0.22962,0.07654,-0.07654) ==
 == 230-th k-point nmo = 114 (0.30616,0.15308,-0.15308) ==
 == 231-th k-point nmo = 114 (0.38270,0.22962,-0.22962) ==
 == 232-th k-point nmo = 114 (-0.07654,-0.38270,0.38270) ==
 == 233-th k-point nmo = 114 (-0.00000,-0.30616,0.30616) ==
 == 234-th k-point nmo = 114 (0.07654,-0.22962,0.22962) ==
 == 235-th k-point nmo = 115 (0.15308,-0.15308,0.15308) ==
 == 236-th k-point nmo = 114 (0.22962,-0.07654,0.07654) ==
 == 237-th k-point nmo = 114 (0.30616,0.00000,0.00000) ==
 == 238-th k-point nmo = 114 (0.38270,0.07654,-0.07654) ==
 == 239-th k-point nmo = 114 (0.45924,0.15308,-0.15308) ==
 == 240-th k-point nmo = 114 (-0.00000,-0.45924,0.45924) ==
 == 241-th k-point nmo = 114 (0.07654,-0.38270,0.38270) ==
 == 242-th k-point nmo = 114 (0.15308,-0.30616,0.30616) ==
 == 243-th k-point nmo = 114 (0.22962,-0.22962,0.22962) ==
 == 244-th k-point nmo = 114 (0.30616,-0.15308,0.15308) ==
 == 245-th k-point nmo = 114 (0.38270,-0.07654,0.07654) ==
 == 246-th k-point nmo = 114 (0.45924,0.00000,0.00000) ==
 == 247-th k-point nmo = 114 (0.53578,0.07654,-0.07654) ==
 == 248-th k-point nmo = 114 (0.07654,-0.53578,0.53578) ==
 == 249-th k-point nmo = 114 (0.15308,-0.45924,0.45924) ==
 == 250-th k-point nmo = 114 (0.22962,-0.38270,0.38270) ==
 == 251-th k-point nmo = 114 (0.30616,-0.30616,0.30616) ==
 == 252-th k-point nmo = 114 (0.38270,-0.22962,0.22962) ==
 == 253-th k-point nmo = 114 (0.45924,-0.15308,0.15308) ==
 == 254-th k-point nmo = 114 (0.53578,-0.07654,0.07654) ==
 == 255-th k-point nmo = 114 (0.61232,0.00000,0.00000) ==
 == 256-th k-point nmo = 114 (-0.53578,0.07654,0.07654) ==
 == 257-th k-point nmo = 114 (-0.45924,0.15308,-0.00000) ==
 == 258-th k-point nmo = 114 (-0.38270,0.22962,-0.07654) ==
 == 259-th k-point nmo = 114 (-0.30616,0.30616,-0.15308) ==
 == 260-th k-point nmo = 114 (-0.22962,0.38270,-0.22962) ==
 == 261-th k-point nmo = 114 (-0.15308,0.45924,-0.30616) ==
 == 262-th k-point nmo = 114 (-0.07654,0.53578,-0.38270) ==
 == 263-th k-point nmo = 114 (0.00000,0.61232,-0.45924) ==
 == 264-th k-point nmo = 114 (-0.45924,-0.00000,0.15308) ==
 == 265-th k-point nmo = 114 (-0.38270,0.07654,0.07654) ==
 == 266-th k-point nmo = 114 (-0.30616,0.15308,-0.00000) ==
 == 267-th k-point nmo = 114 (-0.22962,0.22962,-0.07654) ==
 == 268-th k-point nmo = 114 (-0.15308,0.30616,-0.15308) ==
 == 269-th k-point nmo = 114 (-0.07654,0.38270,-0.22962) ==
 == 270-th k-point nmo = 114 (0.00000,0.45924,-0.30616) ==
 == 271-th k-point nmo = 114 (0.07654,0.53578,-0.38270) ==
 == 272-th k-point nmo = 114 (-0.38270,-0.07654,0.22962) ==
 == 273-th k-point nmo = 114 (-0.30616,-0.00000,0.15308) ==
 == 274-th k-point nmo = 114 (-0.22962,0.07654,0.07654) ==
 == 275-th k-point nmo = 115 (-0.15308,0.15308,-0.00000) ==
 == 276-th k-point nmo = 114 (-0.07654,0.22962,-0.07654) ==
 == 277-th k-point nmo = 114 (0.00000,0.30616,-0.15308) ==
 == 278-th k-point nmo = 114 (0.07654,0.38270,-0.22962) ==
 == 279-th k-point nmo = 114 (0.15308,0.45924,-0.30616) ==
 == 280-th k-point nmo = 114 (-0.30616,-0.15308,0.30616) ==
 == 281-th k-point nmo = 114 (-0.22962,-0.07654,0.22962) ==
 == 282-th k-point nmo = 115 (-0.15308,0.00000,0.15308) ==
 == 283-th k-point nmo = 115 (-0.07654,0.07654,0.07654) ==
 == 284-th k-point nmo = 115 (0.00000,0.15308,0.00000) ==
 == 285-th k-point nmo = 114 (0.07654,0.22962,-0.07654) ==
 == 286-th k-point nmo = 114 (0.15308,0.30616,-0.15308) ==
 == 287-th k-point nmo = 114 (0.22962,0.38270,-0.22962) ==
 == 288-th k-point nmo = 114 (-0.22962,-0.22962,0.38270) ==
 == 289-th k-point nmo = 114 (-0.15308,-0.15308,0.30616) ==
 == 290-th k-point nmo = 114 (-0.07654,-0.07654,0.22962) ==
 == 291-th k-point nmo = 115 (0.00000,0.00000,0.15308) ==
 == 292-th k-point nmo = 115 (0.07654,0.07654,0.07654) ==
 == 293-th k-point nmo = 115 (0.15308,0.15308,0.00000) ==
 == 294-th k-point nmo = 114 (0.22962,0.22962,-0.07654) ==
 == 295-th k-point nmo = 114 (0.30616,0.30616,-0.15308) ==
 == 296-th k-point nmo = 114 (-0.15308,-0.30616,0.45924) ==
 == 297-th k-point nmo = 114 (-0.07654,-0.22962,0.38270) ==
 == 298-th k-point nmo = 114 (0.00000,-0.15308,0.30616) ==
 == 299-th k-point nmo = 114 (0.07654,-0.07654,0.22962) ==
 == 300-th k-point nmo = 115 (0.15308,0.00000,0.15308) ==
 == 301-th k-point nmo = 114 (0.22962,0.07654,0.07654) ==
 == 302-th k-point nmo = 114 (0.30616,0.15308,0.00000) ==
 == 303-th k-point nmo = 114 (0.38270,0.22962,-0.07654) ==
 == 304-th k-point nmo = 114 (-0.07654,-0.38270,0.53578) ==
 == 305-th k-point nmo = 114 (0.00000,-0.30616,0.45924) ==
 == 306-th k-point nmo = 114 (0.07654,-0.22962,0.38270) ==
 == 307-th k-point nmo = 114 (0.15308,-0.15308,0.30616) ==
 == 308-th k-point nmo = 114 (0.22962,-0.07654,0.22962) ==
 == 309-th k-point nmo = 114 (0.30616,0.00000,0.15308) ==
 == 310-th k-point nmo = 114 (0.38270,0.07654,0.07654) ==
 == 311-th k-point nmo = 114 (0.45924,0.15308,0.00000) ==
 == 312-th k-point nmo = 114 (0.00000,-0.45924,0.61232) ==
 == 313-th k-point nmo = 114 (0.07654,-0.38270,0.53578) ==
 == 314-th k-point nmo = 114 (0.15308,-0.30616,0.45924) ==
 == 315-th k-point nmo = 114 (0.22962,-0.22962,0.38270) ==
 == 316-th k-point nmo = 114 (0.30616,-0.15308,0.30616) ==
 == 317-th k-point nmo = 114 (0.38270,-0.07654,0.22962) ==
 == 318-th k-point nmo = 114 (0.45924,0.00000,0.15308) ==
 == 319-th k-point nmo = 114 (0.53578,0.07654,0.07654) ==
 == 320-th k-point nmo = 114 (-0.61232,0.15308,0.15308) ==
 == 321-th k-point nmo = 114 (-0.53578,0.22962,0.07654) ==
 == 322-th k-point nmo = 114 (-0.45924,0.30616,-0.00000) ==
 == 323-th k-point nmo = 114 (-0.38270,0.38270,-0.07654) ==
 == 324-th k-point nmo = 114 (-0.30616,0.45924,-0.15308) ==
 == 325-th k-point nmo = 114 (-0.22962,0.53578,-0.22962) ==
 == 326-th k-point nmo = 114 (-0.15308,0.61232,-0.30616) ==
 == 327-th k-point nmo = 114 (-0.07654,0.68887,-0.38270) ==
 == 328-th k-point nmo = 114 (-0.53578,0.07654,0.22962) ==
 == 329-th k-point nmo = 114 (-0.45924,0.15308,0.15308) ==
 == 330-th k-point nmo = 114 (-0.38270,0.22962,0.07654) ==
 == 331-th k-point nmo = 114 (-0.30616,0.30616,-0.00000) ==
 == 332-th k-point nmo = 114 (-0.22962,0.38270,-0.07654) ==
 == 333-th k-point nmo = 114 (-0.15308,0.45924,-0.15308) ==
 == 334-th k-point nmo = 114 (-0.07654,0.53578,-0.22962) ==
 == 335-th k-point nmo = 114 (0.00000,0.61232,-0.30616) ==
 == 336-th k-point nmo = 114 (-0.45924,-0.00000,0.30616) ==
 == 337-th k-point nmo = 114 (-0.38270,0.07654,0.22962) ==
 == 338-th k-point nmo = 114 (-0.30616,0.15308,0.15308) ==
 == 339-th k-point nmo = 114 (-0.22962,0.22962,0.07654) ==
 == 340-th k-point nmo = 114 (-0.15308,0.30616,-0.00000) ==
 == 341-th k-point nmo = 114 (-0.07654,0.38270,-0.07654) ==
 == 342-th k-point nmo = 114 (0.00000,0.45924,-0.15308) ==
 == 343-th k-point nmo = 114 (0.07654,0.53578,-0.22962) ==
 == 344-th k-point nmo = 114 (-0.38270,-0.07654,0.38270) ==
 == 345-th k-point nmo = 114 (-0.30616,0.00000,0.30616) ==
 == 346-th k-point nmo = 114 (-0.22962,0.07654,0.22962) ==
 == 347-th k-point nmo = 115 (-0.15308,0.15308,0.15308) ==
 == 348-th k-point nmo = 114 (-0.07654,0.22962,0.07654) ==
 == 349-th k-point nmo = 114 (0.00000,0.30616,0.00000) ==
 == 350-th k-point nmo = 114 (0.07654,0.38270,-0.07654) ==
 == 351-th k-point nmo = 114 (0.15308,0.45924,-0.15308) ==
 == 352-th k-point nmo = 114 (-0.30616,-0.15308,0.45924) ==
 == 353-th k-point nmo = 114 (-0.22962,-0.07654,0.38270) ==
 == 354-th k-point nmo = 114 (-0.15308,0.00000,0.30616) ==
 == 355-th k-point nmo = 114 (-0.07654,0.07654,0.22962) ==
 == 356-th k-point nmo = 115 (0.00000,0.15308,0.15308) ==
 == 357-th k-point nmo = 114 (0.07654,0.22962,0.07654) ==
 == 358-th k-point nmo = 114 (0.15308,0.30616,0.00000) ==
 == 359-th k-point nmo = 114 (0.22962,0.38270,-0.07654) ==
 == 360-th k-point nmo = 114 (-0.22962,-0.22962,0.53578) ==
 == 361-th k-point nmo = 114 (-0.15308,-0.15308,0.45924) ==
 == 362-th k-point nmo = 114 (-0.07654,-0.07654,0.38270) ==
 == 363-th k-point nmo = 114 (0.00000,0.00000,0.30616) ==
 == 364-th k-point nmo = 114 (0.07654,0.07654,0.22962) ==
 == 365-th k-point nmo = 115 (0.15308,0.15308,0.15308) ==
 == 366-th k-point nmo = 114 (0.22962,0.22962,0.07654) ==
 == 367-th k-point nmo = 114 (0.30616,0.30616,0.00000) ==
 == 368-th k-point nmo = 114 (-0.15308,-0.30616,0.61232) ==
 == 369-th k-point nmo = 114 (-0.07654,-0.22962,0.53578) ==
 == 370-th k-point nmo = 114 (0.00000,-0.15308,0.45924) ==
 == 371-th k-point nmo = 114 (0.07654,-0.07654,0.38270) ==
 == 372-th k-point nmo = 114 (0.15308,0.00000,0.30616) ==
 == 373-th k-point nmo = 114 (0.22962,0.07654,0.22962) ==
 == 374-th k-point nmo = 114 (0.30616,0.15308,0.15308) ==
 == 375-th k-point nmo = 114 (0.38270,0.22962,0.07654) ==
 == 376-th k-point nmo = 114 (-0.07654,-0.38270,0.68887) ==
 == 377-th k-point nmo = 114 (0.00000,-0.30616,0.61232) ==
 == 378-th k-point nmo = 114 (0.07654,-0.22962,0.53578) ==
 == 379-th k-point nmo = 114 (0.15308,-0.15308,0.45924) ==
 == 380-th k-point nmo = 114 (0.22962,-0.07654,0.38270) ==
 == 381-th k-point nmo = 114 (0.30616,0.00000,0.30616) ==
 == 382-th k-point nmo = 114 (0.38270,0.07654,0.22962) ==
 == 383-th k-point nmo = 114 (0.45924,0.15308,0.15308) ==
 == 384-th k-point nmo = 114 (-0.68887,0.22962,0.22962) ==
 == 385-th k-point nmo = 114 (-0.61232,0.30616,0.15308) ==
 == 386-th k-point nmo = 114 (-0.53578,0.38270,0.07654) ==
 == 387-th k-point nmo = 114 (-0.45924,0.45924,-0.00000) ==
 == 388-th k-point nmo = 114 (-0.38270,0.53578,-0.07654) ==
 == 389-th k-point nmo = 114 (-0.30616,0.61232,-0.15308) ==
 == 390-th k-point nmo = 114 (-0.22962,0.68887,-0.22962) ==
 == 391-th k-point nmo = 114 (-0.15308,0.76541,-0.30616) ==
 == 392-th k-point nmo = 114 (-0.61232,0.15308,0.30616) ==
 == 393-th k-point nmo = 114 (-0.53578,0.22962,0.22962) ==
 == 394-th k-point nmo = 114 (-0.45924,0.30616,0.15308) ==
 == 395-th k-point nmo = 114 (-0.38270,0.38270,0.07654) ==
 == 396-th k-point nmo = 114 (-0.30616,0.45924,-0.00000) ==
 == 397-th k-point nmo = 114 (-0.22962,0.53578,-0.07654) ==
 == 398-th k-point nmo = 114 (-0.15308,0.61232,-0.15308) ==
 == 399-th k-point nmo = 114 (-0.07654,0.68887,-0.22962) ==
 == 400-th k-point nmo = 114 (-0.53578,0.07654,0.38270) ==
 == 401-th k-point nmo = 114 (-0.45924,0.15308,0.30616) ==
 == 402-th k-point nmo = 114 (-0.38270,0.22962,0.22962) ==
 == 403-th k-point nmo = 114 (-0.30616,0.30616,0.15308) ==
 == 404-th k-point nmo = 114 (-0.22962,0.38270,0.07654) ==
 == 405-th k-point nmo = 114 (-0.15308,0.45924,-0.00000) ==
 == 406-th k-point nmo = 114 (-0.07654,0.53578,-0.07654) ==
 == 407-th k-point nmo = 114 (0.00000,0.61232,-0.15308) ==
 == 408-th k-point nmo = 114 (-0.45924,0.00000,0.45924) ==
 == 409-th k-point nmo = 114 (-0.38270,0.07654,0.38270) ==
 == 410-th k-point nmo = 114 (-0.30616,0.15308,0.30616) ==
 == 411-th k-point nmo = 114 (-0.22962,0.22962,0.22962) ==
 == 412-th k-point nmo = 114 (-0.15308,0.30616,0.15308) ==
 == 413-th k-point nmo = 114 (-0.07654,0.38270,0.07654) ==
 == 414-th k-point nmo = 114 (0.00000,0.45924,0.00000) ==
 == 415-th k-point nmo = 114 (0.07654,0.53578,-0.07654) ==
 == 416-th k-point nmo = 114 (-0.38270,-0.07654,0.53578) ==
 == 417-th k-point nmo = 114 (-0.30616,0.00000,0.45924) ==
 == 418-th k-point nmo = 114 (-0.22962,0.07654,0.38270) ==
 == 419-th k-point nmo = 114 (-0.15308,0.15308,0.30616) ==
 == 420-th k-point nmo = 114 (-0.07654,0.22962,0.22962) ==
 == 421-th k-point nmo = 114 (0.00000,0.30616,0.15308) ==
 == 422-th k-point nmo = 114 (0.07654,0.38270,0.07654) ==
 == 423-th k-point nmo = 114 (0.15308,0.45924,0.00000) ==
 == 424-th k-point nmo = 114 (-0.30616,-0.15308,0.61232) ==
 == 425-th k-point nmo = 114 (-0.22962,-0.07654,0.53578) ==
 == 426-th k-point nmo = 114 (-0.15308,0.00000,0.45924) ==
 == 427-th k-point nmo = 114 (-0.07654,0.07654,0.38270) ==
 == 428-th k-point nmo = 114 (0.00000,0.15308,0.30616) ==
 == 429-th k-point nmo = 114 (0.07654,0.22962,0.22962) ==
 == 430-th k-point nmo = 114 (0.15308,0.30616,0.15308) ==
 == 431-th k-point nmo = 114 (0.22962,0.38270,0.07654) ==
 == 432-th k-point nmo = 114 (-0.22962,-0.22962,0.68887) ==
 == 433-th k-point nmo = 114 (-0.15308,-0.15308,0.61232) ==
 == 434-th k-point nmo = 114 (-0.07654,-0.07654,0.53578) ==
 == 435-th k-point nmo = 114 (0.00000,0.00000,0.45924) ==
 == 436-th k-point nmo = 114 (0.07654,0.07654,0.38270) ==
 == 437-th k-point nmo = 114 (0.15308,0.15308,0.30616) ==
 == 438-th k-point nmo = 114 (0.22962,0.22962,0.22962) ==
 == 439-th k-point nmo = 114 (0.30616,0.30616,0.15308) ==
 == 440-th k-point nmo = 114 (-0.15308,-0.30616,0.76541) ==
 == 441-th k-point nmo = 114 (-0.07654,-0.22962,0.68887) ==
 == 442-th k-point nmo = 114 (0.00000,-0.15308,0.61232) ==
 == 443-th k-point nmo = 114 (0.07654,-0.07654,0.53578) ==
 == 444-th k-point nmo = 114 (0.15308,0.00000,0.45924) ==
 == 445-th k-point nmo = 114 (0.22962,0.07654,0.38270) ==
 == 446-th k-point nmo = 114 (0.30616,0.15308,0.30616) ==
 == 447-th k-point nmo = 114 (0.38270,0.22962,0.22962) ==
 == 448-th k-point nmo = 114 (-0.76541,0.30616,0.30616) ==
 == 449-th k-point nmo = 114 (-0.68887,0.38270,0.22962) ==
 == 450-th k-point nmo = 114 (-0.61232,0.45924,0.15308) ==
 == 451-th k-point nmo = 114 (-0.53578,0.53578,0.07654) ==
 == 452-th k-point nmo = 114 (-0.45924,0.61232,-0.00000) ==
 == 453-th k-point nmo = 114 (-0.38270,0.68887,-0.07654) ==
 == 454-th k-point nmo = 114 (-0.30616,0.76541,-0.15308) ==
 == 455-th k-point nmo = 114 (-0.22962,0.84195,-0.22962) ==
 == 456-th k-point nmo = 114 (-0.68887,0.22962,0.38270) ==
 == 457-th k-point nmo = 114 (-0.61232,0.30616,0.30616) ==
 == 458-th k-point nmo = 114 (-0.53578,0.38270,0.22962) ==
 == 459-th k-point nmo = 114 (-0.45924,0.45924,0.15308) ==
 == 460-th k-point nmo = 114 (-0.38270,0.53578,0.07654) ==
 == 461-th k-point nmo = 114 (-0.30616,0.61232,-0.00000) ==
 == 462-th k-point nmo = 114 (-0.22962,0.68887,-0.07654) ==
 == 463-th k-point nmo = 114 (-0.15308,0.76541,-0.15308) ==
 == 464-th k-point nmo = 114 (-0.61232,0.15308,0.45924) ==
 == 465-th k-point nmo = 114 (-0.53578,0.22962,0.38270) ==
 == 466-th k-point nmo = 114 (-0.45924,0.30616,0.30616) ==
 == 467-th k-point nmo = 114 (-0.38270,0.38270,0.22962) ==
 == 468-th k-point nmo = 114 (-0.30616,0.45924,0.15308) ==
 == 469-th k-point nmo = 114 (-0.22962,0.53578,0.07654) ==
 == 470-th k-point nmo = 114 (-0.15308,0.61232,0.00000) ==
 == 471-th k-point nmo = 114 (-0.07654,0.68887,-0.07654) ==
 == 472-th k-point nmo = 114 (-0.53578,0.07654,0.53578) ==
 == 473-th k-point nmo = 114 (-0.45924,0.15308,0.45924) ==
 == 474-th k-point nmo = 114 (-0.38270,0.22962,0.38270) ==
 == 475-th k-point nmo = 114 (-0.30616,0.30616,0.30616) ==
 == 476-th k-point nmo = 114 (-0.22962,0.38270,0.22962) ==
 == 477-th k-point nmo = 114 (-0.15308,0.45924,0.15308) ==
 == 478-th k-point nmo = 114 (-0.07654,0.53578,0.07654) ==
 == 479-th k-point nmo = 114 (0.00000,0.61232,0.00000) ==
 == 480-th k-point nmo = 114 (-0.45924,0.00000,0.61232) ==
 == 481-th k-point nmo = 114 (-0.38270,0.07654,0.53578) ==
 == 482-th k-point nmo = 114 (-0.30616,0.15308,0.45924) ==
 == 483-th k-point nmo = 114 (-0.22962,0.22962,0.38270) ==
 == 484-th k-point nmo = 114 (-0.15308,0.30616,0.30616) ==
 == 485-th k-point nmo = 114 (-0.07654,0.38270,0.22962) ==
 == 486-th k-point nmo = 114 (0.00000,0.45924,0.15308) ==
 == 487-th k-point nmo = 114 (0.07654,0.53578,0.07654) ==
 == 488-th k-point nmo = 114 (-0.38270,-0.07654,0.68887) ==
 == 489-th k-point nmo = 114 (-0.30616,0.00000,0.61232) ==
 == 490-th k-point nmo = 114 (-0.22962,0.07654,0.53578) ==
 == 491-th k-point nmo = 114 (-0.15308,0.15308,0.45924) ==
 == 492-th k-point nmo = 114 (-0.07654,0.22962,0.38270) ==
 == 493-th k-point nmo = 114 (0.00000,0.30616,0.30616) ==
 == 494-th k-point nmo = 114 (0.07654,0.38270,0.22962) ==
 == 495-th k-point nmo = 114 (0.15308,0.45924,0.15308) ==
 == 496-th k-point nmo = 114 (-0.30616,-0.15308,0.76541) ==
 == 497-th k-point nmo = 114 (-0.22962,-0.07654,0.68887) ==
 == 498-th k-point nmo = 114 (-0.15308,0.00000,0.61232) ==
 == 499-th k-point nmo = 114 (-0.07654,0.07654,0.53578) ==
 == 500-th k-point nmo = 114 (0.00000,0.15308,0.45924) ==
 == 501-th k-point nmo = 114 (0.07654,0.22962,0.38270) ==
 == 502-th k-point nmo = 114 (0.15308,0.30616,0.30616) ==
 == 503-th k-point nmo = 114 (0.22962,0.38270,0.22962) ==
 == 504-th k-point nmo = 114 (-0.22962,-0.22962,0.84195) ==
 == 505-th k-point nmo = 114 (-0.15308,-0.15308,0.76541) ==
 == 506-th k-point nmo = 114 (-0.07654,-0.07654,0.68887) ==
 == 507-th k-point nmo = 114 (0.00000,0.00000,0.61232) ==
 == 508-th k-point nmo = 114 (0.07654,0.07654,0.53578) ==
 == 509-th k-point nmo = 114 (0.15308,0.15308,0.45924) ==
 == 510-th k-point nmo = 114 (0.22962,0.22962,0.38270) ==
 == 511-th k-point nmo = 114 (0.30616,0.30616,0.30616) ==

 Generate autoSAD guess
backing up fragment data
Atom # 0: si, charge: 0, multiplicity: 3.000000
writing autosad to fragment context
Settings for isolated fragments: 
  frgm_gamma: TRUE
  frgm_center: FALSE

    Running SCF for isolated atom #0
    Fragment Input file: /n/netscratch/joonholee_lab/Lab/hieudinh//si_2_ccpvqz_omega_0.3_888.scratch20250909033849/autosad_frgmt_0/frgmt_input.in
    Fragment Output file: /n/netscratch/joonholee_lab/Lab/hieudinh//si_2_ccpvqz_omega_0.3_888.scratch20250909033849/autosad_frgmt_0/frgmt_job.out
    Fragment job begins at Tue Sep  9 03:38:58 2025

 Integrated density by DFT XC:
   Numerical integral  =    13.999999643759
   Relative error      =     0.0000025446 %
Final energy components:
 DFT Correlation            Energy =  -0.48370207231611
 DFT Exchange               Energy = -20.13940840112206
 Kinetic (alpha)            Energy = 145.05483363964686
 Kinetic (beta)             Energy = 143.11842945473236
 Nuclear Attraction (alpha) Energy = -351.06191315317733
 Nuclear Attraction (beta)  Energy = -337.54515075030338
 Nuclear Repulsion          Energy =   0.00000000000000
 SEOQF                      Energy =  -0.00000000010144
 Total Coulomb              Energy = 131.82731983024391
----------------------------------------------
    SCF Energy: -289.2295914524
   Total fragment job time:  0.51 s.
restoring fragment data

 ------------------------------------------------------------------------
 Allocate 355279392 B from available memory: 1048461669344 B
 Time for generating SCF guess: 0.64 s

 Allocate 97424 B from available memory: 1048106389952 B
 Selected algorithms for each term:
  kpts_kinetic -> @0x153370ea4680
  kpts_nn -> @0x153370ea4800
  kpts_rij_bigmem -> @0x153370ea43e0
  kpts_vnuc_df -> @0x153370ea4380
  kpts_xc -> @0x153370ea42c0
 Time for computing kinetic matrix is 4.00 s
Start calculating Vnuc CC type!
 Time for computing nuclear attraction matrix is 7.31 s
Compute (P|Q) and use solve on the fly!
Maximum distance between P and Q is 36.52149537122924
Number of images for (P|Qn) is 1633
 Time for computing 2e2c SR integral is 0.22 s
Maximum dynamic memory per thread for 2e3c SR integrals: 0.211 GiB
Batch size for basis function pair is 7291 out of 7291
 === bvk cell = 0 has 100.000 % of the basis function pairs === 
 === bvk cell = 1 has 93.430 % of the basis function pairs === 
 === bvk cell = 2 has 44.644 % of the basis function pairs === 
 === bvk cell = 3 has 10.849 % of the basis function pairs === 
 === bvk cell = 4 has 0.960 % of the basis function pairs === 
 === bvk cell = 5 has 9.244 % of the basis function pairs === 
 === bvk cell = 6 has 39.240 % of the basis function pairs === 
 === bvk cell = 7 has 90.111 % of the basis function pairs === 
 === bvk cell = 8 has 93.430 % of the basis function pairs === 
 === bvk cell = 9 has 60.458 % of the basis function pairs === 
 === bvk cell = 10 has 19.750 % of the basis function pairs === 
 === bvk cell = 11 has 3.593 % of the basis function pairs === 
 === bvk cell = 12 has 1.413 % of the basis function pairs === 
 === bvk cell = 13 has 16.157 % of the basis function pairs === 
 === bvk cell = 14 has 51.543 % of the basis function pairs === 
 === bvk cell = 15 has 96.914 % of the basis function pairs === 
 === bvk cell = 16 has 44.644 % of the basis function pairs === 
 === bvk cell = 17 has 19.750 % of the basis function pairs === 
 === bvk cell = 18 has 4.855 % of the basis function pairs === 
 === bvk cell = 19 has 0.178 % of the basis function pairs === 
 === bvk cell = 20 has 2.208 % of the basis function pairs === 
 === bvk cell = 21 has 14.923 % of the basis function pairs === 
 === bvk cell = 22 has 39.226 % of the basis function pairs === 
 === bvk cell = 23 has 54.629 % of the basis function pairs === 
 === bvk cell = 24 has 10.849 % of the basis function pairs === 
 === bvk cell = 25 has 3.593 % of the basis function pairs === 
 === bvk cell = 26 has 0.178 % of the basis function pairs === 
 === bvk cell = 27 has 0.000 % of the basis function pairs === 
 === bvk cell = 28 has 0.782 % of the basis function pairs === 
 === bvk cell = 29 has 10.890 % of the basis function pairs === 
 === bvk cell = 30 has 15.403 % of the basis function pairs === 
 === bvk cell = 31 has 17.432 % of the basis function pairs === 
 === bvk cell = 32 has 0.960 % of the basis function pairs === 
 === bvk cell = 33 has 1.413 % of the basis function pairs === 
 === bvk cell = 34 has 2.208 % of the basis function pairs === 
 === bvk cell = 35 has 0.782 % of the basis function pairs === 
 === bvk cell = 36 has 0.453 % of the basis function pairs === 
 === bvk cell = 37 has 0.782 % of the basis function pairs === 
 === bvk cell = 38 has 2.729 % of the basis function pairs === 
 === bvk cell = 39 has 1.948 % of the basis function pairs === 
 === bvk cell = 40 has 9.244 % of the basis function pairs === 
 === bvk cell = 41 has 16.157 % of the basis function pairs === 
 === bvk cell = 42 has 14.923 % of the basis function pairs === 
 === bvk cell = 43 has 10.890 % of the basis function pairs === 
 === bvk cell = 44 has 0.782 % of the basis function pairs === 
 === bvk cell = 45 has 0.000 % of the basis function pairs === 
 === bvk cell = 46 has 0.165 % of the basis function pairs === 
 === bvk cell = 47 has 2.441 % of the basis function pairs === 
 === bvk cell = 48 has 39.240 % of the basis function pairs === 
 === bvk cell = 49 has 51.543 % of the basis function pairs === 
 === bvk cell = 50 has 39.226 % of the basis function pairs === 
 === bvk cell = 51 has 15.403 % of the basis function pairs === 
 === bvk cell = 52 has 2.729 % of the basis function pairs === 
 === bvk cell = 53 has 0.165 % of the basis function pairs === 
 === bvk cell = 54 has 3.717 % of the basis function pairs === 
 === bvk cell = 55 has 16.349 % of the basis function pairs === 
 === bvk cell = 56 has 90.111 % of the basis function pairs === 
 === bvk cell = 57 has 96.914 % of the basis function pairs === 
 === bvk cell = 58 has 54.629 % of the basis function pairs === 
 === bvk cell = 59 has 17.432 % of the basis function pairs === 
 === bvk cell = 60 has 1.948 % of the basis function pairs === 
 === bvk cell = 61 has 2.441 % of the basis function pairs === 
 === bvk cell = 62 has 16.349 % of the basis function pairs === 
 === bvk cell = 63 has 53.038 % of the basis function pairs === 
 === bvk cell = 64 has 93.430 % of the basis function pairs === 
 === bvk cell = 65 has 60.458 % of the basis function pairs === 
 === bvk cell = 66 has 19.750 % of the basis function pairs === 
 === bvk cell = 67 has 3.593 % of the basis function pairs === 
 === bvk cell = 68 has 1.413 % of the basis function pairs === 
 === bvk cell = 69 has 16.157 % of the basis function pairs === 
 === bvk cell = 70 has 51.543 % of the basis function pairs === 
 === bvk cell = 71 has 96.914 % of the basis function pairs === 
 === bvk cell = 72 has 60.458 % of the basis function pairs === 
 === bvk cell = 73 has 27.212 % of the basis function pairs === 
 === bvk cell = 74 has 5.651 % of the basis function pairs === 
 === bvk cell = 75 has 0.219 % of the basis function pairs === 
 === bvk cell = 76 has 3.497 % of the basis function pairs === 
 === bvk cell = 77 has 19.051 % of the basis function pairs === 
 === bvk cell = 78 has 52.462 % of the basis function pairs === 
 === bvk cell = 79 has 79.756 % of the basis function pairs === 
 === bvk cell = 80 has 19.750 % of the basis function pairs === 
 === bvk cell = 81 has 5.651 % of the basis function pairs === 
 === bvk cell = 82 has 0.631 % of the basis function pairs === 
 === bvk cell = 83 has 0.288 % of the basis function pairs === 
 === bvk cell = 84 has 2.551 % of the basis function pairs === 
 === bvk cell = 85 has 15.019 % of the basis function pairs === 
 === bvk cell = 86 has 28.940 % of the basis function pairs === 
 === bvk cell = 87 has 32.972 % of the basis function pairs === 
 === bvk cell = 88 has 3.593 % of the basis function pairs === 
 === bvk cell = 89 has 0.219 % of the basis function pairs === 
 === bvk cell = 90 has 0.288 % of the basis function pairs === 
 === bvk cell = 91 has 0.000 % of the basis function pairs === 
 === bvk cell = 92 has 0.576 % of the basis function pairs === 
 === bvk cell = 93 has 8.723 % of the basis function pairs === 
 === bvk cell = 94 has 10.300 % of the basis function pairs === 
 === bvk cell = 95 has 9.546 % of the basis function pairs === 
 === bvk cell = 96 has 1.413 % of the basis function pairs === 
 === bvk cell = 97 has 3.497 % of the basis function pairs === 
 === bvk cell = 98 has 2.551 % of the basis function pairs === 
 === bvk cell = 99 has 0.576 % of the basis function pairs === 
 === bvk cell = 100 has 0.370 % of the basis function pairs === 
 === bvk cell = 101 has 0.507 % of the basis function pairs === 
 === bvk cell = 102 has 0.713 % of the basis function pairs === 
 === bvk cell = 103 has 0.466 % of the basis function pairs === 
 === bvk cell = 104 has 16.157 % of the basis function pairs === 
 === bvk cell = 105 has 19.051 % of the basis function pairs === 
 === bvk cell = 106 has 15.019 % of the basis function pairs === 
 === bvk cell = 107 has 8.723 % of the basis function pairs === 
 === bvk cell = 108 has 0.507 % of the basis function pairs === 
 === bvk cell = 109 has 0.000 % of the basis function pairs === 
 === bvk cell = 110 has 0.686 % of the basis function pairs === 
 === bvk cell = 111 has 8.078 % of the basis function pairs === 
 === bvk cell = 112 has 51.543 % of the basis function pairs === 
 === bvk cell = 113 has 52.462 % of the basis function pairs === 
 === bvk cell = 114 has 28.940 % of the basis function pairs === 
 === bvk cell = 115 has 10.300 % of the basis function pairs === 
 === bvk cell = 116 has 0.713 % of the basis function pairs === 
 === bvk cell = 117 has 0.686 % of the basis function pairs === 
 === bvk cell = 118 has 9.244 % of the basis function pairs === 
 === bvk cell = 119 has 28.254 % of the basis function pairs === 
 === bvk cell = 120 has 96.914 % of the basis function pairs === 
 === bvk cell = 121 has 79.756 % of the basis function pairs === 
 === bvk cell = 122 has 32.972 % of the basis function pairs === 
 === bvk cell = 123 has 9.546 % of the basis function pairs === 
 === bvk cell = 124 has 0.466 % of the basis function pairs === 
 === bvk cell = 125 has 8.078 % of the basis function pairs === 
 === bvk cell = 126 has 28.254 % of the basis function pairs === 
 === bvk cell = 127 has 76.231 % of the basis function pairs === 
 === bvk cell = 128 has 44.644 % of the basis function pairs === 
 === bvk cell = 129 has 19.750 % of the basis function pairs === 
 === bvk cell = 130 has 4.855 % of the basis function pairs === 
 === bvk cell = 131 has 0.178 % of the basis function pairs === 
 === bvk cell = 132 has 2.208 % of the basis function pairs === 
 === bvk cell = 133 has 14.923 % of the basis function pairs === 
 === bvk cell = 134 has 39.226 % of the basis function pairs === 
 === bvk cell = 135 has 54.629 % of the basis function pairs === 
 === bvk cell = 136 has 19.750 % of the basis function pairs === 
 === bvk cell = 137 has 5.651 % of the basis function pairs === 
 === bvk cell = 138 has 0.631 % of the basis function pairs === 
 === bvk cell = 139 has 0.288 % of the basis function pairs === 
 === bvk cell = 140 has 2.551 % of the basis function pairs === 
 === bvk cell = 141 has 15.019 % of the basis function pairs === 
 === bvk cell = 142 has 28.940 % of the basis function pairs === 
 === bvk cell = 143 has 32.972 % of the basis function pairs === 
 === bvk cell = 144 has 4.855 % of the basis function pairs === 
 === bvk cell = 145 has 0.631 % of the basis function pairs === 
 === bvk cell = 146 has 0.000 % of the basis function pairs === 
 === bvk cell = 147 has 0.247 % of the basis function pairs === 
 === bvk cell = 148 has 1.728 % of the basis function pairs === 
 === bvk cell = 149 has 10.259 % of the basis function pairs === 
 === bvk cell = 150 has 13.043 % of the basis function pairs === 
 === bvk cell = 151 has 10.849 % of the basis function pairs === 
 === bvk cell = 152 has 0.178 % of the basis function pairs === 
 === bvk cell = 153 has 0.288 % of the basis function pairs === 
 === bvk cell = 154 has 0.247 % of the basis function pairs === 
 === bvk cell = 155 has 0.000 % of the basis function pairs === 
 === bvk cell = 156 has 0.507 % of the basis function pairs === 
 === bvk cell = 157 has 1.138 % of the basis function pairs === 
 === bvk cell = 158 has 1.948 % of the basis function pairs === 
 === bvk cell = 159 has 1.070 % of the basis function pairs === 
 === bvk cell = 160 has 2.208 % of the basis function pairs === 
 === bvk cell = 161 has 2.551 % of the basis function pairs === 
 === bvk cell = 162 has 1.728 % of the basis function pairs === 
 === bvk cell = 163 has 0.507 % of the basis function pairs === 
 === bvk cell = 164 has 0.000 % of the basis function pairs === 
 === bvk cell = 165 has 0.123 % of the basis function pairs === 
 === bvk cell = 166 has 0.123 % of the basis function pairs === 
 === bvk cell = 167 has 0.576 % of the basis function pairs === 
 === bvk cell = 168 has 14.923 % of the basis function pairs === 
 === bvk cell = 169 has 15.019 % of the basis function pairs === 
 === bvk cell = 170 has 10.259 % of the basis function pairs === 
 === bvk cell = 171 has 1.138 % of the basis function pairs === 
 === bvk cell = 172 has 0.123 % of the basis function pairs === 
 === bvk cell = 173 has 0.041 % of the basis function pairs === 
 === bvk cell = 174 has 1.413 % of the basis function pairs === 
 === bvk cell = 175 has 9.080 % of the basis function pairs === 
 === bvk cell = 176 has 39.226 % of the basis function pairs === 
 === bvk cell = 177 has 28.940 % of the basis function pairs === 
 === bvk cell = 178 has 13.043 % of the basis function pairs === 
 === bvk cell = 179 has 1.948 % of the basis function pairs === 
 === bvk cell = 180 has 0.123 % of the basis function pairs === 
 === bvk cell = 181 has 1.413 % of the basis function pairs === 
 === bvk cell = 182 has 11.960 % of the basis function pairs === 
 === bvk cell = 183 has 26.622 % of the basis function pairs === 
 === bvk cell = 184 has 54.629 % of the basis function pairs === 
 === bvk cell = 185 has 32.972 % of the basis function pairs === 
 === bvk cell = 186 has 10.849 % of the basis function pairs === 
 === bvk cell = 187 has 1.070 % of the basis function pairs === 
 === bvk cell = 188 has 0.576 % of the basis function pairs === 
 === bvk cell = 189 has 9.080 % of the basis function pairs === 
 === bvk cell = 190 has 26.622 % of the basis function pairs === 
 === bvk cell = 191 has 52.462 % of the basis function pairs === 
 === bvk cell = 192 has 10.849 % of the basis function pairs === 
 === bvk cell = 193 has 3.593 % of the basis function pairs === 
 === bvk cell = 194 has 0.178 % of the basis function pairs === 
 === bvk cell = 195 has 0.000 % of the basis function pairs === 
 === bvk cell = 196 has 0.782 % of the basis function pairs === 
 === bvk cell = 197 has 10.890 % of the basis function pairs === 
 === bvk cell = 198 has 15.403 % of the basis function pairs === 
 === bvk cell = 199 has 17.432 % of the basis function pairs === 
 === bvk cell = 200 has 3.593 % of the basis function pairs === 
 === bvk cell = 201 has 0.219 % of the basis function pairs === 
 === bvk cell = 202 has 0.288 % of the basis function pairs === 
 === bvk cell = 203 has 0.000 % of the basis function pairs === 
 === bvk cell = 204 has 0.576 % of the basis function pairs === 
 === bvk cell = 205 has 8.723 % of the basis function pairs === 
 === bvk cell = 206 has 10.300 % of the basis function pairs === 
[...]
 -0.08884 0.07415 0.13654 0.22594 0.36670 0.45275 0.46612 0.50214 0.51723 0.63180
 0.74224 0.76674 0.77191 0.89162 0.91680 0.92421 0.97197 1.07115 1.08920 1.16842
 1.20290 1.21971 1.27351 1.28381 1.31938 1.36291 1.41205 1.45448 1.56413 1.56850
 1.63670 1.66741 1.69153 1.69398 1.71500 1.71996 1.76647 1.88122 1.94728 1.98417
 2.00993 2.04020 2.11253 2.15807 2.21233 2.21823 2.26299 2.35053 2.35977 2.44714
 2.47155 2.49321 2.49666 2.52403 2.57397 2.57963 2.59640 2.75887 2.77224 2.81422
 2.83563 2.87093 2.88644 2.91980 2.94343 2.98619 3.08007 3.11218 3.12253 3.15820
 3.19764 3.30809 3.33817 3.38133 3.38571 3.40321 3.40946 3.42337 3.48156 3.48350
 3.48803 3.48978 3.63780 3.67609 3.70836 3.74617 3.79613 3.82981 3.91674 3.94427
 4.09008 4.14587 4.23783 4.35324 4.52605 4.60983 7.77117 8.28900 8.29956 9.00124
 9.32530 9.85880 13.08441 14.28212
 == 494-th k-point (0.07654,0.38270,0.22962) occupation: 14==
 -65.00561 -65.00561 -4.62777 -4.62764 -3.03963 -3.03961 -3.03942 -3.03909 -3.03891 -3.03888
 -0.08243 0.06073 0.15261 0.20377 0.38233 0.40748 0.46165 0.49604 0.61118 0.63564
 0.71938 0.75607 0.80226 0.83822 0.91549 0.95449 0.98710 1.05838 1.09304 1.12303
 1.18190 1.23573 1.25112 1.28879 1.35166 1.38532 1.44305 1.44718 1.50186 1.52860
 1.58824 1.61732 1.65463 1.74665 1.75949 1.82166 1.83633 1.88303 1.91643 1.97925
 2.02998 2.04409 2.08257 2.14222 2.17063 2.19833 2.26644 2.34687 2.35069 2.40309
 2.43597 2.44983 2.49707 2.56244 2.58869 2.61419 2.67310 2.75366 2.78561 2.82500
 2.83212 2.88157 2.89653 2.93084 2.95981 2.97768 3.01584 3.08568 3.12067 3.16868
 3.20293 3.29134 3.30219 3.30342 3.35216 3.38742 3.42510 3.45908 3.49184 3.50163
 3.54262 3.59574 3.63747 3.68657 3.73303 3.75168 3.79438 3.85308 3.90870 3.96916
 4.09067 4.11357 4.24249 4.33263 4.53193 4.59525 8.00759 8.21870 8.33247 9.05677
 9.61413 10.05810 13.16539 14.26106
 == 495-th k-point (0.15308,0.45924,0.15308) occupation: 14==
 -65.00561 -65.00561 -4.62775 -4.62765 -3.03963 -3.03962 -3.03939 -3.03912 -3.03891 -3.03888
 -0.06400 0.04088 0.14472 0.19348 0.33224 0.44063 0.48818 0.49553 0.65289 0.66961
 0.72939 0.74549 0.75523 0.90011 0.93692 0.96874 0.99368 1.00670 1.01751 1.12480
 1.16484 1.21136 1.22864 1.32201 1.35779 1.36943 1.37176 1.44748 1.49938 1.56350
 1.60344 1.63905 1.67005 1.68447 1.71745 1.81676 1.90726 1.92953 1.93724 1.99287
 2.01731 2.04354 2.08083 2.13674 2.16470 2.19988 2.28273 2.31836 2.32877 2.37178
 2.44972 2.46065 2.50189 2.51836 2.61374 2.61572 2.65895 2.74207 2.79478 2.81329
 2.83905 2.90353 2.93271 2.95212 2.95854 3.02429 3.03496 3.05240 3.08349 3.12957
 3.15787 3.23439 3.31624 3.32482 3.33828 3.34895 3.35794 3.43708 3.49611 3.50552
 3.56514 3.65327 3.65637 3.71687 3.72009 3.79005 3.80060 3.84771 3.87732 3.98499
 4.07397 4.21011 4.25243 4.29402 4.55824 4.56786 8.10091 8.34164 8.40298 8.85908
 9.77668 9.94114 13.16074 14.19024
 == 496-th k-point (-0.30616,-0.15308,0.76541) occupation: 14==
 -65.00561 -65.00561 -4.62775 -4.62765 -3.03963 -3.03962 -3.03940 -3.03911 -3.03890 -3.03887
 -0.05831 0.02578 0.14794 0.19524 0.38959 0.39174 0.49503 0.54026 0.54884 0.66970
 0.70811 0.73412 0.85015 0.85634 0.94869 0.96362 1.00248 1.05214 1.05760 1.10001
 1.20717 1.21554 1.22239 1.26074 1.33437 1.38649 1.40080 1.43604 1.48288 1.49950
 1.57917 1.59729 1.65877 1.75011 1.76515 1.81109 1.87394 1.94088 1.95670 1.97608
 2.04824 2.05765 2.12555 2.17492 2.19140 2.23074 2.29646 2.31524 2.33366 2.34969
 2.42897 2.44206 2.47279 2.47923 2.57276 2.63632 2.72969 2.73954 2.78712 2.84361
 2.86661 2.88341 2.90972 2.95309 2.97172 2.98391 3.03297 3.07006 3.09394 3.15035
 3.21136 3.23128 3.24599 3.27277 3.32525 3.37834 3.42729 3.47076 3.47453 3.52575
 3.53703 3.58971 3.64079 3.65643 3.70034 3.74957 3.82320 3.86617 3.88119 4.01081
 4.01932 4.14889 4.25104 4.26681 4.51764 4.54909 8.22131 8.39077 8.40425 8.85722
 9.20537 9.87454 13.13623 14.45557
 == 497-th k-point (-0.22962,-0.07654,0.68887) occupation: 14==
 -65.00561 -65.00561 -4.62773 -4.62768 -3.03964 -3.03963 -3.03933 -3.03918 -3.03889 -3.03887
 -0.03638 0.02090 0.12513 0.16568 0.36427 0.43441 0.47111 0.55106 0.58801 0.68880
 0.72910 0.80262 0.84746 0.87122 0.92611 0.95575 0.97438 1.00124 1.05850 1.08576
 1.12382 1.17264 1.20335 1.30034 1.32701 1.35913 1.43191 1.45280 1.48137 1.50275
 1.57830 1.64699 1.71258 1.75978 1.77741 1.81950 1.87574 1.89224 1.89630 1.97996
 2.00135 2.08005 2.11174 2.17912 2.19951 2.25833 2.28989 2.31578 2.33014 2.35773
 2.40608 2.45585 2.48992 2.54063 2.59493 2.65080 2.68098 2.72504 2.79460 2.81741
 2.84588 2.88244 2.92496 2.94718 2.99864 3.00970 3.04010 3.06135 3.11096 3.12779
 3.20389 3.23866 3.27729 3.31926 3.34177 3.39824 3.41002 3.41929 3.45219 3.48331
 3.53228 3.58667 3.61964 3.66420 3.68327 3.71618 3.79852 3.87648 3.96123 3.97929
 4.07161 4.17254 4.25649 4.27573 4.55881 4.58990 8.25124 8.41716 8.54585 8.75059
 9.45344 9.81832 13.36675 13.99785
 == 498-th k-point (-0.15308,0.00000,0.61232) occupation: 14==
 -65.00561 -65.00561 -4.62770 -4.62770 -3.03964 -3.03964 -3.03925 -3.03925 -3.03888 -3.03888
 -0.00870 -0.00870 0.14881 0.14881 0.34883 0.34883 0.56635 0.56635 0.66952 0.66952
 0.75362 0.75363 0.85471 0.85471 0.92038 0.92038 0.98065 0.98065 1.08404 1.08404
 1.13078 1.13078 1.17223 1.17223 1.40883 1.40883 1.48733 1.48733 1.49628 1.49628
 1.63806 1.63806 1.72154 1.72154 1.76924 1.76924 1.85259 1.85259 1.89686 1.89686
 2.04551 2.04551 2.16767 2.16767 2.23389 2.23389 2.29741 2.29741 2.33988 2.33988
 2.45332 2.45332 2.48454 2.48454 2.63573 2.63573 2.73850 2.73850 2.76526 2.76526
 2.86216 2.86216 2.92738 2.92738 2.97782 2.97782 3.05845 3.05845 3.13463 3.13463
 3.21754 3.21754 3.27821 3.27821 3.33801 3.33801 3.36843 3.36843 3.51364 3.51364
 3.57575 3.57575 3.62304 3.62304 3.72371 3.72371 3.90861 3.90861 3.99474 3.99474
 4.20637 4.20637 4.31100 4.31100 4.60109 4.60109 8.32946 8.32946 8.62834 8.62834
 9.76959 9.76959 13.41724 13.41724
 == 499-th k-point (-0.07654,0.07654,0.53578) occupation: 14==
 -65.00561 -65.00561 -4.62773 -4.62768 -3.03964 -3.03964 -3.03931 -3.03918 -3.03889 -3.03889
 -0.04296 0.02470 0.14811 0.17581 0.30913 0.34876 0.58229 0.58487 0.67477 0.67963
 0.73644 0.75055 0.82713 0.83457 0.86519 0.96457 0.97574 0.99508 1.04514 1.10100
 1.12023 1.15118 1.17548 1.24519 1.36852 1.40504 1.48074 1.50841 1.51060 1.56321
 1.62575 1.66381 1.69214 1.71946 1.76588 1.78073 1.79268 1.86743 1.87558 1.91741
 1.99750 2.07574 2.11614 2.14875 2.17203 2.24402 2.25730 2.34105 2.35219 2.38556
 2.44003 2.44639 2.50049 2.52231 2.55733 2.61542 2.70000 2.75895 2.79671 2.82017
 2.84058 2.89053 2.91526 2.95651 2.95934 2.98585 3.03838 3.04364 3.09154 3.12425
 3.22515 3.24225 3.24638 3.30785 3.31374 3.32819 3.37540 3.43003 3.50378 3.52207
 3.54634 3.57506 3.65379 3.65897 3.71601 3.74163 3.90302 3.91785 3.97141 4.07894
 4.19194 4.26609 4.30601 4.34317 4.60116 4.61801 8.13884 8.44433 8.52792 8.63237
 9.74492 10.07746 13.33484 13.45414
 == 500-th k-point (0.00000,0.15308,0.45924) occupation: 14==
 -65.00561 -65.00561 -4.62775 -4.62765 -3.03963 -3.03963 -3.03937 -3.03913 -3.03890 -3.03890
 -0.06866 0.05656 0.15088 0.17308 0.34778 0.37402 0.48891 0.57185 0.65459 0.65507
 0.75311 0.77421 0.79941 0.81650 0.89202 0.91270 1.00040 1.01890 1.08560 1.09290
 1.14544 1.18515 1.25130 1.30057 1.33732 1.36587 1.47083 1.50138 1.50195 1.53520
 1.53727 1.67512 1.72779 1.73835 1.78803 1.80319 1.83176 1.85499 1.89673 1.92417
 2.01910 2.04213 2.07224 2.15040 2.15429 2.20721 2.21143 2.33659 2.36100 2.42612
 2.43609 2.46118 2.52511 2.58237 2.58360 2.60983 2.62423 2.76222 2.78562 2.83535
 2.87604 2.90073 2.90572 2.91172 2.94949 2.99863 3.01519 3.05732 3.07917 3.12642
 3.19090 3.25662 3.31690 3.33013 3.35195 3.38925 3.41714 3.43809 3.50321 3.51022
 3.53435 3.54181 3.65638 3.66208 3.70584 3.72083 3.87839 3.90107 3.97591 4.04465
 4.13158 4.16146 4.27868 4.33723 4.57931 4.61577 8.12152 8.25891 8.31178 8.86360
 10.15370 10.25728 13.31851 13.61842
 == 501-th k-point (0.07654,0.22962,0.38270) occupation: 14==
 -65.00561 -65.00561 -4.62777 -4.62764 -3.03963 -3.03961 -3.03942 -3.03909 -3.03891 -3.03888
 -0.08243 0.06073 0.15261 0.20377 0.38233 0.40748 0.46165 0.49604 0.61118 0.63564
 0.71938 0.75607 0.80226 0.83822 0.91549 0.95449 0.98710 1.05838 1.09304 1.12303
 1.18190 1.23573 1.25112 1.28879 1.35166 1.38532 1.44305 1.44718 1.50186 1.52860
 1.58824 1.61732 1.65463 1.74665 1.75949 1.82166 1.83633 1.88303 1.91643 1.97925
 2.02998 2.04409 2.08257 2.14222 2.17063 2.19833 2.26644 2.34687 2.35069 2.40309
 2.43597 2.44983 2.49707 2.56244 2.58869 2.61419 2.67310 2.75366 2.78561 2.82500
 2.83212 2.88157 2.89653 2.93084 2.95981 2.97768 3.01584 3.08568 3.12067 3.16868
 3.20293 3.29134 3.30219 3.30342 3.35216 3.38742 3.42510 3.45908 3.49184 3.50163
 3.54262 3.59574 3.63747 3.68657 3.73303 3.75168 3.79438 3.85308 3.90870 3.96916
 4.09067 4.11357 4.24249 4.33263 4.53193 4.59525 8.00759 8.21870 8.33247 9.05677
 9.61413 10.05810 13.16539 14.26106
 == 502-th k-point (0.15308,0.30616,0.30616) occupation: 14==
 -65.00561 -65.00560 -4.62777 -4.62763 -3.03962 -3.03961 -3.03946 -3.03906 -3.03890 -3.03889
 -0.08400 0.04069 0.18438 0.22821 0.36355 0.41005 0.41935 0.56704 0.57801 0.61638
 0.68961 0.73795 0.80849 0.81716 0.90423 0.96833 1.04420 1.10075 1.12193 1.12272
 1.19071 1.21871 1.29821 1.31172 1.31878 1.36460 1.40034 1.46095 1.50927 1.53392
 1.54126 1.61466 1.67988 1.71693 1.73860 1.81618 1.82346 1.87003 1.95188 1.99087
 2.06444 2.09039 2.13219 2.15879 2.16538 2.20566 2.30293 2.32997 2.34847 2.38644
 2.42156 2.44096 2.50961 2.55746 2.58536 2.62257 2.72234 2.76847 2.78673 2.79737
 2.82113 2.87845 2.90616 2.94658 2.95006 2.96971 2.97719 3.10090 3.11751 3.13245
 3.16535 3.19631 3.26853 3.35011 3.37048 3.40272 3.45273 3.45461 3.50133 3.53631
 3.58741 3.64302 3.67278 3.67321 3.71864 3.74007 3.75672 3.89779 3.96667 3.97680
 4.02383 4.12265 4.24573 4.33834 4.48294 4.54079 8.02057 8.22804 8.35493 9.22594
 9.35451 9.95824 12.66298 14.57940
 == 503-th k-point (0.22962,0.38270,0.22962) occupation: 14==
 -65.00561 -65.00560 -4.62777 -4.62764 -3.03962 -3.03961 -3.03945 -3.03906 -3.03892 -3.03888
 -0.07495 0.02698 0.19113 0.21724 0.35735 0.40606 0.42809 0.54817 0.60766 0.66850
 0.70139 0.70856 0.73895 0.83307 0.95765 1.00810 1.03201 1.06526 1.09918 1.11076
 1.19630 1.25426 1.25728 1.30692 1.32520 1.38824 1.39732 1.41489 1.50497 1.50508
 1.54453 1.60927 1.67572 1.71795 1.72561 1.80435 1.85303 1.94622 1.96250 2.00802
 2.05925 2.09155 2.11547 2.17544 2.19577 2.24065 2.25177 2.28872 2.32920 2.35027
 2.43125 2.45080 2.50125 2.53847 2.56932 2.67848 2.74636 2.75826 2.77294 2.81183
 2.82447 2.87927 2.89401 2.93342 2.95964 2.96385 3.03494 3.08089 3.09040 3.11377
 3.14326 3.22352 3.23531 3.23538 3.38158 3.42745 3.44233 3.49724 3.53009 3.53759
 3.56904 3.63938 3.65460 3.69239 3.71267 3.77778 3.79372 3.86056 3.94174 3.96452
 4.04151 4.15523 4.25011 4.30043 4.49757 4.49864 8.16817 8.35768 8.37333 9.09924
 9.55741 9.96645 12.62260 14.65288
 == 504-th k-point (-0.22962,-0.22962,0.84195) occupation: 14==
 -65.00561 -65.00560 -4.62777 -4.62764 -3.03962 -3.03961 -3.03945 -3.03906 -3.03892 -3.03888
 -0.07495 0.02698 0.19113 0.21724 0.35735 0.40606 0.42809 0.54817 0.60766 0.66850
 0.70139 0.70856 0.73895 0.83307 0.95765 1.00810 1.03201 1.06526 1.09918 1.11076
 1.19630 1.25426 1.25728 1.30692 1.32520 1.38824 1.39732 1.41489 1.50497 1.50508
 1.54453 1.60927 1.67572 1.71795 1.72561 1.80435 1.85303 1.94622 1.96250 2.00802
 2.05925 2.09155 2.11547 2.17544 2.19577 2.24065 2.25177 2.28872 2.32920 2.35027
 2.43125 2.45080 2.50125 2.53847 2.56932 2.67848 2.74636 2.75826 2.77294 2.81183
 2.82447 2.87927 2.89401 2.93342 2.95964 2.96385 3.03494 3.08089 3.09040 3.11377
 3.14326 3.22352 3.23531 3.23538 3.38158 3.42745 3.44233 3.49724 3.53009 3.53759
 3.56904 3.63938 3.65460 3.69239 3.71267 3.77778 3.79372 3.86056 3.94174 3.96452
 4.04151 4.15523 4.25011 4.30043 4.49757 4.49864 8.16817 8.35768 8.37333 9.09924
 9.55741 9.96645 12.62260 14.65288
 == 505-th k-point (-0.15308,-0.15308,0.76541) occupation: 14==
 -65.00561 -65.00561 -4.62775 -4.62765 -3.03963 -3.03962 -3.03939 -3.03912 -3.03891 -3.03888
 -0.06400 0.04088 0.14472 0.19348 0.33224 0.44063 0.48818 0.49553 0.65289 0.66961
 0.72939 0.74549 0.75523 0.90011 0.93692 0.96874 0.99368 1.00670 1.01751 1.12480
 1.16484 1.21136 1.22864 1.32201 1.35779 1.36943 1.37176 1.44748 1.49938 1.56350
 1.60344 1.63905 1.67005 1.68447 1.71745 1.81676 1.90726 1.92953 1.93724 1.99287
 2.01731 2.04354 2.08083 2.13674 2.16470 2.19988 2.28273 2.31836 2.32877 2.37178
 2.44972 2.46065 2.50189 2.51836 2.61374 2.61572 2.65895 2.74207 2.79478 2.81329
 2.83905 2.90353 2.93271 2.95212 2.95854 3.02429 3.03496 3.05240 3.08349 3.12957
 3.15787 3.23439 3.31624 3.32482 3.33828 3.34895 3.35794 3.43708 3.49611 3.50552
 3.56514 3.65327 3.65637 3.71687 3.72009 3.79005 3.80060 3.84771 3.87732 3.98499
 4.07397 4.21011 4.25243 4.29402 4.55824 4.56786 8.10091 8.34164 8.40298 8.85908
 9.77668 9.94114 13.16074 14.19024
 == 506-th k-point (-0.07654,-0.07654,0.68887) occupation: 14==
 -65.00561 -65.00561 -4.62773 -4.62768 -3.03964 -3.03964 -3.03931 -3.03918 -3.03889 -3.03889
 -0.04296 0.02470 0.14811 0.17581 0.30913 0.34876 0.58229 0.58487 0.67477 0.67963
 0.73644 0.75055 0.82713 0.83457 0.86519 0.96457 0.97574 0.99508 1.04514 1.10100
 1.12023 1.15118 1.17548 1.24519 1.36852 1.40504 1.48074 1.50841 1.51060 1.56321
 1.62575 1.66381 1.69214 1.71946 1.76588 1.78073 1.79268 1.86743 1.87558 1.91741
 1.99750 2.07574 2.11614 2.14875 2.17203 2.24402 2.25730 2.34105 2.35219 2.38556
 2.44003 2.44639 2.50049 2.52231 2.55733 2.61542 2.70000 2.75895 2.79671 2.82017
 2.84058 2.89053 2.91526 2.95651 2.95934 2.98585 3.03838 3.04364 3.09154 3.12425
 3.22515 3.24225 3.24638 3.30785 3.31374 3.32819 3.37540 3.43003 3.50378 3.52207
 3.54634 3.57506 3.65379 3.65897 3.71601 3.74163 3.90302 3.91785 3.97141 4.07894
 4.19194 4.26609 4.30601 4.34317 4.60116 4.61801 8.13884 8.44433 8.52792 8.63237
 9.74492 10.07746 13.33484 13.45414
 == 507-th k-point (0.00000,0.00000,0.61232) occupation: 14==
 -65.00561 -65.00561 -4.62770 -4.62770 -3.03964 -3.03964 -3.03924 -3.03924 -3.03889 -3.03889
 -0.01162 -0.01162 0.16953 0.16953 0.30236 0.30236 0.64794 0.64794 0.68868 0.68868
 0.74438 0.74438 0.75503 0.75503 0.97743 0.97743 1.00279 1.00279 1.02306 1.02306
 1.06991 1.06991 1.23787 1.23787 1.37418 1.37418 1.54472 1.54472 1.58194 1.58194
 1.63098 1.63098 1.69132 1.69132 1.74498 1.74498 1.82814 1.82814 1.85628 1.85628
 2.08221 2.08221 2.09749 2.09749 2.18720 2.18720 2.30494 2.30494 2.43083 2.43083
 2.45552 2.45552 2.50293 2.50293 2.52320 2.52320 2.73711 2.73711 2.77745 2.77745
 2.86856 2.86856 2.98830 2.98830 3.00920 3.00920 3.02673 3.02673 3.08169 3.08169
 3.23382 3.23382 3.25072 3.25072 3.26318 3.26318 3.45946 3.45946 3.49241 3.49241
 3.55768 3.55768 3.64300 3.64300 3.72924 3.72924 3.93758 3.93758 4.06941 4.06941
 4.29194 4.29194 4.35425 4.35425 4.61753 4.61753 8.31777 8.31777 8.62579 8.62579
 9.67358 9.67358 13.41112 13.41112
 == 508-th k-point (0.07654,0.07654,0.53578) occupation: 14==
 -65.00561 -65.00561 -4.62773 -4.62768 -3.03964 -3.03964 -3.03931 -3.03918 -3.03889 -3.03889
 -0.04296 0.02470 0.14811 0.17581 0.30913 0.34876 0.58229 0.58487 0.67477 0.67963
 0.73644 0.75055 0.82713 0.83457 0.86519 0.96457 0.97574 0.99508 1.04514 1.10100
 1.12023 1.15118 1.17548 1.24519 1.36852 1.40504 1.48074 1.50841 1.51060 1.56321
 1.62575 1.66381 1.69214 1.71946 1.76588 1.78073 1.79268 1.86743 1.87558 1.91741
 1.99750 2.07574 2.11614 2.14875 2.17203 2.24402 2.25730 2.34105 2.35219 2.38556
 2.44003 2.44639 2.50049 2.52231 2.55733 2.61542 2.70000 2.75895 2.79671 2.82017
 2.84058 2.89053 2.91526 2.95651 2.95934 2.98585 3.03838 3.04364 3.09154 3.12425
 3.22515 3.24225 3.24638 3.30785 3.31374 3.32819 3.37540 3.43003 3.50378 3.52207
 3.54634 3.57506 3.65379 3.65897 3.71601 3.74163 3.90302 3.91785 3.97141 4.07894
 4.19194 4.26609 4.30601 4.34317 4.60116 4.61801 8.13884 8.44433 8.52792 8.63237
 9.74492 10.07746 13.33484 13.45414
 == 509-th k-point (0.15308,0.15308,0.45924) occupation: 14==
 -65.00561 -65.00561 -4.62775 -4.62765 -3.03963 -3.03962 -3.03939 -3.03912 -3.03891 -3.03888
 -0.06400 0.04088 0.14472 0.19348 0.33224 0.44063 0.48818 0.49553 0.65289 0.66961
 0.72939 0.74549 0.75523 0.90011 0.93692 0.96874 0.99368 1.00670 1.01751 1.12480
 1.16484 1.21136 1.22864 1.32201 1.35779 1.36943 1.37176 1.44748 1.49938 1.56350
 1.60344 1.63905 1.67005 1.68447 1.71745 1.81676 1.90726 1.92953 1.93724 1.99287
 2.01731 2.04354 2.08083 2.13674 2.16470 2.19988 2.28273 2.31836 2.32877 2.37178
 2.44972 2.46065 2.50189 2.51836 2.61374 2.61572 2.65895 2.74207 2.79478 2.81329
 2.83905 2.90353 2.93271 2.95212 2.95854 3.02429 3.03496 3.05240 3.08349 3.12957
 3.15787 3.23439 3.31624 3.32482 3.33828 3.34895 3.35794 3.43708 3.49611 3.50552
 3.56514 3.65327 3.65637 3.71687 3.72009 3.79005 3.80060 3.84771 3.87732 3.98499
 4.07397 4.21011 4.25243 4.29402 4.55824 4.56786 8.10091 8.34164 8.40298 8.85908
 9.77668 9.94114 13.16074 14.19024
 == 510-th k-point (0.22962,0.22962,0.38270) occupation: 14==
 -65.00561 -65.00560 -4.62777 -4.62764 -3.03962 -3.03961 -3.03945 -3.03906 -3.03892 -3.03888
 -0.07495 0.02698 0.19113 0.21724 0.35735 0.40606 0.42809 0.54817 0.60766 0.66850
 0.70139 0.70856 0.73895 0.83307 0.95765 1.00810 1.03201 1.06526 1.09918 1.11076
 1.19630 1.25426 1.25728 1.30692 1.32520 1.38824 1.39732 1.41489 1.50497 1.50508
 1.54453 1.60927 1.67572 1.71795 1.72561 1.80435 1.85303 1.94622 1.96250 2.00802
 2.05925 2.09155 2.11547 2.17544 2.19577 2.24065 2.25177 2.28872 2.32920 2.35027
 2.43125 2.45080 2.50125 2.53847 2.56932 2.67848 2.74636 2.75826 2.77294 2.81183
 2.82447 2.87927 2.89401 2.93342 2.95964 2.96385 3.03494 3.08089 3.09040 3.11377
 3.14326 3.22352 3.23531 3.23538 3.38158 3.42745 3.44233 3.49724 3.53009 3.53759
 3.56904 3.63938 3.65460 3.69239 3.71267 3.77778 3.79372 3.86056 3.94174 3.96452
 4.04151 4.15523 4.25011 4.30043 4.49757 4.49864 8.16817 8.35768 8.37333 9.09924
 9.55741 9.96645 12.62260 14.65288
 == 511-th k-point (0.30616,0.30616,0.30616) occupation: 14==
 -65.00561 -65.00560 -4.62777 -4.62763 -3.03961 -3.03961 -3.03949 -3.03902 -3.03890 -3.03890
 -0.07809 0.01871 0.23066 0.23066 0.33352 0.39991 0.39991 0.55832 0.67262 0.67262
 0.69299 0.69519 0.69519 0.75390 0.99997 1.01494 1.09077 1.09077 1.09453 1.09453
 1.23859 1.26022 1.26022 1.30699 1.30699 1.35743 1.41650 1.49030 1.49030 1.50095
 1.50095 1.58386 1.62552 1.65340 1.87968 1.87968 1.88664 1.90797 1.90797 1.92004
 2.12704 2.12704 2.19134 2.19561 2.19561 2.24481 2.26803 2.26803 2.33171 2.33171
 2.46143 2.46143 2.55501 2.55501 2.60138 2.67922 2.74724 2.77407 2.77407 2.79482
 2.81590 2.81590 2.82822 2.91986 2.95002 2.96175 3.09507 3.09507 3.09730 3.09730
 3.19202 3.19202 3.20983 3.20983 3.31474 3.46466 3.46466 3.55218 3.55490 3.55490
 3.56437 3.66042 3.66042 3.69004 3.73083 3.76022 3.93129 3.93129 3.99919 3.99919
 4.12751 4.14544 4.14544 4.33485 4.43711 4.43711 8.25314 8.25314 8.32995 9.36296
 9.36296 10.00446 11.95029 14.72128
 ---------------------------------------------------------------------------
 VBM is at 219-th k-point with 7.49211 eV
 CBM is at 192-th k-point with 8.12669 eV
 Band gap is 0.63457 eV


           Ground-State Mulliken Net Atomic Charges

      Atom                 Charge (a.u.)          Spin (a.u.)
   --------------------------------------------------------
      1 Si              (-0.000000,-0.000000)    (0.000000,0.000000)
      2 Si                (0.000000,0.000000)    (0.000000,0.000000)
   --------------------------------------------------------
  Sum of atomic charges =      (-0.000000,0.000000)
  Sum of spin   charges =       (0.000000,0.000000)



 Total job time:  848.36 s.
 Tue Sep  9 03:52:58 2025


        *************************************************************
        *                                                           *
        *  Thank you very much for using QCPBC. Have a nice day.    *
        *                                                           *
        *************************************************************

Running job 1 of 1
