                  Welcome to Q-Chem
           with Periodic Boundary Condition
     A Quantum Leap Into The Future Of Chemistry

 Adam Rettig, Xintian Feng, Meng-Fu Chen, Hieu Dinh, Stephen Quiton,
 Anton Ni, Paul J. Robinson, Jinghong Zhang, Joonho Lee

Contributors to earlier versions of Q-Chem not listed above:
 Evgeny Epifanovsky, Leo Cunha, Jerome F. Gonthier, Kuan-Yu Liu
 Input file: /n/netscratch/joonholee_lab/Lab/hieudinh//si_2_ccpvqz_omega_0.6_101010.scratch20250909052658/si_2_ccpvqz_omega_0.6_101010.0
 Scratch folder: /n/netscratch/joonholee_lab/Lab/hieudinh//si_2_ccpvqz_omega_0.6_101010.scratch20250909052658
 Auxillary files located at: /n/holylabs/LABS/joonholee_lab/Lab/qchem_base/qcaux
 Q-Chem begins on Tue Sep  9 05:26:59 2025

 -------------------------------------------------------------
 User input:
 -------------------------------------------------------------
 $lattice
 3
 0.000000 5.130600 5.130600
 5.130600 0.000000 5.130600
 5.130600 5.130600 0.000000
 $end
 
 $unitcell
 ABSOLUTE
 0 1
 Si 0.000000 0.000000 0.000000
 Si 2.565300 2.565300 2.565300
 $end
 
 $rem
 jobtype = sp
 method = pbe
 scf_convergence = 5
 scf_guess = autosad
 scf_algorithm = diis_gdm
 basis = cc-pvqz
 aux_basis = cc-pvqz-jk
 input_bohr = true
 symmetry = false
 rsdf_print_level 1
 is_basis_uctr true
 
 mp_mesh = [10,10,10]
 
 integral_direct true
 bvk_cgto true
 
 thresh 14
 mem_total 1000000
 threads 32
 
 MAX_SCF_CYCLES 500
 madelung = false
 omega 0.6
 do_rij_bigmem true
 automate_g true
 print_level 10
 grid_type_xc 1
 
 thresh_1e2c_sp 1e-14
 thresh_2e3c_bra_ket_sep 1e-10
 thresh_g 1e-12
 $end
 
 -------------------------------------------------------------
 Running PBC job

 Requested Exchange Correlation Functionals: 
  DFT Exchange:  1.00000 pbe_x
  DFT Correlation:  1.00000 pbe_c
 using 32 threads for computing.
 ---------------------------------------------------------------
      Coordinates of Atoms in Central Unit Cell (Angstroms)
    I     Atom         X            Y            Z
 ---------------------------------------------------------------
    1      Si      0.000000     0.000000     0.000000
    2      Si      1.357498     1.357498     1.357498
 ---------------------------------------------------------------
 --------------------------------------------------
              Lattice Vectors (Angstroms)
              X            Y            Z
 --------------------------------------------------
   X       0.000000     2.714997     2.714997
   Y       2.714997     0.000000     2.714997
   Z       2.714997     2.714997     0.000000
 --------------------------------------------------
 --------------------------------------------------
       Reciprocal Lattice Vectors (Angstroms^-1)
              X            Y            Z
 --------------------------------------------------
   X      -1.157126     1.157126     1.157126
   Y       1.157126    -1.157126     1.157126
   Z       1.157126     1.157126    -1.157126
 --------------------------------------------------

 Single point calculation requested

 Hamiltonian contributions:
 List of terms in Hamiltonian: kpts_nn, kpts_kinetic, kpts_vnuc_df, kpts_xc, kpts_rij_bigmem

 K-Points calculation started.

 Basis set information about using solid harmonic (1) or Cartesian (0):
  si : D(1) D(1) D(1) F(1) F(1) G(1) 

 Basis set information about using solid harmonic (1) or Cartesian (0):
  si : D(1) D(1) D(1) D(1) D(1) D(1) D(1) D(1) D(1) F(1) F(1) F(1) F(1) G(1) G(1) H(1) 

 There are 118 basis functions in the central unit cell.
 Print atomic basis of atoms in the central unit cell:
 -------------------------------------------------------------
2 66 134 28

  0.00000000000000e+00  0.00000000000000e+00  0.00000000000000e+00
  2.56530000000000e+00  2.56530000000000e+00  2.56530000000000e+00

  5.13000000000000e+05
  7.68200000000000e+04
  1.74700000000000e+04
  4.93500000000000e+03
  1.60200000000000e+03
  5.74100000000000e+02
  2.21500000000000e+02
  9.05400000000000e+01
  3.87400000000000e+01
  1.69500000000000e+01
  6.45200000000000e+00
  2.87400000000000e+00
  1.25000000000000e+00
  3.59900000000000e-01
  1.69900000000000e-01
  7.06600000000000e-02
  1.12200000000000e+03
  2.66000000000000e+02
  8.59200000000000e+01
  3.23300000000000e+01
  1.33700000000000e+01
  5.80000000000000e+00
  2.55900000000000e+00
  1.12400000000000e+00
  3.98800000000000e-01
  1.53300000000000e-01
  5.72800000000000e-02
  7.60000000000000e-01
  3.02000000000000e-01
  1.20000000000000e-01
  5.41000000000000e-01
  2.12000000000000e-01
  4.61000000000000e-01
  5.13000000000000e+05
  7.68200000000000e+04
  1.74700000000000e+04
  4.93500000000000e+03
  1.60200000000000e+03
  5.74100000000000e+02
  2.21500000000000e+02
  9.05400000000000e+01
  3.87400000000000e+01
  1.69500000000000e+01
  6.45200000000000e+00
  2.87400000000000e+00
  1.25000000000000e+00
  3.59900000000000e-01
  1.69900000000000e-01
  7.06600000000000e-02
  1.12200000000000e+03
  2.66000000000000e+02
  8.59200000000000e+01
  3.23300000000000e+01
  1.33700000000000e+01
  5.80000000000000e+00
  2.55900000000000e+00
  1.12400000000000e+00
  3.98800000000000e-01
  1.53300000000000e-01
  5.72800000000000e-02
  7.60000000000000e-01
  3.02000000000000e-01
  1.20000000000000e-01
  5.41000000000000e-01
  2.12000000000000e-01
  4.61000000000000e-01

  3.56439732356011e-01
  6.67250935594825e-01
  1.15567538346971e+00
  1.89079471139597e+00
  2.92997535092854e+00
  4.25377897422013e+00
  5.53035652706994e+00
  5.88407857713363e+00
  4.26432221020809e+00
  1.46246852660687e+00
  9.90009037975635e-02
 -5.26805361731285e-03
  1.58075269248041e-03
 -9.63604858609034e-02
 -1.80140685379119e-01
 -3.12991611081079e-01
 -5.12013980868736e-01
 -8.03092560139717e-01
 -1.18597193899895e+00
 -1.63453354628192e+00
 -1.94138718043020e+00
 -1.86039340932271e+00
 -9.21642524314205e-01
  4.93552860211257e-01
  9.09065541611183e-01
  3.40430003714153e-01
  4.89002727192571e-02
  9.13245846186842e-02
  1.58921585782757e-01
  2.59526822498432e-01
  4.08347517411705e-01
  6.02266139654795e-01
  8.36774006155092e-01
  9.98775610751853e-01
  9.86583994360998e-01
  5.01500269670235e-01
 -2.91439000418814e-01
 -6.84883633703988e-01
 -4.85138432421684e-01
  3.31166560285492e-01
  1.88605835767988e-01
  9.76765512168845e-02
  4.17977074735086e+00
  5.88843070847456e+00
  7.44317185052013e+00
  8.05001094515016e+00
  6.97099017282640e+00
  4.33955185260449e+00
  1.76355858703549e+00
  3.34437932089088e-01
 -4.09551658476811e+00
 -5.70145272051300e+00
 -7.35388974061730e+00
 -7.93663059323219e+00
 -7.17813870370958e+00
 -4.42768957771269e+00
 -2.05517820096269e+00
 -1.72105843348797e-01
  4.51735295769850e-01
  1.36731249153695e-01
  3.99432914781939e-02
  1.01820035164008e+00
  2.02498404800701e-01
  4.02695370421242e-02
  3.69528803814005e-01
  4.48962571437413e-02
  1.32316184864580e-01
  3.56439732356011e-01
  6.67250935594825e-01
  1.15567538346971e+00
  1.89079471139597e+00
  2.92997535092854e+00
  4.25377897422013e+00
  5.53035652706994e+00
  5.88407857713363e+00
  4.26432221020809e+00
  1.46246852660687e+00
  9.90009037975635e-02
 -5.26805361731285e-03
  1.58075269248041e-03
 -9.63604858609034e-02
 -1.80140685379119e-01
 -3.12991611081079e-01
 -5.12013980868736e-01
 -8.03092560139717e-01
 -1.18597193899895e+00
 -1.63453354628192e+00
 -1.94138718043020e+00
 -1.86039340932271e+00
 -9.21642524314205e-01
  4.93552860211257e-01
  9.09065541611183e-01
  3.40430003714153e-01
  4.89002727192571e-02
  9.13245846186842e-02
  1.58921585782757e-01
  2.59526822498432e-01
  4.08347517411705e-01
  6.02266139654795e-01
  8.36774006155092e-01
  9.98775610751853e-01
  9.86583994360998e-01
  5.01500269670235e-01
 -2.91439000418814e-01
 -6.84883633703988e-01
 -4.85138432421684e-01
  3.31166560285492e-01
  1.88605835767988e-01
  9.76765512168845e-02
  4.17977074735086e+00
  5.88843070847456e+00
  7.44317185052013e+00
  8.05001094515016e+00
  6.97099017282640e+00
  4.33955185260449e+00
  1.76355858703549e+00
  3.34437932089088e-01
 -4.09551658476811e+00
 -5.70145272051300e+00
 -7.35388974061730e+00
 -7.93663059323219e+00
 -7.17813870370958e+00
 -4.42768957771269e+00
 -2.05517820096269e+00
 -1.72105843348797e-01
  4.51735295769850e-01
  1.36731249153695e-01
  3.99432914781939e-02
  1.01820035164008e+00
  2.02498404800701e-01
  4.02695370421242e-02
  3.69528803814005e-01
  4.48962571437413e-02
  1.32316184864580e-01

0 0 0 0 3 3 3
0 0 13 0 26 0 
13 0

0 3 3 13 1 1 1
39 0 
1 0

0 4 4 14 1 1 1
40 0 
1 0

0 5 5 15 1 1 1
41 0 
1 0

0 6 6 16 2 6 6
42 1 50 1 
8 0

0 12 12 24 1 3 3
58 1 
1 0

0 15 15 25 1 3 3
59 1 
1 0

0 18 18 26 1 3 3
60 1 
1 0

0 21 21 27 1 5 6
61 2 
1 1

0 26 26 28 1 5 6
62 2 
1 1

0 31 31 29 1 5 6
63 2 
1 1

0 36 36 30 1 7 10
64 3 
1 1

0 43 43 31 1 7 10
65 3 
1 1

0 50 50 32 1 9 15
66 4 
1 1

1 59 59 33 3 3 3
67 0 80 0 93 0 
13 0

1 62 62 46 1 1 1
106 0 
1 0

1 63 63 47 1 1 1
107 0 
1 0

1 64 64 48 1 1 1
108 0 
1 0

1 65 65 49 2 6 6
109 1 117 1 
8 0

1 71 71 57 1 3 3
125 1 
1 0

1 74 74 58 1 3 3
126 1 
1 0

1 77 77 59 1 3 3
127 1 
1 0

1 80 80 60 1 5 6
128 2 
1 1

1 85 85 61 1 5 6
129 2 
1 1

1 90 90 62 1 5 6
130 2 
1 1

1 95 95 63 1 7 10
131 3 
1 1

1 102 102 64 1 7 10
132 3 
1 1

1 109 109 65 1 9 15
133 4 
1 1

 -------------------------------------------------------------
 Allocate 265256 B from available memory: 1048576000000 B
 There are 2197 image cells after screening.
 There are 2061 image cells for CGTO evaluation after screening.
 Real-Space grid for FFT initialized based on kinetic energy cutoff (eV) = 500.0
 Real-Space grid for FFT: (10,10,10)
 There are 9261 real-space grid points.
 There are 64 batches of real-space grid points. 
 Size of each grid batch is around 128
 Grid for AFT initialized based on kinetic energy cutoff (eV) = 500.0
 Real-Space grid for AFT: (10,10,10)
 There are 9261 real-space grid points.

 There are 5628 atom-centered grid points.

 Spacegroup symmetry group: Fd-3m
 Reducing spacegroup symmetry to symmorphic group: F -4 3 m
 Monkhorst-Pack mesh is [10,10,10]
 There are 1000 k points.
kpoints in Bohr
-0.2449298447 -0.2449298447 -0.2449298447
-0.1836973836 -0.1836973836 -0.3061623059
-0.1224649224 -0.1224649224 -0.3673947671
-0.0612324612 -0.0612324612 -0.4286272283
-0.0000000000 -0.0000000000 -0.4898596895
0.0612324612 0.0612324612 -0.5510921507
0.1224649224 0.1224649224 -0.6123246119
0.1836973836 0.1836973836 -0.6735570730
0.2449298447 0.2449298447 -0.7347895342
0.3061623059 0.3061623059 -0.7960219954
-0.1836973836 -0.3061623059 -0.1836973836
-0.1224649224 -0.2449298447 -0.2449298447
-0.0612324612 -0.1836973836 -0.3061623059
-0.0000000000 -0.1224649224 -0.3673947671
0.0612324612 -0.0612324612 -0.4286272283
0.1224649224 -0.0000000000 -0.4898596895
0.1836973836 0.0612324612 -0.5510921507
0.2449298447 0.1224649224 -0.6123246119
0.3061623059 0.1836973836 -0.6735570730
0.3673947671 0.2449298447 -0.7347895342
-0.1224649224 -0.3673947671 -0.1224649224
-0.0612324612 -0.3061623059 -0.1836973836
-0.0000000000 -0.2449298447 -0.2449298447
0.0612324612 -0.1836973836 -0.3061623059
0.1224649224 -0.1224649224 -0.3673947671
0.1836973836 -0.0612324612 -0.4286272283
0.2449298447 -0.0000000000 -0.4898596895
0.3061623059 0.0612324612 -0.5510921507
0.3673947671 0.1224649224 -0.6123246119
0.4286272283 0.1836973836 -0.6735570730
-0.0612324612 -0.4286272283 -0.0612324612
-0.0000000000 -0.3673947671 -0.1224649224
0.0612324612 -0.3061623059 -0.1836973836
0.1224649224 -0.2449298447 -0.2449298447
0.1836973836 -0.1836973836 -0.3061623059
0.2449298447 -0.1224649224 -0.3673947671
0.3061623059 -0.0612324612 -0.4286272283
0.3673947671 -0.0000000000 -0.4898596895
0.4286272283 0.0612324612 -0.5510921507
0.4898596895 0.1224649224 -0.6123246119
-0.0000000000 -0.4898596895 0.0000000000
0.0612324612 -0.4286272283 -0.0612324612
0.1224649224 -0.3673947671 -0.1224649224
0.1836973836 -0.3061623059 -0.1836973836
0.2449298447 -0.2449298447 -0.2449298447
0.3061623059 -0.1836973836 -0.3061623059
0.3673947671 -0.1224649224 -0.3673947671
0.4286272283 -0.0612324612 -0.4286272283
0.4898596895 -0.0000000000 -0.4898596895
0.5510921507 0.0612324612 -0.5510921507
0.0612324612 -0.5510921507 0.0612324612
0.1224649224 -0.4898596895 -0.0000000000
0.1836973836 -0.4286272283 -0.0612324612
0.2449298447 -0.3673947671 -0.1224649224
0.3061623059 -0.3061623059 -0.1836973836
0.3673947671 -0.2449298447 -0.2449298447
0.4286272283 -0.1836973836 -0.3061623059
0.4898596895 -0.1224649224 -0.3673947671
0.5510921507 -0.0612324612 -0.4286272283
0.6123246119 0.0000000000 -0.4898596895
0.1224649224 -0.6123246119 0.1224649224
0.1836973836 -0.5510921507 0.0612324612
0.2449298447 -0.4898596895 0.0000000000
0.3061623059 -0.4286272283 -0.0612324612
0.3673947671 -0.3673947671 -0.1224649224
0.4286272283 -0.3061623059 -0.1836973836
0.4898596895 -0.2449298447 -0.2449298447
0.5510921507 -0.1836973836 -0.3061623059
0.6123246119 -0.1224649224 -0.3673947671
0.6735570730 -0.0612324612 -0.4286272283
0.1836973836 -0.6735570730 0.1836973836
0.2449298447 -0.6123246119 0.1224649224
0.3061623059 -0.5510921507 0.0612324612
0.3673947671 -0.4898596895 -0.0000000000
0.4286272283 -0.4286272283 -0.0612324612
0.4898596895 -0.3673947671 -0.1224649224
0.5510921507 -0.3061623059 -0.1836973836
0.6123246119 -0.2449298447 -0.2449298447
0.6735570730 -0.1836973836 -0.3061623059
0.7347895342 -0.1224649224 -0.3673947671
0.2449298447 -0.7347895342 0.2449298447
0.3061623059 -0.6735570730 0.1836973836
0.3673947671 -0.6123246119 0.1224649224
0.4286272283 -0.5510921507 0.0612324612
0.4898596895 -0.4898596895 0.0000000000
0.5510921507 -0.4286272283 -0.0612324612
0.6123246119 -0.3673947671 -0.1224649224
0.6735570730 -0.3061623059 -0.1836973836
0.7347895342 -0.2449298447 -0.2449298447
0.7960219954 -0.1836973836 -0.3061623059
0.3061623059 -0.7960219954 0.3061623059
0.3673947671 -0.7347895342 0.2449298447
0.4286272283 -0.6735570730 0.1836973836
0.4898596895 -0.6123246119 0.1224649224
0.5510921507 -0.5510921507 0.0612324612
0.6123246119 -0.4898596895 0.0000000000
0.6735570730 -0.4286272283 -0.0612324612
0.7347895342 -0.3673947671 -0.1224649224
0.7960219954 -0.3061623059 -0.1836973836
0.8572544566 -0.2449298447 -0.2449298447
-0.3061623059 -0.1836973836 -0.1836973836
-0.2449298447 -0.1224649224 -0.2449298447
-0.1836973836 -0.0612324612 -0.3061623059
-0.1224649224 -0.0000000000 -0.3673947671
-0.0612324612 0.0612324612 -0.4286272283
-0.0000000000 0.1224649224 -0.4898596895
0.0612324612 0.1836973836 -0.5510921507
0.1224649224 0.2449298447 -0.6123246119
0.1836973836 0.3061623059 -0.6735570730
0.2449298447 0.3673947671 -0.7347895342
-0.2449298447 -0.2449298447 -0.1224649224
-0.1836973836 -0.1836973836 -0.1836973836
-0.1224649224 -0.1224649224 -0.2449298447
-0.0612324612 -0.0612324612 -0.3061623059
-0.0000000000 -0.0000000000 -0.3673947671
0.0612324612 0.0612324612 -0.4286272283
0.1224649224 0.1224649224 -0.4898596895
0.1836973836 0.1836973836 -0.5510921507
0.2449298447 0.2449298447 -0.6123246119
0.3061623059 0.3061623059 -0.6735570730
-0.1836973836 -0.3061623059 -0.0612324612
-0.1224649224 -0.2449298447 -0.1224649224
-0.0612324612 -0.1836973836 -0.1836973836
-0.0000000000 -0.1224649224 -0.2449298447
0.0612324612 -0.0612324612 -0.3061623059
0.1224649224 -0.0000000000 -0.3673947671
0.1836973836 0.0612324612 -0.4286272283
0.2449298447 0.1224649224 -0.4898596895
0.3061623059 0.1836973836 -0.5510921507
0.3673947671 0.2449298447 -0.6123246119
-0.1224649224 -0.3673947671 0.0000000000
-0.0612324612 -0.3061623059 -0.0612324612
-0.0000000000 -0.2449298447 -0.1224649224
0.0612324612 -0.1836973836 -0.1836973836
0.1224649224 -0.1224649224 -0.2449298447
0.1836973836 -0.0612324612 -0.3061623059
0.2449298447 -0.0000000000 -0.3673947671
0.3061623059 0.0612324612 -0.4286272283
0.3673947671 0.1224649224 -0.4898596895
0.4286272283 0.1836973836 -0.5510921507
-0.0612324612 -0.4286272283 0.0612324612
-0.0000000000 -0.3673947671 0.0000000000
0.0612324612 -0.3061623059 -0.0612324612
0.1224649224 -0.2449298447 -0.1224649224
0.1836973836 -0.1836973836 -0.1836973836
0.2449298447 -0.1224649224 -0.2449298447
0.3061623059 -0.0612324612 -0.3061623059
0.3673947671 0.0000000000 -0.3673947671
0.4286272283 0.0612324612 -0.4286272283
0.4898596895 0.1224649224 -0.4898596895
-0.0000000000 -0.4898596895 0.1224649224
0.0612324612 -0.4286272283 0.0612324612
0.1224649224 -0.3673947671 0.0000000000
0.1836973836 -0.3061623059 -0.0612324612
0.2449298447 -0.2449298447 -0.1224649224
0.3061623059 -0.1836973836 -0.1836973836
0.3673947671 -0.1224649224 -0.2449298447
0.4286272283 -0.0612324612 -0.3061623059
0.4898596895 0.0000000000 -0.3673947671
0.5510921507 0.0612324612 -0.4286272283
0.0612324612 -0.5510921507 0.1836973836
0.1224649224 -0.4898596895 0.1224649224
0.1836973836 -0.4286272283 0.0612324612
0.2449298447 -0.3673947671 0.0000000000
0.3061623059 -0.3061623059 -0.0612324612
0.3673947671 -0.2449298447 -0.1224649224
0.4286272283 -0.1836973836 -0.1836973836
0.4898596895 -0.1224649224 -0.2449298447
0.5510921507 -0.0612324612 -0.3061623059
0.6123246119 0.0000000000 -0.3673947671
0.1224649224 -0.6123246119 0.2449298447
0.1836973836 -0.5510921507 0.1836973836
0.2449298447 -0.4898596895 0.1224649224
0.3061623059 -0.4286272283 0.0612324612
0.3673947671 -0.3673947671 0.0000000000
0.4286272283 -0.3061623059 -0.0612324612
0.4898596895 -0.2449298447 -0.1224649224
0.5510921507 -0.1836973836 -0.1836973836
0.6123246119 -0.1224649224 -0.2449298447
0.6735570730 -0.0612324612 -0.3061623059
0.1836973836 -0.6735570730 0.3061623059
0.2449298447 -0.6123246119 0.2449298447
0.3061623059 -0.5510921507 0.1836973836
0.3673947671 -0.4898596895 0.1224649224
0.4286272283 -0.4286272283 0.0612324612
0.4898596895 -0.3673947671 0.0000000000
0.5510921507 -0.3061623059 -0.0612324612
0.6123246119 -0.2449298447 -0.1224649224
0.6735570730 -0.1836973836 -0.1836973836
0.7347895342 -0.1224649224 -0.2449298447
0.2449298447 -0.7347895342 0.3673947671
0.3061623059 -0.6735570730 0.3061623059
0.3673947671 -0.6123246119 0.2449298447
0.4286272283 -0.5510921507 0.1836973836
0.4898596895 -0.4898596895 0.1224649224
0.5510921507 -0.4286272283 0.0612324612
0.6123246119 -0.3673947671 0.0000000000
0.6735570730 -0.3061623059 -0.0612324612
0.7347895342 -0.2449298447 -0.1224649224
0.7960219954 -0.1836973836 -0.1836973836
-0.3673947671 -0.1224649224 -0.1224649224
-0.3061623059 -0.0612324612 -0.1836973836
-0.2449298447 -0.0000000000 -0.2449298447
-0.1836973836 0.0612324612 -0.3061623059
-0.1224649224 0.1224649224 -0.3673947671
-0.0612324612 0.1836973836 -0.4286272283
-0.0000000000 0.2449298447 -0.4898596895
0.0612324612 0.3061623059 -0.5510921507
0.1224649224 0.3673947671 -0.6123246119
0.1836973836 0.4286272283 -0.6735570730
-0.3061623059 -0.1836973836 -0.0612324612
-0.2449298447 -0.1224649224 -0.1224649224
-0.1836973836 -0.0612324612 -0.1836973836
-0.1224649224 -0.0000000000 -0.2449298447
-0.0612324612 0.0612324612 -0.3061623059
-0.0000000000 0.1224649224 -0.3673947671
0.0612324612 0.1836973836 -0.4286272283
0.1224649224 0.2449298447 -0.4898596895
0.1836973836 0.3061623059 -0.5510921507
0.2449298447 0.3673947671 -0.6123246119
-0.2449298447 -0.2449298447 0.0000000000
-0.1836973836 -0.1836973836 -0.0612324612
-0.1224649224 -0.1224649224 -0.1224649224
-0.0612324612 -0.0612324612 -0.1836973836
-0.0000000000 -0.0000000000 -0.2449298447
0.0612324612 0.0612324612 -0.3061623059
0.1224649224 0.1224649224 -0.3673947671
0.1836973836 0.1836973836 -0.4286272283
0.2449298447 0.2449298447 -0.4898596895
0.3061623059 0.3061623059 -0.5510921507
-0.1836973836 -0.3061623059 0.0612324612
-0.1224649224 -0.2449298447 -0.0000000000
-0.0612324612 -0.1836973836 -0.0612324612
-0.0000000000 -0.1224649224 -0.1224649224
0.0612324612 -0.0612324612 -0.1836973836
0.1224649224 -0.0000000000 -0.2449298447
0.1836973836 0.0612324612 -0.3061623059
0.2449298447 0.1224649224 -0.3673947671
0.3061623059 0.1836973836 -0.4286272283
0.3673947671 0.2449298447 -0.4898596895
-0.1224649224 -0.3673947671 0.1224649224
-0.0612324612 -0.3061623059 0.0612324612
-0.0000000000 -0.2449298447 0.0000000000
0.0612324612 -0.1836973836 -0.0612324612
0.1224649224 -0.1224649224 -0.1224649224
0.1836973836 -0.0612324612 -0.1836973836
0.2449298447 0.0000000000 -0.2449298447
0.3061623059 0.0612324612 -0.3061623059
0.3673947671 0.1224649224 -0.3673947671
0.4286272283 0.1836973836 -0.4286272283
-0.0612324612 -0.4286272283 0.1836973836
-0.0000000000 -0.3673947671 0.1224649224
0.0612324612 -0.3061623059 0.0612324612
0.1224649224 -0.2449298447 -0.0000000000
0.1836973836 -0.1836973836 -0.0612324612
0.2449298447 -0.1224649224 -0.1224649224
0.3061623059 -0.0612324612 -0.1836973836
0.3673947671 0.0000000000 -0.2449298447
0.4286272283 0.0612324612 -0.3061623059
0.4898596895 0.1224649224 -0.3673947671
-0.0000000000 -0.4898596895 0.2449298447
0.0612324612 -0.4286272283 0.1836973836
0.1224649224 -0.3673947671 0.1224649224
0.1836973836 -0.3061623059 0.0612324612
0.2449298447 -0.2449298447 0.0000000000
0.3061623059 -0.1836973836 -0.0612324612
0.3673947671 -0.1224649224 -0.1224649224
0.4286272283 -0.0612324612 -0.1836973836
0.4898596895 0.0000000000 -0.2449298447
0.5510921507 0.0612324612 -0.3061623059
0.0612324612 -0.5510921507 0.3061623059
0.1224649224 -0.4898596895 0.2449298447
0.1836973836 -0.4286272283 0.1836973836
0.2449298447 -0.3673947671 0.1224649224
0.3061623059 -0.3061623059 0.0612324612
0.3673947671 -0.2449298447 0.0000000000
0.4286272283 -0.1836973836 -0.0612324612
0.4898596895 -0.1224649224 -0.1224649224
0.5510921507 -0.0612324612 -0.1836973836
0.6123246119 0.0000000000 -0.2449298447
0.1224649224 -0.6123246119 0.3673947671
0.1836973836 -0.5510921507 0.3061623059
0.2449298447 -0.4898596895 0.2449298447
0.3061623059 -0.4286272283 0.1836973836
0.3673947671 -0.3673947671 0.1224649224
0.4286272283 -0.3061623059 0.0612324612
0.4898596895 -0.2449298447 0.0000000000
0.5510921507 -0.1836973836 -0.0612324612
0.6123246119 -0.1224649224 -0.1224649224
0.6735570730 -0.0612324612 -0.1836973836
0.1836973836 -0.6735570730 0.4286272283
0.2449298447 -0.6123246119 0.3673947671
0.3061623059 -0.5510921507 0.3061623059
0.3673947671 -0.4898596895 0.2449298447
0.4286272283 -0.4286272283 0.1836973836
0.4898596895 -0.3673947671 0.1224649224
0.5510921507 -0.3061623059 0.0612324612
0.6123246119 -0.2449298447 0.0000000000
0.6735570730 -0.1836973836 -0.0612324612
0.7347895342 -0.1224649224 -0.1224649224
-0.4286272283 -0.0612324612 -0.0612324612
-0.3673947671 -0.0000000000 -0.1224649224
-0.3061623059 0.0612324612 -0.1836973836
-0.2449298447 0.1224649224 -0.2449298447
-0.1836973836 0.1836973836 -0.3061623059
-0.1224649224 0.2449298447 -0.3673947671
-0.0612324612 0.3061623059 -0.4286272283
-0.0000000000 0.3673947671 -0.4898596895
0.0612324612 0.4286272283 -0.5510921507
0.1224649224 0.4898596895 -0.6123246119
-0.3673947671 -0.1224649224 0.0000000000
-0.3061623059 -0.0612324612 -0.0612324612
-0.2449298447 -0.0000000000 -0.1224649224
-0.1836973836 0.0612324612 -0.1836973836
-0.1224649224 0.1224649224 -0.2449298447
-0.0612324612 0.1836973836 -0.3061623059
0.0000000000 0.2449298447 -0.3673947671
0.0612324612 0.3061623059 -0.4286272283
0.1224649224 0.3673947671 -0.4898596895
0.1836973836 0.4286272283 -0.5510921507
-0.3061623059 -0.1836973836 0.0612324612
-0.2449298447 -0.1224649224 -0.0000000000
-0.1836973836 -0.0612324612 -0.0612324612
-0.1224649224 -0.0000000000 -0.1224649224
-0.0612324612 0.0612324612 -0.1836973836
-0.0000000000 0.1224649224 -0.2449298447
0.0612324612 0.1836973836 -0.3061623059
0.1224649224 0.2449298447 -0.3673947671
0.1836973836 0.3061623059 -0.4286272283
0.2449298447 0.3673947671 -0.4898596895
-0.2449298447 -0.2449298447 0.1224649224
-0.1836973836 -0.1836973836 0.0612324612
-0.1224649224 -0.1224649224 0.0000000000
-0.0612324612 -0.0612324612 -0.0612324612
-0.0000000000 -0.0000000000 -0.1224649224
0.0612324612 0.0612324612 -0.1836973836
0.1224649224 0.1224649224 -0.2449298447
0.1836973836 0.1836973836 -0.3061623059
0.2449298447 0.2449298447 -0.3673947671
0.3061623059 0.3061623059 -0.4286272283
-0.1836973836 -0.3061623059 0.1836973836
-0.1224649224 -0.2449298447 0.1224649224
-0.0612324612 -0.1836973836 0.0612324612
-0.0000000000 -0.1224649224 0.0000000000
0.0612324612 -0.0612324612 -0.0612324612
0.1224649224 0.0000000000 -0.1224649224
0.1836973836 0.0612324612 -0.1836973836
0.2449298447 0.1224649224 -0.2449298447
0.3061623059 0.1836973836 -0.3061623059
0.3673947671 0.2449298447 -0.3673947671
-0.1224649224 -0.3673947671 0.2449298447
-0.0612324612 -0.3061623059 0.1836973836
-0.0000000000 -0.2449298447 0.1224649224
0.0612324612 -0.1836973836 0.0612324612
0.1224649224 -0.1224649224 0.0000000000
0.1836973836 -0.0612324612 -0.0612324612
0.2449298447 0.0000000000 -0.1224649224
0.3061623059 0.0612324612 -0.1836973836
0.3673947671 0.1224649224 -0.2449298447
0.4286272283 0.1836973836 -0.3061623059
-0.0612324612 -0.4286272283 0.3061623059
-0.0000000000 -0.3673947671 0.2449298447
0.0612324612 -0.3061623059 0.1836973836
0.1224649224 -0.2449298447 0.1224649224
0.1836973836 -0.1836973836 0.0612324612
0.2449298447 -0.1224649224 0.0000000000
0.3061623059 -0.0612324612 -0.0612324612
0.3673947671 0.0000000000 -0.1224649224
0.4286272283 0.0612324612 -0.1836973836
0.4898596895 0.1224649224 -0.2449298447
-0.0000000000 -0.4898596895 0.3673947671
0.0612324612 -0.4286272283 0.3061623059
0.1224649224 -0.3673947671 0.2449298447
0.1836973836 -0.3061623059 0.1836973836
0.2449298447 -0.2449298447 0.1224649224
0.3061623059 -0.1836973836 0.0612324612
0.3673947671 -0.1224649224 0.0000000000
0.4286272283 -0.0612324612 -0.0612324612
0.4898596895 0.0000000000 -0.1224649224
0.5510921507 0.0612324612 -0.1836973836
0.0612324612 -0.5510921507 0.4286272283
0.1224649224 -0.4898596895 0.3673947671
0.1836973836 -0.4286272283 0.3061623059
0.2449298447 -0.3673947671 0.2449298447
0.3061623059 -0.3061623059 0.1836973836
0.3673947671 -0.2449298447 0.1224649224
0.4286272283 -0.1836973836 0.0612324612
0.4898596895 -0.1224649224 0.0000000000
0.5510921507 -0.0612324612 -0.0612324612
0.6123246119 0.0000000000 -0.1224649224
0.1224649224 -0.6123246119 0.4898596895
0.1836973836 -0.5510921507 0.4286272283
0.2449298447 -0.4898596895 0.3673947671
0.3061623059 -0.4286272283 0.3061623059
0.3673947671 -0.3673947671 0.2449298447
0.4286272283 -0.3061623059 0.1836973836
0.4898596895 -0.2449298447 0.1224649224
0.5510921507 -0.1836973836 0.0612324612
0.6123246119 -0.1224649224 0.0000000000
0.6735570730 -0.0612324612 -0.0612324612
-0.4898596895 -0.0000000000 -0.0000000000
-0.4286272283 0.0612324612 -0.0612324612
-0.3673947671 0.1224649224 -0.1224649224
-0.3061623059 0.1836973836 -0.1836973836
-0.2449298447 0.2449298447 -0.2449298447
-0.1836973836 0.3061623059 -0.3061623059
-0.1224649224 0.3673947671 -0.3673947671
-0.0612324612 0.4286272283 -0.4286272283
0.0000000000 0.4898596895 -0.4898596895
0.0612324612 0.5510921507 -0.5510921507
-0.4286272283 -0.0612324612 0.0612324612
-0.3673947671 -0.0000000000 -0.0000000000
-0.3061623059 0.0612324612 -0.0612324612
-0.2449298447 0.1224649224 -0.1224649224
-0.1836973836 0.1836973836 -0.1836973836
-0.1224649224 0.2449298447 -0.2449298447
-0.0612324612 0.3061623059 -0.3061623059
0.0000000000 0.3673947671 -0.3673947671
0.0612324612 0.4286272283 -0.4286272283
0.1224649224 0.4898596895 -0.4898596895
-0.3673947671 -0.1224649224 0.1224649224
-0.3061623059 -0.0612324612 0.0612324612
-0.2449298447 -0.0000000000 -0.0000000000
-0.1836973836 0.0612324612 -0.0612324612
-0.1224649224 0.1224649224 -0.1224649224
-0.0612324612 0.1836973836 -0.1836973836
0.0000000000 0.2449298447 -0.2449298447
0.0612324612 0.3061623059 -0.3061623059
0.1224649224 0.3673947671 -0.3673947671
0.1836973836 0.4286272283 -0.4286272283
-0.3061623059 -0.1836973836 0.1836973836
-0.2449298447 -0.1224649224 0.1224649224
-0.1836973836 -0.0612324612 0.0612324612
-0.1224649224 -0.0000000000 -0.0000000000
-0.0612324612 0.0612324612 -0.0612324612
0.0000000000 0.1224649224 -0.1224649224
0.0612324612 0.1836973836 -0.1836973836
0.1224649224 0.2449298447 -0.2449298447
0.1836973836 0.3061623059 -0.3061623059
0.2449298447 0.3673947671 -0.3673947671
-0.2449298447 -0.2449298447 0.2449298447
-0.1836973836 -0.1836973836 0.1836973836
-0.1224649224 -0.1224649224 0.1224649224
-0.0612324612 -0.0612324612 0.0612324612
0.0000000000 0.0000000000 0.0000000000
0.0612324612 0.0612324612 -0.0612324612
0.1224649224 0.1224649224 -0.1224649224
0.1836973836 0.1836973836 -0.1836973836
0.2449298447 0.2449298447 -0.2449298447
0.3061623059 0.3061623059 -0.3061623059
-0.1836973836 -0.3061623059 0.3061623059
-0.1224649224 -0.2449298447 0.2449298447
-0.0612324612 -0.1836973836 0.1836973836
0.0000000000 -0.1224649224 0.1224649224
0.0612324612 -0.0612324612 0.0612324612
0.1224649224 0.0000000000 0.0000000000
0.1836973836 0.0612324612 -0.0612324612
0.2449298447 0.1224649224 -0.1224649224
0.3061623059 0.1836973836 -0.1836973836
0.3673947671 0.2449298447 -0.2449298447
-0.1224649224 -0.3673947671 0.3673947671
-0.0612324612 -0.3061623059 0.3061623059
-0.0000000000 -0.2449298447 0.2449298447
0.0612324612 -0.1836973836 0.1836973836
0.1224649224 -0.1224649224 0.1224649224
0.1836973836 -0.0612324612 0.0612324612
0.2449298447 0.0000000000 0.0000000000
0.3061623059 0.0612324612 -0.0612324612
0.3673947671 0.1224649224 -0.1224649224
0.4286272283 0.1836973836 -0.1836973836
-0.0612324612 -0.4286272283 0.4286272283
-0.0000000000 -0.3673947671 0.3673947671
0.0612324612 -0.3061623059 0.3061623059
0.1224649224 -0.2449298447 0.2449298447
0.1836973836 -0.1836973836 0.1836973836
0.2449298447 -0.1224649224 0.1224649224
0.3061623059 -0.0612324612 0.0612324612
0.3673947671 0.0000000000 0.0000000000
0.4286272283 0.0612324612 -0.0612324612
0.4898596895 0.1224649224 -0.1224649224
-0.0000000000 -0.4898596895 0.4898596895
0.0612324612 -0.4286272283 0.4286272283
0.1224649224 -0.3673947671 0.3673947671
0.1836973836 -0.3061623059 0.3061623059
0.2449298447 -0.2449298447 0.2449298447
0.3061623059 -0.1836973836 0.1836973836
0.3673947671 -0.1224649224 0.1224649224
0.4286272283 -0.0612324612 0.0612324612
0.4898596895 0.0000000000 0.0000000000
0.5510921507 0.0612324612 -0.0612324612
0.0612324612 -0.5510921507 0.5510921507
0.1224649224 -0.4898596895 0.4898596895
0.1836973836 -0.4286272283 0.4286272283
0.2449298447 -0.3673947671 0.3673947671
0.3061623059 -0.3061623059 0.3061623059
0.3673947671 -0.2449298447 0.2449298447
0.4286272283 -0.1836973836 0.1836973836
0.4898596895 -0.1224649224 0.1224649224
0.5510921507 -0.0612324612 0.0612324612
0.6123246119 0.0000000000 0.0000000000
-0.5510921507 0.0612324612 0.0612324612
-0.4898596895 0.1224649224 -0.0000000000
-0.4286272283 0.1836973836 -0.0612324612
-0.3673947671 0.2449298447 -0.1224649224
-0.3061623059 0.3061623059 -0.1836973836
-0.2449298447 0.3673947671 -0.2449298447
-0.1836973836 0.4286272283 -0.3061623059
-0.1224649224 0.4898596895 -0.3673947671
-0.0612324612 0.5510921507 -0.4286272283
0.0000000000 0.6123246119 -0.4898596895
-0.4898596895 -0.0000000000 0.1224649224
-0.4286272283 0.0612324612 0.0612324612
-0.3673947671 0.1224649224 0.0000000000
-0.3061623059 0.1836973836 -0.0612324612
-0.2449298447 0.2449298447 -0.1224649224
-0.1836973836 0.3061623059 -0.1836973836
-0.1224649224 0.3673947671 -0.2449298447
-0.0612324612 0.4286272283 -0.3061623059
0.0000000000 0.4898596895 -0.3673947671
0.0612324612 0.5510921507 -0.4286272283
-0.4286272283 -0.0612324612 0.1836973836
-0.3673947671 -0.0000000000 0.1224649224
-0.3061623059 0.0612324612 0.0612324612
-0.2449298447 0.1224649224 -0.0000000000
-0.1836973836 0.1836973836 -0.0612324612
-0.1224649224 0.2449298447 -0.1224649224
-0.0612324612 0.3061623059 -0.1836973836
0.0000000000 0.3673947671 -0.2449298447
0.0612324612 0.4286272283 -0.3061623059
0.1224649224 0.4898596895 -0.3673947671
-0.3673947671 -0.1224649224 0.2449298447
-0.3061623059 -0.0612324612 0.1836973836
-0.2449298447 -0.0000000000 0.1224649224
-0.1836973836 0.0612324612 0.0612324612
-0.1224649224 0.1224649224 0.0000000000
-0.0612324612 0.1836973836 -0.0612324612
0.0000000000 0.2449298447 -0.1224649224
0.0612324612 0.3061623059 -0.1836973836
0.1224649224 0.3673947671 -0.2449298447
0.1836973836 0.4286272283 -0.3061623059
-0.3061623059 -0.1836973836 0.3061623059
-0.2449298447 -0.1224649224 0.2449298447
-0.1836973836 -0.0612324612 0.1836973836
-0.1224649224 0.0000000000 0.1224649224
-0.0612324612 0.0612324612 0.0612324612
0.0000000000 0.1224649224 0.0000000000
0.0612324612 0.1836973836 -0.0612324612
0.1224649224 0.2449298447 -0.1224649224
0.1836973836 0.3061623059 -0.1836973836
0.2449298447 0.3673947671 -0.2449298447
-0.2449298447 -0.2449298447 0.3673947671
-0.1836973836 -0.1836973836 0.3061623059
-0.1224649224 -0.1224649224 0.2449298447
-0.0612324612 -0.0612324612 0.1836973836
0.0000000000 0.0000000000 0.1224649224
0.0612324612 0.0612324612 0.0612324612
0.1224649224 0.1224649224 0.0000000000
0.1836973836 0.1836973836 -0.0612324612
0.2449298447 0.2449298447 -0.1224649224
0.3061623059 0.3061623059 -0.1836973836
-0.1836973836 -0.3061623059 0.4286272283
-0.1224649224 -0.2449298447 0.3673947671
-0.0612324612 -0.1836973836 0.3061623059
0.0000000000 -0.1224649224 0.2449298447
0.0612324612 -0.0612324612 0.1836973836
0.1224649224 0.0000000000 0.1224649224
0.1836973836 0.0612324612 0.0612324612
0.2449298447 0.1224649224 0.0000000000
0.3061623059 0.1836973836 -0.0612324612
0.3673947671 0.2449298447 -0.1224649224
-0.1224649224 -0.3673947671 0.4898596895
-0.0612324612 -0.3061623059 0.4286272283
-0.0000000000 -0.2449298447 0.3673947671
0.0612324612 -0.1836973836 0.3061623059
0.1224649224 -0.1224649224 0.2449298447
0.1836973836 -0.0612324612 0.1836973836
0.2449298447 0.0000000000 0.1224649224
0.3061623059 0.0612324612 0.0612324612
0.3673947671 0.1224649224 0.0000000000
0.4286272283 0.1836973836 -0.0612324612
-0.0612324612 -0.4286272283 0.5510921507
-0.0000000000 -0.3673947671 0.4898596895
0.0612324612 -0.3061623059 0.4286272283
0.1224649224 -0.2449298447 0.3673947671
0.1836973836 -0.1836973836 0.3061623059
0.2449298447 -0.1224649224 0.2449298447
0.3061623059 -0.0612324612 0.1836973836
0.3673947671 0.0000000000 0.1224649224
0.4286272283 0.0612324612 0.0612324612
0.4898596895 0.1224649224 0.0000000000
-0.0000000000 -0.4898596895 0.6123246119
0.0612324612 -0.4286272283 0.5510921507
0.1224649224 -0.3673947671 0.4898596895
0.1836973836 -0.3061623059 0.4286272283
0.2449298447 -0.2449298447 0.3673947671
0.3061623059 -0.1836973836 0.3061623059
0.3673947671 -0.1224649224 0.2449298447
0.4286272283 -0.0612324612 0.1836973836
0.4898596895 0.0000000000 0.1224649224
0.5510921507 0.0612324612 0.0612324612
-0.6123246119 0.1224649224 0.1224649224
-0.5510921507 0.1836973836 0.0612324612
-0.4898596895 0.2449298447 -0.0000000000
-0.4286272283 0.3061623059 -0.0612324612
-0.3673947671 0.3673947671 -0.1224649224
-0.3061623059 0.4286272283 -0.1836973836
-0.2449298447 0.4898596895 -0.2449298447
-0.1836973836 0.5510921507 -0.3061623059
-0.1224649224 0.6123246119 -0.3673947671
-0.0612324612 0.6735570730 -0.4286272283
-0.5510921507 0.0612324612 0.1836973836
-0.4898596895 0.1224649224 0.1224649224
-0.4286272283 0.1836973836 0.0612324612
-0.3673947671 0.2449298447 -0.0000000000
-0.3061623059 0.3061623059 -0.0612324612
-0.2449298447 0.3673947671 -0.1224649224
-0.1836973836 0.4286272283 -0.1836973836
-0.1224649224 0.4898596895 -0.2449298447
-0.0612324612 0.5510921507 -0.3061623059
0.0000000000 0.6123246119 -0.3673947671
-0.4898596895 -0.0000000000 0.2449298447
-0.4286272283 0.0612324612 0.1836973836
-0.3673947671 0.1224649224 0.1224649224
-0.3061623059 0.1836973836 0.0612324612
-0.2449298447 0.2449298447 -0.0000000000
-0.1836973836 0.3061623059 -0.0612324612
-0.1224649224 0.3673947671 -0.1224649224
-0.0612324612 0.4286272283 -0.1836973836
0.0000000000 0.4898596895 -0.2449298447
0.0612324612 0.5510921507 -0.3061623059
-0.4286272283 -0.0612324612 0.3061623059
-0.3673947671 0.0000000000 0.2449298447
-0.3061623059 0.0612324612 0.1836973836
-0.2449298447 0.1224649224 0.1224649224
-0.1836973836 0.1836973836 0.0612324612
-0.1224649224 0.2449298447 0.0000000000
-0.0612324612 0.3061623059 -0.0612324612
0.0000000000 0.3673947671 -0.1224649224
0.0612324612 0.4286272283 -0.1836973836
0.1224649224 0.4898596895 -0.2449298447
-0.3673947671 -0.1224649224 0.3673947671
-0.3061623059 -0.0612324612 0.3061623059
-0.2449298447 0.0000000000 0.2449298447
-0.1836973836 0.0612324612 0.1836973836
-0.1224649224 0.1224649224 0.1224649224
-0.0612324612 0.1836973836 0.0612324612
0.0000000000 0.2449298447 0.0000000000
0.0612324612 0.3061623059 -0.0612324612
0.1224649224 0.3673947671 -0.1224649224
0.1836973836 0.4286272283 -0.1836973836
-0.3061623059 -0.1836973836 0.4286272283
-0.2449298447 -0.1224649224 0.3673947671
-0.1836973836 -0.0612324612 0.3061623059
-0.1224649224 0.0000000000 0.2449298447
-0.0612324612 0.0612324612 0.1836973836
0.0000000000 0.1224649224 0.1224649224
0.0612324612 0.1836973836 0.0612324612
0.1224649224 0.2449298447 0.0000000000
0.1836973836 0.3061623059 -0.0612324612
0.2449298447 0.3673947671 -0.1224649224
-0.2449298447 -0.2449298447 0.4898596895
-0.1836973836 -0.1836973836 0.4286272283
-0.1224649224 -0.1224649224 0.3673947671
-0.0612324612 -0.0612324612 0.3061623059
0.0000000000 0.0000000000 0.2449298447
0.0612324612 0.0612324612 0.1836973836
0.1224649224 0.1224649224 0.1224649224
0.1836973836 0.1836973836 0.0612324612
0.2449298447 0.2449298447 0.0000000000
0.3061623059 0.3061623059 -0.0612324612
-0.1836973836 -0.3061623059 0.5510921507
-0.1224649224 -0.2449298447 0.4898596895
-0.0612324612 -0.1836973836 0.4286272283
0.0000000000 -0.1224649224 0.3673947671
0.0612324612 -0.0612324612 0.3061623059
0.1224649224 0.0000000000 0.2449298447
0.1836973836 0.0612324612 0.1836973836
0.2449298447 0.1224649224 0.1224649224
0.3061623059 0.1836973836 0.0612324612
0.3673947671 0.2449298447 0.0000000000
-0.1224649224 -0.3673947671 0.6123246119
-0.0612324612 -0.3061623059 0.5510921507
-0.0000000000 -0.2449298447 0.4898596895
0.0612324612 -0.1836973836 0.4286272283
0.1224649224 -0.1224649224 0.3673947671
0.1836973836 -0.0612324612 0.3061623059
0.2449298447 0.0000000000 0.2449298447
0.3061623059 0.0612324612 0.1836973836
0.3673947671 0.1224649224 0.1224649224
0.4286272283 0.1836973836 0.0612324612
-0.0612324612 -0.4286272283 0.6735570730
0.0000000000 -0.3673947671 0.6123246119
0.0612324612 -0.3061623059 0.5510921507
0.1224649224 -0.2449298447 0.4898596895
0.1836973836 -0.1836973836 0.4286272283
0.2449298447 -0.1224649224 0.3673947671
0.3061623059 -0.0612324612 0.3061623059
0.3673947671 0.0000000000 0.2449298447
0.4286272283 0.0612324612 0.1836973836
0.4898596895 0.1224649224 0.1224649224
-0.6735570730 0.1836973836 0.1836973836
-0.6123246119 0.2449298447 0.1224649224
-0.5510921507 0.3061623059 0.0612324612
-0.4898596895 0.3673947671 -0.0000000000
-0.4286272283 0.4286272283 -0.0612324612
-0.3673947671 0.4898596895 -0.1224649224
-0.3061623059 0.5510921507 -0.1836973836
-0.2449298447 0.6123246119 -0.2449298447
-0.1836973836 0.6735570730 -0.3061623059
-0.1224649224 0.7347895342 -0.3673947671
-0.6123246119 0.1224649224 0.2449298447
-0.5510921507 0.1836973836 0.1836973836
-0.4898596895 0.2449298447 0.1224649224
-0.4286272283 0.3061623059 0.0612324612
-0.3673947671 0.3673947671 -0.0000000000
-0.3061623059 0.4286272283 -0.0612324612
-0.2449298447 0.4898596895 -0.1224649224
-0.1836973836 0.5510921507 -0.1836973836
-0.1224649224 0.6123246119 -0.2449298447
-0.0612324612 0.6735570730 -0.3061623059
-0.5510921507 0.0612324612 0.3061623059
-0.4898596895 0.1224649224 0.2449298447
-0.4286272283 0.1836973836 0.1836973836
-0.3673947671 0.2449298447 0.1224649224
-0.3061623059 0.3061623059 0.0612324612
-0.2449298447 0.3673947671 -0.0000000000
-0.1836973836 0.4286272283 -0.0612324612
-0.1224649224 0.4898596895 -0.1224649224
-0.0612324612 0.5510921507 -0.1836973836
0.0000000000 0.6123246119 -0.2449298447
-0.4898596895 -0.0000000000 0.3673947671
-0.4286272283 0.0612324612 0.3061623059
-0.3673947671 0.1224649224 0.2449298447
-0.3061623059 0.1836973836 0.1836973836
-0.2449298447 0.2449298447 0.1224649224
-0.1836973836 0.3061623059 0.0612324612
-0.1224649224 0.3673947671 -0.0000000000
-0.0612324612 0.4286272283 -0.0612324612
0.0000000000 0.4898596895 -0.1224649224
0.0612324612 0.5510921507 -0.1836973836
-0.4286272283 -0.0612324612 0.4286272283
-0.3673947671 0.0000000000 0.3673947671
-0.3061623059 0.0612324612 0.3061623059
-0.2449298447 0.1224649224 0.2449298447
-0.1836973836 0.1836973836 0.1836973836
-0.1224649224 0.2449298447 0.1224649224
-0.0612324612 0.3061623059 0.0612324612
0.0000000000 0.3673947671 0.0000000000
0.0612324612 0.4286272283 -0.0612324612
0.1224649224 0.4898596895 -0.1224649224
-0.3673947671 -0.1224649224 0.4898596895
-0.3061623059 -0.0612324612 0.4286272283
-0.2449298447 0.0000000000 0.3673947671
-0.1836973836 0.0612324612 0.3061623059
-0.1224649224 0.1224649224 0.2449298447
-0.0612324612 0.1836973836 0.1836973836
0.0000000000 0.2449298447 0.1224649224
0.0612324612 0.3061623059 0.0612324612
0.1224649224 0.3673947671 0.0000000000
0.1836973836 0.4286272283 -0.0612324612
-0.3061623059 -0.1836973836 0.5510921507
-0.2449298447 -0.1224649224 0.4898596895
-0.1836973836 -0.0612324612 0.4286272283
-0.1224649224 0.0000000000 0.3673947671
-0.0612324612 0.0612324612 0.3061623059
0.0000000000 0.1224649224 0.2449298447
0.0612324612 0.1836973836 0.1836973836
0.1224649224 0.2449298447 0.1224649224
0.1836973836 0.3061623059 0.0612324612
0.2449298447 0.3673947671 0.0000000000
-0.2449298447 -0.2449298447 0.6123246119
-0.1836973836 -0.1836973836 0.5510921507
-0.1224649224 -0.1224649224 0.4898596895
-0.0612324612 -0.0612324612 0.4286272283
0.0000000000 0.0000000000 0.3673947671
0.0612324612 0.0612324612 0.3061623059
0.1224649224 0.1224649224 0.2449298447
0.1836973836 0.1836973836 0.1836973836
0.2449298447 0.2449298447 0.1224649224
0.3061623059 0.3061623059 0.0612324612
-0.1836973836 -0.3061623059 0.6735570730
-0.1224649224 -0.2449298447 0.6123246119
-0.0612324612 -0.1836973836 0.5510921507
0.0000000000 -0.1224649224 0.4898596895
0.0612324612 -0.0612324612 0.4286272283
0.1224649224 0.0000000000 0.3673947671
0.1836973836 0.0612324612 0.3061623059
0.2449298447 0.1224649224 0.2449298447
0.3061623059 0.1836973836 0.1836973836
0.3673947671 0.2449298447 0.1224649224
-0.1224649224 -0.3673947671 0.7347895342
-0.0612324612 -0.3061623059 0.6735570730
0.0000000000 -0.2449298447 0.6123246119
0.0612324612 -0.1836973836 0.5510921507
0.1224649224 -0.1224649224 0.4898596895
0.1836973836 -0.0612324612 0.4286272283
0.2449298447 0.0000000000 0.3673947671
0.3061623059 0.0612324612 0.3061623059
0.3673947671 0.1224649224 0.2449298447
0.4286272283 0.1836973836 0.1836973836
-0.7347895342 0.2449298447 0.2449298447
-0.6735570730 0.3061623059 0.1836973836
-0.6123246119 0.3673947671 0.1224649224
-0.5510921507 0.4286272283 0.0612324612
-0.4898596895 0.4898596895 -0.0000000000
-0.4286272283 0.5510921507 -0.0612324612
-0.3673947671 0.6123246119 -0.1224649224
-0.3061623059 0.6735570730 -0.1836973836
-0.2449298447 0.7347895342 -0.2449298447
-0.1836973836 0.7960219954 -0.3061623059
-0.6735570730 0.1836973836 0.3061623059
-0.6123246119 0.2449298447 0.2449298447
-0.5510921507 0.3061623059 0.1836973836
-0.4898596895 0.3673947671 0.1224649224
-0.4286272283 0.4286272283 0.0612324612
-0.3673947671 0.4898596895 -0.0000000000
-0.3061623059 0.5510921507 -0.0612324612
-0.2449298447 0.6123246119 -0.1224649224
-0.1836973836 0.6735570730 -0.1836973836
-0.1224649224 0.7347895342 -0.2449298447
-0.6123246119 0.1224649224 0.3673947671
-0.5510921507 0.1836973836 0.3061623059
-0.4898596895 0.2449298447 0.2449298447
-0.4286272283 0.3061623059 0.1836973836
-0.3673947671 0.3673947671 0.1224649224
-0.3061623059 0.4286272283 0.0612324612
-0.2449298447 0.4898596895 -0.0000000000
-0.1836973836 0.5510921507 -0.0612324612
-0.1224649224 0.6123246119 -0.1224649224
-0.0612324612 0.6735570730 -0.1836973836
-0.5510921507 0.0612324612 0.4286272283
-0.4898596895 0.1224649224 0.3673947671
-0.4286272283 0.1836973836 0.3061623059
-0.3673947671 0.2449298447 0.2449298447
-0.3061623059 0.3061623059 0.1836973836
-0.2449298447 0.3673947671 0.1224649224
-0.1836973836 0.4286272283 0.0612324612
-0.1224649224 0.4898596895 -0.0000000000
-0.0612324612 0.5510921507 -0.0612324612
0.0000000000 0.6123246119 -0.1224649224
-0.4898596895 -0.0000000000 0.4898596895
-0.4286272283 0.0612324612 0.4286272283
-0.3673947671 0.1224649224 0.3673947671
-0.3061623059 0.1836973836 0.3061623059
-0.2449298447 0.2449298447 0.2449298447
-0.1836973836 0.3061623059 0.1836973836
-0.1224649224 0.3673947671 0.1224649224
-0.0612324612 0.4286272283 0.0612324612
0.0000000000 0.4898596895 0.0000000000
0.0612324612 0.5510921507 -0.0612324612
-0.4286272283 -0.0612324612 0.5510921507
-0.3673947671 0.0000000000 0.4898596895
-0.3061623059 0.0612324612 0.4286272283
-0.2449298447 0.1224649224 0.3673947671
-0.1836973836 0.1836973836 0.3061623059
-0.1224649224 0.2449298447 0.2449298447
-0.0612324612 0.3061623059 0.1836973836
0.0000000000 0.3673947671 0.1224649224
0.0612324612 0.4286272283 0.0612324612
0.1224649224 0.4898596895 0.0000000000
-0.3673947671 -0.1224649224 0.6123246119
-0.3061623059 -0.0612324612 0.5510921507
-0.2449298447 0.0000000000 0.4898596895
-0.1836973836 0.0612324612 0.4286272283
-0.1224649224 0.1224649224 0.3673947671
-0.0612324612 0.1836973836 0.3061623059
0.0000000000 0.2449298447 0.2449298447
0.0612324612 0.3061623059 0.1836973836
0.1224649224 0.3673947671 0.1224649224
0.1836973836 0.4286272283 0.0612324612
-0.3061623059 -0.1836973836 0.6735570730
-0.2449298447 -0.1224649224 0.6123246119
-0.1836973836 -0.0612324612 0.5510921507
-0.1224649224 0.0000000000 0.4898596895
-0.0612324612 0.0612324612 0.4286272283
0.0000000000 0.1224649224 0.3673947671
0.0612324612 0.1836973836 0.3061623059
0.1224649224 0.2449298447 0.2449298447
0.1836973836 0.3061623059 0.1836973836
0.2449298447 0.3673947671 0.1224649224
-0.2449298447 -0.2449298447 0.7347895342
-0.1836973836 -0.1836973836 0.6735570730
-0.1224649224 -0.1224649224 0.6123246119
-0.0612324612 -0.0612324612 0.5510921507
0.0000000000 0.0000000000 0.4898596895
0.0612324612 0.0612324612 0.4286272283
0.1224649224 0.1224649224 0.3673947671
0.1836973836 0.1836973836 0.3061623059
0.2449298447 0.2449298447 0.2449298447
0.3061623059 0.3061623059 0.1836973836
-0.1836973836 -0.3061623059 0.7960219954
-0.1224649224 -0.2449298447 0.7347895342
-0.0612324612 -0.1836973836 0.6735570730
0.0000000000 -0.1224649224 0.6123246119
0.0612324612 -0.0612324612 0.5510921507
0.1224649224 0.0000000000 0.4898596895
0.1836973836 0.0612324612 0.4286272283
0.2449298447 0.1224649224 0.3673947671
0.3061623059 0.1836973836 0.3061623059
0.3673947671 0.2449298447 0.2449298447
-0.7960219954 0.3061623059 0.3061623059
-0.7347895342 0.3673947671 0.2449298447
-0.6735570730 0.4286272283 0.1836973836
-0.6123246119 0.4898596895 0.1224649224
-0.5510921507 0.5510921507 0.0612324612
-0.4898596895 0.6123246119 -0.0000000000
-0.4286272283 0.6735570730 -0.0612324612
-0.3673947671 0.7347895342 -0.1224649224
-0.3061623059 0.7960219954 -0.1836973836
-0.2449298447 0.8572544566 -0.2449298447
-0.7347895342 0.2449298447 0.3673947671
-0.6735570730 0.3061623059 0.3061623059
-0.6123246119 0.3673947671 0.2449298447
-0.5510921507 0.4286272283 0.1836973836
-0.4898596895 0.4898596895 0.1224649224
-0.4286272283 0.5510921507 0.0612324612
-0.3673947671 0.6123246119 -0.0000000000
-0.3061623059 0.6735570730 -0.0612324612
-0.2449298447 0.7347895342 -0.1224649224
-0.1836973836 0.7960219954 -0.1836973836
-0.6735570730 0.1836973836 0.4286272283
-0.6123246119 0.2449298447 0.3673947671
-0.5510921507 0.3061623059 0.3061623059
-0.4898596895 0.3673947671 0.2449298447
-0.4286272283 0.4286272283 0.1836973836
-0.3673947671 0.4898596895 0.1224649224
-0.3061623059 0.5510921507 0.0612324612
-0.2449298447 0.6123246119 0.0000000000
-0.1836973836 0.6735570730 -0.0612324612
-0.1224649224 0.7347895342 -0.1224649224
-0.6123246119 0.1224649224 0.4898596895
-0.5510921507 0.1836973836 0.4286272283
-0.4898596895 0.2449298447 0.3673947671
-0.4286272283 0.3061623059 0.3061623059
-0.3673947671 0.3673947671 0.2449298447
-0.3061623059 0.4286272283 0.1836973836
-0.2449298447 0.4898596895 0.1224649224
-0.1836973836 0.5510921507 0.0612324612
-0.1224649224 0.6123246119 0.0000000000
-0.0612324612 0.6735570730 -0.0612324612
-0.5510921507 0.0612324612 0.5510921507
-0.4898596895 0.1224649224 0.4898596895
-0.4286272283 0.1836973836 0.4286272283
-0.3673947671 0.2449298447 0.3673947671
-0.3061623059 0.3061623059 0.3061623059
-0.2449298447 0.3673947671 0.2449298447
-0.1836973836 0.4286272283 0.1836973836
-0.1224649224 0.4898596895 0.1224649224
-0.0612324612 0.5510921507 0.0612324612
0.0000000000 0.6123246119 0.0000000000
-0.4898596895 0.0000000000 0.6123246119
-0.4286272283 0.0612324612 0.5510921507
-0.3673947671 0.1224649224 0.4898596895
-0.3061623059 0.1836973836 0.4286272283
-0.2449298447 0.2449298447 0.3673947671
-0.1836973836 0.3061623059 0.3061623059
-0.1224649224 0.3673947671 0.2449298447
-0.0612324612 0.4286272283 0.1836973836
0.0000000000 0.4898596895 0.1224649224
0.0612324612 0.5510921507 0.0612324612
-0.4286272283 -0.0612324612 0.6735570730
-0.3673947671 0.0000000000 0.6123246119
-0.3061623059 0.0612324612 0.5510921507
-0.2449298447 0.1224649224 0.4898596895
-0.1836973836 0.1836973836 0.4286272283
-0.1224649224 0.2449298447 0.3673947671
-0.0612324612 0.3061623059 0.3061623059
0.0000000000 0.3673947671 0.2449298447
0.0612324612 0.4286272283 0.1836973836
0.1224649224 0.4898596895 0.1224649224
-0.3673947671 -0.1224649224 0.7347895342
-0.3061623059 -0.0612324612 0.6735570730
-0.2449298447 0.0000000000 0.6123246119
-0.1836973836 0.0612324612 0.5510921507
-0.1224649224 0.1224649224 0.4898596895
-0.0612324612 0.1836973836 0.4286272283
0.0000000000 0.2449298447 0.3673947671
0.0612324612 0.3061623059 0.3061623059
0.1224649224 0.3673947671 0.2449298447
0.1836973836 0.4286272283 0.1836973836
-0.3061623059 -0.1836973836 0.7960219954
-0.2449298447 -0.1224649224 0.7347895342
-0.1836973836 -0.0612324612 0.6735570730
-0.1224649224 0.0000000000 0.6123246119
-0.0612324612 0.0612324612 0.5510921507
0.0000000000 0.1224649224 0.4898596895
0.0612324612 0.1836973836 0.4286272283
0.1224649224 0.2449298447 0.3673947671
0.1836973836 0.3061623059 0.3061623059
0.2449298447 0.3673947671 0.2449298447
-0.2449298447 -0.2449298447 0.8572544566
-0.1836973836 -0.1836973836 0.7960219954
-0.1224649224 -0.1224649224 0.7347895342
-0.0612324612 -0.0612324612 0.6735570730
0.0000000000 0.0000000000 0.6123246119
0.0612324612 0.0612324612 0.5510921507
0.1224649224 0.1224649224 0.4898596895
0.1836973836 0.1836973836 0.4286272283
0.2449298447 0.2449298447 0.3673947671
0.3061623059 0.3061623059 0.3061623059
 There are 14 alpha and 14 beta electrons
 Start computing overlap matrix
 Allocate 222784000 B from available memory: 1048575734752 B
 Time for computing overlap matrix: 3.9270000000 s
 ====== Initialize compute kernels for all-electron RI-J (kpts) ====== 
 ========================================================== 
 Range-separated parameter omega        = 0.599999999999999978
 Threshold for 1e2c shellpair           = 0.000000000000010000
 Threshold for 2e2c SR integral         = 0.000000000000000001
 Threshold for 2e3c SR integral         = 0.000000000100000000
 Threshold for AFT G-space screening is = 0.000000000001000000
 The exponent cutoff for C/D classification (omega2 / 2) is  = 0.179999999999999993
 ========================================================== 
 === Post process the basis set for RI calculation (exp_cutoff = 0.179999999999999993 ) === 
nshells_b1 before uncontraction = 28
nshells_b1 after uncontraction = 28
nshells_baux before uncontraction = 80
nshells_baux after uncontraction = 80
===============================================
nbsf total   = 118
nbsf compact = 92
nbsf diffuse = 26
naux total   = 296
naux compact = 296
naux diffuse = 0
nshells_bnuc = 2

 Number of unique atoms is 1
 Unique atom #0 (si) has 9 shells.

Shell 0 to 8 belongs to atom si
Shell 9 to 17 belongs to atom si

 Number of unique atoms is 1
 Unique atom #0 (si) has 5 shells.

Shell 0 to 4 belongs to atom si
Shell 5 to 9 belongs to atom si

 Number of unique atom is 1
 Unique atom #0 (si) has 40 auxiliary shells.

Auxiliary Shell 0 to 39 belongs to atom si
Auxiliary Shell 40 to 79 belongs to atom si

================= Automatically determine grid size for reciprocal space summation =================
 Range-separated parameter = 0.60000000000000 and G-space screening threshold = 0.00000000000100
The number of grid points along each axis dimension is (7, 7, 7)
Total number of grid points = 3375

Use nonortho shellpair for diffuse density
======== Initializing relevant kernel for RIJ (DD type) ========
There are 55 shellpairs in the reference unit cell
There are 3757 images and we expect to have 206635 in total
There are 11898 shellpairs in the lattice sum after screening
======== Initializing relevant kernel for RIJ (CD type) ========
There are 180 shellpairs in the reference unit cell
There are 2659 images and we expect to have 478620 in total
There are 19974 shellpairs in the lattice sum after screening
****** AFT -> SR ******
Maximum bra distance cutoff is 23.000000000000
Maximum bra ket distance cutoff is 24.132153614458
Maximum bra ket screening distance is 21.593750000000
Number of auxiliary image is 647
There are 180 shellpairs in the reference unit cell
There are 551 images and we expect to have 99180 in total
There are 19974 shellpairs in the lattice sum after screening
Available memory per thread for 2e3c calculation is 32.761029711000Gb
Finish initializing 2e3c SR with the lattice sum!
=================================================
======== Initializing relevant kernel for RIJ (CC type) ========
There are 171 shellpairs in the reference unit cell
There are 1241 images and we expect to have 212211 in total
There are 4082 shellpairs in the lattice sum after screening
****** AFT -> SR ******
Maximum bra distance cutoff is 15.000000000000
Maximum bra ket distance cutoff is 25.131175705795
Maximum bra ket screening distance is 21.156250000000
Number of auxiliary image is 647
There are 171 shellpairs in the reference unit cell
There are 237 images and we expect to have 40527 in total
There are 4082 shellpairs in the lattice sum after screening
Available memory per thread for 2e3c calculation is 32.761029711000Gb
Finish initializing 2e3c SR with the lattice sum!
=================================================
======== Initializing the SR component for Vnuc (CD type) ========
Maximum bra distance cutoff is 23.000000000000
Maximum bra ket distance cutoff is 16.737418337388
Maximum bra ket screening distance is 14.115333913559
Number of auxiliary image is 551
There are 180 shellpairs in the reference unit cell
There are 551 images and we expect to have 99180 in total
There are 19974 shellpairs in the lattice sum after screening
Available memory per thread for 2e3c calculation is 32.761029711000Gb
Finish initializing 2e3c SR with the lattice sum!
=================================================
======== Initialize the SR component for Vnuc (CC type) ========
Maximum bra distance cutoff is 15.000000000000
Maximum bra ket distance cutoff is 17.743801426189
Maximum bra ket screening distance is 13.222397966002
Number of auxiliary image is 285
There are 171 shellpairs in the reference unit cell
There are 237 images and we expect to have 40527 in total
There are 4082 shellpairs in the lattice sum after screening
Available memory per thread for 2e3c calculation is 32.761029711000Gb
Finish initializing 2e3c SR with the lattice sum!
=================================================
 Aufbau occupation scheme, occupation determined by eigenvalue
 == 0-th k-point nmo = 114 (-0.24493,-0.24493,-0.24493) ==
 == 1-th k-point nmo = 114 (-0.18370,-0.18370,-0.30616) ==
 == 2-th k-point nmo = 114 (-0.12246,-0.12246,-0.36739) ==
 == 3-th k-point nmo = 114 (-0.06123,-0.06123,-0.42863) ==
 == 4-th k-point nmo = 114 (-0.00000,-0.00000,-0.48986) ==
 == 5-th k-point nmo = 114 (0.06123,0.06123,-0.55109) ==
 == 6-th k-point nmo = 114 (0.12246,0.12246,-0.61232) ==
 == 7-th k-point nmo = 114 (0.18370,0.18370,-0.67356) ==
 == 8-th k-point nmo = 114 (0.24493,0.24493,-0.73479) ==
 == 9-th k-point nmo = 114 (0.30616,0.30616,-0.79602) ==
 == 10-th k-point nmo = 114 (-0.18370,-0.30616,-0.18370) ==
 == 11-th k-point nmo = 114 (-0.12246,-0.24493,-0.24493) ==
 == 12-th k-point nmo = 114 (-0.06123,-0.18370,-0.30616) ==
 == 13-th k-point nmo = 114 (-0.00000,-0.12246,-0.36739) ==
 == 14-th k-point nmo = 114 (0.06123,-0.06123,-0.42863) ==
 == 15-th k-point nmo = 114 (0.12246,-0.00000,-0.48986) ==
 == 16-th k-point nmo = 114 (0.18370,0.06123,-0.55109) ==
 == 17-th k-point nmo = 114 (0.24493,0.12246,-0.61232) ==
 == 18-th k-point nmo = 114 (0.30616,0.18370,-0.67356) ==
 == 19-th k-point nmo = 114 (0.36739,0.24493,-0.73479) ==
 == 20-th k-point nmo = 114 (-0.12246,-0.36739,-0.12246) ==
 == 21-th k-point nmo = 114 (-0.06123,-0.30616,-0.18370) ==
 == 22-th k-point nmo = 114 (-0.00000,-0.24493,-0.24493) ==
 == 23-th k-point nmo = 114 (0.06123,-0.18370,-0.30616) ==
 == 24-th k-point nmo = 114 (0.12246,-0.12246,-0.36739) ==
 == 25-th k-point nmo = 114 (0.18370,-0.06123,-0.42863) ==
 == 26-th k-point nmo = 114 (0.24493,-0.00000,-0.48986) ==
 == 27-th k-point nmo = 114 (0.30616,0.06123,-0.55109) ==
 == 28-th k-point nmo = 114 (0.36739,0.12246,-0.61232) ==
 == 29-th k-point nmo = 114 (0.42863,0.18370,-0.67356) ==
 == 30-th k-point nmo = 114 (-0.06123,-0.42863,-0.06123) ==
 == 31-th k-point nmo = 114 (-0.00000,-0.36739,-0.12246) ==
 == 32-th k-point nmo = 114 (0.06123,-0.30616,-0.18370) ==
 == 33-th k-point nmo = 114 (0.12246,-0.24493,-0.24493) ==
 == 34-th k-point nmo = 114 (0.18370,-0.18370,-0.30616) ==
 == 35-th k-point nmo = 114 (0.24493,-0.12246,-0.36739) ==
 == 36-th k-point nmo = 114 (0.30616,-0.06123,-0.42863) ==
 == 37-th k-point nmo = 114 (0.36739,-0.00000,-0.48986) ==
 == 38-th k-point nmo = 114 (0.42863,0.06123,-0.55109) ==
 == 39-th k-point nmo = 114 (0.48986,0.12246,-0.61232) ==
 == 40-th k-point nmo = 114 (-0.00000,-0.48986,0.00000) ==
 == 41-th k-point nmo = 114 (0.06123,-0.42863,-0.06123) ==
 == 42-th k-point nmo = 114 (0.12246,-0.36739,-0.12246) ==
 == 43-th k-point nmo = 114 (0.18370,-0.30616,-0.18370) ==
 == 44-th k-point nmo = 114 (0.24493,-0.24493,-0.24493) ==
 == 45-th k-point nmo = 114 (0.30616,-0.18370,-0.30616) ==
 == 46-th k-point nmo = 114 (0.36739,-0.12246,-0.36739) ==
 == 47-th k-point nmo = 114 (0.42863,-0.06123,-0.42863) ==
 == 48-th k-point nmo = 114 (0.48986,-0.00000,-0.48986) ==
 == 49-th k-point nmo = 114 (0.55109,0.06123,-0.55109) ==
 == 50-th k-point nmo = 114 (0.06123,-0.55109,0.06123) ==
 == 51-th k-point nmo = 114 (0.12246,-0.48986,-0.00000) ==
 == 52-th k-point nmo = 114 (0.18370,-0.42863,-0.06123) ==
 == 53-th k-point nmo = 114 (0.24493,-0.36739,-0.12246) ==
 == 54-th k-point nmo = 114 (0.30616,-0.30616,-0.18370) ==
 == 55-th k-point nmo = 114 (0.36739,-0.24493,-0.24493) ==
 == 56-th k-point nmo = 114 (0.42863,-0.18370,-0.30616) ==
 == 57-th k-point nmo = 114 (0.48986,-0.12246,-0.36739) ==
 == 58-th k-point nmo = 114 (0.55109,-0.06123,-0.42863) ==
 == 59-th k-point nmo = 114 (0.61232,0.00000,-0.48986) ==
 == 60-th k-point nmo = 114 (0.12246,-0.61232,0.12246) ==
 == 61-th k-point nmo = 114 (0.18370,-0.55109,0.06123) ==
 == 62-th k-point nmo = 114 (0.24493,-0.48986,0.00000) ==
 == 63-th k-point nmo = 114 (0.30616,-0.42863,-0.06123) ==
 == 64-th k-point nmo = 114 (0.36739,-0.36739,-0.12246) ==
 == 65-th k-point nmo = 114 (0.42863,-0.30616,-0.18370) ==
 == 66-th k-point nmo = 114 (0.48986,-0.24493,-0.24493) ==
 == 67-th k-point nmo = 114 (0.55109,-0.18370,-0.30616) ==
 == 68-th k-point nmo = 114 (0.61232,-0.12246,-0.36739) ==
 == 69-th k-point nmo = 114 (0.67356,-0.06123,-0.42863) ==
 == 70-th k-point nmo = 114 (0.18370,-0.67356,0.18370) ==
 == 71-th k-point nmo = 114 (0.24493,-0.61232,0.12246) ==
 == 72-th k-point nmo = 114 (0.30616,-0.55109,0.06123) ==
 == 73-th k-point nmo = 114 (0.36739,-0.48986,-0.00000) ==
 == 74-th k-point nmo = 114 (0.42863,-0.42863,-0.06123) ==
 == 75-th k-point nmo = 114 (0.48986,-0.36739,-0.12246) ==
 == 76-th k-point nmo = 114 (0.55109,-0.30616,-0.18370) ==
 == 77-th k-point nmo = 114 (0.61232,-0.24493,-0.24493) ==
 == 78-th k-point nmo = 114 (0.67356,-0.18370,-0.30616) ==
 == 79-th k-point nmo = 114 (0.73479,-0.12246,-0.36739) ==
 == 80-th k-point nmo = 114 (0.24493,-0.73479,0.24493) ==
 == 81-th k-point nmo = 114 (0.30616,-0.67356,0.18370) ==
 == 82-th k-point nmo = 114 (0.36739,-0.61232,0.12246) ==
 == 83-th k-point nmo = 114 (0.42863,-0.55109,0.06123) ==
 == 84-th k-point nmo = 114 (0.48986,-0.48986,0.00000) ==
 == 85-th k-point nmo = 114 (0.55109,-0.42863,-0.06123) ==
 == 86-th k-point nmo = 114 (0.61232,-0.36739,-0.12246) ==
 == 87-th k-point nmo = 114 (0.67356,-0.30616,-0.18370) ==
 == 88-th k-point nmo = 114 (0.73479,-0.24493,-0.24493) ==
 == 89-th k-point nmo = 114 (0.79602,-0.18370,-0.30616) ==
 == 90-th k-point nmo = 114 (0.30616,-0.79602,0.30616) ==
 == 91-th k-point nmo = 114 (0.36739,-0.73479,0.24493) ==
 == 92-th k-point nmo = 114 (0.42863,-0.67356,0.18370) ==
 == 93-th k-point nmo = 114 (0.48986,-0.61232,0.12246) ==
 == 94-th k-point nmo = 114 (0.55109,-0.55109,0.06123) ==
 == 95-th k-point nmo = 114 (0.61232,-0.48986,0.00000) ==
 == 96-th k-point nmo = 114 (0.67356,-0.42863,-0.06123) ==
 == 97-th k-point nmo = 114 (0.73479,-0.36739,-0.12246) ==
 == 98-th k-point nmo = 114 (0.79602,-0.30616,-0.18370) ==
 == 99-th k-point nmo = 114 (0.85725,-0.24493,-0.24493) ==
 == 100-th k-point nmo = 114 (-0.30616,-0.18370,-0.18370) ==
 == 101-th k-point nmo = 114 (-0.24493,-0.12246,-0.24493) ==
 == 102-th k-point nmo = 114 (-0.18370,-0.06123,-0.30616) ==
 == 103-th k-point nmo = 114 (-0.12246,-0.00000,-0.36739) ==
 == 104-th k-point nmo = 114 (-0.06123,0.06123,-0.42863) ==
 == 105-th k-point nmo = 114 (-0.00000,0.12246,-0.48986) ==
 == 106-th k-point nmo = 114 (0.06123,0.18370,-0.55109) ==
 == 107-th k-point nmo = 114 (0.12246,0.24493,-0.61232) ==
 == 108-th k-point nmo = 114 (0.18370,0.30616,-0.67356) ==
 == 109-th k-point nmo = 114 (0.24493,0.36739,-0.73479) ==
 == 110-th k-point nmo = 114 (-0.24493,-0.24493,-0.12246) ==
 == 111-th k-point nmo = 114 (-0.18370,-0.18370,-0.18370) ==
 == 112-th k-point nmo = 114 (-0.12246,-0.12246,-0.24493) ==
 == 113-th k-point nmo = 114 (-0.06123,-0.06123,-0.30616) ==
 == 114-th k-point nmo = 114 (-0.00000,-0.00000,-0.36739) ==
 == 115-th k-point nmo = 114 (0.06123,0.06123,-0.42863) ==
 == 116-th k-point nmo = 114 (0.12246,0.12246,-0.48986) ==
 == 117-th k-point nmo = 114 (0.18370,0.18370,-0.55109) ==
 == 118-th k-point nmo = 114 (0.24493,0.24493,-0.61232) ==
 == 119-th k-point nmo = 114 (0.30616,0.30616,-0.67356) ==
 == 120-th k-point nmo = 114 (-0.18370,-0.30616,-0.06123) ==
 == 121-th k-point nmo = 114 (-0.12246,-0.24493,-0.12246) ==
 == 122-th k-point nmo = 115 (-0.06123,-0.18370,-0.18370) ==
 == 123-th k-point nmo = 114 (-0.00000,-0.12246,-0.24493) ==
 == 124-th k-point nmo = 114 (0.06123,-0.06123,-0.30616) ==
 == 125-th k-point nmo = 114 (0.12246,-0.00000,-0.36739) ==
 == 126-th k-point nmo = 114 (0.18370,0.06123,-0.42863) ==
 == 127-th k-point nmo = 114 (0.24493,0.12246,-0.48986) ==
 == 128-th k-point nmo = 114 (0.30616,0.18370,-0.55109) ==
 == 129-th k-point nmo = 114 (0.36739,0.24493,-0.61232) ==
 == 130-th k-point nmo = 114 (-0.12246,-0.36739,0.00000) ==
 == 131-th k-point nmo = 114 (-0.06123,-0.30616,-0.06123) ==
 == 132-th k-point nmo = 114 (-0.00000,-0.24493,-0.12246) ==
 == 133-th k-point nmo = 115 (0.06123,-0.18370,-0.18370) ==
 == 134-th k-point nmo = 114 (0.12246,-0.12246,-0.24493) ==
 == 135-th k-point nmo = 114 (0.18370,-0.06123,-0.30616) ==
 == 136-th k-point nmo = 114 (0.24493,-0.00000,-0.36739) ==
 == 137-th k-point nmo = 114 (0.30616,0.06123,-0.42863) ==
 == 138-th k-point nmo = 114 (0.36739,0.12246,-0.48986) ==
 == 139-th k-point nmo = 114 (0.42863,0.18370,-0.55109) ==
 == 140-th k-point nmo = 114 (-0.06123,-0.42863,0.06123) ==
 == 141-th k-point nmo = 114 (-0.00000,-0.36739,0.00000) ==
 == 142-th k-point nmo = 114 (0.06123,-0.30616,-0.06123) ==
 == 143-th k-point nmo = 114 (0.12246,-0.24493,-0.12246) ==
 == 144-th k-point nmo = 114 (0.18370,-0.18370,-0.18370) ==
 == 145-th k-point nmo = 114 (0.24493,-0.12246,-0.24493) ==
 == 146-th k-point nmo = 114 (0.30616,-0.06123,-0.30616) ==
 == 147-th k-point nmo = 114 (0.36739,0.00000,-0.36739) ==
 == 148-th k-point nmo = 114 (0.42863,0.06123,-0.42863) ==
 == 149-th k-point nmo = 114 (0.48986,0.12246,-0.48986) ==
 == 150-th k-point nmo = 114 (-0.00000,-0.48986,0.12246) ==
 == 151-th k-point nmo = 114 (0.06123,-0.42863,0.06123) ==
 == 152-th k-point nmo = 114 (0.12246,-0.36739,0.00000) ==
 == 153-th k-point nmo = 114 (0.18370,-0.30616,-0.06123) ==
 == 154-th k-point nmo = 114 (0.24493,-0.24493,-0.12246) ==
 == 155-th k-point nmo = 114 (0.30616,-0.18370,-0.18370) ==
 == 156-th k-point nmo = 114 (0.36739,-0.12246,-0.24493) ==
 == 157-th k-point nmo = 114 (0.42863,-0.06123,-0.30616) ==
 == 158-th k-point nmo = 114 (0.48986,0.00000,-0.36739) ==
 == 159-th k-point nmo = 114 (0.55109,0.06123,-0.42863) ==
 == 160-th k-point nmo = 114 (0.06123,-0.55109,0.18370) ==
 == 161-th k-point nmo = 114 (0.12246,-0.48986,0.12246) ==
 == 162-th k-point nmo = 114 (0.18370,-0.42863,0.06123) ==
 == 163-th k-point nmo = 114 (0.24493,-0.36739,0.00000) ==
 == 164-th k-point nmo = 114 (0.30616,-0.30616,-0.06123) ==
 == 165-th k-point nmo = 114 (0.36739,-0.24493,-0.12246) ==
 == 166-th k-point nmo = 114 (0.42863,-0.18370,-0.18370) ==
 == 167-th k-point nmo = 114 (0.48986,-0.12246,-0.24493) ==
 == 168-th k-point nmo = 114 (0.55109,-0.06123,-0.30616) ==
 == 169-th k-point nmo = 114 (0.61232,0.00000,-0.36739) ==
 == 170-th k-point nmo = 114 (0.12246,-0.61232,0.24493) ==
 == 171-th k-point nmo = 114 (0.18370,-0.55109,0.18370) ==
 == 172-th k-point nmo = 114 (0.24493,-0.48986,0.12246) ==
 == 173-th k-point nmo = 114 (0.30616,-0.42863,0.06123) ==
 == 174-th k-point nmo = 114 (0.36739,-0.36739,0.00000) ==
 == 175-th k-point nmo = 114 (0.42863,-0.30616,-0.06123) ==
 == 176-th k-point nmo = 114 (0.48986,-0.24493,-0.12246) ==
 == 177-th k-point nmo = 114 (0.55109,-0.18370,-0.18370) ==
 == 178-th k-point nmo = 114 (0.61232,-0.12246,-0.24493) ==
 == 179-th k-point nmo = 114 (0.67356,-0.06123,-0.30616) ==
 == 180-th k-point nmo = 114 (0.18370,-0.67356,0.30616) ==
 == 181-th k-point nmo = 114 (0.24493,-0.61232,0.24493) ==
 == 182-th k-point nmo = 114 (0.30616,-0.55109,0.18370) ==
 == 183-th k-point nmo = 114 (0.36739,-0.48986,0.12246) ==
 == 184-th k-point nmo = 114 (0.42863,-0.42863,0.06123) ==
 == 185-th k-point nmo = 114 (0.48986,-0.36739,0.00000) ==
 == 186-th k-point nmo = 114 (0.55109,-0.30616,-0.06123) ==
 == 187-th k-point nmo = 114 (0.61232,-0.24493,-0.12246) ==
 == 188-th k-point nmo = 114 (0.67356,-0.18370,-0.18370) ==
 == 189-th k-point nmo = 114 (0.73479,-0.12246,-0.24493) ==
 == 190-th k-point nmo = 114 (0.24493,-0.73479,0.36739) ==
 == 191-th k-point nmo = 114 (0.30616,-0.67356,0.30616) ==
 == 192-th k-point nmo = 114 (0.36739,-0.61232,0.24493) ==
 == 193-th k-point nmo = 114 (0.42863,-0.55109,0.18370) ==
 == 194-th k-point nmo = 114 (0.48986,-0.48986,0.12246) ==
 == 195-th k-point nmo = 114 (0.55109,-0.42863,0.06123) ==
 == 196-th k-point nmo = 114 (0.61232,-0.36739,0.00000) ==
 == 197-th k-point nmo = 114 (0.67356,-0.30616,-0.06123) ==
 == 198-th k-point nmo = 114 (0.73479,-0.24493,-0.12246) ==
 == 199-th k-point nmo = 114 (0.79602,-0.18370,-0.18370) ==
 == 200-th k-point nmo = 114 (-0.36739,-0.12246,-0.12246) ==
 == 201-th k-point nmo = 114 (-0.30616,-0.06123,-0.18370) ==
 == 202-th k-point nmo = 114 (-0.24493,-0.00000,-0.24493) ==
 == 203-th k-point nmo = 114 (-0.18370,0.06123,-0.30616) ==
 == 204-th k-point nmo = 114 (-0.12246,0.12246,-0.36739) ==
 == 205-th k-point nmo = 114 (-0.06123,0.18370,-0.42863) ==
 == 206-th k-point nmo = 114 (-0.00000,0.24493,-0.48986) ==
 == 207-th k-point nmo = 114 (0.06123,0.30616,-0.55109) ==
 == 208-th k-point nmo = 114 (0.12246,0.36739,-0.61232) ==
 == 209-th k-point nmo = 114 (0.18370,0.42863,-0.67356) ==
 == 210-th k-point nmo = 114 (-0.30616,-0.18370,-0.06123) ==
 == 211-th k-point nmo = 114 (-0.24493,-0.12246,-0.12246) ==
 == 212-th k-point nmo = 115 (-0.18370,-0.06123,-0.18370) ==
 == 213-th k-point nmo = 114 (-0.12246,-0.00000,-0.24493) ==
 == 214-th k-point nmo = 114 (-0.06123,0.06123,-0.30616) ==
 == 215-th k-point nmo = 114 (-0.00000,0.12246,-0.36739) ==
 == 216-th k-point nmo = 114 (0.06123,0.18370,-0.42863) ==
 == 217-th k-point nmo = 114 (0.12246,0.24493,-0.48986) ==
 == 218-th k-point nmo = 114 (0.18370,0.30616,-0.55109) ==
 == 219-th k-point nmo = 114 (0.24493,0.36739,-0.61232) ==
 == 220-th k-point nmo = 114 (-0.24493,-0.24493,0.00000) ==
 == 221-th k-point nmo = 115 (-0.18370,-0.18370,-0.06123) ==
 == 222-th k-point nmo = 115 (-0.12246,-0.12246,-0.12246) ==
 == 223-th k-point nmo = 114 (-0.06123,-0.06123,-0.18370) ==
 == 224-th k-point nmo = 114 (-0.00000,-0.00000,-0.24493) ==
 == 225-th k-point nmo = 114 (0.06123,0.06123,-0.30616) ==
 == 226-th k-point nmo = 114 (0.12246,0.12246,-0.36739) ==
 == 227-th k-point nmo = 114 (0.18370,0.18370,-0.42863) ==
 == 228-th k-point nmo = 114 (0.24493,0.24493,-0.48986) ==
 == 229-th k-point nmo = 114 (0.30616,0.30616,-0.55109) ==
 == 230-th k-point nmo = 114 (-0.18370,-0.30616,0.06123) ==
 == 231-th k-point nmo = 114 (-0.12246,-0.24493,-0.00000) ==
 == 232-th k-point nmo = 114 (-0.06123,-0.18370,-0.06123) ==
 == 233-th k-point nmo = 115 (-0.00000,-0.12246,-0.12246) ==
 == 234-th k-point nmo = 114 (0.06123,-0.06123,-0.18370) ==
 == 235-th k-point nmo = 114 (0.12246,-0.00000,-0.24493) ==
 == 236-th k-point nmo = 114 (0.18370,0.06123,-0.30616) ==
 == 237-th k-point nmo = 114 (0.24493,0.12246,-0.36739) ==
 == 238-th k-point nmo = 114 (0.30616,0.18370,-0.42863) ==
 == 239-th k-point nmo = 114 (0.36739,0.24493,-0.48986) ==
 == 240-th k-point nmo = 114 (-0.12246,-0.36739,0.12246) ==
 == 241-th k-point nmo = 114 (-0.06123,-0.30616,0.06123) ==
 == 242-th k-point nmo = 114 (-0.00000,-0.24493,0.00000) ==
 == 243-th k-point nmo = 114 (0.06123,-0.18370,-0.06123) ==
 == 244-th k-point nmo = 115 (0.12246,-0.12246,-0.12246) ==
 == 245-th k-point nmo = 115 (0.18370,-0.06123,-0.18370) ==
 == 246-th k-point nmo = 114 (0.24493,0.00000,-0.24493) ==
 == 247-th k-point nmo = 114 (0.30616,0.06123,-0.30616) ==
 == 248-th k-point nmo = 114 (0.36739,0.12246,-0.36739) ==
 == 249-th k-point nmo = 114 (0.42863,0.18370,-0.42863) ==
 == 250-th k-point nmo = 114 (-0.06123,-0.42863,0.18370) ==
 == 251-th k-point nmo = 114 (-0.00000,-0.36739,0.12246) ==
 == 252-th k-point nmo = 114 (0.06123,-0.30616,0.06123) ==
 == 253-th k-point nmo = 114 (0.12246,-0.24493,-0.00000) ==
 == 254-th k-point nmo = 115 (0.18370,-0.18370,-0.06123) ==
 == 255-th k-point nmo = 114 (0.24493,-0.12246,-0.12246) ==
 == 256-th k-point nmo = 114 (0.30616,-0.06123,-0.18370) ==
 == 257-th k-point nmo = 114 (0.36739,0.00000,-0.24493) ==
 == 258-th k-point nmo = 114 (0.42863,0.06123,-0.30616) ==
 == 259-th k-point nmo = 114 (0.48986,0.12246,-0.36739) ==
 == 260-th k-point nmo = 114 (-0.00000,-0.48986,0.24493) ==
 == 261-th k-point nmo = 114 (0.06123,-0.42863,0.18370) ==
 == 262-th k-point nmo = 114 (0.12246,-0.36739,0.12246) ==
 == 263-th k-point nmo = 114 (0.18370,-0.30616,0.06123) ==
 == 264-th k-point nmo = 114 (0.24493,-0.24493,0.00000) ==
 == 265-th k-point nmo = 114 (0.30616,-0.18370,-0.06123) ==
 == 266-th k-point nmo = 114 (0.36739,-0.12246,-0.12246) ==
 == 267-th k-point nmo = 114 (0.42863,-0.06123,-0.18370) ==
 == 268-th k-point nmo = 114 (0.48986,0.00000,-0.24493) ==
 == 269-th k-point nmo = 114 (0.55109,0.06123,-0.30616) ==
 == 270-th k-point nmo = 114 (0.06123,-0.55109,0.30616) ==
 == 271-th k-point nmo = 114 (0.12246,-0.48986,0.24493) ==
 == 272-th k-point nmo = 114 (0.18370,-0.42863,0.18370) ==
 == 273-th k-point nmo = 114 (0.24493,-0.36739,0.12246) ==
 == 274-th k-point nmo = 114 (0.30616,-0.30616,0.06123) ==
 == 275-th k-point nmo = 114 (0.36739,-0.24493,0.00000) ==
 == 276-th k-point nmo = 114 (0.42863,-0.18370,-0.06123) ==
 == 277-th k-point nmo = 114 (0.48986,-0.12246,-0.12246) ==
 == 278-th k-point nmo = 114 (0.55109,-0.06123,-0.18370) ==
 == 279-th k-point nmo = 114 (0.61232,0.00000,-0.24493) ==
 == 280-th k-point nmo = 114 (0.12246,-0.61232,0.36739) ==
 == 281-th k-point nmo = 114 (0.18370,-0.55109,0.30616) ==
 == 282-th k-point nmo = 114 (0.24493,-0.48986,0.24493) ==
 == 283-th k-point nmo = 114 (0.30616,-0.42863,0.18370) ==
 == 284-th k-point nmo = 114 (0.36739,-0.36739,0.12246) ==
 == 285-th k-point nmo = 114 (0.42863,-0.30616,0.06123) ==
 == 286-th k-point nmo = 114 (0.48986,-0.24493,0.00000) ==
 == 287-th k-point nmo = 114 (0.55109,-0.18370,-0.06123) ==
 == 288-th k-point nmo = 114 (0.61232,-0.12246,-0.12246) ==
 == 289-th k-point nmo = 114 (0.67356,-0.06123,-0.18370) ==
 == 290-th k-point nmo = 114 (0.18370,-0.67356,0.42863) ==
 == 291-th k-point nmo = 114 (0.24493,-0.61232,0.36739) ==
 == 292-th k-point nmo = 114 (0.30616,-0.55109,0.30616) ==
 == 293-th k-point nmo = 114 (0.36739,-0.48986,0.24493) ==
 == 294-th k-point nmo = 114 (0.42863,-0.42863,0.18370) ==
 == 295-th k-point nmo = 114 (0.48986,-0.36739,0.12246) ==
 == 296-th k-point nmo = 114 (0.55109,-0.30616,0.06123) ==
 == 297-th k-point nmo = 114 (0.61232,-0.24493,0.00000) ==
 == 298-th k-point nmo = 114 (0.67356,-0.18370,-0.06123) ==
 == 299-th k-point nmo = 114 (0.73479,-0.12246,-0.12246) ==
 == 300-th k-point nmo = 114 (-0.42863,-0.06123,-0.06123) ==
 == 301-th k-point nmo = 114 (-0.36739,-0.00000,-0.12246) ==
 == 302-th k-point nmo = 114 (-0.30616,0.06123,-0.18370) ==
 == 303-th k-point nmo = 114 (-0.24493,0.12246,-0.24493) ==
 == 304-th k-point nmo = 114 (-0.18370,0.18370,-0.30616) ==
 == 305-th k-point nmo = 114 (-0.12246,0.24493,-0.36739) ==
 == 306-th k-point nmo = 114 (-0.06123,0.30616,-0.42863) ==
 == 307-th k-point nmo = 114 (-0.00000,0.36739,-0.48986) ==
 == 308-th k-point nmo = 114 (0.06123,0.42863,-0.55109) ==
 == 309-th k-point nmo = 114 (0.12246,0.48986,-0.61232) ==
 == 310-th k-point nmo = 114 (-0.36739,-0.12246,0.00000) ==
 == 311-th k-point nmo = 114 (-0.30616,-0.06123,-0.06123) ==
 == 312-th k-point nmo = 114 (-0.24493,-0.00000,-0.12246) ==
 == 313-th k-point nmo = 115 (-0.18370,0.06123,-0.18370) ==
 == 314-th k-point nmo = 114 (-0.12246,0.12246,-0.24493) ==
 == 315-th k-point nmo = 114 (-0.06123,0.18370,-0.30616) ==
 == 316-th k-point nmo = 114 (0.00000,0.24493,-0.36739) ==
 == 317-th k-point nmo = 114 (0.06123,0.30616,-0.42863) ==
 == 318-th k-point nmo = 114 (0.12246,0.36739,-0.48986) ==
 == 319-th k-point nmo = 114 (0.18370,0.42863,-0.55109) ==
 == 320-th k-point nmo = 114 (-0.30616,-0.18370,0.06123) ==
 == 321-th k-point nmo = 114 (-0.24493,-0.12246,-0.00000) ==
 == 322-th k-point nmo = 114 (-0.18370,-0.06123,-0.06123) ==
 == 323-th k-point nmo = 115 (-0.12246,-0.00000,-0.12246) ==
 == 324-th k-point nmo = 114 (-0.06123,0.06123,-0.18370) ==
 == 325-th k-point nmo = 114 (-0.00000,0.12246,-0.24493) ==
 == 326-th k-point nmo = 114 (0.06123,0.18370,-0.30616) ==
 == 327-th k-point nmo = 114 (0.12246,0.24493,-0.36739) ==
 == 328-th k-point nmo = 114 (0.18370,0.30616,-0.42863) ==
 == 329-th k-point nmo = 114 (0.24493,0.36739,-0.48986) ==
 == 330-th k-point nmo = 114 (-0.24493,-0.24493,0.12246) ==
 == 331-th k-point nmo = 115 (-0.18370,-0.18370,0.06123) ==
 == 332-th k-point nmo = 115 (-0.12246,-0.12246,0.00000) ==
 == 333-th k-point nmo = 115 (-0.06123,-0.06123,-0.06123) ==
 == 334-th k-point nmo = 116 (-0.00000,-0.00000,-0.12246) ==
 == 335-th k-point nmo = 114 (0.06123,0.06123,-0.18370) ==
 == 336-th k-point nmo = 114 (0.12246,0.12246,-0.24493) ==
 == 337-th k-point nmo = 114 (0.18370,0.18370,-0.30616) ==
 == 338-th k-point nmo = 114 (0.24493,0.24493,-0.36739) ==
 == 339-th k-point nmo = 114 (0.30616,0.30616,-0.42863) ==
 == 340-th k-point nmo = 114 (-0.18370,-0.30616,0.18370) ==
 == 341-th k-point nmo = 114 (-0.12246,-0.24493,0.12246) ==
 == 342-th k-point nmo = 114 (-0.06123,-0.18370,0.06123) ==
 == 343-th k-point nmo = 116 (-0.00000,-0.12246,0.00000) ==
 == 344-th k-point nmo = 115 (0.06123,-0.06123,-0.06123) ==
 == 345-th k-point nmo = 115 (0.12246,0.00000,-0.12246) ==
 == 346-th k-point nmo = 115 (0.18370,0.06123,-0.18370) ==
 == 347-th k-point nmo = 114 (0.24493,0.12246,-0.24493) ==
 == 348-th k-point nmo = 114 (0.30616,0.18370,-0.30616) ==
 == 349-th k-point nmo = 114 (0.36739,0.24493,-0.36739) ==
 == 350-th k-point nmo = 114 (-0.12246,-0.36739,0.24493) ==
 == 351-th k-point nmo = 114 (-0.06123,-0.30616,0.18370) ==
 == 352-th k-point nmo = 114 (-0.00000,-0.24493,0.12246) ==
 == 353-th k-point nmo = 114 (0.06123,-0.18370,0.06123) ==
 == 354-th k-point nmo = 115 (0.12246,-0.12246,0.00000) ==
 == 355-th k-point nmo = 114 (0.18370,-0.06123,-0.06123) ==
 == 356-th k-point nmo = 114 (0.24493,0.00000,-0.12246) ==
 == 357-th k-point nmo = 114 (0.30616,0.06123,-0.18370) ==
 == 358-th k-point nmo = 114 (0.36739,0.12246,-0.24493) ==
 == 359-th k-point nmo = 114 (0.42863,0.18370,-0.30616) ==
 == 360-th k-point nmo = 114 (-0.06123,-0.42863,0.30616) ==
 == 361-th k-point nmo = 114 (-0.00000,-0.36739,0.24493) ==
 == 362-th k-point nmo = 114 (0.06123,-0.30616,0.18370) ==
 == 363-th k-point nmo = 114 (0.12246,-0.24493,0.12246) ==
 == 364-th k-point nmo = 115 (0.18370,-0.18370,0.06123) ==
 == 365-th k-point nmo = 114 (0.24493,-0.12246,0.00000) ==
 == 366-th k-point nmo = 114 (0.30616,-0.06123,-0.06123) ==
 == 367-th k-point nmo = 114 (0.36739,0.00000,-0.12246) ==
 == 368-th k-point nmo = 114 (0.42863,0.06123,-0.18370) ==
 == 369-th k-point nmo = 114 (0.48986,0.12246,-0.24493) ==
 == 370-th k-point nmo = 114 (-0.00000,-0.48986,0.36739) ==
 == 371-th k-point nmo = 114 (0.06123,-0.42863,0.30616) ==
 == 372-th k-point nmo = 114 (0.12246,-0.36739,0.24493) ==
 == 373-th k-point nmo = 114 (0.18370,-0.30616,0.18370) ==
 == 374-th k-point nmo = 114 (0.24493,-0.24493,0.12246) ==
 == 375-th k-point nmo = 114 (0.30616,-0.18370,0.06123) ==
 == 376-th k-point nmo = 114 (0.36739,-0.12246,0.00000) ==
 == 377-th k-point nmo = 114 (0.42863,-0.06123,-0.06123) ==
 == 378-th k-point nmo = 114 (0.48986,0.00000,-0.12246) ==
 == 379-th k-point nmo = 114 (0.55109,0.06123,-0.18370) ==
 == 380-th k-point nmo = 114 (0.06123,-0.55109,0.42863) ==
 == 381-th k-point nmo = 114 (0.12246,-0.48986,0.36739) ==
 == 382-th k-point nmo = 114 (0.18370,-0.42863,0.30616) ==
 == 383-th k-point nmo = 114 (0.24493,-0.36739,0.24493) ==
 == 384-th k-point nmo = 114 (0.30616,-0.30616,0.18370) ==
 == 385-th k-point nmo = 114 (0.36739,-0.24493,0.12246) ==
 == 386-th k-point nmo = 114 (0.42863,-0.18370,0.06123) ==
 == 387-th k-point nmo = 114 (0.48986,-0.12246,0.00000) ==
 == 388-th k-point nmo = 114 (0.55109,-0.06123,-0.06123) ==
 == 389-th k-point nmo = 114 (0.61232,0.00000,-0.12246) ==
 == 390-th k-point nmo = 114 (0.12246,-0.61232,0.48986) ==
 == 391-th k-point nmo = 114 (0.18370,-0.55109,0.42863) ==
 == 392-th k-point nmo = 114 (0.24493,-0.48986,0.36739) ==
 == 393-th k-point nmo = 114 (0.30616,-0.42863,0.30616) ==
 == 394-th k-point nmo = 114 (0.36739,-0.36739,0.24493) ==
 == 395-th k-point nmo = 114 (0.42863,-0.30616,0.18370) ==
 == 396-th k-point nmo = 114 (0.48986,-0.24493,0.12246) ==
 == 397-th k-point nmo = 114 (0.55109,-0.18370,0.06123) ==
 == 398-th k-point nmo = 114 (0.61232,-0.12246,0.00000) ==
 == 399-th k-point nmo = 114 (0.67356,-0.06123,-0.06123) ==
 == 400-th k-point nmo = 114 (-0.48986,-0.00000,-0.00000) ==
 == 401-th k-point nmo = 114 (-0.42863,0.06123,-0.06123) ==
 == 402-th k-point nmo = 114 (-0.36739,0.12246,-0.12246) ==
 == 403-th k-point nmo = 114 (-0.30616,0.18370,-0.18370) ==
 == 404-th k-point nmo = 114 (-0.24493,0.24493,-0.24493) ==
 == 405-th k-point nmo = 114 (-0.18370,0.30616,-0.30616) ==
 == 406-th k-point nmo = 114 (-0.12246,0.36739,-0.36739) ==
 == 407-th k-point nmo = 114 (-0.06123,0.42863,-0.42863) ==
 == 408-th k-point nmo = 114 (0.00000,0.48986,-0.48986) ==
 == 409-th k-point nmo = 114 (0.06123,0.55109,-0.55109) ==
 == 410-th k-point nmo = 114 (-0.42863,-0.06123,0.06123) ==
 == 411-th k-point nmo = 114 (-0.36739,-0.00000,-0.00000) ==
 == 412-th k-point nmo = 114 (-0.30616,0.06123,-0.06123) ==
[...]
 -0.05105 0.02780 0.13359 0.18371 0.36256 0.43766 0.47989 0.53029 0.57028 0.68039
 0.71988 0.75763 0.83553 0.90925 0.92329 0.96287 0.97838 1.00304 1.07271 1.10084
 1.15949 1.17653 1.24008 1.28825 1.33439 1.37436 1.39272 1.45549 1.48459 1.51368
 1.55166 1.63650 1.67570 1.73719 1.78636 1.81846 1.88683 1.91118 1.93273 1.98393
 2.02349 2.07763 2.08976 2.17446 2.18171 2.25014 2.30396 2.31181 2.33634 2.35297
 2.41025 2.43903 2.48590 2.51847 2.58150 2.63100 2.68318 2.73907 2.78955 2.83838
 2.84625 2.89128 2.94959 2.95749 2.98287 2.99251 3.02800 3.06706 3.08925 3.13800
 3.19750 3.26169 3.27151 3.30325 3.32399 3.39548 3.40117 3.40503 3.48243 3.50811
 3.53722 3.60329 3.62401 3.67077 3.69415 3.74476 3.81433 3.87542 3.89615 3.95968
 4.06054 4.16135 4.24516 4.27347 4.53806 4.57091 8.20131 8.39714 8.46301 8.80210
 9.34758 9.83482 13.24933 14.28859
 == 982-th k-point (-0.18370,-0.06123,0.67356) occupation: 14==
 -65.00570 -65.00570 -4.62780 -4.62776 -3.03972 -3.03971 -3.03938 -3.03927 -3.03896 -3.03895
 -0.03274 0.01701 0.13021 0.16477 0.34384 0.39732 0.51099 0.57670 0.60765 0.68602
 0.73489 0.80883 0.84263 0.84920 0.91210 0.94757 0.95873 1.03467 1.04828 1.07662
 1.14076 1.15229 1.17104 1.24751 1.36273 1.40466 1.43355 1.46453 1.50334 1.51989
 1.58864 1.63970 1.72883 1.74639 1.75420 1.81096 1.85207 1.87184 1.89419 1.95255
 2.01554 2.06412 2.13585 2.18678 2.20233 2.25565 2.28825 2.29158 2.33245 2.37709
 2.39663 2.45617 2.49847 2.53260 2.57516 2.67374 2.69999 2.73308 2.78466 2.78725
 2.84425 2.88385 2.90539 2.95035 2.99812 3.00973 3.02527 3.08507 3.11646 3.11879
 3.19094 3.22826 3.28519 3.31194 3.32405 3.37047 3.38993 3.39759 3.47159 3.49525
 3.55388 3.60502 3.62741 3.66566 3.69415 3.73059 3.82544 3.90502 3.95956 4.00479
 4.11372 4.20683 4.27649 4.29769 4.57449 4.60147 8.22410 8.41949 8.55218 8.69150
 9.56375 9.92940 13.35438 13.72851
 == 983-th k-point (-0.12246,0.00000,0.61232) occupation: 14==
 -65.00570 -65.00570 -4.62778 -4.62778 -3.03972 -3.03972 -3.03932 -3.03932 -3.03896 -3.03896
 -0.00967 -0.00967 0.15448 0.15448 0.33376 0.33376 0.59020 0.59020 0.67013 0.67013
 0.75204 0.75204 0.82942 0.82942 0.93086 0.93086 0.98661 0.98661 1.07399 1.07399
 1.11368 1.11368 1.18435 1.18435 1.40796 1.40797 1.49217 1.49217 1.53154 1.53155
 1.62543 1.62544 1.73889 1.73895 1.74619 1.74620 1.82937 1.82938 1.89940 1.89940
 2.05070 2.05074 2.14201 2.14217 2.23712 2.23713 2.30962 2.30963 2.33907 2.33914
 2.45405 2.45408 2.48860 2.48862 2.60631 2.60652 2.73799 2.73800 2.77562 2.77564
 2.86199 2.86210 2.94170 2.94171 2.97831 2.97832 3.05034 3.05035 3.13287 3.13289
 3.21388 3.21400 3.27249 3.27250 3.31602 3.31606 3.38102 3.38169 3.52230 3.52240
 3.55468 3.55497 3.64797 3.64798 3.71954 3.71961 3.94135 3.94144 3.99465 3.99471
 4.23329 4.23346 4.32547 4.32550 4.60512 4.60635 8.32003 8.32004 8.62412 8.62417
 9.75076 9.75296 13.39243 13.39248
 == 984-th k-point (-0.06123,0.06123,0.55109) occupation: 14==
 -65.00570 -65.00570 -4.62780 -4.62776 -3.03972 -3.03971 -3.03937 -3.03927 -3.03897 -3.03896
 -0.03751 0.01773 0.15377 0.17353 0.30620 0.33420 0.60016 0.60338 0.67783 0.68212
 0.73586 0.74967 0.81118 0.81234 0.88882 0.96948 0.97838 0.99352 1.04501 1.08138
 1.10360 1.14350 1.17892 1.24228 1.37029 1.40728 1.48349 1.52480 1.53402 1.56313
 1.62688 1.65737 1.70760 1.72465 1.75195 1.75456 1.80656 1.83760 1.88002 1.90090
 2.01242 2.07444 2.11245 2.14951 2.15286 2.25684 2.29242 2.31797 2.34778 2.39657
 2.44327 2.44489 2.50081 2.51845 2.55012 2.59989 2.71452 2.75176 2.78891 2.81656
 2.84680 2.88223 2.93124 2.95835 2.96652 2.98385 3.03849 3.04857 3.09346 3.10919
 3.22311 3.24044 3.24868 3.29540 3.30245 3.31372 3.39355 3.42944 3.51504 3.51524
 3.54614 3.55087 3.64483 3.67751 3.70796 3.73744 3.92091 3.94299 3.96496 4.09073
 4.22414 4.27423 4.31555 4.35445 4.60317 4.61836 8.16469 8.45666 8.55789 8.60370
 9.71655 9.97903 13.36057 13.40646
 == 985-th k-point (0.00000,0.12246,0.48986) occupation: 14==
 -65.00570 -65.00569 -4.62782 -4.62774 -3.03971 -3.03971 -3.03942 -3.03923 -3.03898 -3.03897
 -0.05997 0.04552 0.15611 0.16810 0.33071 0.35284 0.52601 0.59052 0.66394 0.67680
 0.74266 0.76409 0.79882 0.83813 0.88459 0.90311 0.99315 1.00334 1.06845 1.10287
 1.14200 1.18252 1.21193 1.25808 1.36911 1.37870 1.45595 1.51408 1.53448 1.53858
 1.55150 1.69577 1.71994 1.74267 1.78838 1.79609 1.82016 1.83135 1.87828 1.89148
 2.03008 2.04234 2.08859 2.16320 2.16744 2.20156 2.21607 2.35609 2.36567 2.41633
 2.42404 2.44454 2.53302 2.55362 2.57876 2.60133 2.65917 2.76909 2.79728 2.84214
 2.86657 2.88360 2.91593 2.92464 2.95683 2.99627 2.99968 3.02520 3.06871 3.17116
 3.18025 3.23714 3.30832 3.32891 3.33198 3.37253 3.39937 3.43286 3.51635 3.52189
 3.53748 3.54023 3.64283 3.67723 3.70645 3.71824 3.88992 3.92298 3.96775 4.08482
 4.17738 4.19911 4.29359 4.34653 4.59730 4.61877 8.10245 8.35842 8.38668 8.75772
 10.16820 10.18229 13.29545 13.47744
 == 986-th k-point (0.06123,0.18370,0.42863) occupation: 14==
 -65.00570 -65.00569 -4.62784 -4.62772 -3.03971 -3.03970 -3.03947 -3.03919 -3.03898 -3.03896
 -0.07507 0.05970 0.14859 0.18578 0.35572 0.41505 0.45448 0.53294 0.64667 0.64846
 0.73923 0.75521 0.79187 0.83291 0.91081 0.94094 1.00233 1.02790 1.06972 1.10520
 1.17612 1.19201 1.27263 1.30022 1.35272 1.36736 1.42843 1.47868 1.50786 1.51756
 1.57383 1.65075 1.66687 1.73805 1.77410 1.82037 1.85713 1.89054 1.92337 1.95404
 2.00401 2.04730 2.07967 2.12461 2.14620 2.19151 2.26103 2.30933 2.36949 2.41309
 2.44290 2.46413 2.51347 2.56080 2.57786 2.62052 2.67018 2.72727 2.80134 2.82046
 2.84415 2.89545 2.91033 2.91907 2.96513 2.99300 3.04405 3.05593 3.08796 3.14311
 3.19125 3.28698 3.30359 3.32115 3.33095 3.39461 3.40793 3.45115 3.49111 3.51076
 3.54349 3.57612 3.66911 3.67189 3.70585 3.74354 3.83586 3.88368 3.94543 3.98436
 4.11069 4.13571 4.25928 4.32505 4.55688 4.60331 8.09882 8.23894 8.28783 8.95699
 9.93515 10.18233 13.24996 13.97509
 == 987-th k-point (0.12246,0.24493,0.36739) occupation: 14==
 -65.00570 -65.00569 -4.62785 -4.62771 -3.03970 -3.03968 -3.03951 -3.03915 -3.03898 -3.03896
 -0.08239 0.04930 0.16816 0.21228 0.37793 0.39748 0.46330 0.50029 0.61622 0.63043
 0.69912 0.74643 0.78415 0.86094 0.91102 0.95079 1.01374 1.07488 1.09717 1.13342
 1.17761 1.23684 1.27729 1.28849 1.33525 1.37633 1.42557 1.46156 1.48204 1.54793
 1.56443 1.62723 1.63725 1.73975 1.75773 1.79228 1.84167 1.90519 1.93280 1.99660
 2.03184 2.05803 2.09205 2.14371 2.18783 2.22403 2.26721 2.31852 2.36842 2.38816
 2.41084 2.43670 2.50028 2.55610 2.59390 2.62843 2.70712 2.76295 2.78145 2.81254
 2.82852 2.87256 2.90101 2.91880 2.96036 2.98417 3.02389 3.07961 3.10679 3.15909
 3.17566 3.25246 3.28589 3.30654 3.33762 3.40568 3.45929 3.46843 3.48138 3.50993
 3.56536 3.59805 3.65735 3.70724 3.73334 3.73950 3.81994 3.83270 3.91354 3.97551
 4.06713 4.11498 4.24385 4.32830 4.51517 4.56841 8.03400 8.24639 8.34626 9.09469
 9.54831 9.99991 12.96127 14.46482
 == 988-th k-point (0.18370,0.30616,0.30616) occupation: 14==
 -65.00570 -65.00569 -4.62785 -4.62771 -3.03969 -3.03968 -3.03954 -3.03912 -3.03898 -3.03897
 -0.08236 0.03334 0.19746 0.22890 0.35812 0.40355 0.41261 0.57136 0.59690 0.62057
 0.68834 0.72908 0.78282 0.80166 0.92521 0.98923 1.05480 1.08330 1.12348 1.13194
 1.19910 1.22255 1.28146 1.31138 1.32120 1.38317 1.41712 1.43759 1.48371 1.53241
 1.53563 1.60322 1.67161 1.71067 1.75686 1.82340 1.83270 1.88332 1.96951 1.99258
 2.04581 2.11812 2.13251 2.16779 2.17385 2.20895 2.31076 2.31592 2.33171 2.37093
 2.42220 2.44559 2.52170 2.56426 2.58001 2.64179 2.73988 2.76365 2.79095 2.80018
 2.82054 2.86345 2.90142 2.91887 2.95730 2.97939 2.98878 3.09697 3.11401 3.11699
 3.16604 3.17103 3.24736 3.33767 3.37360 3.40342 3.46129 3.48047 3.51354 3.54452
 3.60281 3.62992 3.69117 3.70273 3.73613 3.74913 3.75129 3.89419 3.97928 3.99188
 4.00919 4.12933 4.23740 4.33579 4.47025 4.51602 8.09994 8.23329 8.36813 9.27170
 9.39758 9.98253 12.48450 14.64412
 == 989-th k-point (0.24493,0.36739,0.24493) occupation: 14==
 -65.00570 -65.00569 -4.62785 -4.62771 -3.03969 -3.03968 -3.03954 -3.03913 -3.03899 -3.03897
 -0.07616 0.02413 0.20223 0.22151 0.35578 0.39870 0.41845 0.56293 0.60558 0.66931
 0.69824 0.70444 0.73520 0.80831 0.96664 1.02414 1.03242 1.07490 1.10280 1.11378
 1.21302 1.24593 1.24754 1.31284 1.32910 1.38382 1.40670 1.42298 1.47922 1.51399
 1.53818 1.60161 1.66811 1.70699 1.74833 1.81813 1.84904 1.94937 1.95292 1.99109
 2.06876 2.11419 2.13270 2.19012 2.21383 2.22097 2.24485 2.28544 2.33647 2.34101
 2.44527 2.44868 2.51512 2.55239 2.56531 2.67927 2.75072 2.76447 2.77026 2.80511
 2.82522 2.86401 2.88384 2.92594 2.96250 2.96303 3.03118 3.08783 3.09679 3.11710
 3.15169 3.20698 3.22706 3.22716 3.40150 3.42851 3.45588 3.49101 3.53765 3.53838
 3.59391 3.64968 3.66004 3.67050 3.72955 3.77073 3.80083 3.86357 3.97632 3.97703
 4.03723 4.14810 4.23899 4.31065 4.48292 4.48918 8.19531 8.35319 8.36941 9.16827
 9.51272 9.99154 12.43765 14.68155
 == 990-th k-point (-0.24493,-0.24493,0.85725) occupation: 14==
 -65.00570 -65.00569 -4.62785 -4.62771 -3.03969 -3.03968 -3.03954 -3.03913 -3.03899 -3.03897
 -0.07616 0.02413 0.20223 0.22151 0.35578 0.39870 0.41845 0.56293 0.60558 0.66931
 0.69824 0.70444 0.73520 0.80831 0.96664 1.02414 1.03242 1.07490 1.10280 1.11378
 1.21302 1.24593 1.24754 1.31284 1.32910 1.38382 1.40670 1.42298 1.47922 1.51399
 1.53818 1.60161 1.66811 1.70699 1.74833 1.81813 1.84904 1.94937 1.95292 1.99109
 2.06876 2.11419 2.13270 2.19012 2.21383 2.22097 2.24485 2.28544 2.33647 2.34101
 2.44527 2.44868 2.51512 2.55239 2.56531 2.67927 2.75072 2.76447 2.77026 2.80511
 2.82522 2.86401 2.88384 2.92594 2.96250 2.96303 3.03118 3.08783 3.09679 3.11710
 3.15169 3.20698 3.22706 3.22716 3.40150 3.42851 3.45588 3.49101 3.53765 3.53838
 3.59391 3.64968 3.66004 3.67050 3.72955 3.77073 3.80083 3.86357 3.97632 3.97703
 4.03723 4.14810 4.23899 4.31065 4.48292 4.48918 8.19531 8.35319 8.36941 9.16827
 9.51272 9.99154 12.43765 14.68155
 == 991-th k-point (-0.18370,-0.18370,0.79602) occupation: 14==
 -65.00570 -65.00569 -4.62784 -4.62772 -3.03971 -3.03969 -3.03949 -3.03917 -3.03899 -3.03895
 -0.06953 0.03656 0.15957 0.20278 0.34409 0.44996 0.46533 0.48477 0.63665 0.66795
 0.72163 0.72167 0.74758 0.89937 0.94248 0.96489 1.02208 1.02949 1.03478 1.14002
 1.15173 1.25712 1.26670 1.29575 1.31755 1.36324 1.41570 1.43244 1.47408 1.55400
 1.59908 1.61412 1.66669 1.67836 1.72946 1.81010 1.90607 1.92095 1.98965 1.99201
 2.03583 2.05612 2.06646 2.14834 2.15557 2.24356 2.29192 2.30213 2.31292 2.37077
 2.41501 2.47127 2.48837 2.51012 2.59102 2.66979 2.68158 2.73716 2.78777 2.82002
 2.83793 2.89722 2.93771 2.94063 2.95292 3.01579 3.05338 3.05354 3.06681 3.11041
 3.14592 3.24726 3.29814 3.30619 3.35127 3.36058 3.39213 3.42476 3.51940 3.52315
 3.58041 3.63396 3.66262 3.70912 3.75589 3.77599 3.81591 3.83097 3.84668 3.96180
 4.06419 4.18960 4.24926 4.28825 4.53876 4.54111 8.11372 8.34994 8.38378 8.93853
 9.72400 9.89992 13.02712 14.45132
 == 992-th k-point (-0.12246,-0.12246,0.73479) occupation: 14==
 -65.00570 -65.00569 -4.62782 -4.62774 -3.03971 -3.03970 -3.03943 -3.03922 -3.03898 -3.03896
 -0.05691 0.03938 0.13897 0.18520 0.32145 0.40101 0.52639 0.52877 0.66369 0.67273
 0.73459 0.75131 0.78919 0.87980 0.90099 0.96864 0.97760 1.00130 1.02863 1.11551
 1.16527 1.17414 1.19462 1.30621 1.35779 1.36264 1.42342 1.46969 1.50778 1.56797
 1.61540 1.63023 1.68682 1.71373 1.72380 1.81640 1.86658 1.87705 1.93511 1.97919
 1.98455 2.05556 2.11994 2.13779 2.17446 2.19197 2.24644 2.32979 2.35574 2.37750
 2.45308 2.45661 2.51434 2.54400 2.55136 2.63259 2.65566 2.76409 2.79292 2.81592
 2.82549 2.91350 2.91701 2.95327 2.95643 3.02078 3.02220 3.05749 3.07953 3.14846
 3.18922 3.22420 3.26893 3.32626 3.32894 3.35363 3.36608 3.46059 3.48398 3.48742
 3.56759 3.64234 3.65861 3.66468 3.71060 3.76653 3.82956 3.87918 3.94275 4.02194
 4.09750 4.23292 4.27224 4.30686 4.57522 4.59398 8.10074 8.36336 8.44109 8.77114
 9.78536 10.06635 13.24206 13.85573
 == 993-th k-point (-0.06123,-0.06123,0.67356) occupation: 14==
 -65.00570 -65.00570 -4.62780 -4.62776 -3.03972 -3.03971 -3.03937 -3.03927 -3.03897 -3.03896
 -0.03751 0.01773 0.15377 0.17353 0.30620 0.33420 0.60015 0.60338 0.67783 0.68212
 0.73586 0.74967 0.81118 0.81234 0.88882 0.96948 0.97838 0.99352 1.04500 1.08138
 1.10361 1.14350 1.17893 1.24228 1.37027 1.40730 1.48350 1.52480 1.53402 1.56311
 1.62686 1.65738 1.70762 1.72467 1.75210 1.75458 1.80640 1.83756 1.88001 1.90091
 2.01210 2.07470 2.11201 2.14945 2.15323 2.25691 2.29232 2.31794 2.34775 2.39660
 2.44328 2.44482 2.50018 2.51861 2.55004 2.60024 2.71458 2.75192 2.78858 2.81679
 2.84720 2.88180 2.93125 2.95842 2.96651 2.98390 3.03862 3.04844 3.09350 3.10918
 3.22320 3.23990 3.24918 3.29510 3.30245 3.31386 3.39157 3.43131 3.51461 3.51527
 3.54668 3.55146 3.64465 3.67755 3.70777 3.73751 3.92041 3.94286 3.96565 4.09066
 4.22514 4.27350 4.31575 4.35451 4.59925 4.62248 8.16469 8.45669 8.55756 8.60389
 9.70950 9.98772 13.36077 13.40667
 == 994-th k-point (0.00000,0.00000,0.61232) occupation: 14==
 -65.00570 -65.00570 -4.62778 -4.62778 -3.03972 -3.03972 -3.03932 -3.03932 -3.03896 -3.03896
 -0.01166 -0.01166 0.16950 0.16950 0.30233 0.30233 0.64790 0.64790 0.68863 0.68864
 0.74436 0.74436 0.75498 0.75498 0.97738 0.97739 1.00274 1.00275 1.02303 1.02304
 1.06988 1.06988 1.23782 1.23782 1.37409 1.37411 1.54468 1.54469 1.58190 1.58191
 1.63095 1.63095 1.69124 1.69124 1.74492 1.74494 1.82745 1.82779 1.85609 1.85609
 2.08058 2.08142 2.09734 2.09740 2.18716 2.18716 2.30478 2.30479 2.43073 2.43076
 2.45549 2.45549 2.50285 2.50285 2.52100 2.52213 2.73704 2.73704 2.77714 2.77728
 2.86741 2.86799 2.98827 2.98828 3.00917 3.00917 3.02670 3.02670 3.08142 3.08154
 3.23352 3.23366 3.25037 3.25054 3.26309 3.26309 3.45226 3.45600 3.49203 3.49205
 3.55749 3.55756 3.64296 3.64296 3.72918 3.72919 3.93609 3.93685 4.06929 4.06929
 4.29077 4.29140 4.35420 4.35420 4.60792 4.61287 8.31772 8.31772 8.62558 8.62567
 9.65709 9.66562 13.41098 13.41098
 == 995-th k-point (0.06123,0.06123,0.55109) occupation: 14==
 -65.00570 -65.00570 -4.62780 -4.62776 -3.03972 -3.03971 -3.03937 -3.03927 -3.03897 -3.03896
 -0.03751 0.01773 0.15377 0.17353 0.30620 0.33420 0.60015 0.60338 0.67783 0.68212
 0.73586 0.74967 0.81118 0.81234 0.88882 0.96948 0.97838 0.99352 1.04500 1.08138
 1.10361 1.14350 1.17893 1.24228 1.37027 1.40730 1.48350 1.52480 1.53402 1.56311
 1.62686 1.65738 1.70762 1.72467 1.75210 1.75458 1.80640 1.83756 1.88001 1.90091
 2.01210 2.07470 2.11201 2.14945 2.15323 2.25691 2.29232 2.31794 2.34775 2.39660
 2.44328 2.44482 2.50018 2.51861 2.55004 2.60024 2.71458 2.75192 2.78858 2.81679
 2.84720 2.88180 2.93125 2.95842 2.96651 2.98390 3.03862 3.04844 3.09350 3.10918
 3.22320 3.23990 3.24918 3.29510 3.30245 3.31386 3.39157 3.43131 3.51461 3.51527
 3.54668 3.55146 3.64465 3.67755 3.70777 3.73751 3.92041 3.94286 3.96565 4.09066
 4.22514 4.27350 4.31575 4.35451 4.59925 4.62248 8.16469 8.45669 8.55756 8.60389
 9.70950 9.98772 13.36077 13.40667
 == 996-th k-point (0.12246,0.12246,0.48986) occupation: 14==
 -65.00570 -65.00569 -4.62782 -4.62774 -3.03971 -3.03970 -3.03943 -3.03922 -3.03898 -3.03896
 -0.05691 0.03938 0.13897 0.18520 0.32145 0.40101 0.52639 0.52877 0.66369 0.67273
 0.73459 0.75131 0.78919 0.87980 0.90099 0.96864 0.97760 1.00130 1.02863 1.11551
 1.16527 1.17414 1.19462 1.30621 1.35779 1.36264 1.42342 1.46969 1.50778 1.56797
 1.61540 1.63023 1.68682 1.71373 1.72380 1.81640 1.86658 1.87705 1.93511 1.97919
 1.98455 2.05556 2.11994 2.13779 2.17446 2.19197 2.24644 2.32979 2.35574 2.37750
 2.45308 2.45661 2.51434 2.54400 2.55136 2.63259 2.65566 2.76409 2.79292 2.81592
 2.82549 2.91350 2.91701 2.95327 2.95643 3.02078 3.02220 3.05749 3.07953 3.14846
 3.18922 3.22420 3.26893 3.32626 3.32894 3.35363 3.36608 3.46059 3.48398 3.48742
 3.56759 3.64234 3.65861 3.66468 3.71060 3.76653 3.82956 3.87918 3.94275 4.02194
 4.09750 4.23292 4.27224 4.30686 4.57522 4.59398 8.10074 8.36336 8.44109 8.77114
 9.78536 10.06635 13.24206 13.85573
 == 997-th k-point (0.18370,0.18370,0.42863) occupation: 14==
 -65.00570 -65.00569 -4.62784 -4.62772 -3.03971 -3.03969 -3.03949 -3.03917 -3.03899 -3.03895
 -0.06953 0.03656 0.15957 0.20278 0.34409 0.44996 0.46533 0.48477 0.63665 0.66795
 0.72163 0.72167 0.74758 0.89937 0.94248 0.96489 1.02208 1.02949 1.03478 1.14002
 1.15173 1.25712 1.26670 1.29575 1.31755 1.36324 1.41570 1.43244 1.47408 1.55400
 1.59908 1.61412 1.66669 1.67836 1.72946 1.81010 1.90607 1.92095 1.98965 1.99201
 2.03583 2.05612 2.06646 2.14834 2.15557 2.24356 2.29192 2.30213 2.31292 2.37077
 2.41501 2.47127 2.48837 2.51012 2.59102 2.66979 2.68158 2.73716 2.78777 2.82002
 2.83793 2.89722 2.93771 2.94063 2.95292 3.01579 3.05338 3.05354 3.06681 3.11041
 3.14592 3.24726 3.29814 3.30619 3.35127 3.36058 3.39213 3.42476 3.51940 3.52315
 3.58041 3.63396 3.66262 3.70912 3.75589 3.77599 3.81591 3.83097 3.84668 3.96180
 4.06419 4.18960 4.24926 4.28825 4.53876 4.54111 8.11372 8.34994 8.38378 8.93853
 9.72400 9.89992 13.02712 14.45132
 == 998-th k-point (0.24493,0.24493,0.36739) occupation: 14==
 -65.00570 -65.00569 -4.62785 -4.62771 -3.03969 -3.03968 -3.03954 -3.03913 -3.03899 -3.03897
 -0.07616 0.02413 0.20223 0.22151 0.35578 0.39870 0.41845 0.56293 0.60558 0.66931
 0.69824 0.70444 0.73520 0.80831 0.96664 1.02414 1.03242 1.07490 1.10280 1.11378
 1.21302 1.24593 1.24754 1.31284 1.32910 1.38382 1.40670 1.42298 1.47922 1.51399
 1.53818 1.60161 1.66811 1.70699 1.74833 1.81813 1.84904 1.94937 1.95292 1.99109
 2.06876 2.11419 2.13270 2.19012 2.21383 2.22097 2.24485 2.28544 2.33647 2.34101
 2.44527 2.44868 2.51512 2.55239 2.56531 2.67927 2.75072 2.76447 2.77026 2.80511
 2.82522 2.86401 2.88384 2.92594 2.96250 2.96303 3.03118 3.08783 3.09679 3.11710
 3.15169 3.20698 3.22706 3.22716 3.40150 3.42851 3.45588 3.49101 3.53765 3.53838
 3.59391 3.64968 3.66004 3.67050 3.72955 3.77073 3.80083 3.86357 3.97632 3.97703
 4.03723 4.14810 4.23899 4.31065 4.48292 4.48918 8.19531 8.35319 8.36941 9.16827
 9.51272 9.99154 12.43765 14.68155
 == 999-th k-point (0.30616,0.30616,0.30616) occupation: 14==
 -65.00570 -65.00569 -4.62785 -4.62771 -3.03968 -3.03968 -3.03956 -3.03910 -3.03898 -3.03898
 -0.07814 0.01867 0.23061 0.23061 0.33348 0.39988 0.39988 0.55829 0.67259 0.67259
 0.69294 0.69516 0.69516 0.75385 0.99992 1.01491 1.09074 1.09074 1.09458 1.09458
 1.23858 1.26020 1.26020 1.30697 1.30697 1.35742 1.41648 1.49043 1.49043 1.50105
 1.50105 1.58383 1.62551 1.65337 1.87967 1.87967 1.88662 1.90817 1.90817 1.92002
 2.12733 2.12733 2.19132 2.19612 2.19612 2.24477 2.26989 2.26989 2.33413 2.33413
 2.46221 2.46221 2.55668 2.55668 2.60139 2.67917 2.74733 2.77459 2.77459 2.79478
 2.81811 2.81811 2.82819 2.91982 2.94998 2.96171 3.09535 3.09535 3.09791 3.09791
 3.19217 3.19217 3.21258 3.21258 3.31469 3.46581 3.46581 3.55215 3.55595 3.55595
 3.56434 3.67415 3.67415 3.69021 3.73079 3.76022 3.93377 3.93377 4.00562 4.00562
 4.12748 4.14907 4.14907 4.33516 4.43925 4.43925 8.25903 8.25903 8.32991 9.36527
 9.36527 10.00498 11.95037 14.72133
 ---------------------------------------------------------------------------
 VBM is at 444-th k-point with 7.49079 eV
 CBM is at 4-th k-point with 8.09239 eV
 Band gap is 0.60159 eV


           Ground-State Mulliken Net Atomic Charges

      Atom                 Charge (a.u.)          Spin (a.u.)
   --------------------------------------------------------
      1 Si              (-0.000001,-0.000000)    (0.000000,0.000000)
      2 Si                (0.000001,0.000000)    (0.000000,0.000000)
   --------------------------------------------------------
  Sum of atomic charges =     (-0.000000,-0.000000)
  Sum of spin   charges =       (0.000000,0.000000)



 Total job time:  1411.36 s.
 Tue Sep  9 05:50:30 2025


        *************************************************************
        *                                                           *
        *  Thank you very much for using QCPBC. Have a nice day.    *
        *                                                           *
        *************************************************************

Running job 1 of 1
