                  Welcome to Q-Chem
           with Periodic Boundary Condition
     A Quantum Leap Into The Future Of Chemistry

 Adam Rettig, Xintian Feng, Meng-Fu Chen, Hieu Dinh, Stephen Quiton,
 Anton Ni, Paul J. Robinson, Jinghong Zhang, Joonho Lee

Contributors to earlier versions of Q-Chem not listed above:
 Evgeny Epifanovsky, Leo Cunha, Jerome F. Gonthier, Kuan-Yu Liu
 Input file: /n/netscratch/joonholee_lab/Lab/hieudinh//si_2_ccpvqz_omega_0.3_444.scratch20250909030116/si_2_ccpvqz_omega_0.3_444.0
 Scratch folder: /n/netscratch/joonholee_lab/Lab/hieudinh//si_2_ccpvqz_omega_0.3_444.scratch20250909030116
 Auxillary files located at: /n/holylabs/LABS/joonholee_lab/Lab/qchem_base/qcaux
 Q-Chem begins on Tue Sep  9 03:01:17 2025

 -------------------------------------------------------------
 User input:
 -------------------------------------------------------------
 $lattice
 3
 0.000000 5.130600 5.130600
 5.130600 0.000000 5.130600
 5.130600 5.130600 0.000000
 $end
 
 $unitcell
 ABSOLUTE
 0 1
 Si 0.000000 0.000000 0.000000
 Si 2.565300 2.565300 2.565300
 $end
 
 $rem
 jobtype = sp
 method = pbe
 scf_convergence = 5
 scf_guess = autosad
 scf_algorithm = diis_gdm
 basis = cc-pvqz
 aux_basis = cc-pvqz-jk
 input_bohr = true
 symmetry = false
 rsdf_print_level 1
 is_basis_uctr true
 
 mp_mesh = [4,4,4]
 
 integral_direct true
 bvk_cgto true
 
 thresh 14
 mem_total 1000000
 threads 32
 
 MAX_SCF_CYCLES 500
 madelung = false
 omega 0.3
 do_rij_bigmem true
 automate_g true
 print_level 10
 grid_type_xc 1
 
 thresh_1e2c_sp 1e-14
 thresh_2e3c_bra_ket_sep 1e-10
 thresh_g 1e-12
 $end
 
 -------------------------------------------------------------
 Running PBC job

 Requested Exchange Correlation Functionals: 
  DFT Exchange:  1.00000 pbe_x
  DFT Correlation:  1.00000 pbe_c
 using 32 threads for computing.
 ---------------------------------------------------------------
      Coordinates of Atoms in Central Unit Cell (Angstroms)
    I     Atom         X            Y            Z
 ---------------------------------------------------------------
    1      Si      0.000000     0.000000     0.000000
    2      Si      1.357498     1.357498     1.357498
 ---------------------------------------------------------------
 --------------------------------------------------
              Lattice Vectors (Angstroms)
              X            Y            Z
 --------------------------------------------------
   X       0.000000     2.714997     2.714997
   Y       2.714997     0.000000     2.714997
   Z       2.714997     2.714997     0.000000
 --------------------------------------------------
 --------------------------------------------------
       Reciprocal Lattice Vectors (Angstroms^-1)
              X            Y            Z
 --------------------------------------------------
   X      -1.157126     1.157126     1.157126
   Y       1.157126    -1.157126     1.157126
   Z       1.157126     1.157126    -1.157126
 --------------------------------------------------

 Single point calculation requested

 Hamiltonian contributions:
 List of terms in Hamiltonian: kpts_nn, kpts_kinetic, kpts_vnuc_df, kpts_xc, kpts_rij_bigmem

 K-Points calculation started.

 Basis set information about using solid harmonic (1) or Cartesian (0):
  si : D(1) D(1) D(1) F(1) F(1) G(1) 

 Basis set information about using solid harmonic (1) or Cartesian (0):
  si : D(1) D(1) D(1) D(1) D(1) D(1) D(1) D(1) D(1) F(1) F(1) F(1) F(1) G(1) G(1) H(1) 

 There are 118 basis functions in the central unit cell.
 Print atomic basis of atoms in the central unit cell:
 -------------------------------------------------------------
2 66 134 28

  0.00000000000000e+00  0.00000000000000e+00  0.00000000000000e+00
  2.56530000000000e+00  2.56530000000000e+00  2.56530000000000e+00

  5.13000000000000e+05
  7.68200000000000e+04
  1.74700000000000e+04
  4.93500000000000e+03
  1.60200000000000e+03
  5.74100000000000e+02
  2.21500000000000e+02
  9.05400000000000e+01
  3.87400000000000e+01
  1.69500000000000e+01
  6.45200000000000e+00
  2.87400000000000e+00
  1.25000000000000e+00
  3.59900000000000e-01
  1.69900000000000e-01
  7.06600000000000e-02
  1.12200000000000e+03
  2.66000000000000e+02
  8.59200000000000e+01
  3.23300000000000e+01
  1.33700000000000e+01
  5.80000000000000e+00
  2.55900000000000e+00
  1.12400000000000e+00
  3.98800000000000e-01
  1.53300000000000e-01
  5.72800000000000e-02
  7.60000000000000e-01
  3.02000000000000e-01
  1.20000000000000e-01
  5.41000000000000e-01
  2.12000000000000e-01
  4.61000000000000e-01
  5.13000000000000e+05
  7.68200000000000e+04
  1.74700000000000e+04
  4.93500000000000e+03
  1.60200000000000e+03
  5.74100000000000e+02
  2.21500000000000e+02
  9.05400000000000e+01
  3.87400000000000e+01
  1.69500000000000e+01
  6.45200000000000e+00
  2.87400000000000e+00
  1.25000000000000e+00
  3.59900000000000e-01
  1.69900000000000e-01
  7.06600000000000e-02
  1.12200000000000e+03
  2.66000000000000e+02
  8.59200000000000e+01
  3.23300000000000e+01
  1.33700000000000e+01
  5.80000000000000e+00
  2.55900000000000e+00
  1.12400000000000e+00
  3.98800000000000e-01
  1.53300000000000e-01
  5.72800000000000e-02
  7.60000000000000e-01
  3.02000000000000e-01
  1.20000000000000e-01
  5.41000000000000e-01
  2.12000000000000e-01
  4.61000000000000e-01

  3.56439732356011e-01
  6.67250935594825e-01
  1.15567538346971e+00
  1.89079471139597e+00
  2.92997535092854e+00
  4.25377897422013e+00
  5.53035652706994e+00
  5.88407857713363e+00
  4.26432221020809e+00
  1.46246852660687e+00
  9.90009037975635e-02
 -5.26805361731285e-03
  1.58075269248041e-03
 -9.63604858609034e-02
 -1.80140685379119e-01
 -3.12991611081079e-01
 -5.12013980868736e-01
 -8.03092560139717e-01
 -1.18597193899895e+00
 -1.63453354628192e+00
 -1.94138718043020e+00
 -1.86039340932271e+00
 -9.21642524314205e-01
  4.93552860211257e-01
  9.09065541611183e-01
  3.40430003714153e-01
  4.89002727192571e-02
  9.13245846186842e-02
  1.58921585782757e-01
  2.59526822498432e-01
  4.08347517411705e-01
  6.02266139654795e-01
  8.36774006155092e-01
  9.98775610751853e-01
  9.86583994360998e-01
  5.01500269670235e-01
 -2.91439000418814e-01
 -6.84883633703988e-01
 -4.85138432421684e-01
  3.31166560285492e-01
  1.88605835767988e-01
  9.76765512168845e-02
  4.17977074735086e+00
  5.88843070847456e+00
  7.44317185052013e+00
  8.05001094515016e+00
  6.97099017282640e+00
  4.33955185260449e+00
  1.76355858703549e+00
  3.34437932089088e-01
 -4.09551658476811e+00
 -5.70145272051300e+00
 -7.35388974061730e+00
 -7.93663059323219e+00
 -7.17813870370958e+00
 -4.42768957771269e+00
 -2.05517820096269e+00
 -1.72105843348797e-01
  4.51735295769850e-01
  1.36731249153695e-01
  3.99432914781939e-02
  1.01820035164008e+00
  2.02498404800701e-01
  4.02695370421242e-02
  3.69528803814005e-01
  4.48962571437413e-02
  1.32316184864580e-01
  3.56439732356011e-01
  6.67250935594825e-01
  1.15567538346971e+00
  1.89079471139597e+00
  2.92997535092854e+00
  4.25377897422013e+00
  5.53035652706994e+00
  5.88407857713363e+00
  4.26432221020809e+00
  1.46246852660687e+00
  9.90009037975635e-02
 -5.26805361731285e-03
  1.58075269248041e-03
 -9.63604858609034e-02
 -1.80140685379119e-01
 -3.12991611081079e-01
 -5.12013980868736e-01
 -8.03092560139717e-01
 -1.18597193899895e+00
 -1.63453354628192e+00
 -1.94138718043020e+00
 -1.86039340932271e+00
 -9.21642524314205e-01
  4.93552860211257e-01
  9.09065541611183e-01
  3.40430003714153e-01
  4.89002727192571e-02
  9.13245846186842e-02
  1.58921585782757e-01
  2.59526822498432e-01
  4.08347517411705e-01
  6.02266139654795e-01
  8.36774006155092e-01
  9.98775610751853e-01
  9.86583994360998e-01
  5.01500269670235e-01
 -2.91439000418814e-01
 -6.84883633703988e-01
 -4.85138432421684e-01
  3.31166560285492e-01
  1.88605835767988e-01
  9.76765512168845e-02
  4.17977074735086e+00
  5.88843070847456e+00
  7.44317185052013e+00
  8.05001094515016e+00
  6.97099017282640e+00
  4.33955185260449e+00
  1.76355858703549e+00
  3.34437932089088e-01
 -4.09551658476811e+00
 -5.70145272051300e+00
 -7.35388974061730e+00
 -7.93663059323219e+00
 -7.17813870370958e+00
 -4.42768957771269e+00
 -2.05517820096269e+00
 -1.72105843348797e-01
  4.51735295769850e-01
  1.36731249153695e-01
  3.99432914781939e-02
  1.01820035164008e+00
  2.02498404800701e-01
  4.02695370421242e-02
  3.69528803814005e-01
  4.48962571437413e-02
  1.32316184864580e-01

0 0 0 0 3 3 3
0 0 13 0 26 0 
13 0

0 3 3 13 1 1 1
39 0 
1 0

0 4 4 14 1 1 1
40 0 
1 0

0 5 5 15 1 1 1
41 0 
1 0

0 6 6 16 2 6 6
42 1 50 1 
8 0

0 12 12 24 1 3 3
58 1 
1 0

0 15 15 25 1 3 3
59 1 
1 0

0 18 18 26 1 3 3
60 1 
1 0

0 21 21 27 1 5 6
61 2 
1 1

0 26 26 28 1 5 6
62 2 
1 1

0 31 31 29 1 5 6
63 2 
1 1

0 36 36 30 1 7 10
64 3 
1 1

0 43 43 31 1 7 10
65 3 
1 1

0 50 50 32 1 9 15
66 4 
1 1

1 59 59 33 3 3 3
67 0 80 0 93 0 
13 0

1 62 62 46 1 1 1
106 0 
1 0

1 63 63 47 1 1 1
107 0 
1 0

1 64 64 48 1 1 1
108 0 
1 0

1 65 65 49 2 6 6
109 1 117 1 
8 0

1 71 71 57 1 3 3
125 1 
1 0

1 74 74 58 1 3 3
126 1 
1 0

1 77 77 59 1 3 3
127 1 
1 0

1 80 80 60 1 5 6
128 2 
1 1

1 85 85 61 1 5 6
129 2 
1 1

1 90 90 62 1 5 6
130 2 
1 1

1 95 95 63 1 7 10
131 3 
1 1

1 102 102 64 1 7 10
132 3 
1 1

1 109 109 65 1 9 15
133 4 
1 1

 -------------------------------------------------------------
 Allocate 265256 B from available memory: 1048576000000 B
 There are 2197 image cells after screening.
 There are 2061 image cells for CGTO evaluation after screening.
 Real-Space grid for FFT initialized based on kinetic energy cutoff (eV) = 500.0
 Real-Space grid for FFT: (10,10,10)
 There are 9261 real-space grid points.
 There are 64 batches of real-space grid points. 
 Size of each grid batch is around 128
 Grid for AFT initialized based on kinetic energy cutoff (eV) = 500.0
 Real-Space grid for AFT: (10,10,10)
 There are 9261 real-space grid points.

 There are 5628 atom-centered grid points.

 Spacegroup symmetry group: Fd-3m
 Reducing spacegroup symmetry to symmorphic group: F -4 3 m
 Monkhorst-Pack mesh is [4,4,4]
 There are 64 k points.
kpoints in Bohr
-0.1530811530 -0.1530811530 -0.1530811530
-0.0000000000 -0.0000000000 -0.3061623059
0.1530811530 0.1530811530 -0.4592434589
0.3061623059 0.3061623059 -0.6123246119
-0.0000000000 -0.3061623059 0.0000000000
0.1530811530 -0.1530811530 -0.1530811530
0.3061623059 0.0000000000 -0.3061623059
0.4592434589 0.1530811530 -0.4592434589
0.1530811530 -0.4592434589 0.1530811530
0.3061623059 -0.3061623059 0.0000000000
0.4592434589 -0.1530811530 -0.1530811530
0.6123246119 0.0000000000 -0.3061623059
0.3061623059 -0.6123246119 0.3061623059
0.4592434589 -0.4592434589 0.1530811530
0.6123246119 -0.3061623059 0.0000000000
0.7654057648 -0.1530811530 -0.1530811530
-0.3061623059 -0.0000000000 -0.0000000000
-0.1530811530 0.1530811530 -0.1530811530
0.0000000000 0.3061623059 -0.3061623059
0.1530811530 0.4592434589 -0.4592434589
-0.1530811530 -0.1530811530 0.1530811530
0.0000000000 0.0000000000 0.0000000000
0.1530811530 0.1530811530 -0.1530811530
0.3061623059 0.3061623059 -0.3061623059
-0.0000000000 -0.3061623059 0.3061623059
0.1530811530 -0.1530811530 0.1530811530
0.3061623059 0.0000000000 0.0000000000
0.4592434589 0.1530811530 -0.1530811530
0.1530811530 -0.4592434589 0.4592434589
0.3061623059 -0.3061623059 0.3061623059
0.4592434589 -0.1530811530 0.1530811530
0.6123246119 0.0000000000 0.0000000000
-0.4592434589 0.1530811530 0.1530811530
-0.3061623059 0.3061623059 -0.0000000000
-0.1530811530 0.4592434589 -0.1530811530
0.0000000000 0.6123246119 -0.3061623059
-0.3061623059 0.0000000000 0.3061623059
-0.1530811530 0.1530811530 0.1530811530
0.0000000000 0.3061623059 0.0000000000
0.1530811530 0.4592434589 -0.1530811530
-0.1530811530 -0.1530811530 0.4592434589
0.0000000000 0.0000000000 0.3061623059
0.1530811530 0.1530811530 0.1530811530
0.3061623059 0.3061623059 0.0000000000
0.0000000000 -0.3061623059 0.6123246119
0.1530811530 -0.1530811530 0.4592434589
0.3061623059 0.0000000000 0.3061623059
0.4592434589 0.1530811530 0.1530811530
-0.6123246119 0.3061623059 0.3061623059
-0.4592434589 0.4592434589 0.1530811530
-0.3061623059 0.6123246119 -0.0000000000
-0.1530811530 0.7654057648 -0.1530811530
-0.4592434589 0.1530811530 0.4592434589
-0.3061623059 0.3061623059 0.3061623059
-0.1530811530 0.4592434589 0.1530811530
0.0000000000 0.6123246119 0.0000000000
-0.3061623059 0.0000000000 0.6123246119
-0.1530811530 0.1530811530 0.4592434589
0.0000000000 0.3061623059 0.3061623059
0.1530811530 0.4592434589 0.1530811530
-0.1530811530 -0.1530811530 0.7654057648
0.0000000000 0.0000000000 0.6123246119
0.1530811530 0.1530811530 0.4592434589
0.3061623059 0.3061623059 0.3061623059
 There are 14 alpha and 14 beta electrons
 Start computing overlap matrix
 Allocate 14258176 B from available memory: 1048575734752 B
 Time for computing overlap matrix: 4.0500000000 s
 ====== Initialize compute kernels for all-electron RI-J (kpts) ====== 
 ========================================================== 
 Range-separated parameter omega        = 0.299999999999999989
 Threshold for 1e2c shellpair           = 0.000000000000010000
 Threshold for 2e2c SR integral         = 0.000000000000000001
 Threshold for 2e3c SR integral         = 0.000000000100000000
 Threshold for AFT G-space screening is = 0.000000000001000000
 The exponent cutoff for C/D classification (omega2 / 2) is  = 0.044999999999999998
 ========================================================== 
 === Post process the basis set for RI calculation (exp_cutoff = 0.044999999999999998 ) === 
nshells_b1 before uncontraction = 28
nshells_b1 after uncontraction = 28
nshells_baux before uncontraction = 80
nshells_baux after uncontraction = 80
===============================================
nbsf total   = 118
nbsf compact = 118
nbsf diffuse = 0
naux total   = 296
naux compact = 296
naux diffuse = 0
nshells_bnuc = 2

 Number of unique atoms is 1
 Unique atom #0 (si) has 14 shells.

Shell 0 to 13 belongs to atom si
Shell 14 to 27 belongs to atom si

 Number of unique atom is 1
 Unique atom #0 (si) has 40 auxiliary shells.

Auxiliary Shell 0 to 39 belongs to atom si
Auxiliary Shell 40 to 79 belongs to atom si

================= Automatically determine grid size for reciprocal space summation =================
 Range-separated parameter = 0.30000000000000 and G-space screening threshold = 0.00000000000100
The number of grid points along each axis dimension is (4, 4, 4)
Total number of grid points = 729

Use nonortho shellpair for diffuse density
======== Initializing relevant kernel for RIJ (CC type) ========
There are 406 shellpairs in the reference unit cell
There are 3757 images and we expect to have 1525342 in total
There are 35954 shellpairs in the lattice sum after screening
****** AFT -> SR ******
Maximum bra distance cutoff is 30.000000000000
Maximum bra ket distance cutoff is 37.583407605466
Maximum bra ket screening distance is 30.187500000000
Number of auxiliary image is 1657
There are 406 shellpairs in the reference unit cell
There are 1031 images and we expect to have 418586 in total
There are 35954 shellpairs in the lattice sum after screening
Available memory per thread for 2e3c calculation is 32.767546143000Gb
Finish initializing 2e3c SR with the lattice sum!
=================================================
======== Initialize the SR component for Vnuc (CC type) ========
Maximum bra distance cutoff is 30.000000000000
Maximum bra ket distance cutoff is 31.203423477913
Maximum bra ket screening distance is 23.767099300136
Number of auxiliary image is 1097
There are 406 shellpairs in the reference unit cell
There are 1031 images and we expect to have 418586 in total
There are 35954 shellpairs in the lattice sum after screening
Available memory per thread for 2e3c calculation is 32.767546143000Gb
Finish initializing 2e3c SR with the lattice sum!
=================================================
 Aufbau occupation scheme, occupation determined by eigenvalue
 == 0-th k-point nmo = 115 (-0.15308,-0.15308,-0.15308) ==
 == 1-th k-point nmo = 114 (-0.00000,-0.00000,-0.30616) ==
 == 2-th k-point nmo = 114 (0.15308,0.15308,-0.45924) ==
 == 3-th k-point nmo = 114 (0.30616,0.30616,-0.61232) ==
 == 4-th k-point nmo = 114 (-0.00000,-0.30616,0.00000) ==
 == 5-th k-point nmo = 115 (0.15308,-0.15308,-0.15308) ==
 == 6-th k-point nmo = 114 (0.30616,0.00000,-0.30616) ==
 == 7-th k-point nmo = 114 (0.45924,0.15308,-0.45924) ==
 == 8-th k-point nmo = 114 (0.15308,-0.45924,0.15308) ==
 == 9-th k-point nmo = 114 (0.30616,-0.30616,0.00000) ==
 == 10-th k-point nmo = 114 (0.45924,-0.15308,-0.15308) ==
 == 11-th k-point nmo = 114 (0.61232,0.00000,-0.30616) ==
 == 12-th k-point nmo = 114 (0.30616,-0.61232,0.30616) ==
 == 13-th k-point nmo = 114 (0.45924,-0.45924,0.15308) ==
 == 14-th k-point nmo = 114 (0.61232,-0.30616,0.00000) ==
 == 15-th k-point nmo = 114 (0.76541,-0.15308,-0.15308) ==
 == 16-th k-point nmo = 114 (-0.30616,-0.00000,-0.00000) ==
 == 17-th k-point nmo = 115 (-0.15308,0.15308,-0.15308) ==
 == 18-th k-point nmo = 114 (0.00000,0.30616,-0.30616) ==
 == 19-th k-point nmo = 114 (0.15308,0.45924,-0.45924) ==
 == 20-th k-point nmo = 115 (-0.15308,-0.15308,0.15308) ==
 == 21-th k-point nmo = 115 (0.00000,0.00000,0.00000) ==
 == 22-th k-point nmo = 115 (0.15308,0.15308,-0.15308) ==
 == 23-th k-point nmo = 114 (0.30616,0.30616,-0.30616) ==
 == 24-th k-point nmo = 114 (-0.00000,-0.30616,0.30616) ==
 == 25-th k-point nmo = 115 (0.15308,-0.15308,0.15308) ==
 == 26-th k-point nmo = 114 (0.30616,0.00000,0.00000) ==
 == 27-th k-point nmo = 114 (0.45924,0.15308,-0.15308) ==
 == 28-th k-point nmo = 114 (0.15308,-0.45924,0.45924) ==
 == 29-th k-point nmo = 114 (0.30616,-0.30616,0.30616) ==
 == 30-th k-point nmo = 114 (0.45924,-0.15308,0.15308) ==
 == 31-th k-point nmo = 114 (0.61232,0.00000,0.00000) ==
 == 32-th k-point nmo = 114 (-0.45924,0.15308,0.15308) ==
 == 33-th k-point nmo = 114 (-0.30616,0.30616,-0.00000) ==
 == 34-th k-point nmo = 114 (-0.15308,0.45924,-0.15308) ==
 == 35-th k-point nmo = 114 (0.00000,0.61232,-0.30616) ==
 == 36-th k-point nmo = 114 (-0.30616,0.00000,0.30616) ==
 == 37-th k-point nmo = 115 (-0.15308,0.15308,0.15308) ==
 == 38-th k-point nmo = 114 (0.00000,0.30616,0.00000) ==
 == 39-th k-point nmo = 114 (0.15308,0.45924,-0.15308) ==
 == 40-th k-point nmo = 114 (-0.15308,-0.15308,0.45924) ==
 == 41-th k-point nmo = 114 (0.00000,0.00000,0.30616) ==
 == 42-th k-point nmo = 115 (0.15308,0.15308,0.15308) ==
 == 43-th k-point nmo = 114 (0.30616,0.30616,0.00000) ==
 == 44-th k-point nmo = 114 (0.00000,-0.30616,0.61232) ==
 == 45-th k-point nmo = 114 (0.15308,-0.15308,0.45924) ==
 == 46-th k-point nmo = 114 (0.30616,0.00000,0.30616) ==
 == 47-th k-point nmo = 114 (0.45924,0.15308,0.15308) ==
 == 48-th k-point nmo = 114 (-0.61232,0.30616,0.30616) ==
 == 49-th k-point nmo = 114 (-0.45924,0.45924,0.15308) ==
 == 50-th k-point nmo = 114 (-0.30616,0.61232,-0.00000) ==
 == 51-th k-point nmo = 114 (-0.15308,0.76541,-0.15308) ==
 == 52-th k-point nmo = 114 (-0.45924,0.15308,0.45924) ==
 == 53-th k-point nmo = 114 (-0.30616,0.30616,0.30616) ==
 == 54-th k-point nmo = 114 (-0.15308,0.45924,0.15308) ==
 == 55-th k-point nmo = 114 (0.00000,0.61232,0.00000) ==
 == 56-th k-point nmo = 114 (-0.30616,0.00000,0.61232) ==
 == 57-th k-point nmo = 114 (-0.15308,0.15308,0.45924) ==
 == 58-th k-point nmo = 114 (0.00000,0.30616,0.30616) ==
 == 59-th k-point nmo = 114 (0.15308,0.45924,0.15308) ==
 == 60-th k-point nmo = 114 (-0.15308,-0.15308,0.76541) ==
 == 61-th k-point nmo = 114 (0.00000,0.00000,0.61232) ==
 == 62-th k-point nmo = 114 (0.15308,0.15308,0.45924) ==
 == 63-th k-point nmo = 114 (0.30616,0.30616,0.30616) ==

 Generate autoSAD guess
backing up fragment data
Atom # 0: si, charge: 0, multiplicity: 3.000000
writing autosad to fragment context
Settings for isolated fragments: 
  frgm_gamma: TRUE
  frgm_center: FALSE

    Running SCF for isolated atom #0
    Fragment Input file: /n/netscratch/joonholee_lab/Lab/hieudinh//si_2_ccpvqz_omega_0.3_444.scratch20250909030116/autosad_frgmt_0/frgmt_input.in
    Fragment Output file: /n/netscratch/joonholee_lab/Lab/hieudinh//si_2_ccpvqz_omega_0.3_444.scratch20250909030116/autosad_frgmt_0/frgmt_job.out
    Fragment job begins at Tue Sep  9 03:01:24 2025

 Integrated density by DFT XC:
   Numerical integral  =    13.999999643759
   Relative error      =     0.0000025446 %
Final energy components:
 DFT Correlation            Energy =  -0.48370207231611
 DFT Exchange               Energy = -20.13940840112220
 Kinetic (alpha)            Energy = 145.05483363964800
 Kinetic (beta)             Energy = 143.11842945473265
 Nuclear Attraction (alpha) Energy = -351.06191315317960
 Nuclear Attraction (beta)  Energy = -337.54515075030383
 Nuclear Repulsion          Energy =   0.00000000000000
 SEOQF                      Energy =  -0.00000000010144
 Total Coulomb              Energy = 131.82731983024487
----------------------------------------------
    SCF Energy: -289.2295914524
   Total fragment job time:  0.52 s.
restoring fragment data

 ------------------------------------------------------------------------
 Allocate 44418656 B from available memory: 1048561476576 B
 Time for generating SCF guess: 0.56 s

 Allocate 97424 B from available memory: 1048517057920 B
 Selected algorithms for each term:
  kpts_kinetic -> @0x151610811680
  kpts_nn -> @0x151610811800
  kpts_rij_bigmem -> @0x1516108113e0
  kpts_vnuc_df -> @0x151610811380
  kpts_xc -> @0x1516108112c0
 Time for computing kinetic matrix is 3.89 s
Start calculating Vnuc CC type!
 Time for computing nuclear attraction matrix is 4.87 s
Compute (P|Q) and use solve on the fly!
Maximum distance between P and Q is 36.52149537122924
Number of images for (P|Qn) is 1633
 Time for computing 2e2c SR integral is 0.16 s
Maximum dynamic memory per thread for 2e3c SR integrals: 0.130 GiB
Batch size for basis function pair is 7291 out of 7291
 === bvk cell = 0 has 100.000 % of the basis function pairs === 
 === bvk cell = 1 has 93.430 % of the basis function pairs === 
 === bvk cell = 2 has 54.163 % of the basis function pairs === 
 === bvk cell = 3 has 90.111 % of the basis function pairs === 
 === bvk cell = 4 has 93.430 % of the basis function pairs === 
 === bvk cell = 5 has 60.458 % of the basis function pairs === 
 === bvk cell = 6 has 51.543 % of the basis function pairs === 
 === bvk cell = 7 has 96.914 % of the basis function pairs === 
 === bvk cell = 8 has 54.163 % of the basis function pairs === 
 === bvk cell = 9 has 51.543 % of the basis function pairs === 
 === bvk cell = 10 has 39.226 % of the basis function pairs === 
 === bvk cell = 11 has 54.629 % of the basis function pairs === 
 === bvk cell = 12 has 90.111 % of the basis function pairs === 
 === bvk cell = 13 has 96.914 % of the basis function pairs === 
 === bvk cell = 14 has 54.629 % of the basis function pairs === 
 === bvk cell = 15 has 53.038 % of the basis function pairs === 
 === bvk cell = 16 has 93.430 % of the basis function pairs === 
 === bvk cell = 17 has 60.458 % of the basis function pairs === 
 === bvk cell = 18 has 51.543 % of the basis function pairs === 
 === bvk cell = 19 has 96.914 % of the basis function pairs === 
 === bvk cell = 20 has 60.458 % of the basis function pairs === 
 === bvk cell = 21 has 30.174 % of the basis function pairs === 
 === bvk cell = 22 has 52.462 % of the basis function pairs === 
 === bvk cell = 23 has 79.756 % of the basis function pairs === 
 === bvk cell = 24 has 51.543 % of the basis function pairs === 
 === bvk cell = 25 has 52.462 % of the basis function pairs === 
 === bvk cell = 26 has 28.940 % of the basis function pairs === 
 === bvk cell = 27 has 39.377 % of the basis function pairs === 
 === bvk cell = 28 has 96.914 % of the basis function pairs === 
 === bvk cell = 29 has 79.756 % of the basis function pairs === 
 === bvk cell = 30 has 39.377 % of the basis function pairs === 
 === bvk cell = 31 has 76.231 % of the basis function pairs === 
 === bvk cell = 32 has 54.163 % of the basis function pairs === 
 === bvk cell = 33 has 51.543 % of the basis function pairs === 
 === bvk cell = 34 has 39.226 % of the basis function pairs === 
 === bvk cell = 35 has 54.629 % of the basis function pairs === 
 === bvk cell = 36 has 51.543 % of the basis function pairs === 
 === bvk cell = 37 has 52.462 % of the basis function pairs === 
 === bvk cell = 38 has 28.940 % of the basis function pairs === 
 === bvk cell = 39 has 39.377 % of the basis function pairs === 
 === bvk cell = 40 has 39.226 % of the basis function pairs === 
 === bvk cell = 41 has 28.940 % of the basis function pairs === 
 === bvk cell = 42 has 15.403 % of the basis function pairs === 
 === bvk cell = 43 has 26.622 % of the basis function pairs === 
 === bvk cell = 44 has 54.629 % of the basis function pairs === 
 === bvk cell = 45 has 39.377 % of the basis function pairs === 
 === bvk cell = 46 has 26.622 % of the basis function pairs === 
 === bvk cell = 47 has 52.462 % of the basis function pairs === 
 === bvk cell = 48 has 90.111 % of the basis function pairs === 
 === bvk cell = 49 has 96.914 % of the basis function pairs === 
 === bvk cell = 50 has 54.629 % of the basis function pairs === 
 === bvk cell = 51 has 53.038 % of the basis function pairs === 
 === bvk cell = 52 has 96.914 % of the basis function pairs === 
 === bvk cell = 53 has 79.756 % of the basis function pairs === 
 === bvk cell = 54 has 39.377 % of the basis function pairs === 
 === bvk cell = 55 has 76.231 % of the basis function pairs === 
 === bvk cell = 56 has 54.629 % of the basis function pairs === 
 === bvk cell = 57 has 39.377 % of the basis function pairs === 
 === bvk cell = 58 has 26.622 % of the basis function pairs === 
 === bvk cell = 59 has 52.462 % of the basis function pairs === 
 === bvk cell = 60 has 53.038 % of the basis function pairs === 
 === bvk cell = 61 has 76.231 % of the basis function pairs === 
 === bvk cell = 62 has 52.462 % of the basis function pairs === 
 === bvk cell = 63 has 26.279 % of the basis function pairs === 
Static memory requirement for 2e3c SR integrals: 0.603 GB
There are 1 munu batches for computing 2e3c SR integrals with latsum
There are 5 Q batches for computing 2e3c SR integrals with latsum
 Time for computing 2e3c SR integral (CC) is 10.86 s
 Time for RI-J this SCF iteration is 11.57 s
 Time for RI-J this SCF iteration is 0.30 s
 ----------------------------------------------
 Guess energy: -578.7814962179
 ----------------------------------------------
 Guess energy components:
 DFT Correlation    Energy =  -1.09214407701216
 DFT Exchange       Energy = -40.56971430441189
 Kinetic            Energy = 577.43244347811503
 Nuclear Attraction Energy = -1186.20094611857439
 Nuclear Repulsion  Energy = -102.89365928466421
 Total Coulomb      Energy = 174.54252408864994
 ----------------------------------------------
  Cycle       Energy         DIIS error
 ----------------------------------------------
 Time for RI-J this SCF iteration is 0.54 s
    1    -578.7868270424      1.06e-03  
 Energy components after cycle 1:
 DFT Correlation    Energy =  -1.09644941031671
 DFT Exchange       Energy = -40.47945322416054
 Kinetic            Energy = 576.58993742699749
 Nuclear Attraction Energy = -1184.38640889766225
 Nuclear Repulsion  Energy = -102.89365928466421
 Total Coulomb      Energy = 173.47920634737844
    2    -578.7868270424      5.61e-04  
 Energy components after cycle 2:
 DFT Correlation    Energy =  -1.09644941031671
 DFT Exchange       Energy = -40.47945322416054
 Kinetic            Energy = 576.58993742699749
 Nuclear Attraction Energy = -1184.38640889766225
 Nuclear Repulsion  Energy = -102.89365928466421
 Total Coulomb      Energy = 173.47920634737844
 ----------------------------------------------
  Cycle       Energy        RMS Gradient
 ----------------------------------------------
 Time for RI-J this SCF iteration is 0.31 s
    1    -578.7874429056      2.10e-02   Descent step
 Energy components after cycle 1:
 DFT Correlation    Energy =  -1.09527541562599
 DFT Exchange       Energy = -40.52146731264154
 Kinetic            Energy = 577.04348899550985
 Nuclear Attraction Energy = -1185.24432373218133
 Nuclear Repulsion  Energy = -102.89365928466421
 Total Coulomb      Energy = 173.92379384405177
 Time for RI-J this SCF iteration is 0.32 s
    2    -578.7879173055      1.99e-02   Normal BFGS step
 Energy components after cycle 2:
 DFT Correlation    Energy =  -1.09541064279377
 DFT Exchange       Energy = -40.51317019429837
 Kinetic            Energy = 576.94742901027689
 Nuclear Attraction Energy = -1185.07479904827733
 Nuclear Repulsion  Energy = -102.89365928466421
 Total Coulomb      Energy = 173.84169285429451
 Time for RI-J this SCF iteration is 0.29 s
    3    -578.7879370212      3.99e-03   Normal BFGS step
 Energy components after cycle 3:
 DFT Correlation    Energy =  -1.09559880207002
 DFT Exchange       Energy = -40.50585161683317
 Kinetic            Energy = 576.86756415128582
 Nuclear Attraction Energy = -1184.92592247909147
 Nuclear Repulsion  Energy = -102.89365928466421
 Total Coulomb      Energy = 173.76553101015952
 Time for RI-J this SCF iteration is 0.32 s
    4    -578.7879463303      2.09e-03   Normal BFGS step
 Energy components after cycle 4:
 DFT Correlation    Energy =  -1.09553459216503
 DFT Exchange       Energy = -40.50899932933589
 Kinetic            Energy = 576.90328916139481
 Nuclear Attraction Energy = -1184.99057593014504
 Nuclear Repulsion  Energy = -102.89365928466421
 Total Coulomb      Energy = 173.79753364459910
 Time for RI-J this SCF iteration is 0.37 s
    5    -578.7879463576      1.26e-04   Normal BFGS step
 Energy components after cycle 5:
 DFT Correlation    Energy =  -1.09552868659119
 DFT Exchange       Energy = -40.50909356387299
 Kinetic            Energy = 576.90404895457959
 Nuclear Attraction Energy = -1184.99241576074769
 Nuclear Repulsion  Energy = -102.89365928466421
 Total Coulomb      Energy = 173.79870198373376
 Time for RI-J this SCF iteration is 0.29 s
    6    -578.7879463661      5.65e-05   Normal BFGS step
 Energy components after cycle 6:
 DFT Correlation    Energy =  -1.09553067543398
 DFT Exchange       Energy = -40.50901988789953
 Kinetic            Energy = 576.90325195361106
 Nuclear Attraction Energy = -1184.99091827934876
 Nuclear Repulsion  Energy = -102.89365928466421
 Total Coulomb      Energy = 173.79792980763841
 Time for RI-J this SCF iteration is 0.32 s
    7    -578.7879463661      3.65e-06   Normal BFGS step
 Energy components after cycle 7:
 DFT Correlation    Energy =  -1.09553085853000
 DFT Exchange       Energy = -40.50902606534638
 Kinetic            Energy = 576.90334626766958
 Nuclear Attraction Energy = -1184.99105322396599
 Nuclear Repulsion  Energy = -102.89365928466421
 Total Coulomb      Energy = 173.79797679871521
    7    -578.7879463661      3.65e-06  Convergence criterion met
 ----------------------------------------------
 Final energy components:
 DFT Correlation    Energy =  -1.09553085853000
 DFT Exchange       Energy = -40.50902606534638
 Kinetic            Energy = 576.90334626766958
 Nuclear Attraction Energy = -1184.99105322396599
 Nuclear Repulsion  Energy = -102.89365928466421
 Total Coulomb      Energy = 173.79797679871521
 ----------------------------------------------
 Final energy is -578.7879463661

 SCF time:   CPU 1683.08s  wall 66.00s 
 Total wall time for computing Kinetic: 0.03 s (10)
 Total wall time for computing RIJ-BIGMEM: 14.62 s (10)
 Total wall time for computing RSDF Vnuc: 0.06 s (10)
 Total wall time for computing DFT XC: 30.75 s (10)
 ---------------------------------------------------------------------------
                        Orbital Energies (a.u.)
 ---------------------------------------------------------------------------
 == 0-th k-point (-0.15308,-0.15308,-0.15308) occupation: 14==
 -65.00276 -65.00275 -4.62533 -4.62510 -3.03705 -3.03705 -3.03699 -3.03649 -3.03640 -3.03640
 -0.13339 0.13218 0.24841 0.24841 0.35251 0.40641 0.40641 0.53159 0.54582 0.54582
 0.60636 0.71191 0.82191 0.82191 0.93967 0.93967 0.94600 1.01505 1.18282 1.18282
 1.26988 1.26988 1.32156 1.37948 1.38198 1.46630 1.46631 1.53598 1.53598 1.56713
 1.56713 1.70113 1.70113 1.71375 1.74405 1.77927 1.84777 1.84777 1.90589 1.93047
 1.94281 1.94281 2.04993 2.06969 2.06969 2.17497 2.17497 2.21397 2.24357 2.24357
 2.28740 2.53179 2.54721 2.58133 2.58133 2.64255 2.64255 2.67343 2.74482 2.74482
 2.92194 2.92594 2.92594 2.97569 3.03299 3.03299 3.07538 3.07538 3.12504 3.16501
 3.21308 3.21308 3.32202 3.32202 3.35013 3.42994 3.42994 3.46979 3.50380 3.50380
 3.51309 3.63585 3.65011 3.65011 3.78558 3.78558 3.80188 3.85611 3.85611 3.88956
 3.94609 4.02189 4.02189 4.32876 4.52839 4.52839 4.62917 7.58124 7.66520 7.66520
 8.56442 8.56442 10.62363 11.76393 13.98092
 == 1-th k-point (-0.00000,-0.00000,-0.30616) occupation: 14==
 -65.00276 -65.00275 -4.62532 -4.62511 -3.03707 -3.03707 -3.03695 -3.03650 -3.03641 -3.03641
 -0.12302 0.14806 0.20643 0.20643 0.31838 0.39307 0.49007 0.49007 0.57556 0.61201
 0.69524 0.75907 0.75907 0.78431 0.92173 0.92173 0.96175 1.03456 1.06022 1.22166
 1.26668 1.29603 1.29603 1.37166 1.37166 1.39295 1.40382 1.58733 1.59889 1.59889
 1.60427 1.66823 1.66823 1.66980 1.79757 1.79757 1.80703 1.82139 1.84874 1.95144
 1.95807 1.95807 2.02900 2.09476 2.12730 2.12730 2.19198 2.26921 2.26921 2.37628
 2.47177 2.54006 2.58904 2.58904 2.60183 2.61843 2.63340 2.65980 2.65980 2.81785
 2.84604 2.93307 2.93307 2.97163 2.97442 3.04772 3.17992 3.17992 3.18013 3.24319
 3.24320 3.31678 3.33190 3.33190 3.33925 3.34189 3.37350 3.38738 3.44670 3.44670
 3.54652 3.54652 3.60739 3.61510 3.76454 3.80863 3.80863 3.85160 4.00020 4.03159
 4.04735 4.04735 4.21516 4.45126 4.55823 4.55823 7.69044 7.69044 8.01777 9.69663
 9.86650 9.86650 12.54069 13.36614
 == 2-th k-point (0.15308,0.15308,-0.45924) occupation: 14==
 -65.00276 -65.00276 -4.62526 -4.62516 -3.03711 -3.03709 -3.03686 -3.03659 -3.03638 -3.03635
 -0.06269 0.04219 0.14585 0.19471 0.33317 0.44170 0.48945 0.49650 0.65417 0.67063
 0.73040 0.74680 0.75647 0.90153 0.93782 0.97010 0.99465 1.00784 1.01867 1.12576
 1.16621 1.21227 1.22968 1.32316 1.35892 1.37064 1.37262 1.44844 1.50048 1.56429
 1.60446 1.64004 1.67121 1.68541 1.71839 1.81801 1.90837 1.93056 1.93826 1.99386
 2.01836 2.04444 2.08183 2.13775 2.16601 2.20084 2.28395 2.31965 2.32990 2.37317
 2.45097 2.46175 2.50332 2.51924 2.61500 2.61701 2.66040 2.74329 2.79606 2.81443
 2.84020 2.90497 2.93393 2.95316 2.95993 3.02549 3.03607 3.05359 3.08484 3.13066
 3.15916 3.23574 3.31745 3.32622 3.33951 3.35024 3.35918 3.43835 3.49728 3.50671
 3.56626 3.65450 3.65760 3.71806 3.72144 3.79111 3.80185 3.84884 3.87859 3.98601
 4.07513 4.21120 4.25411 4.29573 4.55983 4.56956 8.10261 8.34325 8.40452 8.86074
 9.77809 9.94285 13.16277 14.19225
 == 3-th k-point (0.30616,0.30616,-0.61232) occupation: 14==
 -65.00276 -65.00276 -4.62529 -4.62514 -3.03710 -3.03708 -3.03691 -3.03655 -3.03638 -3.03635
 -0.08755 0.07551 0.13762 0.22727 0.36765 0.45367 0.46753 0.50331 0.51804 0.63297
 0.74338 0.76797 0.77289 0.89267 0.91795 0.92571 0.97310 1.07247 1.09003 1.16990
 1.20404 1.22070 1.27450 1.28462 1.32071 1.36385 1.41325 1.45526 1.56549 1.56964
 1.63750 1.66868 1.69232 1.69479 1.71592 1.72112 1.76746 1.88255 1.94780 1.98526
 2.01077 2.04134 2.11380 2.15928 2.21347 2.21904 2.26418 2.35178 2.36116 2.44846
 2.47261 2.49421 2.49770 2.52542 2.57559 2.58095 2.59743 2.75988 2.77344 2.81560
 2.83671 2.87245 2.88762 2.92086 2.94482 2.98757 3.08132 3.11320 3.12374 3.15953
 3.19899 3.30948 3.33958 3.38255 3.38702 3.40430 3.41058 3.42462 3.48265 3.48495
 3.48926 3.49093 3.63896 3.67727 3.70954 3.74750 3.79738 3.83098 3.91776 3.94541
 4.09116 4.14700 4.23949 4.35484 4.52767 4.61143 7.77288 8.29057 8.30116 9.00268
 9.32705 9.86019 13.08645 14.28406
 == 4-th k-point (-0.00000,-0.30616,0.00000) occupation: 14==
 -65.00276 -65.00275 -4.62532 -4.62511 -3.03707 -3.03707 -3.03695 -3.03650 -3.03641 -3.03641
 -0.12302 0.14806 0.20643 0.20643 0.31838 0.39307 0.49007 0.49007 0.57556 0.61201
 0.69524 0.75907 0.75907 0.78431 0.92173 0.92173 0.96175 1.03456 1.06022 1.22166
 1.26668 1.29603 1.29603 1.37166 1.37166 1.39295 1.40382 1.58733 1.59889 1.59889
 1.60427 1.66823 1.66823 1.66980 1.79757 1.79757 1.80703 1.82139 1.84874 1.95144
 1.95807 1.95807 2.02900 2.09476 2.12730 2.12730 2.19198 2.26921 2.26921 2.37628
 2.47177 2.54006 2.58904 2.58904 2.60183 2.61843 2.63340 2.65980 2.65980 2.81785
 2.84604 2.93307 2.93307 2.97163 2.97442 3.04772 3.17992 3.17992 3.18013 3.24319
 3.24320 3.31678 3.33190 3.33190 3.33925 3.34189 3.37350 3.38738 3.44670 3.44670
 3.54652 3.54652 3.60739 3.61510 3.76454 3.80863 3.80863 3.85160 4.00020 4.03159
 4.04735 4.04735 4.21516 4.45126 4.55823 4.55823 7.69044 7.69044 8.01777 9.69663
 9.86650 9.86650 12.54069 13.36614
 == 5-th k-point (0.15308,-0.15308,-0.15308) occupation: 14==
 -65.00276 -65.00275 -4.62533 -4.62510 -3.03705 -3.03705 -3.03699 -3.03649 -3.03640 -3.03640
 -0.13339 0.13218 0.24841 0.24841 0.35251 0.40641 0.40641 0.53159 0.54582 0.54582
 0.60636 0.71191 0.82191 0.82191 0.93967 0.93967 0.94600 1.01505 1.18282 1.18282
 1.26988 1.26988 1.32156 1.37948 1.38198 1.46630 1.46630 1.53598 1.53598 1.56713
 1.56713 1.70113 1.70113 1.71375 1.74405 1.77927 1.84777 1.84777 1.90589 1.93047
 1.94281 1.94281 2.04993 2.06969 2.06969 2.17497 2.17497 2.21397 2.24357 2.24357
 2.28740 2.53179 2.54721 2.58133 2.58133 2.64255 2.64255 2.67343 2.74482 2.74482
 2.92194 2.92594 2.92594 2.97569 3.03299 3.03299 3.07538 3.07538 3.12504 3.16501
 3.21308 3.21308 3.32202 3.32202 3.35013 3.42994 3.42994 3.46979 3.50380 3.50380
 3.51309 3.63585 3.65011 3.65011 3.78558 3.78558 3.80188 3.85611 3.85611 3.88956
 3.94609 4.02189 4.02189 4.32876 4.52839 4.52839 4.62917 7.58124 7.66520 7.66520
 8.56442 8.56442 10.62363 11.76393 13.98092
 == 6-th k-point (0.30616,0.00000,-0.30616) occupation: 14==
 -65.00276 -65.00276 -4.62529 -4.62514 -3.03710 -3.03708 -3.03691 -3.03655 -3.03638 -3.03635
 -0.08755 0.07550 0.13762 0.22727 0.36765 0.45367 0.46753 0.50331 0.51804 0.63297
 0.74338 0.76797 0.77289 0.89267 0.91795 0.92571 0.97310 1.07247 1.09003 1.16990
 1.20404 1.22070 1.27450 1.28462 1.32071 1.36385 1.41325 1.45526 1.56549 1.56964
 1.63750 1.66868 1.69232 1.69479 1.71592 1.72112 1.76746 1.88255 1.94780 1.98526
 2.01077 2.04134 2.11380 2.15928 2.21347 2.21904 2.26418 2.35178 2.36116 2.44846
 2.47261 2.49421 2.49770 2.52542 2.57559 2.58095 2.59743 2.75988 2.77344 2.81560
 2.83671 2.87245 2.88762 2.92086 2.94482 2.98757 3.08132 3.11320 3.12374 3.15953
 3.19899 3.30948 3.33958 3.38255 3.38702 3.40430 3.41058 3.42462 3.48265 3.48495
 3.48926 3.49093 3.63896 3.67727 3.70954 3.74750 3.79738 3.83098 3.91776 3.94541
 4.09116 4.14700 4.23949 4.35484 4.52767 4.61143 7.77288 8.29057 8.30116 9.00268
 9.32705 9.86019 13.08645 14.28406
 == 7-th k-point (0.45924,0.15308,-0.45924) occupation: 14==
 -65.00276 -65.00276 -4.62526 -4.62516 -3.03711 -3.03709 -3.03686 -3.03659 -3.03638 -3.03635
 -0.06269 0.04219 0.14585 0.19471 0.33317 0.44170 0.48945 0.49650 0.65417 0.67063
 0.73040 0.74680 0.75647 0.90153 0.93782 0.97010 0.99465 1.00784 1.01867 1.12576
 1.16621 1.21227 1.22968 1.32316 1.35892 1.37064 1.37262 1.44844 1.50048 1.56429
 1.60446 1.64004 1.67121 1.68541 1.71839 1.81801 1.90837 1.93056 1.93826 1.99386
 2.01836 2.04444 2.08183 2.13775 2.16601 2.20084 2.28395 2.31965 2.32990 2.37317
 2.45097 2.46175 2.50332 2.51924 2.61500 2.61701 2.66040 2.74329 2.79606 2.81443
 2.84020 2.90497 2.93393 2.95316 2.95993 3.02549 3.03607 3.05359 3.08484 3.13066
 3.15916 3.23574 3.31745 3.32622 3.33951 3.35024 3.35918 3.43835 3.49728 3.50671
 3.56626 3.65450 3.65760 3.71806 3.72144 3.79111 3.80185 3.84884 3.87859 3.98601
 4.07513 4.21120 4.25411 4.29573 4.55983 4.56956 8.10261 8.34325 8.40452 8.86074
 9.77809 9.94285 13.16277 14.19225
 == 8-th k-point (0.15308,-0.45924,0.15308) occupation: 14==
 -65.00276 -65.00276 -4.62526 -4.62516 -3.03711 -3.03709 -3.03686 -3.03659 -3.03638 -3.03635
 -0.06269 0.04219 0.14585 0.19471 0.33317 0.44170 0.48945 0.49650 0.65417 0.67063
 0.73040 0.74680 0.75647 0.90153 0.93782 0.97010 0.99465 1.00784 1.01867 1.12576
 1.16621 1.21227 1.22968 1.32316 1.35892 1.37064 1.37262 1.44844 1.50048 1.56429
 1.60446 1.64004 1.67121 1.68541 1.71839 1.81801 1.90837 1.93056 1.93826 1.99386
 2.01836 2.04444 2.08183 2.13775 2.16601 2.20084 2.28395 2.31965 2.32990 2.37317
 2.45097 2.46175 2.50332 2.51924 2.61500 2.61701 2.66040 2.74329 2.79606 2.81443
 2.84020 2.90497 2.93393 2.95316 2.95993 3.02549 3.03607 3.05359 3.08484 3.13066
 3.15916 3.23574 3.31745 3.32622 3.33951 3.35024 3.35918 3.43835 3.49728 3.50671
 3.56626 3.65450 3.65760 3.71806 3.72144 3.79111 3.80185 3.84884 3.87859 3.98601
 4.07513 4.21120 4.25411 4.29573 4.55983 4.56956 8.10261 8.34325 8.40452 8.86074
 9.77809 9.94285 13.16277 14.19225
 == 9-th k-point (0.30616,-0.30616,0.00000) occupation: 14==
 -65.00276 -65.00276 -4.62529 -4.62514 -3.03710 -3.03708 -3.03691 -3.03655 -3.03638 -3.03635
 -0.08755 0.07550 0.13762 0.22727 0.36765 0.45367 0.46753 0.50331 0.51804 0.63297
 0.74338 0.76797 0.77289 0.89267 0.91795 0.92571 0.97310 1.07247 1.09003 1.16990
 1.20404 1.22070 1.27450 1.28462 1.32071 1.36385 1.41325 1.45526 1.56549 1.56964
 1.63750 1.66868 1.69232 1.69479 1.71592 1.72112 1.76746 1.88255 1.94780 1.98526
 2.01077 2.04134 2.11380 2.15928 2.21347 2.21904 2.26418 2.35178 2.36116 2.44846
 2.47261 2.49421 2.49770 2.52542 2.57559 2.58095 2.59743 2.75988 2.77344 2.81560
 2.83671 2.87245 2.88762 2.92086 2.94482 2.98757 3.08132 3.11320 3.12374 3.15953
 3.19899 3.30948 3.33958 3.38255 3.38702 3.40430 3.41058 3.42462 3.48265 3.48495
 3.48926 3.49093 3.63896 3.67727 3.70954 3.74750 3.79738 3.83098 3.91776 3.94541
 4.09116 4.14700 4.23949 4.35484 4.52767 4.61143 7.77288 8.29057 8.30116 9.00268
 9.32705 9.86019 13.08645 14.28406
 == 10-th k-point (0.45924,-0.15308,-0.15308) occupation: 14==
 -65.00276 -65.00276 -4.62526 -4.62516 -3.03711 -3.03709 -3.03686 -3.03659 -3.03638 -3.03635
 -0.06269 0.04219 0.14585 0.19471 0.33317 0.44170 0.48945 0.49650 0.65417 0.67063
 0.73040 0.74680 0.75647 0.90153 0.93782 0.97010 0.99465 1.00784 1.01867 1.12576
 1.16621 1.21227 1.22968 1.32316 1.35892 1.37064 1.37262 1.44844 1.50048 1.56429
 1.60446 1.64004 1.67121 1.68541 1.71839 1.81801 1.90837 1.93056 1.93826 1.99386
 2.01836 2.04444 2.08183 2.13775 2.16601 2.20084 2.28395 2.31965 2.32990 2.37317
 2.45097 2.46175 2.50332 2.51924 2.61500 2.61701 2.66040 2.74329 2.79606 2.81443
 2.84020 2.90497 2.93393 2.95316 2.95993 3.02549 3.03607 3.05359 3.08484 3.13066
 3.15916 3.23574 3.31745 3.32622 3.33951 3.35024 3.35918 3.43835 3.49728 3.50671
 3.56626 3.65450 3.65760 3.71806 3.72144 3.79111 3.80185 3.84884 3.87859 3.98601
 4.07513 4.21120 4.25411 4.29573 4.55983 4.56956 8.10261 8.34325 8.40452 8.86074
 9.77809 9.94285 13.16277 14.19225
 == 11-th k-point (0.61232,0.00000,-0.30616) occupation: 14==
 -65.00276 -65.00276 -4.62521 -4.62521 -3.03711 -3.03711 -3.03673 -3.03673 -3.03635 -3.03635
 -0.00410 -0.00410 0.13378 0.13378 0.43513 0.43513 0.46184 0.46184 0.67068 0.67068
 0.76029 0.76029 0.88542 0.88542 0.96330 0.96330 0.98284 0.98284 1.02056 1.02056
 1.15491 1.15491 1.29978 1.29978 1.30775 1.30775 1.38099 1.38099 1.51135 1.51135
 1.68384 1.68384 1.69788 1.69788 1.79625 1.79625 1.89081 1.89081 1.95331 1.95331
 2.04409 2.04409 2.17215 2.17215 2.17526 2.17526 2.33932 2.33932 2.38829 2.38829
 2.39112 2.39112 2.54060 2.54060 2.62640 2.62640 2.72493 2.72493 2.85470 2.85470
 2.88110 2.88110 2.88985 2.88985 2.98355 2.98355 3.04093 3.04093 3.11417 3.11417
 3.24260 3.24260 3.34318 3.34318 3.34510 3.34510 3.46579 3.46579 3.47483 3.47483
 3.55697 3.55697 3.56293 3.56293 3.67919 3.67919 3.77724 3.77724 4.00310 4.00310
 4.11310 4.11310 4.26371 4.26371 4.57766 4.57766 8.41207 8.41207 8.77614 8.77614
 9.53880 9.53880 13.73062 13.73062
 == 12-th k-point (0.30616,-0.61232,0.30616) occupation: 14==
 -65.00276 -65.00276 -4.62529 -4.62514 -3.03710 -3.03708 -3.03691 -3.03655 -3.03638 -3.03635
 -0.08755 0.07551 0.13762 0.22727 0.36765 0.45367 0.46753 0.50331 0.51804 0.63297
 0.74338 0.76797 0.77289 0.89267 0.91795 0.92571 0.97310 1.07247 1.09003 1.16990
 1.20404 1.22070 1.27450 1.28462 1.32071 1.36385 1.41325 1.45526 1.56549 1.56964
 1.63750 1.66868 1.69232 1.69479 1.71592 1.72112 1.76746 1.88255 1.94780 1.98526
 2.01077 2.04134 2.11380 2.15928 2.21347 2.21904 2.26418 2.35178 2.36116 2.44846
 2.47261 2.49421 2.49770 2.52542 2.57559 2.58095 2.59743 2.75988 2.77344 2.81560
 2.83671 2.87245 2.88762 2.92086 2.94482 2.98757 3.08132 3.11320 3.12374 3.15953
 3.19899 3.30948 3.33958 3.38255 3.38702 3.40430 3.41058 3.42462 3.48265 3.48495
 3.48926 3.49093 3.63896 3.67727 3.70954 3.74750 3.79738 3.83098 3.91776 3.94541
 4.09116 4.14700 4.23949 4.35484 4.52767 4.61143 7.77288 8.29057 8.30116 9.00268
 9.32705 9.86019 13.08645 14.28406
 == 13-th k-point (0.45924,-0.45924,0.15308) occupation: 14==
 -65.00276 -65.00276 -4.62526 -4.62516 -3.03711 -3.03709 -3.03686 -3.03659 -3.03638 -3.03635
 -0.06269 0.04219 0.14585 0.19471 0.33317 0.44170 0.48945 0.49650 0.65417 0.67063
 0.73040 0.74680 0.75647 0.90153 0.93782 0.97010 0.99465 1.00784 1.01867 1.12576
 1.16621 1.21227 1.22968 1.32316 1.35892 1.37064 1.37262 1.44844 1.50048 1.56429
 1.60446 1.64004 1.67121 1.68541 1.71839 1.81801 1.90837 1.93056 1.93826 1.99386
 2.01836 2.04444 2.08183 2.13775 2.16601 2.20084 2.28395 2.31965 2.32990 2.37317
 2.45097 2.46175 2.50332 2.51924 2.61500 2.61701 2.66040 2.74329 2.79606 2.81443
 2.84020 2.90497 2.93393 2.95316 2.95993 3.02549 3.03607 3.05359 3.08484 3.13066
 3.15916 3.23574 3.31745 3.32622 3.33951 3.35024 3.35918 3.43835 3.49728 3.50671
 3.56626 3.65450 3.65760 3.71806 3.72144 3.79111 3.80185 3.84884 3.87859 3.98601
 4.07513 4.21120 4.25411 4.29573 4.55983 4.56956 8.10261 8.34325 8.40452 8.86074
 9.77809 9.94285 13.16277 14.19225
 == 14-th k-point (0.61232,-0.30616,0.00000) occupation: 14==
 -65.00276 -65.00276 -4.62521 -4.62521 -3.03711 -3.03711 -3.03673 -3.03673 -3.03635 -3.03635
 -0.00410 -0.00410 0.13378 0.13378 0.43513 0.43513 0.46184 0.46184 0.67068 0.67068
 0.76029 0.76029 0.88542 0.88542 0.96330 0.96330 0.98284 0.98284 1.02056 1.02056
 1.15491 1.15491 1.29978 1.29978 1.30775 1.30775 1.38099 1.38099 1.51135 1.51135
 1.68384 1.68384 1.69788 1.69788 1.79625 1.79625 1.89081 1.89081 1.95331 1.95331
 2.04409 2.04409 2.17215 2.17215 2.17526 2.17526 2.33932 2.33932 2.38829 2.38829
 2.39112 2.39112 2.54060 2.54060 2.62640 2.62640 2.72493 2.72493 2.85470 2.85470
 2.88110 2.88110 2.88985 2.88985 2.98355 2.98355 3.04093 3.04093 3.11417 3.11417
 3.24260 3.24260 3.34318 3.34318 3.34510 3.34510 3.46579 3.46579 3.47483 3.47483
 3.55697 3.55697 3.56293 3.56293 3.67919 3.67919 3.77724 3.77724 4.00310 4.00310
 4.11310 4.11310 4.26371 4.26371 4.57766 4.57766 8.41207 8.41207 8.77614 8.77614
 9.53880 9.53880 13.73062 13.73062
 == 15-th k-point (0.76541,-0.15308,-0.15308) occupation: 14==
 -65.00276 -65.00276 -4.62526 -4.62516 -3.03711 -3.03709 -3.03686 -3.03659 -3.03638 -3.03635
 -0.06269 0.04219 0.14585 0.19471 0.33317 0.44170 0.48945 0.49650 0.65417 0.67063
 0.73040 0.74680 0.75647 0.90153 0.93782 0.97010 0.99465 1.00784 1.01867 1.12576
 1.16621 1.21227 1.22968 1.32316 1.35892 1.37064 1.37262 1.44844 1.50048 1.56429
 1.60446 1.64004 1.67121 1.68541 1.71839 1.81801 1.90837 1.93056 1.93826 1.99386
 2.01836 2.04444 2.08183 2.13775 2.16601 2.20084 2.28395 2.31965 2.32990 2.37317
 2.45097 2.46175 2.50332 2.51924 2.61500 2.61701 2.66040 2.74329 2.79606 2.81443
 2.84020 2.90497 2.93393 2.95316 2.95993 3.02549 3.03607 3.05359 3.08484 3.13066
 3.15916 3.23574 3.31745 3.32622 3.33951 3.35024 3.35918 3.43835 3.49728 3.50671
 3.56626 3.65450 3.65760 3.71806 3.72144 3.79111 3.80185 3.84884 3.87859 3.98601
 4.07513 4.21120 4.25411 4.29573 4.55982 4.56956 8.10261 8.34325 8.40452 8.86074
 9.77809 9.94285 13.16277 14.19225
 == 16-th k-point (-0.30616,-0.00000,-0.00000) occupation: 14==
 -65.00276 -65.00275 -4.62532 -4.62511 -3.03707 -3.03707 -3.03695 -3.03650 -3.03641 -3.03641
 -0.12302 0.14806 0.20643 0.20643 0.31838 0.39307 0.49007 0.49007 0.57556 0.61201
 0.69524 0.75907 0.75907 0.78431 0.92173 0.92173 0.96175 1.03456 1.06022 1.22166
 1.26668 1.29603 1.29603 1.37166 1.37166 1.39295 1.40382 1.58733 1.59889 1.59889
 1.60427 1.66823 1.66823 1.66980 1.79757 1.79757 1.80703 1.82139 1.84874 1.95144
 1.95807 1.95807 2.02900 2.09476 2.12730 2.12730 2.19198 2.26921 2.26921 2.37628
 2.47177 2.54006 2.58904 2.58904 2.60183 2.61843 2.63340 2.65980 2.65980 2.81785
 2.84604 2.93307 2.93307 2.97163 2.97442 3.04772 3.17992 3.17992 3.18013 3.24319
 3.24320 3.31678 3.33190 3.33190 3.33925 3.34189 3.37350 3.38738 3.44670 3.44670
 3.54652 3.54652 3.60739 3.61510 3.76454 3.80863 3.80863 3.85160 4.00020 4.03159
 4.04735 4.04735 4.21516 4.45126 4.55823 4.55823 7.69044 7.69044 8.01777 9.69663
 9.86650 9.86650 12.54069 13.36614
 == 17-th k-point (-0.15308,0.15308,-0.15308) occupation: 14==
 -65.00276 -65.00275 -4.62533 -4.62510 -3.03705 -3.03705 -3.03699 -3.03649 -3.03640 -3.03640
 -0.13339 0.13218 0.24841 0.24841 0.35251 0.40641 0.40641 0.53159 0.54582 0.54582
 0.60636 0.71191 0.82191 0.82191 0.93967 0.93967 0.94600 1.01505 1.18282 1.18282
 1.26988 1.26988 1.32156 1.37948 1.38198 1.46630 1.46630 1.53598 1.53598 1.56713
 1.56713 1.70113 1.70113 1.71375 1.74405 1.77927 1.84777 1.84777 1.90589 1.93047
 1.94281 1.94281 2.04993 2.06969 2.06969 2.17497 2.17497 2.21397 2.24357 2.24357
 2.28740 2.53179 2.54721 2.58133 2.58133 2.64255 2.64255 2.67343 2.74482 2.74482
 2.92194 2.92594 2.92594 2.97569 3.03299 3.03299 3.07538 3.07538 3.12504 3.16501
 3.21308 3.21308 3.32202 3.32202 3.35013 3.42994 3.42994 3.46979 3.50380 3.50380
 3.51309 3.63585 3.65011 3.65011 3.78558 3.78558 3.80188 3.85611 3.85611 3.88956
 3.94609 4.02189 4.02189 4.32876 4.52839 4.52839 4.62917 7.58124 7.66520 7.66520
 8.56442 8.56442 10.62363 11.76393 13.98092
 == 18-th k-point (0.00000,0.30616,-0.30616) occupation: 14==
 -65.00276 -65.00276 -4.62529 -4.62514 -3.03710 -3.03708 -3.03691 -3.03655 -3.03638 -3.03635
 -0.08755 0.07550 0.13762 0.22727 0.36765 0.45367 0.46753 0.50331 0.51804 0.63297
 0.74338 0.76797 0.77289 0.89267 0.91795 0.92571 0.97310 1.07247 1.09003 1.16990
 1.20404 1.22070 1.27450 1.28462 1.32071 1.36385 1.41325 1.45526 1.56549 1.56964
 1.63750 1.66868 1.69232 1.69479 1.71592 1.72112 1.76746 1.88255 1.94780 1.98526
 2.01077 2.04134 2.11380 2.15928 2.21347 2.21904 2.26418 2.35178 2.36116 2.44846
 2.47261 2.49421 2.49770 2.52542 2.57559 2.58095 2.59743 2.75988 2.77344 2.81560
 2.83671 2.87245 2.88762 2.92086 2.94482 2.98757 3.08132 3.11320 3.12374 3.15953
 3.19899 3.30948 3.33958 3.38255 3.38702 3.40430 3.41058 3.42462 3.48265 3.48495
 3.48926 3.49093 3.63896 3.67727 3.70954 3.74750 3.79738 3.83098 3.91776 3.94541
 4.09116 4.14700 4.23949 4.35484 4.52767 4.61143 7.77288 8.29057 8.30116 9.00268
 9.32705 9.86019 13.08645 14.28406
 == 19-th k-point (0.15308,0.45924,-0.45924) occupation: 14==
 -65.00276 -65.00276 -4.62526 -4.62516 -3.03711 -3.03709 -3.03686 -3.03659 -3.03638 -3.03635
 -0.06269 0.04219 0.14585 0.19471 0.33317 0.44170 0.48945 0.49650 0.65417 0.67063
 0.73040 0.74680 0.75647 0.90153 0.93782 0.97010 0.99465 1.00784 1.01867 1.12576
 1.16621 1.21227 1.22968 1.32316 1.35892 1.37064 1.37262 1.44844 1.50048 1.56429
 1.60446 1.64004 1.67121 1.68541 1.71839 1.81801 1.90837 1.93056 1.93826 1.99386
 2.01836 2.04444 2.08183 2.13775 2.16601 2.20084 2.28395 2.31965 2.32990 2.37317
 2.45097 2.46175 2.50332 2.51924 2.61500 2.61701 2.66040 2.74329 2.79606 2.81443
 2.84020 2.90497 2.93393 2.95316 2.95993 3.02549 3.03607 3.05359 3.08484 3.13066
 3.15916 3.23574 3.31745 3.32622 3.33951 3.35024 3.35918 3.43835 3.49728 3.50671
 3.56626 3.65450 3.65760 3.71806 3.72144 3.79111 3.80185 3.84884 3.87859 3.98601
 4.07513 4.21120 4.25411 4.29573 4.55983 4.56956 8.10261 8.34325 8.40452 8.86074
 9.77809 9.94285 13.16277 14.19225
 == 20-th k-point (-0.15308,-0.15308,0.15308) occupation: 14==
 -65.00276 -65.00275 -4.62533 -4.62510 -3.03705 -3.03705 -3.03699 -3.03649 -3.03640 -3.03640
 -0.13339 0.13218 0.24841 0.24841 0.35251 0.40641 0.40641 0.53159 0.54582 0.54582
 0.60636 0.71191 0.82191 0.82191 0.93967 0.93967 0.94600 1.01505 1.18282 1.18282
 1.26988 1.26988 1.32156 1.37948 1.38198 1.46630 1.46630 1.53598 1.53598 1.56713
 1.56713 1.70113 1.70113 1.71375 1.74405 1.77927 1.84777 1.84777 1.90589 1.93047
 1.94281 1.94281 2.04993 2.06969 2.06969 2.17497 2.17497 2.21397 2.24357 2.24357
 2.28740 2.53179 2.54721 2.58133 2.58133 2.64255 2.64255 2.67343 2.74482 2.74482
 2.92194 2.92594 2.92594 2.97569 3.03299 3.03299 3.07538 3.07538 3.12504 3.16501
 3.21308 3.21308 3.32202 3.32202 3.35013 3.42994 3.42994 3.46979 3.50380 3.50380
 3.51309 3.63585 3.65011 3.65011 3.78558 3.78558 3.80188 3.85611 3.85611 3.88956
 3.94609 4.02189 4.02189 4.32876 4.52839 4.52839 4.62917 7.58124 7.66520 7.66520
 8.56442 8.56442 10.62363 11.76393 13.98092
 == 21-th k-point (0.00000,0.00000,0.00000) occupation: 14==
 -65.00276 -65.00275 -4.62536 -4.62507 -3.03701 -3.03701 -3.03701 -3.03641 -3.03641 -3.03641
 -0.16283 0.27685 0.27685 0.27685 0.37108 0.37108 0.37108 0.40256 0.56727 0.56727
 0.56740 0.69087 0.69087 0.69087 0.84088 1.14340 1.14340 1.14340 1.18899 1.18899
 1.23466 1.23466 1.23466 1.35528 1.35528 1.35528 1.59049 1.59049 1.59049 1.73478
 1.73478 1.81228 1.81228 1.82501 1.83895 1.83895 1.83895 1.90332 1.90332 1.90332
 1.92146 1.93711 1.93711 1.93711 1.94348 1.94348 1.94348 2.14148 2.29522 2.29522
 2.29522 2.30634 2.30634 2.30635 2.39671 2.39671 2.39671 2.50314 2.89244 2.94966
 2.94966 2.94966 2.97922 2.97922 3.12836 3.12836 3.12836 3.17836 3.17836 3.17836
 3.18964 3.18964 3.33861 3.33861 3.33861 3.40953 3.40953 3.48451 3.48451 3.48451
 3.54899 3.54899 3.55731 3.63800 3.63800 3.63800 3.68371 3.68371 3.68371 4.07700
 4.25041 4.25041 4.25041 4.39279 4.39279 4.39279 4.42886 7.41483 7.41483 7.41484
 7.56169 7.56169 7.56169 11.12416 12.56751
 == 22-th k-point (0.15308,0.15308,-0.15308) occupation: 14==
 -65.00276 -65.00275 -4.62533 -4.62510 -3.03705 -3.03705 -3.03699 -3.03649 -3.03640 -3.03640
 -0.13339 0.13218 0.24841 0.24841 0.35251 0.40641 0.40641 0.53159 0.54582 0.54582
 0.60636 0.71191 0.82191 0.82191 0.93967 0.93967 0.94600 1.01505 1.18282 1.18282
 1.26988 1.26988 1.32156 1.37948 1.38198 1.46630 1.46630 1.53598 1.53598 1.56713
 1.56713 1.70113 1.70113 1.71375 1.74405 1.77927 1.84777 1.84777 1.90589 1.93047
 1.94281 1.94281 2.04993 2.06969 2.06969 2.17497 2.17497 2.21397 2.24357 2.24357
 2.28740 2.53179 2.54721 2.58133 2.58133 2.64255 2.64255 2.67343 2.74482 2.74482
 2.92194 2.92594 2.92594 2.97569 3.03299 3.03299 3.07538 3.07538 3.12504 3.16501
 3.21308 3.21308 3.32202 3.32202 3.35013 3.42994 3.42994 3.46979 3.50380 3.50380
 3.51309 3.63585 3.65011 3.65011 3.78558 3.78558 3.80188 3.85611 3.85611 3.88956
 3.94609 4.02189 4.02189 4.32876 4.52839 4.52839 4.62917 7.58124 7.66520 7.66520
 8.56442 8.56442 10.62363 11.76393 13.98092
 == 23-th k-point (0.30616,0.30616,-0.30616) occupation: 14==
 -65.00276 -65.00275 -4.62529 -4.62514 -3.03708 -3.03708 -3.03696 -3.03650 -3.03638 -3.03638
 -0.07677 0.01986 0.23203 0.23203 0.33480 0.40070 0.40070 0.55934 0.67360 0.67360
 0.69470 0.69616 0.69616 0.75535 1.00160 1.01601 1.09170 1.09170 1.09553 1.09553
 1.24020 1.26116 1.26116 1.30850 1.30850 1.35807 1.41739 1.49142 1.49142 1.50188
 1.50188 1.58521 1.62574 1.65446 1.88052 1.88052 1.88785 1.90890 1.90890 1.92093
 2.12837 2.12837 2.19290 2.19675 2.19675 2.24637 2.26919 2.26919 2.33237 2.33237
 2.46251 2.46251 2.55636 2.55636 2.60251 2.68086 2.74867 2.77519 2.77519 2.79595
 2.81706 2.81706 2.82904 2.92121 2.95129 2.96313 3.09678 3.09678 3.09845 3.09845
 3.19319 3.19319 3.21108 3.21108 3.31621 3.46586 3.46586 3.55330 3.55596 3.55596
 3.56549 3.66172 3.66172 3.69117 3.73204 3.76172 3.93252 3.93252 4.00030 4.00030
 4.12941 4.14668 4.14669 4.33657 4.43870 4.43870 8.25490 8.25490 8.33161 9.36453
 9.36453 10.00607 11.95234 14.72323
 == 24-th k-point (-0.00000,-0.30616,0.30616) occupation: 14==
 -65.00276 -65.00276 -4.62529 -4.62514 -3.03710 -3.03708 -3.03691 -3.03655 -3.03638 -3.03635
 -0.08755 0.07550 0.13762 0.22727 0.36765 0.45367 0.46753 0.50331 0.51804 0.63297
 0.74338 0.76797 0.77289 0.89267 0.91795 0.92571 0.97310 1.07247 1.09003 1.16990
 1.20404 1.22070 1.27450 1.28462 1.32071 1.36385 1.41325 1.45526 1.56549 1.56964
 1.63750 1.66868 1.69232 1.69479 1.71592 1.72112 1.76746 1.88255 1.94780 1.98526
 2.01077 2.04134 2.11380 2.15928 2.21347 2.21904 2.26418 2.35178 2.36116 2.44846
 2.47261 2.49421 2.49770 2.52542 2.57559 2.58095 2.59743 2.75988 2.77344 2.81560
 2.83671 2.87245 2.88762 2.92086 2.94482 2.98757 3.08132 3.11320 3.12374 3.15953
 3.19899 3.30948 3.33958 3.38255 3.38702 3.40430 3.41058 3.42462 3.48265 3.48495
 3.48926 3.49093 3.63896 3.67727 3.70954 3.74750 3.79738 3.83098 3.91776 3.94541
 4.09116 4.14700 4.23949 4.35484 4.52767 4.61143 7.77288 8.29057 8.30116 9.00268
 9.32705 9.86019 13.08645 14.28406
 == 25-th k-point (0.15308,-0.15308,0.15308) occupation: 14==
 -65.00276 -65.00275 -4.62533 -4.62510 -3.03705 -3.03705 -3.03699 -3.03649 -3.03640 -3.03640
 -0.13339 0.13218 0.24841 0.24841 0.35251 0.40641 0.40641 0.53159 0.54582 0.54582
 0.60636 0.71191 0.82191 0.82191 0.93967 0.93967 0.94600 1.01505 1.18282 1.18282
 1.26988 1.26988 1.32156 1.37948 1.38198 1.46630 1.46630 1.53598 1.53598 1.56713
 1.56713 1.70113 1.70113 1.71375 1.74405 1.77927 1.84777 1.84777 1.90589 1.93047
 1.94281 1.94281 2.04993 2.06969 2.06969 2.17497 2.17497 2.21397 2.24357 2.24357
 2.28740 2.53179 2.54721 2.58133 2.58133 2.64255 2.64255 2.67343 2.74482 2.74482
 2.92194 2.92594 2.92594 2.97569 3.03299 3.03299 3.07538 3.07538 3.12504 3.16501
 3.21308 3.21308 3.32202 3.32202 3.35013 3.42994 3.42994 3.46979 3.50380 3.50380
 3.51309 3.63585 3.65011 3.65011 3.78558 3.78558 3.80188 3.85611 3.85611 3.88956
 3.94609 4.02189 4.02189 4.32876 4.52839 4.52839 4.62917 7.58124 7.66520 7.66520
 8.56442 8.56442 10.62363 11.76393 13.98092
 == 26-th k-point (0.30616,0.00000,0.00000) occupation: 14==
 -65.00276 -65.00275 -4.62532 -4.62511 -3.03707 -3.03707 -3.03695 -3.03650 -3.03641 -3.03641
 -0.12302 0.14806 0.20643 0.20643 0.31838 0.39307 0.49007 0.49007 0.57556 0.61201
 0.69524 0.75907 0.75907 0.78431 0.92173 0.92173 0.96175 1.03456 1.06022 1.22166
 1.26668 1.29603 1.29603 1.37166 1.37166 1.39295 1.40382 1.58733 1.59889 1.59889
 1.60427 1.66823 1.66823 1.66980 1.79757 1.79757 1.80703 1.82139 1.84874 1.95144
 1.95807 1.95807 2.02900 2.09476 2.12730 2.12730 2.19198 2.26921 2.26921 2.37628
 2.47177 2.54006 2.58904 2.58904 2.60183 2.61843 2.63340 2.65980 2.65980 2.81785
 2.84604 2.93307 2.93307 2.97163 2.97442 3.04772 3.17992 3.17992 3.18013 3.24319
 3.24320 3.31678 3.33190 3.33190 3.33925 3.34189 3.37350 3.38738 3.44670 3.44670
 3.54652 3.54652 3.60739 3.61510 3.76454 3.80863 3.80863 3.85160 4.00020 4.03159
 4.04735 4.04735 4.21516 4.45126 4.55823 4.55823 7.69044 7.69044 8.01777 9.69663
 9.86650 9.86650 12.54069 13.36614
 == 27-th k-point (0.45924,0.15308,-0.15308) occupation: 14==
 -65.00276 -65.00276 -4.62526 -4.62516 -3.03711 -3.03709 -3.03686 -3.03659 -3.03638 -3.03635
 -0.06269 0.04219 0.14585 0.19471 0.33317 0.44170 0.48945 0.49650 0.65417 0.67063
 0.73040 0.74680 0.75647 0.90153 0.93782 0.97010 0.99465 1.00784 1.01867 1.12576
 1.16621 1.21227 1.22968 1.32316 1.35892 1.37064 1.37262 1.44844 1.50048 1.56429
 1.60446 1.64004 1.67121 1.68541 1.71839 1.81801 1.90837 1.93056 1.93826 1.99386
 2.01836 2.04444 2.08183 2.13775 2.16601 2.20084 2.28395 2.31965 2.32990 2.37317
 2.45097 2.46175 2.50332 2.51924 2.61500 2.61701 2.66040 2.74329 2.79606 2.81443
 2.84020 2.90497 2.93393 2.95316 2.95993 3.02549 3.03607 3.05359 3.08484 3.13066
 3.15916 3.23574 3.31745 3.32622 3.33951 3.35024 3.35918 3.43835 3.49728 3.50671
 3.56626 3.65450 3.65760 3.71806 3.72144 3.79111 3.80185 3.84884 3.87859 3.98601
 4.07513 4.21120 4.25411 4.29573 4.55983 4.56956 8.10261 8.34325 8.40452 8.86074
 9.77809 9.94285 13.16277 14.19225
 == 28-th k-point (0.15308,-0.45924,0.45924) occupation: 14==
 -65.00276 -65.00276 -4.62526 -4.62516 -3.03711 -3.03709 -3.03686 -3.03659 -3.03638 -3.03635
 -0.06269 0.04219 0.14585 0.19471 0.33317 0.44170 0.48945 0.49650 0.65417 0.67063
 0.73040 0.74680 0.75647 0.90153 0.93782 0.97010 0.99465 1.00784 1.01867 1.12576
 1.16621 1.21227 1.22968 1.32316 1.35892 1.37064 1.37262 1.44844 1.50048 1.56429
 1.60446 1.64004 1.67121 1.68541 1.71839 1.81801 1.90837 1.93056 1.93826 1.99386
 2.01836 2.04444 2.08183 2.13775 2.16601 2.20084 2.28395 2.31965 2.32990 2.37317
 2.45097 2.46175 2.50332 2.51924 2.61500 2.61701 2.66040 2.74329 2.79606 2.81443
 2.84020 2.90497 2.93393 2.95316 2.95993 3.02549 3.03607 3.05359 3.08484 3.13066
 3.15916 3.23574 3.31745 3.32622 3.33951 3.35024 3.35918 3.43835 3.49728 3.50671
 3.56626 3.65450 3.65760 3.71806 3.72144 3.79111 3.80185 3.84884 3.87859 3.98601
 4.07513 4.21120 4.25411 4.29573 4.55983 4.56956 8.10261 8.34325 8.40452 8.86074
 9.77809 9.94285 13.16277 14.19225
 == 29-th k-point (0.30616,-0.30616,0.30616) occupation: 14==
 -65.00276 -65.00275 -4.62529 -4.62514 -3.03708 -3.03708 -3.03696 -3.03650 -3.03638 -3.03638
 -0.07677 0.01986 0.23203 0.23203 0.33480 0.40070 0.40070 0.55934 0.67360 0.67360
 0.69470 0.69616 0.69616 0.75535 1.00160 1.01601 1.09170 1.09170 1.09553 1.09553
 1.24020 1.26116 1.26116 1.30850 1.30850 1.35807 1.41739 1.49142 1.49142 1.50188
 1.50188 1.58521 1.62574 1.65446 1.88052 1.88052 1.88785 1.90890 1.90890 1.92093
 2.12837 2.12837 2.19290 2.19675 2.19675 2.24637 2.26919 2.26919 2.33237 2.33237
 2.46251 2.46251 2.55636 2.55636 2.60251 2.68086 2.74867 2.77519 2.77519 2.79595
 2.81706 2.81706 2.82904 2.92121 2.95129 2.96313 3.09678 3.09678 3.09845 3.09845
 3.19319 3.19319 3.21108 3.21108 3.31621 3.46586 3.46586 3.55330 3.55596 3.55596
 3.56549 3.66172 3.66172 3.69117 3.73204 3.76172 3.93252 3.93252 4.00030 4.00030
 4.12941 4.14668 4.14669 4.33657 4.43870 4.43870 8.25490 8.25490 8.33161 9.36453
 9.36453 10.00607 11.95234 14.72323
 == 30-th k-point (0.45924,-0.15308,0.15308) occupation: 14==
 -65.00276 -65.00276 -4.62526 -4.62516 -3.03711 -3.03709 -3.03686 -3.03659 -3.03638 -3.03635
 -0.06269 0.04219 0.14585 0.19471 0.33317 0.44170 0.48945 0.49650 0.65417 0.67063
 0.73040 0.74680 0.75647 0.90153 0.93782 0.97010 0.99465 1.00784 1.01867 1.12576
 1.16621 1.21227 1.22968 1.32316 1.35892 1.37064 1.37262 1.44844 1.50048 1.56429
 1.60446 1.64004 1.67121 1.68541 1.71839 1.81801 1.90837 1.93056 1.93826 1.99386
 2.01836 2.04444 2.08183 2.13775 2.16601 2.20084 2.28395 2.31965 2.32990 2.37317
 2.45097 2.46175 2.50332 2.51924 2.61500 2.61701 2.66040 2.74329 2.79606 2.81443
 2.84020 2.90497 2.93393 2.95316 2.95993 3.02549 3.03607 3.05359 3.08484 3.13066
 3.15916 3.23574 3.31745 3.32622 3.33951 3.35024 3.35918 3.43835 3.49728 3.50671
 3.56626 3.65450 3.65760 3.71806 3.72144 3.79111 3.80185 3.84884 3.87859 3.98601
 4.07513 4.21120 4.25411 4.29573 4.55983 4.56956 8.10261 8.34325 8.40452 8.86074
 9.77809 9.94285 13.16277 14.19225
 == 31-th k-point (0.61232,0.00000,0.00000) occupation: 14==
 -65.00276 -65.00276 -4.62521 -4.62521 -3.03711 -3.03711 -3.03672 -3.03672 -3.03636 -3.03636
 -0.01028 -0.01028 0.17071 0.17071 0.30327 0.30327 0.64917 0.64917 0.68999 0.68999
 0.74517 0.74518 0.75666 0.75666 0.97893 0.97893 1.00362 1.00363 1.02369 1.02369
 1.07070 1.07070 1.23946 1.23946 1.37553 1.37553 1.54546 1.54546 1.58300 1.58300
 1.63190 1.63190 1.69224 1.69224 1.74582 1.74582 1.82957 1.82957 1.85712 1.85712
 2.08336 2.08336 2.09859 2.09859 2.18845 2.18845 2.30636 2.30636 2.43216 2.43216
 2.45625 2.45625 2.50465 2.50465 2.52436 2.52436 2.73838 2.73838 2.77877 2.77877
 2.86971 2.86971 2.98973 2.98973 3.01031 3.01031 3.02776 3.02776 3.08285 3.08285
 3.23522 3.23522 3.25184 3.25184 3.26442 3.26442 3.46088 3.46088 3.49366 3.49366
 3.55919 3.55919 3.64421 3.64421 3.73036 3.73036 3.93868 3.93868 4.07052 4.07052
 4.29309 4.29309 4.35601 4.35601 4.61941 4.61941 8.31951 8.31951 8.62733 8.62733
 9.67548 9.67548 13.41316 13.41316
 == 32-th k-point (-0.45924,0.15308,0.15308) occupation: 14==
 -65.00276 -65.00276 -4.62526 -4.62516 -3.03711 -3.03709 -3.03686 -3.03659 -3.03638 -3.03635
 -0.06269 0.04219 0.14585 0.19471 0.33317 0.44170 0.48945 0.49650 0.65417 0.67063
 0.73040 0.74680 0.75647 0.90153 0.93782 0.97010 0.99465 1.00784 1.01867 1.12576
 1.16621 1.21227 1.22968 1.32316 1.35892 1.37064 1.37262 1.44844 1.50048 1.56429
 1.60446 1.64004 1.67121 1.68541 1.71839 1.81801 1.90837 1.93056 1.93826 1.99386
 2.01836 2.04444 2.08183 2.13775 2.16601 2.20084 2.28395 2.31965 2.32990 2.37317
 2.45097 2.46175 2.50332 2.51924 2.61500 2.61701 2.66040 2.74329 2.79606 2.81443
 2.84020 2.90497 2.93393 2.95316 2.95993 3.02549 3.03607 3.05359 3.08484 3.13066
 3.15916 3.23574 3.31745 3.32622 3.33951 3.35024 3.35918 3.43835 3.49728 3.50671
 3.56626 3.65450 3.65760 3.71806 3.72144 3.79111 3.80185 3.84884 3.87859 3.98601
 4.07513 4.21120 4.25411 4.29573 4.55983 4.56956 8.10261 8.34325 8.40452 8.86074
 9.77809 9.94285 13.16277 14.19225
 == 33-th k-point (-0.30616,0.30616,-0.00000) occupation: 14==
 -65.00276 -65.00276 -4.62529 -4.62514 -3.03710 -3.03708 -3.03691 -3.03655 -3.03638 -3.03635
 -0.08755 0.07550 0.13762 0.22727 0.36765 0.45367 0.46753 0.50331 0.51804 0.63297
 0.74338 0.76797 0.77289 0.89267 0.91795 0.92571 0.97310 1.07247 1.09003 1.16990
 1.20404 1.22070 1.27450 1.28462 1.32071 1.36385 1.41325 1.45526 1.56549 1.56964
 1.63750 1.66868 1.69232 1.69479 1.71592 1.72112 1.76746 1.88255 1.94780 1.98526
 2.01077 2.04134 2.11380 2.15928 2.21347 2.21904 2.26418 2.35178 2.36116 2.44846
 2.47261 2.49421 2.49770 2.52542 2.57559 2.58095 2.59743 2.75988 2.77344 2.81560
 2.83671 2.87245 2.88762 2.92086 2.94482 2.98757 3.08132 3.11320 3.12374 3.15953
 3.19899 3.30948 3.33958 3.38255 3.38702 3.40430 3.41058 3.42462 3.48265 3.48495
 3.48926 3.49093 3.63896 3.67727 3.70954 3.74750 3.79738 3.83098 3.91776 3.94541
 4.09116 4.14700 4.23949 4.35484 4.52767 4.61143 7.77288 8.29057 8.30116 9.00268
 9.32705 9.86019 13.08645 14.28406
 == 34-th k-point (-0.15308,0.45924,-0.15308) occupation: 14==
 -65.00276 -65.00276 -4.62526 -4.62516 -3.03711 -3.03709 -3.03686 -3.03659 -3.03638 -3.03635
 -0.06269 0.04219 0.14585 0.19471 0.33317 0.44170 0.48945 0.49650 0.65417 0.67063
 0.73040 0.74680 0.75647 0.90153 0.93782 0.97010 0.99465 1.00784 1.01867 1.12576
 1.16621 1.21227 1.22968 1.32316 1.35892 1.37064 1.37262 1.44844 1.50048 1.56429
 1.60446 1.64004 1.67121 1.68541 1.71839 1.81801 1.90837 1.93056 1.93826 1.99386
 2.01836 2.04444 2.08183 2.13775 2.16601 2.20084 2.28395 2.31965 2.32990 2.37317
 2.45097 2.46175 2.50332 2.51924 2.61500 2.61701 2.66040 2.74329 2.79606 2.81443
 2.84020 2.90497 2.93393 2.95316 2.95993 3.02549 3.03607 3.05359 3.08484 3.13066
 3.15916 3.23574 3.31745 3.32622 3.33951 3.35024 3.35918 3.43835 3.49728 3.50671
 3.56626 3.65450 3.65760 3.71806 3.72144 3.79111 3.80185 3.84884 3.87859 3.98601
 4.07513 4.21120 4.25411 4.29573 4.55983 4.56956 8.10261 8.34325 8.40452 8.86074
 9.77809 9.94285 13.16277 14.19225
 == 35-th k-point (0.00000,0.61232,-0.30616) occupation: 14==
 -65.00276 -65.00276 -4.62521 -4.62521 -3.03711 -3.03711 -3.03673 -3.03673 -3.03635 -3.03635
 -0.00410 -0.00410 0.13378 0.13378 0.43513 0.43513 0.46184 0.46184 0.67068 0.67068
 0.76029 0.76029 0.88542 0.88542 0.96330 0.96330 0.98284 0.98284 1.02056 1.02056
 1.15491 1.15491 1.29978 1.29978 1.30775 1.30775 1.38099 1.38099 1.51135 1.51135
 1.68384 1.68384 1.69788 1.69788 1.79625 1.79625 1.89081 1.89081 1.95331 1.95331
 2.04409 2.04409 2.17215 2.17215 2.17526 2.17526 2.33932 2.33932 2.38829 2.38829
 2.39112 2.39112 2.54060 2.54060 2.62640 2.62640 2.72493 2.72493 2.85470 2.85470
 2.88110 2.88110 2.88985 2.88985 2.98355 2.98355 3.04093 3.04093 3.11417 3.11417
 3.24260 3.24260 3.34318 3.34318 3.34510 3.34510 3.46579 3.46579 3.47483 3.47483
 3.55697 3.55697 3.56293 3.56293 3.67919 3.67919 3.77724 3.77724 4.00310 4.00310
 4.11310 4.11310 4.26371 4.26371 4.57766 4.57766 8.41207 8.41207 8.77614 8.77614
 9.53880 9.53880 13.73062 13.73062
 == 36-th k-point (-0.30616,0.00000,0.30616) occupation: 14==
 -65.00276 -65.00276 -4.62529 -4.62514 -3.03710 -3.03708 -3.03691 -3.03655 -3.03638 -3.03635
 -0.08755 0.07550 0.13762 0.22727 0.36765 0.45367 0.46753 0.50331 0.51804 0.63297
 0.74338 0.76797 0.77289 0.89267 0.91795 0.92571 0.97310 1.07247 1.09003 1.16990
 1.20404 1.22070 1.27450 1.28462 1.32071 1.36385 1.41325 1.45526 1.56549 1.56964
 1.63750 1.66868 1.69232 1.69479 1.71592 1.72112 1.76746 1.88255 1.94780 1.98526
 2.01077 2.04134 2.11380 2.15928 2.21347 2.21904 2.26418 2.35178 2.36116 2.44846
 2.47261 2.49421 2.49770 2.52542 2.57559 2.58095 2.59743 2.75988 2.77344 2.81560
 2.83671 2.87245 2.88762 2.92086 2.94482 2.98757 3.08132 3.11320 3.12374 3.15953
 3.19899 3.30948 3.33958 3.38255 3.38702 3.40430 3.41058 3.42462 3.48265 3.48495
 3.48926 3.49093 3.63896 3.67727 3.70954 3.74750 3.79738 3.83098 3.91776 3.94541
 4.09116 4.14700 4.23949 4.35484 4.52767 4.61143 7.77288 8.29057 8.30116 9.00268
 9.32705 9.86019 13.08645 14.28406
 == 37-th k-point (-0.15308,0.15308,0.15308) occupation: 14==
 -65.00276 -65.00275 -4.62533 -4.62510 -3.03705 -3.03705 -3.03699 -3.03649 -3.03640 -3.03640
 -0.13339 0.13218 0.24841 0.24841 0.35251 0.40641 0.40641 0.53159 0.54582 0.54582
 0.60636 0.71191 0.82191 0.82191 0.93967 0.93967 0.94600 1.01505 1.18282 1.18282
 1.26988 1.26988 1.32156 1.37948 1.38198 1.46630 1.46630 1.53598 1.53598 1.56713
 1.56713 1.70113 1.70113 1.71375 1.74405 1.77927 1.84777 1.84777 1.90589 1.93047
 1.94281 1.94281 2.04993 2.06969 2.06969 2.17497 2.17497 2.21397 2.24357 2.24357
 2.28740 2.53179 2.54721 2.58133 2.58133 2.64255 2.64255 2.67343 2.74482 2.74482
 2.92194 2.92594 2.92594 2.97569 3.03299 3.03299 3.07538 3.07538 3.12504 3.16501
 3.21308 3.21308 3.32202 3.32202 3.35013 3.42994 3.42994 3.46979 3.50380 3.50380
 3.51309 3.63585 3.65011 3.65011 3.78558 3.78558 3.80188 3.85611 3.85611 3.88956
 3.94609 4.02189 4.02189 4.32876 4.52839 4.52839 4.62917 7.58124 7.66520 7.66520
 8.56442 8.56442 10.62363 11.76393 13.98092
 == 38-th k-point (0.00000,0.30616,0.00000) occupation: 14==
 -65.00276 -65.00275 -4.62532 -4.62511 -3.03707 -3.03707 -3.03695 -3.03650 -3.03641 -3.03641
 -0.12302 0.14806 0.20643 0.20643 0.31838 0.39307 0.49007 0.49007 0.57556 0.61201
 0.69524 0.75907 0.75907 0.78431 0.92173 0.92173 0.96175 1.03456 1.06022 1.22166
 1.26668 1.29603 1.29603 1.37166 1.37166 1.39295 1.40382 1.58733 1.59889 1.59889
 1.60427 1.66823 1.66823 1.66980 1.79757 1.79757 1.80703 1.82139 1.84874 1.95144
 1.95807 1.95807 2.02900 2.09476 2.12730 2.12730 2.19198 2.26921 2.26921 2.37628
 2.47177 2.54006 2.58904 2.58904 2.60183 2.61843 2.63340 2.65980 2.65980 2.81785
 2.84604 2.93307 2.93307 2.97163 2.97442 3.04772 3.17992 3.17992 3.18013 3.24319
 3.24320 3.31678 3.33190 3.33190 3.33925 3.34189 3.37350 3.38738 3.44670 3.44670
 3.54652 3.54652 3.60739 3.61510 3.76454 3.80863 3.80863 3.85160 4.00020 4.03159
 4.04735 4.04735 4.21516 4.45126 4.55823 4.55823 7.69044 7.69044 8.01777 9.69663
 9.86650 9.86650 12.54069 13.36614
 == 39-th k-point (0.15308,0.45924,-0.15308) occupation: 14==
 -65.00276 -65.00276 -4.62526 -4.62516 -3.03711 -3.03709 -3.03686 -3.03659 -3.03638 -3.03635
 -0.06269 0.04219 0.14585 0.19471 0.33317 0.44170 0.48945 0.49650 0.65417 0.67063
 0.73040 0.74680 0.75647 0.90153 0.93782 0.97010 0.99465 1.00784 1.01867 1.12576
 1.16621 1.21227 1.22968 1.32316 1.35892 1.37064 1.37262 1.44844 1.50048 1.56429
 1.60446 1.64004 1.67121 1.68541 1.71839 1.81801 1.90837 1.93056 1.93826 1.99386
 2.01836 2.04444 2.08183 2.13775 2.16601 2.20084 2.28395 2.31965 2.32990 2.37317
 2.45097 2.46175 2.50332 2.51924 2.61500 2.61701 2.66040 2.74329 2.79606 2.81443
 2.84020 2.90497 2.93393 2.95316 2.95993 3.02549 3.03607 3.05359 3.08484 3.13066
 3.15916 3.23574 3.31745 3.32622 3.33951 3.35024 3.35918 3.43835 3.49728 3.50671
 3.56626 3.65450 3.65760 3.71806 3.72144 3.79111 3.80185 3.84884 3.87859 3.98601
 4.07513 4.21120 4.25411 4.29573 4.55983 4.56956 8.10261 8.34325 8.40452 8.86074
 9.77809 9.94285 13.16277 14.19225
 == 40-th k-point (-0.15308,-0.15308,0.45924) occupation: 14==
 -65.00276 -65.00276 -4.62526 -4.62516 -3.03711 -3.03709 -3.03686 -3.03659 -3.03638 -3.03635
 -0.06269 0.04219 0.14585 0.19471 0.33317 0.44170 0.48945 0.49650 0.65417 0.67063
 0.73040 0.74680 0.75647 0.90153 0.93782 0.97010 0.99465 1.00784 1.01867 1.12576
 1.16621 1.21227 1.22968 1.32316 1.35892 1.37064 1.37262 1.44844 1.50048 1.56429
 1.60446 1.64004 1.67121 1.68541 1.71839 1.81801 1.90837 1.93056 1.93826 1.99386
 2.01836 2.04444 2.08183 2.13775 2.16601 2.20084 2.28395 2.31965 2.32990 2.37317
 2.45097 2.46175 2.50332 2.51924 2.61500 2.61701 2.66040 2.74329 2.79606 2.81443
 2.84020 2.90497 2.93393 2.95316 2.95993 3.02549 3.03607 3.05359 3.08484 3.13066
 3.15916 3.23574 3.31745 3.32622 3.33951 3.35024 3.35918 3.43835 3.49728 3.50671
 3.56626 3.65450 3.65760 3.71806 3.72144 3.79111 3.80185 3.84884 3.87859 3.98601
 4.07513 4.21120 4.25411 4.29573 4.55983 4.56956 8.10261 8.34325 8.40452 8.86074
 9.77809 9.94285 13.16277 14.19225
 == 41-th k-point (0.00000,0.00000,0.30616) occupation: 14==
 -65.00276 -65.00275 -4.62532 -4.62511 -3.03707 -3.03707 -3.03695 -3.03650 -3.03641 -3.03641
 -0.12302 0.14806 0.20643 0.20643 0.31838 0.39307 0.49007 0.49007 0.57556 0.61201
 0.69524 0.75907 0.75907 0.78431 0.92173 0.92173 0.96175 1.03456 1.06022 1.22166
 1.26668 1.29603 1.29603 1.37166 1.37166 1.39295 1.40382 1.58733 1.59889 1.59889
 1.60427 1.66823 1.66823 1.66980 1.79757 1.79757 1.80703 1.82139 1.84874 1.95144
 1.95807 1.95807 2.02900 2.09476 2.12730 2.12730 2.19198 2.26921 2.26921 2.37628
 2.47177 2.54006 2.58904 2.58904 2.60183 2.61843 2.63340 2.65980 2.65980 2.81785
 2.84604 2.93307 2.93307 2.97163 2.97442 3.04772 3.17992 3.17992 3.18013 3.24319
 3.24320 3.31678 3.33190 3.33190 3.33925 3.34189 3.37350 3.38738 3.44670 3.44670
 3.54652 3.54652 3.60739 3.61510 3.76454 3.80863 3.80863 3.85160 4.00020 4.03159
 4.04735 4.04735 4.21516 4.45126 4.55823 4.55823 7.69044 7.69044 8.01777 9.69663
 9.86650 9.86650 12.54069 13.36614
 == 42-th k-point (0.15308,0.15308,0.15308) occupation: 14==
 -65.00276 -65.00275 -4.62533 -4.62510 -3.03705 -3.03705 -3.03699 -3.03649 -3.03640 -3.03640
 -0.13339 0.13218 0.24841 0.24841 0.35251 0.40641 0.40641 0.53159 0.54582 0.54582
 0.60636 0.71191 0.82191 0.82191 0.93967 0.93967 0.94600 1.01505 1.18282 1.18282
 1.26988 1.26988 1.32156 1.37948 1.38198 1.46630 1.46631 1.53598 1.53598 1.56713
 1.56713 1.70113 1.70113 1.71375 1.74405 1.77927 1.84777 1.84777 1.90589 1.93047
 1.94281 1.94281 2.04993 2.06969 2.06969 2.17497 2.17497 2.21397 2.24357 2.24357
 2.28740 2.53179 2.54721 2.58133 2.58133 2.64255 2.64255 2.67343 2.74482 2.74482
 2.92194 2.92594 2.92594 2.97569 3.03299 3.03299 3.07538 3.07538 3.12504 3.16501
 3.21308 3.21308 3.32202 3.32202 3.35013 3.42994 3.42994 3.46979 3.50380 3.50380
 3.51309 3.63585 3.65011 3.65011 3.78558 3.78558 3.80188 3.85611 3.85611 3.88956
 3.94609 4.02189 4.02189 4.32876 4.52839 4.52839 4.62917 7.58124 7.66520 7.66520
 8.56442 8.56442 10.62363 11.76393 13.98092
 == 43-th k-point (0.30616,0.30616,0.00000) occupation: 14==
 -65.00276 -65.00276 -4.62529 -4.62514 -3.03710 -3.03708 -3.03691 -3.03655 -3.03638 -3.03635
 -0.08755 0.07551 0.13762 0.22727 0.36765 0.45367 0.46753 0.50331 0.51804 0.63297
 0.74338 0.76797 0.77289 0.89267 0.91795 0.92571 0.97310 1.07247 1.09003 1.16990
 1.20404 1.22070 1.27450 1.28462 1.32071 1.36385 1.41325 1.45526 1.56549 1.56964
 1.63750 1.66868 1.69232 1.69479 1.71592 1.72112 1.76746 1.88255 1.94780 1.98526
 2.01077 2.04134 2.11380 2.15928 2.21347 2.21904 2.26418 2.35178 2.36116 2.44846
 2.47261 2.49421 2.49770 2.52542 2.57559 2.58095 2.59743 2.75988 2.77344 2.81560
 2.83671 2.87245 2.88762 2.92086 2.94482 2.98757 3.08132 3.11320 3.12374 3.15953
 3.19899 3.30948 3.33958 3.38255 3.38702 3.40430 3.41058 3.42462 3.48265 3.48495
 3.48926 3.49093 3.63896 3.67727 3.70954 3.74750 3.79738 3.83098 3.91776 3.94541
 4.09116 4.14700 4.23949 4.35484 4.52767 4.61143 7.77288 8.29057 8.30116 9.00268
 9.32705 9.86019 13.08645 14.28406
 == 44-th k-point (0.00000,-0.30616,0.61232) occupation: 14==
 -65.00276 -65.00276 -4.62521 -4.62521 -3.03711 -3.03711 -3.03673 -3.03673 -3.03635 -3.03635
 -0.00410 -0.00410 0.13378 0.13378 0.43513 0.43513 0.46184 0.46184 0.67068 0.67068
 0.76029 0.76029 0.88542 0.88542 0.96330 0.96330 0.98284 0.98284 1.02056 1.02056
 1.15491 1.15491 1.29978 1.29978 1.30775 1.30775 1.38099 1.38099 1.51135 1.51135
 1.68384 1.68384 1.69788 1.69788 1.79625 1.79625 1.89081 1.89081 1.95331 1.95331
 2.04409 2.04409 2.17215 2.17215 2.17526 2.17526 2.33932 2.33932 2.38829 2.38829
 2.39112 2.39112 2.54060 2.54060 2.62640 2.62640 2.72493 2.72493 2.85470 2.85470
 2.88110 2.88110 2.88985 2.88985 2.98355 2.98355 3.04093 3.04093 3.11417 3.11417
 3.24260 3.24260 3.34318 3.34318 3.34510 3.34510 3.46579 3.46579 3.47483 3.47483
 3.55697 3.55697 3.56293 3.56293 3.67919 3.67919 3.77724 3.77724 4.00310 4.00310
 4.11310 4.11310 4.26371 4.26371 4.57766 4.57766 8.41207 8.41207 8.77614 8.77614
 9.53880 9.53880 13.73062 13.73062
 == 45-th k-point (0.15308,-0.15308,0.45924) occupation: 14==
 -65.00276 -65.00276 -4.62526 -4.62516 -3.03711 -3.03709 -3.03686 -3.03659 -3.03638 -3.03635
 -0.06269 0.04219 0.14585 0.19471 0.33317 0.44170 0.48945 0.49650 0.65417 0.67063
 0.73040 0.74680 0.75647 0.90153 0.93782 0.97010 0.99465 1.00784 1.01867 1.12576
 1.16621 1.21227 1.22968 1.32316 1.35892 1.37064 1.37262 1.44844 1.50048 1.56429
 1.60446 1.64004 1.67121 1.68541 1.71839 1.81801 1.90837 1.93056 1.93826 1.99386
 2.01836 2.04444 2.08183 2.13775 2.16601 2.20084 2.28395 2.31965 2.32990 2.37317
 2.45097 2.46175 2.50332 2.51924 2.61500 2.61701 2.66040 2.74329 2.79606 2.81443
 2.84020 2.90497 2.93393 2.95316 2.95993 3.02549 3.03607 3.05359 3.08484 3.13066
 3.15916 3.23574 3.31745 3.32622 3.33951 3.35024 3.35918 3.43835 3.49728 3.50671
 3.56626 3.65450 3.65760 3.71806 3.72144 3.79111 3.80185 3.84884 3.87859 3.98601
 4.07513 4.21120 4.25411 4.29573 4.55983 4.56956 8.10261 8.34325 8.40452 8.86074
 9.77809 9.94285 13.16277 14.19225
 == 46-th k-point (0.30616,0.00000,0.30616) occupation: 14==
 -65.00276 -65.00276 -4.62529 -4.62514 -3.03710 -3.03708 -3.03691 -3.03655 -3.03638 -3.03635
 -0.08755 0.07551 0.13762 0.22727 0.36765 0.45367 0.46753 0.50331 0.51804 0.63297
 0.74338 0.76797 0.77289 0.89267 0.91795 0.92571 0.97310 1.07247 1.09003 1.16990
 1.20404 1.22070 1.27450 1.28462 1.32071 1.36385 1.41325 1.45526 1.56549 1.56964
 1.63750 1.66868 1.69232 1.69479 1.71592 1.72112 1.76746 1.88255 1.94780 1.98526
 2.01077 2.04134 2.11380 2.15928 2.21347 2.21904 2.26418 2.35178 2.36116 2.44846
 2.47261 2.49421 2.49770 2.52542 2.57559 2.58095 2.59743 2.75988 2.77344 2.81560
 2.83671 2.87245 2.88762 2.92086 2.94482 2.98757 3.08132 3.11320 3.12374 3.15953
 3.19899 3.30948 3.33958 3.38255 3.38702 3.40430 3.41058 3.42462 3.48265 3.48495
 3.48926 3.49093 3.63896 3.67727 3.70954 3.74750 3.79738 3.83098 3.91776 3.94541
 4.09116 4.14700 4.23949 4.35484 4.52767 4.61143 7.77288 8.29057 8.30116 9.00268
 9.32705 9.86019 13.08645 14.28406
 == 47-th k-point (0.45924,0.15308,0.15308) occupation: 14==
 -65.00276 -65.00276 -4.62526 -4.62516 -3.03711 -3.03709 -3.03686 -3.03659 -3.03638 -3.03635
 -0.06269 0.04219 0.14585 0.19471 0.33317 0.44170 0.48945 0.49650 0.65417 0.67063
 0.73040 0.74680 0.75647 0.90153 0.93782 0.97010 0.99465 1.00784 1.01867 1.12576
 1.16621 1.21227 1.22968 1.32316 1.35892 1.37064 1.37262 1.44844 1.50048 1.56429
 1.60446 1.64004 1.67121 1.68541 1.71839 1.81801 1.90837 1.93056 1.93826 1.99386
 2.01836 2.04444 2.08183 2.13775 2.16601 2.20084 2.28395 2.31965 2.32990 2.37317
 2.45097 2.46175 2.50332 2.51924 2.61500 2.61701 2.66040 2.74329 2.79606 2.81443
 2.84020 2.90497 2.93393 2.95316 2.95993 3.02549 3.03607 3.05359 3.08484 3.13066
 3.15916 3.23574 3.31745 3.32622 3.33951 3.35024 3.35918 3.43835 3.49728 3.50671
 3.56626 3.65450 3.65760 3.71806 3.72144 3.79111 3.80185 3.84884 3.87859 3.98601
 4.07513 4.21120 4.25411 4.29573 4.55982 4.56956 8.10261 8.34325 8.40452 8.86074
 9.77809 9.94285 13.16277 14.19225
 == 48-th k-point (-0.61232,0.30616,0.30616) occupation: 14==
 -65.00276 -65.00276 -4.62529 -4.62514 -3.03710 -3.03708 -3.03691 -3.03655 -3.03638 -3.03635
 -0.08755 0.07551 0.13762 0.22727 0.36765 0.45367 0.46753 0.50331 0.51804 0.63297
 0.74338 0.76797 0.77289 0.89267 0.91795 0.92571 0.97310 1.07247 1.09003 1.16990
 1.20404 1.22070 1.27450 1.28462 1.32071 1.36385 1.41325 1.45526 1.56549 1.56964
 1.63750 1.66868 1.69232 1.69479 1.71592 1.72112 1.76746 1.88255 1.94780 1.98526
 2.01077 2.04134 2.11380 2.15928 2.21347 2.21904 2.26418 2.35178 2.36116 2.44846
 2.47261 2.49421 2.49770 2.52542 2.57559 2.58095 2.59743 2.75988 2.77344 2.81560
 2.83671 2.87245 2.88762 2.92086 2.94482 2.98757 3.08132 3.11320 3.12374 3.15953
 3.19899 3.30948 3.33958 3.38255 3.38702 3.40430 3.41058 3.42462 3.48265 3.48495
 3.48926 3.49093 3.63896 3.67727 3.70954 3.74750 3.79738 3.83098 3.91776 3.94541
 4.09116 4.14700 4.23949 4.35484 4.52767 4.61143 7.77288 8.29057 8.30116 9.00268
 9.32705 9.86019 13.08645 14.28406
 == 49-th k-point (-0.45924,0.45924,0.15308) occupation: 14==
 -65.00276 -65.00276 -4.62526 -4.62516 -3.03711 -3.03709 -3.03686 -3.03659 -3.03638 -3.03635
 -0.06269 0.04219 0.14585 0.19471 0.33317 0.44170 0.48945 0.49650 0.65417 0.67063
 0.73040 0.74680 0.75647 0.90153 0.93782 0.97010 0.99465 1.00784 1.01867 1.12576
 1.16621 1.21227 1.22968 1.32316 1.35892 1.37064 1.37262 1.44844 1.50048 1.56429
 1.60446 1.64004 1.67121 1.68541 1.71839 1.81801 1.90837 1.93056 1.93826 1.99386
 2.01836 2.04444 2.08183 2.13775 2.16601 2.20084 2.28395 2.31965 2.32990 2.37317
 2.45097 2.46175 2.50332 2.51924 2.61500 2.61701 2.66040 2.74329 2.79606 2.81443
 2.84020 2.90497 2.93393 2.95316 2.95993 3.02549 3.03607 3.05359 3.08484 3.13066
 3.15916 3.23574 3.31745 3.32622 3.33951 3.35024 3.35918 3.43835 3.49728 3.50671
 3.56626 3.65450 3.65760 3.71806 3.72144 3.79111 3.80185 3.84884 3.87859 3.98601
 4.07513 4.21120 4.25411 4.29573 4.55983 4.56956 8.10261 8.34325 8.40452 8.86074
 9.77809 9.94285 13.16277 14.19225
 == 50-th k-point (-0.30616,0.61232,-0.00000) occupation: 14==
 -65.00276 -65.00276 -4.62521 -4.62521 -3.03711 -3.03711 -3.03673 -3.03673 -3.03635 -3.03635
 -0.00410 -0.00410 0.13378 0.13378 0.43513 0.43513 0.46184 0.46184 0.67068 0.67068
 0.76029 0.76029 0.88542 0.88542 0.96330 0.96330 0.98284 0.98284 1.02056 1.02056
 1.15491 1.15491 1.29978 1.29978 1.30775 1.30775 1.38099 1.38099 1.51135 1.51135
 1.68384 1.68384 1.69788 1.69788 1.79625 1.79625 1.89081 1.89081 1.95331 1.95331
 2.04409 2.04409 2.17215 2.17215 2.17526 2.17526 2.33932 2.33932 2.38829 2.38829
 2.39112 2.39112 2.54060 2.54060 2.62640 2.62640 2.72493 2.72493 2.85470 2.85470
 2.88110 2.88110 2.88985 2.88985 2.98355 2.98355 3.04093 3.04093 3.11417 3.11417
 3.24260 3.24260 3.34318 3.34318 3.34510 3.34510 3.46579 3.46579 3.47483 3.47483
 3.55697 3.55697 3.56293 3.56293 3.67919 3.67919 3.77724 3.77724 4.00310 4.00310
 4.11310 4.11310 4.26371 4.26371 4.57766 4.57766 8.41207 8.41207 8.77614 8.77614
 9.53880 9.53880 13.73062 13.73062
 == 51-th k-point (-0.15308,0.76541,-0.15308) occupation: 14==
 -65.00276 -65.00276 -4.62526 -4.62516 -3.03711 -3.03709 -3.03686 -3.03659 -3.03638 -3.03635
 -0.06269 0.04219 0.14585 0.19471 0.33317 0.44170 0.48945 0.49650 0.65417 0.67063
 0.73040 0.74680 0.75647 0.90153 0.93782 0.97010 0.99465 1.00784 1.01867 1.12576
 1.16621 1.21227 1.22968 1.32316 1.35892 1.37064 1.37262 1.44844 1.50048 1.56429
 1.60446 1.64004 1.67121 1.68541 1.71839 1.81801 1.90837 1.93056 1.93826 1.99386
 2.01836 2.04444 2.08183 2.13775 2.16601 2.20084 2.28395 2.31965 2.32990 2.37317
 2.45097 2.46175 2.50332 2.51924 2.61500 2.61701 2.66040 2.74329 2.79606 2.81443
 2.84020 2.90497 2.93393 2.95316 2.95993 3.02549 3.03607 3.05359 3.08484 3.13066
 3.15916 3.23574 3.31745 3.32622 3.33951 3.35024 3.35918 3.43835 3.49728 3.50671
 3.56626 3.65450 3.65760 3.71806 3.72144 3.79111 3.80185 3.84884 3.87859 3.98601
 4.07513 4.21120 4.25411 4.29573 4.55982 4.56956 8.10261 8.34325 8.40452 8.86074
 9.77809 9.94285 13.16277 14.19225
 == 52-th k-point (-0.45924,0.15308,0.45924) occupation: 14==
 -65.00276 -65.00276 -4.62526 -4.62516 -3.03711 -3.03709 -3.03686 -3.03659 -3.03638 -3.03635
 -0.06269 0.04219 0.14585 0.19471 0.33317 0.44170 0.48945 0.49650 0.65417 0.67063
 0.73040 0.74680 0.75647 0.90153 0.93782 0.97010 0.99465 1.00784 1.01867 1.12576
 1.16621 1.21227 1.22968 1.32316 1.35892 1.37064 1.37262 1.44844 1.50048 1.56429
 1.60446 1.64004 1.67121 1.68541 1.71839 1.81801 1.90837 1.93056 1.93826 1.99386
 2.01836 2.04444 2.08183 2.13775 2.16601 2.20084 2.28395 2.31965 2.32990 2.37317
 2.45097 2.46175 2.50332 2.51924 2.61500 2.61701 2.66040 2.74329 2.79606 2.81443
 2.84020 2.90497 2.93393 2.95316 2.95993 3.02549 3.03607 3.05359 3.08484 3.13066
 3.15916 3.23574 3.31745 3.32622 3.33951 3.35024 3.35918 3.43835 3.49728 3.50671
 3.56626 3.65450 3.65760 3.71806 3.72144 3.79111 3.80185 3.84884 3.87859 3.98601
 4.07513 4.21120 4.25411 4.29573 4.55983 4.56956 8.10261 8.34325 8.40452 8.86074
 9.77809 9.94285 13.16277 14.19225
 == 53-th k-point (-0.30616,0.30616,0.30616) occupation: 14==
 -65.00276 -65.00275 -4.62529 -4.62514 -3.03708 -3.03708 -3.03696 -3.03650 -3.03638 -3.03638
 -0.07677 0.01986 0.23203 0.23203 0.33480 0.40070 0.40070 0.55934 0.67360 0.67360
 0.69470 0.69616 0.69616 0.75535 1.00160 1.01601 1.09170 1.09170 1.09553 1.09553
 1.24020 1.26116 1.26116 1.30850 1.30850 1.35807 1.41739 1.49142 1.49142 1.50188
 1.50188 1.58521 1.62574 1.65446 1.88052 1.88052 1.88785 1.90890 1.90890 1.92093
 2.12837 2.12837 2.19290 2.19675 2.19675 2.24637 2.26919 2.26919 2.33237 2.33237
 2.46251 2.46251 2.55636 2.55636 2.60251 2.68086 2.74867 2.77519 2.77519 2.79595
 2.81706 2.81706 2.82904 2.92121 2.95129 2.96313 3.09678 3.09678 3.09845 3.09845
 3.19319 3.19319 3.21108 3.21108 3.31621 3.46586 3.46586 3.55330 3.55596 3.55596
 3.56549 3.66172 3.66172 3.69117 3.73204 3.76172 3.93252 3.93252 4.00030 4.00030
 4.12941 4.14668 4.14668 4.33657 4.43870 4.43870 8.25490 8.25490 8.33161 9.36453
 9.36453 10.00607 11.95234 14.72323
 == 54-th k-point (-0.15308,0.45924,0.15308) occupation: 14==
 -65.00276 -65.00276 -4.62526 -4.62516 -3.03711 -3.03709 -3.03686 -3.03659 -3.03638 -3.03635
 -0.06269 0.04219 0.14585 0.19471 0.33317 0.44170 0.48945 0.49650 0.65417 0.67063
 0.73040 0.74680 0.75647 0.90153 0.93782 0.97010 0.99465 1.00784 1.01867 1.12576
 1.16621 1.21227 1.22968 1.32316 1.35892 1.37064 1.37262 1.44844 1.50048 1.56429
 1.60446 1.64004 1.67121 1.68541 1.71839 1.81801 1.90837 1.93056 1.93826 1.99386
 2.01836 2.04444 2.08183 2.13775 2.16601 2.20084 2.28395 2.31965 2.32990 2.37317
 2.45097 2.46175 2.50332 2.51924 2.61500 2.61701 2.66040 2.74329 2.79606 2.81443
 2.84020 2.90497 2.93393 2.95316 2.95993 3.02549 3.03607 3.05359 3.08484 3.13066
 3.15916 3.23574 3.31745 3.32622 3.33951 3.35024 3.35918 3.43835 3.49728 3.50671
 3.56626 3.65450 3.65760 3.71806 3.72144 3.79111 3.80185 3.84884 3.87859 3.98601
 4.07513 4.21120 4.25411 4.29573 4.55983 4.56956 8.10261 8.34325 8.40452 8.86074
 9.77809 9.94285 13.16277 14.19225
 == 55-th k-point (0.00000,0.61232,0.00000) occupation: 14==
 -65.00276 -65.00276 -4.62521 -4.62521 -3.03711 -3.03711 -3.03672 -3.03672 -3.03636 -3.03636
 -0.01028 -0.01028 0.17071 0.17071 0.30327 0.30327 0.64917 0.64917 0.68999 0.68999
 0.74517 0.74518 0.75666 0.75666 0.97893 0.97893 1.00362 1.00363 1.02369 1.02369
 1.07070 1.07070 1.23946 1.23946 1.37553 1.37553 1.54546 1.54546 1.58300 1.58300
 1.63190 1.63190 1.69224 1.69224 1.74582 1.74582 1.82957 1.82957 1.85712 1.85712
 2.08336 2.08336 2.09859 2.09859 2.18845 2.18845 2.30636 2.30636 2.43216 2.43216
 2.45625 2.45625 2.50465 2.50465 2.52436 2.52436 2.73838 2.73838 2.77877 2.77877
 2.86971 2.86971 2.98973 2.98973 3.01031 3.01031 3.02776 3.02776 3.08285 3.08285
 3.23522 3.23522 3.25184 3.25184 3.26442 3.26442 3.46088 3.46088 3.49366 3.49366
 3.55919 3.55919 3.64421 3.64421 3.73036 3.73036 3.93868 3.93868 4.07052 4.07052
 4.29309 4.29309 4.35601 4.35601 4.61941 4.61941 8.31951 8.31951 8.62733 8.62733
 9.67548 9.67548 13.41316 13.41316
 == 56-th k-point (-0.30616,0.00000,0.61232) occupation: 14==
 -65.00276 -65.00276 -4.62521 -4.62521 -3.03711 -3.03711 -3.03673 -3.03673 -3.03635 -3.03635
 -0.00410 -0.00410 0.13378 0.13378 0.43513 0.43513 0.46184 0.46184 0.67068 0.67068
 0.76029 0.76029 0.88542 0.88542 0.96330 0.96330 0.98284 0.98284 1.02056 1.02056
 1.15491 1.15491 1.29978 1.29978 1.30775 1.30775 1.38099 1.38099 1.51135 1.51135
 1.68384 1.68384 1.69788 1.69788 1.79625 1.79625 1.89081 1.89081 1.95331 1.95331
 2.04409 2.04409 2.17215 2.17215 2.17526 2.17526 2.33932 2.33932 2.38829 2.38829
 2.39112 2.39112 2.54060 2.54060 2.62640 2.62640 2.72493 2.72493 2.85470 2.85470
 2.88110 2.88110 2.88985 2.88985 2.98355 2.98355 3.04093 3.04093 3.11417 3.11417
 3.24260 3.24260 3.34318 3.34318 3.34510 3.34510 3.46579 3.46579 3.47483 3.47483
 3.55697 3.55697 3.56293 3.56293 3.67919 3.67919 3.77724 3.77724 4.00310 4.00310
 4.11310 4.11310 4.26371 4.26371 4.57766 4.57766 8.41207 8.41207 8.77614 8.77614
 9.53880 9.53880 13.73062 13.73062
 == 57-th k-point (-0.15308,0.15308,0.45924) occupation: 14==
 -65.00276 -65.00276 -4.62526 -4.62516 -3.03711 -3.03709 -3.03686 -3.03659 -3.03638 -3.03635
 -0.06269 0.04219 0.14585 0.19471 0.33317 0.44170 0.48945 0.49650 0.65417 0.67063
 0.73040 0.74680 0.75647 0.90153 0.93782 0.97010 0.99465 1.00784 1.01867 1.12576
 1.16621 1.21227 1.22968 1.32316 1.35892 1.37064 1.37262 1.44844 1.50048 1.56429
 1.60446 1.64004 1.67121 1.68541 1.71839 1.81801 1.90837 1.93056 1.93826 1.99386
 2.01836 2.04444 2.08183 2.13775 2.16601 2.20084 2.28395 2.31965 2.32990 2.37317
 2.45097 2.46175 2.50332 2.51924 2.61500 2.61701 2.66040 2.74329 2.79606 2.81443
 2.84020 2.90497 2.93393 2.95316 2.95993 3.02549 3.03607 3.05359 3.08484 3.13066
 3.15916 3.23574 3.31745 3.32622 3.33951 3.35024 3.35918 3.43835 3.49728 3.50671
 3.56626 3.65450 3.65760 3.71806 3.72144 3.79111 3.80185 3.84884 3.87859 3.98601
 4.07513 4.21120 4.25411 4.29573 4.55983 4.56956 8.10261 8.34325 8.40452 8.86074
 9.77809 9.94285 13.16277 14.19225
 == 58-th k-point (0.00000,0.30616,0.30616) occupation: 14==
 -65.00276 -65.00276 -4.62529 -4.62514 -3.03710 -3.03708 -3.03691 -3.03655 -3.03638 -3.03635
 -0.08755 0.07551 0.13762 0.22727 0.36765 0.45367 0.46753 0.50331 0.51804 0.63297
 0.74338 0.76797 0.77289 0.89267 0.91795 0.92571 0.97310 1.07247 1.09003 1.16990
 1.20404 1.22070 1.27450 1.28462 1.32071 1.36385 1.41325 1.45526 1.56549 1.56964
 1.63750 1.66868 1.69232 1.69479 1.71592 1.72112 1.76746 1.88255 1.94780 1.98526
 2.01077 2.04134 2.11380 2.15928 2.21347 2.21904 2.26418 2.35178 2.36116 2.44846
 2.47261 2.49421 2.49770 2.52542 2.57559 2.58095 2.59743 2.75988 2.77344 2.81560
 2.83671 2.87245 2.88762 2.92086 2.94482 2.98757 3.08132 3.11320 3.12374 3.15953
 3.19899 3.30948 3.33958 3.38255 3.38702 3.40430 3.41058 3.42462 3.48265 3.48495
 3.48926 3.49093 3.63896 3.67727 3.70954 3.74750 3.79738 3.83098 3.91776 3.94541
 4.09116 4.14700 4.23949 4.35484 4.52767 4.61143 7.77288 8.29057 8.30116 9.00268
 9.32705 9.86019 13.08645 14.28406
 == 59-th k-point (0.15308,0.45924,0.15308) occupation: 14==
 -65.00276 -65.00276 -4.62526 -4.62516 -3.03711 -3.03709 -3.03686 -3.03659 -3.03638 -3.03635
 -0.06269 0.04219 0.14585 0.19471 0.33317 0.44170 0.48945 0.49650 0.65417 0.67063
 0.73040 0.74680 0.75647 0.90153 0.93782 0.97010 0.99465 1.00784 1.01867 1.12576
 1.16621 1.21227 1.22968 1.32316 1.35892 1.37064 1.37262 1.44844 1.50048 1.56429
 1.60446 1.64004 1.67121 1.68541 1.71839 1.81801 1.90837 1.93056 1.93826 1.99386
 2.01836 2.04444 2.08183 2.13775 2.16601 2.20084 2.28395 2.31965 2.32990 2.37317
 2.45097 2.46175 2.50332 2.51924 2.61500 2.61701 2.66040 2.74329 2.79606 2.81443
 2.84020 2.90497 2.93393 2.95316 2.95993 3.02549 3.03607 3.05359 3.08484 3.13066
 3.15916 3.23574 3.31745 3.32622 3.33951 3.35024 3.35918 3.43835 3.49728 3.50671
 3.56626 3.65450 3.65760 3.71806 3.72144 3.79111 3.80185 3.84884 3.87859 3.98601
 4.07513 4.21120 4.25411 4.29573 4.55982 4.56956 8.10261 8.34325 8.40452 8.86074
 9.77809 9.94285 13.16277 14.19225
 == 60-th k-point (-0.15308,-0.15308,0.76541) occupation: 14==
 -65.00276 -65.00276 -4.62526 -4.62516 -3.03711 -3.03709 -3.03686 -3.03659 -3.03638 -3.03635
 -0.06269 0.04219 0.14585 0.19471 0.33317 0.44170 0.48945 0.49650 0.65417 0.67063
 0.73040 0.74680 0.75647 0.90153 0.93782 0.97010 0.99465 1.00784 1.01867 1.12576
 1.16621 1.21227 1.22968 1.32316 1.35892 1.37064 1.37262 1.44844 1.50048 1.56429
 1.60446 1.64004 1.67121 1.68541 1.71839 1.81801 1.90837 1.93056 1.93826 1.99386
 2.01836 2.04444 2.08183 2.13775 2.16601 2.20084 2.28395 2.31965 2.32990 2.37317
 2.45097 2.46175 2.50332 2.51924 2.61500 2.61701 2.66040 2.74329 2.79606 2.81443
 2.84020 2.90497 2.93393 2.95316 2.95993 3.02549 3.03607 3.05359 3.08484 3.13066
 3.15916 3.23574 3.31745 3.32622 3.33951 3.35024 3.35918 3.43835 3.49728 3.50671
 3.56626 3.65450 3.65760 3.71806 3.72144 3.79111 3.80185 3.84884 3.87859 3.98601
 4.07513 4.21120 4.25411 4.29573 4.55982 4.56956 8.10261 8.34325 8.40452 8.86074
 9.77809 9.94285 13.16277 14.19225
 == 61-th k-point (0.00000,0.00000,0.61232) occupation: 14==
 -65.00276 -65.00276 -4.62521 -4.62521 -3.03711 -3.03711 -3.03672 -3.03672 -3.03636 -3.03636
 -0.01028 -0.01028 0.17071 0.17071 0.30327 0.30327 0.64917 0.64917 0.68999 0.68999
 0.74517 0.74518 0.75666 0.75666 0.97893 0.97893 1.00362 1.00363 1.02369 1.02369
 1.07070 1.07070 1.23946 1.23946 1.37553 1.37553 1.54546 1.54546 1.58300 1.58300
 1.63190 1.63190 1.69224 1.69224 1.74582 1.74582 1.82957 1.82957 1.85712 1.85712
 2.08336 2.08336 2.09859 2.09859 2.18845 2.18845 2.30636 2.30636 2.43216 2.43216
 2.45625 2.45625 2.50465 2.50465 2.52436 2.52436 2.73838 2.73838 2.77877 2.77877
 2.86971 2.86971 2.98973 2.98973 3.01031 3.01031 3.02776 3.02776 3.08285 3.08285
 3.23522 3.23522 3.25184 3.25184 3.26442 3.26442 3.46088 3.46088 3.49366 3.49366
 3.55919 3.55919 3.64421 3.64421 3.73036 3.73036 3.93868 3.93868 4.07052 4.07052
 4.29309 4.29309 4.35601 4.35601 4.61941 4.61941 8.31951 8.31951 8.62733 8.62733
 9.67548 9.67548 13.41316 13.41316
 == 62-th k-point (0.15308,0.15308,0.45924) occupation: 14==
 -65.00276 -65.00276 -4.62526 -4.62516 -3.03711 -3.03709 -3.03686 -3.03659 -3.03638 -3.03635
 -0.06269 0.04219 0.14585 0.19471 0.33317 0.44170 0.48945 0.49650 0.65417 0.67063
 0.73040 0.74680 0.75647 0.90153 0.93782 0.97010 0.99465 1.00784 1.01867 1.12576
 1.16621 1.21227 1.22968 1.32316 1.35892 1.37064 1.37262 1.44844 1.50048 1.56429
 1.60446 1.64004 1.67121 1.68541 1.71839 1.81801 1.90837 1.93056 1.93826 1.99386
 2.01836 2.04444 2.08183 2.13775 2.16601 2.20084 2.28395 2.31965 2.32990 2.37317
 2.45097 2.46175 2.50332 2.51924 2.61500 2.61701 2.66040 2.74329 2.79606 2.81443
 2.84020 2.90497 2.93393 2.95316 2.95993 3.02549 3.03607 3.05359 3.08484 3.13066
 3.15916 3.23574 3.31745 3.32622 3.33951 3.35024 3.35918 3.43835 3.49728 3.50671
 3.56626 3.65450 3.65760 3.71806 3.72144 3.79111 3.80185 3.84884 3.87859 3.98601
 4.07513 4.21120 4.25411 4.29573 4.55982 4.56956 8.10261 8.34325 8.40452 8.86074
 9.77809 9.94285 13.16277 14.19225
 == 63-th k-point (0.30616,0.30616,0.30616) occupation: 14==
 -65.00276 -65.00275 -4.62529 -4.62514 -3.03708 -3.03708 -3.03696 -3.03650 -3.03638 -3.03638
 -0.07677 0.01986 0.23203 0.23203 0.33480 0.40070 0.40070 0.55934 0.67360 0.67360
 0.69471 0.69616 0.69616 0.75535 1.00160 1.01601 1.09170 1.09170 1.09553 1.09553
 1.24020 1.26116 1.26116 1.30850 1.30850 1.35807 1.41739 1.49142 1.49142 1.50188
 1.50188 1.58521 1.62574 1.65446 1.88052 1.88052 1.88785 1.90890 1.90890 1.92093
 2.12837 2.12837 2.19290 2.19675 2.19675 2.24637 2.26919 2.26919 2.33237 2.33237
 2.46251 2.46251 2.55636 2.55636 2.60251 2.68086 2.74867 2.77519 2.77519 2.79595
 2.81706 2.81706 2.82904 2.92121 2.95129 2.96313 3.09678 3.09678 3.09845 3.09845
 3.19319 3.19319 3.21108 3.21108 3.31621 3.46586 3.46586 3.55330 3.55596 3.55596
 3.56549 3.66172 3.66172 3.69117 3.73204 3.76172 3.93252 3.93252 4.00030 4.00030
 4.12941 4.14668 4.14668 4.33657 4.43870 4.43870 8.25490 8.25490 8.33161 9.36453
 9.36453 10.00607 11.95234 14.72323
 ---------------------------------------------------------------------------
 VBM is at 21-th k-point with 7.53358 eV
 CBM is at 31-th k-point with 8.25228 eV
 Band gap is 0.71871 eV


           Ground-State Mulliken Net Atomic Charges

      Atom                 Charge (a.u.)          Spin (a.u.)
   --------------------------------------------------------
      1 Si              (-0.000000,-0.000000)    (0.000000,0.000000)
      2 Si                (0.000000,0.000000)    (0.000000,0.000000)
   --------------------------------------------------------
  Sum of atomic charges =      (-0.000000,0.000000)
  Sum of spin   charges =       (0.000000,0.000000)



 Total job time:  67.06 s.
 Tue Sep  9 03:02:24 2025


        *************************************************************
        *                                                           *
        *  Thank you very much for using QCPBC. Have a nice day.    *
        *                                                           *
        *************************************************************

Running job 1 of 1
