                  Welcome to Q-Chem
           with Periodic Boundary Condition
     A Quantum Leap Into The Future Of Chemistry

 Adam Rettig, Xintian Feng, Meng-Fu Chen, Hieu Dinh, Stephen Quiton,
 Anton Ni, Paul J. Robinson, Jinghong Zhang, Joonho Lee

Contributors to earlier versions of Q-Chem not listed above:
 Evgeny Epifanovsky, Leo Cunha, Jerome F. Gonthier, Kuan-Yu Liu
 Input file: /n/netscratch/joonholee_lab/Lab/hieudinh//mgo_slab_ghost.scratch20250814221542/mgo_slab_ghost.0
 Scratch folder: /n/netscratch/joonholee_lab/Lab/hieudinh//mgo_slab_ghost.scratch20250814221542
 Auxillary files located at: /n/holylabs/LABS/joonholee_lab/Lab/qchem_base/qcaux
 Q-Chem begins on Thu Aug 14 22:16:13 2025

 -------------------------------------------------------------
 User input:
 -------------------------------------------------------------
 $lattice
 3
 11.9443159104 0.0000000000 0.0000000000
 0.0000000000 11.9443159104 0.0000000000
 0.0000000000 0.0000000000 21.6602222298
 $end
 
 $unitcell
 ABSOLUTE
 0 1
 C   1.4930428341    1.4930432491    5.5284856213
 @Mg   0.0000000000    0.0000000000    1.0000000000
 @Mg   8.9582369328    5.9721579552    1.0000000000
 @Mg   2.9860789776    5.9721579552    1.0000000000
 @Mg   2.9860789776    8.9582369328    1.0000000000
 @Mg   5.9721579552    0.0000000000    1.0000000000
 @Mg   5.9721579552    2.9860789776    1.0000000000
 @Mg   5.9721579552    5.9721579552    1.0000000000
 @Mg   8.9582369328    2.9860789776    1.0000000000
 @Mg   5.9721579552    8.9582369328    1.0000000000
 @Mg   8.9582369328    0.0000000000    1.0000000000
 @Mg   2.9860789776    2.9860789776    1.0000000000
 @Mg   8.9582369328    8.9582369328    1.0000000000
 @Mg   0.0000000000    8.9582369328    1.0000000000
 @Mg   0.0000000000    2.9860789776    1.0000000000
 @Mg   0.0000000000    5.9721579552    1.0000000000
 @Mg   2.9860789776    0.0000000000    1.0000000000
 @Mg   1.4930343349    1.4930374153    3.1511187175
 @Mg   7.4651977897   10.4517004415    3.1114386205
 @Mg   7.4651969790    7.4651968898    3.1112699448
 @Mg   1.4930327857    4.4811832720    3.1056362779
 @Mg   7.4651966404    4.4786922443    3.1114383107
 @Mg   4.4811624032    1.4930368520    3.1056318890
 @Mg  10.4496839597    4.4807048989    3.1095898700
 @Mg   1.4930399629    7.4651963524    3.1116080311
 @Mg  10.4496925734   10.4496968378    3.1095846708
 @Mg   4.4807088948   10.4496904623    3.1095885984
 @Mg   4.4786954624    7.4651978298    3.1114386978
 @Mg   1.4930424686   10.4492084126    3.1056383774
 @Mg  10.4516980458    7.4651970662    3.1114406695
 @Mg   4.4807013212    4.4807040921    3.1095854125
 @Mg   7.4651986133    1.4930389816    3.1116104730
 @Mg  10.4492249714    1.4930441995    3.1056280117
 @O  10.4512759328    1.4930390000    1.0000000000
 @O   4.4791179776   10.4512759328    1.0000000000
 @O   7.4651969552    1.4930390000    1.0000000000
 @O   4.4791179776    4.4791179776    1.0000000000
 @O  10.4512759328    4.4791179776    1.0000000000
 @O   7.4651969552    7.4651969552    1.0000000000
 @O   7.4651969552   10.4512759328    1.0000000000
 @O   7.4651969552    4.4791179776    1.0000000000
 @O   4.4791179776    7.4651969552    1.0000000000
 @O   1.4930390000   10.4512759328    1.0000000000
 @O  10.4512759328    7.4651969552    1.0000000000
 @O   1.4930390000    4.4791179776    1.0000000000
 @O   1.4930390000    7.4651969552    1.0000000000
 @O   1.4930390000    1.4930390000    1.0000000000
 @O   4.4791179776    1.4930390000    1.0000000000
 @O  10.4512759328   10.4512759328    1.0000000000
 @O   8.9580238897    5.9723685818    3.1594644112
 @O   8.9570961456    2.9857717252    3.1600752389
 @O   8.9570985067    0.0003085838    3.1600738373
 @O   2.9857747423    8.9570945142    3.1600737733
 @O   5.9723690642    5.9723696033    3.1594610725
 @O   5.9732960489    2.9857717265    3.1600713997
 @O   5.9732976356    0.0003062885    3.1600713024
 @O   2.9857711850    5.9732998192    3.1600740469
 @O   2.9950544541    2.9950623702    3.1548459568
 @O   2.9950599166   -0.0089867212    3.1548507549
 @O   0.0003060319    8.9570959750    3.1600745678
 @O   0.0003045736    5.9732996331    3.1600758940
 @O  -0.0089879078    2.9950667318    3.1548429191
 @O  -0.0089805134   -0.0089799254    3.1548482730
 @O   5.9723706153    8.9580251994    3.1594625961
 @O   8.9580250454    8.9580263132    3.1594616543
 O   1.4930495812    1.4930407413    6.6690780399
 $end
 
 $rem
 jobtype = sp
 method = pbe
 dft_d = 6
 scf_convergence = 5
 scf_guess = autosad
 scf_algorithm = gdm
 basis = def2-svp
 aux_basis = rij-def2-svp
 input_bohr = false
 is_basis_uctr = false
 
 mp_mesh = [1,1,1]
 
 integral_direct true
 bvk_cgto true
 symmetry false
 rsdf_print_level 1
 
 thresh 14
 mem_total 500000
 threads 32
 
 MAX_SCF_CYCLES 500
 madelung = false
 omega 0.5
 do_rij_bigmem true
 automate_g true
 print_level 10
 grid_type_xc 1
 
 thresh_1e2c_sp 1e-14
 thresh_2e3c_bra_ket_sep 1e-10
 thresh_g 1e-10
 $end
 
 $rem_autosad
 incfock 1000
 scf_algorithm gdm_ls
 $end
 
 -------------------------------------------------------------
 Running PBC job

 Requested Exchange Correlation Functionals: 
  DFT Exchange:  1.00000 pbe_x
  DFT Correlation:  1.00000 pbe_c
 using 32 threads for computing.
 ---------------------------------------------------------------
      Coordinates of Atoms in Central Unit Cell (Angstroms)
    I     Atom         X            Y            Z
 ---------------------------------------------------------------
    1       C      1.493043     1.493043     5.528486
    2     @Mg      0.000000     0.000000     1.000000
    3     @Mg      8.958237     5.972158     1.000000
    4     @Mg      2.986079     5.972158     1.000000
    5     @Mg      2.986079     8.958237     1.000000
    6     @Mg      5.972158     0.000000     1.000000
    7     @Mg      5.972158     2.986079     1.000000
    8     @Mg      5.972158     5.972158     1.000000
    9     @Mg      8.958237     2.986079     1.000000
   10     @Mg      5.972158     8.958237     1.000000
   11     @Mg      8.958237     0.000000     1.000000
   12     @Mg      2.986079     2.986079     1.000000
   13     @Mg      8.958237     8.958237     1.000000
   14     @Mg      0.000000     8.958237     1.000000
   15     @Mg      0.000000     2.986079     1.000000
   16     @Mg      0.000000     5.972158     1.000000
   17     @Mg      2.986079     0.000000     1.000000
   18     @Mg      1.493034     1.493037     3.151119
   19     @Mg      7.465198    10.451700     3.111439
   20     @Mg      7.465197     7.465197     3.111270
   21     @Mg      1.493033     4.481183     3.105636
   22     @Mg      7.465197     4.478692     3.111438
   23     @Mg      4.481162     1.493037     3.105632
   24     @Mg     10.449684     4.480705     3.109590
   25     @Mg      1.493040     7.465196     3.111608
   26     @Mg     10.449693    10.449697     3.109585
   27     @Mg      4.480709    10.449690     3.109589
   28     @Mg      4.478695     7.465198     3.111439
   29     @Mg      1.493042    10.449208     3.105638
   30     @Mg     10.451698     7.465197     3.111441
   31     @Mg      4.480701     4.480704     3.109585
   32     @Mg      7.465199     1.493039     3.111610
   33     @Mg     10.449225     1.493044     3.105628
   34      @O     10.451276     1.493039     1.000000
   35      @O      4.479118    10.451276     1.000000
   36      @O      7.465197     1.493039     1.000000
   37      @O      4.479118     4.479118     1.000000
   38      @O     10.451276     4.479118     1.000000
   39      @O      7.465197     7.465197     1.000000
   40      @O      7.465197    10.451276     1.000000
   41      @O      7.465197     4.479118     1.000000
   42      @O      4.479118     7.465197     1.000000
   43      @O      1.493039    10.451276     1.000000
   44      @O     10.451276     7.465197     1.000000
   45      @O      1.493039     4.479118     1.000000
   46      @O      1.493039     7.465197     1.000000
   47      @O      1.493039     1.493039     1.000000
   48      @O      4.479118     1.493039     1.000000
   49      @O     10.451276    10.451276     1.000000
   50      @O      8.958024     5.972369     3.159464
   51      @O      8.957096     2.985772     3.160075
   52      @O      8.957099     0.000309     3.160074
   53      @O      2.985775     8.957095     3.160074
   54      @O      5.972369     5.972370     3.159461
   55      @O      5.973296     2.985772     3.160071
   56      @O      5.973298     0.000306     3.160071
   57      @O      2.985771     5.973300     3.160074
   58      @O      2.995054     2.995062     3.154846
   59      @O      2.995060    -0.008987     3.154851
   60      @O      0.000306     8.957096     3.160075
   61      @O      0.000305     5.973300     3.160076
   62      @O     -0.008988     2.995067     3.154843
   63      @O     -0.008981    -0.008980     3.154848
   64      @O      5.972371     8.958025     3.159463
   65      @O      8.958025     8.958026     3.159462
   66       O      1.493050     1.493041     6.669078
 ---------------------------------------------------------------
 --------------------------------------------------
              Lattice Vectors (Angstroms)
              X            Y            Z
 --------------------------------------------------
   X      11.944316     0.000000     0.000000
   Y       0.000000    11.944316     0.000000
   Z       0.000000     0.000000    21.660222
 --------------------------------------------------
 --------------------------------------------------
       Reciprocal Lattice Vectors (Angstroms^-1)
              X            Y            Z
 --------------------------------------------------
   X       0.526040     0.000000     0.000000
   Y       0.000000     0.526040     0.000000
   Z       0.000000     0.000000     0.290079
 --------------------------------------------------

 Single point calculation requested

 Hamiltonian contributions:
 List of terms in Hamiltonian: kpts_nn, kpts_kinetic, kpts_vnuc_df, kpts_xc, kpts_rij_bigmem, kpts_dftd3

 K-Points calculation started.

 Basis set information about using solid harmonic (1) or Cartesian (0):
  c : D(1) 
  o : D(1) 
  mg : D(1) 

 Basis set information about using solid harmonic (1) or Cartesian (0):
  c : D(1) D(1) D(1) F(1) G(1) 
  o : D(1) D(1) D(1) F(1) G(1) 
  mg : D(1) D(1) D(1) D(1) F(1) G(1) 

 There are 1052 basis functions in the central unit cell.
 Print atomic basis of atoms in the central unit cell:
 -------------------------------------------------------------
66 984 984 460

  2.82144204878407e+00  2.82144283302041e+00  1.04473237081885e+01
  0.00000000000000e+00  0.00000000000000e+00  1.88972612462577e+00
  1.69286143624996e+01  1.12857429083331e+01  1.88972612462577e+00
  5.64287145416653e+00  1.12857429083331e+01  1.88972612462577e+00
  5.64287145416653e+00  1.69286143624996e+01  1.88972612462577e+00
  1.12857429083331e+01  0.00000000000000e+00  1.88972612462577e+00
  1.12857429083331e+01  5.64287145416653e+00  1.88972612462577e+00
  1.12857429083331e+01  1.12857429083331e+01  1.88972612462577e+00
  1.69286143624996e+01  5.64287145416653e+00  1.88972612462577e+00
  1.12857429083331e+01  1.69286143624996e+01  1.88972612462577e+00
  1.69286143624996e+01  0.00000000000000e+00  1.88972612462577e+00
  5.64287145416653e+00  5.64287145416653e+00  1.88972612462577e+00
  1.69286143624996e+01  1.69286143624996e+01  1.88972612462577e+00
  0.00000000000000e+00  1.69286143624996e+01  1.88972612462577e+00
  0.00000000000000e+00  5.64287145416653e+00  1.88972612462577e+00
  0.00000000000000e+00  1.12857429083331e+01  1.88972612462577e+00
  5.64287145416653e+00  0.00000000000000e+00  1.88972612462577e+00
  2.82142598762379e+00  2.82143180873615e+00  5.95475136225700e+00
  1.41071792886946e+01  1.97508513710652e+01  5.87976684632842e+00
  1.41071777566937e+01  1.41071775881301e+01  5.87944809545154e+00
  2.82142306006008e+00  8.46820909833439e+00  5.86880200793317e+00
  1.41071771168324e+01  8.46350173821253e+00  5.87976626089126e+00
  8.46816966201784e+00  2.82143074425342e+00  5.86879371411418e+00
  1.97470407727280e+01  8.46730510419000e+00  5.87627321421065e+00
  2.82143662300242e+00  1.41071765725913e+01  5.88008698596503e+00
  1.97470570502619e+01  1.97470651088100e+01  5.87626338914658e+00
  8.46731265534662e+00  1.97470530608611e+01  5.87627081123491e+00
  8.46350781954017e+00  1.41071793644727e+01  5.87976699240425e+00
  2.82144135808917e+00  1.97461421189496e+01  5.86880597541317e+00
  1.97508468438484e+01  1.41071779214778e+01  5.87977071837725e+00
  8.46729834331684e+00  8.46730357955896e+00  5.87626479075645e+00
  1.41071808450731e+01  2.82143476861417e+00  5.88009160048725e+00
  1.97461734105465e+01  2.82144462901612e+00  5.86878638707908e+00
  1.97500491658847e+01  2.82143480338514e+00  1.88972612462577e+00
  8.46430625755166e+00  1.97500491658847e+01  1.88972612462577e+00
  1.41071777117182e+01  2.82143480338514e+00  1.88972612462577e+00
  8.46430625755166e+00  8.46430625755166e+00  1.88972612462577e+00
  1.97500491658847e+01  8.46430625755166e+00  1.88972612462577e+00
  1.41071777117182e+01  1.41071777117182e+01  1.88972612462577e+00
  1.41071777117182e+01  1.97500491658847e+01  1.88972612462577e+00
  1.41071777117182e+01  8.46430625755166e+00  1.88972612462577e+00
  8.46430625755166e+00  1.41071777117182e+01  1.88972612462577e+00
  2.82143480338514e+00  1.97500491658847e+01  1.88972612462577e+00
  1.97500491658847e+01  1.41071777117182e+01  1.88972612462577e+00
  2.82143480338514e+00  8.46430625755166e+00  1.88972612462577e+00
  2.82143480338514e+00  1.41071777117182e+01  1.88972612462577e+00
  2.82143480338514e+00  2.82143480338514e+00  1.88972612462577e+00
  8.46430625755166e+00  2.82143480338514e+00  1.88972612462577e+00
  1.97500491658847e+01  1.97500491658847e+01  1.88972612462577e+00
  1.69282117693878e+01  1.12861409349216e+01  5.97052243767002e+00
  1.69264585871251e+01  5.64229083127940e+00  5.97167673473235e+00
  1.69264630489575e+01  5.83138868496294e-04  5.97167408609222e+00
  5.64229653277209e+00  1.69264555042259e+01  5.97167396514974e+00
  1.12861418465255e+01  1.12861428652769e+01  5.97051612844141e+00
  1.12878935937302e+01  5.64229083373604e+00  5.97166947969581e+00
  1.12878965921587e+01  5.78801380122440e-04  5.97166929582546e+00
  5.64228981044934e+00  1.12879007185646e+01  5.97167448217881e+00
  5.65983264658954e+00  5.65984760585052e+00  5.96179482373494e+00
  5.65984296921850e+00 -1.69824418263683e-02  5.96180389082986e+00
  5.78316476398861e-04  1.69264582647378e+01  5.97167546653715e+00
  5.75560688791319e-04  1.12879003668866e+01  5.97167797269194e+00
 -1.69846841753877e-02  5.65985584807999e+00  5.96178908331389e+00
 -1.69707107845318e-02 -1.69695996255705e-02  5.96179920071859e+00
  1.12861447776797e+01  1.69282142443622e+01  5.97051900762813e+00
  1.69282139533443e+01  1.69282163491391e+01  5.97051722788406e+00
  2.82145479895521e+00  2.82143809396524e+00  1.26027309991671e+01

  1.23840169380000e+03
  1.86290049920000e+02
  4.22511763460000e+01
  1.16765579320000e+01
  3.59305064820000e+00
  4.02451473630000e-01
  1.30901826680000e-01
  9.46809706210000e+00
  2.01035451420000e+00
  5.47710047070000e-01
  1.52686137950000e-01
  8.00000000000000e-01
  4.95383391960000e+03
  7.45180441540000e+02
  1.69216049720000e+02
  4.73006720190000e+01
  1.44613369730000e+01
  2.47681747890000e+01
  2.49409453490000e+00
  8.78075845330000e-01
  8.72127824970000e-02
  3.35992937800000e-02
  9.80530104940000e+01
  2.25869322770000e+01
  6.83915098420000e+00
  2.23328438180000e+00
  7.16065993870000e-01
  1.89147961950000e-01
  5.37687551870000e-02
  1.01000000000000e-01
  4.95383391960000e+03
  7.45180441540000e+02
  1.69216049720000e+02
  4.73006720190000e+01
  1.44613369730000e+01
  2.47681747890000e+01
  2.49409453490000e+00
  8.78075845330000e-01
  8.72127824970000e-02
  3.35992937800000e-02
  9.80530104940000e+01
  2.25869322770000e+01
  6.83915098420000e+00
  2.23328438180000e+00
  7.16065993870000e-01
  1.89147961950000e-01
  5.37687551870000e-02
  1.01000000000000e-01
  4.95383391960000e+03
  7.45180441540000e+02
  1.69216049720000e+02
  4.73006720190000e+01
  1.44613369730000e+01
  2.47681747890000e+01
  2.49409453490000e+00
  8.78075845330000e-01
  8.72127824970000e-02
  3.35992937800000e-02
  9.80530104940000e+01
  2.25869322770000e+01
  6.83915098420000e+00
  2.23328438180000e+00
  7.16065993870000e-01
  1.89147961950000e-01
  5.37687551870000e-02
  1.01000000000000e-01
  4.95383391960000e+03
  7.45180441540000e+02
  1.69216049720000e+02
  4.73006720190000e+01
  1.44613369730000e+01
  2.47681747890000e+01
  2.49409453490000e+00
  8.78075845330000e-01
  8.72127824970000e-02
  3.35992937800000e-02
  9.80530104940000e+01
  2.25869322770000e+01
  6.83915098420000e+00
  2.23328438180000e+00
  7.16065993870000e-01
  1.89147961950000e-01
  5.37687551870000e-02
  1.01000000000000e-01
  4.95383391960000e+03
  7.45180441540000e+02
  1.69216049720000e+02
  4.73006720190000e+01
  1.44613369730000e+01
  2.47681747890000e+01
  2.49409453490000e+00
  8.78075845330000e-01
  8.72127824970000e-02
  3.35992937800000e-02
  9.80530104940000e+01
  2.25869322770000e+01
  6.83915098420000e+00
  2.23328438180000e+00
  7.16065993870000e-01
  1.89147961950000e-01
  5.37687551870000e-02
  1.01000000000000e-01
  4.95383391960000e+03
  7.45180441540000e+02
  1.69216049720000e+02
  4.73006720190000e+01
  1.44613369730000e+01
  2.47681747890000e+01
  2.49409453490000e+00
  8.78075845330000e-01
  8.72127824970000e-02
  3.35992937800000e-02
  9.80530104940000e+01
  2.25869322770000e+01
  6.83915098420000e+00
  2.23328438180000e+00
  7.16065993870000e-01
  1.89147961950000e-01
  5.37687551870000e-02
  1.01000000000000e-01
  4.95383391960000e+03
  7.45180441540000e+02
  1.69216049720000e+02
  4.73006720190000e+01
  1.44613369730000e+01
  2.47681747890000e+01
  2.49409453490000e+00
  8.78075845330000e-01
  8.72127824970000e-02
  3.35992937800000e-02
  9.80530104940000e+01
  2.25869322770000e+01
  6.83915098420000e+00
  2.23328438180000e+00
  7.16065993870000e-01
  1.89147961950000e-01
  5.37687551870000e-02
  1.01000000000000e-01
  4.95383391960000e+03
  7.45180441540000e+02
  1.69216049720000e+02
  4.73006720190000e+01
  1.44613369730000e+01
  2.47681747890000e+01
  2.49409453490000e+00
  8.78075845330000e-01
  8.72127824970000e-02
  3.35992937800000e-02
  9.80530104940000e+01
  2.25869322770000e+01
  6.83915098420000e+00
  2.23328438180000e+00
  7.16065993870000e-01
  1.89147961950000e-01
  5.37687551870000e-02
  1.01000000000000e-01
  4.95383391960000e+03
  7.45180441540000e+02
  1.69216049720000e+02
  4.73006720190000e+01
  1.44613369730000e+01
  2.47681747890000e+01
  2.49409453490000e+00
  8.78075845330000e-01
  8.72127824970000e-02
  3.35992937800000e-02
  9.80530104940000e+01
  2.25869322770000e+01
  6.83915098420000e+00
  2.23328438180000e+00
  7.16065993870000e-01
  1.89147961950000e-01
  5.37687551870000e-02
  1.01000000000000e-01
  4.95383391960000e+03
  7.45180441540000e+02
  1.69216049720000e+02
  4.73006720190000e+01
  1.44613369730000e+01
  2.47681747890000e+01
  2.49409453490000e+00
  8.78075845330000e-01
  8.72127824970000e-02
  3.35992937800000e-02
  9.80530104940000e+01
  2.25869322770000e+01
  6.83915098420000e+00
  2.23328438180000e+00
  7.16065993870000e-01
  1.89147961950000e-01
  5.37687551870000e-02
  1.01000000000000e-01
  4.95383391960000e+03
  7.45180441540000e+02
  1.69216049720000e+02
  4.73006720190000e+01
  1.44613369730000e+01
  2.47681747890000e+01
  2.49409453490000e+00
  8.78075845330000e-01
  8.72127824970000e-02
  3.35992937800000e-02
  9.80530104940000e+01
  2.25869322770000e+01
  6.83915098420000e+00
  2.23328438180000e+00
  7.16065993870000e-01
  1.89147961950000e-01
  5.37687551870000e-02
  1.01000000000000e-01
  4.95383391960000e+03
  7.45180441540000e+02
  1.69216049720000e+02
  4.73006720190000e+01
  1.44613369730000e+01
  2.47681747890000e+01
  2.49409453490000e+00
  8.78075845330000e-01
  8.72127824970000e-02
  3.35992937800000e-02
  9.80530104940000e+01
  2.25869322770000e+01
  6.83915098420000e+00
  2.23328438180000e+00
  7.16065993870000e-01
  1.89147961950000e-01
  5.37687551870000e-02
  1.01000000000000e-01
  4.95383391960000e+03
  7.45180441540000e+02
  1.69216049720000e+02
  4.73006720190000e+01
  1.44613369730000e+01
  2.47681747890000e+01
  2.49409453490000e+00
  8.78075845330000e-01
  8.72127824970000e-02
  3.35992937800000e-02
  9.80530104940000e+01
  2.25869322770000e+01
  6.83915098420000e+00
  2.23328438180000e+00
  7.16065993870000e-01
  1.89147961950000e-01
  5.37687551870000e-02
  1.01000000000000e-01
  4.95383391960000e+03
  7.45180441540000e+02
  1.69216049720000e+02
  4.73006720190000e+01
  1.44613369730000e+01
  2.47681747890000e+01
  2.49409453490000e+00
  8.78075845330000e-01
  8.72127824970000e-02
  3.35992937800000e-02
  9.80530104940000e+01
  2.25869322770000e+01
  6.83915098420000e+00
  2.23328438180000e+00
  7.16065993870000e-01
  1.89147961950000e-01
  5.37687551870000e-02
  1.01000000000000e-01
  4.95383391960000e+03
  7.45180441540000e+02
  1.69216049720000e+02
  4.73006720190000e+01
  1.44613369730000e+01
  2.47681747890000e+01
  2.49409453490000e+00
  8.78075845330000e-01
  8.72127824970000e-02
  3.35992937800000e-02
  9.80530104940000e+01
  2.25869322770000e+01
  6.83915098420000e+00
  2.23328438180000e+00
  7.16065993870000e-01
  1.89147961950000e-01
  5.37687551870000e-02
  1.01000000000000e-01
  4.95383391960000e+03
  7.45180441540000e+02
  1.69216049720000e+02
  4.73006720190000e+01
  1.44613369730000e+01
  2.47681747890000e+01
  2.49409453490000e+00
  8.78075845330000e-01
  8.72127824970000e-02
  3.35992937800000e-02
  9.80530104940000e+01
  2.25869322770000e+01
  6.83915098420000e+00
  2.23328438180000e+00
  7.16065993870000e-01
  1.89147961950000e-01
  5.37687551870000e-02
  1.01000000000000e-01
  4.95383391960000e+03
  7.45180441540000e+02
  1.69216049720000e+02
  4.73006720190000e+01
  1.44613369730000e+01
  2.47681747890000e+01
  2.49409453490000e+00
  8.78075845330000e-01
  8.72127824970000e-02
  3.35992937800000e-02
  9.80530104940000e+01
  2.25869322770000e+01
  6.83915098420000e+00
  2.23328438180000e+00
  7.16065993870000e-01
  1.89147961950000e-01
  5.37687551870000e-02
  1.01000000000000e-01
  4.95383391960000e+03
  7.45180441540000e+02
  1.69216049720000e+02
  4.73006720190000e+01
  1.44613369730000e+01
  2.47681747890000e+01
  2.49409453490000e+00
  8.78075845330000e-01
  8.72127824970000e-02
  3.35992937800000e-02
  9.80530104940000e+01
  2.25869322770000e+01
  6.83915098420000e+00
  2.23328438180000e+00
  7.16065993870000e-01
  1.89147961950000e-01
  5.37687551870000e-02
  1.01000000000000e-01
  4.95383391960000e+03
  7.45180441540000e+02
  1.69216049720000e+02
  4.73006720190000e+01
  1.44613369730000e+01
  2.47681747890000e+01
  2.49409453490000e+00
  8.78075845330000e-01
  8.72127824970000e-02
  3.35992937800000e-02
  9.80530104940000e+01
  2.25869322770000e+01
  6.83915098420000e+00
  2.23328438180000e+00
  7.16065993870000e-01
  1.89147961950000e-01
  5.37687551870000e-02
  1.01000000000000e-01
  4.95383391960000e+03
  7.45180441540000e+02
  1.69216049720000e+02
  4.73006720190000e+01
  1.44613369730000e+01
  2.47681747890000e+01
  2.49409453490000e+00
  8.78075845330000e-01
  8.72127824970000e-02
  3.35992937800000e-02
  9.80530104940000e+01
  2.25869322770000e+01
  6.83915098420000e+00
  2.23328438180000e+00
  7.16065993870000e-01
  1.89147961950000e-01
  5.37687551870000e-02
  1.01000000000000e-01
  4.95383391960000e+03
  7.45180441540000e+02
  1.69216049720000e+02
  4.73006720190000e+01
  1.44613369730000e+01
  2.47681747890000e+01
  2.49409453490000e+00
  8.78075845330000e-01
  8.72127824970000e-02
  3.35992937800000e-02
  9.80530104940000e+01
  2.25869322770000e+01
  6.83915098420000e+00
  2.23328438180000e+00
  7.16065993870000e-01
  1.89147961950000e-01
  5.37687551870000e-02
  1.01000000000000e-01
  4.95383391960000e+03
  7.45180441540000e+02
  1.69216049720000e+02
  4.73006720190000e+01
  1.44613369730000e+01
  2.47681747890000e+01
  2.49409453490000e+00
  8.78075845330000e-01
  8.72127824970000e-02
  3.35992937800000e-02
  9.80530104940000e+01
  2.25869322770000e+01
  6.83915098420000e+00
  2.23328438180000e+00
  7.16065993870000e-01
  1.89147961950000e-01
  5.37687551870000e-02
  1.01000000000000e-01
  4.95383391960000e+03
  7.45180441540000e+02
  1.69216049720000e+02
  4.73006720190000e+01
  1.44613369730000e+01
  2.47681747890000e+01
  2.49409453490000e+00
  8.78075845330000e-01
  8.72127824970000e-02
  3.35992937800000e-02
  9.80530104940000e+01
  2.25869322770000e+01
  6.83915098420000e+00
  2.23328438180000e+00
  7.16065993870000e-01
  1.89147961950000e-01
  5.37687551870000e-02
  1.01000000000000e-01
  4.95383391960000e+03
  7.45180441540000e+02
  1.69216049720000e+02
  4.73006720190000e+01
  1.44613369730000e+01
  2.47681747890000e+01
  2.49409453490000e+00
  8.78075845330000e-01
  8.72127824970000e-02
  3.35992937800000e-02
  9.80530104940000e+01
  2.25869322770000e+01
  6.83915098420000e+00
  2.23328438180000e+00
  7.16065993870000e-01
  1.89147961950000e-01
  5.37687551870000e-02
  1.01000000000000e-01
  4.95383391960000e+03
  7.45180441540000e+02
  1.69216049720000e+02
  4.73006720190000e+01
  1.44613369730000e+01
  2.47681747890000e+01
  2.49409453490000e+00
  8.78075845330000e-01
  8.72127824970000e-02
  3.35992937800000e-02
  9.80530104940000e+01
  2.25869322770000e+01
  6.83915098420000e+00
  2.23328438180000e+00
  7.16065993870000e-01
  1.89147961950000e-01
  5.37687551870000e-02
  1.01000000000000e-01
  4.95383391960000e+03
  7.45180441540000e+02
  1.69216049720000e+02
  4.73006720190000e+01
  1.44613369730000e+01
  2.47681747890000e+01
  2.49409453490000e+00
  8.78075845330000e-01
  8.72127824970000e-02
  3.35992937800000e-02
  9.80530104940000e+01
  2.25869322770000e+01
  6.83915098420000e+00
  2.23328438180000e+00
  7.16065993870000e-01
  1.89147961950000e-01
  5.37687551870000e-02
  1.01000000000000e-01
  4.95383391960000e+03
  7.45180441540000e+02
  1.69216049720000e+02
  4.73006720190000e+01
  1.44613369730000e+01
  2.47681747890000e+01
  2.49409453490000e+00
  8.78075845330000e-01
  8.72127824970000e-02
  3.35992937800000e-02
  9.80530104940000e+01
  2.25869322770000e+01
  6.83915098420000e+00
  2.23328438180000e+00
  7.16065993870000e-01
  1.89147961950000e-01
  5.37687551870000e-02
  1.01000000000000e-01
  4.95383391960000e+03
  7.45180441540000e+02
  1.69216049720000e+02
  4.73006720190000e+01
  1.44613369730000e+01
  2.47681747890000e+01
  2.49409453490000e+00
  8.78075845330000e-01
  8.72127824970000e-02
  3.35992937800000e-02
  9.80530104940000e+01
  2.25869322770000e+01
  6.83915098420000e+00
  2.23328438180000e+00
  7.16065993870000e-01
  1.89147961950000e-01
  5.37687551870000e-02
  1.01000000000000e-01
  4.95383391960000e+03
  7.45180441540000e+02
  1.69216049720000e+02
  4.73006720190000e+01
  1.44613369730000e+01
  2.47681747890000e+01
  2.49409453490000e+00
  8.78075845330000e-01
  8.72127824970000e-02
  3.35992937800000e-02
  9.80530104940000e+01
  2.25869322770000e+01
  6.83915098420000e+00
  2.23328438180000e+00
  7.16065993870000e-01
  1.89147961950000e-01
  5.37687551870000e-02
  1.01000000000000e-01
  4.95383391960000e+03
  7.45180441540000e+02
  1.69216049720000e+02
  4.73006720190000e+01
  1.44613369730000e+01
  2.47681747890000e+01
  2.49409453490000e+00
  8.78075845330000e-01
  8.72127824970000e-02
  3.35992937800000e-02
  9.80530104940000e+01
  2.25869322770000e+01
  6.83915098420000e+00
  2.23328438180000e+00
  7.16065993870000e-01
  1.89147961950000e-01
  5.37687551870000e-02
  1.01000000000000e-01
  4.95383391960000e+03
  7.45180441540000e+02
  1.69216049720000e+02
  4.73006720190000e+01
  1.44613369730000e+01
  2.47681747890000e+01
  2.49409453490000e+00
  8.78075845330000e-01
  8.72127824970000e-02
  3.35992937800000e-02
  9.80530104940000e+01
  2.25869322770000e+01
  6.83915098420000e+00
  2.23328438180000e+00
  7.16065993870000e-01
  1.89147961950000e-01
  5.37687551870000e-02
  1.01000000000000e-01
  4.95383391960000e+03
  7.45180441540000e+02
  1.69216049720000e+02
  4.73006720190000e+01
  1.44613369730000e+01
  2.47681747890000e+01
  2.49409453490000e+00
  8.78075845330000e-01
  8.72127824970000e-02
  3.35992937800000e-02
  9.80530104940000e+01
  2.25869322770000e+01
  6.83915098420000e+00
  2.23328438180000e+00
  7.16065993870000e-01
  1.89147961950000e-01
  5.37687551870000e-02
  1.01000000000000e-01
  2.26617677850000e+03
  3.40870101910000e+02
  7.73631351670000e+01
  2.14796449400000e+01
  6.65894331240000e+00
  8.09759756680000e-01
  2.55307722340000e-01
  1.77215043170000e+01
  3.86355054400000e+00
  1.04809208830000e+00
  2.76415444110000e-01
  1.20000000000000e+00
  2.26617677850000e+03
  3.40870101910000e+02
  7.73631351670000e+01
  2.14796449400000e+01
  6.65894331240000e+00
  8.09759756680000e-01
  2.55307722340000e-01
  1.77215043170000e+01
  3.86355054400000e+00
  1.04809208830000e+00
  2.76415444110000e-01
  1.20000000000000e+00
  2.26617677850000e+03
  3.40870101910000e+02
  7.73631351670000e+01
  2.14796449400000e+01
  6.65894331240000e+00
  8.09759756680000e-01
  2.55307722340000e-01
  1.77215043170000e+01
  3.86355054400000e+00
  1.04809208830000e+00
  2.76415444110000e-01
  1.20000000000000e+00
  2.26617677850000e+03
  3.40870101910000e+02
  7.73631351670000e+01
  2.14796449400000e+01
  6.65894331240000e+00
  8.09759756680000e-01
  2.55307722340000e-01
  1.77215043170000e+01
  3.86355054400000e+00
  1.04809208830000e+00
  2.76415444110000e-01
  1.20000000000000e+00
  2.26617677850000e+03
  3.40870101910000e+02
  7.73631351670000e+01
  2.14796449400000e+01
  6.65894331240000e+00
  8.09759756680000e-01
  2.55307722340000e-01
  1.77215043170000e+01
  3.86355054400000e+00
  1.04809208830000e+00
  2.76415444110000e-01
  1.20000000000000e+00
  2.26617677850000e+03
  3.40870101910000e+02
  7.73631351670000e+01
  2.14796449400000e+01
  6.65894331240000e+00
  8.09759756680000e-01
  2.55307722340000e-01
  1.77215043170000e+01
  3.86355054400000e+00
  1.04809208830000e+00
  2.76415444110000e-01
  1.20000000000000e+00
  2.26617677850000e+03
  3.40870101910000e+02
  7.73631351670000e+01
  2.14796449400000e+01
  6.65894331240000e+00
  8.09759756680000e-01
  2.55307722340000e-01
  1.77215043170000e+01
  3.86355054400000e+00
  1.04809208830000e+00
  2.76415444110000e-01
  1.20000000000000e+00
  2.26617677850000e+03
  3.40870101910000e+02
  7.73631351670000e+01
  2.14796449400000e+01
  6.65894331240000e+00
  8.09759756680000e-01
  2.55307722340000e-01
  1.77215043170000e+01
  3.86355054400000e+00
  1.04809208830000e+00
  2.76415444110000e-01
  1.20000000000000e+00
  2.26617677850000e+03
  3.40870101910000e+02
  7.73631351670000e+01
  2.14796449400000e+01
  6.65894331240000e+00
  8.09759756680000e-01
  2.55307722340000e-01
  1.77215043170000e+01
  3.86355054400000e+00
  1.04809208830000e+00
  2.76415444110000e-01
  1.20000000000000e+00
  2.26617677850000e+03
  3.40870101910000e+02
  7.73631351670000e+01
  2.14796449400000e+01
  6.65894331240000e+00
  8.09759756680000e-01
  2.55307722340000e-01
  1.77215043170000e+01
  3.86355054400000e+00
  1.04809208830000e+00
  2.76415444110000e-01
  1.20000000000000e+00
  2.26617677850000e+03
  3.40870101910000e+02
  7.73631351670000e+01
  2.14796449400000e+01
  6.65894331240000e+00
  8.09759756680000e-01
  2.55307722340000e-01
  1.77215043170000e+01
  3.86355054400000e+00
  1.04809208830000e+00
  2.76415444110000e-01
  1.20000000000000e+00
  2.26617677850000e+03
  3.40870101910000e+02
  7.73631351670000e+01
  2.14796449400000e+01
  6.65894331240000e+00
  8.09759756680000e-01
  2.55307722340000e-01
  1.77215043170000e+01
  3.86355054400000e+00
  1.04809208830000e+00
  2.76415444110000e-01
  1.20000000000000e+00
  2.26617677850000e+03
  3.40870101910000e+02
  7.73631351670000e+01
  2.14796449400000e+01
  6.65894331240000e+00
  8.09759756680000e-01
  2.55307722340000e-01
  1.77215043170000e+01
  3.86355054400000e+00
  1.04809208830000e+00
  2.76415444110000e-01
  1.20000000000000e+00
  2.26617677850000e+03
  3.40870101910000e+02
  7.73631351670000e+01
  2.14796449400000e+01
  6.65894331240000e+00
  8.09759756680000e-01
  2.55307722340000e-01
  1.77215043170000e+01
  3.86355054400000e+00
  1.04809208830000e+00
  2.76415444110000e-01
  1.20000000000000e+00
  2.26617677850000e+03
  3.40870101910000e+02
  7.73631351670000e+01
  2.14796449400000e+01
  6.65894331240000e+00
  8.09759756680000e-01
  2.55307722340000e-01
  1.77215043170000e+01
  3.86355054400000e+00
  1.04809208830000e+00
  2.76415444110000e-01
  1.20000000000000e+00
  2.26617677850000e+03
  3.40870101910000e+02
  7.73631351670000e+01
  2.14796449400000e+01
  6.65894331240000e+00
  8.09759756680000e-01
  2.55307722340000e-01
  1.77215043170000e+01
  3.86355054400000e+00
  1.04809208830000e+00
  2.76415444110000e-01
  1.20000000000000e+00
  2.26617677850000e+03
  3.40870101910000e+02
  7.73631351670000e+01
  2.14796449400000e+01
  6.65894331240000e+00
  8.09759756680000e-01
  2.55307722340000e-01
  1.77215043170000e+01
  3.86355054400000e+00
  1.04809208830000e+00
  2.76415444110000e-01
  1.20000000000000e+00
  2.26617677850000e+03
  3.40870101910000e+02
  7.73631351670000e+01
  2.14796449400000e+01
  6.65894331240000e+00
  8.09759756680000e-01
  2.55307722340000e-01
  1.77215043170000e+01
  3.86355054400000e+00
  1.04809208830000e+00
  2.76415444110000e-01
  1.20000000000000e+00
  2.26617677850000e+03
  3.40870101910000e+02
  7.73631351670000e+01
  2.14796449400000e+01
  6.65894331240000e+00
  8.09759756680000e-01
  2.55307722340000e-01
  1.77215043170000e+01
  3.86355054400000e+00
  1.04809208830000e+00
  2.76415444110000e-01
  1.20000000000000e+00
  2.26617677850000e+03
  3.40870101910000e+02
  7.73631351670000e+01
  2.14796449400000e+01
  6.65894331240000e+00
  8.09759756680000e-01
  2.55307722340000e-01
  1.77215043170000e+01
  3.86355054400000e+00
  1.04809208830000e+00
  2.76415444110000e-01
  1.20000000000000e+00
  2.26617677850000e+03
  3.40870101910000e+02
  7.73631351670000e+01
  2.14796449400000e+01
  6.65894331240000e+00
  8.09759756680000e-01
  2.55307722340000e-01
  1.77215043170000e+01
  3.86355054400000e+00
  1.04809208830000e+00
  2.76415444110000e-01
  1.20000000000000e+00
  2.26617677850000e+03
  3.40870101910000e+02
  7.73631351670000e+01
  2.14796449400000e+01
  6.65894331240000e+00
  8.09759756680000e-01
  2.55307722340000e-01
  1.77215043170000e+01
  3.86355054400000e+00
  1.04809208830000e+00
  2.76415444110000e-01
  1.20000000000000e+00
  2.26617677850000e+03
  3.40870101910000e+02
  7.73631351670000e+01
  2.14796449400000e+01
  6.65894331240000e+00
  8.09759756680000e-01
  2.55307722340000e-01
  1.77215043170000e+01
  3.86355054400000e+00
  1.04809208830000e+00
  2.76415444110000e-01
  1.20000000000000e+00
  2.26617677850000e+03
  3.40870101910000e+02
  7.73631351670000e+01
  2.14796449400000e+01
  6.65894331240000e+00
  8.09759756680000e-01
  2.55307722340000e-01
  1.77215043170000e+01
  3.86355054400000e+00
  1.04809208830000e+00
  2.76415444110000e-01
  1.20000000000000e+00
  2.26617677850000e+03
  3.40870101910000e+02
  7.73631351670000e+01
  2.14796449400000e+01
  6.65894331240000e+00
  8.09759756680000e-01
  2.55307722340000e-01
  1.77215043170000e+01
  3.86355054400000e+00
  1.04809208830000e+00
  2.76415444110000e-01
  1.20000000000000e+00
  2.26617677850000e+03
  3.40870101910000e+02
  7.73631351670000e+01
  2.14796449400000e+01
  6.65894331240000e+00
  8.09759756680000e-01
  2.55307722340000e-01
  1.77215043170000e+01
  3.86355054400000e+00
  1.04809208830000e+00
  2.76415444110000e-01
  1.20000000000000e+00
  2.26617677850000e+03
  3.40870101910000e+02
  7.73631351670000e+01
  2.14796449400000e+01
  6.65894331240000e+00
  8.09759756680000e-01
  2.55307722340000e-01
  1.77215043170000e+01
  3.86355054400000e+00
  1.04809208830000e+00
  2.76415444110000e-01
  1.20000000000000e+00
  2.26617677850000e+03
  3.40870101910000e+02
  7.73631351670000e+01
  2.14796449400000e+01
  6.65894331240000e+00
  8.09759756680000e-01
  2.55307722340000e-01
  1.77215043170000e+01
  3.86355054400000e+00
  1.04809208830000e+00
  2.76415444110000e-01
  1.20000000000000e+00
  2.26617677850000e+03
  3.40870101910000e+02
  7.73631351670000e+01
  2.14796449400000e+01
  6.65894331240000e+00
  8.09759756680000e-01
  2.55307722340000e-01
  1.77215043170000e+01
  3.86355054400000e+00
  1.04809208830000e+00
  2.76415444110000e-01
  1.20000000000000e+00
  2.26617677850000e+03
  3.40870101910000e+02
  7.73631351670000e+01
  2.14796449400000e+01
  6.65894331240000e+00
  8.09759756680000e-01
  2.55307722340000e-01
  1.77215043170000e+01
  3.86355054400000e+00
  1.04809208830000e+00
  2.76415444110000e-01
  1.20000000000000e+00
  2.26617677850000e+03
  3.40870101910000e+02
  7.73631351670000e+01
  2.14796449400000e+01
  6.65894331240000e+00
  8.09759756680000e-01
  2.55307722340000e-01
  1.77215043170000e+01
  3.86355054400000e+00
  1.04809208830000e+00
  2.76415444110000e-01
  1.20000000000000e+00
  2.26617677850000e+03
  3.40870101910000e+02
  7.73631351670000e+01
  2.14796449400000e+01
  6.65894331240000e+00
  8.09759756680000e-01
  2.55307722340000e-01
  1.77215043170000e+01
  3.86355054400000e+00
  1.04809208830000e+00
  2.76415444110000e-01
  1.20000000000000e+00
  2.26617677850000e+03
  3.40870101910000e+02
  7.73631351670000e+01
  2.14796449400000e+01
  6.65894331240000e+00
  8.09759756680000e-01
  2.55307722340000e-01
  1.77215043170000e+01
  3.86355054400000e+00
  1.04809208830000e+00
  2.76415444110000e-01
  1.20000000000000e+00

  8.20895669410958e-01
  1.47664498991869e+00
  2.15261240541564e+00
  2.10817224619016e+00
  8.29099993344712e-01
  3.60118335141541e-01
  1.55102705167793e-01
  1.34676451509605e+00
  1.06780709307136e+00
  5.10873571389181e-01
  1.36047197699030e-01
  1.11382492806461e+00
 -2.41155510664628e+00
 -4.34754533639739e+00
 -6.38989945415292e+00
 -6.20123558645160e+00
 -2.23041848741379e+00
  6.89329009754862e-01
 -7.72831038735158e-01
 -3.42198452089929e-01
  1.14378711358884e-01
  5.59316593651876e-02
 -6.36871403187631e+00
 -6.70263696777189e+00
 -4.85366376571172e+00
 -1.94328465977958e+00
 -2.95794352475873e-01
  1.77804263529115e-01
  3.69064748804282e-02
  2.97832344563160e-02
 -2.41155510664628e+00
 -4.34754533639739e+00
 -6.38989945415292e+00
 -6.20123558645160e+00
 -2.23041848741379e+00
  6.89329009754862e-01
 -7.72831038735158e-01
 -3.42198452089929e-01
  1.14378711358884e-01
  5.59316593651876e-02
 -6.36871403187631e+00
 -6.70263696777189e+00
 -4.85366376571172e+00
 -1.94328465977958e+00
 -2.95794352475873e-01
  1.77804263529115e-01
  3.69064748804282e-02
  2.97832344563160e-02
 -2.41155510664628e+00
 -4.34754533639739e+00
 -6.38989945415292e+00
 -6.20123558645160e+00
 -2.23041848741379e+00
  6.89329009754862e-01
 -7.72831038735158e-01
 -3.42198452089929e-01
  1.14378711358884e-01
  5.59316593651876e-02
 -6.36871403187631e+00
 -6.70263696777189e+00
 -4.85366376571172e+00
 -1.94328465977958e+00
 -2.95794352475873e-01
  1.77804263529115e-01
  3.69064748804282e-02
  2.97832344563160e-02
 -2.41155510664628e+00
 -4.34754533639739e+00
 -6.38989945415292e+00
 -6.20123558645160e+00
 -2.23041848741379e+00
  6.89329009754862e-01
 -7.72831038735158e-01
 -3.42198452089929e-01
  1.14378711358884e-01
  5.59316593651876e-02
 -6.36871403187631e+00
 -6.70263696777189e+00
 -4.85366376571172e+00
 -1.94328465977958e+00
 -2.95794352475873e-01
  1.77804263529115e-01
  3.69064748804282e-02
  2.97832344563160e-02
 -2.41155510664628e+00
 -4.34754533639739e+00
 -6.38989945415292e+00
 -6.20123558645160e+00
 -2.23041848741379e+00
  6.89329009754862e-01
 -7.72831038735158e-01
 -3.42198452089929e-01
  1.14378711358884e-01
  5.59316593651876e-02
 -6.36871403187631e+00
 -6.70263696777189e+00
 -4.85366376571172e+00
 -1.94328465977958e+00
 -2.95794352475873e-01
  1.77804263529115e-01
  3.69064748804282e-02
  2.97832344563160e-02
 -2.41155510664628e+00
 -4.34754533639739e+00
 -6.38989945415292e+00
 -6.20123558645160e+00
 -2.23041848741379e+00
  6.89329009754862e-01
 -7.72831038735158e-01
 -3.42198452089929e-01
  1.14378711358884e-01
  5.59316593651876e-02
 -6.36871403187631e+00
 -6.70263696777189e+00
 -4.85366376571172e+00
 -1.94328465977958e+00
 -2.95794352475873e-01
  1.77804263529115e-01
  3.69064748804282e-02
  2.97832344563160e-02
 -2.41155510664628e+00
 -4.34754533639739e+00
 -6.38989945415292e+00
 -6.20123558645160e+00
 -2.23041848741379e+00
  6.89329009754862e-01
 -7.72831038735158e-01
 -3.42198452089929e-01
  1.14378711358884e-01
  5.59316593651876e-02
 -6.36871403187631e+00
 -6.70263696777189e+00
 -4.85366376571172e+00
 -1.94328465977958e+00
 -2.95794352475873e-01
  1.77804263529115e-01
  3.69064748804282e-02
  2.97832344563160e-02
 -2.41155510664628e+00
 -4.34754533639739e+00
 -6.38989945415292e+00
 -6.20123558645160e+00
 -2.23041848741379e+00
  6.89329009754862e-01
 -7.72831038735158e-01
 -3.42198452089929e-01
  1.14378711358884e-01
  5.59316593651876e-02
 -6.36871403187631e+00
 -6.70263696777189e+00
 -4.85366376571172e+00
 -1.94328465977958e+00
 -2.95794352475873e-01
  1.77804263529115e-01
  3.69064748804282e-02
  2.97832344563160e-02
 -2.41155510664628e+00
 -4.34754533639739e+00
 -6.38989945415292e+00
 -6.20123558645160e+00
 -2.23041848741379e+00
  6.89329009754862e-01
 -7.72831038735158e-01
 -3.42198452089929e-01
  1.14378711358884e-01
  5.59316593651876e-02
 -6.36871403187631e+00
 -6.70263696777189e+00
 -4.85366376571172e+00
 -1.94328465977958e+00
 -2.95794352475873e-01
  1.77804263529115e-01
  3.69064748804282e-02
  2.97832344563160e-02
 -2.41155510664628e+00
 -4.34754533639739e+00
 -6.38989945415292e+00
 -6.20123558645160e+00
 -2.23041848741379e+00
  6.89329009754862e-01
 -7.72831038735158e-01
 -3.42198452089929e-01
  1.14378711358884e-01
  5.59316593651876e-02
 -6.36871403187631e+00
 -6.70263696777189e+00
 -4.85366376571172e+00
 -1.94328465977958e+00
 -2.95794352475873e-01
  1.77804263529115e-01
  3.69064748804282e-02
  2.97832344563160e-02
 -2.41155510664628e+00
 -4.34754533639739e+00
 -6.38989945415292e+00
 -6.20123558645160e+00
 -2.23041848741379e+00
  6.89329009754862e-01
 -7.72831038735158e-01
 -3.42198452089929e-01
  1.14378711358884e-01
  5.59316593651876e-02
 -6.36871403187631e+00
 -6.70263696777189e+00
 -4.85366376571172e+00
 -1.94328465977958e+00
 -2.95794352475873e-01
  1.77804263529115e-01
  3.69064748804282e-02
  2.97832344563160e-02
 -2.41155510664628e+00
 -4.34754533639739e+00
 -6.38989945415292e+00
 -6.20123558645160e+00
 -2.23041848741379e+00
  6.89329009754862e-01
 -7.72831038735158e-01
 -3.42198452089929e-01
  1.14378711358884e-01
  5.59316593651876e-02
 -6.36871403187631e+00
 -6.70263696777189e+00
 -4.85366376571172e+00
 -1.94328465977958e+00
 -2.95794352475873e-01
  1.77804263529115e-01
  3.69064748804282e-02
  2.97832344563160e-02
 -2.41155510664628e+00
 -4.34754533639739e+00
 -6.38989945415292e+00
 -6.20123558645160e+00
 -2.23041848741379e+00
  6.89329009754862e-01
 -7.72831038735158e-01
 -3.42198452089929e-01
  1.14378711358884e-01
  5.59316593651876e-02
 -6.36871403187631e+00
 -6.70263696777189e+00
 -4.85366376571172e+00
 -1.94328465977958e+00
 -2.95794352475873e-01
  1.77804263529115e-01
  3.69064748804282e-02
  2.97832344563160e-02
 -2.41155510664628e+00
 -4.34754533639739e+00
 -6.38989945415292e+00
 -6.20123558645160e+00
 -2.23041848741379e+00
  6.89329009754862e-01
 -7.72831038735158e-01
 -3.42198452089929e-01
  1.14378711358884e-01
  5.59316593651876e-02
 -6.36871403187631e+00
 -6.70263696777189e+00
 -4.85366376571172e+00
 -1.94328465977958e+00
 -2.95794352475873e-01
  1.77804263529115e-01
  3.69064748804282e-02
  2.97832344563160e-02
 -2.41155510664628e+00
 -4.34754533639739e+00
 -6.38989945415292e+00
 -6.20123558645160e+00
 -2.23041848741379e+00
  6.89329009754862e-01
 -7.72831038735158e-01
 -3.42198452089929e-01
  1.14378711358884e-01
  5.59316593651876e-02
 -6.36871403187631e+00
 -6.70263696777189e+00
 -4.85366376571172e+00
 -1.94328465977958e+00
 -2.95794352475873e-01
  1.77804263529115e-01
  3.69064748804282e-02
  2.97832344563160e-02
 -2.41155510664628e+00
 -4.34754533639739e+00
 -6.38989945415292e+00
 -6.20123558645160e+00
 -2.23041848741379e+00
  6.89329009754862e-01
 -7.72831038735158e-01
 -3.42198452089929e-01
  1.14378711358884e-01
  5.59316593651876e-02
 -6.36871403187631e+00
 -6.70263696777189e+00
 -4.85366376571172e+00
 -1.94328465977958e+00
 -2.95794352475873e-01
  1.77804263529115e-01
  3.69064748804282e-02
  2.97832344563160e-02
 -2.41155510664628e+00
 -4.34754533639739e+00
 -6.38989945415292e+00
 -6.20123558645160e+00
 -2.23041848741379e+00
  6.89329009754862e-01
 -7.72831038735158e-01
 -3.42198452089929e-01
  1.14378711358884e-01
  5.59316593651876e-02
 -6.36871403187631e+00
 -6.70263696777189e+00
 -4.85366376571172e+00
 -1.94328465977958e+00
 -2.95794352475873e-01
  1.77804263529115e-01
  3.69064748804282e-02
  2.97832344563160e-02
 -2.41155510664628e+00
 -4.34754533639739e+00
 -6.38989945415292e+00
 -6.20123558645160e+00
 -2.23041848741379e+00
  6.89329009754862e-01
 -7.72831038735158e-01
 -3.42198452089929e-01
  1.14378711358884e-01
  5.59316593651876e-02
 -6.36871403187631e+00
 -6.70263696777189e+00
 -4.85366376571172e+00
 -1.94328465977958e+00
 -2.95794352475873e-01
  1.77804263529115e-01
  3.69064748804282e-02
  2.97832344563160e-02
 -2.41155510664628e+00
 -4.34754533639739e+00
 -6.38989945415292e+00
 -6.20123558645160e+00
 -2.23041848741379e+00
  6.89329009754862e-01
 -7.72831038735158e-01
 -3.42198452089929e-01
  1.14378711358884e-01
  5.59316593651876e-02
 -6.36871403187631e+00
 -6.70263696777189e+00
 -4.85366376571172e+00
 -1.94328465977958e+00
 -2.95794352475873e-01
  1.77804263529115e-01
  3.69064748804282e-02
  2.97832344563160e-02
 -2.41155510664628e+00
 -4.34754533639739e+00
 -6.38989945415292e+00
 -6.20123558645160e+00
 -2.23041848741379e+00
  6.89329009754862e-01
 -7.72831038735158e-01
 -3.42198452089929e-01
  1.14378711358884e-01
  5.59316593651876e-02
 -6.36871403187631e+00
 -6.70263696777189e+00
 -4.85366376571172e+00
 -1.94328465977958e+00
 -2.95794352475873e-01
  1.77804263529115e-01
  3.69064748804282e-02
  2.97832344563160e-02
 -2.41155510664628e+00
 -4.34754533639739e+00
 -6.38989945415292e+00
 -6.20123558645160e+00
 -2.23041848741379e+00
  6.89329009754862e-01
 -7.72831038735158e-01
 -3.42198452089929e-01
  1.14378711358884e-01
  5.59316593651876e-02
 -6.36871403187631e+00
 -6.70263696777189e+00
 -4.85366376571172e+00
 -1.94328465977958e+00
 -2.95794352475873e-01
  1.77804263529115e-01
  3.69064748804282e-02
  2.97832344563160e-02
 -2.41155510664628e+00
 -4.34754533639739e+00
 -6.38989945415292e+00
 -6.20123558645160e+00
 -2.23041848741379e+00
  6.89329009754862e-01
 -7.72831038735158e-01
 -3.42198452089929e-01
  1.14378711358884e-01
  5.59316593651876e-02
 -6.36871403187631e+00
 -6.70263696777189e+00
 -4.85366376571172e+00
 -1.94328465977958e+00
 -2.95794352475873e-01
  1.77804263529115e-01
  3.69064748804282e-02
  2.97832344563160e-02
 -2.41155510664628e+00
 -4.34754533639739e+00
 -6.38989945415292e+00
 -6.20123558645160e+00
 -2.23041848741379e+00
  6.89329009754862e-01
 -7.72831038735158e-01
 -3.42198452089929e-01
  1.14378711358884e-01
  5.59316593651876e-02
 -6.36871403187631e+00
 -6.70263696777189e+00
 -4.85366376571172e+00
 -1.94328465977958e+00
 -2.95794352475873e-01
  1.77804263529115e-01
  3.69064748804282e-02
  2.97832344563160e-02
 -2.41155510664628e+00
 -4.34754533639739e+00
 -6.38989945415292e+00
 -6.20123558645160e+00
 -2.23041848741379e+00
  6.89329009754862e-01
 -7.72831038735158e-01
 -3.42198452089929e-01
  1.14378711358884e-01
  5.59316593651876e-02
 -6.36871403187631e+00
 -6.70263696777189e+00
 -4.85366376571172e+00
 -1.94328465977958e+00
 -2.95794352475873e-01
  1.77804263529115e-01
  3.69064748804282e-02
  2.97832344563160e-02
 -2.41155510664628e+00
 -4.34754533639739e+00
 -6.38989945415292e+00
 -6.20123558645160e+00
 -2.23041848741379e+00
  6.89329009754862e-01
 -7.72831038735158e-01
 -3.42198452089929e-01
  1.14378711358884e-01
  5.59316593651876e-02
 -6.36871403187631e+00
 -6.70263696777189e+00
 -4.85366376571172e+00
 -1.94328465977958e+00
 -2.95794352475873e-01
  1.77804263529115e-01
  3.69064748804282e-02
  2.97832344563160e-02
 -2.41155510664628e+00
 -4.34754533639739e+00
 -6.38989945415292e+00
 -6.20123558645160e+00
 -2.23041848741379e+00
  6.89329009754862e-01
 -7.72831038735158e-01
 -3.42198452089929e-01
  1.14378711358884e-01
  5.59316593651876e-02
 -6.36871403187631e+00
 -6.70263696777189e+00
 -4.85366376571172e+00
 -1.94328465977958e+00
 -2.95794352475873e-01
  1.77804263529115e-01
  3.69064748804282e-02
  2.97832344563160e-02
 -2.41155510664628e+00
 -4.34754533639739e+00
 -6.38989945415292e+00
 -6.20123558645160e+00
 -2.23041848741379e+00
  6.89329009754862e-01
 -7.72831038735158e-01
 -3.42198452089929e-01
  1.14378711358884e-01
  5.59316593651876e-02
 -6.36871403187631e+00
 -6.70263696777189e+00
 -4.85366376571172e+00
 -1.94328465977958e+00
 -2.95794352475873e-01
  1.77804263529115e-01
  3.69064748804282e-02
  2.97832344563160e-02
 -2.41155510664628e+00
 -4.34754533639739e+00
 -6.38989945415292e+00
 -6.20123558645160e+00
 -2.23041848741379e+00
  6.89329009754862e-01
 -7.72831038735158e-01
 -3.42198452089929e-01
  1.14378711358884e-01
  5.59316593651876e-02
 -6.36871403187631e+00
 -6.70263696777189e+00
 -4.85366376571172e+00
 -1.94328465977958e+00
 -2.95794352475873e-01
  1.77804263529115e-01
  3.69064748804282e-02
  2.97832344563160e-02
 -2.41155510664628e+00
 -4.34754533639739e+00
 -6.38989945415292e+00
 -6.20123558645160e+00
 -2.23041848741379e+00
  6.89329009754862e-01
 -7.72831038735158e-01
 -3.42198452089929e-01
  1.14378711358884e-01
  5.59316593651876e-02
 -6.36871403187631e+00
 -6.70263696777189e+00
 -4.85366376571172e+00
 -1.94328465977958e+00
 -2.95794352475873e-01
  1.77804263529115e-01
  3.69064748804282e-02
  2.97832344563160e-02
 -2.41155510664628e+00
 -4.34754533639739e+00
 -6.38989945415292e+00
 -6.20123558645160e+00
 -2.23041848741379e+00
  6.89329009754862e-01
 -7.72831038735158e-01
 -3.42198452089929e-01
  1.14378711358884e-01
  5.59316593651876e-02
 -6.36871403187631e+00
 -6.70263696777189e+00
 -4.85366376571172e+00
 -1.94328465977958e+00
 -2.95794352475873e-01
  1.77804263529115e-01
  3.69064748804282e-02
  2.97832344563160e-02
 -2.41155510664628e+00
 -4.34754533639739e+00
 -6.38989945415292e+00
 -6.20123558645160e+00
 -2.23041848741379e+00
  6.89329009754862e-01
 -7.72831038735158e-01
 -3.42198452089929e-01
  1.14378711358884e-01
  5.59316593651876e-02
 -6.36871403187631e+00
 -6.70263696777189e+00
 -4.85366376571172e+00
 -1.94328465977958e+00
 -2.95794352475873e-01
  1.77804263529115e-01
  3.69064748804282e-02
  2.97832344563160e-02
 -2.41155510664628e+00
 -4.34754533639739e+00
 -6.38989945415292e+00
 -6.20123558645160e+00
 -2.23041848741379e+00
  6.89329009754862e-01
 -7.72831038735158e-01
 -3.42198452089929e-01
  1.14378711358884e-01
  5.59316593651876e-02
 -6.36871403187631e+00
 -6.70263696777189e+00
 -4.85366376571172e+00
 -1.94328465977958e+00
 -2.95794352475873e-01
  1.77804263529115e-01
  3.69064748804282e-02
  2.97832344563160e-02
 -1.26158597249017e+00
 -2.27485004274182e+00
 -3.34796232864976e+00
 -3.32999805309706e+00
 -1.32038282889920e+00
  6.08383230068131e-01
  2.55981191146438e-01
  3.24601076418758e+00
  2.57349591726613e+00
  1.12083728924890e+00
  2.85688638066086e-01
  2.26452248250699e+00
 -1.26158597249017e+00
 -2.27485004274182e+00
 -3.34796232864976e+00
 -3.32999805309706e+00
 -1.32038282889920e+00
  6.08383230068131e-01
  2.55981191146438e-01
  3.24601076418758e+00
  2.57349591726613e+00
  1.12083728924890e+00
  2.85688638066086e-01
  2.26452248250699e+00
 -1.26158597249017e+00
 -2.27485004274182e+00
 -3.34796232864976e+00
 -3.32999805309706e+00
 -1.32038282889920e+00
  6.08383230068131e-01
  2.55981191146438e-01
  3.24601076418758e+00
  2.57349591726613e+00
  1.12083728924890e+00
  2.85688638066086e-01
  2.26452248250699e+00
 -1.26158597249017e+00
 -2.27485004274182e+00
 -3.34796232864976e+00
 -3.32999805309706e+00
 -1.32038282889920e+00
  6.08383230068131e-01
  2.55981191146438e-01
  3.24601076418758e+00
  2.57349591726613e+00
  1.12083728924890e+00
  2.85688638066086e-01
  2.26452248250699e+00
 -1.26158597249017e+00
 -2.27485004274182e+00
 -3.34796232864976e+00
 -3.32999805309706e+00
 -1.32038282889920e+00
  6.08383230068131e-01
  2.55981191146438e-01
  3.24601076418758e+00
  2.57349591726613e+00
  1.12083728924890e+00
  2.85688638066086e-01
  2.26452248250699e+00
 -1.26158597249017e+00
 -2.27485004274182e+00
 -3.34796232864976e+00
 -3.32999805309706e+00
 -1.32038282889920e+00
  6.08383230068131e-01
  2.55981191146438e-01
  3.24601076418758e+00
  2.57349591726613e+00
  1.12083728924890e+00
  2.85688638066086e-01
  2.26452248250699e+00
 -1.26158597249017e+00
 -2.27485004274182e+00
 -3.34796232864976e+00
 -3.32999805309706e+00
 -1.32038282889920e+00
  6.08383230068131e-01
  2.55981191146438e-01
  3.24601076418758e+00
  2.57349591726613e+00
  1.12083728924890e+00
  2.85688638066086e-01
  2.26452248250699e+00
 -1.26158597249017e+00
 -2.27485004274182e+00
 -3.34796232864976e+00
 -3.32999805309706e+00
 -1.32038282889920e+00
  6.08383230068131e-01
  2.55981191146438e-01
  3.24601076418758e+00
  2.57349591726613e+00
  1.12083728924890e+00
  2.85688638066086e-01
  2.26452248250699e+00
 -1.26158597249017e+00
 -2.27485004274182e+00
 -3.34796232864976e+00
 -3.32999805309706e+00
 -1.32038282889920e+00
  6.08383230068131e-01
  2.55981191146438e-01
  3.24601076418758e+00
  2.57349591726613e+00
  1.12083728924890e+00
  2.85688638066086e-01
  2.26452248250699e+00
 -1.26158597249017e+00
 -2.27485004274182e+00
 -3.34796232864976e+00
 -3.32999805309706e+00
 -1.32038282889920e+00
  6.08383230068131e-01
  2.55981191146438e-01
  3.24601076418758e+00
  2.57349591726613e+00
  1.12083728924890e+00
  2.85688638066086e-01
  2.26452248250699e+00
 -1.26158597249017e+00
 -2.27485004274182e+00
 -3.34796232864976e+00
 -3.32999805309706e+00
 -1.32038282889920e+00
  6.08383230068131e-01
  2.55981191146438e-01
  3.24601076418758e+00
  2.57349591726613e+00
  1.12083728924890e+00
  2.85688638066086e-01
  2.26452248250699e+00
 -1.26158597249017e+00
 -2.27485004274182e+00
 -3.34796232864976e+00
 -3.32999805309706e+00
 -1.32038282889920e+00
  6.08383230068131e-01
  2.55981191146438e-01
  3.24601076418758e+00
  2.57349591726613e+00
  1.12083728924890e+00
  2.85688638066086e-01
  2.26452248250699e+00
 -1.26158597249017e+00
 -2.27485004274182e+00
 -3.34796232864976e+00
 -3.32999805309706e+00
 -1.32038282889920e+00
  6.08383230068131e-01
  2.55981191146438e-01
  3.24601076418758e+00
  2.57349591726613e+00
  1.12083728924890e+00
  2.85688638066086e-01
  2.26452248250699e+00
 -1.26158597249017e+00
 -2.27485004274182e+00
 -3.34796232864976e+00
 -3.32999805309706e+00
 -1.32038282889920e+00
  6.08383230068131e-01
  2.55981191146438e-01
  3.24601076418758e+00
  2.57349591726613e+00
  1.12083728924890e+00
  2.85688638066086e-01
  2.26452248250699e+00
 -1.26158597249017e+00
 -2.27485004274182e+00
 -3.34796232864976e+00
 -3.32999805309706e+00
 -1.32038282889920e+00
  6.08383230068131e-01
  2.55981191146438e-01
  3.24601076418758e+00
  2.57349591726613e+00
  1.12083728924890e+00
  2.85688638066086e-01
  2.26452248250699e+00
 -1.26158597249017e+00
 -2.27485004274182e+00
 -3.34796232864976e+00
 -3.32999805309706e+00
 -1.32038282889920e+00
  6.08383230068131e-01
  2.55981191146438e-01
  3.24601076418758e+00
  2.57349591726613e+00
  1.12083728924890e+00
  2.85688638066086e-01
  2.26452248250699e+00
 -1.26158597249017e+00
 -2.27485004274182e+00
 -3.34796232864976e+00
 -3.32999805309706e+00
 -1.32038282889920e+00
  6.08383230068131e-01
  2.55981191146438e-01
  3.24601076418758e+00
  2.57349591726613e+00
  1.12083728924890e+00
  2.85688638066086e-01
  2.26452248250699e+00
 -1.26158597249017e+00
 -2.27485004274182e+00
 -3.34796232864976e+00
 -3.32999805309706e+00
 -1.32038282889920e+00
  6.08383230068131e-01
  2.55981191146438e-01
  3.24601076418758e+00
  2.57349591726613e+00
  1.12083728924890e+00
  2.85688638066086e-01
  2.26452248250699e+00
 -1.26158597249017e+00
 -2.27485004274182e+00
 -3.34796232864976e+00
 -3.32999805309706e+00
 -1.32038282889920e+00
  6.08383230068131e-01
  2.55981191146438e-01
  3.24601076418758e+00
  2.57349591726613e+00
  1.12083728924890e+00
  2.85688638066086e-01
  2.26452248250699e+00
 -1.26158597249017e+00
 -2.27485004274182e+00
 -3.34796232864976e+00
 -3.32999805309706e+00
 -1.32038282889920e+00
  6.08383230068131e-01
  2.55981191146438e-01
  3.24601076418758e+00
  2.57349591726613e+00
  1.12083728924890e+00
  2.85688638066086e-01
  2.26452248250699e+00
 -1.26158597249017e+00
 -2.27485004274182e+00
 -3.34796232864976e+00
 -3.32999805309706e+00
 -1.32038282889920e+00
  6.08383230068131e-01
  2.55981191146438e-01
  3.24601076418758e+00
  2.57349591726613e+00
  1.12083728924890e+00
  2.85688638066086e-01
  2.26452248250699e+00
 -1.26158597249017e+00
 -2.27485004274182e+00
 -3.34796232864976e+00
 -3.32999805309706e+00
 -1.32038282889920e+00
  6.08383230068131e-01
  2.55981191146438e-01
  3.24601076418758e+00
  2.57349591726613e+00
  1.12083728924890e+00
  2.85688638066086e-01
  2.26452248250699e+00
 -1.26158597249017e+00
 -2.27485004274182e+00
 -3.34796232864976e+00
 -3.32999805309706e+00
 -1.32038282889920e+00
  6.08383230068131e-01
  2.55981191146438e-01
  3.24601076418758e+00
  2.57349591726613e+00
  1.12083728924890e+00
  2.85688638066086e-01
  2.26452248250699e+00
 -1.26158597249017e+00
 -2.27485004274182e+00
 -3.34796232864976e+00
 -3.32999805309706e+00
 -1.32038282889920e+00
  6.08383230068131e-01
  2.55981191146438e-01
  3.24601076418758e+00
  2.57349591726613e+00
  1.12083728924890e+00
  2.85688638066086e-01
  2.26452248250699e+00
 -1.26158597249017e+00
 -2.27485004274182e+00
 -3.34796232864976e+00
 -3.32999805309706e+00
 -1.32038282889920e+00
  6.08383230068131e-01
  2.55981191146438e-01
  3.24601076418758e+00
  2.57349591726613e+00
  1.12083728924890e+00
  2.85688638066086e-01
  2.26452248250699e+00
 -1.26158597249017e+00
 -2.27485004274182e+00
 -3.34796232864976e+00
 -3.32999805309706e+00
 -1.32038282889920e+00
  6.08383230068131e-01
  2.55981191146438e-01
  3.24601076418758e+00
  2.57349591726613e+00
  1.12083728924890e+00
  2.85688638066086e-01
  2.26452248250699e+00
 -1.26158597249017e+00
 -2.27485004274182e+00
 -3.34796232864976e+00
 -3.32999805309706e+00
 -1.32038282889920e+00
  6.08383230068131e-01
  2.55981191146438e-01
  3.24601076418758e+00
  2.57349591726613e+00
  1.12083728924890e+00
  2.85688638066086e-01
  2.26452248250699e+00
 -1.26158597249017e+00
 -2.27485004274182e+00
 -3.34796232864976e+00
 -3.32999805309706e+00
 -1.32038282889920e+00
  6.08383230068131e-01
  2.55981191146438e-01
  3.24601076418758e+00
  2.57349591726613e+00
  1.12083728924890e+00
  2.85688638066086e-01
  2.26452248250699e+00
 -1.26158597249017e+00
 -2.27485004274182e+00
 -3.34796232864976e+00
 -3.32999805309706e+00
 -1.32038282889920e+00
  6.08383230068131e-01
  2.55981191146438e-01
  3.24601076418758e+00
  2.57349591726613e+00
  1.12083728924890e+00
  2.85688638066086e-01
  2.26452248250699e+00
 -1.26158597249017e+00
 -2.27485004274182e+00
 -3.34796232864976e+00
 -3.32999805309706e+00
 -1.32038282889920e+00
  6.08383230068131e-01
  2.55981191146438e-01
  3.24601076418758e+00
  2.57349591726613e+00
  1.12083728924890e+00
  2.85688638066086e-01
  2.26452248250699e+00
 -1.26158597249017e+00
 -2.27485004274182e+00
 -3.34796232864976e+00
 -3.32999805309706e+00
 -1.32038282889920e+00
  6.08383230068131e-01
  2.55981191146438e-01
  3.24601076418758e+00
  2.57349591726613e+00
  1.12083728924890e+00
  2.85688638066086e-01
  2.26452248250699e+00
 -1.26158597249017e+00
 -2.27485004274182e+00
 -3.34796232864976e+00
 -3.32999805309706e+00
 -1.32038282889920e+00
  6.08383230068131e-01
  2.55981191146438e-01
  3.24601076418758e+00
  2.57349591726613e+00
  1.12083728924890e+00
  2.85688638066086e-01
  2.26452248250699e+00
 -1.26158597249017e+00
 -2.27485004274182e+00
 -3.34796232864976e+00
 -3.32999805309706e+00
 -1.32038282889920e+00
  6.08383230068131e-01
  2.55981191146438e-01
  3.24601076418758e+00
  2.57349591726613e+00
  1.12083728924890e+00
  2.85688638066086e-01
  2.26452248250699e+00

0 0 0 0 1 1 1
0 0 
5 0

0 1 1 5 1 1 1
5 0 
1 0

0 2 2 6 1 1 1
6 0 
1 0

0 3 3 7 1 3 3
7 1 
3 0

0 6 6 10 1 3 3
10 1 
1 0

0 9 9 11 1 5 6
11 2 
1 1

1 14 14 12 1 1 1
12 0 
5 0

1 15 15 17 1 1 1
17 0 
3 0

1 16 16 20 1 1 1
20 0 
1 0

1 17 17 21 1 1 1
21 0 
1 0

1 18 18 22 1 3 3
22 1 
5 0

1 21 21 27 1 3 3
27 1 
1 0

1 24 24 28 1 3 3
28 1 
1 0

1 27 27 29 1 5 6
29 2 
1 1

2 32 32 30 1 1 1
30 0 
5 0

2 33 33 35 1 1 1
35 0 
3 0

2 34 34 38 1 1 1
38 0 
1 0

2 35 35 39 1 1 1
39 0 
1 0

2 36 36 40 1 3 3
40 1 
5 0

2 39 39 45 1 3 3
45 1 
1 0

2 42 42 46 1 3 3
46 1 
1 0

2 45 45 47 1 5 6
47 2 
1 1

3 50 50 48 1 1 1
48 0 
5 0

3 51 51 53 1 1 1
53 0 
3 0

3 52 52 56 1 1 1
56 0 
1 0

3 53 53 57 1 1 1
57 0 
1 0

3 54 54 58 1 3 3
58 1 
5 0

3 57 57 63 1 3 3
63 1 
1 0

3 60 60 64 1 3 3
64 1 
1 0

3 63 63 65 1 5 6
65 2 
1 1

4 68 68 66 1 1 1
66 0 
5 0

4 69 69 71 1 1 1
71 0 
3 0

4 70 70 74 1 1 1
74 0 
1 0

4 71 71 75 1 1 1
75 0 
1 0

4 72 72 76 1 3 3
76 1 
5 0

4 75 75 81 1 3 3
81 1 
1 0

4 78 78 82 1 3 3
82 1 
1 0

4 81 81 83 1 5 6
83 2 
1 1

5 86 86 84 1 1 1
84 0 
5 0

5 87 87 89 1 1 1
89 0 
3 0

5 88 88 92 1 1 1
92 0 
1 0

5 89 89 93 1 1 1
93 0 
1 0

5 90 90 94 1 3 3
94 1 
5 0

5 93 93 99 1 3 3
99 1 
1 0

5 96 96 100 1 3 3
100 1 
1 0

5 99 99 101 1 5 6
101 2 
1 1

6 104 104 102 1 1 1
102 0 
5 0

6 105 105 107 1 1 1
107 0 
3 0

6 106 106 110 1 1 1
110 0 
1 0

6 107 107 111 1 1 1
111 0 
1 0

6 108 108 112 1 3 3
112 1 
5 0

6 111 111 117 1 3 3
117 1 
1 0

6 114 114 118 1 3 3
118 1 
1 0

6 117 117 119 1 5 6
119 2 
1 1

7 122 122 120 1 1 1
120 0 
5 0

7 123 123 125 1 1 1
125 0 
3 0

7 124 124 128 1 1 1
128 0 
1 0

7 125 125 129 1 1 1
129 0 
1 0

7 126 126 130 1 3 3
130 1 
5 0

7 129 129 135 1 3 3
135 1 
1 0

7 132 132 136 1 3 3
136 1 
1 0

7 135 135 137 1 5 6
137 2 
1 1

8 140 140 138 1 1 1
138 0 
5 0

8 141 141 143 1 1 1
143 0 
3 0

8 142 142 146 1 1 1
146 0 
1 0

8 143 143 147 1 1 1
147 0 
1 0

8 144 144 148 1 3 3
148 1 
5 0

8 147 147 153 1 3 3
153 1 
1 0

8 150 150 154 1 3 3
154 1 
1 0

8 153 153 155 1 5 6
155 2 
1 1

9 158 158 156 1 1 1
156 0 
5 0

9 159 159 161 1 1 1
161 0 
3 0

9 160 160 164 1 1 1
164 0 
1 0

9 161 161 165 1 1 1
165 0 
1 0

9 162 162 166 1 3 3
166 1 
5 0

9 165 165 171 1 3 3
171 1 
1 0

9 168 168 172 1 3 3
172 1 
1 0

9 171 171 173 1 5 6
173 2 
1 1

10 176 176 174 1 1 1
174 0 
5 0

10 177 177 179 1 1 1
179 0 
3 0

10 178 178 182 1 1 1
182 0 
1 0

10 179 179 183 1 1 1
183 0 
1 0

10 180 180 184 1 3 3
184 1 
5 0

10 183 183 189 1 3 3
189 1 
1 0

10 186 186 190 1 3 3
190 1 
1 0

10 189 189 191 1 5 6
191 2 
1 1

11 194 194 192 1 1 1
192 0 
5 0

11 195 195 197 1 1 1
197 0 
3 0

11 196 196 200 1 1 1
200 0 
1 0

11 197 197 201 1 1 1
201 0 
1 0

11 198 198 202 1 3 3
202 1 
5 0

11 201 201 207 1 3 3
207 1 
1 0

11 204 204 208 1 3 3
208 1 
1 0

11 207 207 209 1 5 6
209 2 
1 1

12 212 212 210 1 1 1
210 0 
5 0

12 213 213 215 1 1 1
215 0 
3 0

12 214 214 218 1 1 1
218 0 
1 0

12 215 215 219 1 1 1
219 0 
1 0

12 216 216 220 1 3 3
220 1 
5 0

12 219 219 225 1 3 3
225 1 
1 0

12 222 222 226 1 3 3
226 1 
1 0

12 225 225 227 1 5 6
227 2 
1 1

13 230 230 228 1 1 1
228 0 
5 0

13 231 231 233 1 1 1
233 0 
3 0

13 232 232 236 1 1 1
236 0 
1 0

13 233 233 237 1 1 1
237 0 
1 0

13 234 234 238 1 3 3
238 1 
5 0

13 237 237 243 1 3 3
243 1 
1 0

13 240 240 244 1 3 3
244 1 
1 0

13 243 243 245 1 5 6
245 2 
1 1

14 248 248 246 1 1 1
246 0 
5 0

14 249 249 251 1 1 1
251 0 
3 0

14 250 250 254 1 1 1
254 0 
1 0

14 251 251 255 1 1 1
255 0 
1 0

14 252 252 256 1 3 3
256 1 
5 0

14 255 255 261 1 3 3
261 1 
1 0

14 258 258 262 1 3 3
262 1 
1 0

14 261 261 263 1 5 6
263 2 
1 1

15 266 266 264 1 1 1
264 0 
5 0

15 267 267 269 1 1 1
269 0 
3 0

15 268 268 272 1 1 1
272 0 
1 0

15 269 269 273 1 1 1
273 0 
1 0

15 270 270 274 1 3 3
274 1 
5 0

15 273 273 279 1 3 3
279 1 
1 0

15 276 276 280 1 3 3
280 1 
1 0

15 279 279 281 1 5 6
281 2 
1 1

16 284 284 282 1 1 1
282 0 
5 0

16 285 285 287 1 1 1
287 0 
3 0

16 286 286 290 1 1 1
290 0 
1 0

16 287 287 291 1 1 1
291 0 
1 0

16 288 288 292 1 3 3
292 1 
5 0

16 291 291 297 1 3 3
297 1 
1 0

16 294 294 298 1 3 3
298 1 
1 0

16 297 297 299 1 5 6
299 2 
1 1

17 302 302 300 1 1 1
300 0 
5 0

17 303 303 305 1 1 1
305 0 
3 0

17 304 304 308 1 1 1
308 0 
1 0

17 305 305 309 1 1 1
309 0 
1 0

17 306 306 310 1 3 3
310 1 
5 0

17 309 309 315 1 3 3
315 1 
1 0

17 312 312 316 1 3 3
316 1 
1 0

17 315 315 317 1 5 6
317 2 
1 1

18 320 320 318 1 1 1
318 0 
5 0

18 321 321 323 1 1 1
323 0 
3 0

18 322 322 326 1 1 1
326 0 
1 0

18 323 323 327 1 1 1
327 0 
1 0

18 324 324 328 1 3 3
328 1 
5 0

18 327 327 333 1 3 3
333 1 
1 0

18 330 330 334 1 3 3
334 1 
1 0

18 333 333 335 1 5 6
335 2 
1 1

19 338 338 336 1 1 1
336 0 
5 0

19 339 339 341 1 1 1
341 0 
3 0

19 340 340 344 1 1 1
344 0 
1 0

19 341 341 345 1 1 1
345 0 
1 0

19 342 342 346 1 3 3
346 1 
5 0

19 345 345 351 1 3 3
351 1 
1 0

19 348 348 352 1 3 3
352 1 
1 0

19 351 351 353 1 5 6
353 2 
1 1

20 356 356 354 1 1 1
354 0 
5 0

20 357 357 359 1 1 1
359 0 
3 0

20 358 358 362 1 1 1
362 0 
1 0

20 359 359 363 1 1 1
363 0 
1 0

20 360 360 364 1 3 3
364 1 
5 0

20 363 363 369 1 3 3
369 1 
1 0

20 366 366 370 1 3 3
370 1 
1 0

20 369 369 371 1 5 6
371 2 
1 1

21 374 374 372 1 1 1
372 0 
5 0

21 375 375 377 1 1 1
377 0 
3 0

21 376 376 380 1 1 1
380 0 
1 0

21 377 377 381 1 1 1
381 0 
1 0

21 378 378 382 1 3 3
382 1 
5 0

21 381 381 387 1 3 3
387 1 
1 0

21 384 384 388 1 3 3
388 1 
1 0

21 387 387 389 1 5 6
389 2 
1 1

22 392 392 390 1 1 1
390 0 
5 0

22 393 393 395 1 1 1
395 0 
3 0

22 394 394 398 1 1 1
398 0 
1 0

22 395 395 399 1 1 1
399 0 
1 0

22 396 396 400 1 3 3
400 1 
5 0

22 399 399 405 1 3 3
405 1 
1 0

22 402 402 406 1 3 3
406 1 
1 0

22 405 405 407 1 5 6
407 2 
1 1

23 410 410 408 1 1 1
408 0 
5 0

23 411 411 413 1 1 1
413 0 
3 0

23 412 412 416 1 1 1
416 0 
1 0

23 413 413 417 1 1 1
417 0 
1 0

23 414 414 418 1 3 3
418 1 
5 0

23 417 417 423 1 3 3
423 1 
1 0

23 420 420 424 1 3 3
424 1 
1 0

23 423 423 425 1 5 6
425 2 
1 1

24 428 428 426 1 1 1
426 0 
5 0

24 429 429 431 1 1 1
431 0 
3 0

24 430 430 434 1 1 1
434 0 
1 0

24 431 431 435 1 1 1
435 0 
1 0

24 432 432 436 1 3 3
436 1 
5 0

24 435 435 441 1 3 3
441 1 
1 0

24 438 438 442 1 3 3
442 1 
1 0

24 441 441 443 1 5 6
443 2 
1 1

25 446 446 444 1 1 1
444 0 
5 0

25 447 447 449 1 1 1
449 0 
3 0

25 448 448 452 1 1 1
452 0 
1 0

25 449 449 453 1 1 1
453 0 
1 0

25 450 450 454 1 3 3
454 1 
5 0

25 453 453 459 1 3 3
459 1 
1 0

25 456 456 460 1 3 3
460 1 
1 0

25 459 459 461 1 5 6
461 2 
1 1

26 464 464 462 1 1 1
462 0 
5 0

26 465 465 467 1 1 1
467 0 
3 0

26 466 466 470 1 1 1
470 0 
1 0

26 467 467 471 1 1 1
471 0 
1 0

26 468 468 472 1 3 3
472 1 
5 0

26 471 471 477 1 3 3
477 1 
1 0

26 474 474 478 1 3 3
478 1 
1 0

26 477 477 479 1 5 6
479 2 
1 1

27 482 482 480 1 1 1
480 0 
5 0

27 483 483 485 1 1 1
485 0 
3 0

27 484 484 488 1 1 1
488 0 
1 0

27 485 485 489 1 1 1
489 0 
1 0

27 486 486 490 1 3 3
490 1 
5 0

27 489 489 495 1 3 3
495 1 
1 0

27 492 492 496 1 3 3
496 1 
1 0

27 495 495 497 1 5 6
497 2 
1 1

28 500 500 498 1 1 1
498 0 
5 0

28 501 501 503 1 1 1
503 0 
3 0

28 502 502 506 1 1 1
506 0 
1 0

28 503 503 507 1 1 1
507 0 
1 0

28 504 504 508 1 3 3
508 1 
5 0

28 507 507 513 1 3 3
513 1 
1 0

28 510 510 514 1 3 3
514 1 
1 0

28 513 513 515 1 5 6
515 2 
1 1

29 518 518 516 1 1 1
516 0 
5 0

29 519 519 521 1 1 1
521 0 
3 0

29 520 520 524 1 1 1
524 0 
1 0

29 521 521 525 1 1 1
525 0 
1 0

29 522 522 526 1 3 3
526 1 
5 0

29 525 525 531 1 3 3
531 1 
1 0

29 528 528 532 1 3 3
532 1 
1 0

29 531 531 533 1 5 6
533 2 
1 1

30 536 536 534 1 1 1
534 0 
5 0

30 537 537 539 1 1 1
539 0 
3 0

30 538 538 542 1 1 1
542 0 
1 0

30 539 539 543 1 1 1
543 0 
1 0

30 540 540 544 1 3 3
544 1 
5 0

30 543 543 549 1 3 3
549 1 
1 0

30 546 546 550 1 3 3
550 1 
1 0

30 549 549 551 1 5 6
551 2 
1 1

31 554 554 552 1 1 1
552 0 
5 0

31 555 555 557 1 1 1
557 0 
3 0

31 556 556 560 1 1 1
560 0 
1 0

31 557 557 561 1 1 1
561 0 
1 0

31 558 558 562 1 3 3
562 1 
5 0

31 561 561 567 1 3 3
567 1 
1 0

31 564 564 568 1 3 3
568 1 
1 0

31 567 567 569 1 5 6
569 2 
1 1

32 572 572 570 1 1 1
570 0 
5 0

32 573 573 575 1 1 1
575 0 
3 0

32 574 574 578 1 1 1
578 0 
1 0

32 575 575 579 1 1 1
579 0 
1 0

32 576 576 580 1 3 3
580 1 
5 0

32 579 579 585 1 3 3
585 1 
1 0

32 582 582 586 1 3 3
586 1 
1 0

32 585 585 587 1 5 6
587 2 
1 1

33 590 590 588 1 1 1
588 0 
5 0

33 591 591 593 1 1 1
593 0 
1 0

33 592 592 594 1 1 1
594 0 
1 0

33 593 593 595 1 3 3
595 1 
3 0

33 596 596 598 1 3 3
598 1 
1 0

33 599 599 599 1 5 6
599 2 
1 1

34 604 604 600 1 1 1
600 0 
5 0

34 605 605 605 1 1 1
605 0 
1 0

34 606 606 606 1 1 1
606 0 
1 0

34 607 607 607 1 3 3
607 1 
3 0

34 610 610 610 1 3 3
610 1 
1 0

34 613 613 611 1 5 6
611 2 
1 1

35 618 618 612 1 1 1
612 0 
5 0

35 619 619 617 1 1 1
617 0 
1 0

35 620 620 618 1 1 1
618 0 
1 0

35 621 621 619 1 3 3
619 1 
3 0

35 624 624 622 1 3 3
622 1 
1 0

35 627 627 623 1 5 6
623 2 
1 1

36 632 632 624 1 1 1
624 0 
5 0

36 633 633 629 1 1 1
629 0 
1 0

36 634 634 630 1 1 1
630 0 
1 0

36 635 635 631 1 3 3
631 1 
3 0

36 638 638 634 1 3 3
634 1 
1 0

36 641 641 635 1 5 6
635 2 
1 1

37 646 646 636 1 1 1
636 0 
5 0

37 647 647 641 1 1 1
641 0 
1 0

37 648 648 642 1 1 1
642 0 
1 0

37 649 649 643 1 3 3
643 1 
3 0

37 652 652 646 1 3 3
646 1 
1 0

37 655 655 647 1 5 6
647 2 
1 1

38 660 660 648 1 1 1
648 0 
5 0

38 661 661 653 1 1 1
653 0 
1 0

38 662 662 654 1 1 1
654 0 
1 0

38 663 663 655 1 3 3
655 1 
3 0

38 666 666 658 1 3 3
658 1 
1 0

38 669 669 659 1 5 6
659 2 
1 1

39 674 674 660 1 1 1
660 0 
5 0

39 675 675 665 1 1 1
665 0 
1 0

39 676 676 666 1 1 1
666 0 
1 0

39 677 677 667 1 3 3
667 1 
3 0

39 680 680 670 1 3 3
670 1 
1 0

39 683 683 671 1 5 6
671 2 
1 1

40 688 688 672 1 1 1
672 0 
5 0

40 689 689 677 1 1 1
677 0 
1 0

40 690 690 678 1 1 1
678 0 
1 0

40 691 691 679 1 3 3
679 1 
3 0

40 694 694 682 1 3 3
682 1 
1 0

40 697 697 683 1 5 6
683 2 
1 1

41 702 702 684 1 1 1
684 0 
5 0

41 703 703 689 1 1 1
689 0 
1 0

41 704 704 690 1 1 1
690 0 
1 0

41 705 705 691 1 3 3
691 1 
3 0

41 708 708 694 1 3 3
694 1 
1 0

41 711 711 695 1 5 6
695 2 
1 1

42 716 716 696 1 1 1
696 0 
5 0

42 717 717 701 1 1 1
701 0 
1 0

42 718 718 702 1 1 1
702 0 
1 0

42 719 719 703 1 3 3
703 1 
3 0

42 722 722 706 1 3 3
706 1 
1 0

42 725 725 707 1 5 6
707 2 
1 1

43 730 730 708 1 1 1
708 0 
5 0

43 731 731 713 1 1 1
713 0 
1 0

43 732 732 714 1 1 1
714 0 
1 0

43 733 733 715 1 3 3
715 1 
3 0

43 736 736 718 1 3 3
718 1 
1 0

43 739 739 719 1 5 6
719 2 
1 1

44 744 744 720 1 1 1
720 0 
5 0

44 745 745 725 1 1 1
725 0 
1 0

44 746 746 726 1 1 1
726 0 
1 0

44 747 747 727 1 3 3
727 1 
3 0

44 750 750 730 1 3 3
730 1 
1 0

44 753 753 731 1 5 6
731 2 
1 1

45 758 758 732 1 1 1
732 0 
5 0

45 759 759 737 1 1 1
737 0 
1 0

45 760 760 738 1 1 1
738 0 
1 0

45 761 761 739 1 3 3
739 1 
3 0

45 764 764 742 1 3 3
742 1 
1 0

45 767 767 743 1 5 6
743 2 
1 1

46 772 772 744 1 1 1
744 0 
5 0

46 773 773 749 1 1 1
749 0 
1 0

46 774 774 750 1 1 1
750 0 
1 0

46 775 775 751 1 3 3
751 1 
3 0

46 778 778 754 1 3 3
754 1 
1 0

46 781 781 755 1 5 6
755 2 
1 1

47 786 786 756 1 1 1
756 0 
5 0

47 787 787 761 1 1 1
761 0 
1 0

47 788 788 762 1 1 1
762 0 
1 0

47 789 789 763 1 3 3
763 1 
3 0

47 792 792 766 1 3 3
766 1 
1 0

47 795 795 767 1 5 6
767 2 
1 1

48 800 800 768 1 1 1
768 0 
5 0

48 801 801 773 1 1 1
773 0 
1 0

48 802 802 774 1 1 1
774 0 
1 0

48 803 803 775 1 3 3
775 1 
3 0

48 806 806 778 1 3 3
778 1 
1 0

48 809 809 779 1 5 6
779 2 
1 1

49 814 814 780 1 1 1
780 0 
5 0

49 815 815 785 1 1 1
785 0 
1 0

49 816 816 786 1 1 1
786 0 
1 0

49 817 817 787 1 3 3
787 1 
3 0

49 820 820 790 1 3 3
790 1 
1 0

49 823 823 791 1 5 6
791 2 
1 1

50 828 828 792 1 1 1
792 0 
5 0

50 829 829 797 1 1 1
797 0 
1 0

50 830 830 798 1 1 1
798 0 
1 0

50 831 831 799 1 3 3
799 1 
3 0

50 834 834 802 1 3 3
802 1 
1 0

50 837 837 803 1 5 6
803 2 
1 1

51 842 842 804 1 1 1
804 0 
5 0

51 843 843 809 1 1 1
809 0 
1 0

51 844 844 810 1 1 1
810 0 
1 0

51 845 845 811 1 3 3
811 1 
3 0

51 848 848 814 1 3 3
814 1 
1 0

51 851 851 815 1 5 6
815 2 
1 1

52 856 856 816 1 1 1
816 0 
5 0

52 857 857 821 1 1 1
821 0 
1 0

52 858 858 822 1 1 1
822 0 
1 0

52 859 859 823 1 3 3
823 1 
3 0

52 862 862 826 1 3 3
826 1 
1 0

52 865 865 827 1 5 6
827 2 
1 1

53 870 870 828 1 1 1
828 0 
5 0

53 871 871 833 1 1 1
833 0 
1 0

53 872 872 834 1 1 1
834 0 
1 0

53 873 873 835 1 3 3
835 1 
3 0

53 876 876 838 1 3 3
838 1 
1 0

53 879 879 839 1 5 6
839 2 
1 1

54 884 884 840 1 1 1
840 0 
5 0

54 885 885 845 1 1 1
845 0 
1 0

54 886 886 846 1 1 1
846 0 
1 0

54 887 887 847 1 3 3
847 1 
3 0

54 890 890 850 1 3 3
850 1 
1 0

54 893 893 851 1 5 6
851 2 
1 1

55 898 898 852 1 1 1
852 0 
5 0

55 899 899 857 1 1 1
857 0 
1 0

55 900 900 858 1 1 1
858 0 
1 0

55 901 901 859 1 3 3
859 1 
3 0

55 904 904 862 1 3 3
862 1 
1 0

55 907 907 863 1 5 6
863 2 
1 1

56 912 912 864 1 1 1
864 0 
5 0

56 913 913 869 1 1 1
869 0 
1 0

56 914 914 870 1 1 1
870 0 
1 0

56 915 915 871 1 3 3
871 1 
3 0

56 918 918 874 1 3 3
874 1 
1 0

56 921 921 875 1 5 6
875 2 
1 1

57 926 926 876 1 1 1
876 0 
5 0

57 927 927 881 1 1 1
881 0 
1 0

57 928 928 882 1 1 1
882 0 
1 0

57 929 929 883 1 3 3
883 1 
3 0

57 932 932 886 1 3 3
886 1 
1 0

57 935 935 887 1 5 6
887 2 
1 1

58 940 940 888 1 1 1
888 0 
5 0

58 941 941 893 1 1 1
893 0 
1 0

58 942 942 894 1 1 1
894 0 
1 0

58 943 943 895 1 3 3
895 1 
3 0

58 946 946 898 1 3 3
898 1 
1 0

58 949 949 899 1 5 6
899 2 
1 1

59 954 954 900 1 1 1
900 0 
5 0

59 955 955 905 1 1 1
905 0 
1 0

59 956 956 906 1 1 1
906 0 
1 0

59 957 957 907 1 3 3
907 1 
3 0

59 960 960 910 1 3 3
910 1 
1 0

59 963 963 911 1 5 6
911 2 
1 1

60 968 968 912 1 1 1
912 0 
5 0

60 969 969 917 1 1 1
917 0 
1 0

60 970 970 918 1 1 1
918 0 
1 0

60 971 971 919 1 3 3
919 1 
3 0

60 974 974 922 1 3 3
922 1 
1 0

60 977 977 923 1 5 6
923 2 
1 1

61 982 982 924 1 1 1
924 0 
5 0

61 983 983 929 1 1 1
929 0 
1 0

61 984 984 930 1 1 1
930 0 
1 0

61 985 985 931 1 3 3
931 1 
3 0

61 988 988 934 1 3 3
934 1 
1 0

61 991 991 935 1 5 6
935 2 
1 1

62 996 996 936 1 1 1
936 0 
5 0

62 997 997 941 1 1 1
941 0 
1 0

62 998 998 942 1 1 1
942 0 
1 0

62 999 999 943 1 3 3
943 1 
3 0

62 1002 1002 946 1 3 3
946 1 
1 0

62 1005 1005 947 1 5 6
947 2 
1 1

63 1010 1010 948 1 1 1
948 0 
5 0

63 1011 1011 953 1 1 1
953 0 
1 0

63 1012 1012 954 1 1 1
954 0 
1 0

63 1013 1013 955 1 3 3
955 1 
3 0

63 1016 1016 958 1 3 3
958 1 
1 0

63 1019 1019 959 1 5 6
959 2 
1 1

64 1024 1024 960 1 1 1
960 0 
5 0

64 1025 1025 965 1 1 1
965 0 
1 0

64 1026 1026 966 1 1 1
966 0 
1 0

64 1027 1027 967 1 3 3
967 1 
3 0

64 1030 1030 970 1 3 3
970 1 
1 0

64 1033 1033 971 1 5 6
971 2 
1 1

65 1038 1038 972 1 1 1
972 0 
5 0

65 1039 1039 977 1 1 1
977 0 
1 0

65 1040 1040 978 1 1 1
978 0 
1 0

65 1041 1041 979 1 3 3
979 1 
3 0

65 1044 1044 982 1 3 3
982 1 
1 0

65 1047 1047 983 1 5 6
983 2 
1 1

 -------------------------------------------------------------
 Allocate 18336512 B from available memory: 524288000000 B
 There are 245 image cells after screening.
 There are 140 image cells for CGTO evaluation after screening.
 Real-Space grid for FFT initialized based on kinetic energy cutoff (eV) = 500.0
 Real-Space grid for FFT: (31,31,56)
 There are 448497 real-space grid points.
 There are 2197 batches of real-space grid points. 
 Size of each grid batch is around 128
 Grid for AFT initialized based on kinetic energy cutoff (eV) = 200.0
 Real-Space grid for AFT: (1,1,1)
 There are 27 real-space grid points.

 There are 184876 atom-centered grid points.

 Adding empirical dispersion correction 
 ----------------------------------------------------------------
 Doing -D3(BJ) with
 s6  =   1.00000e+00
 s8  =   7.87500e-01
 a1  =   4.28900e-01
 a2  =   4.44070e+00
 ----------------------------------------------------------------
 Spacegroup symmetry group: P4mm
 Reducing spacegroup symmetry to symmorphic group: C m = C 1 m 1
 Monkhorst-Pack mesh is [1,1,1]
 There are 1 k points.
kpoints in Bohr
0.0000000000 0.0000000000 0.0000000000
 There are 7 alpha and 7 beta electrons
 Start computing overlap matrix
 Allocate 17707264 B from available memory: 524269663488 B
 Time for computing overlap matrix: 8.3210000000 s
 ====== Initialize compute kernels for all-electron RI-J (kpts) ====== 
 ==== The unitcell is orthorombic! => Use AFT orthorombic code ==== 
 ========================================================== 
 Range-separated parameter omega        = 0.500000000000000000
 Threshold for 1e2c shellpair           = 0.000000000000010000
 Threshold for 2e2c SR integral         = 0.000000000000000001
 Threshold for 2e3c SR integral         = 0.000000000100000000
 Threshold for AFT G-space screening is = 0.000000000100000000
 The exponent cutoff for C/D classification (omega2 / 2) is  = 0.000010000000000000
 ========================================================== 
 === Post process the basis set for RI calculation (exp_cutoff = 0.000010000000000000 ) === 
nshells_b1 before uncontraction = 460
nshells_b1 after uncontraction = 460
nshells_baux before uncontraction = 1086
nshells_baux after uncontraction = 1086
===============================================
nbsf total   = 1052
nbsf compact = 1052
nbsf diffuse = 0
naux total   = 3458
naux compact = 3458
naux diffuse = 0
nshells_bnuc = 2

 Number of unique atoms is 3
 Unique atom #0 (c) has 6 shells.
 Unique atom #1 (o) has 6 shells.
 Unique atom #2 (mg) has 8 shells.

Shell 0 to 5 belongs to atom c
Shell 6 to 13 belongs to atom mg
Shell 14 to 21 belongs to atom mg
Shell 22 to 29 belongs to atom mg
Shell 30 to 37 belongs to atom mg
Shell 38 to 45 belongs to atom mg
Shell 46 to 53 belongs to atom mg
Shell 54 to 61 belongs to atom mg
Shell 62 to 69 belongs to atom mg
Shell 70 to 77 belongs to atom mg
Shell 78 to 85 belongs to atom mg
Shell 86 to 93 belongs to atom mg
Shell 94 to 101 belongs to atom mg
Shell 102 to 109 belongs to atom mg
Shell 110 to 117 belongs to atom mg
Shell 118 to 125 belongs to atom mg
Shell 126 to 133 belongs to atom mg
Shell 134 to 141 belongs to atom mg
Shell 142 to 149 belongs to atom mg
Shell 150 to 157 belongs to atom mg
Shell 158 to 165 belongs to atom mg
Shell 166 to 173 belongs to atom mg
Shell 174 to 181 belongs to atom mg
Shell 182 to 189 belongs to atom mg
Shell 190 to 197 belongs to atom mg
Shell 198 to 205 belongs to atom mg
Shell 206 to 213 belongs to atom mg
Shell 214 to 221 belongs to atom mg
Shell 222 to 229 belongs to atom mg
Shell 230 to 237 belongs to atom mg
Shell 238 to 245 belongs to atom mg
Shell 246 to 253 belongs to atom mg
Shell 254 to 261 belongs to atom mg
Shell 262 to 267 belongs to atom o
Shell 268 to 273 belongs to atom o
Shell 274 to 279 belongs to atom o
Shell 280 to 285 belongs to atom o
Shell 286 to 291 belongs to atom o
Shell 292 to 297 belongs to atom o
Shell 298 to 303 belongs to atom o
Shell 304 to 309 belongs to atom o
Shell 310 to 315 belongs to atom o
Shell 316 to 321 belongs to atom o
Shell 322 to 327 belongs to atom o
Shell 328 to 333 belongs to atom o
Shell 334 to 339 belongs to atom o
Shell 340 to 345 belongs to atom o
Shell 346 to 351 belongs to atom o
Shell 352 to 357 belongs to atom o
Shell 358 to 363 belongs to atom o
Shell 364 to 369 belongs to atom o
Shell 370 to 375 belongs to atom o
Shell 376 to 381 belongs to atom o
Shell 382 to 387 belongs to atom o
Shell 388 to 393 belongs to atom o
Shell 394 to 399 belongs to atom o
Shell 400 to 405 belongs to atom o
Shell 406 to 411 belongs to atom o
Shell 412 to 417 belongs to atom o
Shell 418 to 423 belongs to atom o
Shell 424 to 429 belongs to atom o
Shell 430 to 435 belongs to atom o
Shell 436 to 441 belongs to atom o
Shell 442 to 447 belongs to atom o
[...]
 Nuclear Attraction Energy = -288.90307913816713
 Nuclear Repulsion  Energy =  13.56102348657718
 Total Coulomb      Energy =  65.25368447319624
 Time for RI-J this SCF iteration is 35.88 s
   12    -113.0798410756      9.61e-01  Line search: overstep
 Energy components after cycle 12:
 D3 correction      Energy =  -0.00041279889897
 DFT Correlation    Energy =  -0.44984821881695
 DFT Exchange       Energy = -13.34145984190484
 Kinetic            Energy = 112.79012667153368
 Nuclear Attraction Energy = -293.47159110805774
 Nuclear Repulsion  Energy =  13.56102348657718
 Total Coulomb      Energy =  67.83232073395386
 Time for RI-J this SCF iteration is 35.83 s
   13    -113.0918340773      1.19e-01   Normal BFGS step
 Energy components after cycle 13:
 D3 correction      Energy =  -0.00041279889897
 DFT Correlation    Energy =  -0.44790784517831
 DFT Exchange       Energy = -13.26345164880349
 Kinetic            Energy = 112.20184881852407
 Nuclear Attraction Energy = -292.24393396012533
 Nuclear Repulsion  Energy =  13.56102348657718
 Total Coulomb      Energy =  67.10099987059816
 Time for RI-J this SCF iteration is 35.84 s
   14    -113.0817332855      4.25e-02   Normal BFGS step
 Energy components after cycle 14:
 D3 correction      Energy =  -0.00041279889897
 DFT Correlation    Energy =  -0.44920848207326
 DFT Exchange       Energy = -13.25009742459159
 Kinetic            Energy = 112.23622439982906
 Nuclear Attraction Energy = -292.26135990624363
 Nuclear Repulsion  Energy =  13.56102348657718
 Total Coulomb      Energy =  67.08209743989585
 Time for RI-J this SCF iteration is 35.89 s
   15    -113.1001663836      5.98e-02  Line search: overstep
 Energy components after cycle 15:
 D3 correction      Energy =  -0.00041279889897
 DFT Correlation    Energy =  -0.44875579967664
 DFT Exchange       Energy = -13.26467877350441
 Kinetic            Energy = 112.23296525486013
 Nuclear Attraction Energy = -292.33405462697726
 Nuclear Repulsion  Energy =  13.56102348657718
 Total Coulomb      Energy =  67.15374687402537
 Time for RI-J this SCF iteration is 35.91 s
   16    -113.0992464296      4.76e-02   Normal BFGS step
 Energy components after cycle 16:
 D3 correction      Energy =  -0.00041279889897
 DFT Correlation    Energy =  -0.44997018681703
 DFT Exchange       Energy = -13.27547586180536
 Kinetic            Energy = 112.29914709712179
 Nuclear Attraction Energy = -292.50578376481593
 Nuclear Repulsion  Energy =  13.56102348657718
 Total Coulomb      Energy =  67.27222559905825
 Time for RI-J this SCF iteration is 35.90 s
   17    -113.1039664557      2.44e-02  Line search: overstep
 Energy components after cycle 17:
 D3 correction      Energy =  -0.00041279889897
 DFT Correlation    Energy =  -0.44938993271746
 DFT Exchange       Energy = -13.27058258036701
 Kinetic            Energy = 112.26617922813465
 Nuclear Attraction Energy = -292.42974007165776
 Nuclear Repulsion  Energy =  13.56102348657718
 Total Coulomb      Energy =  67.21895621323453
 Time for RI-J this SCF iteration is 35.81 s
   18    -113.1025288478      1.52e-02   Normal BFGS step
 Energy components after cycle 18:
 D3 correction      Energy =  -0.00041279889897
 DFT Correlation    Energy =  -0.44973424387420
 DFT Exchange       Energy = -13.27295383781986
 Kinetic            Energy = 112.28272678185974
 Nuclear Attraction Energy = -292.48197750851733
 Nuclear Repulsion  Energy =  13.56102348657718
 Total Coulomb      Energy =  67.25879927284825
 Time for RI-J this SCF iteration is 35.93 s
   19    -113.1044787081      2.51e-02  Line search: overstep
 Energy components after cycle 19:
 D3 correction      Energy =  -0.00041279889897
 DFT Correlation    Energy =  -0.44949677838607
 DFT Exchange       Energy = -13.27136346066994
 Kinetic            Energy = 112.27102572007959
 Nuclear Attraction Energy = -292.44659204698877
 Nuclear Repulsion  Energy =  13.56102348657718
 Total Coulomb      Energy =  67.23133717022824
 Time for RI-J this SCF iteration is 35.85 s
   20    -113.1032244423      9.07e-03   Normal BFGS step
 Energy components after cycle 20:
 D3 correction      Energy =  -0.00041279889897
 DFT Correlation    Energy =  -0.44976019907624
 DFT Exchange       Energy = -13.29172968556233
 Kinetic            Energy = 112.39659362318065
 Nuclear Attraction Energy = -292.72037940218883
 Nuclear Repulsion  Energy =  13.56102348657718
 Total Coulomb      Energy =  67.40144053371472
 Time for RI-J this SCF iteration is 35.90 s
   21    -113.1046061912      1.18e-02  Line search: overstep
 Energy components after cycle 21:
 D3 correction      Energy =  -0.00041279889897
 DFT Correlation    Energy =  -0.44954707796600
 DFT Exchange       Energy = -13.27474412797227
 Kinetic            Energy = 112.29150141414648
 Nuclear Attraction Energy = -292.49235002012892
 Nuclear Repulsion  Energy =  13.56102348657718
 Total Coulomb      Energy =  67.25992293299834
 Time for RI-J this SCF iteration is 35.87 s
   22    -113.1046578037      5.70e-03   Normal BFGS step
 Energy components after cycle 22:
 D3 correction      Energy =  -0.00041279889897
 DFT Correlation    Energy =  -0.44960306549919
 DFT Exchange       Energy = -13.27458944017599
 Kinetic            Energy = 112.27929571368632
 Nuclear Attraction Energy = -292.48878381471457
 Nuclear Repulsion  Energy =  13.56102348657718
 Total Coulomb      Energy =  67.26841211535807
 Time for RI-J this SCF iteration is 35.83 s
   23    -113.1046717151      4.08e-03   Normal BFGS step
 Energy components after cycle 23:
 D3 correction      Energy =  -0.00041279889897
 DFT Correlation    Energy =  -0.44961314883420
 DFT Exchange       Energy = -13.27453361127586
 Kinetic            Energy = 112.28627856711762
 Nuclear Attraction Energy = -292.49228960914388
 Nuclear Repulsion  Energy =  13.56102348657718
 Total Coulomb      Energy =  67.26487539936991
 Time for RI-J this SCF iteration is 35.81 s
   24    -113.1046680452      2.47e-03   Normal BFGS step
 Energy components after cycle 24:
 D3 correction      Energy =  -0.00041279889897
 DFT Correlation    Energy =  -0.44959924729667
 DFT Exchange       Energy = -13.27372458365722
 Kinetic            Energy = 112.28069430360310
 Nuclear Attraction Energy = -292.47869587699370
 Nuclear Repulsion  Energy =  13.56102348657718
 Total Coulomb      Energy =  67.25604667151261
 Time for RI-J this SCF iteration is 35.83 s
   25    -113.1046929006      2.15e-03  Line search: overstep
 Energy components after cycle 25:
 D3 correction      Energy =  -0.00041279889897
 DFT Correlation    Energy =  -0.44960700001521
 DFT Exchange       Energy = -13.27416420203143
 Kinetic            Energy = 112.28369829565895
 Nuclear Attraction Energy = -292.48607231857579
 Nuclear Repulsion  Energy =  13.56102348657718
 Total Coulomb      Energy =  67.26084163668696
 Time for RI-J this SCF iteration is 35.84 s
   26    -113.1047010035      1.24e-03   Normal BFGS step
 Energy components after cycle 26:
 D3 correction      Energy =  -0.00041279889897
 DFT Correlation    Energy =  -0.44960070902853
 DFT Exchange       Energy = -13.27400579532882
 Kinetic            Energy = 112.27840697660854
 Nuclear Attraction Energy = -292.48011510044427
 Nuclear Repulsion  Energy =  13.56102348657718
 Total Coulomb      Energy =  67.26000293703461
 Time for RI-J this SCF iteration is 35.78 s
   27    -113.1047020444      5.03e-04   Normal BFGS step
 Energy components after cycle 27:
 D3 correction      Energy =  -0.00041279889897
 DFT Correlation    Energy =  -0.44960300212481
 DFT Exchange       Energy = -13.27382389496649
 Kinetic            Energy = 112.27674999809690
 Nuclear Attraction Energy = -292.47789096787687
 Nuclear Repulsion  Energy =  13.56102348657718
 Total Coulomb      Energy =  67.25925513480959
 Time for RI-J this SCF iteration is 35.78 s
   28    -113.1047021958      1.87e-04   Normal BFGS step
 Energy components after cycle 28:
 D3 correction      Energy =  -0.00041279889897
 DFT Correlation    Energy =  -0.44960028164752
 DFT Exchange       Energy = -13.27385165624391
 Kinetic            Energy = 112.27729299332326
 Nuclear Attraction Energy = -292.47826829381580
 Nuclear Repulsion  Energy =  13.56102348657718
 Total Coulomb      Energy =  67.25911435485665
 Time for RI-J this SCF iteration is 35.79 s
   29    -113.1047022310      5.99e-05   Normal BFGS step
 Energy components after cycle 29:
 D3 correction      Energy =  -0.00041279889897
 DFT Correlation    Energy =  -0.44960104203964
 DFT Exchange       Energy = -13.27381766832876
 Kinetic            Energy = 112.27686791914734
 Nuclear Attraction Energy = -292.47766973453309
 Nuclear Repulsion  Energy =  13.56102348657718
 Total Coulomb      Energy =  67.25890760710762
 Time for RI-J this SCF iteration is 35.83 s
   30    -113.1047022314      6.94e-06   Normal BFGS step
 Energy components after cycle 30:
 D3 correction      Energy =  -0.00041279889897
 DFT Correlation    Energy =  -0.44960095671664
 DFT Exchange       Energy = -13.27381729383256
 Kinetic            Energy = 112.27686904662363
 Nuclear Attraction Energy = -292.47767475067104
 Nuclear Repulsion  Energy =  13.56102348657718
 Total Coulomb      Energy =  67.25891103549444
   30    -113.1047022314      6.94e-06  Convergence criterion met
 ----------------------------------------------
 Final energy components:
 D3 correction      Energy =  -0.00041279889897
 DFT Correlation    Energy =  -0.44960095671664
 DFT Exchange       Energy = -13.27381729383256
 Kinetic            Energy = 112.27686904662363
 Nuclear Attraction Energy = -292.47767475067104
 Nuclear Repulsion  Energy =  13.56102348657718
 Total Coulomb      Energy =  67.25891103549444
 ----------------------------------------------
 Final energy is -113.1047022314

 SCF time:   CPU 45656.74s  wall 1491.00s 
 Total wall time for computing Kinetic: 0.15 s (32)
 Total wall time for computing RIJ-BIGMEM: 1240.96 s (32)
 Total wall time for computing RSDF Vnuc: 0.20 s (32)
 Total wall time for computing DFT XC: 133.51 s (32)
 ---------------------------------------------------------------------------
                        Orbital Energies (a.u.)
 ---------------------------------------------------------------------------
 == 0-th k-point (0.00000,0.00000,0.00000) occupation: 7==
 -18.87249 -10.01726 -1.06111 -0.51201 -0.43246 -0.43246 -0.32840 -0.07661 -0.07661 0.00223
 0.01767 0.03835 0.03835 0.04047 0.04111 0.05758 0.05758 0.05796 0.06081 0.07324
 0.07578 0.07830 0.07830 0.08294 0.08991 0.09495 0.09495 0.09745 0.09962 0.10161
 0.10161 0.10414 0.10629 0.13189 0.13282 0.13282 0.13547 0.14520 0.14750 0.14928
 0.14928 0.15296 0.15985 0.15985 0.16334 0.17637 0.18273 0.18273 0.18787 0.19087
 0.19151 0.19151 0.19263 0.19551 0.19554 0.19554 0.19709 0.19949 0.19949 0.19968
 0.20049 0.21682 0.22028 0.22095 0.22228 0.22228 0.22425 0.22425 0.22512 0.22925
 0.22925 0.23091 0.23825 0.24593 0.25121 0.25121 0.25205 0.26169 0.26504 0.26504
 0.26538 0.26902 0.27442 0.27459 0.27688 0.27688 0.27713 0.28101 0.28106 0.28106
 0.28696 0.29445 0.29569 0.29569 0.30050 0.31500 0.31544 0.31850 0.31850 0.32975
 0.32975 0.33000 0.33141 0.33809 0.34012 0.34012 0.34135 0.34392 0.34392 0.34548
 0.34694 0.35659 0.35659 0.35665 0.35993 0.36178 0.36178 0.36362 0.36903 0.37652
 0.37652 0.37858 0.38750 0.38866 0.39539 0.39541 0.39541 0.39714 0.40151 0.40225
 0.40516 0.40516 0.40773 0.40973 0.41358 0.41358 0.41825 0.42376 0.42486 0.42522
 0.42733 0.42733 0.44565 0.44565 0.45328 0.45386 0.45728 0.45728 0.45801 0.45929
 0.46164 0.46195 0.46195 0.46328 0.46486 0.46486 0.46633 0.47311 0.47850 0.47850
 0.48016 0.48160 0.48160 0.48516 0.49722 0.49887 0.49887 0.50285 0.51197 0.51197
 0.51371 0.51684 0.51684 0.51737 0.51898 0.51898 0.51902 0.52082 0.52267 0.52942
 0.53262 0.53507 0.53507 0.53596 0.53951 0.53951 0.54461 0.54738 0.54738 0.54870
 0.55091 0.55091 0.55213 0.56164 0.56235 0.57228 0.57266 0.57266 0.57382 0.57392
 0.57835 0.58032 0.58054 0.58054 0.58192 0.58364 0.58430 0.58430 0.59447 0.59806
 0.59806 0.59993 0.59993 0.60024 0.60122 0.60369 0.61474 0.62661 0.62661 0.62828
 0.63831 0.65808 0.65808 0.65966 0.65966 0.66021 0.66380 0.66502 0.66812 0.66963
 0.67002 0.67002 0.67189 0.67722 0.67752 0.67752 0.68496 0.69163 0.69163 0.69248
 0.69622 0.70013 0.70146 0.70147 0.70261 0.70261 0.70359 0.70591 0.70612 0.70654
 0.70654 0.70793 0.71011 0.71101 0.71101 0.71190 0.71196 0.71203 0.71203 0.71486
 0.71695 0.72876 0.73936 0.75828 0.75828 0.76994 0.76994 0.77077 0.77251 0.77536
 0.77854 0.77855 0.78469 0.78469 0.78707 0.78707 0.78725 0.78840 0.78952 0.79717
 0.79872 0.79948 0.79948 0.80554 0.80565 0.80725 0.80725 0.80743 0.80755 0.81035
 0.81104 0.81104 0.81178 0.81204 0.81204 0.81526 0.82308 0.82358 0.82454 0.82454
 0.82734 0.82734 0.83797 0.84042 0.84156 0.84376 0.84415 0.84523 0.84523 0.85312
 0.85312 0.85975 0.85975 0.86797 0.86797 0.86952 0.87603 0.87636 0.87636 0.87683
 0.88199 0.88591 0.88591 0.89008 0.89112 0.89112 0.89167 0.89383 0.89667 0.89901
 0.89901 0.90077 0.90502 0.91289 0.91557 0.91557 0.91699 0.92711 0.92711 0.93294
 0.93510 0.93653 0.93694 0.93694 0.93853 0.93880 0.93913 0.93989 0.93989 0.94320
 0.94321 0.94494 0.94541 0.95411 0.96882 0.97985 0.98047 0.98594 0.98594 0.98870
 0.98912 0.98912 0.99057 0.99259 0.99585 0.99585 0.99643 0.99715 1.00338 1.00338
 1.01096 1.03856 1.03856 1.04043 1.04218 1.04464 1.04464 1.04791 1.04905 1.05159
 1.05159 1.05448 1.05666 1.05666 1.05773 1.06346 1.06449 1.06480 1.07049 1.07049
 1.07796 1.07796 1.07913 1.08213 1.08471 1.08471 1.08636 1.09306 1.10651 1.10774
 1.11025 1.11175 1.11332 1.11610 1.11610 1.12326 1.12326 1.12472 1.12613 1.12774
 1.13045 1.13045 1.13068 1.13287 1.13287 1.13690 1.13720 1.14105 1.14263 1.14544
 1.14545 1.14837 1.14920 1.14949 1.14949 1.15200 1.15200 1.15216 1.15438 1.15590
 1.15699 1.15700 1.16956 1.16956 1.17233 1.17882 1.17882 1.18088 1.18303 1.18384
 1.18629 1.18629 1.18699 1.18699 1.18917 1.19192 1.19344 1.19344 1.19528 1.20145
 1.20161 1.20161 1.20200 1.20758 1.20758 1.21151 1.21494 1.21811 1.22204 1.22204
 1.23677 1.23795 1.24236 1.24236 1.24516 1.24777 1.25360 1.25360 1.25426 1.26040
 1.27092 1.27110 1.27959 1.27960 1.28080 1.28961 1.30920 1.30920 1.30992 1.31025
 1.31025 1.31111 1.32320 1.32320 1.34459 1.35011 1.35011 1.35074 1.35653 1.35667
 1.36236 1.36538 1.36719 1.36719 1.37843 1.39488 1.39488 1.39592 1.40332 1.40512
 1.40512 1.40653 1.41463 1.41463 1.41506 1.41573 1.41777 1.41799 1.41799 1.41855
 1.42033 1.43324 1.43526 1.43526 1.44470 1.44742 1.44742 1.45857 1.45857 1.47761
 1.49263 1.51930 1.52331 1.53049 1.53049 1.53115 1.54070 1.54070 1.55044 1.55119
 1.55119 1.55333 1.55420 1.55745 1.56587 1.56876 1.57000 1.58360 1.58360 1.58676
 1.59870 1.60418 1.61630 1.61630 1.61640 1.61717 1.61718 1.61718 1.62329 1.62329
 1.62334 1.62341 1.62409 1.62534 1.62534 1.63958 1.64414 1.64844 1.65026 1.65026
 1.67587 1.71465 1.71465 1.71938 1.73044 1.73044 2.36528 2.43666 2.49220 2.49383
 2.52718 2.52752 2.52752 2.53300 2.53943 2.54781 2.56448 2.56528 2.57424 2.57424
 2.62651 2.62718 2.62761 2.62761 2.63107 2.63107 2.63330 2.64681 2.69017 2.69319
 2.69550 2.69550 2.70830 2.70843 2.71101 2.71101 2.71121 2.71346 2.72482 2.72482
 2.79033 3.06872 3.06872 3.14266 3.18849 3.19354 3.19354 3.19538 3.20062 3.20269
 3.22202 3.22202 3.22251 3.23064 3.39345 3.40537 3.40537 3.40566 3.41120 3.41163
 3.41221 3.41221 3.47569 3.47569 3.47853 3.48996 3.51051 3.54603 3.55260 3.55359
 3.55359 3.56443 3.56798 3.56798 3.57208 3.64252 4.20345 4.20860 4.20860 4.21263
 4.21444 4.21781 4.21781 4.21956 4.22060 4.22060 4.22086 4.22439 4.22445 4.23356
 4.23671 4.23671 4.24685 4.24845 4.24845 4.25111 4.25562 4.25641 4.25641 4.25940
 4.25940 4.25978 4.26215 4.26260 4.26458 4.26467 4.26467 4.26518 4.26694 4.26908
 4.26908 4.27006 4.27590 4.28091 4.28334 4.28334 4.29116 4.29121 4.29121 4.29419
 4.30519 4.30519 4.30585 4.30671 4.33104 4.33225 4.33400 4.33400 4.33416 4.33643
 4.33782 4.33782 4.34085 4.34208 4.34221 4.34221 4.34365 4.34373 4.34373 4.34568
 4.34780 4.34910 4.34910 4.35090 4.35170 4.35243 4.35263 4.35263 4.36186 4.36210
 4.36210 4.36334 4.36414 4.36496 4.36496 4.36671 4.36707 4.36707 4.36801 4.36862
 4.36862 4.36870 4.37406 4.37421 4.37450 4.37450 4.37457 4.37467 4.37474 4.37617
 4.37617 4.37784 4.37784 4.37797 4.37830 4.38036 4.38039 4.38039 4.38492 4.39361
 4.39502 4.39502 4.39826 4.39925 4.39925 4.39974 4.40054 4.40270 4.40270 4.40422
 4.40465 4.41157 4.41849 4.42213 4.42297 4.42350 4.42350 4.42668 4.42730 4.42744
 4.42744 4.43243 4.43268 4.43282 4.43977 4.43977 4.44069 4.44225 4.44328 4.44328
 4.44591 4.44591 4.45235 4.45311 4.45335 4.45335 4.45364 4.45482 4.45482 4.45556
 4.45990 4.46115 4.46115 4.46866 4.47353 4.47423 4.47477 4.47477 4.52194 4.52508
 4.52557 4.52557 4.53020 4.53150 4.65802 4.66886 5.67472 5.71369 5.72039 5.72039
 5.74129 5.83394 5.83394 5.83924 5.86070 5.88936 5.89757 5.90408 5.90408 5.91169
 5.91243 5.91243 5.91284 5.91288 5.92211 5.92211 5.92265 5.93842 5.93842 5.93865
 5.94258 5.94258 5.95533 6.01766 6.03026 6.03026 6.03723 6.05426 6.05511 6.05600
 6.05600 6.09635 6.09635 6.13889 6.14524 6.15152 6.15214 6.15214 6.15377 6.15377
 6.15466 6.15804 6.15804 6.15934 6.16270 6.16595 6.16595 6.16724 6.17657 6.17657
 6.18840 6.18872 6.18925 6.19452 6.19452 6.20415 6.20415 6.20514 6.20578 6.20939
 6.21618 6.22775 6.22901 6.22901 6.23081 6.23153 6.23153 6.23874 6.24657 6.26611
 6.26642 6.26642 6.26727 6.27068 6.43796 6.43796 6.51042 6.51055 6.51099 6.51099
 6.51147 6.51446 6.51446 6.51818 6.51821 6.51822 6.51837 6.51940 6.54735 6.54735
 6.55763 6.56678 9.01146 9.01434 9.01434 9.02085 9.08160 9.08161 9.09274 9.09760
 9.09832 9.11943 9.12197 9.12360 9.12360 9.14782 9.14895 9.14940 9.14940 9.15422
 9.15427 9.15664 9.15664 9.16074 9.16986 9.19001 9.20466 9.20466 9.20638 9.21859
 9.21948 9.22908 9.22908 9.23365 9.23446 9.23446 9.24355 9.26357 9.28114 9.28114
 9.28906 9.28936 9.28936 9.29118 9.29164 9.29940 9.31423 9.32413 9.32413 9.32630
 9.32832 9.32832 9.33429 9.34400 9.38174 9.38437 9.38437 9.44259 9.44259 9.44572
 9.45107 9.46862 9.46879 9.47218 9.47218 9.50499 9.50552 9.50552 9.51075 9.51075
 9.51080 9.51285 9.51721 9.51874 9.52028 9.52028 9.52622 9.52622 9.53620 9.53620
 9.55531 9.55533 9.56083 9.56083 9.57013 9.57033 9.57087 9.57161 9.57161 9.57598
 9.57598 9.57894 9.57931 9.58373 9.58373 9.63446 9.74458 9.74459 34.76384 34.76384
 34.77724 34.78810 34.82908 34.83692 34.96781 34.97039 34.97039 34.99512 35.01459 35.02579
 35.02581 35.02581 35.02871 35.02872 35.02933 35.03243 35.03779 35.04668 35.05390 35.05390
 35.05775 35.06447 35.06447 35.06856 35.06979 35.07003 35.07003 35.08922 35.15923 35.22961
 74.65263 74.75314 74.86458 74.86458 74.86550 74.86942 74.87809 74.87886 74.87886 74.90765
 74.96192 74.97041 75.05271 75.06677 75.06677 75.07223 75.08830 75.08830 75.08974 75.10127
 75.15128 75.15460 75.15510 75.15510 75.15783 75.15798 75.15959 75.15959 75.26903 75.26903
 75.27249 75.27547
 ---------------------------------------------------------------------------
 VBM is at 0-th k-point with -8.93632 eV
 CBM is at 0-th k-point with -2.08471 eV
 Band gap is 6.85161 eV


           Ground-State Mulliken Net Atomic Charges

      Atom                 Charge (a.u.)          Spin (a.u.)
   --------------------------------------------------------
      1  C               (0.142397,-0.000000)    (0.000000,0.000000)
      2  O               (8.010480,-0.000000)    (0.000000,0.000000)
   --------------------------------------------------------
  Sum of atomic charges =     (-0.000000,-0.000000)
  Sum of spin   charges =       (0.000000,0.000000)



 Total job time:  1492.52 s.
 Thu Aug 14 22:41:06 2025


        *************************************************************
        *                                                           *
        *  Thank you very much for using QCPBC. Have a nice day.    *
        *                                                           *
        *************************************************************

Running job 1 of 1
