                  Welcome to Q-Chem
           with Periodic Boundary Condition
     A Quantum Leap Into The Future Of Chemistry

 Adam Rettig, Xintian Feng, Meng-Fu Chen, Hieu Dinh, Stephen Quiton,
 Anton Ni, Paul J. Robinson, Jinghong Zhang, Joonho Lee

Contributors to earlier versions of Q-Chem not listed above:
 Evgeny Epifanovsky, Leo Cunha, Jerome F. Gonthier, Kuan-Yu Liu
 Input file: /n/netscratch/joonholee_lab/Lab/hieudinh//mgo_slab_mgo_ghost_def2tzvp_omega_0.4_111.scratch20250917140222/mgo_slab_mgo_ghost_def2tzvp_omega_0.4_111.0
 Scratch folder: /n/netscratch/joonholee_lab/Lab/hieudinh//mgo_slab_mgo_ghost_def2tzvp_omega_0.4_111.scratch20250917140222
 Auxillary files located at: /n/home02/hieudinh/qcpbc/qcaux
 Q-Chem begins on Wed Sep 17 14:02:49 2025

 -------------------------------------------------------------
 User input:
 -------------------------------------------------------------
 $lattice
 3
 11.9443159104 0.0000000000 0.0000000000
 0.0000000000 11.9443159104 0.0000000000
 0.0000000000 0.0000000000 21.6602222298
 $end
 
 $unitcell
 ABSOLUTE
 0 1
 C   1.4930428341    1.4930432491    5.5284856213
 @Mg   0.0000000000    0.0000000000    1.0000000000
 @Mg   8.9582369328    5.9721579552    1.0000000000
 @Mg   2.9860789776    5.9721579552    1.0000000000
 @Mg   2.9860789776    8.9582369328    1.0000000000
 @Mg   5.9721579552    0.0000000000    1.0000000000
 @Mg   5.9721579552    2.9860789776    1.0000000000
 @Mg   5.9721579552    5.9721579552    1.0000000000
 @Mg   8.9582369328    2.9860789776    1.0000000000
 @Mg   5.9721579552    8.9582369328    1.0000000000
 @Mg   8.9582369328    0.0000000000    1.0000000000
 @Mg   2.9860789776    2.9860789776    1.0000000000
 @Mg   8.9582369328    8.9582369328    1.0000000000
 @Mg   0.0000000000    8.9582369328    1.0000000000
 @Mg   0.0000000000    2.9860789776    1.0000000000
 @Mg   0.0000000000    5.9721579552    1.0000000000
 @Mg   2.9860789776    0.0000000000    1.0000000000
 @Mg   1.4930343349    1.4930374153    3.1511187175
 @Mg   7.4651977897   10.4517004415    3.1114386205
 @Mg   7.4651969790    7.4651968898    3.1112699448
 @Mg   1.4930327857    4.4811832720    3.1056362779
 @Mg   7.4651966404    4.4786922443    3.1114383107
 @Mg   4.4811624032    1.4930368520    3.1056318890
 @Mg  10.4496839597    4.4807048989    3.1095898700
 @Mg   1.4930399629    7.4651963524    3.1116080311
 @Mg  10.4496925734   10.4496968378    3.1095846708
 @Mg   4.4807088948   10.4496904623    3.1095885984
 @Mg   4.4786954624    7.4651978298    3.1114386978
 @Mg   1.4930424686   10.4492084126    3.1056383774
 @Mg  10.4516980458    7.4651970662    3.1114406695
 @Mg   4.4807013212    4.4807040921    3.1095854125
 @Mg   7.4651986133    1.4930389816    3.1116104730
 @Mg  10.4492249714    1.4930441995    3.1056280117
 @O  10.4512759328    1.4930390000    1.0000000000
 @O   4.4791179776   10.4512759328    1.0000000000
 @O   7.4651969552    1.4930390000    1.0000000000
 @O   4.4791179776    4.4791179776    1.0000000000
 @O  10.4512759328    4.4791179776    1.0000000000
 @O   7.4651969552    7.4651969552    1.0000000000
 @O   7.4651969552   10.4512759328    1.0000000000
 @O   7.4651969552    4.4791179776    1.0000000000
 @O   4.4791179776    7.4651969552    1.0000000000
 @O   1.4930390000   10.4512759328    1.0000000000
 @O  10.4512759328    7.4651969552    1.0000000000
 @O   1.4930390000    4.4791179776    1.0000000000
 @O   1.4930390000    7.4651969552    1.0000000000
 @O   1.4930390000    1.4930390000    1.0000000000
 @O   4.4791179776    1.4930390000    1.0000000000
 @O  10.4512759328   10.4512759328    1.0000000000
 @O   8.9580238897    5.9723685818    3.1594644112
 @O   8.9570961456    2.9857717252    3.1600752389
 @O   8.9570985067    0.0003085838    3.1600738373
 @O   2.9857747423    8.9570945142    3.1600737733
 @O   5.9723690642    5.9723696033    3.1594610725
 @O   5.9732960489    2.9857717265    3.1600713997
 @O   5.9732976356    0.0003062885    3.1600713024
 @O   2.9857711850    5.9732998192    3.1600740469
 @O   2.9950544541    2.9950623702    3.1548459568
 @O   2.9950599166   -0.0089867212    3.1548507549
 @O   0.0003060319    8.9570959750    3.1600745678
 @O   0.0003045736    5.9732996331    3.1600758940
 @O  -0.0089879078    2.9950667318    3.1548429191
 @O  -0.0089805134   -0.0089799254    3.1548482730
 @O   5.9723706153    8.9580251994    3.1594625961
 @O   8.9580250454    8.9580263132    3.1594616543
 O   1.4930495812    1.4930407413    6.6690780399
 $end
 
 $rem
 jobtype = sp
 method = pbe
 dft_d = 6
 scf_convergence = 5
 scf_guess = autosad
 scf_algorithm = gdm
 basis = def2-tzvp
 aux_basis = rij-def2-qzvp
 input_bohr = false
 is_basis_uctr = false
 symmetry = false
 
 mp_mesh = [1,1,1]
 
 integral_direct true
 bvk_cgto true
 symmetry false
 rsdf_print_level 1
 
 thresh 14
 mem_total 500000
 threads 32
 
 MAX_SCF_CYCLES 500
 madelung = false
 omega 0.4
 do_rij_bigmem true
 automate_g true
 print_level 10
 grid_type_xc 1
 
 thresh_1e2c_sp 1e-14
 thresh_2e3c_bra_ket_sep 1e-10
 thresh_g 1e-12
 $end
 
 $rem_autosad
 incfock 1000
 scf_algorithm gdm_ls
 $end
 
 -------------------------------------------------------------
 Running PBC job

 Requested Exchange Correlation Functionals: 
  DFT Exchange:  1.00000 pbe_x
  DFT Correlation:  1.00000 pbe_c
 using 32 threads for computing.
 ---------------------------------------------------------------
      Coordinates of Atoms in Central Unit Cell (Angstroms)
    I     Atom         X            Y            Z
 ---------------------------------------------------------------
    1       C      1.493043     1.493043     5.528486
    2     @Mg      0.000000     0.000000     1.000000
    3     @Mg      8.958237     5.972158     1.000000
    4     @Mg      2.986079     5.972158     1.000000
    5     @Mg      2.986079     8.958237     1.000000
    6     @Mg      5.972158     0.000000     1.000000
    7     @Mg      5.972158     2.986079     1.000000
    8     @Mg      5.972158     5.972158     1.000000
    9     @Mg      8.958237     2.986079     1.000000
   10     @Mg      5.972158     8.958237     1.000000
   11     @Mg      8.958237     0.000000     1.000000
   12     @Mg      2.986079     2.986079     1.000000
   13     @Mg      8.958237     8.958237     1.000000
   14     @Mg      0.000000     8.958237     1.000000
   15     @Mg      0.000000     2.986079     1.000000
   16     @Mg      0.000000     5.972158     1.000000
   17     @Mg      2.986079     0.000000     1.000000
   18     @Mg      1.493034     1.493037     3.151119
   19     @Mg      7.465198    10.451700     3.111439
   20     @Mg      7.465197     7.465197     3.111270
   21     @Mg      1.493033     4.481183     3.105636
   22     @Mg      7.465197     4.478692     3.111438
   23     @Mg      4.481162     1.493037     3.105632
   24     @Mg     10.449684     4.480705     3.109590
   25     @Mg      1.493040     7.465196     3.111608
   26     @Mg     10.449693    10.449697     3.109585
   27     @Mg      4.480709    10.449690     3.109589
   28     @Mg      4.478695     7.465198     3.111439
   29     @Mg      1.493042    10.449208     3.105638
   30     @Mg     10.451698     7.465197     3.111441
   31     @Mg      4.480701     4.480704     3.109585
   32     @Mg      7.465199     1.493039     3.111610
   33     @Mg     10.449225     1.493044     3.105628
   34      @O     10.451276     1.493039     1.000000
   35      @O      4.479118    10.451276     1.000000
   36      @O      7.465197     1.493039     1.000000
   37      @O      4.479118     4.479118     1.000000
   38      @O     10.451276     4.479118     1.000000
   39      @O      7.465197     7.465197     1.000000
   40      @O      7.465197    10.451276     1.000000
   41      @O      7.465197     4.479118     1.000000
   42      @O      4.479118     7.465197     1.000000
   43      @O      1.493039    10.451276     1.000000
   44      @O     10.451276     7.465197     1.000000
   45      @O      1.493039     4.479118     1.000000
   46      @O      1.493039     7.465197     1.000000
   47      @O      1.493039     1.493039     1.000000
   48      @O      4.479118     1.493039     1.000000
   49      @O     10.451276    10.451276     1.000000
   50      @O      8.958024     5.972369     3.159464
   51      @O      8.957096     2.985772     3.160075
   52      @O      8.957099     0.000309     3.160074
   53      @O      2.985775     8.957095     3.160074
   54      @O      5.972369     5.972370     3.159461
   55      @O      5.973296     2.985772     3.160071
   56      @O      5.973298     0.000306     3.160071
   57      @O      2.985771     5.973300     3.160074
   58      @O      2.995054     2.995062     3.154846
   59      @O      2.995060    -0.008987     3.154851
   60      @O      0.000306     8.957096     3.160075
   61      @O      0.000305     5.973300     3.160076
   62      @O     -0.008988     2.995067     3.154843
   63      @O     -0.008981    -0.008980     3.154848
   64      @O      5.972371     8.958025     3.159463
   65      @O      8.958025     8.958026     3.159462
   66       O      1.493050     1.493041     6.669078
 ---------------------------------------------------------------
 --------------------------------------------------
              Lattice Vectors (Angstroms)
              X            Y            Z
 --------------------------------------------------
   X      11.944316     0.000000     0.000000
   Y       0.000000    11.944316     0.000000
   Z       0.000000     0.000000    21.660222
 --------------------------------------------------
 --------------------------------------------------
       Reciprocal Lattice Vectors (Angstroms^-1)
              X            Y            Z
 --------------------------------------------------
   X       0.526040     0.000000     0.000000
   Y       0.000000     0.526040     0.000000
   Z       0.000000     0.000000     0.290079
 --------------------------------------------------

 Single point calculation requested

 Hamiltonian contributions:
 List of terms in Hamiltonian: kpts_nn, kpts_kinetic, kpts_vnuc_df, kpts_xc, kpts_rij_bigmem, kpts_dftd3

 K-Points calculation started.

 Basis set information about using solid harmonic (1) or Cartesian (0):
  c : D(1) D(1) F(1) 
  o : D(1) D(1) F(1) 
  mg : D(1) D(1) D(1) 

 Basis set information about using solid harmonic (1) or Cartesian (0):
  c : D(1) D(1) D(1) F(1) G(1) 
  o : D(1) D(1) D(1) F(1) G(1) 
  mg : D(1) D(1) D(1) D(1) F(1) G(1) 

 There are 2078 basis functions in the central unit cell.
 Print atomic basis of atoms in the central unit cell:
 -------------------------------------------------------------
66 1480 1480 758

  2.82144204878407e+00  2.82144283302041e+00  1.04473237081885e+01
  0.00000000000000e+00  0.00000000000000e+00  1.88972612462577e+00
  1.69286143624996e+01  1.12857429083331e+01  1.88972612462577e+00
  5.64287145416653e+00  1.12857429083331e+01  1.88972612462577e+00
  5.64287145416653e+00  1.69286143624996e+01  1.88972612462577e+00
  1.12857429083331e+01  0.00000000000000e+00  1.88972612462577e+00
  1.12857429083331e+01  5.64287145416653e+00  1.88972612462577e+00
  1.12857429083331e+01  1.12857429083331e+01  1.88972612462577e+00
  1.69286143624996e+01  5.64287145416653e+00  1.88972612462577e+00
  1.12857429083331e+01  1.69286143624996e+01  1.88972612462577e+00
  1.69286143624996e+01  0.00000000000000e+00  1.88972612462577e+00
  5.64287145416653e+00  5.64287145416653e+00  1.88972612462577e+00
  1.69286143624996e+01  1.69286143624996e+01  1.88972612462577e+00
  0.00000000000000e+00  1.69286143624996e+01  1.88972612462577e+00
  0.00000000000000e+00  5.64287145416653e+00  1.88972612462577e+00
  0.00000000000000e+00  1.12857429083331e+01  1.88972612462577e+00
  5.64287145416653e+00  0.00000000000000e+00  1.88972612462577e+00
  2.82142598762379e+00  2.82143180873615e+00  5.95475136225700e+00
  1.41071792886946e+01  1.97508513710652e+01  5.87976684632842e+00
  1.41071777566937e+01  1.41071775881301e+01  5.87944809545154e+00
  2.82142306006008e+00  8.46820909833439e+00  5.86880200793317e+00
  1.41071771168324e+01  8.46350173821253e+00  5.87976626089126e+00
  8.46816966201784e+00  2.82143074425342e+00  5.86879371411418e+00
  1.97470407727280e+01  8.46730510419000e+00  5.87627321421065e+00
  2.82143662300242e+00  1.41071765725913e+01  5.88008698596503e+00
  1.97470570502619e+01  1.97470651088100e+01  5.87626338914658e+00
  8.46731265534662e+00  1.97470530608611e+01  5.87627081123491e+00
  8.46350781954017e+00  1.41071793644727e+01  5.87976699240425e+00
  2.82144135808917e+00  1.97461421189496e+01  5.86880597541317e+00
  1.97508468438484e+01  1.41071779214778e+01  5.87977071837725e+00
  8.46729834331684e+00  8.46730357955896e+00  5.87626479075645e+00
  1.41071808450731e+01  2.82143476861417e+00  5.88009160048725e+00
  1.97461734105465e+01  2.82144462901612e+00  5.86878638707908e+00
  1.97500491658847e+01  2.82143480338514e+00  1.88972612462577e+00
  8.46430625755166e+00  1.97500491658847e+01  1.88972612462577e+00
  1.41071777117182e+01  2.82143480338514e+00  1.88972612462577e+00
  8.46430625755166e+00  8.46430625755166e+00  1.88972612462577e+00
  1.97500491658847e+01  8.46430625755166e+00  1.88972612462577e+00
  1.41071777117182e+01  1.41071777117182e+01  1.88972612462577e+00
  1.41071777117182e+01  1.97500491658847e+01  1.88972612462577e+00
  1.41071777117182e+01  8.46430625755166e+00  1.88972612462577e+00
  8.46430625755166e+00  1.41071777117182e+01  1.88972612462577e+00
  2.82143480338514e+00  1.97500491658847e+01  1.88972612462577e+00
  1.97500491658847e+01  1.41071777117182e+01  1.88972612462577e+00
  2.82143480338514e+00  8.46430625755166e+00  1.88972612462577e+00
  2.82143480338514e+00  1.41071777117182e+01  1.88972612462577e+00
  2.82143480338514e+00  2.82143480338514e+00  1.88972612462577e+00
  8.46430625755166e+00  2.82143480338514e+00  1.88972612462577e+00
  1.97500491658847e+01  1.97500491658847e+01  1.88972612462577e+00
  1.69282117693878e+01  1.12861409349216e+01  5.97052243767002e+00
  1.69264585871251e+01  5.64229083127940e+00  5.97167673473235e+00
  1.69264630489575e+01  5.83138868496294e-04  5.97167408609222e+00
  5.64229653277209e+00  1.69264555042259e+01  5.97167396514974e+00
  1.12861418465255e+01  1.12861428652769e+01  5.97051612844141e+00
  1.12878935937302e+01  5.64229083373604e+00  5.97166947969581e+00
  1.12878965921587e+01  5.78801380122440e-04  5.97166929582546e+00
  5.64228981044934e+00  1.12879007185646e+01  5.97167448217881e+00
  5.65983264658954e+00  5.65984760585052e+00  5.96179482373494e+00
  5.65984296921850e+00 -1.69824418263683e-02  5.96180389082986e+00
  5.78316476398861e-04  1.69264582647378e+01  5.97167546653715e+00
  5.75560688791319e-04  1.12879003668866e+01  5.97167797269194e+00
 -1.69846841753877e-02  5.65985584807999e+00  5.96178908331389e+00
 -1.69707107845318e-02 -1.69695996255705e-02  5.96179920071859e+00
  1.12861447776797e+01  1.69282142443622e+01  5.97051900762813e+00
  1.69282139533443e+01  1.69282163491391e+01  5.97051722788406e+00
  2.82145479895521e+00  2.82143809396524e+00  1.26027309991671e+01

  1.35753496820000e+04
  2.03523336800000e+03
  4.63225623590000e+02
  1.31200195980000e+02
  4.28530158910000e+01
  1.55841857660000e+01
  6.20671385080000e+00
  2.57648965270000e+00
  5.76963394190000e-01
  2.29728313580000e-01
  9.51644400280000e-02
  3.46972322440000e+01
  7.95826228260000e+00
  2.37808268830000e+00
  8.14332081830000e-01
  2.88875472530000e-01
  1.00568236710000e-01
  1.09700000000000e+00
  3.18000000000000e-01
  7.61000000000000e-01
  3.14383495550000e+04
  4.71551533540000e+03
  1.07316292470000e+03
  3.03572387680000e+02
  9.86262510420000e+01
  3.49438084170000e+01
  1.28597851990000e+01
  6.48769130040000e+01
  1.97255207770000e+01
  2.89518043390000e+00
  1.19604547100000e+00
  5.43294511560000e-01
  1.00991040920000e-01
  3.68657280850000e-02
  1.79871896120000e+02
  4.21200693760000e+01
  1.31205030320000e+01
  4.62575036090000e+00
  1.66952110160000e+00
  5.85510121050000e-01
  1.89147961950000e-01
  5.37687551870000e-02
  3.44400000000000e+00
  2.90000000000000e-01
  7.00000000000000e-02
  3.14383495550000e+04
  4.71551533540000e+03
  1.07316292470000e+03
  3.03572387680000e+02
  9.86262510420000e+01
  3.49438084170000e+01
  1.28597851990000e+01
  6.48769130040000e+01
  1.97255207770000e+01
  2.89518043390000e+00
  1.19604547100000e+00
  5.43294511560000e-01
  1.00991040920000e-01
  3.68657280850000e-02
  1.79871896120000e+02
  4.21200693760000e+01
  1.31205030320000e+01
  4.62575036090000e+00
  1.66952110160000e+00
  5.85510121050000e-01
  1.89147961950000e-01
  5.37687551870000e-02
  3.44400000000000e+00
  2.90000000000000e-01
  7.00000000000000e-02
  3.14383495550000e+04
  4.71551533540000e+03
  1.07316292470000e+03
  3.03572387680000e+02
  9.86262510420000e+01
  3.49438084170000e+01
  1.28597851990000e+01
  6.48769130040000e+01
  1.97255207770000e+01
  2.89518043390000e+00
  1.19604547100000e+00
  5.43294511560000e-01
  1.00991040920000e-01
  3.68657280850000e-02
  1.79871896120000e+02
  4.21200693760000e+01
  1.31205030320000e+01
  4.62575036090000e+00
  1.66952110160000e+00
  5.85510121050000e-01
  1.89147961950000e-01
  5.37687551870000e-02
  3.44400000000000e+00
  2.90000000000000e-01
  7.00000000000000e-02
  3.14383495550000e+04
  4.71551533540000e+03
  1.07316292470000e+03
  3.03572387680000e+02
  9.86262510420000e+01
  3.49438084170000e+01
  1.28597851990000e+01
  6.48769130040000e+01
  1.97255207770000e+01
  2.89518043390000e+00
  1.19604547100000e+00
  5.43294511560000e-01
  1.00991040920000e-01
  3.68657280850000e-02
  1.79871896120000e+02
  4.21200693760000e+01
  1.31205030320000e+01
  4.62575036090000e+00
  1.66952110160000e+00
  5.85510121050000e-01
  1.89147961950000e-01
  5.37687551870000e-02
  3.44400000000000e+00
  2.90000000000000e-01
  7.00000000000000e-02
  3.14383495550000e+04
  4.71551533540000e+03
  1.07316292470000e+03
  3.03572387680000e+02
  9.86262510420000e+01
  3.49438084170000e+01
  1.28597851990000e+01
  6.48769130040000e+01
  1.97255207770000e+01
  2.89518043390000e+00
  1.19604547100000e+00
  5.43294511560000e-01
  1.00991040920000e-01
  3.68657280850000e-02
  1.79871896120000e+02
  4.21200693760000e+01
  1.31205030320000e+01
  4.62575036090000e+00
  1.66952110160000e+00
  5.85510121050000e-01
  1.89147961950000e-01
  5.37687551870000e-02
  3.44400000000000e+00
  2.90000000000000e-01
  7.00000000000000e-02
  3.14383495550000e+04
  4.71551533540000e+03
  1.07316292470000e+03
  3.03572387680000e+02
  9.86262510420000e+01
  3.49438084170000e+01
  1.28597851990000e+01
  6.48769130040000e+01
  1.97255207770000e+01
  2.89518043390000e+00
  1.19604547100000e+00
  5.43294511560000e-01
  1.00991040920000e-01
  3.68657280850000e-02
  1.79871896120000e+02
  4.21200693760000e+01
  1.31205030320000e+01
  4.62575036090000e+00
  1.66952110160000e+00
  5.85510121050000e-01
  1.89147961950000e-01
  5.37687551870000e-02
  3.44400000000000e+00
  2.90000000000000e-01
  7.00000000000000e-02
  3.14383495550000e+04
  4.71551533540000e+03
  1.07316292470000e+03
  3.03572387680000e+02
  9.86262510420000e+01
  3.49438084170000e+01
  1.28597851990000e+01
  6.48769130040000e+01
  1.97255207770000e+01
  2.89518043390000e+00
  1.19604547100000e+00
  5.43294511560000e-01
  1.00991040920000e-01
  3.68657280850000e-02
  1.79871896120000e+02
  4.21200693760000e+01
  1.31205030320000e+01
  4.62575036090000e+00
  1.66952110160000e+00
  5.85510121050000e-01
  1.89147961950000e-01
  5.37687551870000e-02
  3.44400000000000e+00
  2.90000000000000e-01
  7.00000000000000e-02
  3.14383495550000e+04
  4.71551533540000e+03
  1.07316292470000e+03
  3.03572387680000e+02
  9.86262510420000e+01
  3.49438084170000e+01
  1.28597851990000e+01
  6.48769130040000e+01
  1.97255207770000e+01
  2.89518043390000e+00
  1.19604547100000e+00
  5.43294511560000e-01
  1.00991040920000e-01
  3.68657280850000e-02
  1.79871896120000e+02
  4.21200693760000e+01
  1.31205030320000e+01
  4.62575036090000e+00
  1.66952110160000e+00
  5.85510121050000e-01
  1.89147961950000e-01
  5.37687551870000e-02
  3.44400000000000e+00
  2.90000000000000e-01
  7.00000000000000e-02
  3.14383495550000e+04
  4.71551533540000e+03
  1.07316292470000e+03
  3.03572387680000e+02
  9.86262510420000e+01
  3.49438084170000e+01
  1.28597851990000e+01
  6.48769130040000e+01
  1.97255207770000e+01
  2.89518043390000e+00
  1.19604547100000e+00
  5.43294511560000e-01
  1.00991040920000e-01
  3.68657280850000e-02
  1.79871896120000e+02
  4.21200693760000e+01
  1.31205030320000e+01
  4.62575036090000e+00
  1.66952110160000e+00
  5.85510121050000e-01
  1.89147961950000e-01
  5.37687551870000e-02
  3.44400000000000e+00
  2.90000000000000e-01
  7.00000000000000e-02
  3.14383495550000e+04
  4.71551533540000e+03
  1.07316292470000e+03
  3.03572387680000e+02
  9.86262510420000e+01
  3.49438084170000e+01
  1.28597851990000e+01
  6.48769130040000e+01
  1.97255207770000e+01
  2.89518043390000e+00
  1.19604547100000e+00
  5.43294511560000e-01
  1.00991040920000e-01
  3.68657280850000e-02
  1.79871896120000e+02
  4.21200693760000e+01
  1.31205030320000e+01
  4.62575036090000e+00
  1.66952110160000e+00
  5.85510121050000e-01
  1.89147961950000e-01
  5.37687551870000e-02
  3.44400000000000e+00
  2.90000000000000e-01
  7.00000000000000e-02
  3.14383495550000e+04
  4.71551533540000e+03
  1.07316292470000e+03
  3.03572387680000e+02
  9.86262510420000e+01
  3.49438084170000e+01
  1.28597851990000e+01
  6.48769130040000e+01
  1.97255207770000e+01
  2.89518043390000e+00
  1.19604547100000e+00
  5.43294511560000e-01
  1.00991040920000e-01
  3.68657280850000e-02
  1.79871896120000e+02
  4.21200693760000e+01
  1.31205030320000e+01
  4.62575036090000e+00
  1.66952110160000e+00
  5.85510121050000e-01
  1.89147961950000e-01
  5.37687551870000e-02
  3.44400000000000e+00
  2.90000000000000e-01
  7.00000000000000e-02
  3.14383495550000e+04
  4.71551533540000e+03
  1.07316292470000e+03
  3.03572387680000e+02
  9.86262510420000e+01
  3.49438084170000e+01
  1.28597851990000e+01
  6.48769130040000e+01
  1.97255207770000e+01
  2.89518043390000e+00
  1.19604547100000e+00
  5.43294511560000e-01
  1.00991040920000e-01
  3.68657280850000e-02
  1.79871896120000e+02
  4.21200693760000e+01
  1.31205030320000e+01
  4.62575036090000e+00
  1.66952110160000e+00
  5.85510121050000e-01
  1.89147961950000e-01
  5.37687551870000e-02
  3.44400000000000e+00
  2.90000000000000e-01
  7.00000000000000e-02
  3.14383495550000e+04
  4.71551533540000e+03
  1.07316292470000e+03
  3.03572387680000e+02
  9.86262510420000e+01
  3.49438084170000e+01
  1.28597851990000e+01
  6.48769130040000e+01
  1.97255207770000e+01
  2.89518043390000e+00
  1.19604547100000e+00
  5.43294511560000e-01
  1.00991040920000e-01
  3.68657280850000e-02
  1.79871896120000e+02
  4.21200693760000e+01
  1.31205030320000e+01
  4.62575036090000e+00
  1.66952110160000e+00
  5.85510121050000e-01
  1.89147961950000e-01
  5.37687551870000e-02
  3.44400000000000e+00
  2.90000000000000e-01
  7.00000000000000e-02
  3.14383495550000e+04
  4.71551533540000e+03
  1.07316292470000e+03
  3.03572387680000e+02
  9.86262510420000e+01
  3.49438084170000e+01
  1.28597851990000e+01
  6.48769130040000e+01
  1.97255207770000e+01
  2.89518043390000e+00
  1.19604547100000e+00
  5.43294511560000e-01
  1.00991040920000e-01
  3.68657280850000e-02
  1.79871896120000e+02
  4.21200693760000e+01
  1.31205030320000e+01
  4.62575036090000e+00
  1.66952110160000e+00
  5.85510121050000e-01
  1.89147961950000e-01
  5.37687551870000e-02
  3.44400000000000e+00
  2.90000000000000e-01
  7.00000000000000e-02
  3.14383495550000e+04
  4.71551533540000e+03
  1.07316292470000e+03
  3.03572387680000e+02
  9.86262510420000e+01
  3.49438084170000e+01
  1.28597851990000e+01
  6.48769130040000e+01
  1.97255207770000e+01
  2.89518043390000e+00
  1.19604547100000e+00
  5.43294511560000e-01
  1.00991040920000e-01
  3.68657280850000e-02
  1.79871896120000e+02
  4.21200693760000e+01
  1.31205030320000e+01
  4.62575036090000e+00
  1.66952110160000e+00
  5.85510121050000e-01
  1.89147961950000e-01
  5.37687551870000e-02
  3.44400000000000e+00
  2.90000000000000e-01
  7.00000000000000e-02
  3.14383495550000e+04
  4.71551533540000e+03
  1.07316292470000e+03
  3.03572387680000e+02
  9.86262510420000e+01
  3.49438084170000e+01
  1.28597851990000e+01
  6.48769130040000e+01
  1.97255207770000e+01
  2.89518043390000e+00
  1.19604547100000e+00
  5.43294511560000e-01
  1.00991040920000e-01
  3.68657280850000e-02
  1.79871896120000e+02
  4.21200693760000e+01
  1.31205030320000e+01
  4.62575036090000e+00
  1.66952110160000e+00
  5.85510121050000e-01
  1.89147961950000e-01
  5.37687551870000e-02
  3.44400000000000e+00
  2.90000000000000e-01
  7.00000000000000e-02
  3.14383495550000e+04
  4.71551533540000e+03
  1.07316292470000e+03
  3.03572387680000e+02
  9.86262510420000e+01
  3.49438084170000e+01
  1.28597851990000e+01
  6.48769130040000e+01
  1.97255207770000e+01
  2.89518043390000e+00
  1.19604547100000e+00
  5.43294511560000e-01
  1.00991040920000e-01
  3.68657280850000e-02
  1.79871896120000e+02
  4.21200693760000e+01
  1.31205030320000e+01
  4.62575036090000e+00
  1.66952110160000e+00
  5.85510121050000e-01
  1.89147961950000e-01
  5.37687551870000e-02
  3.44400000000000e+00
  2.90000000000000e-01
  7.00000000000000e-02
  3.14383495550000e+04
  4.71551533540000e+03
  1.07316292470000e+03
  3.03572387680000e+02
  9.86262510420000e+01
  3.49438084170000e+01
  1.28597851990000e+01
  6.48769130040000e+01
  1.97255207770000e+01
  2.89518043390000e+00
  1.19604547100000e+00
  5.43294511560000e-01
  1.00991040920000e-01
  3.68657280850000e-02
  1.79871896120000e+02
  4.21200693760000e+01
  1.31205030320000e+01
  4.62575036090000e+00
  1.66952110160000e+00
  5.85510121050000e-01
  1.89147961950000e-01
  5.37687551870000e-02
  3.44400000000000e+00
  2.90000000000000e-01
  7.00000000000000e-02
  3.14383495550000e+04
  4.71551533540000e+03
  1.07316292470000e+03
  3.03572387680000e+02
  9.86262510420000e+01
  3.49438084170000e+01
  1.28597851990000e+01
  6.48769130040000e+01
  1.97255207770000e+01
  2.89518043390000e+00
  1.19604547100000e+00
  5.43294511560000e-01
  1.00991040920000e-01
  3.68657280850000e-02
  1.79871896120000e+02
  4.21200693760000e+01
  1.31205030320000e+01
  4.62575036090000e+00
  1.66952110160000e+00
  5.85510121050000e-01
  1.89147961950000e-01
  5.37687551870000e-02
  3.44400000000000e+00
  2.90000000000000e-01
  7.00000000000000e-02
  3.14383495550000e+04
  4.71551533540000e+03
  1.07316292470000e+03
  3.03572387680000e+02
  9.86262510420000e+01
  3.49438084170000e+01
  1.28597851990000e+01
  6.48769130040000e+01
  1.97255207770000e+01
  2.89518043390000e+00
  1.19604547100000e+00
  5.43294511560000e-01
  1.00991040920000e-01
  3.68657280850000e-02
  1.79871896120000e+02
  4.21200693760000e+01
  1.31205030320000e+01
  4.62575036090000e+00
  1.66952110160000e+00
  5.85510121050000e-01
  1.89147961950000e-01
  5.37687551870000e-02
  3.44400000000000e+00
  2.90000000000000e-01
  7.00000000000000e-02
  3.14383495550000e+04
  4.71551533540000e+03
  1.07316292470000e+03
  3.03572387680000e+02
  9.86262510420000e+01
  3.49438084170000e+01
  1.28597851990000e+01
  6.48769130040000e+01
  1.97255207770000e+01
  2.89518043390000e+00
  1.19604547100000e+00
  5.43294511560000e-01
  1.00991040920000e-01
  3.68657280850000e-02
  1.79871896120000e+02
  4.21200693760000e+01
  1.31205030320000e+01
  4.62575036090000e+00
  1.66952110160000e+00
  5.85510121050000e-01
  1.89147961950000e-01
  5.37687551870000e-02
  3.44400000000000e+00
  2.90000000000000e-01
  7.00000000000000e-02
  3.14383495550000e+04
  4.71551533540000e+03
  1.07316292470000e+03
  3.03572387680000e+02
  9.86262510420000e+01
  3.49438084170000e+01
  1.28597851990000e+01
  6.48769130040000e+01
  1.97255207770000e+01
  2.89518043390000e+00
  1.19604547100000e+00
  5.43294511560000e-01
  1.00991040920000e-01
  3.68657280850000e-02
  1.79871896120000e+02
  4.21200693760000e+01
  1.31205030320000e+01
  4.62575036090000e+00
  1.66952110160000e+00
  5.85510121050000e-01
  1.89147961950000e-01
  5.37687551870000e-02
  3.44400000000000e+00
  2.90000000000000e-01
  7.00000000000000e-02
  3.14383495550000e+04
  4.71551533540000e+03
  1.07316292470000e+03
  3.03572387680000e+02
  9.86262510420000e+01
  3.49438084170000e+01
  1.28597851990000e+01
  6.48769130040000e+01
  1.97255207770000e+01
  2.89518043390000e+00
  1.19604547100000e+00
  5.43294511560000e-01
  1.00991040920000e-01
  3.68657280850000e-02
  1.79871896120000e+02
  4.21200693760000e+01
  1.31205030320000e+01
  4.62575036090000e+00
  1.66952110160000e+00
  5.85510121050000e-01
  1.89147961950000e-01
  5.37687551870000e-02
  3.44400000000000e+00
  2.90000000000000e-01
  7.00000000000000e-02
  3.14383495550000e+04
  4.71551533540000e+03
  1.07316292470000e+03
  3.03572387680000e+02
  9.86262510420000e+01
  3.49438084170000e+01
  1.28597851990000e+01
  6.48769130040000e+01
  1.97255207770000e+01
  2.89518043390000e+00
  1.19604547100000e+00
  5.43294511560000e-01
  1.00991040920000e-01
  3.68657280850000e-02
  1.79871896120000e+02
  4.21200693760000e+01
  1.31205030320000e+01
  4.62575036090000e+00
  1.66952110160000e+00
  5.85510121050000e-01
  1.89147961950000e-01
  5.37687551870000e-02
  3.44400000000000e+00
  2.90000000000000e-01
  7.00000000000000e-02
  3.14383495550000e+04
  4.71551533540000e+03
  1.07316292470000e+03
  3.03572387680000e+02
  9.86262510420000e+01
  3.49438084170000e+01
  1.28597851990000e+01
  6.48769130040000e+01
  1.97255207770000e+01
  2.89518043390000e+00
  1.19604547100000e+00
  5.43294511560000e-01
  1.00991040920000e-01
  3.68657280850000e-02
  1.79871896120000e+02
  4.21200693760000e+01
  1.31205030320000e+01
  4.62575036090000e+00
  1.66952110160000e+00
  5.85510121050000e-01
  1.89147961950000e-01
  5.37687551870000e-02
  3.44400000000000e+00
  2.90000000000000e-01
  7.00000000000000e-02
  3.14383495550000e+04
  4.71551533540000e+03
  1.07316292470000e+03
  3.03572387680000e+02
  9.86262510420000e+01
  3.49438084170000e+01
  1.28597851990000e+01
  6.48769130040000e+01
  1.97255207770000e+01
  2.89518043390000e+00
  1.19604547100000e+00
  5.43294511560000e-01
  1.00991040920000e-01
  3.68657280850000e-02
  1.79871896120000e+02
  4.21200693760000e+01
  1.31205030320000e+01
  4.62575036090000e+00
  1.66952110160000e+00
  5.85510121050000e-01
  1.89147961950000e-01
  5.37687551870000e-02
  3.44400000000000e+00
  2.90000000000000e-01
  7.00000000000000e-02
  3.14383495550000e+04
  4.71551533540000e+03
  1.07316292470000e+03
  3.03572387680000e+02
  9.86262510420000e+01
  3.49438084170000e+01
  1.28597851990000e+01
  6.48769130040000e+01
  1.97255207770000e+01
  2.89518043390000e+00
  1.19604547100000e+00
  5.43294511560000e-01
  1.00991040920000e-01
  3.68657280850000e-02
  1.79871896120000e+02
  4.21200693760000e+01
  1.31205030320000e+01
  4.62575036090000e+00
  1.66952110160000e+00
  5.85510121050000e-01
  1.89147961950000e-01
  5.37687551870000e-02
  3.44400000000000e+00
  2.90000000000000e-01
  7.00000000000000e-02
  3.14383495550000e+04
  4.71551533540000e+03
  1.07316292470000e+03
  3.03572387680000e+02
  9.86262510420000e+01
  3.49438084170000e+01
  1.28597851990000e+01
  6.48769130040000e+01
  1.97255207770000e+01
  2.89518043390000e+00
  1.19604547100000e+00
  5.43294511560000e-01
  1.00991040920000e-01
  3.68657280850000e-02
  1.79871896120000e+02
  4.21200693760000e+01
  1.31205030320000e+01
  4.62575036090000e+00
  1.66952110160000e+00
  5.85510121050000e-01
  1.89147961950000e-01
  5.37687551870000e-02
  3.44400000000000e+00
  2.90000000000000e-01
  7.00000000000000e-02
  3.14383495550000e+04
  4.71551533540000e+03
  1.07316292470000e+03
  3.03572387680000e+02
  9.86262510420000e+01
  3.49438084170000e+01
  1.28597851990000e+01
  6.48769130040000e+01
  1.97255207770000e+01
  2.89518043390000e+00
  1.19604547100000e+00
  5.43294511560000e-01
  1.00991040920000e-01
  3.68657280850000e-02
  1.79871896120000e+02
  4.21200693760000e+01
  1.31205030320000e+01
  4.62575036090000e+00
  1.66952110160000e+00
  5.85510121050000e-01
  1.89147961950000e-01
  5.37687551870000e-02
  3.44400000000000e+00
  2.90000000000000e-01
  7.00000000000000e-02
  3.14383495550000e+04
  4.71551533540000e+03
  1.07316292470000e+03
  3.03572387680000e+02
  9.86262510420000e+01
  3.49438084170000e+01
  1.28597851990000e+01
  6.48769130040000e+01
  1.97255207770000e+01
  2.89518043390000e+00
  1.19604547100000e+00
  5.43294511560000e-01
  1.00991040920000e-01
  3.68657280850000e-02
  1.79871896120000e+02
  4.21200693760000e+01
  1.31205030320000e+01
  4.62575036090000e+00
  1.66952110160000e+00
  5.85510121050000e-01
  1.89147961950000e-01
  5.37687551870000e-02
  3.44400000000000e+00
  2.90000000000000e-01
  7.00000000000000e-02
  3.14383495550000e+04
  4.71551533540000e+03
  1.07316292470000e+03
  3.03572387680000e+02
  9.86262510420000e+01
  3.49438084170000e+01
  1.28597851990000e+01
  6.48769130040000e+01
  1.97255207770000e+01
  2.89518043390000e+00
  1.19604547100000e+00
  5.43294511560000e-01
  1.00991040920000e-01
  3.68657280850000e-02
  1.79871896120000e+02
  4.21200693760000e+01
  1.31205030320000e+01
  4.62575036090000e+00
  1.66952110160000e+00
  5.85510121050000e-01
  1.89147961950000e-01
  5.37687551870000e-02
  3.44400000000000e+00
  2.90000000000000e-01
  7.00000000000000e-02
  3.14383495550000e+04
  4.71551533540000e+03
  1.07316292470000e+03
  3.03572387680000e+02
  9.86262510420000e+01
  3.49438084170000e+01
  1.28597851990000e+01
  6.48769130040000e+01
  1.97255207770000e+01
  2.89518043390000e+00
  1.19604547100000e+00
  5.43294511560000e-01
  1.00991040920000e-01
  3.68657280850000e-02
  1.79871896120000e+02
  4.21200693760000e+01
  1.31205030320000e+01
  4.62575036090000e+00
  1.66952110160000e+00
  5.85510121050000e-01
  1.89147961950000e-01
  5.37687551870000e-02
  3.44400000000000e+00
  2.90000000000000e-01
  7.00000000000000e-02
  2.70323826310000e+04
  4.05238713920000e+03
  9.22327227100000e+02
  2.61240709890000e+02
  8.53546413510000e+01
  3.10350352450000e+01
  1.22608607280000e+01
  4.99870760050000e+00
  1.17031081580000e+00
  4.64747409940000e-01
  1.85045363570000e-01
  6.32749548010000e+01
  1.46270493790000e+01
  4.45012234560000e+00
  1.52757996470000e+00
  5.29351179430000e-01
  1.74784212700000e-01
  2.31400000000000e+00
  6.45000000000000e-01
  1.42800000000000e+00
  2.70323826310000e+04
  4.05238713920000e+03
  9.22327227100000e+02
  2.61240709890000e+02
  8.53546413510000e+01
  3.10350352450000e+01
  1.22608607280000e+01
  4.99870760050000e+00
  1.17031081580000e+00
  4.64747409940000e-01
  1.85045363570000e-01
  6.32749548010000e+01
  1.46270493790000e+01
  4.45012234560000e+00
  1.52757996470000e+00
  5.29351179430000e-01
  1.74784212700000e-01
  2.31400000000000e+00
  6.45000000000000e-01
  1.42800000000000e+00
  2.70323826310000e+04
  4.05238713920000e+03
  9.22327227100000e+02
  2.61240709890000e+02
  8.53546413510000e+01
  3.10350352450000e+01
  1.22608607280000e+01
  4.99870760050000e+00
  1.17031081580000e+00
  4.64747409940000e-01
  1.85045363570000e-01
  6.32749548010000e+01
  1.46270493790000e+01
  4.45012234560000e+00
  1.52757996470000e+00
  5.29351179430000e-01
  1.74784212700000e-01
  2.31400000000000e+00
  6.45000000000000e-01
  1.42800000000000e+00
  2.70323826310000e+04
  4.05238713920000e+03
  9.22327227100000e+02
  2.61240709890000e+02
  8.53546413510000e+01
  3.10350352450000e+01
  1.22608607280000e+01
  4.99870760050000e+00
  1.17031081580000e+00
  4.64747409940000e-01
  1.85045363570000e-01
  6.32749548010000e+01
  1.46270493790000e+01
  4.45012234560000e+00
  1.52757996470000e+00
  5.29351179430000e-01
  1.74784212700000e-01
  2.31400000000000e+00
  6.45000000000000e-01
  1.42800000000000e+00
  2.70323826310000e+04
  4.05238713920000e+03
  9.22327227100000e+02
  2.61240709890000e+02
  8.53546413510000e+01
  3.10350352450000e+01
  1.22608607280000e+01
  4.99870760050000e+00
  1.17031081580000e+00
  4.64747409940000e-01
  1.85045363570000e-01
  6.32749548010000e+01
  1.46270493790000e+01
  4.45012234560000e+00
  1.52757996470000e+00
  5.29351179430000e-01
  1.74784212700000e-01
  2.31400000000000e+00
  6.45000000000000e-01
  1.42800000000000e+00
  2.70323826310000e+04
  4.05238713920000e+03
  9.22327227100000e+02
  2.61240709890000e+02
  8.53546413510000e+01
  3.10350352450000e+01
  1.22608607280000e+01
  4.99870760050000e+00
  1.17031081580000e+00
  4.64747409940000e-01
  1.85045363570000e-01
  6.32749548010000e+01
  1.46270493790000e+01
  4.45012234560000e+00
  1.52757996470000e+00
  5.29351179430000e-01
  1.74784212700000e-01
  2.31400000000000e+00
  6.45000000000000e-01
  1.42800000000000e+00
  2.70323826310000e+04
  4.05238713920000e+03
  9.22327227100000e+02
  2.61240709890000e+02
  8.53546413510000e+01
  3.10350352450000e+01
  1.22608607280000e+01
  4.99870760050000e+00
  1.17031081580000e+00
  4.64747409940000e-01
  1.85045363570000e-01
  6.32749548010000e+01
  1.46270493790000e+01
  4.45012234560000e+00
  1.52757996470000e+00
  5.29351179430000e-01
  1.74784212700000e-01
  2.31400000000000e+00
  6.45000000000000e-01
  1.42800000000000e+00
  2.70323826310000e+04
  4.05238713920000e+03
  9.22327227100000e+02
  2.61240709890000e+02
  8.53546413510000e+01
  3.10350352450000e+01
  1.22608607280000e+01
  4.99870760050000e+00
  1.17031081580000e+00
  4.64747409940000e-01
  1.85045363570000e-01
  6.32749548010000e+01
  1.46270493790000e+01
  4.45012234560000e+00
  1.52757996470000e+00
  5.29351179430000e-01
  1.74784212700000e-01
  2.31400000000000e+00
  6.45000000000000e-01
  1.42800000000000e+00
  2.70323826310000e+04
  4.05238713920000e+03
  9.22327227100000e+02
  2.61240709890000e+02
  8.53546413510000e+01
  3.10350352450000e+01
  1.22608607280000e+01
  4.99870760050000e+00
  1.17031081580000e+00
  4.64747409940000e-01
  1.85045363570000e-01
  6.32749548010000e+01
  1.46270493790000e+01
  4.45012234560000e+00
  1.52757996470000e+00
  5.29351179430000e-01
  1.74784212700000e-01
  2.31400000000000e+00
  6.45000000000000e-01
  1.42800000000000e+00
  2.70323826310000e+04
  4.05238713920000e+03
  9.22327227100000e+02
  2.61240709890000e+02
  8.53546413510000e+01
  3.10350352450000e+01
  1.22608607280000e+01
  4.99870760050000e+00
  1.17031081580000e+00
  4.64747409940000e-01
  1.85045363570000e-01
  6.32749548010000e+01
  1.46270493790000e+01
  4.45012234560000e+00
  1.52757996470000e+00
  5.29351179430000e-01
  1.74784212700000e-01
  2.31400000000000e+00
  6.45000000000000e-01
  1.42800000000000e+00
  2.70323826310000e+04
  4.05238713920000e+03
  9.22327227100000e+02
  2.61240709890000e+02
  8.53546413510000e+01
  3.10350352450000e+01
  1.22608607280000e+01
  4.99870760050000e+00
  1.17031081580000e+00
  4.64747409940000e-01
  1.85045363570000e-01
  6.32749548010000e+01
  1.46270493790000e+01
  4.45012234560000e+00
  1.52757996470000e+00
  5.29351179430000e-01
  1.74784212700000e-01
  2.31400000000000e+00
  6.45000000000000e-01
  1.42800000000000e+00
  2.70323826310000e+04
  4.05238713920000e+03
  9.22327227100000e+02
  2.61240709890000e+02
  8.53546413510000e+01
  3.10350352450000e+01
  1.22608607280000e+01
  4.99870760050000e+00
  1.17031081580000e+00
  4.64747409940000e-01
  1.85045363570000e-01
  6.32749548010000e+01
  1.46270493790000e+01
  4.45012234560000e+00
  1.52757996470000e+00
  5.29351179430000e-01
  1.74784212700000e-01
  2.31400000000000e+00
  6.45000000000000e-01
  1.42800000000000e+00
  2.70323826310000e+04
  4.05238713920000e+03
  9.22327227100000e+02
  2.61240709890000e+02
  8.53546413510000e+01
  3.10350352450000e+01
  1.22608607280000e+01
  4.99870760050000e+00
  1.17031081580000e+00
  4.64747409940000e-01
  1.85045363570000e-01
  6.32749548010000e+01
  1.46270493790000e+01
  4.45012234560000e+00
  1.52757996470000e+00
  5.29351179430000e-01
  1.74784212700000e-01
  2.31400000000000e+00
  6.45000000000000e-01
  1.42800000000000e+00
  2.70323826310000e+04
  4.05238713920000e+03
  9.22327227100000e+02
  2.61240709890000e+02
  8.53546413510000e+01
  3.10350352450000e+01
  1.22608607280000e+01
  4.99870760050000e+00
  1.17031081580000e+00
  4.64747409940000e-01
  1.85045363570000e-01
  6.32749548010000e+01
  1.46270493790000e+01
  4.45012234560000e+00
  1.52757996470000e+00
  5.29351179430000e-01
  1.74784212700000e-01
  2.31400000000000e+00
  6.45000000000000e-01
  1.42800000000000e+00
  2.70323826310000e+04
  4.05238713920000e+03
  9.22327227100000e+02
  2.61240709890000e+02
  8.53546413510000e+01
  3.10350352450000e+01
  1.22608607280000e+01
  4.99870760050000e+00
  1.17031081580000e+00
  4.64747409940000e-01
  1.85045363570000e-01
  6.32749548010000e+01
  1.46270493790000e+01
  4.45012234560000e+00
  1.52757996470000e+00
  5.29351179430000e-01
  1.74784212700000e-01
  2.31400000000000e+00
  6.45000000000000e-01
  1.42800000000000e+00
  2.70323826310000e+04
  4.05238713920000e+03
  9.22327227100000e+02
  2.61240709890000e+02
  8.53546413510000e+01
  3.10350352450000e+01
  1.22608607280000e+01
  4.99870760050000e+00
  1.17031081580000e+00
  4.64747409940000e-01
  1.85045363570000e-01
  6.32749548010000e+01
  1.46270493790000e+01
  4.45012234560000e+00
  1.52757996470000e+00
  5.29351179430000e-01
  1.74784212700000e-01
  2.31400000000000e+00
  6.45000000000000e-01
  1.42800000000000e+00
  2.70323826310000e+04
  4.05238713920000e+03
  9.22327227100000e+02
  2.61240709890000e+02
  8.53546413510000e+01
  3.10350352450000e+01
  1.22608607280000e+01
  4.99870760050000e+00
  1.17031081580000e+00
  4.64747409940000e-01
  1.85045363570000e-01
  6.32749548010000e+01
  1.46270493790000e+01
  4.45012234560000e+00
  1.52757996470000e+00
  5.29351179430000e-01
  1.74784212700000e-01
  2.31400000000000e+00
  6.45000000000000e-01
  1.42800000000000e+00
  2.70323826310000e+04
  4.05238713920000e+03
  9.22327227100000e+02
  2.61240709890000e+02
  8.53546413510000e+01
  3.10350352450000e+01
  1.22608607280000e+01
  4.99870760050000e+00
  1.17031081580000e+00
  4.64747409940000e-01
  1.85045363570000e-01
  6.32749548010000e+01
  1.46270493790000e+01
  4.45012234560000e+00
  1.52757996470000e+00
  5.29351179430000e-01
  1.74784212700000e-01
  2.31400000000000e+00
  6.45000000000000e-01
  1.42800000000000e+00
  2.70323826310000e+04
  4.05238713920000e+03
  9.22327227100000e+02
  2.61240709890000e+02
  8.53546413510000e+01
  3.10350352450000e+01
  1.22608607280000e+01
  4.99870760050000e+00
  1.17031081580000e+00
  4.64747409940000e-01
  1.85045363570000e-01
  6.32749548010000e+01
  1.46270493790000e+01
  4.45012234560000e+00
  1.52757996470000e+00
  5.29351179430000e-01
  1.74784212700000e-01
  2.31400000000000e+00
  6.45000000000000e-01
  1.42800000000000e+00
  2.70323826310000e+04
  4.05238713920000e+03
  9.22327227100000e+02
  2.61240709890000e+02
  8.53546413510000e+01
  3.10350352450000e+01
  1.22608607280000e+01
  4.99870760050000e+00
  1.17031081580000e+00
  4.64747409940000e-01
  1.85045363570000e-01
  6.32749548010000e+01
  1.46270493790000e+01
  4.45012234560000e+00
  1.52757996470000e+00
  5.29351179430000e-01
  1.74784212700000e-01
  2.31400000000000e+00
  6.45000000000000e-01
  1.42800000000000e+00
  2.70323826310000e+04
  4.05238713920000e+03
  9.22327227100000e+02
  2.61240709890000e+02
  8.53546413510000e+01
  3.10350352450000e+01
  1.22608607280000e+01
  4.99870760050000e+00
  1.17031081580000e+00
  4.64747409940000e-01
  1.85045363570000e-01
  6.32749548010000e+01
  1.46270493790000e+01
  4.45012234560000e+00
  1.52757996470000e+00
  5.29351179430000e-01
  1.74784212700000e-01
  2.31400000000000e+00
  6.45000000000000e-01
  1.42800000000000e+00
  2.70323826310000e+04
  4.05238713920000e+03
  9.22327227100000e+02
  2.61240709890000e+02
  8.53546413510000e+01
  3.10350352450000e+01
  1.22608607280000e+01
  4.99870760050000e+00
  1.17031081580000e+00
  4.64747409940000e-01
  1.85045363570000e-01
  6.32749548010000e+01
  1.46270493790000e+01
  4.45012234560000e+00
  1.52757996470000e+00
  5.29351179430000e-01
  1.74784212700000e-01
  2.31400000000000e+00
  6.45000000000000e-01
  1.42800000000000e+00
  2.70323826310000e+04
  4.05238713920000e+03
  9.22327227100000e+02
  2.61240709890000e+02
  8.53546413510000e+01
  3.10350352450000e+01
  1.22608607280000e+01
  4.99870760050000e+00
  1.17031081580000e+00
  4.64747409940000e-01
  1.85045363570000e-01
  6.32749548010000e+01
  1.46270493790000e+01
  4.45012234560000e+00
  1.52757996470000e+00
  5.29351179430000e-01
  1.74784212700000e-01
  2.31400000000000e+00
  6.45000000000000e-01
  1.42800000000000e+00
  2.70323826310000e+04
  4.05238713920000e+03
  9.22327227100000e+02
  2.61240709890000e+02
  8.53546413510000e+01
  3.10350352450000e+01
  1.22608607280000e+01
  4.99870760050000e+00
  1.17031081580000e+00
  4.64747409940000e-01
  1.85045363570000e-01
  6.32749548010000e+01
  1.46270493790000e+01
  4.45012234560000e+00
  1.52757996470000e+00
  5.29351179430000e-01
  1.74784212700000e-01
  2.31400000000000e+00
  6.45000000000000e-01
  1.42800000000000e+00
  2.70323826310000e+04
  4.05238713920000e+03
  9.22327227100000e+02
  2.61240709890000e+02
  8.53546413510000e+01
  3.10350352450000e+01
  1.22608607280000e+01
  4.99870760050000e+00
  1.17031081580000e+00
  4.64747409940000e-01
  1.85045363570000e-01
  6.32749548010000e+01
  1.46270493790000e+01
  4.45012234560000e+00
  1.52757996470000e+00
  5.29351179430000e-01
  1.74784212700000e-01
  2.31400000000000e+00
  6.45000000000000e-01
  1.42800000000000e+00
  2.70323826310000e+04
  4.05238713920000e+03
  9.22327227100000e+02
  2.61240709890000e+02
  8.53546413510000e+01
  3.10350352450000e+01
  1.22608607280000e+01
  4.99870760050000e+00
  1.17031081580000e+00
  4.64747409940000e-01
  1.85045363570000e-01
  6.32749548010000e+01
  1.46270493790000e+01
  4.45012234560000e+00
  1.52757996470000e+00
  5.29351179430000e-01
  1.74784212700000e-01
  2.31400000000000e+00
  6.45000000000000e-01
  1.42800000000000e+00
  2.70323826310000e+04
  4.05238713920000e+03
  9.22327227100000e+02
  2.61240709890000e+02
  8.53546413510000e+01
  3.10350352450000e+01
  1.22608607280000e+01
  4.99870760050000e+00
  1.17031081580000e+00
  4.64747409940000e-01
  1.85045363570000e-01
  6.32749548010000e+01
  1.46270493790000e+01
  4.45012234560000e+00
  1.52757996470000e+00
  5.29351179430000e-01
  1.74784212700000e-01
  2.31400000000000e+00
  6.45000000000000e-01
  1.42800000000000e+00
  2.70323826310000e+04
  4.05238713920000e+03
  9.22327227100000e+02
  2.61240709890000e+02
  8.53546413510000e+01
  3.10350352450000e+01
  1.22608607280000e+01
  4.99870760050000e+00
  1.17031081580000e+00
  4.64747409940000e-01
  1.85045363570000e-01
  6.32749548010000e+01
  1.46270493790000e+01
  4.45012234560000e+00
  1.52757996470000e+00
  5.29351179430000e-01
  1.74784212700000e-01
  2.31400000000000e+00
  6.45000000000000e-01
  1.42800000000000e+00
  2.70323826310000e+04
  4.05238713920000e+03
  9.22327227100000e+02
  2.61240709890000e+02
  8.53546413510000e+01
  3.10350352450000e+01
  1.22608607280000e+01
  4.99870760050000e+00
  1.17031081580000e+00
  4.64747409940000e-01
  1.85045363570000e-01
  6.32749548010000e+01
  1.46270493790000e+01
  4.45012234560000e+00
  1.52757996470000e+00
  5.29351179430000e-01
  1.74784212700000e-01
  2.31400000000000e+00
  6.45000000000000e-01
  1.42800000000000e+00
  2.70323826310000e+04
  4.05238713920000e+03
  9.22327227100000e+02
  2.61240709890000e+02
  8.53546413510000e+01
  3.10350352450000e+01
  1.22608607280000e+01
  4.99870760050000e+00
  1.17031081580000e+00
  4.64747409940000e-01
  1.85045363570000e-01
  6.32749548010000e+01
  1.46270493790000e+01
  4.45012234560000e+00
  1.52757996470000e+00
  5.29351179430000e-01
  1.74784212700000e-01
  2.31400000000000e+00
  6.45000000000000e-01
  1.42800000000000e+00
  2.70323826310000e+04
  4.05238713920000e+03
  9.22327227100000e+02
  2.61240709890000e+02
  8.53546413510000e+01
  3.10350352450000e+01
  1.22608607280000e+01
  4.99870760050000e+00
  1.17031081580000e+00
  4.64747409940000e-01
  1.85045363570000e-01
  6.32749548010000e+01
  1.46270493790000e+01
  4.45012234560000e+00
  1.52757996470000e+00
  5.29351179430000e-01
  1.74784212700000e-01
  2.31400000000000e+00
  6.45000000000000e-01
  1.42800000000000e+00
  2.70323826310000e+04
  4.05238713920000e+03
  9.22327227100000e+02
  2.61240709890000e+02
  8.53546413510000e+01
  3.10350352450000e+01
  1.22608607280000e+01
  4.99870760050000e+00
  1.17031081580000e+00
  4.64747409940000e-01
  1.85045363570000e-01
  6.32749548010000e+01
  1.46270493790000e+01
  4.45012234560000e+00
  1.52757996470000e+00
  5.29351179430000e-01
  1.74784212700000e-01
  2.31400000000000e+00
  6.45000000000000e-01
  1.42800000000000e+00
  2.70323826310000e+04
  4.05238713920000e+03
  9.22327227100000e+02
  2.61240709890000e+02
  8.53546413510000e+01
  3.10350352450000e+01
  1.22608607280000e+01
  4.99870760050000e+00
  1.17031081580000e+00
  4.64747409940000e-01
  1.85045363570000e-01
  6.32749548010000e+01
  1.46270493790000e+01
  4.45012234560000e+00
  1.52757996470000e+00
  5.29351179430000e-01
  1.74784212700000e-01
  2.31400000000000e+00
  6.45000000000000e-01
  1.42800000000000e+00

  5.43590637341640e-01
  1.01455440957678e+00
  1.73157320313973e+00
  2.69103762923255e+00
  3.60445471307904e+00
  3.70255569805205e+00
  1.83835408314535e+00
  5.44757560454096e-01
  4.71814503811503e-01
  2.36494467595494e-01
  1.22114184794684e-01
  1.35966514595563e+00
  1.45125894851184e+00
  1.27092314192642e+00
  8.02572118948022e-01
  3.01875886874207e-01
  8.07265016506241e-02
  1.93540141597197e+00
  2.21644478159161e-01
  7.96287553418135e-01
  9.73106087343933e-01
  1.81224237364027e+00
  3.06211587998873e+00
  4.60751974293548e+00
  5.64285406447072e+00
  4.65737548687379e+00
  1.54844590126125e+00
  8.85003440430803e-01
  1.71754964781258e+00
 -1.77240444183369e+00
  6.34755069264484e-01
  1.08825269910943e-01
  1.27679810259400e-01
  5.99621510139067e-02
  5.83395367839964e+00
  6.94517385554491e+00
  6.47033263889273e+00
  4.01128311017259e+00
  1.42249246390442e+00
  7.30059230239136e-01
  1.77804263529115e-01
  3.69064748804282e-02
  1.43307841944265e+01
  1.88627909885626e-01
  1.56794572814139e-02
  9.73106087343933e-01
  1.81224237364027e+00
  3.06211587998873e+00
  4.60751974293548e+00
  5.64285406447072e+00
  4.65737548687379e+00
  1.54844590126125e+00
  8.85003440430803e-01
  1.71754964781258e+00
 -1.77240444183369e+00
  6.34755069264484e-01
  1.08825269910943e-01
  1.27679810259400e-01
  5.99621510139067e-02
  5.83395367839964e+00
  6.94517385554491e+00
  6.47033263889273e+00
  4.01128311017259e+00
  1.42249246390442e+00
  7.30059230239136e-01
  1.77804263529115e-01
  3.69064748804282e-02
  1.43307841944265e+01
  1.88627909885626e-01
  1.56794572814139e-02
  9.73106087343933e-01
  1.81224237364027e+00
  3.06211587998873e+00
  4.60751974293548e+00
  5.64285406447072e+00
  4.65737548687379e+00
  1.54844590126125e+00
  8.85003440430803e-01
  1.71754964781258e+00
 -1.77240444183369e+00
  6.34755069264484e-01
  1.08825269910943e-01
  1.27679810259400e-01
  5.99621510139067e-02
  5.83395367839964e+00
  6.94517385554491e+00
  6.47033263889273e+00
  4.01128311017259e+00
  1.42249246390442e+00
  7.30059230239136e-01
  1.77804263529115e-01
  3.69064748804282e-02
  1.43307841944265e+01
  1.88627909885626e-01
  1.56794572814139e-02
  9.73106087343933e-01
  1.81224237364027e+00
  3.06211587998873e+00
  4.60751974293548e+00
  5.64285406447072e+00
  4.65737548687379e+00
  1.54844590126125e+00
  8.85003440430803e-01
  1.71754964781258e+00
 -1.77240444183369e+00
  6.34755069264484e-01
  1.08825269910943e-01
  1.27679810259400e-01
  5.99621510139067e-02
  5.83395367839964e+00
  6.94517385554491e+00
  6.47033263889273e+00
  4.01128311017259e+00
  1.42249246390442e+00
  7.30059230239136e-01
  1.77804263529115e-01
  3.69064748804282e-02
  1.43307841944265e+01
  1.88627909885626e-01
  1.56794572814139e-02
  9.73106087343933e-01
  1.81224237364027e+00
  3.06211587998873e+00
  4.60751974293548e+00
  5.64285406447072e+00
  4.65737548687379e+00
  1.54844590126125e+00
  8.85003440430803e-01
  1.71754964781258e+00
 -1.77240444183369e+00
  6.34755069264484e-01
  1.08825269910943e-01
  1.27679810259400e-01
  5.99621510139067e-02
  5.83395367839964e+00
  6.94517385554491e+00
  6.47033263889273e+00
  4.01128311017259e+00
  1.42249246390442e+00
  7.30059230239136e-01
  1.77804263529115e-01
  3.69064748804282e-02
  1.43307841944265e+01
  1.88627909885626e-01
  1.56794572814139e-02
  9.73106087343933e-01
  1.81224237364027e+00
  3.06211587998873e+00
  4.60751974293548e+00
  5.64285406447072e+00
  4.65737548687379e+00
  1.54844590126125e+00
  8.85003440430803e-01
  1.71754964781258e+00
 -1.77240444183369e+00
  6.34755069264484e-01
  1.08825269910943e-01
  1.27679810259400e-01
  5.99621510139067e-02
  5.83395367839964e+00
  6.94517385554491e+00
  6.47033263889273e+00
  4.01128311017259e+00
  1.42249246390442e+00
  7.30059230239136e-01
  1.77804263529115e-01
  3.69064748804282e-02
  1.43307841944265e+01
  1.88627909885626e-01
  1.56794572814139e-02
  9.73106087343933e-01
  1.81224237364027e+00
  3.06211587998873e+00
  4.60751974293548e+00
  5.64285406447072e+00
  4.65737548687379e+00
  1.54844590126125e+00
  8.85003440430803e-01
  1.71754964781258e+00
 -1.77240444183369e+00
  6.34755069264484e-01
  1.08825269910943e-01
  1.27679810259400e-01
  5.99621510139067e-02
  5.83395367839964e+00
  6.94517385554491e+00
  6.47033263889273e+00
  4.01128311017259e+00
  1.42249246390442e+00
  7.30059230239136e-01
  1.77804263529115e-01
  3.69064748804282e-02
  1.43307841944265e+01
  1.88627909885626e-01
  1.56794572814139e-02
  9.73106087343933e-01
  1.81224237364027e+00
  3.06211587998873e+00
  4.60751974293548e+00
  5.64285406447072e+00
  4.65737548687379e+00
  1.54844590126125e+00
  8.85003440430803e-01
  1.71754964781258e+00
 -1.77240444183369e+00
  6.34755069264484e-01
  1.08825269910943e-01
  1.27679810259400e-01
  5.99621510139067e-02
  5.83395367839964e+00
  6.94517385554491e+00
  6.47033263889273e+00
  4.01128311017259e+00
  1.42249246390442e+00
  7.30059230239136e-01
  1.77804263529115e-01
  3.69064748804282e-02
  1.43307841944265e+01
  1.88627909885626e-01
  1.56794572814139e-02
  9.73106087343933e-01
  1.81224237364027e+00
  3.06211587998873e+00
  4.60751974293548e+00
  5.64285406447072e+00
  4.65737548687379e+00
  1.54844590126125e+00
  8.85003440430803e-01
  1.71754964781258e+00
 -1.77240444183369e+00
  6.34755069264484e-01
  1.08825269910943e-01
  1.27679810259400e-01
  5.99621510139067e-02
  5.83395367839964e+00
  6.94517385554491e+00
  6.47033263889273e+00
  4.01128311017259e+00
  1.42249246390442e+00
  7.30059230239136e-01
  1.77804263529115e-01
  3.69064748804282e-02
  1.43307841944265e+01
  1.88627909885626e-01
  1.56794572814139e-02
  9.73106087343933e-01
  1.81224237364027e+00
  3.06211587998873e+00
  4.60751974293548e+00
  5.64285406447072e+00
  4.65737548687379e+00
  1.54844590126125e+00
  8.85003440430803e-01
  1.71754964781258e+00
 -1.77240444183369e+00
  6.34755069264484e-01
  1.08825269910943e-01
  1.27679810259400e-01
  5.99621510139067e-02
  5.83395367839964e+00
  6.94517385554491e+00
  6.47033263889273e+00
  4.01128311017259e+00
  1.42249246390442e+00
  7.30059230239136e-01
  1.77804263529115e-01
  3.69064748804282e-02
  1.43307841944265e+01
  1.88627909885626e-01
  1.56794572814139e-02
  9.73106087343933e-01
  1.81224237364027e+00
  3.06211587998873e+00
  4.60751974293548e+00
  5.64285406447072e+00
  4.65737548687379e+00
  1.54844590126125e+00
  8.85003440430803e-01
  1.71754964781258e+00
 -1.77240444183369e+00
  6.34755069264484e-01
  1.08825269910943e-01
  1.27679810259400e-01
  5.99621510139067e-02
  5.83395367839964e+00
  6.94517385554491e+00
  6.47033263889273e+00
  4.01128311017259e+00
  1.42249246390442e+00
  7.30059230239136e-01
  1.77804263529115e-01
  3.69064748804282e-02
  1.43307841944265e+01
  1.88627909885626e-01
  1.56794572814139e-02
  9.73106087343933e-01
  1.81224237364027e+00
  3.06211587998873e+00
  4.60751974293548e+00
  5.64285406447072e+00
  4.65737548687379e+00
  1.54844590126125e+00
  8.85003440430803e-01
  1.71754964781258e+00
 -1.77240444183369e+00
  6.34755069264484e-01
  1.08825269910943e-01
  1.27679810259400e-01
  5.99621510139067e-02
  5.83395367839964e+00
  6.94517385554491e+00
  6.47033263889273e+00
  4.01128311017259e+00
  1.42249246390442e+00
  7.30059230239136e-01
  1.77804263529115e-01
  3.69064748804282e-02
  1.43307841944265e+01
  1.88627909885626e-01
  1.56794572814139e-02
  9.73106087343933e-01
  1.81224237364027e+00
  3.06211587998873e+00
  4.60751974293548e+00
  5.64285406447072e+00
  4.65737548687379e+00
  1.54844590126125e+00
  8.85003440430803e-01
  1.71754964781258e+00
 -1.77240444183369e+00
  6.34755069264484e-01
  1.08825269910943e-01
  1.27679810259400e-01
  5.99621510139067e-02
  5.83395367839964e+00
  6.94517385554491e+00
  6.47033263889273e+00
  4.01128311017259e+00
  1.42249246390442e+00
  7.30059230239136e-01
  1.77804263529115e-01
  3.69064748804282e-02
  1.43307841944265e+01
  1.88627909885626e-01
  1.56794572814139e-02
  9.73106087343933e-01
  1.81224237364027e+00
  3.06211587998873e+00
  4.60751974293548e+00
  5.64285406447072e+00
  4.65737548687379e+00
  1.54844590126125e+00
  8.85003440430803e-01
  1.71754964781258e+00
 -1.77240444183369e+00
  6.34755069264484e-01
  1.08825269910943e-01
  1.27679810259400e-01
  5.99621510139067e-02
  5.83395367839964e+00
  6.94517385554491e+00
  6.47033263889273e+00
  4.01128311017259e+00
  1.42249246390442e+00
  7.30059230239136e-01
  1.77804263529115e-01
  3.69064748804282e-02
  1.43307841944265e+01
  1.88627909885626e-01
  1.56794572814139e-02
  9.73106087343933e-01
  1.81224237364027e+00
  3.06211587998873e+00
  4.60751974293548e+00
  5.64285406447072e+00
  4.65737548687379e+00
  1.54844590126125e+00
  8.85003440430803e-01
  1.71754964781258e+00
 -1.77240444183369e+00
  6.34755069264484e-01
  1.08825269910943e-01
  1.27679810259400e-01
  5.99621510139067e-02
  5.83395367839964e+00
  6.94517385554491e+00
  6.47033263889273e+00
  4.01128311017259e+00
  1.42249246390442e+00
  7.30059230239136e-01
  1.77804263529115e-01
  3.69064748804282e-02
  1.43307841944265e+01
  1.88627909885626e-01
  1.56794572814139e-02
  9.73106087343933e-01
  1.81224237364027e+00
  3.06211587998873e+00
  4.60751974293548e+00
  5.64285406447072e+00
  4.65737548687379e+00
  1.54844590126125e+00
  8.85003440430803e-01
  1.71754964781258e+00
 -1.77240444183369e+00
  6.34755069264484e-01
  1.08825269910943e-01
  1.27679810259400e-01
  5.99621510139067e-02
  5.83395367839964e+00
  6.94517385554491e+00
  6.47033263889273e+00
  4.01128311017259e+00
  1.42249246390442e+00
  7.30059230239136e-01
  1.77804263529115e-01
  3.69064748804282e-02
  1.43307841944265e+01
  1.88627909885626e-01
  1.56794572814139e-02
  9.73106087343933e-01
  1.81224237364027e+00
  3.06211587998873e+00
  4.60751974293548e+00
  5.64285406447072e+00
  4.65737548687379e+00
  1.54844590126125e+00
  8.85003440430803e-01
  1.71754964781258e+00
 -1.77240444183369e+00
  6.34755069264484e-01
  1.08825269910943e-01
  1.27679810259400e-01
  5.99621510139067e-02
  5.83395367839964e+00
  6.94517385554491e+00
  6.47033263889273e+00
  4.01128311017259e+00
  1.42249246390442e+00
  7.30059230239136e-01
  1.77804263529115e-01
  3.69064748804282e-02
  1.43307841944265e+01
  1.88627909885626e-01
  1.56794572814139e-02
  9.73106087343933e-01
  1.81224237364027e+00
  3.06211587998873e+00
  4.60751974293548e+00
  5.64285406447072e+00
  4.65737548687379e+00
  1.54844590126125e+00
  8.85003440430803e-01
  1.71754964781258e+00
 -1.77240444183369e+00
  6.34755069264484e-01
  1.08825269910943e-01
  1.27679810259400e-01
  5.99621510139067e-02
  5.83395367839964e+00
  6.94517385554491e+00
  6.47033263889273e+00
  4.01128311017259e+00
  1.42249246390442e+00
  7.30059230239136e-01
  1.77804263529115e-01
  3.69064748804282e-02
  1.43307841944265e+01
  1.88627909885626e-01
  1.56794572814139e-02
  9.73106087343933e-01
  1.81224237364027e+00
  3.06211587998873e+00
  4.60751974293548e+00
  5.64285406447072e+00
  4.65737548687379e+00
  1.54844590126125e+00
  8.85003440430803e-01
  1.71754964781258e+00
 -1.77240444183369e+00
  6.34755069264484e-01
  1.08825269910943e-01
  1.27679810259400e-01
  5.99621510139067e-02
  5.83395367839964e+00
  6.94517385554491e+00
  6.47033263889273e+00
  4.01128311017259e+00
  1.42249246390442e+00
  7.30059230239136e-01
  1.77804263529115e-01
  3.69064748804282e-02
  1.43307841944265e+01
  1.88627909885626e-01
  1.56794572814139e-02
  9.73106087343933e-01
  1.81224237364027e+00
  3.06211587998873e+00
  4.60751974293548e+00
  5.64285406447072e+00
  4.65737548687379e+00
  1.54844590126125e+00
  8.85003440430803e-01
  1.71754964781258e+00
 -1.77240444183369e+00
  6.34755069264484e-01
  1.08825269910943e-01
  1.27679810259400e-01
  5.99621510139067e-02
  5.83395367839964e+00
  6.94517385554491e+00
  6.47033263889273e+00
  4.01128311017259e+00
  1.42249246390442e+00
  7.30059230239136e-01
  1.77804263529115e-01
  3.69064748804282e-02
  1.43307841944265e+01
  1.88627909885626e-01
  1.56794572814139e-02
  9.73106087343933e-01
  1.81224237364027e+00
  3.06211587998873e+00
  4.60751974293548e+00
  5.64285406447072e+00
  4.65737548687379e+00
  1.54844590126125e+00
  8.85003440430803e-01
  1.71754964781258e+00
 -1.77240444183369e+00
  6.34755069264484e-01
  1.08825269910943e-01
  1.27679810259400e-01
  5.99621510139067e-02
  5.83395367839964e+00
  6.94517385554491e+00
  6.47033263889273e+00
  4.01128311017259e+00
  1.42249246390442e+00
  7.30059230239136e-01
  1.77804263529115e-01
  3.69064748804282e-02
  1.43307841944265e+01
  1.88627909885626e-01
  1.56794572814139e-02
  9.73106087343933e-01
  1.81224237364027e+00
  3.06211587998873e+00
  4.60751974293548e+00
  5.64285406447072e+00
  4.65737548687379e+00
  1.54844590126125e+00
  8.85003440430803e-01
  1.71754964781258e+00
 -1.77240444183369e+00
  6.34755069264484e-01
  1.08825269910943e-01
  1.27679810259400e-01
  5.99621510139067e-02
  5.83395367839964e+00
  6.94517385554491e+00
  6.47033263889273e+00
  4.01128311017259e+00
  1.42249246390442e+00
  7.30059230239136e-01
  1.77804263529115e-01
  3.69064748804282e-02
  1.43307841944265e+01
  1.88627909885626e-01
  1.56794572814139e-02
  9.73106087343933e-01
  1.81224237364027e+00
  3.06211587998873e+00
  4.60751974293548e+00
  5.64285406447072e+00
  4.65737548687379e+00
  1.54844590126125e+00
  8.85003440430803e-01
  1.71754964781258e+00
 -1.77240444183369e+00
  6.34755069264484e-01
  1.08825269910943e-01
  1.27679810259400e-01
  5.99621510139067e-02
  5.83395367839964e+00
  6.94517385554491e+00
  6.47033263889273e+00
  4.01128311017259e+00
  1.42249246390442e+00
  7.30059230239136e-01
  1.77804263529115e-01
  3.69064748804282e-02
  1.43307841944265e+01
  1.88627909885626e-01
  1.56794572814139e-02
  9.73106087343933e-01
  1.81224237364027e+00
  3.06211587998873e+00
  4.60751974293548e+00
  5.64285406447072e+00
  4.65737548687379e+00
  1.54844590126125e+00
  8.85003440430803e-01
  1.71754964781258e+00
 -1.77240444183369e+00
  6.34755069264484e-01
  1.08825269910943e-01
  1.27679810259400e-01
  5.99621510139067e-02
  5.83395367839964e+00
  6.94517385554491e+00
  6.47033263889273e+00
  4.01128311017259e+00
  1.42249246390442e+00
  7.30059230239136e-01
  1.77804263529115e-01
  3.69064748804282e-02
  1.43307841944265e+01
  1.88627909885626e-01
  1.56794572814139e-02
  9.73106087343933e-01
  1.81224237364027e+00
  3.06211587998873e+00
  4.60751974293548e+00
  5.64285406447072e+00
  4.65737548687379e+00
  1.54844590126125e+00
  8.85003440430803e-01
  1.71754964781258e+00
 -1.77240444183369e+00
  6.34755069264484e-01
  1.08825269910943e-01
  1.27679810259400e-01
  5.99621510139067e-02
  5.83395367839964e+00
  6.94517385554491e+00
  6.47033263889273e+00
  4.01128311017259e+00
  1.42249246390442e+00
  7.30059230239136e-01
  1.77804263529115e-01
  3.69064748804282e-02
  1.43307841944265e+01
  1.88627909885626e-01
  1.56794572814139e-02
  9.73106087343933e-01
  1.81224237364027e+00
  3.06211587998873e+00
  4.60751974293548e+00
  5.64285406447072e+00
  4.65737548687379e+00
  1.54844590126125e+00
  8.85003440430803e-01
  1.71754964781258e+00
 -1.77240444183369e+00
  6.34755069264484e-01
  1.08825269910943e-01
  1.27679810259400e-01
  5.99621510139067e-02
  5.83395367839964e+00
  6.94517385554491e+00
  6.47033263889273e+00
  4.01128311017259e+00
  1.42249246390442e+00
  7.30059230239136e-01
  1.77804263529115e-01
  3.69064748804282e-02
  1.43307841944265e+01
  1.88627909885626e-01
  1.56794572814139e-02
  9.73106087343933e-01
  1.81224237364027e+00
  3.06211587998873e+00
  4.60751974293548e+00
  5.64285406447072e+00
  4.65737548687379e+00
  1.54844590126125e+00
  8.85003440430803e-01
  1.71754964781258e+00
 -1.77240444183369e+00
  6.34755069264484e-01
  1.08825269910943e-01
  1.27679810259400e-01
  5.99621510139067e-02
  5.83395367839964e+00
  6.94517385554491e+00
  6.47033263889273e+00
  4.01128311017259e+00
  1.42249246390442e+00
  7.30059230239136e-01
  1.77804263529115e-01
  3.69064748804282e-02
  1.43307841944265e+01
  1.88627909885626e-01
  1.56794572814139e-02
  9.73106087343933e-01
  1.81224237364027e+00
  3.06211587998873e+00
  4.60751974293548e+00
  5.64285406447072e+00
  4.65737548687379e+00
  1.54844590126125e+00
  8.85003440430803e-01
  1.71754964781258e+00
 -1.77240444183369e+00
  6.34755069264484e-01
  1.08825269910943e-01
  1.27679810259400e-01
  5.99621510139067e-02
  5.83395367839964e+00
  6.94517385554491e+00
  6.47033263889273e+00
  4.01128311017259e+00
  1.42249246390442e+00
  7.30059230239136e-01
  1.77804263529115e-01
  3.69064748804282e-02
  1.43307841944265e+01
  1.88627909885626e-01
  1.56794572814139e-02
  9.73106087343933e-01
  1.81224237364027e+00
  3.06211587998873e+00
  4.60751974293548e+00
  5.64285406447072e+00
  4.65737548687379e+00
  1.54844590126125e+00
  8.85003440430803e-01
  1.71754964781258e+00
 -1.77240444183369e+00
  6.34755069264484e-01
  1.08825269910943e-01
  1.27679810259400e-01
  5.99621510139067e-02
  5.83395367839964e+00
  6.94517385554491e+00
  6.47033263889273e+00
  4.01128311017259e+00
  1.42249246390442e+00
  7.30059230239136e-01
  1.77804263529115e-01
  3.69064748804282e-02
  1.43307841944265e+01
  1.88627909885626e-01
  1.56794572814139e-02
  9.73106087343933e-01
  1.81224237364027e+00
  3.06211587998873e+00
  4.60751974293548e+00
  5.64285406447072e+00
  4.65737548687379e+00
  1.54844590126125e+00
  8.85003440430803e-01
  1.71754964781258e+00
 -1.77240444183369e+00
  6.34755069264484e-01
  1.08825269910943e-01
  1.27679810259400e-01
  5.99621510139067e-02
  5.83395367839964e+00
  6.94517385554491e+00
  6.47033263889273e+00
  4.01128311017259e+00
  1.42249246390442e+00
  7.30059230239136e-01
  1.77804263529115e-01
  3.69064748804282e-02
  1.43307841944265e+01
  1.88627909885626e-01
  1.56794572814139e-02
  9.73106087343933e-01
  1.81224237364027e+00
  3.06211587998873e+00
  4.60751974293548e+00
  5.64285406447072e+00
  4.65737548687379e+00
  1.54844590126125e+00
  8.85003440430803e-01
  1.71754964781258e+00
 -1.77240444183369e+00
  6.34755069264484e-01
  1.08825269910943e-01
  1.27679810259400e-01
  5.99621510139067e-02
  5.83395367839964e+00
  6.94517385554491e+00
  6.47033263889273e+00
  4.01128311017259e+00
  1.42249246390442e+00
  7.30059230239136e-01
  1.77804263529115e-01
  3.69064748804282e-02
  1.43307841944265e+01
  1.88627909885626e-01
  1.56794572814139e-02
  9.73106087343933e-01
  1.81224237364027e+00
  3.06211587998873e+00
  4.60751974293548e+00
  5.64285406447072e+00
  4.65737548687379e+00
  1.54844590126125e+00
  8.85003440430803e-01
  1.71754964781258e+00
 -1.77240444183369e+00
  6.34755069264484e-01
  1.08825269910943e-01
  1.27679810259400e-01
  5.99621510139067e-02
  5.83395367839964e+00
  6.94517385554491e+00
  6.47033263889273e+00
  4.01128311017259e+00
  1.42249246390442e+00
  7.30059230239136e-01
  1.77804263529115e-01
  3.69064748804282e-02
  1.43307841944265e+01
  1.88627909885626e-01
  1.56794572814139e-02
  8.59858245512954e-01
  1.60553055583268e+00
  2.74587786008374e+00
  4.29876744377514e+00
  5.87976632606916e+00
  6.31639832217741e+00
  2.98121475220647e+00
  9.41955963472117e-01
  8.01929161019723e-01
  4.01164806220299e-01
  2.01079940597691e-01
  3.05720173538001e+00
  3.38448394330487e+00
  2.94742621281071e+00
  1.71182714942223e+00
  6.43605792621033e-01
  1.61089725392340e-01
  7.14570901056904e+00
  7.64080219480683e-01
  3.28165495951497e+00
  8.59858245512954e-01
  1.60553055583268e+00
  2.74587786008374e+00
  4.29876744377514e+00
  5.87976632606916e+00
  6.31639832217741e+00
  2.98121475220647e+00
  9.41955963472117e-01
  8.01929161019723e-01
  4.01164806220299e-01
  2.01079940597691e-01
  3.05720173538001e+00
  3.38448394330487e+00
  2.94742621281071e+00
  1.71182714942223e+00
  6.43605792621033e-01
  1.61089725392340e-01
  7.14570901056904e+00
  7.64080219480683e-01
  3.28165495951497e+00
  8.59858245512954e-01
  1.60553055583268e+00
  2.74587786008374e+00
  4.29876744377514e+00
  5.87976632606916e+00
  6.31639832217741e+00
  2.98121475220647e+00
  9.41955963472117e-01
  8.01929161019723e-01
  4.01164806220299e-01
  2.01079940597691e-01
  3.05720173538001e+00
  3.38448394330487e+00
  2.94742621281071e+00
  1.71182714942223e+00
  6.43605792621033e-01
  1.61089725392340e-01
  7.14570901056904e+00
  7.64080219480683e-01
  3.28165495951497e+00
  8.59858245512954e-01
  1.60553055583268e+00
  2.74587786008374e+00
  4.29876744377514e+00
  5.87976632606916e+00
  6.31639832217741e+00
  2.98121475220647e+00
  9.41955963472117e-01
  8.01929161019723e-01
  4.01164806220299e-01
  2.01079940597691e-01
  3.05720173538001e+00
  3.38448394330487e+00
  2.94742621281071e+00
  1.71182714942223e+00
  6.43605792621033e-01
  1.61089725392340e-01
  7.14570901056904e+00
  7.64080219480683e-01
  3.28165495951497e+00
  8.59858245512954e-01
  1.60553055583268e+00
  2.74587786008374e+00
  4.29876744377514e+00
  5.87976632606916e+00
  6.31639832217741e+00
  2.98121475220647e+00
  9.41955963472117e-01
  8.01929161019723e-01
  4.01164806220299e-01
  2.01079940597691e-01
  3.05720173538001e+00
  3.38448394330487e+00
  2.94742621281071e+00
  1.71182714942223e+00
  6.43605792621033e-01
  1.61089725392340e-01
  7.14570901056904e+00
  7.64080219480683e-01
  3.28165495951497e+00
  8.59858245512954e-01
  1.60553055583268e+00
  2.74587786008374e+00
  4.29876744377514e+00
  5.87976632606916e+00
  6.31639832217741e+00
  2.98121475220647e+00
  9.41955963472117e-01
  8.01929161019723e-01
  4.01164806220299e-01
  2.01079940597691e-01
  3.05720173538001e+00
  3.38448394330487e+00
  2.94742621281071e+00
  1.71182714942223e+00
  6.43605792621033e-01
  1.61089725392340e-01
  7.14570901056904e+00
  7.64080219480683e-01
  3.28165495951497e+00
  8.59858245512954e-01
  1.60553055583268e+00
  2.74587786008374e+00
  4.29876744377514e+00
  5.87976632606916e+00
  6.31639832217741e+00
  2.98121475220647e+00
  9.41955963472117e-01
  8.01929161019723e-01
  4.01164806220299e-01
  2.01079940597691e-01
  3.05720173538001e+00
  3.38448394330487e+00
  2.94742621281071e+00
  1.71182714942223e+00
  6.43605792621033e-01
  1.61089725392340e-01
  7.14570901056904e+00
  7.64080219480683e-01
  3.28165495951497e+00
  8.59858245512954e-01
  1.60553055583268e+00
  2.74587786008374e+00
  4.29876744377514e+00
  5.87976632606916e+00
  6.31639832217741e+00
  2.98121475220647e+00
  9.41955963472117e-01
  8.01929161019723e-01
  4.01164806220299e-01
  2.01079940597691e-01
  3.05720173538001e+00
  3.38448394330487e+00
  2.94742621281071e+00
  1.71182714942223e+00
  6.43605792621033e-01
  1.61089725392340e-01
  7.14570901056904e+00
  7.64080219480683e-01
  3.28165495951497e+00
  8.59858245512954e-01
  1.60553055583268e+00
  2.74587786008374e+00
  4.29876744377514e+00
  5.87976632606916e+00
  6.31639832217741e+00
  2.98121475220647e+00
  9.41955963472117e-01
  8.01929161019723e-01
  4.01164806220299e-01
  2.01079940597691e-01
  3.05720173538001e+00
  3.38448394330487e+00
  2.94742621281071e+00
  1.71182714942223e+00
  6.43605792621033e-01
  1.61089725392340e-01
  7.14570901056904e+00
  7.64080219480683e-01
  3.28165495951497e+00
  8.59858245512954e-01
  1.60553055583268e+00
  2.74587786008374e+00
  4.29876744377514e+00
  5.87976632606916e+00
  6.31639832217741e+00
  2.98121475220647e+00
  9.41955963472117e-01
  8.01929161019723e-01
  4.01164806220299e-01
  2.01079940597691e-01
  3.05720173538001e+00
  3.38448394330487e+00
  2.94742621281071e+00
  1.71182714942223e+00
  6.43605792621033e-01
  1.61089725392340e-01
  7.14570901056904e+00
  7.64080219480683e-01
  3.28165495951497e+00
  8.59858245512954e-01
  1.60553055583268e+00
  2.74587786008374e+00
  4.29876744377514e+00
  5.87976632606916e+00
  6.31639832217741e+00
  2.98121475220647e+00
  9.41955963472117e-01
  8.01929161019723e-01
  4.01164806220299e-01
  2.01079940597691e-01
  3.05720173538001e+00
  3.38448394330487e+00
  2.94742621281071e+00
  1.71182714942223e+00
  6.43605792621033e-01
  1.61089725392340e-01
  7.14570901056904e+00
  7.64080219480683e-01
  3.28165495951497e+00
  8.59858245512954e-01
  1.60553055583268e+00
  2.74587786008374e+00
  4.29876744377514e+00
  5.87976632606916e+00
  6.31639832217741e+00
  2.98121475220647e+00
  9.41955963472117e-01
  8.01929161019723e-01
  4.01164806220299e-01
  2.01079940597691e-01
  3.05720173538001e+00
  3.38448394330487e+00
  2.94742621281071e+00
  1.71182714942223e+00
  6.43605792621033e-01
  1.61089725392340e-01
  7.14570901056904e+00
  7.64080219480683e-01
  3.28165495951497e+00
  8.59858245512954e-01
  1.60553055583268e+00
  2.74587786008374e+00
  4.29876744377514e+00
  5.87976632606916e+00
  6.31639832217741e+00
  2.98121475220647e+00
  9.41955963472117e-01
  8.01929161019723e-01
  4.01164806220299e-01
  2.01079940597691e-01
  3.05720173538001e+00
  3.38448394330487e+00
  2.94742621281071e+00
  1.71182714942223e+00
  6.43605792621033e-01
  1.61089725392340e-01
  7.14570901056904e+00
  7.64080219480683e-01
  3.28165495951497e+00
  8.59858245512954e-01
  1.60553055583268e+00
  2.74587786008374e+00
  4.29876744377514e+00
  5.87976632606916e+00
  6.31639832217741e+00
  2.98121475220647e+00
  9.41955963472117e-01
  8.01929161019723e-01
  4.01164806220299e-01
  2.01079940597691e-01
  3.05720173538001e+00
  3.38448394330487e+00
  2.94742621281071e+00
  1.71182714942223e+00
  6.43605792621033e-01
  1.61089725392340e-01
  7.14570901056904e+00
  7.64080219480683e-01
  3.28165495951497e+00
  8.59858245512954e-01
  1.60553055583268e+00
  2.74587786008374e+00
  4.29876744377514e+00
  5.87976632606916e+00
  6.31639832217741e+00
  2.98121475220647e+00
  9.41955963472117e-01
  8.01929161019723e-01
  4.01164806220299e-01
  2.01079940597691e-01
  3.05720173538001e+00
  3.38448394330487e+00
  2.94742621281071e+00
  1.71182714942223e+00
  6.43605792621033e-01
  1.61089725392340e-01
  7.14570901056904e+00
  7.64080219480683e-01
  3.28165495951497e+00
  8.59858245512954e-01
  1.60553055583268e+00
  2.74587786008374e+00
  4.29876744377514e+00
  5.87976632606916e+00
  6.31639832217741e+00
  2.98121475220647e+00
  9.41955963472117e-01
  8.01929161019723e-01
  4.01164806220299e-01
  2.01079940597691e-01
  3.05720173538001e+00
  3.38448394330487e+00
  2.94742621281071e+00
  1.71182714942223e+00
  6.43605792621033e-01
  1.61089725392340e-01
  7.14570901056904e+00
  7.64080219480683e-01
  3.28165495951497e+00
  8.59858245512954e-01
  1.60553055583268e+00
  2.74587786008374e+00
  4.29876744377514e+00
  5.87976632606916e+00
  6.31639832217741e+00
  2.98121475220647e+00
  9.41955963472117e-01
  8.01929161019723e-01
  4.01164806220299e-01
  2.01079940597691e-01
  3.05720173538001e+00
  3.38448394330487e+00
  2.94742621281071e+00
  1.71182714942223e+00
  6.43605792621033e-01
  1.61089725392340e-01
  7.14570901056904e+00
  7.64080219480683e-01
  3.28165495951497e+00
  8.59858245512954e-01
  1.60553055583268e+00
  2.74587786008374e+00
  4.29876744377514e+00
  5.87976632606916e+00
  6.31639832217741e+00
  2.98121475220647e+00
  9.41955963472117e-01
  8.01929161019723e-01
  4.01164806220299e-01
  2.01079940597691e-01
  3.05720173538001e+00
  3.38448394330487e+00
  2.94742621281071e+00
  1.71182714942223e+00
  6.43605792621033e-01
  1.61089725392340e-01
  7.14570901056904e+00
  7.64080219480683e-01
  3.28165495951497e+00
  8.59858245512954e-01
  1.60553055583268e+00
  2.74587786008374e+00
  4.29876744377514e+00
  5.87976632606916e+00
  6.31639832217741e+00
  2.98121475220647e+00
  9.41955963472117e-01
  8.01929161019723e-01
  4.01164806220299e-01
  2.01079940597691e-01
  3.05720173538001e+00
  3.38448394330487e+00
  2.94742621281071e+00
  1.71182714942223e+00
  6.43605792621033e-01
  1.61089725392340e-01
  7.14570901056904e+00
  7.64080219480683e-01
  3.28165495951497e+00
  8.59858245512954e-01
  1.60553055583268e+00
  2.74587786008374e+00
  4.29876744377514e+00
  5.87976632606916e+00
  6.31639832217741e+00
  2.98121475220647e+00
  9.41955963472117e-01
  8.01929161019723e-01
  4.01164806220299e-01
  2.01079940597691e-01
  3.05720173538001e+00
  3.38448394330487e+00
  2.94742621281071e+00
  1.71182714942223e+00
  6.43605792621033e-01
  1.61089725392340e-01
  7.14570901056904e+00
  7.64080219480683e-01
  3.28165495951497e+00
  8.59858245512954e-01
  1.60553055583268e+00
  2.74587786008374e+00
  4.29876744377514e+00
  5.87976632606916e+00
  6.31639832217741e+00
  2.98121475220647e+00
  9.41955963472117e-01
  8.01929161019723e-01
  4.01164806220299e-01
  2.01079940597691e-01
  3.05720173538001e+00
  3.38448394330487e+00
  2.94742621281071e+00
  1.71182714942223e+00
  6.43605792621033e-01
  1.61089725392340e-01
  7.14570901056904e+00
  7.64080219480683e-01
  3.28165495951497e+00
  8.59858245512954e-01
  1.60553055583268e+00
  2.74587786008374e+00
  4.29876744377514e+00
  5.87976632606916e+00
  6.31639832217741e+00
  2.98121475220647e+00
  9.41955963472117e-01
  8.01929161019723e-01
  4.01164806220299e-01
  2.01079940597691e-01
  3.05720173538001e+00
  3.38448394330487e+00
  2.94742621281071e+00
  1.71182714942223e+00
  6.43605792621033e-01
  1.61089725392340e-01
  7.14570901056904e+00
  7.64080219480683e-01
  3.28165495951497e+00
  8.59858245512954e-01
  1.60553055583268e+00
  2.74587786008374e+00
  4.29876744377514e+00
  5.87976632606916e+00
  6.31639832217741e+00
  2.98121475220647e+00
  9.41955963472117e-01
  8.01929161019723e-01
  4.01164806220299e-01
  2.01079940597691e-01
  3.05720173538001e+00
  3.38448394330487e+00
  2.94742621281071e+00
  1.71182714942223e+00
  6.43605792621033e-01
  1.61089725392340e-01
  7.14570901056904e+00
  7.64080219480683e-01
  3.28165495951497e+00
  8.59858245512954e-01
  1.60553055583268e+00
  2.74587786008374e+00
  4.29876744377514e+00
  5.87976632606916e+00
  6.31639832217741e+00
  2.98121475220647e+00
  9.41955963472117e-01
  8.01929161019723e-01
  4.01164806220299e-01
  2.01079940597691e-01
  3.05720173538001e+00
  3.38448394330487e+00
  2.94742621281071e+00
  1.71182714942223e+00
  6.43605792621033e-01
  1.61089725392340e-01
  7.14570901056904e+00
  7.64080219480683e-01
  3.28165495951497e+00
  8.59858245512954e-01
  1.60553055583268e+00
  2.74587786008374e+00
  4.29876744377514e+00
  5.87976632606916e+00
  6.31639832217741e+00
  2.98121475220647e+00
  9.41955963472117e-01
  8.01929161019723e-01
  4.01164806220299e-01
  2.01079940597691e-01
  3.05720173538001e+00
  3.38448394330487e+00
  2.94742621281071e+00
  1.71182714942223e+00
  6.43605792621033e-01
  1.61089725392340e-01
  7.14570901056904e+00
  7.64080219480683e-01
  3.28165495951497e+00
  8.59858245512954e-01
  1.60553055583268e+00
  2.74587786008374e+00
  4.29876744377514e+00
  5.87976632606916e+00
  6.31639832217741e+00
  2.98121475220647e+00
  9.41955963472117e-01
  8.01929161019723e-01
  4.01164806220299e-01
  2.01079940597691e-01
  3.05720173538001e+00
  3.38448394330487e+00
  2.94742621281071e+00
  1.71182714942223e+00
  6.43605792621033e-01
  1.61089725392340e-01
  7.14570901056904e+00
  7.64080219480683e-01
  3.28165495951497e+00
  8.59858245512954e-01
  1.60553055583268e+00
[...]
 Nuclear Attraction Energy = -293.31070756485411
 Nuclear Repulsion  Energy =  13.56102348657718
 Total Coulomb      Energy =  67.45174265152315
 Time for RI-J this SCF iteration is 61.60 s
   34    -113.2351808329      2.26e-06   Normal BFGS step
 Energy components after cycle 34:
 D3 correction      Energy =  -0.00041279889897
 DFT Correlation    Energy =  -0.44807270780733
 DFT Exchange       Energy = -13.30407958530160
 Kinetic            Energy = 112.81525013980716
 Nuclear Attraction Energy = -293.31057866594472
 Nuclear Repulsion  Energy =  13.56102348657718
 Total Coulomb      Energy =  67.45168929863036
   34    -113.2351808329      2.26e-06  Convergence criterion met
 ----------------------------------------------
 Final energy components:
 D3 correction      Energy =  -0.00041279889897
 DFT Correlation    Energy =  -0.44807270780733
 DFT Exchange       Energy = -13.30407958530160
 Kinetic            Energy = 112.81525013980716
 Nuclear Attraction Energy = -293.31057866594472
 Nuclear Repulsion  Energy =  13.56102348657718
 Total Coulomb      Energy =  67.45168929863036
 ----------------------------------------------
 Final energy is -113.2351808329

 SCF time:   CPU 93022.49s  wall 3340.00s 
 Total wall time for computing Kinetic: 0.82 s (36)
 Total wall time for computing RIJ-BIGMEM: 2367.41 s (36)
 Total wall time for computing RSDF Vnuc: 0.83 s (36)
 Total wall time for computing DFT XC: 330.29 s (36)
 ---------------------------------------------------------------------------
                        Orbital Energies (a.u.)
 ---------------------------------------------------------------------------
 == 0-th k-point (0.00000,0.00000,0.00000) occupation: 7==
 -18.85537 -9.99929 -1.06834 -0.51669 -0.42947 -0.42947 -0.33055 -0.07531 -0.07531 0.00289
 0.01990 0.03816 0.03816 0.04080 0.04236 0.05779 0.05920 0.05920 0.06277 0.07051
 0.07568 0.07935 0.07935 0.08125 0.08446 0.09127 0.09127 0.09681 0.09850 0.10157
 0.10157 0.10509 0.10800 0.13127 0.13203 0.13203 0.13451 0.14160 0.14671 0.14921
 0.14921 0.15272 0.15867 0.15867 0.16301 0.17426 0.17969 0.17969 0.18516 0.18590
 0.18805 0.18805 0.18950 0.19099 0.19408 0.19408 0.19533 0.19677 0.19977 0.19977
 0.20078 0.20959 0.21469 0.21701 0.21909 0.21909 0.22162 0.22162 0.22259 0.22259
 0.22282 0.22376 0.22434 0.22924 0.22948 0.22993 0.22993 0.24060 0.25901 0.26163
 0.26223 0.26223 0.26341 0.26341 0.26512 0.26561 0.26847 0.26872 0.26872 0.27063
 0.27492 0.27511 0.27511 0.27697 0.28083 0.30741 0.31199 0.31593 0.31593 0.31930
 0.31930 0.32089 0.32318 0.32455 0.32779 0.32824 0.32824 0.33121 0.33121 0.33181
 0.33363 0.33995 0.34421 0.34695 0.35419 0.35419 0.35430 0.36038 0.36038 0.36788
 0.36788 0.36972 0.37195 0.37382 0.37561 0.37561 0.38068 0.38299 0.38587 0.38629
 0.39241 0.39241 0.39334 0.39363 0.39412 0.39412 0.39659 0.40016 0.40016 0.40031
 0.40595 0.40658 0.40990 0.40990 0.41176 0.41268 0.41879 0.42040 0.42040 0.42150
 0.42230 0.42284 0.42284 0.42633 0.43356 0.43656 0.43656 0.44111 0.44111 0.44136
 0.44358 0.44361 0.44845 0.44845 0.45451 0.45849 0.45968 0.45968 0.46404 0.46404
 0.46460 0.46487 0.47372 0.47413 0.47691 0.47691 0.47764 0.48906 0.49468 0.49966
 0.50144 0.50144 0.50168 0.50261 0.50518 0.50518 0.51003 0.51273 0.51273 0.51340
 0.51436 0.51436 0.51449 0.51943 0.52218 0.52218 0.52384 0.52650 0.52783 0.53087
 0.53162 0.53162 0.53605 0.53646 0.53750 0.53750 0.53891 0.54209 0.55190 0.55190
 0.55431 0.55567 0.55607 0.55607 0.56539 0.56577 0.56577 0.56925 0.57082 0.59058
 0.59805 0.60020 0.60020 0.60817 0.60949 0.60949 0.60967 0.61483 0.61483 0.61786
 0.62485 0.62485 0.62533 0.62782 0.63151 0.63343 0.63343 0.63399 0.63543 0.64123
 0.64123 0.64420 0.64420 0.64668 0.64869 0.65232 0.65703 0.65703 0.65748 0.66267
 0.66347 0.66347 0.66451 0.66617 0.66752 0.66975 0.67094 0.67094 0.67520 0.67520
 0.67713 0.67713 0.67889 0.67967 0.68222 0.68735 0.68742 0.69390 0.69426 0.69426
 0.69535 0.69566 0.69566 0.69738 0.69972 0.70631 0.70875 0.70875 0.71150 0.71168
 0.71196 0.71196 0.71225 0.71792 0.71792 0.71831 0.72786 0.72888 0.73463 0.73673
 0.73673 0.73866 0.74050 0.74050 0.74948 0.75166 0.75166 0.75410 0.75489 0.75489
 0.75587 0.75593 0.75740 0.75762 0.75762 0.75988 0.76292 0.76397 0.76397 0.76458
 0.76605 0.76687 0.76687 0.77070 0.77968 0.77968 0.78000 0.78104 0.78400 0.78599
 0.78682 0.78682 0.78915 0.79226 0.79256 0.79511 0.79549 0.79549 0.79862 0.79862
 0.80195 0.80195 0.80587 0.81011 0.81885 0.82395 0.82396 0.82552 0.82756 0.82952
 0.83213 0.83533 0.83533 0.85211 0.85211 0.85463 0.86401 0.86611 0.86845 0.87346
 0.87346 0.89303 0.89303 0.89317 0.89893 0.90061 0.90080 0.90080 0.91310 0.91316
 0.91343 0.91435 0.91447 0.91447 0.91885 0.91964 0.91964 0.92139 0.92139 0.92719
 0.92722 0.92722 0.93097 0.93320 0.93549 0.94072 0.94073 0.94704 0.94819 0.94853
 0.94853 0.95693 0.95775 0.96239 0.96240 0.96298 0.96721 0.96820 0.96820 0.96876
 0.97224 0.97380 0.97380 0.97736 0.98184 0.98184 0.98419 0.98626 0.98954 0.99202
 0.99202 0.99208 0.99326 0.99650 1.00097 1.00161 1.00161 1.00303 1.00520 1.00520
 1.01577 1.02768 1.02900 1.02911 1.02954 1.02954 1.03457 1.03457 1.03462 1.03511
 1.03511 1.03653 1.03852 1.04064 1.04696 1.04696 1.04713 1.05083 1.05083 1.05097
 1.05241 1.05541 1.05594 1.05595 1.06353 1.06583 1.07138 1.07223 1.07223 1.08368
 1.08368 1.08540 1.09041 1.09331 1.09443 1.09796 1.09796 1.09925 1.10251 1.10251
 1.10959 1.10959 1.11027 1.11180 1.11917 1.11917 1.12037 1.12037 1.12045 1.12100
 1.12257 1.12296 1.12908 1.13143 1.13712 1.13858 1.13858 1.14217 1.14331 1.14331
 1.15464 1.16542 1.16727 1.16727 1.17138 1.17497 1.17530 1.17530 1.17845 1.18950
 1.18950 1.19362 1.19584 1.19934 1.19934 1.21134 1.21421 1.21488 1.21488 1.21617
 1.21722 1.21820 1.21857 1.21950 1.22197 1.22197 1.22776 1.22776 1.23565 1.23823
 1.23823 1.24012 1.25193 1.25560 1.25589 1.26998 1.26998 1.27228 1.27228 1.28484
 1.28485 1.28554 1.28554 1.28675 1.28702 1.28870 1.28870 1.29136 1.29891 1.30028
 1.30028 1.30279 1.30808 1.30908 1.31904 1.31904 1.32090 1.32901 1.33065 1.33143
 1.33143 1.33841 1.33841 1.33876 1.34596 1.35400 1.35400 1.35417 1.35444 1.36833
 1.37241 1.37351 1.37351 1.37474 1.37505 1.38432 1.38432 1.38605 1.38711 1.38711
 1.39148 1.39585 1.41146 1.41146 1.41191 1.41817 1.42047 1.42839 1.42863 1.42863
 1.43300 1.43300 1.43348 1.43920 1.44574 1.44651 1.44651 1.45902 1.45930 1.45930
 1.46198 1.48188 1.48234 1.49033 1.49033 1.49128 1.49340 1.49381 1.49477 1.49477
 1.49692 1.50314 1.50314 1.51025 1.51074 1.52312 1.52373 1.52407 1.52424 1.52424
 1.52475 1.52818 1.52819 1.53011 1.53243 1.53243 1.53573 1.53695 1.54431 1.54431
 1.54547 1.55275 1.55275 1.55580 1.56247 1.56247 1.56615 1.57114 1.58570 1.58570
 1.59169 1.59169 1.59195 1.59358 1.59978 1.60320 1.60991 1.60996 1.61000 1.61000
 1.61564 1.61564 1.61569 1.61591 1.62214 1.62384 1.62384 1.62670 1.64143 1.64772
 1.65024 1.65024 1.65394 1.65448 1.66119 1.66119 1.67665 1.68021 1.68811 1.68962
 1.68962 1.69314 1.69314 1.69320 1.69523 1.69659 1.69746 1.70171 1.70289 1.70289
 1.70435 1.70768 1.70995 1.70995 1.72108 1.72406 1.72406 1.72493 1.72493 1.72912
 1.73774 1.73864 1.73864 1.74013 1.74501 1.74541 1.74956 1.75004 1.75005 1.75646
 1.75810 1.76395 1.76395 1.76779 1.79262 1.79262 1.79478 1.79516 1.79747 1.79747
 1.81281 1.81400 1.81401 1.81580 1.81863 1.83306 1.83306 1.83407 1.84019 1.84024
 1.85165 1.85165 1.85544 1.86732 1.86999 1.87114 1.87932 1.87932 1.88783 1.88834
 1.89338 1.89338 1.89474 1.89802 1.89802 1.90533 1.91166 1.91534 1.91534 1.92225
 1.92310 1.92510 1.92510 1.95827 1.96032 1.96032 1.96246 1.96666 1.96706 1.96982
 1.96982 1.97491 1.97553 1.98461 1.98461 1.99536 2.00197 2.00197 2.00334 2.00336
 2.00978 2.01546 2.01546 2.01579 2.02061 2.03335 2.03335 2.04902 2.04902 2.04947
 2.06633 2.06942 2.08124 2.08124 2.08153 2.08173 2.08273 2.08496 2.08633 2.08704
 2.08704 2.09268 2.09678 2.10347 2.10347 2.10776 2.12350 2.12351 2.12370 2.13064
 2.13064 2.13182 2.13256 2.13470 2.13903 2.14732 2.14732 2.15078 2.15175 2.15367
 2.15650 2.15834 2.15834 2.16119 2.16133 2.16229 2.16301 2.16301 2.16843 2.16936
 2.16936 2.17847 2.18696 2.18697 2.19724 2.23722 2.23949 2.23949 2.24070 2.24162
 2.24511 2.24942 2.24942 2.25001 2.25425 2.26094 2.26094 2.26107 2.26328 2.26328
 2.26549 2.26549 2.27185 2.27259 2.27259 2.28209 2.29111 2.30263 2.30911 2.31077
 2.31332 2.31470 2.31470 2.31617 2.31617 2.31711 2.31711 2.31833 2.31833 2.31921
 2.32187 2.32187 2.32402 2.32507 2.32633 2.32633 2.33002 2.33002 2.33088 2.33147
 2.33725 2.34388 2.34388 2.34758 2.35112 2.35321 2.35321 2.36468 2.36696 2.37482
 2.37482 2.38260 2.38684 2.39025 2.39214 2.39214 2.40112 2.40112 2.41905 2.43407
 2.43407 2.43660 2.45446 2.45446 2.46090 2.46198 2.46558 2.46558 2.46785 2.46795
 2.46908 2.46977 2.46977 2.47101 2.47232 2.47232 2.47344 2.47372 2.47863 2.47863
 2.47972 2.47982 2.48034 2.48431 2.48515 2.48586 2.48586 2.48852 2.49008 2.49008
 2.49077 2.49077 2.49289 2.50719 2.51337 2.51338 2.51867 2.52741 2.53975 2.53975
 2.54053 2.54757 2.55006 2.55006 2.56469 2.56469 2.56490 2.56502 2.57642 2.57642
 2.58242 2.58242 2.58329 2.58489 2.58770 2.58935 2.58935 2.59226 2.59648 2.59648
 2.60144 2.60414 2.60414 2.60589 2.60718 2.60907 2.61084 2.61623 2.61754 2.61755
 2.62117 2.62117 2.62207 2.62501 2.62993 2.62993 2.63273 2.63291 2.63426 2.63765
 2.63765 2.65001 2.65568 2.65907 2.65907 2.66378 2.66552 2.66651 2.66793 2.66793
 2.67065 2.67191 2.67191 2.67229 2.67230 2.67231 2.67448 2.67722 2.68074 2.68165
 2.68344 2.68344 2.69091 2.69091 2.69143 2.69649 2.69725 2.69725 2.69772 2.69917
 2.71050 2.71050 2.71734 2.72002 2.72268 2.72726 2.72726 2.72753 2.72828 2.72971
 2.73168 2.73280 2.73280 2.73292 2.73631 2.73720 2.73720 2.74208 2.74536 2.74536
 2.74882 2.74882 2.74940 2.75917 2.75917 2.76685 2.77486 2.77563 2.79069 2.79120
 2.79120 2.80945 2.81217 2.81218 2.82438 2.83519 2.83551 2.83551 2.83634 2.83650
 2.83705 2.83705 2.84439 2.84833 2.84833 2.85781 2.85820 2.85820 2.85970 2.86100
 2.86734 2.86911 2.86982 2.87066 2.87066 2.87216 2.87503 2.87503 2.88196 2.88514
 2.89222 2.89222 2.89379 2.89379 2.89416 2.89438 2.90042 2.91023 2.91794 2.91794
 2.92496 2.92496 2.92651 2.93445 2.94924 2.96107 2.96249 2.96249 2.96347 2.96868
 2.97216 2.97232 2.97232 3.03370 3.04315 3.05468 3.05468 3.06747 3.07454 3.07782
 3.08110 3.08110 3.09599 3.09599 3.10288 3.10288 3.10778 3.10854 3.11770 3.11770
 3.11866 3.11998 3.12085 3.13254 3.13254 3.13604 3.14024 3.14288 3.14387 3.14387
 3.14572 3.14870 3.14870 3.15020 3.15624 3.15624 3.15816 3.16048 3.19259 3.20645
 3.20645 3.20886 3.21134 3.21134 3.21458 3.21620 3.23366 3.23546 3.23791 3.23792
 3.25055 3.25782 3.25782 3.26003 3.26029 3.26127 3.26128 3.27398 3.27442 3.27890
 3.28042 3.28051 3.28051 3.29031 3.29031 3.30600 3.32741 3.33062 3.33544 3.33737
 3.33737 3.35079 3.35882 3.35971 3.36268 3.36268 3.36704 3.36982 3.37354 3.37847
 3.37847 3.37958 3.38031 3.38229 3.38229 3.38370 3.38442 3.38503 3.38503 3.38611
 3.38653 3.38843 3.39227 3.39227 3.39731 3.39970 3.41328 3.41328 3.42333 3.43179
 3.43179 3.45238 3.45359 3.45913 3.46274 3.46274 3.47441 3.48628 3.49057 3.49626
 3.49626 3.51856 3.54420 3.54777 3.54777 3.55416 3.63174 3.63174 3.84303 4.18423
 4.58040 4.60821 4.60821 4.61098 4.62293 4.62293 4.62551 4.63755 4.64805 4.64848
 4.65097 4.65097 4.65225 4.69655 4.69655 4.69708 4.70485 4.71894 4.72364 4.72537
 4.72537 4.72833 4.72990 4.72990 4.73238 4.73239 4.73295 4.73359 4.73753 4.83128
 4.88261 4.91225 4.95593 4.95593 5.34640 5.34670 6.07315 6.07315 6.10968 6.11056
 6.34259 6.40680 6.41590 6.41919 6.41919 6.42921 6.42927 6.42990 6.43023 6.43023
 6.43319 6.43478 6.43697 6.43929 6.43929 6.44033 6.44041 6.44041 6.44069 6.44069
 6.44122 6.44145 6.44203 6.44203 6.44204 6.44219 6.44325 6.44325 6.44348 6.44380
 6.44401 6.44424 6.44424 6.44622 6.44844 6.44844 6.45272 6.45280 6.45363 6.45532
 6.45532 6.45763 6.45830 6.45834 6.45835 6.45940 6.45940 6.45975 6.46015 6.46070
 6.46128 6.46294 6.46311 6.46311 6.46568 6.46568 6.46678 6.46811 6.47287 6.47387
 6.47387 6.47798 6.47807 6.47847 6.47979 6.48058 6.48058 6.48178 6.48743 6.48743
 6.49112 6.49192 6.49192 6.49209 6.49534 6.49588 6.49631 6.49631 6.49737 6.49784
 6.49784 6.49949 6.49961 6.49965 6.49965 6.50830 6.50830 6.51021 6.51021 6.51035
 6.51098 6.51120 6.51253 6.51432 6.51625 6.51625 6.51743 6.51878 6.51887 6.51887
 6.52240 6.52259 6.52259 6.52414 6.52872 6.52900 6.52923 6.52923 6.53246 6.53316
 6.53316 6.53417 6.53566 6.53566 6.53974 6.54238 6.54276 6.54310 6.54310 6.54572
 6.55011 6.55217 6.55265 6.55265 6.55882 6.56102 6.56237 6.56237 6.56419 6.56526
 6.56526 6.56840 6.56939 6.56997 6.57136 6.57136 6.57462 6.57462 6.57539 6.57603
 6.57817 6.57849 6.57849 6.57974 6.58005 6.58346 6.58359 6.58359 6.59977 6.60626
 6.60626 6.60628 6.60649 6.61248 6.61248 6.61479 6.61641 6.61714 6.61953 6.61953
 6.63053 6.63168 6.63192 6.63208 6.63208 6.64458 6.64458 6.64503 6.65899 6.65959
 6.65982 6.65982 6.66546 6.66898 6.66898 6.66941 6.67011 6.67053 6.67053 6.67475
 6.67611 6.67611 6.67629 6.70080 6.70080 6.70600 6.70627 6.70627 6.70968 6.70993
 6.71045 6.71045 6.71268 6.71268 6.71270 6.71288 6.71307 6.72926 6.72945 6.73069
 6.73069 6.73965 6.74834 6.74834 6.74866 6.75109 6.75409 6.75472 6.75473 6.76517
 6.76522 6.76522 6.76550 6.76843 6.76843 6.76859 6.76982 6.78026 6.78026 6.80086
 6.80199 6.80199 6.80203 6.84619 6.84786 6.85258 6.85258 6.94056 9.11210 9.11996
 9.12180 9.12180 9.17422 9.17817 9.17817 9.18141 9.18222 9.19004 9.19004 9.19709
 9.22495 9.22781 9.23363 9.23363 9.24283 9.24376 9.24435 9.24435 9.24765 9.25033
 9.27465 9.27465 9.29868 9.30612 9.30932 9.30932 9.33925 9.34657 9.35069 9.35664
 9.35897 9.35897 9.36467 9.36467 9.36762 9.37447 9.38576 9.38610 9.38628 9.38628
 9.38730 9.38746 9.38894 9.39039 9.39039 9.39888 9.39888 9.41000 9.41240 9.41240
 9.41748 9.41819 9.42059 9.42322 9.42322 9.44126 9.44188 9.44194 9.44194 9.45643
 9.45643 9.45840 9.46634 9.46790 9.46791 9.46987 9.47555 9.47558 9.47558 9.47704
 9.47994 9.47995 9.49025 9.49073 9.49294 9.49294 9.49548 9.49615 9.49911 9.49911
 9.50250 9.50394 9.50394 9.51341 9.51689 9.51689 9.51916 9.53291 9.54218 9.54218
 9.54228 9.54619 9.54838 9.55039 9.55039 9.55484 9.56212 9.56212 9.56703 9.57784
 9.57927 9.57927 9.58773 9.59330 9.59330 9.59491 9.60280 9.60294 9.60774 9.60774
 9.61361 9.61535 9.61577 9.61577 9.62237 9.62265 9.62265 9.62335 9.62481 9.62803
 9.62904 9.62998 9.63015 9.63015 9.63101 9.63143 9.63289 9.63326 9.63326 9.63581
 9.63581 9.64302 9.64365 9.64365 9.64568 9.64568 9.64837 9.65227 9.65623 9.66280
 9.66323 9.66340 9.66632 9.66632 9.67825 9.67932 9.67932 9.68124 9.68124 9.68124
 9.68140 9.68307 9.68326 9.68583 9.68583 9.69002 9.70351 9.70589 9.70669 9.70669
 9.71164 9.71571 9.71571 9.72140 9.73239 9.73707 9.75190 9.75190 9.75442 9.75521
 9.76223 9.77892 9.77892 9.77924 9.78305 9.78385 9.78677 9.78677 9.78908 9.79503
 9.79973 9.79974 9.80769 9.81008 9.81179 9.81179 9.81258 9.81258 9.82039 9.82096
 9.82455 9.82455 9.82526 9.82526 9.82594 9.82747 9.82747 9.82781 9.82862 9.82997
 9.83156 9.83181 9.83181 9.83417 9.83462 9.83569 9.84174 9.84174 9.84235 9.84287
 9.84400 9.84503 9.84630 9.84630 9.84832 9.84832 9.84845 9.84898 9.86052 9.86532
 9.86532 9.87382 9.87943 9.87943 9.88108 9.91342 9.91905 9.92191 9.92191 9.93327
 9.94174 9.94431 9.94440 9.94440 9.94500 9.94734 9.94734 9.95497 9.96003 9.96003
 9.96218 9.96936 9.98997 10.02126 10.04500 10.04722 10.04722 10.04989 10.04989 10.06162
 10.07435 10.07483 10.07483 10.08649 11.01410 11.02296 11.02296 11.03134 11.05794 11.05891
 11.06182 11.06182 11.10489 11.21320 11.22611 11.23835 11.38499 11.38501 11.38736 11.38736
 11.38882 11.39448 11.39448 11.41870 11.42435 11.45536 11.46733 11.46733 11.47913 11.47913
 11.49683 11.52038 11.54318 11.59637 11.59637 11.90165 12.23142 12.23142 12.23454 12.26181
 12.26266 12.26266 12.26370 12.26460 12.26652 12.26762 12.26762 12.26817 12.27168 12.27168
 12.27421 12.27421 12.27478 12.27689 12.27689 12.27703 12.27814 12.27814 12.27818 12.27920
 12.27928 12.28027 12.28057 12.28086 12.28086 12.28289 12.28470 12.28470 12.28628 12.28810
 12.28844 12.28844 12.28850 12.29040 12.29115 12.29115 12.29454 12.29548 12.29558 12.29667
 12.29667 12.29828 12.29879 12.29930 12.29930 12.29940 12.30539 12.31138 12.31138 12.31229
 12.31384 12.31423 12.31465 12.31465 12.31713 12.31983 12.33298 12.34521 12.34521 12.34620
 12.34620 12.34808 12.34810 12.34958 12.34958 12.35135 12.35235 12.35322 12.35322 12.35372
 12.35375 12.35375 12.35416 12.35704 12.35729 12.35963 12.35963 12.35984 12.35984 12.36311
 12.37174 12.37867 12.37883 12.37883 12.38537 12.38564 12.38564 12.38611 12.38635 12.38654
 12.38865 12.38865 12.38944 12.39215 12.39614 12.39614 12.39820 12.40154 12.40200 12.40343
 12.40343 12.40765 12.40908 12.41174 12.41175 12.42031 12.42347 12.42510 12.42541 12.42541
 12.42582 12.42621 12.42786 12.42810 12.42891 12.42891 12.43190 12.43667 12.43667 12.43685
 12.44288 12.44698 12.44962 12.44962 12.45683 12.46045 12.46045 12.46485 12.46669 12.47104
 12.47104 12.47737 12.47926 12.48102 12.48102 12.48920 12.49315 12.50511 12.50511 12.50741
 12.50745 12.50990 12.50990 12.51250 12.51386 12.51565 12.51565 12.51585 12.51624 12.51764
 12.51817 12.51817 12.57911 12.58290 12.58605 12.60856 13.56112 13.57167 13.57167 13.58227
 13.62307 13.62307 13.62439 13.63484 13.68520 13.69121 13.69121 13.69373 13.69495 13.71035
 13.71035 13.71038 13.72024 13.77769 13.79884 13.80444 13.80444 13.80506 13.81561 13.81622
 13.81622 13.83189 13.83230 13.83230 13.83283 13.85393 13.86482 13.86482 13.86675 13.90339
 13.90339 13.90841 13.91546 13.97142 13.97556 13.99801 13.99873 14.00235 14.00235 14.01579
 14.02154 14.02470 14.02470 14.02830 14.02830 14.03052 14.03237 14.03320 14.04207 14.04207
 14.04207 14.04610 14.04610 14.05211 14.05472 14.05880 14.05880 14.06688 14.08098 14.08102
 14.09264 14.09264 14.09442 14.09442 14.09643 14.11647 14.12009 14.12136 14.12728 14.12729
 14.12975 14.13417 14.13418 14.14764 14.15130 14.15130 14.20166 14.20254 14.20254 14.30286
 14.34739 14.34942 14.35264 14.35265 14.35837 14.35837 14.37166 14.37166 14.39631 14.39763
 14.41947 14.41947 19.37605 19.37676 19.37676 19.39427 19.39427 19.39464 19.39619 19.39824
 19.41899 19.42207 19.42270 19.42270 19.42668 19.49707 19.49707 19.49883 19.50653 19.51663
 19.52351 19.52370 19.52370 19.52664 19.52664 19.52730 19.53127 19.53227 19.53413 19.53413
 19.53636 19.65478 19.70680 19.73503 22.47441 43.52272 78.43075 78.46450 78.47844 78.47892
 78.47892 78.48031 78.48479 78.48570 78.48581 78.48581 78.48605 78.48605 78.48663 78.48735
 78.48939 78.49046 78.49114 78.49114 78.49143 78.49303 78.49535 78.49564 78.49564 78.49729
 78.49769 78.49784 78.49784 78.49791 78.49868 78.49895 78.49895 78.49896 126.88595 126.88595
 126.89392 126.90987 126.91798 126.92325 126.92355 126.92355 126.93125 126.93705 126.93858 126.93858
 126.97399 127.08021 127.08021 127.08509 127.09834 127.12658 127.12762 127.12762 127.12898 127.13421
 127.13614 127.13614 127.14144 127.14155 127.14576 127.14576 127.14918 127.32041 127.42668 127.46977

 ---------------------------------------------------------------------------
 VBM is at 0-th k-point with -8.99470 eV
 CBM is at 0-th k-point with -2.04921 eV
 Band gap is 6.94549 eV


           Ground-State Mulliken Net Atomic Charges

      Atom                 Charge (a.u.)          Spin (a.u.)
   --------------------------------------------------------
      1  C               (0.182554,-0.000000)    (0.000000,0.000000)
      2  O               (7.999400,-0.000000)    (0.000000,0.000000)
   --------------------------------------------------------
  Sum of atomic charges =     (-0.000000,-0.000000)
  Sum of spin   charges =       (0.000000,0.000000)



 Total job time:  3342.28 s.
 Wed Sep 17 14:58:32 2025


        *************************************************************
        *                                                           *
        *  Thank you very much for using QCPBC. Have a nice day.    *
        *                                                           *
        *************************************************************

Running job 1 of 1
